Protein in INSANE! Membrane UpperLeaflet>POPC=1.0 LowerLeaflet>POPC=1.0
247995
    1AU     AUC    1   3.392  44.632   7.492
    1AU     AUC    2   3.688  44.673   7.328
    1AU     AUC    3   3.659  44.648   7.663
    1AU     AUC    4   3.115  44.613   7.325
    1AU     AUC    5   3.110  44.619   7.675
    1AU     AUC    6   3.203  44.875   7.510
    1AU     AUC    7   3.538  44.904   7.493
    1AU     AUC    8   3.239  44.353   7.498
    1AU     AUC    9   3.590  44.398   7.484
    1AU     AUC   10   3.425  44.466   7.764
    1AU     AUC   11   3.371  44.788   7.764
    1AU     AUC   12   3.419  44.478   7.219
    1AU     AUC   13   3.413  44.813   7.226
    1AU     AUC   14   4.002  44.701   7.176
    1AU     AUC   15   4.038  44.691   7.498
    1AU     AUC   16   3.968  44.649   7.862
    1AU     AUC   17   2.811  44.586   7.148
    1AU     AUC   18   2.767  44.639   7.516
    1AU     AUC   19   2.819  44.611   7.850
    1AU     AUC   20   3.030   0.178   7.494
    1AU     AUC   21   3.364   0.245   7.486
    1AU     AUC   22   3.684   0.226   7.507
    1AU     AUC   23   3.058  44.031   7.501
    1AU     AUC   24   3.407  44.071   7.498
    1AU     AUC   25   3.794  44.113   7.459
    1AU     AUC   26   3.432  44.242   8.057
    1AU     AUC   27   3.388  44.564   8.097
    1AU     AUC   28   3.388  44.940   8.060
    1AU     AUC   29   3.416  44.278   6.929
    1AU     AUC   30   3.413  44.626   6.907
    1AU     AUC   31   3.432  44.986   6.925
    1AU     AUC   32   3.722  44.403   7.964
    1AU     AUC   33   3.692  44.770   8.010
    1AU     AUC   34   3.703  44.493   7.009
    1AU     AUC   35   3.731  44.860   7.001
    1AU     AUC   36   3.098  44.406   7.979
    1AU     AUC   37   3.096  44.763   7.982
    1AU     AUC   38   3.074  44.405   7.044
    1AU     AUC   39   3.083  44.782   7.011
    1AU     AUC   40   3.893  44.970   7.348
    1AU     AUC   41   3.835  44.931   7.705
    1AU     AUC   42   2.917  44.890   7.296
    1AU     AUC   43   2.891  44.927   7.691
    1AU     AUC   44   3.904  44.394   7.298
    1AU     AUC   45   3.910  44.360   7.630
    1AU     AUC   46   2.879  44.324   7.345
    1AU     AUC   47   2.907  44.339   7.665
    1AU     AUC   48   3.193   0.112   7.784
    1AU     AUC   49   3.528   0.114   7.799
    1AU     AUC   50   3.200  44.130   7.777
    1AU     AUC   51   3.616  44.137   7.798
    1AU     AUC   52   3.201   0.069   7.166
    1AU     AUC   53   3.596   0.117   7.172
    1AU     AUC   54   3.206  44.148   7.218
    1AU     AUC   55   3.589  44.172   7.169
    1AU    AUSL   56   3.979  44.548   8.239
    1AU    AUSL   57   3.842  44.068   8.103
    1AU     AUL   58   4.117  44.168   8.282
    1AU       S   59   4.223  43.752   8.117
    1AU     LIG   60   4.224  43.452   8.424
    1AU     LIG   61   4.398  43.335   8.827
    1AU       S   62   4.224  44.598   8.397
    1AU     LIG   63   4.260  44.826   8.765
    1AU     LIG   64   4.382  44.572   9.131
    1AU    AUSL   65   3.572  44.362   8.290
    1AU    AUSL   66   3.251  44.695   8.399
    1AU     AUL   67   3.432  44.548   8.637
    1AU       S   68   3.815  44.297   8.596
    1AU     LIG   69   3.877  44.535   8.945
    1AU     LIG   70   3.940  44.438   9.386
    1AU       S   71   2.741  44.515   8.681
    1AU     LIG   72   2.788  44.791   9.053
    1AU     LIG   73   2.704  44.847   9.522
    1AU    AUSL   74   3.591  44.790   8.162
    1AU    AUSL   75   4.011  44.973   8.137
    1AU     AUL   76   3.812  44.797   8.465
    1AU       S   77   3.431   0.055   8.623
    1AU     LIG   78   3.795   0.043   8.900
    1AU     LIG   79   4.049  44.938   9.253
    1AU       S   80   4.139   0.123   8.348
    1AU     LIG   81   4.561   0.175   8.453
    1AU     LIG   82   4.901   0.496   8.459
    1AU    AUSL   83   3.975  44.750   6.751
    1AU    AUSL   84   3.859   0.194   6.827
    1AU     AUL   85   4.007   0.041   6.511
    1AU       S   86   3.889  44.634   6.301
    1AU     LIG   87   4.262  44.714   6.045
    1AU     LIG   88   4.330  44.459   5.653
    1AU       S   89   4.253   0.299   6.807
    1AU     LIG   90   4.356   0.641   6.534
    1AU     LIG   91   4.639   0.865   6.224
    1AU    AUSL   92   3.619  44.504   6.719
    1AU    AUSL   93   3.939  44.418   7.038
    1AU     AUL   94   4.048  44.443   6.686
    1AU       S   95   4.040  43.655   6.662
    1AU     LIG   96   4.490  43.591   6.504
    1AU     LIG   97   4.845  43.383   6.231
    1AU       S   98   3.713  44.301   6.372
    1AU     LIG   99   3.632  44.102   5.932
    1AU     LIG  100   3.866  44.149   5.508
    1AU    AUSL  101   3.555  44.938   6.640
    1AU    AUSL  102   3.252  44.329   6.597
    1AU     AUL  103   3.428  44.661   6.411
    1AU       S  104   3.069  44.360   6.284
    1AU     LIG  105   3.111  44.236   5.820
    1AU     LIG  106   2.796  44.138   5.471
    1AU       S  107   3.946  44.359   6.213
    1AU     LIG  108   3.822  44.566   5.808
    1AU     LIG  109   3.946  44.675   5.376
    1AU    AUSL  110   2.893  44.578   8.171
    1AU    AUSL  111   3.131   0.010   8.130
    1AU     AUL  112   2.989  44.884   8.441
    1AU       S  113   2.632  44.579   8.409
    1AU     LIG  114   2.329  44.745   8.781
    1AU     LIG  115   2.350  44.584   9.237
    1AU       S  116   2.713   0.249   8.295
    1AU     LIG  117   2.778   0.576   8.580
    1AU     LIG  118   2.680   0.670   9.010
    1AU    AUSL  119   3.153  44.260   8.364
    1AU    AUSL  120   2.742  44.184   8.049
    1AU     AUL  121   2.835  44.168   8.330
    1AU       S  122   2.594  43.787   8.165
    1AU     LIG  123   2.240  43.581   8.352
    1AU     LIG  124   2.053  43.250   8.607
    1AU       S  125   2.957  44.441   8.679
    1AU     LIG  126   2.973  44.316   9.120
    1AU     LIG  127   2.736  44.324   9.526
    1AU    AUSL  128   2.867  44.494   6.727
    1AU    AUSL  129   3.133  44.204   6.996
    1AU     AUL  130   2.983  44.113   6.676
    1AU       S  131   2.684  44.413   6.450
    1AU     LIG  132   2.364  44.459   6.086
    1AU     LIG  133   2.425  44.494   5.609
    1AU       S  134   2.524  43.939   6.675
    1AU     LIG  135   2.572  43.460   6.620
    1AU     LIG  136   2.450  43.067   6.369
    1AU    AUSL  137   3.220  44.746   6.820
    1AU    AUSL  138   2.765  44.875   6.903
    1AU     AUL  139   2.968  44.776   6.541
    1AU       S  140   2.591   0.021   6.700
    1AU     LIG  141   2.345   0.396   6.511
    1AU     LIG  142   2.347   0.792   6.262
    1AU       S  143   2.801  44.259   6.236
    1AU     LIG  144   2.818  44.634   5.943
    1AU     LIG  145   2.928  44.643   5.492
    1AU    AUSL  146   4.086   0.251   7.550
    1AU    AUSL  147   4.072  44.957   7.122
    1AU     AUL  148   4.230   0.348   7.270
    1AU       S  149   4.326   0.001   6.942
    1AU     LIG  150   4.491  44.953   6.500
    1AU     LIG  151   4.648   0.313   6.252
    1AU       S  152   4.599   0.174   7.937
    1AU     LIG  153   4.954   0.421   7.756
    1AU     LIG  154   5.194   0.529   7.360
    1AU    AUSL  155   4.368  44.915   7.428
    1AU    AUSL  156   4.357  44.507   7.663
    1AU     AUL  157   4.655  44.693   7.544
    1AU       S  158   4.541   0.132   7.643
    1AU     LIG  159   4.979   0.047   7.424
    1AU     LIG  160   5.371   0.037   7.158
    1AU       S  161   4.585  44.219   7.493
    1AU     LIG  162   4.882  44.027   7.752
    1AU     LIG  163   5.323  43.841   7.851
    1AU    AUSL  164   4.082  44.834   7.742
    1AU    AUSL  165   3.756   0.150   7.808
    1AU     AUL  166   4.122   0.239   7.885
    1AU       S  167   4.112   0.431   8.342
    1AU     LIG  168   4.483   0.622   8.184
    1AU     LIG  169   4.677   0.991   8.379
    1AU       S  170   4.443  44.894   7.931
    1AU     LIG  171   4.950  44.835   7.915
    1AU     LIG  172   5.310   0.109   7.980
    1AU    AUSL  173   2.744   0.136   7.528
    1AU    AUSL  174   2.734  44.919   7.950
    1AU     AUL  175   2.468   0.268   7.793
    1AU       S  176   2.607  44.987   8.145
    1AU     LIG  177   2.224   0.247   8.249
    1AU     LIG  178   2.263   0.530   8.622
    1AU       S  179   2.689   0.548   7.481
    1AU     LIG  180   2.244   0.414   7.377
    1AU     LIG  181   1.831   0.539   7.349
    1AU    AUSL  182   2.669  44.760   7.298
    1AU    AUSL  183   2.797   0.264   7.121
    1AU     AUL  184   2.517   0.082   7.180
    1AU       S  185   2.357  44.640   6.935
    1AU     LIG  186   2.021  44.990   7.042
    1AU     LIG  187   1.579   0.160   7.132
    1AU       S  188   2.632   0.467   6.911
    1AU     LIG  189   2.449   0.860   6.775
    1AU     LIG  190   2.011   0.896   6.659
    1AU    AUSL  191   2.427  44.832   7.658
    1AU    AUSL  192   2.427  44.418   7.401
    1AU     AUL  193   2.273  44.731   7.382
    1AU       S  194   2.196  44.367   7.671
    1AU     LIG  195   1.915  44.365   7.311
    1AU     LIG  196   1.549  44.108   7.170
    1AU       S  197   2.192  44.880   7.849
    1AU     LIG  198   1.927   0.254   7.786
    1AU     LIG  199   1.478   0.320   7.639
    1AU    AUSL  200   4.084  44.236   7.442
    1AU    AUSL  201   3.980  44.386   7.844
    1AU     AUL  202   4.308  44.274   7.862
    1AU       S  203   4.396  44.056   7.446
    1AU     LIG  204   4.568  43.656   7.493
    1AU     LIG  205   4.989  43.583   7.542
    1AU       S  206   4.458  43.837   8.007
    1AU     LIG  207   4.526  43.889   8.486
    1AU     LIG  208   4.683  43.769   8.907
    1AU    AUSL  209   4.310  44.544   7.206
    1AU    AUSL  210   4.031  43.963   7.116
    1AU     AUL  211   4.248  44.220   7.041
    1AU       S  212   4.628  44.307   7.276
    1AU     LIG  213   4.867  43.944   7.183
    1AU     LIG  214   5.258  44.008   7.357
    1AU       S  215   4.156  43.793   6.867
    1AU     LIG  216   4.450  43.455   7.003
    1AU     LIG  217   4.650  43.114   6.744
    1AU    AUSL  218   2.804  44.184   7.494
    1AU    AUSL  219   2.703  44.326   7.081
    1AU     AUL  220   2.440  44.109   7.323
    1AU       S  221   2.535  44.174   6.870
    1AU     LIG  222   2.111  43.990   6.957
    1AU     LIG  223   2.038  43.594   6.718
    1AU       S  224   2.112  44.166   7.738
    1AU     LIG  225   1.943  43.864   7.438
    1AU     LIG  226   1.594  43.552   7.357
    1AU    AUSL  227   2.656  44.491   7.771
    1AU    AUSL  228   2.863  43.864   7.763
    1AU     AUL  229   2.570  44.060   7.777
    1AU       S  230   2.698  43.606   7.887
    1AU     LIG  231   2.362  43.234   7.985
    1AU     LIG  232   2.174  42.883   8.271
    1AU       S  233   2.289  44.415   7.895
    1AU     LIG  234   1.750  44.414   7.914
    1AU     LIG  235   1.505  44.035   7.694
    1AU    AUSL  236   3.362   0.334   7.951
    1AU    AUSL  237   2.924   0.311   7.883
    1AU     AUL  238   3.169   0.342   8.248
    1AU       S  239   2.821   0.512   7.989
    1AU     LIG  240   2.478   0.712   8.169
    1AU     LIG  241   2.091   0.910   8.312
    1AU       S  242   3.322   0.721   7.995
    1AU     LIG  243   3.481   1.010   8.309
    1AU     LIG  244   3.390   1.406   8.530
    1AU    AUSL  245   3.165   0.526   7.598
    1AU    AUSL  246   3.497   0.580   7.259
    1AU     AUL  247   3.175   0.782   7.374
    1AU       S  248   3.311   0.955   7.822
    1AU     LIG  249   3.184   1.331   8.038
    1AU     LIG  250   2.884   1.611   8.231
    1AU       S  251   3.469   0.810   7.000
    1AU     LIG  252   3.568   1.155   7.303
    1AU     LIG  253   3.781   1.538   7.110
    1AU    AUSL  254   3.638   0.529   7.661
    1AU    AUSL  255   3.645   0.204   8.244
    1AU     AUL  256   3.726   0.475   8.026
    1AU       S  257   3.860   0.296   8.468
    1AU     LIG  258   4.215   0.350   8.815
    1AU     LIG  259   4.566   0.680   8.814
    1AU       S  260   3.554   0.796   7.712
    1AU     LIG  261   3.774   1.136   7.893
    1AU     LIG  262   3.680   1.513   8.123
    1AU    AUSL  263   3.449  43.895   8.133
    1AU    AUSL  264   4.014  43.909   7.717
    1AU     AUL  265   3.763  43.704   8.021
    1AU       S  266   3.336  43.355   8.086
    1AU     LIG  267   3.153  42.993   8.317
    1AU     LIG  268   3.078  42.681   8.652
    1AU       S  269   4.202  43.783   7.818
    1AU     LIG  270   4.151  43.306   7.930
    1AU     LIG  271   4.443  42.998   8.153
    1AU    AUSL  272   3.267  43.724   7.761
    1AU    AUSL  273   3.171  44.154   7.948
    1AU     AUL  274   3.097  43.814   8.101
    1AU       S  275   3.175  43.430   7.836
    1AU     LIG  276   2.857  43.097   7.932
    1AU     LIG  277   3.009  42.653   7.916
    1AU       S  278   2.726  43.519   8.173
    1AU     LIG  279   2.592  43.196   8.448
    1AU     LIG  280   2.410  42.899   8.752
    1AU    AUSL  281   3.601  43.988   7.688
    1AU    AUSL  282   3.229  43.857   7.354
    1AU     AUL  283   3.539  43.624   7.554
    1AU       S  284   3.086  43.505   7.365
    1AU     LIG  285   2.785  43.214   7.109
    1AU     LIG  286   2.726  42.901   6.760
    1AU       S  287   3.344  43.207   7.822
    1AU     LIG  288   3.617  42.914   8.001
    1AU     LIG  289   3.928  42.612   8.161
    1AU    AUSL  290   3.457   0.302   6.926
    1AU    AUSL  291   3.761   0.235   7.270
    1AU     AUL  292   3.817   0.502   7.031
    1AU       S  293   3.458   0.559   6.707
    1AU     LIG  294   3.306   0.885   6.351
    1AU     LIG  295   3.367   1.354   6.431
    1AU       S  296   4.556   0.150   6.962
    1AU     LIG  297   4.667   0.603   6.962
    1AU     LIG  298   4.686   1.018   6.728
    1AU    AUSL  299   3.192   0.251   7.278
    1AU    AUSL  300   3.083   0.158   6.792
    1AU     AUL  301   3.090   0.479   6.995
    1AU       S  302   3.307   0.881   6.834
    1AU     LIG  303   3.246   1.318   6.941
    1AU     LIG  304   3.397   1.718   6.801
    1AU       S  305   2.837   0.267   6.632
    1AU     LIG  306   2.824   0.664   6.461
    1AU     LIG  307   2.827   0.938   6.093
    1AU    AUSL  308   3.376  43.857   6.928
    1AU    AUSL  309   2.841  43.904   7.165
    1AU     AUL  310   3.086  43.765   6.978
    1AU       S  311   2.621  43.871   6.941
    1AU     LIG  312   2.380  43.536   7.097
    1AU     LIG  313   2.267  43.121   6.893
    1AU       S  314   3.333  43.388   7.160
    1AU     LIG  315   3.175  43.169   6.778
    1AU     LIG  316   3.380  42.894   6.453
    1AU    AUSL  317   3.637  43.992   7.265
    1AU    AUSL  318   3.716  44.098   6.823
    1AU     AUL  319   3.707  43.735   7.034
    1AU       S  320   3.262  43.242   7.330
    1AU     LIG  321   3.460  42.872   7.067
    1AU     LIG  322   3.636  42.545   6.740
    1AU       S  323   3.924  43.958   6.647
    1AU     LIG  324   4.092  43.866   6.211
    1AU     LIG  325   4.348  43.515   6.012
    2AU     AUC  326  30.747  28.725   7.501
    2AU     AUC  327  31.043  28.769   7.334
    2AU     AUC  328  31.015  28.742   7.668
    2AU     AUC  329  30.469  28.705   7.337
    2AU     AUC  330  30.465  28.711   7.685
    2AU     AUC  331  30.559  28.967   7.521
    2AU     AUC  332  30.892  28.998   7.502
    2AU     AUC  333  30.596  28.447   7.508
    2AU     AUC  334  30.947  28.495   7.489
    2AU     AUC  335  30.784  28.560   7.772
    2AU     AUC  336  30.728  28.881   7.774
    2AU     AUC  337  30.771  28.572   7.227
    2AU     AUC  338  30.765  28.909   7.237
    2AU     AUC  339  31.356  28.799   7.179
    2AU     AUC  340  31.395  28.786   7.498
    2AU     AUC  341  31.327  28.743   7.863
    2AU     AUC  342  30.163  28.675   7.161
    2AU     AUC  343  30.122  28.730   7.528
    2AU     AUC  344  30.178  28.701   7.861
    2AU     AUC  345  30.385  29.271   7.509
    2AU     AUC  346  30.718  29.341   7.500
    2AU     AUC  347  31.038  29.322   7.519
    2AU     AUC  348  30.418  28.122   7.515
    2AU     AUC  349  30.766  28.168   7.507
    2AU     AUC  350  31.153  28.210   7.459
    2AU     AUC  351  30.794  28.337   8.065
    2AU     AUC  352  30.750  28.656   8.105
    2AU     AUC  353  30.748  29.031   8.070
    2AU     AUC  354  30.766  28.373   6.939
    2AU     AUC  355  30.762  28.723   6.917
    2AU     AUC  356  30.780  29.082   6.938
    2AU     AUC  357  31.082  28.498   7.967
    2AU     AUC  358  31.052  28.865   8.016
    2AU     AUC  359  31.053  28.591   7.015
    2AU     AUC  360  31.081  28.959   7.009
    2AU     AUC  361  30.458  28.498   7.989
    2AU     AUC  362  30.454  28.854   7.994
    2AU     AUC  363  30.426  28.497   7.056
    2AU     AUC  364  30.434  28.878   7.024
    2AU     AUC  365  31.247  29.067   7.353
    2AU     AUC  366  31.191  29.025   7.710
    2AU     AUC  367  30.270  28.983   7.306
    2AU     AUC  368  30.247  29.016   7.702
    2AU     AUC  369  31.262  28.491   7.299
    2AU     AUC  370  31.270  28.454   7.630
    2AU     AUC  371  30.235  28.414   7.360
    2AU     AUC  372  30.262  28.429   7.678
    2AU     AUC  373  30.549  29.203   7.798
    2AU     AUC  374  30.884  29.207   7.810
    2AU     AUC  375  30.558  28.223   7.789
    2AU     AUC  376  30.975  28.232   7.802
    2AU     AUC  377  30.551  29.165   7.180
    2AU     AUC  378  30.945  29.213   7.184
    2AU     AUC  379  30.563  28.239   7.232
    2AU     AUC  380  30.943  28.267   7.175
    2AU    AUSL  381  31.341  28.644   8.237
    2AU    AUSL  382  31.204  28.162   8.098
    2AU     AUL  383  31.440  28.269   8.294
    2AU       S  384  31.593  27.868   8.113
    2AU     LIG  385  31.532  27.491   8.383
    2AU     LIG  386  31.757  27.283   8.739
    2AU       S  387  31.602  28.696   8.393
    2AU     LIG  388  31.579  28.870   8.799
    2AU     LIG  389  31.687  28.629   9.181
    2AU    AUSL  390  30.940  28.454   8.300
    2AU    AUSL  391  30.615  28.784   8.410
    2AU     AUL  392  30.816  28.622   8.638
    2AU       S  393  31.258  28.464   8.667
    2AU     LIG  394  31.170  28.630   9.048
    2AU     LIG  395  31.267  28.549   9.486
    2AU       S  396  30.098  28.592   8.682
    2AU     LIG  397  30.230  28.918   8.987
    2AU     LIG  398  30.234  28.860   9.458
    2AU    AUSL  399  30.951  28.883   8.170
    2AU    AUSL  400  31.372  29.069   8.139
    2AU     AUL  401  31.183  28.895   8.466
    2AU       S  402  30.797  29.141   8.631
    2AU     LIG  403  31.143  29.128   8.914
    2AU     LIG  404  31.396  29.039   9.282
    2AU       S  405  31.513  29.218   8.353
    2AU     LIG  406  31.949  29.282   8.438
    2AU     LIG  407  32.323  29.584   8.364
    2AU    AUSL  408  31.323  28.850   6.756
    2AU    AUSL  409  31.205  29.294   6.836
    2AU     AUL  410  31.349  29.127   6.515
    2AU       S  411  31.236  28.718   6.299
    2AU     LIG  412  31.644  28.773   6.075
    2AU     LIG  413  31.758  28.506   5.695
    2AU       S  414  31.554  29.424   6.806
    2AU     LIG  415  31.504  29.600   6.412
    2AU     LIG  416  31.707  29.878   6.104
    2AU    AUSL  417  30.968  28.605   6.724
    2AU    AUSL  418  31.290  28.515   7.041
    2AU     AUL  419  31.396  28.542   6.693
    2AU       S  420  31.547  28.073   6.589
    2AU     LIG  421  31.800  27.702   6.383
    2AU     LIG  422  32.046  27.350   6.143
    2AU       S  423  31.063  28.405   6.366
    2AU     LIG  424  31.026  28.169   5.920
    2AU     LIG  425  31.327  28.195   5.530
    2AU    AUSL  426  30.899  29.039   6.651
    2AU    AUSL  427  30.599  28.426   6.612
    2AU     AUL  428  30.773  28.760   6.422
    2AU       S  429  30.408  28.458   6.304
    2AU     LIG  430  30.444  28.319   5.849
    2AU     LIG  431  30.092  28.351   5.520
    2AU       S  432  31.324  28.412   6.227
    2AU     LIG  433  31.241  28.621   5.800
    2AU     LIG  434  31.413  28.718   5.370
    2AU    AUSL  435  30.255  28.667   8.182
    2AU    AUSL  436  30.485  29.096   8.143
    2AU     AUL  437  30.352  28.968   8.456
    2AU       S  438  29.997  28.666   8.403
    2AU     LIG  439  29.751  28.913   8.758
    2AU     LIG  440  29.806  28.701   9.192
    2AU       S  441  30.073  29.328   8.315
    2AU     LIG  442  29.987  29.631   8.621
    2AU     LIG  443  29.855  30.080   8.697
    2AU    AUSL  444  30.519  28.350   8.372
    2AU    AUSL  445  30.106  28.271   8.059
    2AU     AUL  446  30.195  28.252   8.338
    2AU       S  447  29.974  27.850   8.175
    2AU     LIG  448  29.623  27.723   8.471
    2AU     LIG  449  29.263  27.463   8.653
    2AU       S  450  30.329  28.520   8.687
    2AU     LIG  451  30.267  28.427   9.150
    2AU     LIG  452  30.124  28.348   9.601
    2AU    AUSL  453  30.214  28.589   6.751
    2AU    AUSL  454  30.485  28.290   7.010
    2AU     AUL  455  30.335  28.198   6.692
    2AU       S  456  30.029  28.506   6.487
    2AU     LIG  457  29.702  28.617   6.155
    2AU     LIG  458  29.667  28.660   5.677
    2AU       S  459  29.874  28.021   6.710
    2AU     LIG  460  29.861  27.602   6.488
    2AU     LIG  461  29.938  27.452   6.026
    2AU    AUSL  462  30.567  28.843   6.834
    2AU    AUSL  463  30.112  28.976   6.912
    2AU     AUL  464  30.313  28.873   6.555
    2AU       S  465  29.940  29.113   6.726
    2AU     LIG  466  29.604  29.416   6.625
    2AU     LIG  467  29.451  29.800   6.406
    2AU       S  468  30.136  28.369   6.257
    2AU     LIG  469  30.143  28.721   5.923
    2AU     LIG  470  30.099  28.865   5.466
    2AU    AUSL  471  31.443  29.348   7.558
    2AU    AUSL  472  31.427  29.058   7.124
    2AU     AUL  473  31.587  29.443   7.275
    2AU       S  474  31.679  29.112   6.935
    2AU     LIG  475  31.831  29.061   6.485
    2AU     LIG  476  31.949  29.416   6.215
    2AU       S  477  31.948  29.313   7.934
    2AU     LIG  478  32.167  29.677   7.726
    2AU     LIG  479  32.492  29.978   7.531
    2AU    AUSL  480  31.722  29.010   7.429
    2AU    AUSL  481  31.717  28.603   7.665
    2AU     AUL  482  32.016  28.794   7.527
    2AU       S  483  31.882  29.213   7.675
    2AU     LIG  484  32.170  29.284   7.364
    2AU     LIG  485  32.565  29.512   7.304
    2AU       S  486  31.963  28.311   7.517
    2AU     LIG  487  32.263  28.002   7.715
    2AU     LIG  488  32.584  27.756   7.966
    2AU    AUSL  489  31.438  28.928   7.744
    2AU    AUSL  490  31.111  29.245   7.814
    2AU     AUL  491  31.468  29.339   7.894
    2AU       S  492  31.478  29.530   8.349
    2AU     LIG  493  31.857  29.748   8.212
    2AU     LIG  494  32.145  30.095   8.359
    2AU       S  495  31.796  28.994   7.929
    2AU     LIG  496  32.281  28.962   7.915
    2AU     LIG  497  32.532  29.327   7.790
    2AU    AUSL  498  30.106  29.222   7.540
    2AU    AUSL  499  30.087  29.008   7.964
    2AU     AUL  500  29.827  29.358   7.794
    2AU       S  501  29.963  29.082   8.157
    2AU     LIG  502  29.588  29.370   8.243
    2AU     LIG  503  29.484  29.727   8.530
    2AU       S  504  30.052  29.644   7.494
    2AU     LIG  505  29.589  29.569   7.394
    2AU     LIG  506  29.171  29.664   7.609
    2AU    AUSL  507  30.024  28.848   7.305
    2AU    AUSL  508  30.151  29.361   7.135
    2AU     AUL  509  29.870  29.186   7.207
    2AU       S  510  29.719  28.716   6.936
    2AU     LIG  511  29.427  29.094   7.009
    2AU     LIG  512  29.078  29.293   7.262
    2AU       S  513  29.976  29.567   6.920
    2AU     LIG  514  29.737  29.973   6.818
    2AU     LIG  515  29.420  30.278   6.621
    2AU    AUSL  516  29.785  28.922   7.665
    2AU    AUSL  517  29.783  28.507   7.418
    2AU     AUL  518  29.629  28.817   7.380
    2AU       S  519  29.559  28.460   7.689
    2AU     LIG  520  29.246  28.488   7.377
    2AU     LIG  521  28.977  28.198   7.157
    2AU       S  522  29.547  28.977   7.837
    2AU     LIG  523  29.120  29.138   7.761
    2AU     LIG  524  28.743  29.039   8.018
    2AU    AUSL  525  31.451  28.327   7.441
    2AU    AUSL  526  31.340  28.481   7.842
    2AU     AUL  527  31.660  28.350   7.869
    2AU       S  528  31.765  28.144   7.447
    2AU     LIG  529  31.917  27.691   7.459
    2AU     LIG  530  32.126  27.412   7.155
    2AU       S  531  31.827  27.883   7.932
    2AU     LIG  532  32.050  27.667   8.290
    2AU     LIG  533  32.261  27.342   8.587
    2AU    AUSL  534  31.665  28.640   7.205
    2AU    AUSL  535  31.387  28.065   7.106
    2AU     AUL  536  31.609  28.316   7.043
    2AU       S  537  31.992  28.383   7.287
    2AU     LIG  538  32.254  27.991   7.197
    2AU     LIG  539  32.691  27.823   7.069
    2AU       S  540  31.490  27.904   6.820
    2AU     LIG  541  31.719  27.486   6.836
    2AU     LIG  542  32.104  27.256   6.659
    2AU    AUSL  543  30.161  28.277   7.512
    2AU    AUSL  544  30.052  28.401   7.096
    2AU     AUL  545  29.797  28.193   7.347
    2AU       S  546  29.893  28.248   6.894
    2AU     LIG  547  29.465  28.075   6.999
    2AU     LIG  548  29.373  27.678   6.794
    2AU       S  549  29.472  28.297   7.829
    2AU     LIG  550  29.315  27.989   7.503
    2AU     LIG  551  29.161  27.596   7.262
    2AU    AUSL  552  30.010  28.582   7.790
    2AU    AUSL  553  30.228  27.951   7.772
    2AU     AUL  554  29.926  28.148   7.800
    2AU       S  555  30.085  27.691   7.878
    2AU     LIG  556  29.654  27.473   8.033
    2AU     LIG  557  29.416  27.131   8.296
    2AU       S  558  29.673  28.525   7.929
    2AU     LIG  559  29.145  28.645   7.902
    2AU     LIG  560  28.867  28.320   7.701
    2AU    AUSL  561  30.716  29.421   7.965
    2AU    AUSL  562  30.279  29.400   7.898
    2AU     AUL  563  30.528  29.427   8.261
    2AU       S  564  30.160  29.597   8.028
    2AU     LIG  565  29.850  29.891   8.190
    2AU     LIG  566  29.704  30.345   8.267
    2AU       S  567  30.666  29.824   8.026
    2AU     LIG  568  30.771  30.203   8.302
    2AU     LIG  569  30.752  30.663   8.408
    2AU    AUSL  570  30.520  29.625   7.620
    2AU    AUSL  571  30.850  29.675   7.276
    2AU     AUL  572  30.544  29.879   7.389
    2AU       S  573  30.619  30.069   7.845
    2AU     LIG  574  30.552  30.532   7.942
    2AU     LIG  575  30.801  30.937   7.976
    2AU       S  576  30.802  29.895   6.984
    2AU     LIG  577  30.988  30.238   7.195
    2AU     LIG  578  30.984  30.691   7.072
    2AU    AUSL  579  30.989  29.629   7.680
    2AU    AUSL  580  31.007  29.297   8.253
    2AU     AUL  581  31.073  29.573   8.038
    2AU       S  582  31.223  29.389   8.476
    2AU     LIG  583  31.578  29.406   8.817
    2AU     LIG  584  31.944  29.704   8.738
    2AU       S  585  30.894  29.925   7.755
    2AU     LIG  586  31.044  30.387   7.888
    2AU     LIG  587  31.256  30.760   8.129
    2AU    AUSL  588  30.812  27.991   8.147
    2AU    AUSL  589  31.369  27.997   7.709
    2AU     AUL  590  31.129  27.806   8.027
    2AU       S  591  30.720  27.482   8.148
    2AU     LIG  592  30.492  27.135   8.269
    2AU     LIG  593  30.683  26.716   8.295
    2AU       S  594  31.551  27.858   7.789
    2AU     LIG  595  31.668  27.405   7.894
    2AU     LIG  596  31.920  27.179   8.246
    2AU    AUSL  597  30.633  27.815   7.776
    2AU    AUSL  598  30.534  28.246   7.956
    2AU     AUL  599  30.459  27.906   8.112
    2AU       S  600  30.599  27.525   7.873
    2AU     LIG  601  30.314  27.210   7.783
    2AU     LIG  602  30.320  26.802   7.929
    2AU       S  603  30.133  27.540   8.150
    2AU     LIG  604  29.894  27.256   8.467
    2AU     LIG  605  29.583  27.064   8.793
    2AU    AUSL  606  30.958  28.087   7.694
    2AU    AUSL  607  30.594  27.952   7.371
    2AU     AUL  608  30.911  27.727   7.561
    2AU       S  609  30.446  27.591   7.400
    2AU     LIG  610  30.205  27.195   7.261
    2AU     LIG  611  30.372  26.807   7.050
    2AU       S  612  30.863  27.390   7.932
    2AU     LIG  613  30.802  26.995   7.859
    2AU     LIG  614  31.023  26.605   7.904
    2AU    AUSL  615  30.804  29.392   6.948
    2AU    AUSL  616  31.116  29.330   7.282
    2AU     AUL  617  31.163  29.604   7.054
    2AU       S  618  30.816  29.600   6.721
    2AU     LIG  619  31.154  29.916   6.632
    2AU     LIG  620  30.996  30.351   6.677
    2AU       S  621  31.857  29.364   6.872
    2AU     LIG  622  31.947  29.766   6.632
    2AU     LIG  623  32.151  30.212   6.613
    2AU    AUSL  624  30.542  29.349   7.301
    2AU    AUSL  625  30.432  29.256   6.801
    2AU     AUL  626  30.438  29.576   7.013
    2AU       S  627  30.663  29.925   6.747
    2AU     LIG  628  30.541  30.361   6.964
    2AU     LIG  629  30.426  30.837   6.913
    2AU       S  630  30.175  29.376   6.644
    2AU     LIG  631  29.974  29.731   6.417
    2AU     LIG  632  29.811  30.167   6.295
    2AU    AUSL  633  30.731  27.946   6.942
    2AU    AUSL  634  30.201  27.986   7.192
    2AU     AUL  635  30.443  27.851   7.003
    2AU       S  636  29.969  27.928   6.974
    2AU     LIG  637  29.810  27.468   6.995
    2AU     LIG  638  29.489  27.163   6.778
    2AU       S  639  30.672  27.471   7.207
    2AU     LIG  640  30.449  27.278   6.827
    2AU     LIG  641  30.368  26.915   6.516
    2AU    AUSL  642  30.999  28.090   7.271
    2AU    AUSL  643  31.059  28.199   6.827
    2AU     AUL  644  31.068  27.831   7.040
    2AU       S  645  30.658  27.308   7.424
    2AU     LIG  646  30.834  27.007   7.087
    2AU     LIG  647  30.782  26.676   6.743
    2AU       S  648  31.241  28.055   6.642
    2AU     LIG  649  31.317  27.822   6.218
    2AU     LIG  650  31.539  27.426   6.015
    3AU     AUC  651  13.921   5.013   7.498
    3AU     AUC  652  14.219   5.056   7.334
    3AU     AUC  653  14.186   5.029   7.667
    3AU     AUC  654  13.643   4.996   7.331
    3AU     AUC  655  13.641   5.002   7.680
    3AU     AUC  656  13.733   5.256   7.518
    3AU     AUC  657  14.067   5.285   7.501
    3AU     AUC  658  13.763   4.736   7.504
    3AU     AUC  659  14.117   4.780   7.488
    3AU     AUC  660  13.951   4.846   7.771
    3AU     AUC  661  13.901   5.169   7.772
    3AU     AUC  662  13.949   4.862   7.225
    3AU     AUC  663  13.942   5.197   7.234
    3AU     AUC  664  14.535   5.085   7.186
    3AU     AUC  665  14.568   5.071   7.504
    3AU     AUC  666  14.497   5.026   7.867
    3AU     AUC  667  13.341   4.971   7.151
    3AU     AUC  668  13.298   5.020   7.520
    3AU     AUC  669  13.348   4.994   7.858
    3AU     AUC  670  13.561   5.559   7.505
    3AU     AUC  671  13.895   5.629   7.498
    3AU     AUC  672  14.215   5.608   7.519
    3AU     AUC  673  13.579   4.415   7.508
    3AU     AUC  674  13.927   4.457   7.502
    3AU     AUC  675  14.318   4.496   7.460
    3AU     AUC  676  13.957   4.623   8.064
    3AU     AUC  677  13.920   4.944   8.104
    3AU     AUC  678  13.921   5.320   8.068
    3AU     AUC  679  13.947   4.664   6.934
    3AU     AUC  680  13.946   5.012   6.913
    3AU     AUC  681  13.963   5.369   6.934
    3AU     AUC  682  14.250   4.780   7.967
    3AU     AUC  683  14.223   5.149   8.016
    3AU     AUC  684  14.235   4.878   7.017
    3AU     AUC  685  14.265   5.245   7.011
    3AU     AUC  686  13.625   4.790   7.988
    3AU     AUC  687  13.627   5.145   7.989
    3AU     AUC  688  13.605   4.791   7.046
    3AU     AUC  689  13.614   5.167   7.016
    3AU     AUC  690  14.425   5.353   7.355
    3AU     AUC  691  14.364   5.312   7.713
    3AU     AUC  692  13.445   5.273   7.302
    3AU     AUC  693  13.422   5.309   7.698
    3AU     AUC  694  14.436   4.775   7.304
    3AU     AUC  695  14.437   4.738   7.632
    3AU     AUC  696  13.407   4.708   7.347
    3AU     AUC  697  13.429   4.720   7.670
    3AU     AUC  698  13.724   5.494   7.794
    3AU     AUC  699  14.058   5.495   7.809
    3AU     AUC  700  13.716   4.515   7.786
    3AU     AUC  701  14.136   4.518   7.800
    3AU     AUC  702  13.730   5.451   7.176
    3AU     AUC  703  14.124   5.500   7.184
    3AU     AUC  704  13.735   4.532   7.221
    3AU     AUC  705  14.117   4.556   7.175
    3AU    AUSL  706  14.513   4.922   8.241
    3AU    AUSL  707  14.370   4.440   8.098
    3AU     AUL  708  14.647   4.524   8.310
    3AU       S  709  14.757   4.142   8.082
    3AU     LIG  710  14.640   3.858   8.374
    3AU     LIG  711  14.821   3.708   8.760
    3AU       S  712  14.746   4.963   8.334
    3AU     LIG  713  14.818   5.149   8.725
    3AU     LIG  714  15.002   4.957   9.096
    3AU    AUSL  715  14.102   4.740   8.288
    3AU    AUSL  716  13.786   5.076   8.408
    3AU     AUL  717  13.956   4.943   8.652
    3AU       S  718  14.275   4.647   8.532
    3AU     LIG  719  14.431   4.867   8.894
    3AU     LIG  720  14.550   4.797   9.336
    3AU       S  721  13.246   4.893   8.674
    3AU     LIG  722  13.418   5.254   8.942
    3AU     LIG  723  13.432   5.224   9.409
    3AU    AUSL  724  14.124   5.168   8.168
    3AU    AUSL  725  14.543   5.351   8.143
    3AU     AUL  726  14.350   5.168   8.470
    3AU       S  727  13.964   5.437   8.632
    3AU     LIG  728  14.312   5.376   8.911
    3AU     LIG  729  14.632   5.294   9.204
    3AU       S  730  14.682   5.492   8.353
    3AU     LIG  731  15.128   5.424   8.420
    3AU     LIG  732  15.562   5.601   8.503
    3AU    AUSL  733  14.511   5.134   6.764
    3AU    AUSL  734  14.391   5.581   6.840
    3AU     AUL  735  14.554   5.404   6.526
    3AU       S  736  14.432   5.006   6.297
    3AU     LIG  737  14.848   5.044   6.075
    3AU     LIG  738  14.951   4.804   5.669
    3AU       S  739  14.727   5.718   6.815
    3AU     LIG  740  14.654   5.905   6.435
    3AU     LIG  741  14.901   6.175   6.150
    3AU    AUSL  742  14.154   4.891   6.725
    3AU    AUSL  743  14.471   4.799   7.048
    3AU     AUL  744  14.579   4.824   6.694
    3AU       S  745  14.537   4.062   6.645
    3AU     LIG  746  14.942   4.174   6.410
    3AU     LIG  747  15.249   4.050   6.069
    3AU       S  748  14.248   4.686   6.368
    3AU     LIG  749  14.163   4.497   5.922
    3AU     LIG  750  14.445   4.439   5.541
    3AU    AUSL  751  14.091   5.325   6.647
    3AU    AUSL  752  13.789   4.715   6.602
    3AU     AUL  753  13.971   5.049   6.418
    3AU       S  754  13.613   4.747   6.292
    3AU     LIG  755  13.674   4.641   5.843
    3AU     LIG  756  13.412   4.735   5.483
    3AU       S  757  14.498   4.715   6.219
    3AU     LIG  758  14.446   4.900   5.782
    3AU     LIG  759  14.565   4.895   5.315
    3AU    AUSL  760  13.430   4.959   8.176
    3AU    AUSL  761  13.662   5.388   8.138
    3AU     AUL  762  13.525   5.260   8.450
    3AU       S  763  13.167   4.960   8.390
    3AU     LIG  764  12.949   5.268   8.706
    3AU     LIG  765  12.989   5.071   9.150
    3AU       S  766  13.244   5.616   8.308
    3AU     LIG  767  13.128   5.752   8.688
    3AU     LIG  768  12.957   6.148   8.840
    3AU    AUSL  769  13.686   4.642   8.377
    3AU    AUSL  770  13.256   4.574   8.063
    3AU     AUL  771  13.374   4.546   8.342
    3AU       S  772  13.032   4.256   8.187
    3AU     LIG  773  12.701   4.085   8.483
    3AU     LIG  774  12.471   3.809   8.788
    3AU       S  775  13.481   4.826   8.686
    3AU     LIG  776  13.444   4.771   9.142
    3AU     LIG  777  13.272   4.722   9.574
    3AU    AUSL  778  13.402   4.880   6.729
    3AU    AUSL  779  13.663   4.590   6.999
    3AU     AUL  780  13.513   4.498   6.677
    3AU       S  781  13.224   4.810   6.454
    3AU     LIG  782  12.943   4.988   6.124
    3AU     LIG  783  12.983   5.001   5.647
    3AU       S  784  13.035   4.379   6.670
    3AU     LIG  785  12.913   3.968   6.521
    3AU     LIG  786  12.659   3.580   6.425
    3AU    AUSL  787  13.754   5.134   6.825
    3AU    AUSL  788  13.296   5.258   6.906
    3AU     AUL  789  13.513   5.164   6.542
    3AU       S  790  13.131   5.381   6.711
    3AU     LIG  791  12.734   5.610   6.686
    3AU     LIG  792  12.500   5.863   6.384
    3AU       S  793  13.340   4.681   6.230
    3AU     LIG  794  13.414   5.068   5.946
    3AU     LIG  795  13.429   5.252   5.503
    3AU    AUSL  796  14.618   5.634   7.563
    3AU    AUSL  797  14.609   5.345   7.132
    3AU     AUL  798  14.768   5.730   7.280
    3AU       S  799  14.860   5.392   6.955
    3AU     LIG  800  15.021   5.195   6.576
    3AU     LIG  801  15.294   5.491   6.352
    3AU       S  802  15.109   5.496   7.881
    3AU     LIG  803  15.445   5.812   7.781
    3AU     LIG  804  15.809   5.884   7.488
    3AU    AUSL  805  14.900   5.296   7.442
    3AU    AUSL  806  14.888   4.887   7.680
    3AU     AUL  807  15.190   5.078   7.561
    3AU       S  808  15.065   5.514   7.642
    3AU     LIG  809  15.300   5.563   7.253
    3AU     LIG  810  15.743   5.559   7.077
    3AU       S  811  15.132   4.604   7.527
    3AU     LIG  812  15.439   4.389   7.769
    3AU     LIG  813  15.920   4.332   7.769
    3AU    AUSL  814  14.608   5.212   7.748
    3AU    AUSL  815  14.285   5.531   7.817
    3AU     AUL  816  14.650   5.618   7.896
    3AU       S  817  14.655   5.804   8.358
    3AU     LIG  818  15.087   5.881   8.209
    3AU     LIG  819  15.476   6.092   8.347
    3AU       S  820  14.980   5.273   7.950
    3AU     LIG  821  15.524   5.372   8.061
    3AU     LIG  822  15.906   5.650   7.956
    3AU    AUSL  823  13.274   5.519   7.537
    3AU    AUSL  824  13.265   5.299   7.958
    3AU     AUL  825  12.999   5.648   7.801
    3AU       S  826  13.147   5.376   8.154
    3AU     LIG  827  12.748   5.528   8.300
    3AU     LIG  828  12.611   5.803   8.640
    3AU       S  829  13.225   5.923   7.490
    3AU     LIG  830  12.764   5.829   7.392
    3AU     LIG  831  12.366   6.034   7.521
    3AU    AUSL  832  13.197   5.148   7.302
    3AU    AUSL  833  13.328   5.643   7.128
    3AU     AUL  834  13.046   5.475   7.187
    3AU       S  835  12.880   5.029   6.947
    3AU     LIG  836  12.534   5.374   7.086
    3AU     LIG  837  12.361   5.800   7.043
    3AU       S  838  13.161   5.837   6.879
    3AU     LIG  839  12.889   6.115   6.614
    3AU     LIG  840  12.600   6.397   6.354
    3AU    AUSL  841  12.958   5.212   7.667
    3AU    AUSL  842  12.958   4.804   7.404
    3AU     AUL  843  12.806   5.125   7.393
    3AU       S  844  12.730   4.757   7.668
    3AU     LIG  845  12.498   4.761   7.228
    3AU     LIG  846  12.137   4.576   6.995
    3AU       S  847  12.724   5.266   7.857
    3AU     LIG  848  12.423   5.577   7.743
    3AU     LIG  849  11.997   5.795   7.839
    3AU    AUSL  850  14.626   4.614   7.447
    3AU    AUSL  851  14.503   4.763   7.845
    3AU     AUL  852  14.822   4.631   7.875
    3AU       S  853  14.936   4.438   7.454
    3AU     LIG  854  15.151   4.040   7.491
    3AU     LIG  855  15.603   3.946   7.570
    3AU       S  856  14.999   4.181   7.946
    3AU     LIG  857  15.147   3.985   8.352
    3AU     LIG  858  15.336   3.731   8.692
    3AU    AUSL  859  14.842   4.928   7.216
    3AU    AUSL  860  14.559   4.348   7.118
    3AU     AUL  861  14.788   4.607   7.051
    3AU       S  862  15.169   4.689   7.295
    3AU     LIG  863  15.454   4.337   7.217
    3AU     LIG  864  15.909   4.268   7.249
    3AU       S  865  14.671   4.192   6.859
    3AU     LIG  866  14.973   3.850   6.809
    3AU     LIG  867  15.088   3.663   6.398
    3AU    AUSL  868  13.329   4.559   7.492
    3AU    AUSL  869  13.232   4.714   7.081
    3AU     AUL  870  12.965   4.498   7.309
    3AU       S  871  13.058   4.566   6.861
    3AU     LIG  872  12.624   4.331   6.959
    3AU     LIG  873  12.426   3.969   6.714
    3AU       S  874  12.580   4.792   7.767
    3AU     LIG  875  12.540   4.332   7.534
    3AU     LIG  876  12.183   4.186   7.315
    3AU    AUSL  877  13.195   4.872   7.769
    3AU    AUSL  878  13.374   4.254   7.783
    3AU     AUL  879  13.078   4.449   7.764
    3AU       S  880  13.188   4.029   7.963
    3AU     LIG  881  12.729   3.884   8.014
    3AU     LIG  882  12.517   3.601   8.317
    3AU       S  883  12.841   4.810   7.928
    3AU     LIG  884  12.546   4.395   8.049
    3AU     LIG  885  12.141   4.222   7.851
    3AU    AUSL  886  13.893   5.715   7.964
    3AU    AUSL  887  13.455   5.692   7.893
    3AU     AUL  888  13.699   5.716   8.258
    3AU       S  889  13.333   5.893   8.028
    3AU     LIG  890  12.936   6.012   8.263
    3AU     LIG  891  12.624   6.303   8.464
    3AU       S  892  13.847   6.103   8.021
    3AU     LIG  893  14.152   6.376   8.239
    3AU     LIG  894  14.277   6.817   8.319
    3AU    AUSL  895  13.698   5.914   7.615
    3AU    AUSL  896  14.029   5.961   7.272
    3AU     AUL  897  13.732   6.170   7.387
    3AU       S  898  13.813   6.355   7.860
    3AU     LIG  899  13.795   6.794   8.114
    3AU     LIG  900  13.912   7.185   8.407
    3AU       S  901  13.983   6.180   6.971
    3AU     LIG  902  14.241   6.571   7.019
    3AU     LIG  903  14.418   6.994   6.820
    3AU    AUSL  904  14.168   5.914   7.676
    3AU    AUSL  905  14.178   5.582   8.254
    3AU     AUL  906  14.255   5.856   8.039
    3AU       S  907  14.393   5.666   8.480
    3AU     LIG  908  14.745   5.653   8.822
    3AU     LIG  909  15.158   5.837   8.734
    3AU       S  910  14.080   6.202   7.749
    3AU     LIG  911  14.200   6.686   7.808
    3AU     LIG  912  14.135   7.154   7.939
    3AU    AUSL  913  13.972   4.277   8.134
    3AU    AUSL  914  14.524   4.280   7.701
    3AU     AUL  915  14.288   4.084   8.018
    3AU       S  916  13.765   3.723   8.130
    3AU     LIG  917  13.545   3.369   8.386
    3AU     LIG  918  13.653   2.898   8.513
    3AU       S  919  14.720   4.135   7.781
    3AU     LIG  920  14.884   3.685   7.929
    3AU     LIG  921  15.036   3.473   8.322
    3AU    AUSL  922  13.777   4.111   7.764
    3AU    AUSL  923  13.690   4.541   7.960
    3AU     AUL  924  13.619   4.197   8.109
    3AU       S  925  13.683   3.816   7.841
    3AU     LIG  926  13.510   3.389   7.847
    3AU     LIG  927  13.797   3.099   8.041
    3AU       S  928  13.179   4.050   8.263
    3AU     LIG  929  13.034   3.652   8.412
    3AU     LIG  930  12.797   3.378   8.720
    3AU    AUSL  931  14.114   4.373   7.693
    3AU    AUSL  932  13.752   4.246   7.358
    3AU     AUL  933  14.058   4.011   7.563
    3AU       S  934  13.614   3.882   7.366
    3AU     LIG  935  13.355   3.464   7.268
    3AU     LIG  936  13.409   3.023   7.037
    3AU       S  937  13.948   3.664   7.913
    3AU     LIG  938  14.107   3.297   7.700
    3AU     LIG  939  14.300   2.935   7.934
    3AU    AUSL  940  13.986   5.676   6.945
    3AU    AUSL  941  14.294   5.616   7.283
    3AU     AUL  942  14.342   5.892   7.058
    3AU       S  943  14.002   5.884   6.720
    3AU     LIG  944  14.295   6.259   6.583
    3AU     LIG  945  14.075   6.683   6.552
    3AU       S  946  14.994   5.618   6.832
    3AU     LIG  947  15.153   5.971   6.578
    3AU     LIG  948  15.315   6.397   6.418
    3AU    AUSL  949  13.719   5.637   7.295
    3AU    AUSL  950  13.613   5.545   6.798
    3AU     AUL  951  13.616   5.864   7.013
    3AU       S  952  13.829   6.181   6.713
    3AU     LIG  953  13.709   6.598   6.919
    3AU     LIG  954  13.489   7.012   6.896
    3AU       S  955  13.375   5.652   6.636
    3AU     LIG  956  13.066   5.730   6.314
    3AU     LIG  957  12.874   6.066   6.062
    3AU    AUSL  958  13.903   4.240   6.933
    3AU    AUSL  959  13.369   4.288   7.157
    3AU     AUL  960  13.614   4.149   6.982
    3AU       S  961  13.142   4.251   6.928
    3AU     LIG  962  12.853   3.872   7.023
    3AU     LIG  963  12.569   3.496   6.919
    3AU       S  964  13.849   3.766   7.183
    3AU     LIG  965  13.695   3.449   6.887
    3AU     LIG  966  13.857   3.038   6.732
    3AU    AUSL  967  14.165   4.372   7.272
    3AU    AUSL  968  14.241   4.485   6.830
    3AU     AUL  969  14.233   4.118   7.041
    3AU       S  970  13.811   3.604   7.402
    3AU     LIG  971  14.082   3.280   7.161
    3AU     LIG  972  14.356   2.940   6.903
    3AU       S  973  14.436   4.345   6.650
    3AU     LIG  974  14.497   4.210   6.176
    3AU     LIG  975  14.761   3.861   6.010
    4AU     AUC  976  15.393  17.174   7.498
    4AU     AUC  977  15.690  17.221   7.332
    4AU     AUC  978  15.659  17.193   7.666
    4AU     AUC  979  15.114  17.152   7.332
    4AU     AUC  980  15.114  17.156   7.681
    4AU     AUC  981  15.200  17.412   7.519
    4AU     AUC  982  15.532  17.448   7.501
    4AU     AUC  983  15.243  16.893   7.503
    4AU     AUC  984  15.596  16.946   7.487
    4AU     AUC  985  15.429  17.006   7.769
    4AU     AUC  986  15.369  17.328   7.772
    4AU     AUC  987  15.421  17.023   7.224
    4AU     AUC  988  15.407  17.357   7.234
    4AU     AUC  989  16.003  17.259   7.181
    4AU     AUC  990  16.040  17.247   7.498
    4AU     AUC  991  15.973  17.198   7.863
    4AU     AUC  992  14.809  17.121   7.156
    4AU     AUC  993  14.768  17.170   7.524
    4AU     AUC  994  14.823  17.144   7.859
    4AU     AUC  995  15.020  17.714   7.510
    4AU     AUC  996  15.352  17.787   7.498
    4AU     AUC  997  15.672  17.772   7.517
    4AU     AUC  998  15.067  16.569   7.505
    4AU     AUC  999  15.414  16.616   7.500
    4AU     AUC 1000  15.804  16.665   7.457
    4AU     AUC 1001  15.442  16.783   8.060
    4AU     AUC 1002  15.395  17.101   8.102
    4AU     AUC 1003  15.386  17.477   8.070
    4AU     AUC 1004  15.421  16.825   6.933
    4AU     AUC 1005  15.410  17.174   6.914
    4AU     AUC 1006  15.420  17.530   6.935
    4AU     AUC 1007  15.730  16.946   7.963
    4AU     AUC 1008  15.693  17.312   8.014
    4AU     AUC 1009  15.707  17.043   7.017
    4AU     AUC 1010  15.727  17.412   7.010
    4AU     AUC 1011  15.105  16.941   7.985
    4AU     AUC 1012  15.097  17.298   7.991
    4AU     AUC 1013  15.076  16.947   7.048
    4AU     AUC 1014  15.076  17.323   7.019
    4AU     AUC 1015  15.887  17.524   7.353
    4AU     AUC 1016  15.830  17.479   7.711
    4AU     AUC 1017  14.909  17.424   7.306
    4AU     AUC 1018  14.888  17.461   7.704
    4AU     AUC 1019  15.914  16.946   7.301
    4AU     AUC 1020  15.920  16.910   7.627
    4AU     AUC 1021  14.884  16.859   7.350
    4AU     AUC 1022  14.914  16.873   7.671
    4AU     AUC 1023  15.186  17.649   7.797
    4AU     AUC 1024  15.520  17.655   7.809
    4AU     AUC 1025  15.205  16.668   7.782
    4AU     AUC 1026  15.625  16.683   7.796
    4AU     AUC 1027  15.187  17.608   7.179
    4AU     AUC 1028  15.580  17.663   7.184
    4AU     AUC 1029  15.213  16.690   7.220
    4AU     AUC 1030  15.596  16.721   7.172
    4AU    AUSL 1031  15.986  17.094   8.234
    4AU    AUSL 1032  15.856  16.612   8.088
    4AU     AUL 1033  16.090  16.713   8.288
    4AU       S 1034  16.276  16.346   8.070
    4AU     LIG 1035  16.258  16.080   8.418
    4AU     LIG 1036  16.313  15.756   8.750
    4AU       S 1037  16.241  17.143   8.384
    4AU     LIG 1038  16.210  17.279   8.806
    4AU     LIG 1039  16.300  17.017   9.175
    4AU    AUSL 1040  15.588  16.897   8.296
    4AU    AUSL 1041  15.259  17.228   8.407
    4AU     AUL 1042  15.454  17.069   8.637
    4AU       S 1043  15.890  16.899   8.654
    4AU     LIG 1044  15.786  17.034   9.040
    4AU     LIG 1045  15.879  16.891   9.466
    4AU       S 1046  14.718  17.034   8.676
    4AU     LIG 1047  14.913  17.387   8.947
    4AU     LIG 1048  14.888  17.399   9.410
    4AU    AUSL 1049  15.594  17.327   8.167
    4AU    AUSL 1050  16.010  17.522   8.142
    4AU     AUL 1051  15.824  17.342   8.465
    4AU       S 1052  15.437  17.582   8.638
    4AU     LIG 1053  15.795  17.555   8.921
    4AU     LIG 1054  15.999  17.411   9.312
    4AU       S 1055  16.152  17.672   8.359
    4AU     LIG 1056  16.580  17.810   8.470
    4AU     LIG 1057  16.904  18.141   8.354
    4AU    AUSL 1058  15.970  17.306   6.762
    4AU    AUSL 1059  15.843  17.751   6.836
    4AU     AUL 1060  16.001  17.590   6.524
    4AU       S 1061  15.889  17.189   6.298
    4AU     LIG 1062  16.269  17.226   6.011
    4AU     LIG 1063  16.371  17.000   5.603
    4AU       S 1064  16.198  17.895   6.811
    4AU     LIG 1065  16.215  18.168   6.459
    4AU     LIG 1066  16.305  18.431   6.084
    4AU    AUSL 1067  15.618  17.052   6.734
    4AU    AUSL 1068  15.947  16.968   7.045
    4AU     AUL 1069  16.045  17.003   6.687
    4AU       S 1070  16.046  16.228   6.667
    4AU     LIG 1071  16.455  16.322   6.470
    4AU     LIG 1072  16.776  16.054   6.261
    4AU       S 1073  15.709  16.844   6.374
    4AU     LIG 1074  15.649  16.661   5.900
    4AU     LIG 1075  15.920  16.750   5.500
    4AU    AUSL 1076  15.549  17.484   6.647
    4AU    AUSL 1077  15.255  16.879   6.601
    4AU     AUL 1078  15.432  17.209   6.421
    4AU       S 1079  15.081  16.907   6.289
    4AU     LIG 1080  15.103  16.799   5.831
    4AU     LIG 1081  14.664  16.820   5.697
    4AU       S 1082  15.926  16.918   6.215
    4AU     LIG 1083  15.805  17.142   5.804
    4AU     LIG 1084  15.975  17.262   5.382
    4AU    AUSL 1085  14.902  17.107   8.176
    4AU    AUSL 1086  15.127  17.543   8.143
    4AU     AUL 1087  14.994  17.408   8.452
    4AU       S 1088  14.645  17.101   8.381
    4AU     LIG 1089  14.471  17.452   8.672
    4AU     LIG 1090  14.449  17.276   9.125
    4AU       S 1091  14.710  17.762   8.326
    4AU     LIG 1092  14.657  18.072   8.634
    4AU     LIG 1093  14.474  18.489   8.791
    4AU    AUSL 1094  15.167  16.793   8.368
    4AU    AUSL 1095  14.748  16.715   8.052
    4AU     AUL 1096  14.851  16.689   8.333
    4AU       S 1097  14.556  16.357   8.162
    4AU     LIG 1098  14.142  16.232   8.288
    4AU     LIG 1099  13.755  16.152   8.552
    4AU       S 1100  14.964  16.967   8.677
    4AU     LIG 1101  15.004  16.917   9.125
    4AU     LIG 1102  14.787  16.898   9.533
    4AU    AUSL 1103  14.866  17.034   6.733
    4AU    AUSL 1104  15.138  16.747   6.999
    4AU     AUL 1105  14.989  16.656   6.677
    4AU       S 1106  14.684  16.954   6.454
    4AU     LIG 1107  14.389  17.083   6.078
    4AU     LIG 1108  14.405  17.300   5.654
    4AU       S 1109  14.535  16.471   6.670
    4AU     LIG 1110  14.497  16.027   6.503
    4AU     LIG 1111  14.286  15.713   6.210
    4AU    AUSL 1112  15.213  17.294   6.827
    4AU    AUSL 1113  14.755  17.409   6.914
    4AU     AUL 1114  14.966  17.318   6.547
    4AU       S 1115  14.584  17.536   6.728
    4AU     LIG 1116  14.260  17.828   6.577
    4AU     LIG 1117  14.137  18.130   6.237
    4AU       S 1118  14.810  16.849   6.238
    4AU     LIG 1119  14.859  17.230   5.950
    4AU     LIG 1120  14.884  17.236   5.473
    4AU    AUSL 1121  16.074  17.809   7.561
    4AU    AUSL 1122  16.072  17.523   7.126
    4AU     AUL 1123  16.218  17.911   7.280
    4AU       S 1124  16.319  17.580   6.940
    4AU     LIG 1125  16.484  17.544   6.489
    4AU     LIG 1126  16.616  17.925   6.255
    4AU       S 1127  16.572  17.761   7.977
    4AU     LIG 1128  16.899  18.056   7.831
    4AU     LIG 1129  17.205  18.153   7.495
    4AU    AUSL 1130  16.363  17.480   7.435
    4AU    AUSL 1131  16.368  17.073   7.672
    4AU     AUL 1132  16.663  17.276   7.542
    4AU       S 1133  16.524  17.702   7.675
    4AU     LIG 1134  16.876  17.747   7.400
    4AU     LIG 1135  17.342  17.650   7.389
    4AU       S 1136  16.623  16.793   7.515
    4AU     LIG 1137  16.901  16.634   7.851
    4AU     LIG 1138  17.313  16.394   7.945
    4AU    AUSL 1139  16.077  17.388   7.744
    4AU    AUSL 1140  15.746  17.696   7.817
    4AU     AUL 1141  16.102  17.794   7.897
    4AU       S 1142  16.101  17.983   8.350
    4AU     LIG 1143  16.436  18.249   8.203
    4AU     LIG 1144  16.643  18.625   8.408
    4AU       S 1145  16.447  17.469   7.934
    4AU     LIG 1146  16.981  17.526   7.859
    4AU     LIG 1147  17.375  17.827   7.872
    4AU    AUSL 1148  14.742  17.666   7.545
    4AU    AUSL 1149  14.730  17.449   7.966
    4AU     AUL 1150  14.461  17.796   7.799
    4AU       S 1151  14.604  17.523   8.159
    4AU     LIG 1152  14.222  17.773   8.294
    4AU     LIG 1153  14.143  18.074   8.647
    4AU       S 1154  14.682  18.081   7.497
    4AU     LIG 1155  14.351  18.294   7.265
    4AU     LIG 1156  13.901  18.412   7.284
    4AU    AUSL 1157  14.664  17.293   7.310
    4AU    AUSL 1158  14.780  17.795   7.136
    4AU     AUL 1159  14.504  17.620   7.209
    4AU       S 1160  14.353  17.162   6.949
    4AU     LIG 1161  14.057  17.546   7.008
    4AU     LIG 1162  13.649  17.750   7.190
    4AU       S 1163  14.602  17.994   6.906
    4AU     LIG 1164  14.346  18.349   6.713
    4AU     LIG 1165  14.021  18.601   6.466
    4AU    AUSL 1166  14.425  17.359   7.673
    4AU    AUSL 1167  14.430  16.944   7.412
    4AU     AUL 1168  14.266  17.251   7.396
    4AU       S 1169  14.210  16.895   7.714
    4AU     LIG 1170  13.934  16.741   7.381
    4AU     LIG 1171  13.619  16.524   7.096
    4AU       S 1172  14.179  17.414   7.860
    4AU     LIG 1173  13.859  17.778   7.900
    4AU     LIG 1174  13.493  18.065   8.067
    4AU    AUSL 1175  16.117  16.792   7.441
    4AU    AUSL 1176  15.989  16.937   7.837
    4AU     AUL 1177  16.313  16.807   7.867
    4AU       S 1178  16.426  16.633   7.438
    4AU     LIG 1179  16.531  16.206   7.330
    4AU     LIG 1180  16.895  15.977   7.146
    4AU       S 1181  16.501  16.330   7.838
    4AU     LIG 1182  16.754  16.181   8.191
    4AU     LIG 1183  16.747  16.041   8.639
    4AU    AUSL 1184  16.315  17.113   7.206
    4AU    AUSL 1185  16.041  16.512   7.126
    4AU     AUL 1186  16.257  16.776   7.034
    4AU       S 1187  16.629  16.886   7.277
    4AU     LIG 1188  16.869  16.530   7.107
    4AU     LIG 1189  17.336  16.424   7.082
    4AU       S 1190  16.174  16.329   6.898
    4AU     LIG 1191  16.490  15.961   6.834
    4AU     LIG 1192  16.905  15.717   6.693
    4AU    AUSL 1193  14.811  16.714   7.497
    4AU    AUSL 1194  14.705  16.861   7.087
    4AU     AUL 1195  14.444  16.645   7.314
    4AU       S 1196  14.540  16.699   6.863
    4AU     LIG 1197  14.129  16.472   6.964
    4AU     LIG 1198  13.999  16.138   6.691
    4AU       S 1199  14.240  16.800   8.045
    4AU     LIG 1200  14.121  16.395   7.794
    4AU     LIG 1201  13.773  16.254   7.530
    4AU    AUSL 1202  14.670  17.024   7.773
    4AU    AUSL 1203  14.874  16.398   7.771
    4AU     AUL 1204  14.574  16.591   7.761
    4AU       S 1205  14.723  16.164   7.913
    4AU     LIG 1206  14.407  15.885   7.979
    4AU     LIG 1207  14.377  15.686   8.348
    4AU       S 1208  14.325  16.959   7.919
    4AU     LIG 1209  13.770  16.770   7.880
    4AU     LIG 1210  13.438  16.420   7.935
    4AU    AUSL 1211  15.351  17.871   7.962
    4AU    AUSL 1212  14.911  17.847   7.903
    4AU     AUL 1213  15.158  17.883   8.250
    4AU       S 1214  14.740  18.046   8.093
    4AU     LIG 1215  14.417  18.379   8.286
    4AU     LIG 1216  14.023  18.575   8.550
    4AU       S 1217  15.308  18.280   8.014
    4AU     LIG 1218  15.570  18.653   8.206
    4AU     LIG 1219  15.482  19.093   8.368
    4AU    AUSL 1220  15.150  18.069   7.619
    4AU    AUSL 1221  15.477  18.121   7.268
    4AU     AUL 1222  15.167  18.321   7.381
    4AU       S 1223  15.308  18.514   7.812
    4AU     LIG 1224  15.307  18.980   7.876
    4AU     LIG 1225  15.148  19.368   8.079
    4AU       S 1226  15.423  18.328   6.973
    4AU     LIG 1227  15.649  18.637   7.179
    4AU     LIG 1228  15.647  19.084   7.094
    4AU    AUSL 1229  15.621  18.074   7.672
    4AU    AUSL 1230  15.637  17.741   8.255
    4AU     AUL 1231  15.704  18.021   8.040
    4AU       S 1232  15.854  17.836   8.480
    4AU     LIG 1233  16.205  17.903   8.823
    4AU     LIG 1234  16.569  18.235   8.764
    4AU       S 1235  15.548  18.348   7.721
    4AU     LIG 1236  15.752  18.775   7.706
    4AU     LIG 1237  15.816  19.156   7.981
    4AU    AUSL 1238  15.467  16.435   8.133
    4AU    AUSL 1239  16.019  16.456   7.693
    4AU     AUL 1240  15.798  16.256   8.015
    4AU       S 1241  15.373  15.913   8.108
    4AU     LIG 1242  14.946  15.731   8.230
    4AU     LIG 1243  14.751  15.363   8.448
    4AU       S 1244  16.208  16.312   7.749
    4AU     LIG 1245  16.338  15.864   7.927
    4AU     LIG 1246  16.588  15.695   8.290
    4AU    AUSL 1247  15.280  16.263   7.762
    4AU    AUSL 1248  15.181  16.689   7.953
    4AU     AUL 1249  15.119  16.349   8.107
    4AU       S 1250  15.208  15.977   7.840
    4AU     LIG 1251  14.877  15.684   7.728
    4AU     LIG 1252  14.880  15.274   7.938
    4AU       S 1253  14.694  16.173   8.249
    4AU     LIG 1254  14.684  15.953   8.641
    4AU     LIG 1255  14.394  15.681   8.891
    4AU    AUSL 1256  15.607  16.536   7.689
    4AU    AUSL 1257  15.240  16.399   7.356
    4AU     AUL 1258  15.562  16.174   7.559
    4AU       S 1259  15.106  16.055   7.370
    4AU     LIG 1260  14.846  15.719   7.211
    4AU     LIG 1261  14.980  15.267   7.194
    4AU       S 1262  15.388  15.761   7.875
    4AU     LIG 1263  15.692  15.424   7.801
    4AU     LIG 1264  16.062  15.146   7.945
    4AU    AUSL 1265  15.437  17.829   6.948
    4AU    AUSL 1266  15.751  17.784   7.282
    4AU     AUL 1267  15.793  18.056   7.053
    4AU       S 1268  15.446  18.034   6.720
    4AU     LIG 1269  15.784  18.369   6.637
    4AU     LIG 1270  15.657  18.807   6.665
    4AU       S 1271  16.506  17.827   6.894
    4AU     LIG 1272  16.540  18.302   6.841
    4AU     LIG 1273  16.502  18.654   6.523
    4AU    AUSL 1274  15.173  17.794   7.298
    4AU    AUSL 1275  15.062  17.702   6.800
    4AU     AUL 1276  15.062  18.015   7.012
    4AU       S 1277  15.291  18.341   6.726
    4AU     LIG 1278  15.187  18.768   6.949
    4AU     LIG 1279  15.070  19.161   6.749
    4AU       S 1280  14.809  17.806   6.644
    4AU     LIG 1281  14.647  18.114   6.358
    4AU     LIG 1282  14.470  18.532   6.212
    4AU    AUSL 1283  15.388  16.407   6.928
    4AU    AUSL 1284  14.853  16.440   7.164
    4AU     AUL 1285  15.103  16.307   6.977
    4AU       S 1286  14.633  16.393   6.942
    4AU     LIG 1287  14.397  15.990   7.003
    4AU     LIG 1288  14.177  15.655   6.716
    4AU       S 1289  15.348  15.931   7.178
    4AU     LIG 1290  15.223  15.600   6.885
    4AU     LIG 1291  15.227  15.160   6.750
    4AU    AUSL 1292  15.645  16.544   7.267
    4AU    AUSL 1293  15.730  16.647   6.826
    4AU     AUL 1294  15.717  16.285   7.040
    4AU       S 1295  15.295  15.783   7.385
    4AU     LIG 1296  15.472  15.364   7.309
    4AU     LIG 1297  15.608  14.993   7.057
    4AU       S 1298  15.939  16.518   6.659
    4AU     LIG 1299  16.012  16.405   6.204
    4AU     LIG 1300  16.248  16.006   6.112
    5AU     AUC 1301  17.714  42.343   7.495
    5AU     AUC 1302  18.008  42.387   7.331
    5AU     AUC 1303  17.979  42.369   7.663
    5AU     AUC 1304  17.435  42.314   7.329
    5AU     AUC 1305  17.442  42.332   7.679
    5AU     AUC 1306  17.522  42.581   7.509
    5AU     AUC 1307  17.855  42.618   7.490
    5AU     AUC 1308  17.561  42.060   7.509
    5AU     AUC 1309  17.913  42.112   7.487
    5AU     AUC 1310  17.749  42.182   7.774
    5AU     AUC 1311  17.692  42.508   7.762
    5AU     AUC 1312  17.742  42.187   7.224
    5AU     AUC 1313  17.729  42.520   7.227
    5AU     AUC 1314  18.323  42.415   7.177
    5AU     AUC 1315  18.360  42.411   7.499
    5AU     AUC 1316  18.288  42.378   7.861
    5AU     AUC 1317  17.131  42.274   7.158
    5AU     AUC 1318  17.095  42.320   7.519
    5AU     AUC 1319  17.143  42.324   7.864
    5AU     AUC 1320  17.342  42.886   7.489
    5AU     AUC 1321  17.677  42.959   7.475
    5AU     AUC 1322  17.998  42.943   7.497
    5AU     AUC 1323  17.388  41.735   7.521
    5AU     AUC 1324  17.732  41.788   7.506
    5AU     AUC 1325  18.121  41.831   7.467
    5AU     AUC 1326  17.761  41.971   8.074
    5AU     AUC 1327  17.719  42.296   8.107
    5AU     AUC 1328  17.709  42.672   8.056
    5AU     AUC 1329  17.745  41.984   6.933
    5AU     AUC 1330  17.729  42.335   6.909
    5AU     AUC 1331  17.741  42.687   6.923
    5AU     AUC 1332  18.046  42.130   7.971
    5AU     AUC 1333  18.012  42.501   8.007
    5AU     AUC 1334  18.027  42.204   7.014
    5AU     AUC 1335  18.047  42.570   7.000
    5AU     AUC 1336  17.428  42.134   7.999
    5AU     AUC 1337  17.422  42.487   7.984
    5AU     AUC 1338  17.400  42.109   7.048
    5AU     AUC 1339  17.396  42.485   7.016
    5AU     AUC 1340  18.211  42.685   7.344
    5AU     AUC 1341  18.154  42.657   7.701
    5AU     AUC 1342  17.231  42.585   7.297
    5AU     AUC 1343  17.210  42.627   7.688
    5AU     AUC 1344  18.232  42.111   7.303
    5AU     AUC 1345  18.231  42.082   7.637
    5AU     AUC 1346  17.211  42.010   7.351
    5AU     AUC 1347  17.234  42.044   7.678
    5AU     AUC 1348  17.510  42.831   7.775
    5AU     AUC 1349  17.842  42.838   7.789
    5AU     AUC 1350  17.522  41.849   7.801
    5AU     AUC 1351  17.935  41.860   7.809
    5AU     AUC 1352  17.508  42.772   7.168
    5AU     AUC 1353  17.905  42.824   7.169
    5AU     AUC 1354  17.543  41.850   7.222
    5AU     AUC 1355  17.922  41.883   7.175
    5AU    AUSL 1356  18.310  42.293   8.234
    5AU    AUSL 1357  18.166  41.804   8.120
    5AU     AUL 1358  18.428  41.910   8.303
    5AU       S 1359  18.574  41.512   8.127
    5AU     LIG 1360  18.619  41.388   8.556
    5AU     LIG 1361  18.830  41.114   8.861
    5AU       S 1362  18.554  42.348   8.367
    5AU     LIG 1363  18.526  42.460   8.786
    5AU     LIG 1364  18.650  42.224   9.159
    5AU    AUSL 1365  17.908  42.104   8.311
    5AU    AUSL 1366  17.585  42.447   8.410
    5AU     AUL 1367  17.762  42.300   8.656
    5AU       S 1368  18.170  42.085   8.631
    5AU     LIG 1369  18.134  42.193   9.031
    5AU     LIG 1370  18.241  42.079   9.456
    5AU       S 1371  17.033  42.400   8.737
    5AU     LIG 1372  17.171  42.456   9.184
    5AU     LIG 1373  17.087  42.485   9.653
    5AU    AUSL 1374  17.916  42.522   8.155
    5AU    AUSL 1375  18.328  42.719   8.130
    5AU     AUL 1376  18.139  42.544   8.458
    5AU       S 1377  17.764  42.807   8.631
    5AU     LIG 1378  18.085  42.700   8.925
    5AU     LIG 1379  18.321  42.593   9.301
    5AU       S 1380  18.455  42.870   8.331
    5AU     LIG 1381  18.866  42.776   8.418
    5AU     LIG 1382  19.183  43.035   8.623
    5AU    AUSL 1383  18.286  42.459   6.747
    5AU    AUSL 1384  18.168  42.900   6.821
    5AU     AUL 1385  18.323  42.743   6.507
    5AU       S 1386  18.194  42.331   6.309
    5AU     LIG 1387  18.577  42.426   6.085
    5AU     LIG 1388  18.683  42.144   5.722
    5AU       S 1389  18.556  43.013   6.805
    5AU     LIG 1390  18.522  43.212   6.413
    5AU     LIG 1391  18.668  43.411   6.013
    5AU    AUSL 1392  17.930  42.207   6.737
    5AU    AUSL 1393  18.265  42.137   7.046
    5AU     AUL 1394  18.376  42.165   6.696
    5AU       S 1395  18.414  41.406   6.662
    5AU     LIG 1396  18.827  41.417   6.448
    5AU     LIG 1397  19.145  41.246   6.107
    5AU       S 1398  18.036  42.014   6.390
    5AU     LIG 1399  17.932  41.801   5.974
    5AU     LIG 1400  18.149  41.796   5.551
    5AU    AUSL 1401  17.869  42.636   6.631
    5AU    AUSL 1402  17.564  42.044   6.595
    5AU     AUL 1403  17.733  42.361   6.413
    5AU       S 1404  17.352  42.076   6.284
    5AU     LIG 1405  17.421  41.888   5.859
    5AU     LIG 1406  17.149  41.862   5.474
    5AU       S 1407  18.280  42.044   6.229
    5AU     LIG 1408  18.171  42.239   5.812
    5AU     LIG 1409  18.322  42.278   5.369
    5AU    AUSL 1410  17.236  42.313   8.179
    5AU    AUSL 1411  17.451  42.737   8.117
    5AU     AUL 1412  17.325  42.641   8.432
    5AU       S 1413  16.985  42.311   8.409
    5AU     LIG 1414  16.769  41.992   8.685
    5AU     LIG 1415  16.802  42.080   9.138
    5AU       S 1416  17.015  42.971   8.280
    5AU     LIG 1417  16.791  43.205   8.591
    5AU     LIG 1418  16.596  43.470   8.925
    5AU    AUSL 1419  17.492  42.007   8.393
    5AU    AUSL 1420  17.051  41.932   8.097
    5AU     AUL 1421  17.197  41.894   8.373
    5AU       S 1422  16.770  41.744   8.247
    5AU     LIG 1423  16.368  41.684   8.531
    5AU     LIG 1424  16.229  41.359   8.845
    5AU       S 1425  17.257  42.225   8.685
    5AU     LIG 1426  17.309  41.981   9.039
    5AU     LIG 1427  17.191  42.000   9.487
    5AU    AUSL 1428  17.179  42.197   6.744
    5AU    AUSL 1429  17.465  41.908   6.997
    5AU     AUL 1430  17.304  41.821   6.677
    5AU       S 1431  16.983  42.118   6.475
    5AU     LIG 1432  16.652  42.203   6.130
    5AU     LIG 1433  16.631  42.208   5.644
    5AU       S 1434  16.855  41.630   6.724
    5AU     LIG 1435  17.007  41.325   6.424
    5AU     LIG 1436  16.882  41.126   6.003
    5AU    AUSL 1437  17.530  42.458   6.823
    5AU    AUSL 1438  17.075  42.578   6.917
    5AU     AUL 1439  17.275  42.479   6.549
    5AU       S 1440  16.897  42.697   6.729
    5AU     LIG 1441  16.575  42.833   6.456
    5AU     LIG 1442  16.383  43.153   6.178
    5AU       S 1443  17.079  41.959   6.248
    5AU     LIG 1444  17.094  42.276   5.873
    5AU     LIG 1445  17.076  42.371   5.396
    5AU    AUSL 1446  18.403  42.972   7.542
    5AU    AUSL 1447  18.390  42.668   7.115
    5AU     AUL 1448  18.546  43.063   7.264
    5AU       S 1449  18.638  42.717   6.930
    5AU     LIG 1450  18.824  42.744   6.481
    5AU     LIG 1451  19.017  43.091   6.252
    5AU       S 1452  18.922  42.899   7.876
    5AU     LIG 1453  19.030  43.250   7.534
    5AU     LIG 1454  19.390  43.254   7.231
    5AU    AUSL 1455  18.684  42.631   7.424
    5AU    AUSL 1456  18.677  42.230   7.671
    5AU     AUL 1457  18.982  42.391   7.538
    5AU       S 1458  18.836  42.814   7.641
    5AU     LIG 1459  19.259  42.794   7.462
    5AU     LIG 1460  19.524  42.760   7.099
    5AU       S 1461  18.912  41.909   7.525
    5AU     LIG 1462  19.207  41.839   7.858
    5AU     LIG 1463  19.657  41.930   7.992
    5AU    AUSL 1464  18.400  42.559   7.743
    5AU    AUSL 1465  18.070  42.877   7.798
    5AU     AUL 1466  18.438  42.975   7.872
    5AU       S 1467  18.438  43.177   8.338
    5AU     LIG 1468  18.896  43.253   8.233
    5AU     LIG 1469  19.354  43.388   8.269
    5AU       S 1470  18.752  42.622   7.924
    5AU     LIG 1471  19.211  42.505   7.965
    5AU     LIG 1472  19.633  42.614   7.800
    5AU    AUSL 1473  17.065  42.811   7.522
    5AU    AUSL 1474  17.050  42.630   7.949
    5AU     AUL 1475  16.783  42.953   7.747
    5AU       S 1476  16.924  42.716   8.141
    5AU     LIG 1477  16.508  42.825   8.350
    5AU     LIG 1478  16.303  43.073   8.727
    5AU       S 1479  17.007  43.262   7.475
    5AU     LIG 1480  16.578  43.284   7.297
    5AU     LIG 1481  16.257  43.645   7.279
    5AU    AUSL 1482  16.979  42.434   7.301
    5AU    AUSL 1483  17.099  42.971   7.125
    5AU     AUL 1484  16.822  42.775   7.208
    5AU       S 1485  16.682  42.308   6.938
    5AU     LIG 1486  16.234  42.451   7.027
    5AU     LIG 1487  15.861  42.725   7.093
    5AU       S 1488  16.922  43.148   6.906
    5AU     LIG 1489  16.583  43.324   6.681
    5AU     LIG 1490  16.237  43.558   6.519
    5AU    AUSL 1491  16.747  42.505   7.669
    5AU    AUSL 1492  16.756  42.083   7.418
    5AU     AUL 1493  16.593  42.396   7.384
    5AU       S 1494  16.522  42.041   7.685
    5AU     LIG 1495  16.286  41.990   7.251
    5AU     LIG 1496  15.847  42.098   7.088
    5AU       S 1497  16.526  42.570   7.845
    5AU     LIG 1498  16.156  42.797   7.884
    5AU     LIG 1499  15.720  42.752   7.932
    5AU    AUSL 1500  18.408  41.954   7.452
    5AU    AUSL 1501  18.297  42.113   7.848
    5AU     AUL 1502  18.624  42.004   7.879
    5AU       S 1503  18.703  41.776   7.469
    5AU     LIG 1504  18.844  41.425   7.320
    5AU     LIG 1505  19.297  41.454   7.276
    5AU       S 1506  18.786  41.564   7.970
    5AU     LIG 1507  19.044  41.579   8.325
    5AU     LIG 1508  19.231  41.249   8.572
    5AU    AUSL 1509  18.640  42.254   7.212
    5AU    AUSL 1510  18.375  41.686   7.120
    5AU     AUL 1511  18.584  41.944   7.050
    5AU       S 1512  18.962  41.973   7.308
    5AU     LIG 1513  19.023  41.692   6.922
    5AU     LIG 1514  19.445  41.521   6.761
    5AU       S 1515  18.524  41.501   6.896
    5AU     LIG 1516  18.814  41.122   6.888
    5AU     LIG 1517  19.063  40.967   6.530
    5AU    AUSL 1518  17.140  41.850   7.501
    5AU    AUSL 1519  17.031  42.003   7.093
    5AU     AUL 1520  16.777  41.773   7.332
    5AU       S 1521  16.862  41.850   6.881
    5AU     LIG 1522  16.510  41.949   6.583
    5AU     LIG 1523  16.519  41.696   6.187
    5AU       S 1524  16.444  41.909   7.882
    5AU     LIG 1525  16.257  41.615   7.596
    5AU     LIG 1526  15.862  41.364   7.691
    5AU    AUSL 1527  17.013  42.183   7.760
    5AU    AUSL 1528  17.170  41.595   7.841
    5AU     AUL 1529  16.898  41.765   7.787
    5AU       S 1530  16.964  41.444   8.129
    5AU     LIG 1531  16.788  41.068   8.229
    5AU     LIG 1532  16.376  41.171   8.391
    5AU       S 1533  16.627  42.117   7.931
    5AU     LIG 1534  16.124  42.275   7.923
    5AU     LIG 1535  16.000  42.455   7.516
    5AU    AUSL 1536  17.673  43.065   7.935
    5AU    AUSL 1537  17.234  43.024   7.862
    5AU     AUL 1538  17.473  43.078   8.220
    5AU       S 1539  17.082  43.218   8.000
    5AU     LIG 1540  16.612  43.268   8.104
    5AU     LIG 1541  16.381  43.502   8.439
    5AU       S 1542  17.637  43.453   7.973
    5AU     LIG 1543  17.832  43.527   8.363
    5AU     LIG 1544  17.835  43.923   8.616
    5AU    AUSL 1545  17.475  43.249   7.582
    5AU    AUSL 1546  17.804  43.283   7.236
    5AU     AUL 1547  17.508  43.501   7.344
    5AU       S 1548  17.670  43.674   7.787
    5AU     LIG 1549  17.627  43.952   8.133
    5AU     LIG 1550  17.659  44.359   8.352
    5AU       S 1551  17.760  43.478   6.926
    5AU     LIG 1552  17.928  43.780   7.188
    5AU     LIG 1553  17.975  44.199   7.019
    5AU    AUSL 1554  17.950  43.251   7.639
    5AU    AUSL 1555  17.952  42.938   8.234
    5AU     AUL 1556  18.039  43.203   8.011
    5AU       S 1557  18.173  43.043   8.459
    5AU     LIG 1558  18.507  42.981   8.811
    5AU     LIG 1559  18.866  43.202   8.999
    5AU       S 1560  17.885  43.508   7.678
    5AU     LIG 1561  18.130  43.719   7.993
    5AU     LIG 1562  18.113  44.118   8.221
    5AU    AUSL 1563  17.779  41.617   8.135
    5AU    AUSL 1564  18.335  41.635   7.736
    5AU     AUL 1565  18.112  41.455   8.043
    5AU       S 1566  17.776  41.097   8.028
    5AU     LIG 1567  17.927  40.996   8.495
    5AU     LIG 1568  18.057  40.591   8.823
    5AU       S 1569  18.571  41.436   7.835
    5AU     LIG 1570  18.867  41.110   8.182
    5AU     LIG 1571  18.858  40.739   8.485
    5AU    AUSL 1572  17.570  41.463   7.769
    5AU    AUSL 1573  17.489  41.887   7.982
    5AU     AUL 1574  17.434  41.530   8.133
    5AU       S 1575  17.453  41.163   7.830
    5AU     LIG 1576  17.129  40.783   7.960
    5AU     LIG 1577  17.236  40.423   8.333
    5AU       S 1578  16.679  41.543   8.171
    5AU     LIG 1579  16.780  41.390   8.625
    5AU     LIG 1580  16.710  40.977   8.846
    5AU    AUSL 1581  17.921  41.708   7.696
    5AU    AUSL 1582  17.574  41.563   7.354
    5AU     AUL 1583  17.876  41.349   7.592
    5AU       S 1584  17.484  41.216   7.344
    5AU     LIG 1585  17.287  40.975   6.934
    5AU     LIG 1586  17.258  40.405   6.723
    5AU       S 1587  17.607  40.986   7.830
    5AU     LIG 1588  17.873  40.764   7.667
    5AU     LIG 1589  17.974  40.177   7.915
    5AU    AUSL 1590  17.762  42.979   6.929
    5AU    AUSL 1591  18.079  42.947   7.264
    5AU     AUL 1592  18.126  43.207   7.023
    5AU       S 1593  17.768  43.181   6.696
    5AU     LIG 1594  18.028  43.507   6.468
    5AU     LIG 1595  17.871  43.950   6.552
    5AU       S 1596  18.874  42.842   6.977
    5AU     LIG 1597  19.029  43.212   6.766
    5AU     LIG 1598  18.911  43.557   6.469
    5AU    AUSL 1599  17.496  42.956   7.278
    5AU    AUSL 1600  17.380  42.867   6.790
    5AU     AUL 1601  17.387  43.178   6.994
    5AU       S 1602  17.600  43.500   6.706
    5AU     LIG 1603  17.505  43.914   6.918
    5AU     LIG 1604  17.530  44.359   6.800
    5AU       S 1605  17.117  42.968   6.633
    5AU     LIG 1606  16.909  43.199   6.306
    5AU     LIG 1607  16.662  43.582   6.205
    5AU    AUSL 1608  17.721  41.572   6.930
    5AU    AUSL 1609  17.189  41.588   7.160
    5AU     AUL 1610  17.440  41.472   6.964
    5AU       S 1611  16.964  41.533   6.958
    5AU     LIG 1612  16.759  41.143   6.844
    5AU     LIG 1613  16.582  41.028   6.414
    5AU       S 1614  17.743  41.110   7.141
    5AU     LIG 1615  17.821  41.103   6.667
    5AU     LIG 1616  17.892  40.743   6.271
    5AU    AUSL 1617  17.981  41.699   7.274
    5AU    AUSL 1618  18.062  41.810   6.825
    5AU     AUL 1619  18.061  41.461   7.021
    5AU       S 1620  17.648  41.003   7.307
    5AU     LIG 1621  18.046  40.698   7.211
    5AU     LIG 1622  18.104  40.292   7.017
    5AU       S 1623  18.294  41.677   6.643
    5AU     LIG 1624  18.373  41.528   6.182
    5AU     LIG 1625  18.648  41.166   6.007
    6AU     AUC 1626   2.357  23.381   7.501
    6AU     AUC 1627   2.654  23.422   7.338
    6AU     AUC 1628   2.623  23.397   7.672
    6AU     AUC 1629   2.080  23.364   7.333
    6AU     AUC 1630   2.077  23.369   7.682
    6AU     AUC 1631   2.169  23.624   7.520
    6AU     AUC 1632   2.503  23.653   7.503
    6AU     AUC 1633   2.205  23.103   7.506
    6AU     AUC 1634   2.556  23.148   7.492
    6AU     AUC 1635   2.390  23.215   7.773
    6AU     AUC 1636   2.336  23.537   7.775
    6AU     AUC 1637   2.384  23.229   7.228
    6AU     AUC 1638   2.377  23.564   7.237
    6AU     AUC 1639   2.969  23.451   7.187
    6AU     AUC 1640   3.004  23.439   7.508
    6AU     AUC 1641   2.933  23.396   7.872
    6AU     AUC 1642   1.775  23.336   7.156
    6AU     AUC 1643   1.733  23.389   7.522
    6AU     AUC 1644   1.785  23.362   7.857
    6AU     AUC 1645   1.997  23.929   7.506
    6AU     AUC 1646   2.331  23.997   7.499
    6AU     AUC 1647   2.651  23.975   7.520
    6AU     AUC 1648   2.025  22.781   7.508
    6AU     AUC 1649   2.372  22.822   7.506
    6AU     AUC 1650   2.760  22.863   7.466
    6AU     AUC 1651   2.394  22.990   8.065
    6AU     AUC 1652   2.351  23.312   8.105
    6AU     AUC 1653   2.353  23.688   8.070
    6AU     AUC 1654   2.382  23.030   6.938
    6AU     AUC 1655   2.378  23.379   6.917
    6AU     AUC 1656   2.395  23.737   6.938
    6AU     AUC 1657   2.684  23.152   7.972
    6AU     AUC 1658   2.656  23.518   8.021
    6AU     AUC 1659   2.669  23.245   7.019
    6AU     AUC 1660   2.697  23.612   7.013
    6AU     AUC 1661   2.061  23.155   7.986
    6AU     AUC 1662   2.059  23.512   7.991
    6AU     AUC 1663   2.039  23.157   7.051
    6AU     AUC 1664   2.048  23.536   7.021
    6AU     AUC 1665   2.860  23.719   7.359
    6AU     AUC 1666   2.800  23.679   7.716
    6AU     AUC 1667   1.882  23.641   7.303
    6AU     AUC 1668   1.857  23.676   7.699
    6AU     AUC 1669   2.872  23.144   7.307
    6AU     AUC 1670   2.876  23.108   7.638
    6AU     AUC 1671   1.844  23.073   7.351
    6AU     AUC 1672   1.873  23.089   7.670
    6AU     AUC 1673   2.159  23.862   7.795
    6AU     AUC 1674   2.494  23.863   7.811
    6AU     AUC 1675   2.163  22.878   7.785
    6AU     AUC 1676   2.579  22.885   7.805
    6AU     AUC 1677   2.165  23.821   7.179
    6AU     AUC 1678   2.559  23.867   7.187
    6AU     AUC 1679   2.174  22.898   7.226
    6AU     AUC 1680   2.555  22.923   7.177
    6AU    AUSL 1681   2.940  23.296   8.247
    6AU    AUSL 1682   2.802  22.814   8.104
    6AU     AUL 1683   3.036  22.918   8.304
    6AU       S 1684   3.208  22.526   8.121
    6AU     LIG 1685   3.326  22.287   8.525
    6AU     LIG 1686   3.456  21.930   8.856
    6AU       S 1687   3.198  23.344   8.409
    6AU     LIG 1688   3.182  23.563   8.796
    6AU     LIG 1689   3.287  23.357   9.195
    6AU    AUSL 1690   2.536  23.108   8.301
    6AU    AUSL 1691   2.214  23.441   8.406
    6AU     AUL 1692   2.409  23.281   8.638
    6AU       S 1693   2.844  23.112   8.671
    6AU     LIG 1694   2.783  23.296   9.039
    6AU     LIG 1695   2.861  23.202   9.477
    6AU       S 1696   1.696  23.253   8.683
    6AU     LIG 1697   1.773  23.546   9.035
    6AU     LIG 1698   1.699  23.638   9.495
    6AU    AUSL 1699   2.555  23.539   8.173
    6AU    AUSL 1700   2.978  23.721   8.147
    6AU     AUL 1701   2.783  23.551   8.473
    6AU       S 1702   2.394  23.799   8.629
    6AU     LIG 1703   2.732  23.792   8.918
    6AU     LIG 1704   2.937  23.709   9.317
    6AU       S 1705   3.116  23.875   8.363
    6AU     LIG 1706   3.530  23.937   8.531
    6AU     LIG 1707   3.909  24.181   8.658
    6AU    AUSL 1708   2.941  23.501   6.761
    6AU    AUSL 1709   2.823  23.945   6.840
    6AU     AUL 1710   2.968  23.784   6.516
    6AU       S 1711   2.853  23.376   6.311
    6AU     LIG 1712   3.202  23.472   6.034
    6AU     LIG 1713   3.258  23.207   5.646
    6AU       S 1714   3.176  24.064   6.816
    6AU     LIG 1715   3.019  24.282   6.476
    6AU     LIG 1716   3.142  24.479   6.083
    6AU    AUSL 1717   2.584  23.257   6.732
    6AU    AUSL 1718   2.907  23.169   7.049
    6AU     AUL 1719   3.014  23.190   6.699
    6AU       S 1720   2.978  22.412   6.656
    6AU     LIG 1721   3.399  22.378   6.434
    6AU     LIG 1722   3.689  22.176   6.117
    6AU       S 1723   2.677  23.053   6.377
    6AU     LIG 1724   2.627  22.820   5.936
    6AU     LIG 1725   2.846  22.881   5.516
    6AU    AUSL 1726   2.520  23.690   6.649
    6AU    AUSL 1727   2.217  23.085   6.605
    6AU     AUL 1728   2.392  23.412   6.422
    6AU       S 1729   2.020  23.119   6.292
    6AU     LIG 1730   2.129  22.907   5.885
    6AU     LIG 1731   1.968  22.897   5.447
    6AU       S 1732   2.919  23.097   6.224
    6AU     LIG 1733   2.761  23.296   5.820
    6AU     LIG 1734   2.854  23.409   5.377
    6AU    AUSL 1735   1.854  23.325   8.178
    6AU    AUSL 1736   2.093  23.758   8.141
    6AU     AUL 1737   1.949  23.631   8.450
    6AU       S 1738   1.591  23.328   8.404
    6AU     LIG 1739   1.313  23.532   8.777
    6AU     LIG 1740   1.326  23.368   9.237
    6AU       S 1741   1.676  23.999   8.303
    6AU     LIG 1742   1.516  24.210   8.658
    6AU     LIG 1743   1.320  24.473   9.008
    6AU    AUSL 1744   2.114  23.007   8.369
    6AU    AUSL 1745   1.704  22.931   8.048
    6AU     AUL 1746   1.786  22.913   8.329
    6AU       S 1747   1.546  22.525   8.152
    6AU     LIG 1748   1.113  22.406   8.292
    6AU     LIG 1749   0.824  22.249   8.643
    6AU       S 1750   1.921  23.183   8.675
    6AU     LIG 1751   2.008  23.093   9.098
    6AU     LIG 1752   1.750  23.122   9.476
    6AU    AUSL 1753   1.832  23.250   6.738
    6AU    AUSL 1754   2.099  22.953   7.003
    6AU     AUL 1755   1.955  22.861   6.684
    6AU       S 1756   1.657  23.166   6.459
    6AU     LIG 1757   1.343  23.279   6.118
    6AU     LIG 1758   1.289  23.279   5.631
    6AU       S 1759   1.490  22.705   6.665
    6AU     LIG 1760   1.442  22.267   6.501
    6AU     LIG 1761   1.297  21.911   6.208
    6AU    AUSL 1762   2.184  23.503   6.832
    6AU    AUSL 1763   1.729  23.631   6.912
    6AU     AUL 1764   1.935  23.533   6.551
    6AU       S 1765   1.561  23.766   6.724
    6AU     LIG 1766   1.229  24.040   6.601
    6AU     LIG 1767   1.067  24.353   6.308
    6AU       S 1768   1.751  22.986   6.241
    6AU     LIG 1769   1.771  23.260   5.844
    6AU     LIG 1770   1.770  23.414   5.402
    6AU    AUSL 1771   3.054  24.001   7.565
    6AU    AUSL 1772   3.041  23.707   7.132
    6AU     AUL 1773   3.201  24.094   7.282
    6AU       S 1774   3.298  23.755   6.949
    6AU     LIG 1775   3.438  23.678   6.505
    6AU     LIG 1776   3.442  24.063   6.252
    6AU       S 1777   3.546  23.941   8.014
    6AU     LIG 1778   3.883  24.206   7.794
    6AU     LIG 1779   4.217  24.068   7.502
    6AU    AUSL 1780   3.332  23.662   7.441
    6AU    AUSL 1781   3.324  23.255   7.680
    6AU     AUL 1782   3.623  23.444   7.550
    6AU       S 1783   3.497  23.875   7.686
    6AU     LIG 1784   3.784  23.864   7.337
    6AU     LIG 1785   4.172  23.585   7.318
    6AU       S 1786   3.563  22.965   7.532
    6AU     LIG 1787   3.941  22.815   7.749
    6AU     LIG 1788   4.419  22.873   7.652
    6AU    AUSL 1789   3.045  23.581   7.752
    6AU    AUSL 1790   2.721  23.897   7.819
    6AU     AUL 1791   3.080  23.988   7.900
    6AU       S 1792   3.114  24.193   8.347
    6AU     LIG 1793   3.560  24.414   8.282
    6AU     LIG 1794   3.836  24.841   8.336
    6AU       S 1795   3.413  23.649   7.940
    6AU     LIG 1796   3.943  23.695   7.848
    6AU     LIG 1797   4.299  23.982   8.021
    6AU    AUSL 1798   1.713  23.881   7.536
    6AU    AUSL 1799   1.696  23.669   7.959
    6AU     AUL 1800   1.434  24.018   7.792
    6AU       S 1801   1.569  23.745   8.155
    6AU     LIG 1802   1.172  23.997   8.265
    6AU     LIG 1803   1.025  24.328   8.588
    6AU       S 1804   1.666  24.301   7.494
    6AU     LIG 1805   1.227  24.239   7.356
    6AU     LIG 1806   1.005  24.332   6.965
    6AU    AUSL 1807   1.632  23.507   7.304
    6AU    AUSL 1808   1.763  24.018   7.132
    6AU     AUL 1809   1.481  23.840   7.202
    6AU       S 1810   1.326  23.387   6.940
    6AU     LIG 1811   1.037  23.782   7.017
    6AU     LIG 1812   0.701  24.021   7.250
    6AU       S 1813   1.588  24.222   6.906
    6AU     LIG 1814   1.355  24.590   6.678
    6AU     LIG 1815   1.030  24.863   6.431
    6AU    AUSL 1816   1.392  23.581   7.664
    6AU    AUSL 1817   1.392  23.164   7.409
    6AU     AUL 1818   1.234  23.473   7.387
    6AU       S 1819   1.174  23.110   7.700
    6AU     LIG 1820   0.847  22.978   7.396
    6AU     LIG 1821   0.408  22.768   7.297
    6AU       S 1822   1.160  23.632   7.853
    6AU     LIG 1823   0.924  23.989   7.719
    6AU     LIG 1824   0.494  24.170   7.720
    6AU    AUSL 1825   3.057  22.982   7.453
    6AU    AUSL 1826   2.943  23.135   7.852
    6AU     AUL 1827   3.262  23.005   7.885
    6AU       S 1828   3.370  22.803   7.461
    6AU     LIG 1829   3.690  22.458   7.460
    6AU     LIG 1830   4.007  22.140   7.318
    6AU       S 1831   3.468  22.554   7.920
    6AU     LIG 1832   3.750  22.325   8.227
    6AU     LIG 1833   3.880  22.138   8.650
    6AU    AUSL 1834   3.279  23.291   7.219
    6AU    AUSL 1835   2.999  22.717   7.120
    6AU     AUL 1836   3.225  22.973   7.056
    6AU       S 1837   3.609  23.035   7.304
    6AU     LIG 1838   4.050  22.848   7.254
    6AU     LIG 1839   4.513  22.938   7.121
    6AU       S 1840   3.117  22.554   6.860
    6AU     LIG 1841   3.360  22.134   6.881
    6AU     LIG 1842   3.500  21.860   6.507
    6AU    AUSL 1843   1.771  22.934   7.498
    6AU    AUSL 1844   1.665  23.071   7.086
    6AU     AUL 1845   1.402  22.858   7.320
    6AU       S 1846   1.506  22.919   6.870
    6AU     LIG 1847   1.077  22.747   6.941
    6AU     LIG 1848   0.948  22.423   6.635
    6AU       S 1849   1.183  23.004   8.024
    6AU     LIG 1850   1.084  22.598   7.756
    6AU     LIG 1851   0.869  22.477   7.340
    6AU    AUSL 1852   1.628  23.244   7.774
    6AU    AUSL 1853   1.829  22.611   7.764
    6AU     AUL 1854   1.535  22.805   7.769
    6AU       S 1855   1.671  22.353   7.861
    6AU     LIG 1856   1.252  22.078   7.934
    6AU     LIG 1857   0.920  21.914   8.267
    6AU       S 1858   1.293  23.183   7.921
    6AU     LIG 1859   0.728  23.104   7.881
    6AU     LIG 1860   0.578  22.671   7.767
    6AU    AUSL 1861   2.328  24.081   7.963
    6AU    AUSL 1862   1.891  24.060   7.890
    6AU     AUL 1863   2.134  24.090   8.254
    6AU       S 1864   1.774  24.260   8.009
    6AU     LIG 1865   1.389  24.452   8.175
    6AU     LIG 1866   1.384  24.709   8.550
    6AU       S 1867   2.290  24.483   8.015
    6AU     LIG 1868   2.593  24.750   8.256
    6AU     LIG 1869   2.609  25.173   8.466
    6AU    AUSL 1870   2.137  24.286   7.616
    6AU    AUSL 1871   2.466  24.328   7.272
    6AU     AUL 1872   2.169  24.541   7.386
    6AU       S 1873   2.329  24.735   7.826
    6AU     LIG 1874   2.402  25.189   7.988
    6AU     LIG 1875   2.246  25.642   8.008
    6AU       S 1876   2.415  24.543   6.968
    6AU     LIG 1877   2.541  24.949   7.153
    6AU     LIG 1878   2.741  25.373   7.046
    6AU    AUSL 1879   2.606  24.280   7.676
    6AU    AUSL 1880   2.613  23.953   8.256
    6AU     AUL 1881   2.688  24.225   8.042
    6AU       S 1882   2.830  24.047   8.477
    6AU     LIG 1883   3.137  24.098   8.835
    6AU     LIG 1884   3.469  24.418   8.794
    6AU       S 1885   2.542  24.556   7.728
    6AU     LIG 1886   2.828  24.926   7.828
    6AU     LIG 1887   2.980  25.264   8.118
    6AU    AUSL 1888   2.410  22.641   8.143
    6AU    AUSL 1889   2.975  22.651   7.720
    6AU     AUL 1890   2.736  22.456   8.029
    6AU       S 1891   2.269  22.116   8.135
    6AU     LIG 1892   2.016  21.741   8.236
    6AU     LIG 1893   2.075  21.294   8.396
    6AU       S 1894   3.177  22.504   7.806
    6AU     LIG 1895   3.353  22.063   7.962
    6AU     LIG 1896   3.542  21.866   8.351
    6AU    AUSL 1897   2.232  22.470   7.770
    6AU    AUSL 1898   2.135  22.901   7.954
    6AU     AUL 1899   2.050  22.564   8.107
    6AU       S 1900   2.162  22.177   7.864
    6AU     LIG 1901   1.858  21.833   7.762
    6AU     LIG 1902   1.871  21.363   7.907
    6AU       S 1903   1.693  22.228   8.126
    6AU     LIG 1904   1.458  21.917   8.371
    6AU     LIG 1905   1.169  21.846   8.723
    6AU    AUSL 1906   2.564  22.738   7.697
    6AU    AUSL 1907   2.196  22.609   7.364
    6AU     AUL 1908   2.509  22.378   7.563
    6AU       S 1909   2.038  22.248   7.388
    6AU     LIG 1910   1.815  21.800   7.237
    6AU     LIG 1911   1.918  21.358   7.022
    6AU       S 1912   2.418  22.021   7.911
    6AU     LIG 1913   2.317  21.592   7.797
    6AU     LIG 1914   2.330  21.159   7.973
    6AU    AUSL 1915   2.420  24.041   6.949
    6AU    AUSL 1916   2.731  23.983   7.285
    6AU     AUL 1917   2.779  24.256   7.054
    6AU       S 1918   2.438  24.253   6.717
    6AU     LIG 1919   2.716  24.670   6.601
    6AU     LIG 1920   2.547  25.108   6.649
    6AU       S 1921   3.473  24.003   6.878
    6AU     LIG 1922   3.495  24.422   6.643
    6AU     LIG 1923   3.527  24.843   6.430
    6AU    AUSL 1924   2.154  24.006   7.299
    6AU    AUSL 1925   2.046  23.915   6.800
    6AU     AUL 1926   2.051  24.232   7.016
    6AU       S 1927   2.253  24.524   6.688
    6AU     LIG 1928   2.093  24.928   6.884
    6AU     LIG 1929   2.229  25.358   7.002
    6AU       S 1930   1.796  24.030   6.643
    6AU     LIG 1931   1.597  24.289   6.332
    6AU     LIG 1932   1.437  24.692   6.147
    6AU    AUSL 1933   2.342  22.607   6.938
    6AU    AUSL 1934   1.809  22.651   7.173
    6AU     AUL 1935   2.055  22.511   6.994
    6AU       S 1936   1.584  22.609   6.940
    6AU     LIG 1937   1.280  22.250   6.993
    6AU     LIG 1938   1.084  21.908   6.695
    6AU       S 1939   2.283  22.126   7.196
    6AU     LIG 1940   2.162  21.826   6.859
    6AU     LIG 1941   2.059  21.492   6.545
    6AU    AUSL 1942   2.605  22.743   7.274
    6AU    AUSL 1943   2.680  22.851   6.832
    6AU     AUL 1944   2.675  22.486   7.045
    6AU       S 1945   2.230  21.989   7.419
    6AU     LIG 1946   2.325  21.574   7.274
    6AU     LIG 1947   2.435  21.343   6.887
    6AU       S 1948   2.880  22.709   6.651
    6AU     LIG 1949   2.999  22.584   6.192
    6AU     LIG 1950   3.177  22.177   5.998
    7AU     AUC 1951  43.538  36.771   7.496
    7AU     AUC 1952  43.837  36.813   7.330
    7AU     AUC 1953  43.806  36.786   7.664
    7AU     AUC 1954  43.260  36.756   7.329
    7AU     AUC 1955  43.253  36.755   7.679
    7AU     AUC 1956  43.350  37.012   7.517
    7AU     AUC 1957  43.684  37.042   7.500
    7AU     AUC 1958  43.386  36.493   7.498
    7AU     AUC 1959  43.738  36.539   7.485
    7AU     AUC 1960  43.574  36.602   7.765
    7AU     AUC 1961  43.519  36.923   7.770
    7AU     AUC 1962  43.565  36.622   7.221
    7AU     AUC 1963  43.559  36.955   7.232
    7AU     AUC 1964  44.153  36.844   7.179
    7AU     AUC 1965  44.188  36.831   7.498
    7AU     AUC 1966  44.118  36.785   7.862
    7AU     AUC 1967  42.956  36.733   7.149
    7AU     AUC 1968  42.911  36.784   7.521
    7AU     AUC 1969  42.966  36.742   7.852
    7AU     AUC 1970  43.178  37.315   7.507
    7AU     AUC 1971  43.511  37.384   7.499
    7AU     AUC 1972  43.831  37.365   7.518
    7AU     AUC 1973  43.205  36.174   7.496
    7AU     AUC 1974  43.553  36.212   7.494
    7AU     AUC 1975  43.942  36.254   7.454
    7AU     AUC 1976  43.582  36.373   8.054
    7AU     AUC 1977  43.539  36.693   8.098
    7AU     AUC 1978  43.539  37.069   8.067
    7AU     AUC 1979  43.562  36.425   6.928
    7AU     AUC 1980  43.561  36.772   6.911
    7AU     AUC 1981  43.578  37.130   6.933
    7AU     AUC 1982  43.871  36.537   7.962
    7AU     AUC 1983  43.842  36.904   8.014
    7AU     AUC 1984  43.852  36.637   7.012
    7AU     AUC 1985  43.880  37.004   7.007
    7AU     AUC 1986  43.246  36.536   7.978
    7AU     AUC 1987  43.245  36.893   7.988
    7AU     AUC 1988  43.219  36.552   7.045
    7AU     AUC 1989  43.230  36.928   7.015
    7AU     AUC 1990  44.042  37.111   7.351
    7AU     AUC 1991  43.983  37.068   7.710
    7AU     AUC 1992  43.063  37.033   7.302
    7AU     AUC 1993  43.039  37.063   7.700
    7AU     AUC 1994  44.054  36.536   7.298
    7AU     AUC 1995  44.060  36.498   7.627
    7AU     AUC 1996  43.023  36.472   7.346
    7AU     AUC 1997  43.052  36.476   7.667
    7AU     AUC 1998  43.341  37.245   7.796
    7AU     AUC 1999  43.676  37.248   7.809
    7AU     AUC 2000  43.349  36.265   7.773
    7AU     AUC 2001  43.765  36.272   7.792
    7AU     AUC 2002  43.347  37.211   7.175
    7AU     AUC 2003  43.742  37.258   7.181
    7AU     AUC 2004  43.349  36.293   7.217
    7AU     AUC 2005  43.734  36.317   7.167
    7AU    AUSL 2006  44.130  36.680   8.237
    7AU    AUSL 2007  43.992  36.197   8.089
    7AU     AUL 2008  44.229  36.299   8.286
    7AU       S 2009  44.391  35.907   8.096
    7AU     LIG 2010  44.375  35.672   8.482
    7AU     LIG 2011  44.454  35.321   8.794
    7AU       S 2012  44.388  36.725   8.384
    7AU     LIG 2013  44.370  36.894   8.791
    7AU     LIG 2014  44.473  36.645   9.164
    7AU    AUSL 2015  43.728  36.489   8.290
    7AU    AUSL 2016  43.404  36.816   8.402
    7AU     AUL 2017  43.600  36.656   8.630
    7AU       S 2018  44.036  36.488   8.656
    7AU     LIG 2019  43.954  36.663   9.026
    7AU     LIG 2020  44.046  36.555   9.457
    7AU       S 2021  42.870  36.634   8.678
    7AU     LIG 2022  43.072  36.984   8.948
    7AU     LIG 2023  43.031  37.050   9.410
    7AU    AUSL 2024  43.742  36.921   8.168
    7AU    AUSL 2025  44.164  37.106   8.139
    7AU     AUL 2026  43.975  36.931   8.465
    7AU       S 2027  43.590  37.171   8.630
    7AU     LIG 2028  43.949  37.170   8.913
    7AU     LIG 2029  44.181  37.048   9.290
    7AU       S 2030  44.307  37.256   8.354
    7AU     LIG 2031  44.746  37.371   8.321
    7AU     LIG 2032   0.029  37.540   8.643
    7AU    AUSL 2033  44.124  36.896   6.760
    7AU    AUSL 2034  44.006  37.342   6.837
    7AU     AUL 2035  44.161  37.181   6.525
    7AU       S 2036  44.040  36.782   6.300
    7AU     LIG 2037  44.376  36.833   5.990
    7AU     LIG 2038  44.413  36.548   5.624
    7AU       S 2039  44.371  37.474   6.817
    7AU     LIG 2040  44.401  37.728   6.458
    7AU     LIG 2041  44.534  37.909   6.041
    7AU    AUSL 2042  43.768  36.649   6.724
    7AU    AUSL 2043  44.089  36.558   7.041
    7AU     AUL 2044  44.195  36.589   6.687
    7AU       S 2045  44.169  35.810   6.657
    7AU     LIG 2046  44.605  35.875   6.476
    7AU     LIG 2047  44.925  35.724   6.175
    7AU       S 2048  43.857  36.442   6.371
    7AU     LIG 2049  43.793  36.189   5.950
    7AU     LIG 2050  43.993  36.225   5.518
    7AU    AUSL 2051  43.705  37.084   6.646
    7AU    AUSL 2052  43.401  36.476   6.600
    7AU     AUL 2053  43.581  36.808   6.416
    7AU       S 2054  43.222  36.510   6.287
    7AU     LIG 2055  43.327  36.381   5.846
    7AU     LIG 2056  43.041  36.364   5.470
    7AU       S 2057  44.076  36.500   6.218
    7AU     LIG 2058  43.915  36.663   5.813
    7AU     LIG 2059  44.004  36.744   5.365
    7AU    AUSL 2060  43.044  36.701   8.172
    7AU    AUSL 2061  43.281  37.135   8.141
    7AU     AUL 2062  43.147  37.002   8.451
    7AU       S 2063  42.793  36.702   8.383
    7AU     LIG 2064  42.634  37.061   8.683
    7AU     LIG 2065  42.603  36.893   9.137
    7AU       S 2066  42.866  37.364   8.317
    7AU     LIG 2067  42.757  37.599   8.670
    7AU     LIG 2068  42.527  37.814   9.019
    7AU    AUSL 2069  43.307  36.382   8.359
    7AU    AUSL 2070  42.894  36.307   8.042
    7AU     AUL 2071  42.982  36.283   8.324
    7AU       S 2072  42.747  35.898   8.134
    7AU     LIG 2073  42.274  35.871   8.153
    7AU     LIG 2074  41.985  35.637   8.445
    7AU       S 2075  43.110  36.556   8.670
    7AU     LIG 2076  43.173  36.515   9.115
    7AU     LIG 2077  42.953  36.543   9.519
    7AU    AUSL 2078  43.014  36.642   6.727
    7AU    AUSL 2079  43.276  36.351   6.998
    7AU     AUL 2080  43.127  36.260   6.676
    7AU       S 2081  42.841  36.563   6.437
    7AU     LIG 2082  42.532  36.608   6.064
    7AU     LIG 2083  42.564  36.592   5.580
    7AU       S 2084  42.656  36.136   6.671
    7AU     LIG 2085  42.651  35.703   6.538
    7AU     LIG 2086  42.509  35.403   6.211
    7AU    AUSL 2087  43.367  36.894   6.824
    7AU    AUSL 2088  42.911  37.021   6.904
    7AU     AUL 2089  43.122  36.925   6.542
    7AU       S 2090  42.747  37.151   6.715
    7AU     LIG 2091  42.419  37.423   6.578
    7AU     LIG 2092  42.298  37.697   6.219
    7AU       S 2093  42.966  36.401   6.221
    7AU     LIG 2094  42.983  36.747   5.881
    7AU     LIG 2095  42.972  36.884   5.428
    7AU    AUSL 2096  44.234  37.391   7.559
    7AU    AUSL 2097  44.225  37.106   7.128
    7AU     AUL 2098  44.375  37.492   7.284
    7AU       S 2099  44.478  37.159   6.941
    7AU     LIG 2100  44.649  37.209   6.468
    7AU     LIG 2101  44.864  37.575   6.280
    7AU       S 2102  44.741  37.400   7.791
    7AU     LIG 2103  44.856  37.632   7.342
    7AU     LIG 2104   0.240  37.574   7.080
    7AU    AUSL 2105  44.519  37.054   7.433
    7AU    AUSL 2106  44.507  36.646   7.670
    7AU     AUL 2107  44.815  36.815   7.569
    7AU       S 2108  44.679  37.251   7.610
    7AU     LIG 2109  44.989  37.139   7.252
    7AU     LIG 2110   0.454  37.111   7.226
    7AU       S 2111  44.741  36.346   7.505
    7AU     LIG 2112   0.128  36.173   7.674
    7AU     LIG 2113   0.457  36.001   7.958
    7AU    AUSL 2114  44.229  36.971   7.742
    7AU    AUSL 2115  43.904  37.286   7.815
    7AU     AUL 2116  44.265  37.379   7.891
    7AU       S 2117  44.256  37.573   8.337
    7AU     LIG 2118  44.583  37.839   8.199
    7AU     LIG 2119  44.735  38.267   8.237
    7AU       S 2120  44.601  37.061   7.919
    7AU     LIG 2121   0.093  37.059   7.928
    7AU     LIG 2122   0.556  37.044   7.737
    7AU    AUSL 2123  42.892  37.281   7.541
    7AU    AUSL 2124  42.885  37.048   7.959
    7AU     AUL 2125  42.615  37.403   7.814
    7AU       S 2126  42.774  37.128   8.161
    7AU     LIG 2127  42.367  37.275   8.295
    7AU     LIG 2128  42.253  37.496   8.678
    7AU       S 2129  42.836  37.676   7.498
    7AU     LIG 2130  42.375  37.571   7.398
    7AU     LIG 2131  41.911  37.629   7.386
    7AU    AUSL 2132  42.816  36.913   7.301
    7AU    AUSL 2133  42.947  37.404   7.131
    7AU     AUL 2134  42.666  37.238   7.191
    7AU       S 2135  42.498  36.792   6.944
    7AU     LIG 2136  42.185  37.187   7.038
    7AU     LIG 2137  41.744  37.405   6.957
    7AU       S 2138  42.778  37.607   6.892
    7AU     LIG 2139  42.595  37.924   6.594
    7AU     LIG 2140  42.317  38.208   6.331
    7AU    AUSL 2141  42.578  36.973   7.665
    7AU    AUSL 2142  42.574  36.571   7.401
    7AU     AUL 2143  42.413  36.891   7.387
    7AU       S 2144  42.335  36.513   7.656
    7AU     LIG 2145  42.128  36.483   7.220
    7AU     LIG 2146  41.759  36.255   7.135
    7AU       S 2147  42.384  36.990   7.869
    7AU     LIG 2148  42.089  37.225   7.674
    7AU     LIG 2149  41.733  37.475   7.839
    7AU    AUSL 2150  44.241  36.376   7.440
    7AU    AUSL 2151  44.126  36.524   7.840
    7AU     AUL 2152  44.449  36.400   7.867
    7AU       S 2153  44.558  36.196   7.441
    7AU     LIG 2154  44.815  35.793   7.494
    7AU     LIG 2155   0.238  35.642   7.648
    7AU       S 2156  44.649  35.969   7.930
    7AU     LIG 2157  44.855  35.770   8.284
    7AU     LIG 2158  44.902  35.544   8.694
    7AU    AUSL 2159  44.461  36.686   7.207
    7AU    AUSL 2160  44.175  36.100   7.119
    7AU     AUL 2161  44.396  36.358   7.039
    7AU       S 2162  44.777  36.455   7.272
    7AU     LIG 2163   0.045  36.111   7.160
    7AU     LIG 2164   0.462  35.994   7.306
    7AU       S 2165  44.295  35.925   6.881
    7AU     LIG 2166  44.577  35.550   6.865
    7AU     LIG 2167  44.743  35.324   6.483
    7AU    AUSL 2168  42.947  36.334   7.494
    7AU    AUSL 2169  42.846  36.472   7.079
    7AU     AUL 2170  42.583  36.258   7.317
    7AU       S 2171  42.674  36.325   6.866
    7AU     LIG 2172  42.242  36.080   6.937
    7AU     LIG 2173  42.127  35.748   6.633
    7AU       S 2174  42.253  36.342   7.708
    7AU     LIG 2175  42.098  36.010   7.484
    7AU     LIG 2176  41.875  35.717   7.748
    7AU    AUSL 2177  42.789  36.623   7.785
    7AU    AUSL 2178  43.016  36.000   7.743
    7AU     AUL 2179  42.709  36.196   7.769
    7AU       S 2180  42.879  35.747   7.818
    7AU     LIG 2181  42.445  35.511   7.832
    7AU     LIG 2182  42.202  35.261   8.154
    7AU       S 2183  42.408  36.524   7.899
    7AU     LIG 2184  41.877  36.443   7.980
    7AU     LIG 2185  41.555  36.284   7.645
    7AU    AUSL 2186  43.510  37.463   7.965
    7AU    AUSL 2187  43.073  37.443   7.902
    7AU     AUL 2188  43.321  37.463   8.265
    7AU       S 2189  42.963  37.641   8.024
    7AU     LIG 2190  42.555  37.748   8.204
    7AU     LIG 2191  42.378  37.988   8.552
    7AU       S 2192  43.462  37.855   8.027
    7AU     LIG 2193  43.675  38.205   8.278
    7AU     LIG 2194  43.684  38.673   8.374
    7AU    AUSL 2195  43.311  37.664   7.619
    7AU    AUSL 2196  43.646  37.720   7.273
    7AU     AUL 2197  43.340  37.920   7.390
    7AU       S 2198  43.457  38.077   7.849
    7AU     LIG 2199  43.351  38.495   7.958
    7AU     LIG 2200  43.398  38.919   8.028
    7AU       S 2201  43.602  37.946   6.983
    7AU     LIG 2202  43.810  38.362   7.125
    7AU     LIG 2203  44.000  38.796   6.991
    7AU    AUSL 2204  43.782  37.668   7.678
    7AU    AUSL 2205  43.799  37.334   8.254
    7AU     AUL 2206  43.867  37.609   8.040
    7AU       S 2207  44.038  37.430   8.483
    7AU     LIG 2208  44.484  37.578   8.753
    7AU     LIG 2209  44.770  37.977   8.687
    7AU       S 2210  43.703  37.949   7.743
    7AU     LIG 2211  43.845  38.415   7.824
    7AU     LIG 2212  43.973  38.846   7.978
    7AU    AUSL 2213  43.599  36.025   8.129
    7AU    AUSL 2214  44.162  36.041   7.701
    7AU     AUL 2215  43.924  35.839   8.008
    7AU       S 2216  43.512  35.506   8.101
    7AU     LIG 2217  43.285  35.111   8.165
    7AU     LIG 2218  43.316  34.655   8.195
    7AU       S 2219  44.368  35.898   7.786
    7AU     LIG 2220  44.617  35.477   7.898
    7AU     LIG 2221  44.671  35.284   8.310
    7AU    AUSL 2222  43.420  35.857   7.754
    7AU    AUSL 2223  43.323  36.284   7.942
    7AU     AUL 2224  43.243  35.940   8.088
    7AU       S 2225  43.370  35.561   7.842
    7AU     LIG 2226  43.067  35.250   7.731
    7AU     LIG 2227  43.027  34.796   7.789
    7AU       S 2228  42.874  35.607   8.090
    7AU     LIG 2229  42.544  35.524   8.432
    7AU     LIG 2230  42.262  35.253   8.711
    7AU    AUSL 2231  43.750  36.126   7.682
    7AU    AUSL 2232  43.375  35.997   7.350
    7AU     AUL 2233  43.696  35.768   7.541
    7AU       S 2234  43.222  35.652   7.374
    7AU     LIG 2235  42.949  35.291   7.237
    7AU     LIG 2236  43.165  34.872   7.290
    7AU       S 2237  43.606  35.373   7.852
    7AU     LIG 2238  43.516  34.911   7.728
    7AU     LIG 2239  43.550  34.421   7.805
    7AU    AUSL 2240  43.602  37.439   6.943
    7AU    AUSL 2241  43.908  37.374   7.281
    7AU     AUL 2242  43.960  37.650   7.053
    7AU       S 2243  43.617  37.642   6.719
    7AU     LIG 2244  43.957  37.978   6.629
    7AU     LIG 2245  43.832  38.439   6.617
    7AU       S 2246  44.677  37.361   6.929
    7AU     LIG 2247  44.820  37.763   6.794
    7AU     LIG 2248  44.826  38.078   6.448
    7AU    AUSL 2249  43.339  37.394   7.295
    7AU    AUSL 2250  43.229  37.306   6.797
    7AU     AUL 2251  43.235  37.624   7.011
    7AU       S 2252  43.467  37.939   6.714
    7AU     LIG 2253  43.363  38.380   6.864
    7AU     LIG 2254  43.490  38.807   7.011
    7AU       S 2255  42.982  37.420   6.638
    7AU     LIG 2256  42.815  37.607   6.259
    7AU     LIG 2257  42.682  37.996   6.015
    7AU    AUSL 2258  43.519  36.006   6.921
    7AU    AUSL 2259  42.985  36.051   7.167
    7AU     AUL 2260  43.228  35.909   6.980
    7AU       S 2261  42.755  36.006   6.940
    7AU     LIG 2262  42.445  35.617   7.019
    7AU     LIG 2263  42.047  35.312   6.902
    7AU       S 2264  43.459  35.526   7.177
    7AU     LIG 2265  43.335  35.189   6.899
    7AU     LIG 2266  43.439  34.732   6.856
    7AU    AUSL 2267  43.779  36.142   7.259
    7AU    AUSL 2268  43.865  36.242   6.821
    7AU     AUL 2269  43.844  35.878   7.034
    7AU       S 2270  43.418  35.370   7.381
    7AU     LIG 2271  43.675  34.997   7.241
    7AU     LIG 2272  43.972  34.684   7.008
    7AU       S 2273  44.070  36.106   6.651
    7AU     LIG 2274  44.196  36.005   6.202
    7AU     LIG 2275  44.424  35.626   6.049
    8AU     AUC 2276  27.079  15.013   7.500
    8AU     AUC 2277  27.376  15.056   7.337
    8AU     AUC 2278  27.345  15.028   7.671
    8AU     AUC 2279  26.804  14.994   7.331
    8AU     AUC 2280  26.793  14.998   7.680
    8AU     AUC 2281  26.892  15.256   7.518
    8AU     AUC 2282  27.225  15.285   7.504
    8AU     AUC 2283  26.926  14.735   7.505
    8AU     AUC 2284  27.277  14.781   7.489
    8AU     AUC 2285  27.110  14.847   7.771
    8AU     AUC 2286  27.057  15.168   7.774
    8AU     AUC 2287  27.107  14.862   7.226
    8AU     AUC 2288  27.101  15.198   7.237
    8AU     AUC 2289  27.690  15.086   7.185
    8AU     AUC 2290  27.726  15.072   7.508
    8AU     AUC 2291  27.654  15.026   7.872
    8AU     AUC 2292  26.501  14.967   7.149
    8AU     AUC 2293  26.455  15.021   7.518
    8AU     AUC 2294  26.503  14.989   7.850
    8AU     AUC 2295  26.720  15.559   7.505
    8AU     AUC 2296  27.053  15.628   7.501
    8AU     AUC 2297  27.373  15.607   7.524
    8AU     AUC 2298  26.748  14.413   7.507
    8AU     AUC 2299  27.096  14.454   7.505
    8AU     AUC 2300  27.481  14.498   7.462
    8AU     AUC 2301  27.115  14.622   8.064
    8AU     AUC 2302  27.071  14.942   8.104
    8AU     AUC 2303  27.073  15.316   8.070
    8AU     AUC 2304  27.105  14.664   6.937
    8AU     AUC 2305  27.104  15.013   6.914
    8AU     AUC 2306  27.121  15.372   6.938
    8AU     AUC 2307  27.407  14.782   7.971
    8AU     AUC 2308  27.378  15.148   8.021
    8AU     AUC 2309  27.390  14.882   7.015
    8AU     AUC 2310  27.419  15.248   7.012
    8AU     AUC 2311  26.780  14.784   7.983
    8AU     AUC 2312  26.778  15.140   7.988
    8AU     AUC 2313  26.763  14.787   7.049
    8AU     AUC 2314  26.773  15.167   7.017
    8AU     AUC 2315  27.582  15.352   7.361
    8AU     AUC 2316  27.522  15.310   7.718
    8AU     AUC 2317  26.607  15.273   7.299
    8AU     AUC 2318  26.578  15.306   7.696
    8AU     AUC 2319  27.592  14.780   7.302
    8AU     AUC 2320  27.596  14.741   7.636
    8AU     AUC 2321  26.569  14.705   7.348
    8AU     AUC 2322  26.590  14.716   7.669
    8AU     AUC 2323  26.879  15.490   7.795
    8AU     AUC 2324  27.215  15.493   7.813
    8AU     AUC 2325  26.884  14.511   7.783
    8AU     AUC 2326  27.301  14.518   7.804
    8AU     AUC 2327  26.890  15.454   7.177
    8AU     AUC 2328  27.283  15.503   7.188
    8AU     AUC 2329  26.899  14.529   7.226
    8AU     AUC 2330  27.278  14.557   7.176
    8AU    AUSL 2331  27.661  14.921   8.249
    8AU    AUSL 2332  27.531  14.446   8.106
    8AU     AUL 2333  27.802  14.536   8.304
    8AU       S 2334  27.928  14.149   8.096
    8AU     LIG 2335  27.798  13.892   8.408
    8AU     LIG 2336  27.950  13.748   8.815
    8AU       S 2337  27.902  14.971   8.380
    8AU     LIG 2338  27.915  15.146   8.778
    8AU     LIG 2339  28.018  14.897   9.154
    8AU    AUSL 2340  27.251  14.737   8.293
    8AU    AUSL 2341  26.930  15.068   8.404
    8AU     AUL 2342  27.102  14.930   8.647
    8AU       S 2343  27.456  14.654   8.570
    8AU     LIG 2344  27.523  14.859   8.955
    8AU     LIG 2345  27.581  14.728   9.400
    8AU       S 2346  26.409  14.881   8.661
    8AU     LIG 2347  26.489  15.206   8.968
    8AU     LIG 2348  26.488  15.132   9.432
    8AU    AUSL 2349  27.274  15.167   8.174
    8AU    AUSL 2350  27.696  15.346   8.149
    8AU     AUL 2351  27.493  15.166   8.477
    8AU       S 2352  27.109  15.430   8.629
    8AU     LIG 2353  27.459  15.382   8.917
    8AU     LIG 2354  27.668  15.242   9.289
    8AU       S 2355  27.828  15.487   8.362
    8AU     LIG 2356  28.270  15.496   8.438
    8AU     LIG 2357  28.677  15.768   8.435
    8AU    AUSL 2358  27.667  15.142   6.757
    8AU    AUSL 2359  27.548  15.583   6.844
    8AU     AUL 2360  27.688  15.435   6.517
    8AU       S 2361  27.580  15.025   6.306
    8AU     LIG 2362  27.940  15.114   6.045
    8AU     LIG 2363  28.014  14.862   5.653
    8AU       S 2364  27.924  15.682   6.827
    8AU     LIG 2365  27.844  15.932   6.493
    8AU     LIG 2366  27.920  16.097   6.067
    8AU    AUSL 2367  27.312  14.898   6.717
    8AU    AUSL 2368  27.626  14.808   7.042
    8AU     AUL 2369  27.733  14.823   6.691
    8AU       S 2370  27.677  14.069   6.636
    8AU     LIG 2371  28.116  14.125   6.437
    8AU     LIG 2372  28.435  13.960   6.144
    8AU       S 2373  27.398  14.698   6.367
    8AU     LIG 2374  27.317  14.472   5.947
    8AU     LIG 2375  27.643  14.448   5.616
    8AU    AUSL 2376  27.242  15.332   6.653
    8AU    AUSL 2377  26.945  14.717   6.605
    8AU     AUL 2378  27.118  15.058   6.418
    8AU       S 2379  26.760  14.752   6.294
    8AU     LIG 2380  26.858  14.664   5.857
    8AU     LIG 2381  26.565  14.589   5.511
    8AU       S 2382  27.635  14.748   6.214
    8AU     LIG 2383  27.512  14.924   5.801
    8AU     LIG 2384  27.583  14.893   5.334
    8AU    AUSL 2385  26.574  14.951   8.170
    8AU    AUSL 2386  26.811  15.384   8.138
    8AU     AUL 2387  26.668  15.254   8.448
    8AU       S 2388  26.309  14.954   8.383
    8AU     LIG 2389  26.010  15.131   8.744
    8AU     LIG 2390  26.143  14.856   9.119
    8AU       S 2391  26.390  15.618   8.306
    8AU     LIG 2392  26.135  15.763   8.651
    8AU     LIG 2393  25.889  16.084   8.883
    8AU    AUSL 2394  26.832  14.634   8.369
    8AU    AUSL 2395  26.426  14.556   8.043
    8AU     AUL 2396  26.507  14.536   8.323
    8AU       S 2397  26.293  14.137   8.142
    8AU     LIG 2398  25.872  14.055   8.264
    8AU     LIG 2399  25.780  13.993   8.700
    8AU       S 2400  26.628  14.808   8.673
    8AU     LIG 2401  26.658  14.735   9.125
    8AU     LIG 2402  26.472  14.609   9.542
    8AU    AUSL 2403  26.558  14.879   6.734
    8AU    AUSL 2404  26.825  14.582   7.001
    8AU     AUL 2405  26.680  14.492   6.681
    8AU       S 2406  26.382  14.794   6.455
    8AU     LIG 2407  26.042  14.825   6.107
    8AU     LIG 2408  26.053  14.796   5.621
    8AU       S 2409  26.232  14.287   6.650
    8AU     LIG 2410  26.127  13.841   6.449
    8AU     LIG 2411  25.802  13.501   6.286
    8AU    AUSL 2412  26.910  15.131   6.831
    8AU    AUSL 2413  26.454  15.263   6.902
    8AU     AUL 2414  26.661  15.163   6.547
    8AU       S 2415  26.286  15.394   6.713
    8AU     LIG 2416  25.926  15.629   6.605
    8AU     LIG 2417  25.730  15.918   6.310
    8AU       S 2418  26.499  14.640   6.232
    8AU     LIG 2419  26.473  14.982   5.889
    8AU     LIG 2420  26.446  15.088   5.419
    8AU    AUSL 2421  27.776  15.631   7.568
    8AU    AUSL 2422  27.760  15.339   7.135
    8AU     AUL 2423  27.921  15.728   7.289
    8AU       S 2424  28.019  15.385   6.954
    8AU     LIG 2425  28.171  15.371   6.494
    8AU     LIG 2426  28.277  15.755   6.265
    8AU       S 2427  28.289  15.569   7.933
    8AU     LIG 2428  28.643  15.805   7.710
    8AU     LIG 2429  28.767  15.904   7.256
    8AU    AUSL 2430  28.056  15.294   7.441
    8AU    AUSL 2431  28.044  14.883   7.673
    8AU     AUL 2432  28.344  15.063   7.555
    8AU       S 2433  28.222  15.497   7.664
    8AU     LIG 2434  28.549  15.452   7.339
    8AU     LIG 2435  28.980  15.437   7.147
    8AU       S 2436  28.265  14.592   7.505
    8AU     LIG 2437  28.583  14.494   7.789
    8AU     LIG 2438  29.058  14.440   7.736
    8AU    AUSL 2439  27.770  15.211   7.754
    8AU    AUSL 2440  27.443  15.528   7.821
    8AU     AUL 2441  27.807  15.616   7.903
    8AU       S 2442  27.820  15.803   8.361
    8AU     LIG 2443  28.244  15.981   8.240
    8AU     LIG 2444  28.641  16.263   8.271
    8AU       S 2445  28.128  15.271   7.944
    8AU     LIG 2446  28.626  15.220   7.937
    8AU     LIG 2447  28.954  15.384   7.664
    8AU    AUSL 2448  26.437  15.516   7.532
    8AU    AUSL 2449  26.416  15.296   7.953
    8AU     AUL 2450  26.157  15.648   7.788
    8AU       S 2451  26.296  15.374   8.147
    8AU     LIG 2452  25.880  15.465   8.311
    8AU     LIG 2453  25.616  15.798   8.500
    8AU       S 2454  26.388  15.928   7.487
    8AU     LIG 2455  25.932  15.827   7.377
    8AU     LIG 2456  25.477  15.833   7.394
    8AU    AUSL 2457  26.362  15.142   7.297
    8AU    AUSL 2458  26.489  15.647   7.126
    8AU     AUL 2459  26.209  15.474   7.189
    8AU       S 2460  26.052  15.013   6.927
    8AU     LIG 2461  25.745  15.400   7.019
    8AU     LIG 2462  25.283  15.562   6.991
    8AU       S 2463  26.317  15.847   6.892
    8AU     LIG 2464  25.993  16.140   6.715
    8AU     LIG 2465  25.881  16.415   6.343
    8AU    AUSL 2466  26.115  15.214   7.653
    8AU    AUSL 2467  26.118  14.801   7.398
    8AU     AUL 2468  25.969  15.111   7.371
    8AU       S 2469  25.879  14.737   7.652
    8AU     LIG 2470  25.691  14.717   7.203
    8AU     LIG 2471  25.363  14.485   7.028
    8AU       S 2472  25.890  15.263   7.837
    8AU     LIG 2473  25.625  15.620   7.848
    8AU     LIG 2474  25.205  15.807   7.911
    8AU    AUSL 2475  27.768  14.616   7.447
    8AU    AUSL 2476  27.666  14.766   7.851
    8AU     AUL 2477  27.986  14.637   7.874
    8AU       S 2478  28.082  14.430   7.451
    8AU     LIG 2479  28.382  14.090   7.497
    8AU     LIG 2480  28.761  13.998   7.750
    8AU       S 2481  28.176  14.186   7.944
    8AU     LIG 2482  28.320  13.987   8.357
    8AU     LIG 2483  28.465  13.753   8.737
    8AU    AUSL 2484  27.998  14.925   7.217
    8AU    AUSL 2485  27.721  14.359   7.107
    8AU     AUL 2486  27.947  14.616   7.051
    8AU       S 2487  28.333  14.661   7.298
    8AU     LIG 2488  28.746  14.413   7.311
    8AU     LIG 2489  29.213  14.453   7.243
    8AU       S 2490  27.822  14.211   6.842
    8AU     LIG 2491  28.063  13.805   6.828
    8AU     LIG 2492  28.184  13.592   6.429
    8AU    AUSL 2493  26.490  14.568   7.497
    8AU    AUSL 2494  26.392  14.698   7.080
    8AU     AUL 2495  26.130  14.488   7.312
    8AU       S 2496  26.225  14.533   6.856
    8AU     LIG 2497  25.815  14.281   6.934
    8AU     LIG 2498  25.654  13.963   6.645
    8AU       S 2499  25.698  14.823   7.719
    8AU     LIG 2500  25.498  14.398   7.558
    8AU     LIG 2501  25.369  13.966   7.639
    8AU    AUSL 2502  26.334  14.869   7.776
    8AU    AUSL 2503  26.556  14.242   7.756
    8AU     AUL 2504  26.242  14.438   7.772
    8AU       S 2505  26.421  13.989   7.843
    8AU     LIG 2506  26.037  13.678   7.931
    8AU     LIG 2507  25.735  13.545   8.279
    8AU       S 2508  25.977  14.800   7.898
    8AU     LIG 2509  25.605  14.470   8.057
    8AU     LIG 2510  25.155  14.251   8.000
    8AU    AUSL 2511  27.048  15.708   7.967
    8AU    AUSL 2512  26.609  15.689   7.893
    8AU     AUL 2513  26.850  15.714   8.256
    8AU       S 2514  26.480  15.892   8.029
    8AU     LIG 2515  26.024  15.959   8.177
    8AU     LIG 2516  25.769  16.284   8.418
    8AU       S 2517  27.010  16.108   8.026
    8AU     LIG 2518  27.241  16.486   8.233
    8AU     LIG 2519  27.175  16.930   8.372
    8AU    AUSL 2520  26.857  15.912   7.620
    8AU    AUSL 2521  27.189  15.963   7.279
    8AU     AUL 2522  26.879  16.164   7.388
    8AU       S 2523  26.990  16.341   7.836
    8AU     LIG 2524  26.880  16.780   7.936
    8AU     LIG 2525  26.655  17.082   8.201
    8AU       S 2526  27.149  16.187   6.994
    8AU     LIG 2527  27.356  16.562   7.173
    8AU     LIG 2528  27.509  17.005   7.058
    8AU    AUSL 2529  27.326  15.912   7.684
    8AU    AUSL 2530  27.333  15.580   8.259
    8AU     AUL 2531  27.411  15.853   8.044
    8AU       S 2532  27.547  15.664   8.486
    8AU     LIG 2533  27.894  15.662   8.830
    8AU     LIG 2534  28.287  15.902   8.765
    8AU       S 2535  27.248  16.202   7.745
    8AU     LIG 2536  27.356  16.701   7.760
    8AU     LIG 2537  27.234  17.153   7.927
    8AU    AUSL 2538  27.136  14.279   8.144
    8AU    AUSL 2539  27.695  14.285   7.714
    8AU     AUL 2540  27.458  14.089   8.026
    8AU       S 2541  27.064  13.766   8.124
    8AU     LIG 2542  26.812  13.447   8.273
    8AU     LIG 2543  26.897  12.992   8.357
    8AU       S 2544  27.895  14.131   7.796
    8AU     LIG 2545  28.047  13.689   7.977
    8AU     LIG 2546  28.154  13.494   8.392
    8AU    AUSL 2547  26.960  14.102   7.773
    8AU    AUSL 2548  26.858  14.533   7.953
    8AU     AUL 2549  26.785  14.195   8.106
    8AU       S 2550  26.913  13.810   7.869
    8AU     LIG 2551  26.602  13.488   7.796
    8AU     LIG 2552  26.496  13.112   8.064
    8AU       S 2553  26.453  13.851   8.120
    8AU     LIG 2554  26.196  13.693   8.452
    8AU     LIG 2555  25.906  13.497   8.759
    8AU    AUSL 2556  27.285  14.374   7.696
    8AU    AUSL 2557  26.922  14.242   7.368
    8AU     AUL 2558  27.234  14.008   7.560
    8AU       S 2559  26.758  13.899   7.397
    8AU     LIG 2560  26.466  13.597   7.206
    8AU     LIG 2561  26.548  13.137   7.125
    8AU       S 2562  27.133  13.617   7.879
    8AU     LIG 2563  26.992  13.165   7.859
    8AU     LIG 2564  26.860  12.705   7.925
    8AU    AUSL 2565  27.145  15.685   6.949
    8AU    AUSL 2566  27.452  15.617   7.288
    8AU     AUL 2567  27.508  15.890   7.058
    8AU       S 2568  27.164  15.902   6.725
    8AU     LIG 2569  27.475  16.272   6.622
    8AU     LIG 2570  27.330  16.725   6.659
    8AU       S 2571  28.231  15.555   6.952
    8AU     LIG 2572  28.344  15.950   6.756
    8AU     LIG 2573  28.248  16.267   6.437
    8AU    AUSL 2574  26.878  15.639   7.297
    8AU    AUSL 2575  26.777  15.544   6.798
    8AU     AUL 2576  26.777  15.865   7.009
    8AU       S 2577  27.003  16.213   6.754
    8AU     LIG 2578  26.902  16.648   6.941
    8AU     LIG 2579  26.815  17.065   6.744
    8AU       S 2580  26.524  15.661   6.634
    8AU     LIG 2581  26.266  15.916   6.339
    8AU     LIG 2582  26.066  16.113   5.953
    8AU    AUSL 2583  27.066  14.232   6.943
    8AU    AUSL 2584  26.536  14.281   7.174
    8AU     AUL 2585  26.782  14.142   6.993
    8AU       S 2586  26.316  14.233   6.938
    8AU     LIG 2587  26.075  13.831   6.953
    8AU     LIG 2588  25.767  13.493   6.792
    8AU       S 2589  26.992  13.752   7.198
    8AU     LIG 2590  26.818  13.466   6.854
    8AU     LIG 2591  26.631  13.061   6.632
    8AU    AUSL 2592  27.332  14.373   7.274
    8AU    AUSL 2593  27.389  14.493   6.832
    8AU     AUL 2594  27.398  14.120   7.046
    8AU       S 2595  26.913  13.632   7.411
    8AU     LIG 2596  27.004  13.197   7.327
    8AU     LIG 2597  26.984  12.862   6.992
    8AU       S 2598  27.572  14.351   6.646
    8AU     LIG 2599  27.700  14.245   6.178
    8AU     LIG 2600  27.931  13.869   6.011
    9AU     AUC 2601  38.022  11.951   7.500
    9AU     AUC 2602  38.319  11.989   7.334
    9AU     AUC 2603  38.290  11.968   7.669
    9AU     AUC 2604  37.746  11.931   7.335
    9AU     AUC 2605  37.733  11.941   7.684
    9AU     AUC 2606  37.835  12.194   7.515
    9AU     AUC 2607  38.169  12.222   7.498
    9AU     AUC 2608  37.870  11.674   7.510
    9AU     AUC 2609  38.221  11.718   7.493
    9AU     AUC 2610  38.056  11.790   7.772
    9AU     AUC 2611  38.002  12.110   7.770
    9AU     AUC 2612  38.048  11.794   7.228
    9AU     AUC 2613  38.043  12.130   7.233
    9AU     AUC 2614  38.633  12.015   7.180
    9AU     AUC 2615  38.671  12.008   7.502
    9AU     AUC 2616  38.600  11.970   7.867
    9AU     AUC 2617  37.440  11.906   7.154
    9AU     AUC 2618  37.394  11.970   7.524
    9AU     AUC 2619  37.446  11.934   7.851
    9AU     AUC 2620  37.665  12.500   7.497
    9AU     AUC 2621  37.998  12.566   7.489
    9AU     AUC 2622  38.318  12.544   7.510
    9AU     AUC 2623  37.689  11.356   7.519
    9AU     AUC 2624  38.040  11.391   7.514
    9AU     AUC 2625  38.426  11.433   7.469
    9AU     AUC 2626  38.063  11.568   8.068
    9AU     AUC 2627  38.018  11.889   8.103
    9AU     AUC 2628  38.020  12.263   8.064
    9AU     AUC 2629  38.042  11.591   6.944
    9AU     AUC 2630  38.043  11.939   6.915
    9AU     AUC 2631  38.062  12.298   6.930
    9AU     AUC 2632  38.354  11.727   7.972
    9AU     AUC 2633  38.325  12.093   8.016
    9AU     AUC 2634  38.331  11.808   7.016
    9AU     AUC 2635  38.361  12.174   7.005
    9AU     AUC 2636  37.725  11.730   7.986
    9AU     AUC 2637  37.725  12.087   7.986
    9AU     AUC 2638  37.702  11.720   7.057
    9AU     AUC 2639  37.714  12.099   7.015
    9AU     AUC 2640  38.526  12.285   7.350
    9AU     AUC 2641  38.467  12.250   7.708
    9AU     AUC 2642  37.549  12.212   7.296
    9AU     AUC 2643  37.523  12.251   7.694
    9AU     AUC 2644  38.536  11.711   7.304
    9AU     AUC 2645  38.543  11.680   7.637
    9AU     AUC 2646  37.507  11.648   7.361
    9AU     AUC 2647  37.532  11.662   7.683
    9AU     AUC 2648  37.825  12.435   7.788
    9AU     AUC 2649  38.161  12.435   7.802
    9AU     AUC 2650  37.832  11.453   7.791
    9AU     AUC 2651  38.250  11.460   7.810
    9AU     AUC 2652  37.833  12.385   7.169
    9AU     AUC 2653  38.227  12.432   7.176
    9AU     AUC 2654  37.836  11.463   7.239
    9AU     AUC 2655  38.218  11.488   7.183
    9AU    AUSL 2656  38.609  11.870   8.246
    9AU    AUSL 2657  38.478  11.395   8.113
    9AU     AUL 2658  38.751  11.479   8.303
    9AU       S 2659  38.879  11.079   8.113
    9AU     LIG 2660  38.883  10.758   8.396
    9AU     LIG 2661  39.138  10.566   8.722
    9AU       S 2662  38.847  11.917   8.363
    9AU     LIG 2663  38.894  12.119   8.744
    9AU     LIG 2664  39.006  11.868   9.117
    9AU    AUSL 2665  38.199  11.687   8.295
    9AU    AUSL 2666  37.880  12.019   8.402
    9AU     AUL 2667  38.052  11.883   8.646
    9AU       S 2668  38.406  11.605   8.569
    9AU     LIG 2669  38.503  11.846   8.925
    9AU     LIG 2670  38.555  11.799   9.378
    9AU       S 2671  37.333  11.837   8.654
    9AU     LIG 2672  37.450  12.193   8.929
    9AU     LIG 2673  37.453  12.167   9.399
    9AU    AUSL 2674  38.222  12.115   8.169
    9AU    AUSL 2675  38.643  12.294   8.139
    9AU     AUL 2676  38.444  12.119   8.471
    9AU       S 2677  38.060  12.384   8.621
    9AU     LIG 2678  38.419  12.357   8.902
    9AU     LIG 2679  38.718  12.276   9.219
    9AU       S 2680  38.775  12.441   8.349
    9AU     LIG 2681  39.213  12.443   8.437
    9AU     LIG 2682  39.619  12.708   8.505
    9AU    AUSL 2683  38.606  12.062   6.753
    9AU    AUSL 2684  38.490  12.505   6.830
    9AU     AUL 2685  38.631  12.352   6.510
    9AU       S 2686  38.515  11.942   6.304
    9AU     LIG 2687  38.884  11.970   6.015
    9AU     LIG 2688  38.900  11.689   5.626
    9AU       S 2689  38.875  12.605   6.811
    9AU     LIG 2690  38.773  12.870   6.520
    9AU     LIG 2691  39.022  13.193   6.318
    9AU    AUSL 2692  38.249  11.817   6.720
    9AU    AUSL 2693  38.567  11.733   7.044
    9AU     AUL 2694  38.671  11.743   6.689
    9AU       S 2695  38.617  10.989   6.653
    9AU     LIG 2696  39.020  11.092   6.422
    9AU     LIG 2697  39.349  10.878   6.178
    9AU       S 2698  38.331  11.610   6.373
    9AU     LIG 2699  38.209  11.416   5.938
    9AU     LIG 2700  38.446  11.410   5.517
    9AU    AUSL 2701  38.182  12.250   6.644
    9AU    AUSL 2702  37.879  11.638   6.617
    9AU     AUL 2703  38.049  11.969   6.417
    9AU       S 2704  37.680  11.666   6.298
    9AU     LIG 2705  37.697  11.493   5.849
    9AU     LIG 2706  37.359  11.447   5.523
    9AU       S 2707  38.549  11.659   6.216
    9AU     LIG 2708  38.430  11.853   5.802
    9AU     LIG 2709  38.499  11.902   5.339
    9AU    AUSL 2710  37.523  11.900   8.171
    9AU    AUSL 2711  37.761  12.334   8.135
    9AU     AUL 2712  37.620  12.204   8.446
    9AU       S 2713  37.262  11.902   8.369
    9AU     LIG 2714  36.978  12.158   8.683
    9AU     LIG 2715  37.020  11.998   9.134
    9AU       S 2716  37.344  12.566   8.304
    9AU     LIG 2717  37.098  12.660   8.653
    9AU     LIG 2718  36.868  13.023   8.809
    9AU    AUSL 2719  37.780  11.585   8.373
    9AU    AUSL 2720  37.380  11.500   8.051
    9AU     AUL 2721  37.459  11.483   8.332
    9AU       S 2722  37.240  11.084   8.156
    9AU     LIG 2723  36.828  10.945   8.290
    9AU     LIG 2724  36.547  10.805   8.626
    9AU       S 2725  37.573  11.767   8.674
    9AU     LIG 2726  37.497  11.715   9.130
    9AU     LIG 2727  37.294  11.673   9.548
    9AU    AUSL 2728  37.494  11.806   6.745
    9AU    AUSL 2729  37.759  11.511   7.016
    9AU     AUL 2730  37.612  11.420   6.696
    9AU       S 2731  37.305  11.720   6.478
    9AU     LIG 2732  36.930  11.732   6.172
    9AU     LIG 2733  36.902  11.781   5.690
    9AU       S 2734  37.151  11.260   6.716
    9AU     LIG 2735  37.087  10.843   6.544
    9AU     LIG 2736  36.852  10.574   6.201
    9AU    AUSL 2737  37.848  12.058   6.829
    9AU    AUSL 2738  37.389  12.198   6.895
    9AU     AUL 2739  37.593  12.085   6.546
    9AU       S 2740  37.217  12.332   6.704
    9AU     LIG 2741  36.864  12.622   6.600
    9AU     LIG 2742  36.696  12.953   6.310
    9AU       S 2743  37.398  11.546   6.265
    9AU     LIG 2744  37.365  11.872   5.925
    9AU     LIG 2745  37.343  11.967   5.459
    9AU    AUSL 2746  38.721  12.569   7.552
    9AU    AUSL 2747  38.704  12.269   7.124
    9AU     AUL 2748  38.864  12.660   7.272
    9AU       S 2749  38.963  12.313   6.943
    9AU     LIG 2750  39.115  12.273   6.499
    9AU     LIG 2751  39.187  12.672   6.281
    9AU       S 2752  39.233  12.561   7.884
    9AU     LIG 2753  39.303  12.848   7.472
    9AU     LIG 2754  39.641  12.852   7.133
    9AU    AUSL 2755  39.000  12.229   7.429
    9AU    AUSL 2756  38.992  11.825   7.671
    9AU     AUL 2757  39.295  11.998   7.535
    9AU       S 2758  39.156  12.419   7.657
    9AU     LIG 2759  39.554  12.412   7.405
    9AU     LIG 2760  39.952  12.381   7.152
    9AU       S 2761  39.241  11.517   7.535
    9AU     LIG 2762  39.592  11.311   7.783
    9AU     LIG 2763  40.015  11.153   7.931
    9AU    AUSL 2764  38.715  12.153   7.745
    9AU    AUSL 2765  38.389  12.470   7.809
    9AU     AUL 2766  38.749  12.561   7.889
    9AU       S 2767  38.756  12.755   8.345
    9AU     LIG 2768  39.179  12.933   8.306
    9AU     LIG 2769  39.461  13.251   8.499
    9AU       S 2770  39.080  12.226   7.926
    9AU     LIG 2771  39.584  12.211   7.895
    9AU     LIG 2772  40.005  12.309   7.675
    9AU    AUSL 2773  37.383  12.466   7.528
    9AU    AUSL 2774  37.366  12.245   7.951
    9AU     AUL 2775  37.103  12.600   7.794
    9AU       S 2776  37.252  12.329   8.151
    9AU     LIG 2777  36.833  12.426   8.265
    9AU     LIG 2778  36.572  12.699   8.510
    9AU       S 2779  37.323  12.863   7.472
    9AU     LIG 2780  36.839  12.757   7.390
    9AU     LIG 2781  36.374  12.882   7.500
    9AU    AUSL 2782  37.310  12.088   7.294
    9AU    AUSL 2783  37.437  12.581   7.116
    9AU     AUL 2784  37.156  12.425   7.183
    9AU       S 2785  36.997  11.935   6.918
    9AU     LIG 2786  36.705  12.304   6.962
    9AU     LIG 2787  36.472  12.720   7.008
    9AU       S 2788  37.264  12.788   6.877
    9AU     LIG 2789  36.950  13.116   6.737
    9AU     LIG 2790  36.867  13.476   6.440
    9AU    AUSL 2791  37.064  12.167   7.649
    9AU    AUSL 2792  37.059  11.755   7.408
    9AU     AUL 2793  36.916  12.062   7.356
    9AU       S 2794  36.802  11.711   7.651
    9AU     LIG 2795  36.615  11.668   7.213
    9AU     LIG 2796  36.304  11.323   7.090
    9AU       S 2797  36.885  12.188   7.825
    9AU     LIG 2798  36.589  12.504   7.789
    9AU     LIG 2799  36.143  12.485   7.844
    9AU    AUSL 2800  38.720  11.550   7.451
    9AU    AUSL 2801  38.614  11.709   7.851
    9AU     AUL 2802  38.934  11.585   7.875
    9AU       S 2803  39.034  11.366   7.457
    9AU     LIG 2804  39.298  10.972   7.532
    9AU     LIG 2805  39.720  10.796   7.705
    9AU       S 2806  39.129  11.146   7.975
    9AU     LIG 2807  39.389  10.863   8.272
    9AU     LIG 2808  39.627  10.566   8.575
    9AU    AUSL 2809  38.941  11.855   7.212
    9AU    AUSL 2810  38.659  11.283   7.119
    9AU     AUL 2811  38.885  11.538   7.051
    9AU       S 2812  39.264  11.589   7.302
    9AU     LIG 2813  39.617  11.287   7.267
    9AU     LIG 2814  40.035  11.166   7.418
    9AU       S 2815  38.762  11.125   6.856
    9AU     LIG 2816  39.049  10.749   6.803
    9AU     LIG 2817  39.238  10.459   6.482
    9AU    AUSL 2818  37.428  11.523   7.521
    9AU    AUSL 2819  37.331  11.633   7.096
    9AU     AUL 2820  37.065  11.443   7.339
    9AU       S 2821  37.163  11.467   6.884
    9AU     LIG 2822  36.689  11.457   6.748
    9AU     LIG 2823  36.361  11.132   6.624
    9AU       S 2824  36.729  11.563   7.761
    9AU     LIG 2825  36.632  11.224   7.485
    9AU     LIG 2826  36.256  10.970   7.455
    9AU    AUSL 2827  37.250  11.815   7.802
    9AU    AUSL 2828  37.501  11.184   7.761
    9AU     AUL 2829  37.183  11.389   7.792
    9AU       S 2830  37.363  10.945   7.852
    9AU     LIG 2831  36.976  10.649   7.890
    9AU     LIG 2832  36.609  10.476   8.146
    9AU       S 2833  36.888  11.729   7.922
    9AU     LIG 2834  36.369  11.628   8.084
    9AU     LIG 2835  35.907  11.519   7.939
    9AU    AUSL 2836  37.995  12.654   7.952
    9AU    AUSL 2837  37.557  12.638   7.888
    9AU     AUL 2838  37.801  12.665   8.247
    9AU       S 2839  37.424  12.845   8.035
    9AU     LIG 2840  36.977  12.921   8.213
    9AU     LIG 2841  36.622  13.205   8.384
    9AU       S 2842  37.952  13.051   8.001
    9AU     LIG 2843  38.266  13.293   8.229
    9AU     LIG 2844  38.288  13.680   8.481
    9AU    AUSL 2845  37.799  12.854   7.603
    9AU    AUSL 2846  38.135  12.896   7.257
    9AU     AUL 2847  37.828  13.101   7.367
    9AU       S 2848  37.970  13.299   7.813
    9AU     LIG 2849  38.025  13.738   8.017
    9AU     LIG 2850  38.119  14.131   8.284
    9AU       S 2851  38.092  13.106   6.962
    9AU     LIG 2852  38.213  13.442   7.251
    9AU     LIG 2853  38.202  13.898   7.143
    9AU    AUSL 2854  38.270  12.851   7.663
    9AU    AUSL 2855  38.281  12.529   8.246
    9AU     AUL 2856  38.355  12.799   8.028
    9AU       S 2857  38.497  12.619   8.470
    9AU     LIG 2858  38.858  12.632   8.814
    9AU     LIG 2859  39.260  12.877   8.836
    9AU       S 2860  38.197  13.124   7.713
    9AU     LIG 2861  38.438  13.519   7.791
    9AU     LIG 2862  38.529  13.896   8.076
    9AU    AUSL 2863  38.085  11.225   8.156
    9AU    AUSL 2864  38.645  11.226   7.727
    9AU     AUL 2865  38.407  11.036   8.042
    9AU       S 2866  38.002  10.700   8.135
    9AU     LIG 2867  37.678  10.382   8.221
    9AU     LIG 2868  37.601   9.916   8.208
    9AU       S 2869  38.850  11.082   7.816
    9AU     LIG 2870  39.076  10.647   7.916
    9AU     LIG 2871  39.257  10.355   8.253
    9AU    AUSL 2872  37.905  11.045   7.789
    9AU    AUSL 2873  37.808  11.476   7.958
    9AU     AUL 2874  37.732  11.137   8.115
    9AU       S 2875  37.843  10.746   7.876
    9AU     LIG 2876  37.487  10.470   7.743
    9AU     LIG 2877  37.244  10.212   7.993
    9AU       S 2878  37.379  10.799   8.131
    9AU     LIG 2879  37.096  10.512   8.379
    9AU     LIG 2880  36.773  10.356   8.683
    9AU    AUSL 2881  38.233  11.312   7.706
    9AU    AUSL 2882  37.863  11.175   7.381
    9AU     AUL 2883  38.182  10.949   7.582
    9AU       S 2884  37.715  10.840   7.410
    9AU     LIG 2885  37.356  10.625   7.262
    9AU     LIG 2886  37.431  10.173   7.225
    9AU       S 2887  38.052  10.557   7.879
    9AU     LIG 2888  37.875  10.137   7.800
    9AU     LIG 2889  38.022   9.721   7.957
    9AU    AUSL 2890  38.088  12.607   6.936
    9AU    AUSL 2891  38.396  12.548   7.273
    9AU     AUL 2892  38.453  12.816   7.036
    9AU       S 2893  38.106  12.818   6.703
    9AU     LIG 2894  38.399  13.209   6.584
    9AU     LIG 2895  38.264  13.651   6.686
    9AU       S 2896  39.189  12.522   6.932
    9AU     LIG 2897  39.267  12.946   6.731
    9AU     LIG 2898  39.505  13.327   6.533
    9AU    AUSL 2899  37.826  12.573   7.289
    9AU    AUSL 2900  37.718  12.471   6.785
    9AU     AUL 2901  37.722  12.793   6.996
    9AU       S 2902  37.933  13.114   6.704
    9AU     LIG 2903  37.816  13.523   6.921
    9AU     LIG 2904  37.779  13.977   6.861
    9AU       S 2905  37.463  12.593   6.622
    9AU     LIG 2906  37.225  12.897   6.350
    9AU     LIG 2907  37.046  13.204   6.026
    9AU    AUSL 2908  38.001  11.163   6.954
    9AU    AUSL 2909  37.468  11.220   7.210
    9AU     AUL 2910  37.706  11.077   7.010
    9AU       S 2911  37.233  11.161   6.985
    9AU     LIG 2912  36.789  10.975   6.983
    9AU     LIG 2913  36.614  10.684   6.648
    9AU       S 2914  37.957  10.706   7.220
    9AU     LIG 2915  37.729  10.483   6.917
    9AU     LIG 2916  37.761  10.040   6.793
    9AU    AUSL 2917  38.270  11.309   7.283
    9AU    AUSL 2918  38.331  11.414   6.839
    9AU     AUL 2919  38.334  11.048   7.061
    9AU       S 2920  37.846  10.571   7.409
    9AU     LIG 2921  37.946  10.136   7.277
    9AU     LIG 2922  38.097   9.724   7.077
    9AU       S 2923  38.510  11.271   6.659
    9AU     LIG 2924  38.570  11.154   6.190
    9AU     LIG 2925  38.842  10.823   6.008
   10AU     AUC 2926  32.752   0.388   7.497
   10AU     AUC 2927  33.050   0.423   7.329
   10AU     AUC 2928  33.024   0.413   7.663
   10AU     AUC 2929  32.468   0.371   7.337
   10AU     AUC 2930  32.469   0.379   7.675
   10AU     AUC 2931  32.570   0.632   7.513
   10AU     AUC 2932  32.908   0.660   7.489
   10AU     AUC 2933  32.578   0.105   7.509
   10AU     AUC 2934  32.946   0.158   7.498
   10AU     AUC 2935  32.794   0.234   7.764
   10AU     AUC 2936  32.737   0.555   7.764
   10AU     AUC 2937  32.776   0.230   7.233
   10AU     AUC 2938  32.778   0.562   7.233
   10AU     AUC 2939  33.360   0.440   7.170
   10AU     AUC 2940  33.402   0.446   7.494
   10AU     AUC 2941  33.335   0.416   7.859
   10AU     AUC 2942  32.161   0.356   7.149
   10AU     AUC 2943  32.132   0.390   7.499
   10AU     AUC 2944  32.185   0.356   7.858
   10AU     AUC 2945  32.399   0.944   7.482
   10AU     AUC 2946  32.739   1.006   7.469
   10AU     AUC 2947  33.057   0.982   7.488
   10AU     AUC 2948  32.406  44.796   7.527
   10AU     AUC 2949  32.757  44.821   7.512
   10AU     AUC 2950  33.149  44.869   7.474
   10AU     AUC 2951  32.797   0.023   8.068
   10AU     AUC 2952  32.760   0.349   8.104
   10AU     AUC 2953  32.758   0.719   8.051
   10AU     AUC 2954  32.763   0.029   6.933
   10AU     AUC 2955  32.765   0.376   6.911
   10AU     AUC 2956  32.795   0.729   6.918
   10AU     AUC 2957  33.086   0.176   7.971
   10AU     AUC 2958  33.061   0.546   8.005
   10AU     AUC 2959  33.056   0.231   7.015
   10AU     AUC 2960  33.089   0.595   6.990
   10AU     AUC 2961  32.461   0.181   8.000
   10AU     AUC 2962  32.466   0.532   7.984
   10AU     AUC 2963  32.413   0.160   7.052
   10AU     AUC 2964  32.455   0.541   7.039
   10AU     AUC 2965  33.261   0.716   7.334
   10AU     AUC 2966  33.204   0.695   7.695
   10AU     AUC 2967  32.256   0.666   7.309
   10AU     AUC 2968  32.258   0.671   7.679
   10AU     AUC 2969  33.267   0.146   7.306
   10AU     AUC 2970  33.270   0.119   7.638
   10AU     AUC 2971  32.231   0.063   7.354
   10AU     AUC 2972  32.243   0.069   7.669
   10AU     AUC 2973  32.562   0.877   7.770
   10AU     AUC 2974  32.898   0.883   7.784
   10AU     AUC 2975  32.562  44.915   7.786
   10AU     AUC 2976  32.971  44.906   7.808
   10AU     AUC 2977  32.586   0.835   7.170
   10AU     AUC 2978  32.969   0.861   7.155
   10AU     AUC 2979  32.567  44.905   7.246
   10AU     AUC 2980  32.940  44.924   7.182
   10AU    AUSL 2981  33.348   0.327   8.240
   10AU    AUSL 2982  33.202  44.843   8.116
   10AU     AUL 2983  33.480  44.931   8.296
   10AU       S 2984  33.606  44.521   8.116
   10AU     LIG 2985  33.588  44.132   8.359
   10AU     LIG 2986  33.703  43.787   8.669
   10AU       S 2987  33.579   0.368   8.377
   10AU     LIG 2988  33.597   0.578   8.766
   10AU     LIG 2989  33.711   0.321   9.142
   10AU    AUSL 2990  32.937   0.149   8.291
   10AU    AUSL 2991  32.623   0.482   8.396
   10AU     AUL 2992  32.801   0.361   8.645
   10AU       S 2993  33.141   0.068   8.567
   10AU     LIG 2994  33.220   0.276   8.943
   10AU     LIG 2995  33.260   0.204   9.394
   10AU       S 2996  32.109   0.307   8.687
   10AU     LIG 2997  32.213   0.650   8.975
   10AU     LIG 2998  32.247   0.601   9.446
   10AU    AUSL 2999  32.963   0.574   8.158
   10AU    AUSL 3000  33.383   0.750   8.125
   10AU     AUL 3001  33.182   0.588   8.458
   10AU       S 3002  32.794   0.860   8.600
   10AU     LIG 3003  33.105   0.778   8.903
   10AU     LIG 3004  33.384   0.700   9.241
   10AU       S 3005  33.518   0.904   8.337
   10AU     LIG 3006  33.927   0.976   8.535
   10AU     LIG 3007  34.295   1.296   8.607
   10AU    AUSL 3008  33.313   0.469   6.739
   10AU    AUSL 3009  33.223   0.920   6.802
   10AU     AUL 3010  33.364   0.738   6.486
   10AU       S 3011  33.212   0.331   6.293
   10AU     LIG 3012  33.622   0.389   6.077
   10AU     LIG 3013  33.762   0.120   5.705
   10AU       S 3014  33.599   1.011   6.775
   10AU     LIG 3015  33.494   1.334   6.533
   10AU     LIG 3016  33.546   1.564   6.136
   10AU    AUSL 3017  32.951   0.223   6.735
   10AU    AUSL 3018  33.294   0.156   7.046
   10AU     AUL 3019  33.395   0.181   6.687
   10AU       S 3020  33.411  44.407   6.695
   10AU     LIG 3021  33.875  44.434   6.575
   10AU     LIG 3022  34.272  44.232   6.413
   10AU       S 3023  33.033   0.021   6.394
   10AU     LIG 3024  33.023  44.753   5.950
   10AU     LIG 3025  33.340  44.743   5.583
   10AU    AUSL 3026  32.911   0.662   6.625
   10AU    AUSL 3027  32.561   0.113   6.592
   10AU     AUL 3028  32.759   0.399   6.413
   10AU       S 3029  32.354   0.147   6.298
   10AU     LIG 3030  32.407  44.917   5.883
   10AU     LIG 3031  32.056  44.895   5.579
   10AU       S 3032  33.282   0.048   6.234
   10AU     LIG 3033  33.238   0.208   5.788
   10AU     LIG 3034  33.451   0.424   5.418
   10AU    AUSL 3035  32.263   0.346   8.183
   10AU    AUSL 3036  32.500   0.795   8.128
   10AU     AUL 3037  32.368   0.663   8.444
   10AU       S 3038  32.006   0.365   8.412
   10AU     LIG 3039  31.731   0.580   8.785
   10AU     LIG 3040  31.832   0.377   9.210
   10AU       S 3041  32.092   1.006   8.270
   10AU     LIG 3042  32.022   1.097   8.679
   10AU     LIG 3043  31.909   1.521   8.834
   10AU    AUSL 3044  32.528   0.044   8.401
   10AU    AUSL 3045  32.094  44.951   8.108
   10AU     AUL 3046  32.206  44.939   8.372
   10AU       S 3047  32.000  44.518   8.165
   10AU     LIG 3048  31.562  44.454   8.129
   10AU     LIG 3049  31.237  44.201   8.365
   10AU       S 3050  32.333   0.238   8.697
   10AU     LIG 3051  32.318   0.166   9.152
   10AU     LIG 3052  32.135   0.094   9.581
   10AU    AUSL 3053  32.188   0.280   6.793
   10AU    AUSL 3054  32.484  44.979   6.996
   10AU     AUL 3055  32.329  44.875   6.675
   10AU       S 3056  31.989   0.177   6.516
   10AU     LIG 3057  31.699   0.276   6.105
   10AU     LIG 3058  31.739   0.302   5.619
   10AU       S 3059  31.945  44.425   6.954
   10AU     LIG 3060  32.047  44.489   6.489
   10AU     LIG 3061  31.950  44.437   6.022
   10AU    AUSL 3062  32.578   0.501   6.834
   10AU    AUSL 3063  32.196   0.636   7.040
   10AU     AUL 3064  32.299   0.522   6.594
   10AU       S 3065  31.967   0.790   6.770
   10AU     LIG 3066  31.588   1.020   6.713
   10AU     LIG 3067  31.399   1.233   6.340
   10AU       S 3068  32.096   0.035   6.266
   10AU     LIG 3069  32.162   0.367   5.897
   10AU     LIG 3070  32.187   0.534   5.457
   10AU    AUSL 3071  33.457   1.007   7.527
   10AU    AUSL 3072  33.435   0.685   7.099
   10AU     AUL 3073  33.601   1.083   7.233
   10AU       S 3074  33.686   0.716   6.909
   10AU     LIG 3075  33.857   0.741   6.444
   10AU     LIG 3076  33.905   1.169   6.262
   10AU       S 3077  33.976   0.990   7.826
   10AU     LIG 3078  34.220   1.275   7.499
   10AU     LIG 3079  34.579   1.483   7.239
   10AU    AUSL 3080  33.729   0.658   7.408
   10AU    AUSL 3081  33.719   0.264   7.665
   10AU     AUL 3082  34.023   0.435   7.533
   10AU       S 3083  33.904   0.878   7.591
   10AU     LIG 3084  34.278   0.812   7.298
   10AU     LIG 3085  34.672   0.972   7.060
   10AU       S 3086  33.943  44.961   7.502
   10AU     LIG 3087  34.260  44.742   7.694
   10AU     LIG 3088  34.641  44.595   7.912
   10AU    AUSL 3089  33.451   0.598   7.734
   10AU    AUSL 3090  33.128   0.919   7.791
   10AU     AUL 3091  33.491   1.008   7.869
   10AU       S 3092  33.481   1.210   8.331
   10AU     LIG 3093  33.855   1.458   8.366
   10AU     LIG 3094  34.081   1.790   8.598
   10AU       S 3095  33.825   0.680   7.898
   10AU     LIG 3096  34.359   0.684   7.807
   10AU     LIG 3097  34.850   0.637   7.758
   10AU    AUSL 3098  32.120   0.855   7.501
   10AU    AUSL 3099  32.119   0.670   7.936
   10AU     AUL 3100  31.838   0.985   7.751
   10AU       S 3101  32.003   0.773   8.144
   10AU     LIG 3102  31.625   0.886   8.381
   10AU     LIG 3103  31.511   1.205   8.702
   10AU       S 3104  32.036   1.326   7.501
   10AU     LIG 3105  31.528   1.203   7.426
   10AU     LIG 3106  31.070   1.205   7.586
   10AU    AUSL 3107  31.813   0.642   7.217
   10AU    AUSL 3108  32.177   1.080   7.133
   10AU     AUL 3109  31.889   0.938   7.217
   10AU       S 3110  31.695   0.441   6.931
   10AU     LIG 3111  31.341   0.759   7.106
   10AU     LIG 3112  31.111   1.160   7.068
   10AU       S 3113  32.008   1.266   6.872
   10AU     LIG 3114  31.709   1.536   6.628
   10AU     LIG 3115  31.371   1.760   6.374
   10AU    AUSL 3116  31.821   0.541   7.658
   10AU    AUSL 3117  31.990   0.270   7.328
   10AU     AUL 3118  31.635   0.491   7.398
   10AU       S 3119  31.548   0.113   7.635
   10AU     LIG 3120  31.242   0.188   7.284
   10AU     LIG 3121  30.853  44.927   7.276
   10AU       S 3122  31.627   0.584   7.903
   10AU     LIG 3123  31.265   0.717   7.670
   10AU     LIG 3124  30.842   0.821   7.865
   10AU    AUSL 3125  33.442  44.989   7.451
   10AU    AUSL 3126  33.341   0.153   7.850
   10AU     AUL 3127  33.667   0.026   7.871
   10AU       S 3128  33.754  44.809   7.454
   10AU     LIG 3129  33.954  44.400   7.419
   10AU     LIG 3130  34.204  44.221   7.060
   10AU       S 3131  33.841  44.565   7.915
   10AU     LIG 3132  34.069  44.296   8.220
   10AU     LIG 3133  34.197  43.998   8.561
   10AU    AUSL 3134  33.673   0.278   7.202
   10AU    AUSL 3135  33.386  44.693   7.147
   10AU     AUL 3136  33.591  44.947   7.041
   10AU       S 3137  33.967   0.044   7.281
   10AU     LIG 3138  34.218  44.734   7.123
   10AU     LIG 3139  34.654  44.760   7.016
   10AU       S 3140  33.521  44.488   6.940
   10AU     LIG 3141  33.750  44.051   6.891
   10AU     LIG 3142  33.987  43.817   6.548
   10AU    AUSL 3143  31.924  44.864   7.487
   10AU    AUSL 3144  32.028  44.957   7.032
   10AU     AUL 3145  31.734   0.035   7.212
   10AU       S 3146  31.953  44.693   6.962
   10AU     LIG 3147  31.674  44.798   6.650
   10AU     LIG 3148  31.525  44.505   6.328
   10AU       S 3149  31.430  44.898   7.651
   10AU     LIG 3150  31.412  44.491   7.449
   10AU     LIG 3151  31.111  44.173   7.236
   10AU    AUSL 3152  32.042   0.194   7.765
   10AU    AUSL 3153  32.232  44.725   7.756
   10AU     AUL 3154  31.887  44.831   7.849
   10AU       S 3155  32.117  44.430   7.771
   10AU     LIG 3156  31.729  44.169   7.727
   10AU     LIG 3157  31.635  43.933   8.111
   10AU       S 3158  31.574   0.144   7.761
   10AU     LIG 3159  31.191   0.181   8.002
   10AU     LIG 3160  30.848  44.892   7.891
   10AU    AUSL 3161  32.729   1.106   7.926
   10AU    AUSL 3162  32.291   1.066   7.845
   10AU     AUL 3163  32.537   1.134   8.210
   10AU       S 3164  32.139   1.258   7.998
   10AU     LIG 3165  31.788   1.396   8.293
   10AU     LIG 3166  31.530   1.707   8.520
   10AU       S 3167  32.696   1.510   7.960
   10AU     LIG 3168  32.885   1.770   8.293
   10AU     LIG 3169  32.911   2.188   8.538
   10AU    AUSL 3170  32.532   1.297   7.571
   10AU    AUSL 3171  32.876   1.325   7.226
   10AU     AUL 3172  32.571   1.543   7.337
   10AU       S 3173  32.724   1.733   7.780
   10AU     LIG 3174  32.637   2.121   8.006
   10AU     LIG 3175  32.608   2.503   8.269
   10AU       S 3176  32.835   1.537   6.937
   10AU     LIG 3177  33.043   1.881   7.111
   10AU     LIG 3178  33.391   2.088   6.906
   10AU    AUSL 3179  33.007   1.293   7.633
   10AU    AUSL 3180  33.017   0.991   8.222
   10AU     AUL 3181  33.094   1.253   7.999
   10AU       S 3182  33.221   1.080   8.446
   10AU     LIG 3183  33.506   1.094   8.822
   10AU     LIG 3184  33.869   1.373   8.892
   10AU       S 3185  32.940   1.558   7.665
   10AU     LIG 3186  33.223   1.784   7.895
   10AU     LIG 3187  33.143   2.175   8.075
   10AU    AUSL 3188  32.803  44.682   8.141
   10AU    AUSL 3189  33.368  44.672   7.735
   10AU     AUL 3190  33.132  44.493   8.057
   10AU       S 3191  32.551  44.128   8.141
   10AU     LIG 3192  32.544  43.818   8.439
   10AU     LIG 3193  32.876  43.670   8.726
   10AU       S 3194  33.557  44.515   7.798
   10AU     LIG 3195  33.785  44.072   7.849
   10AU     LIG 3196  33.907  43.764   8.186
   10AU    AUSL 3197  32.598  44.511   7.786
   10AU    AUSL 3198  32.528  44.965   7.981
   10AU     AUL 3199  32.455  44.612   8.113
   10AU       S 3200  32.578  44.232   7.860
   10AU     LIG 3201  32.313  43.929   7.752
   10AU     LIG 3202  32.116  43.724   8.086
   10AU       S 3203  32.089  44.294   8.024
   10AU     LIG 3204  32.064  44.093   8.424
   10AU     LIG 3205  31.674  44.013   8.647
   10AU    AUSL 3206  32.953  44.743   7.700
   10AU    AUSL 3207  32.651  44.510   7.360
   10AU     AUL 3208  32.942  44.389   7.595
   10AU       S 3209  32.500  44.250   7.374
   10AU     LIG 3210  32.161  43.975   7.207
   10AU     LIG 3211  32.080  43.546   6.993
   10AU       S 3212  32.792  44.106   8.003
   10AU     LIG 3213  32.784  43.680   7.861
   10AU     LIG 3214  33.121  43.388   8.002
   10AU    AUSL 3215  32.824   1.033   6.907
   10AU    AUSL 3216  33.134   0.976   7.247
   10AU     AUL 3217  33.191   1.240   7.002
   10AU       S 3218  32.846   1.265   6.674
   10AU     LIG 3219  33.132   1.686   6.576
   10AU     LIG 3220  32.916   2.092   6.650
   10AU       S 3221  33.912   0.888   6.916
   10AU     LIG 3222  33.985   1.330   6.771
   10AU     LIG 3223  33.952   1.674   6.458
   10AU    AUSL 3224  32.570   0.998   7.272
   10AU    AUSL 3225  32.434   0.913   6.795
   10AU     AUL 3226  32.468   1.231   6.974
   10AU       S 3227  32.668   1.574   6.697
   10AU     LIG 3228  32.543   1.943   6.987
   10AU     LIG 3229  32.715   2.361   7.083
   10AU       S 3230  32.175   0.997   6.658
   10AU     LIG 3231  31.926   1.170   6.333
   10AU     LIG 3232  31.754   1.530   6.087
   10AU    AUSL 3233  32.723  44.631   6.937
   10AU    AUSL 3234  32.286  44.717   7.298
   10AU     AUL 3235  32.428  44.539   7.006
   10AU       S 3236  32.022  44.472   7.246
   10AU     LIG 3237  31.664  44.094   7.221
   10AU     LIG 3238  31.373  43.796   6.962
   10AU       S 3239  32.650  44.088   7.119
   10AU     LIG 3240  32.555  43.699   6.865
   10AU     LIG 3241  32.454  43.281   6.637
   10AU    AUSL 3242  32.992  44.767   7.275
   10AU    AUSL 3243  33.091  44.827   6.831
   10AU     AUL 3244  33.053  44.485   7.049
   10AU       S 3245  32.680  44.008   7.410
   10AU     LIG 3246  32.911  43.667   7.231
   10AU     LIG 3247  32.848  43.277   6.978
   10AU       S 3248  33.306  44.692   6.668
   10AU     LIG 3249  33.473  44.561   6.226
   10AU     LIG 3250  33.759  44.183   6.130
   11POPC   NC3 3251  22.071  36.599   9.780
   11POPC   PO4 3252  22.283  37.127   9.598
   11POPC   GL1 3253  22.358  36.907   9.246
   11POPC   GL2 3254  22.019  36.842   9.180
   11POPC   C1A 3255  22.532  36.703   8.885
   11POPC   D2A 3256  22.585  36.824   8.450
   11POPC   C3A 3257  22.246  36.756   8.156
   11POPC   C4A 3258  22.295  36.950   7.740
   11POPC   C1B 3259  22.140  36.978   8.743
   11POPC   C2B 3260  21.949  37.146   8.376
   11POPC   C3B 3261  21.909  37.303   7.973
   11POPC   C4B 3262  21.840  37.119   7.589
   12POPC   NC3 3263   0.953  11.041   9.594
   12POPC   PO4 3264   1.390  11.576   9.416
   12POPC   GL1 3265   1.150  11.275   9.157
   12POPC   GL2 3266   0.995  11.541   9.028
   12POPC   C1A 3267   0.939  11.133   8.739
   12POPC   D2A 3268   1.100  11.242   8.321
   12POPC   C3A 3269   0.957  11.080   7.940
   12POPC   C4A 3270   1.240  11.152   7.640
   12POPC   C1B 3271   1.250  11.570   8.692
   12POPC   C2B 3272   1.414  11.672   8.312
   12POPC   C3B 3273   1.330  11.634   7.880
   12POPC   C4B 3274   1.554  11.541   7.495
   13POPC   NC3 3275  20.153  35.858   9.793
   13POPC   PO4 3276  19.823  35.264   9.513
   13POPC   GL1 3277  20.027  35.141   9.119
   13POPC   GL2 3278  20.101  35.485   9.103
   13POPC   C1A 3279  19.991  35.225   8.676
   13POPC   D2A 3280  19.676  35.348   8.431
   13POPC   C3A 3281  19.801  35.394   8.031
   13POPC   C4A 3282  19.992  35.114   7.745
   13POPC   C1B 3283  20.087  35.735   8.735
   13POPC   C2B 3284  20.158  35.644   8.338
   13POPC   C3B 3285  20.057  35.837   7.957
   13POPC   C4B 3286  20.037  35.600   7.603
   14POPC   NC3 3287  23.003  31.030   9.505
   14POPC   PO4 3288  22.956  30.286   9.595
   14POPC   GL1 3289  22.878  30.569   9.221
   14POPC   GL2 3290  22.823  30.885   9.072
   14POPC   C1A 3291  22.831  30.471   8.783
   14POPC   D2A 3292  22.986  30.492   8.379
   14POPC   C3A 3293  22.890  30.236   8.035
   14POPC   C4A 3294  22.930  30.412   7.662
   14POPC   C1B 3295  22.778  31.027   8.698
   14POPC   C2B 3296  22.587  30.920   8.356
   14POPC   C3B 3297  22.722  30.746   8.012
   14POPC   C4B 3298  22.922  30.919   7.676
   15POPC   NC3 3299  26.959  39.685   9.343
   15POPC   PO4 3300  26.753  39.075   9.565
   15POPC   GL1 3301  26.744  39.255   9.152
   15POPC   GL2 3302  26.421  39.173   9.103
   15POPC   C1A 3303  26.832  39.222   8.694
   15POPC   D2A 3304  26.612  39.051   8.321
   15POPC   C3A 3305  26.849  38.903   8.014
   15POPC   C4A 3306  26.978  39.031   7.616
   15POPC   C1B 3307  26.329  39.337   8.721
   15POPC   C2B 3308  26.523  39.546   8.366
   15POPC   C3B 3309  26.601  39.403   7.926
   15POPC   C4B 3310  26.692  39.451   7.474
   16POPC   NC3 3311   9.483   3.507   9.671
   16POPC   PO4 3312   8.798   3.613   9.466
   16POPC   GL1 3313   8.875   3.480   9.011
   16POPC   GL2 3314   9.251   3.527   8.846
   16POPC   C1A 3315   8.897   3.256   8.617
   16POPC   D2A 3316   8.955   3.289   8.196
   16POPC   C3A 3317   9.269   3.542   8.010
   16POPC   C4A 3318   9.020   3.601   7.708
   16POPC   C1B 3319   8.984   3.775   8.562
   16POPC   C2B 3320   8.819   3.811   8.130
   16POPC   C3B 3321   8.853   4.086   7.758
   16POPC   C4B 3322   9.129   4.057   7.383
   17POPC   NC3 3323  11.074  42.747   9.498
   17POPC   PO4 3324  11.232  42.041   9.488
   17POPC   GL1 3325  11.351  42.392   9.155
   17POPC   GL2 3326  11.666  42.552   9.089
   17POPC   C1A 3327  11.226  42.524   8.741
   17POPC   D2A 3328  11.269  42.586   8.304
   17POPC   C3A 3329  11.320  42.195   8.102
   17POPC   C4A 3330  11.049  41.889   7.885
   17POPC   C1B 3331  11.721  42.438   8.662
   17POPC   C2B 3332  11.758  42.650   8.270
   17POPC   C3B 3333  11.631  42.534   7.906
   17POPC   C4B 3334  11.340  42.319   7.618
   18POPC   NC3 3335  21.897  10.985   9.197
   18POPC   PO4 3336  22.493  11.222   9.545
   18POPC   GL1 3337  22.271  11.348   9.163
   18POPC   GL2 3338  21.893  11.488   9.132
   18POPC   C1A 3339  22.266  11.278   8.721
   18POPC   D2A 3340  22.071  10.991   8.460
   18POPC   C3A 3341  22.118  11.105   8.045
   18POPC   C4A 3342  22.381  11.128   7.723
   18POPC   C1B 3343  21.929  11.663   8.708
   18POPC   C2B 3344  22.189  11.616   8.346
   18POPC   C3B 3345  22.172  11.591   7.891
   18POPC   C4B 3346  21.746  11.556   7.816
   19POPC   NC3 3347  43.042  15.573   9.506
   19POPC   PO4 3348  43.324  14.885   9.467
   19POPC   GL1 3349  43.027  15.151   9.226
   19POPC   GL2 3350  43.247  15.449   9.060
   19POPC   C1A 3351  42.843  15.234   8.837
   19POPC   D2A 3352  42.748  15.131   8.448
   19POPC   C3A 3353  43.028  15.074   8.126
   19POPC   C4A 3354  42.860  14.973   7.712
   19POPC   C1B 3355  43.334  15.061   8.823
   19POPC   C2B 3356  43.296  14.771   8.488
   19POPC   C3B 3357  43.482  14.814   8.108
   19POPC   C4B 3358  43.376  15.006   7.741
   20POPC   NC3 3359  26.804  17.938   9.358
   20POPC   PO4 3360  26.553  17.337   9.658
   20POPC   GL1 3361  26.693  17.460   9.206
   20POPC   GL2 3362  27.062  17.547   9.118
   20POPC   C1A 3363  26.735  17.505   8.727
   20POPC   D2A 3364  27.003  17.426   8.361
   20POPC   C3A 3365  26.828  17.483   7.952
   20POPC   C4A 3366  26.712  17.195   7.637
   20POPC   C1B 3367  27.135  17.848   8.746
   20POPC   C2B 3368  27.024  17.919   8.320
   20POPC   C3B 3369  27.257  17.749   7.935
   20POPC   C4B 3370  27.180  17.489   7.561
   21POPC   NC3 3371  33.290   3.807   9.574
   21POPC   PO4 3372  32.879   3.284   9.411
   21POPC   GL1 3373  32.952   3.624   9.170
   21POPC   GL2 3374  32.620   3.804   9.180
   21POPC   C1A 3375  33.135   3.545   8.761
   21POPC   D2A 3376  33.407   3.604   8.419
   21POPC   C3A 3377  33.172   3.506   8.063
   21POPC   C4A 3378  33.114   3.382   7.667
   21POPC   C1B 3379  32.798   3.934   8.793
   21POPC   C2B 3380  33.038   3.950   8.427
   21POPC   C3B 3381  32.845   3.897   8.080
   21POPC   C4B 3382  32.801   3.811   7.697
   22POPC   NC3 3383   8.690   1.556   9.517
   22POPC   PO4 3384   9.374   1.420   9.415
   22POPC   GL1 3385   9.075   1.313   9.066
   22POPC   GL2 3386   8.732   1.210   9.136
   22POPC   C1A 3387   8.893   1.125   8.665
   22POPC   D2A 3388   8.940   0.875   8.297
   22POPC   C3A 3389   9.031   1.167   7.981
   22POPC   C4A 3390   9.083   1.322   7.553
   22POPC   C1B 3391   8.591   1.531   8.810
   22POPC   C2B 3392   8.484   1.519   8.366
   22POPC   C3B 3393   8.461   1.187   8.059
   22POPC   C4B 3394   8.633   1.098   7.670
   23POPC   NC3 3395  31.297  10.521   9.567
   23POPC   PO4 3396  31.883  10.922   9.388
   23POPC   GL1 3397  31.780  10.588   9.119
   23POPC   GL2 3398  31.526  10.330   9.127
   23POPC   C1A 3399  31.669  10.551   8.697
   23POPC   D2A 3400  31.595  10.304   8.384
   23POPC   C3A 3401  31.408  10.515   8.075
   23POPC   C4A 3402  31.590  10.599   7.713
   23POPC   C1B 3403  31.348  10.080   8.764
   23POPC   C2B 3404  31.172  10.050   8.318
   23POPC   C3B 3405  31.224  10.095   7.873
   23POPC   C4B 3406  31.164  10.353   7.481
   24POPC   NC3 3407  10.884  37.506   9.323
   24POPC   PO4 3408  11.570  37.399   9.486
   24POPC   GL1 3409  11.366  37.502   9.129
   24POPC   GL2 3410  11.322  37.831   9.197
   24POPC   C1A 3411  11.181  37.566   8.702
   24POPC   D2A 3412  10.878  37.466   8.383
   24POPC   C3A 3413  10.988  37.378   7.946
   24POPC   C4A 3414  11.270  37.644   7.694
   24POPC   C1B 3415  11.537  37.963   8.814
   24POPC   C2B 3416  11.492  37.835   8.377
   24POPC   C3B 3417  11.114  37.856   8.133
   24POPC   C4B 3418  10.909  38.045   7.784
   25POPC   NC3 3419   4.898  40.844   9.573
   25POPC   PO4 3420   5.309  40.479   9.280
   25POPC   GL1 3421   5.079  40.801   9.088
   25POPC   GL2 3422   4.794  40.606   9.125
   25POPC   C1A 3423   5.007  40.807   8.657
   25POPC   D2A 3424   4.925  40.471   8.412
   25POPC   C3A 3425   5.099  40.541   8.047
   25POPC   C4A 3426   5.027  40.961   7.895
   25POPC   C1B 3427   4.562  40.502   8.768
   25POPC   C2B 3428   4.422  40.577   8.365
   25POPC   C3B 3429   4.596  40.695   7.994
   25POPC   C4B 3430   4.795  40.555   7.643
   26POPC   NC3 3431  32.715  18.618   9.418
   26POPC   PO4 3432  32.107  18.280   9.362
   26POPC   GL1 3433  32.479  18.249   9.107
   26POPC   GL2 3434  32.239  18.099   8.872
   26POPC   C1A 3435  32.693  18.344   8.743
   26POPC   D2A 3436  32.439  18.443   8.394
   26POPC   C3A 3437  32.625  18.503   8.021
   26POPC   C4A 3438  32.328  18.496   7.726
   26POPC   C1B 3439  32.059  18.526   8.741
   26POPC   C2B 3440  31.969  18.728   8.374
   26POPC   C3B 3441  31.963  18.380   8.104
   26POPC   C4B 3442  31.821  18.364   7.708
   27POPC   NC3 3443  30.646  13.857   9.340
   27POPC   PO4 3444  30.507  13.201   9.258
   27POPC   GL1 3445  30.752  13.468   9.026
   27POPC   GL2 3446  30.938  13.236   8.804
   27POPC   C1A 3447  30.873  13.769   8.737
   27POPC   D2A 3448  30.970  13.651   8.349
   27POPC   C3A 3449  30.948  13.929   8.041
   27POPC   C4A 3450  30.863  13.726   7.686
   27POPC   C1B 3451  30.563  13.393   8.560
   27POPC   C2B 3452  30.487  13.832   8.353
   27POPC   C3B 3453  30.366  13.815   7.921
   27POPC   C4B 3454  30.433  13.421   7.691
   28POPC   NC3 3455   3.773  19.403   9.481
   28POPC   PO4 3456   3.158  19.122   9.430
   28POPC   GL1 3457   3.428  19.257   9.139
   28POPC   GL2 3458   3.651  18.961   9.162
   28POPC   C1A 3459   3.684  19.299   8.770
   28POPC   D2A 3460   3.511  19.256   8.362
   28POPC   C3A 3461   3.721  19.267   7.955
   28POPC   C4A 3462   3.669  18.969   7.640
   28POPC   C1B 3463   3.345  18.905   8.796
   28POPC   C2B 3464   3.067  18.976   8.445
   28POPC   C3B 3465   3.274  18.976   8.011
   28POPC   C4B 3466   3.181  18.868   7.587
   29POPC   NC3 3467  22.574  26.105   9.431
   29POPC   PO4 3468  23.143  25.891   9.648
   29POPC   GL1 3469  23.156  25.841   9.189
   29POPC   GL2 3470  22.808  25.791   9.092
   29POPC   C1A 3471  23.095  26.018   8.759
   29POPC   D2A 3472  22.903  26.119   8.374
   29POPC   C3A 3473  23.169  26.125   8.003
   29POPC   C4A 3474  23.184  26.466   7.713
   29POPC   C1B 3475  22.686  25.651   8.685
   29POPC   C2B 3476  22.791  25.628   8.247
   29POPC   C3B 3477  22.718  25.905   7.880
   29POPC   C4B 3478  22.543  25.790   7.477
   30POPC   NC3 3479   3.347   8.207   9.531
   30POPC   PO4 3480   3.962   8.214   9.436
   30POPC   GL1 3481   3.643   8.063   9.131
   30POPC   GL2 3482   3.494   8.385   9.087
   30POPC   C1A 3483   3.434   8.060   8.694
   30POPC   D2A 3484   3.285   7.928   8.256
   30POPC   C3A 3485   3.619   7.993   7.925
   30POPC   C4A 3486   4.060   7.971   7.785
   30POPC   C1B 3487   3.217   8.580   8.796
   30POPC   C2B 3488   3.227   8.418   8.374
   30POPC   C3B 3489   3.410   8.518   8.017
   30POPC   C4B 3490   3.230   8.694   7.697
   31POPC   NC3 3491  41.821   3.180   9.517
   31POPC   PO4 3492  41.470   2.657   9.509
   31POPC   GL1 3493  41.728   2.631   9.134
   31POPC   GL2 3494  41.837   2.908   9.084
   31POPC   C1A 3495  41.635   2.458   8.705
   31POPC   D2A 3496  41.244   2.560   8.414
   31POPC   C3A 3497  41.305   2.797   7.995
   31POPC   C4A 3498  41.595   2.624   7.671
   31POPC   C1B 3499  41.511   2.949   8.742
   31POPC   C2B 3500  41.704   2.845   8.344
   31POPC   C3B 3501  41.791   3.023   7.954
   31POPC   C4B 3502  41.503   3.231   7.732
   32POPC   NC3 3503  22.901  31.552   9.472
   32POPC   PO4 3504  23.304  31.101   9.161
   32POPC   GL1 3505  23.049  31.420   8.996
   32POPC   GL2 3506  22.683  31.420   9.031
   32POPC   C1A 3507  23.037  31.851   8.823
   32POPC   D2A 3508  22.921  31.999   8.422
   32POPC   C3A 3509  22.961  31.784   7.985
   32POPC   C4A 3510  22.903  31.800   7.502
   32POPC   C1B 3511  22.714  31.533   8.600
   32POPC   C2B 3512  22.874  31.337   8.249
   32POPC   C3B 3513  22.614  31.251   7.925
   32POPC   C4B 3514  22.374  31.567   7.786
   33POPC   NC3 3515  16.427   0.903   9.467
   33POPC   PO4 3516  16.915   1.408   9.641
   33POPC   GL1 3517  16.829   1.248   9.240
   33POPC   GL2 3518  16.868   0.947   9.207
   33POPC   C1A 3519  16.845   1.297   8.778
   33POPC   D2A 3520  16.561   1.139   8.414
   33POPC   C3A 3521  16.634   1.300   7.956
   33POPC   C4A 3522  16.505   1.294   7.500
   33POPC   C1B 3523  16.836   0.799   8.795
   33POPC   C2B 3524  17.008   0.899   8.356
   33POPC   C3B 3525  16.760   0.812   8.027
   33POPC   C4B 3526  16.782   0.905   7.629
   34POPC   NC3 3527   6.280  16.261   9.447
   34POPC   PO4 3528   5.673  15.913   9.414
   34POPC   GL1 3529   5.818  15.772   9.050
   34POPC   GL2 3530   6.130  15.880   9.126
   34POPC   C1A 3531   5.937  15.994   8.679
   34POPC   D2A 3532   5.962  16.153   8.312
   34POPC   C3A 3533   5.645  16.064   8.068
   34POPC   C4A 3534   5.562  15.894   7.690
   34POPC   C1B 3535   6.385  16.147   8.832
   34POPC   C2B 3536   6.488  16.066   8.428
   34POPC   C3B 3537   6.368  16.131   8.025
   34POPC   C4B 3538   6.059  15.950   7.769
   35POPC   NC3 3539   8.724  34.749   9.664
   35POPC   PO4 3540   9.351  34.486   9.366
   35POPC   GL1 3541   9.124  34.643   8.958
   35POPC   GL2 3542   8.808  34.442   8.744
   35POPC   C1A 3543   9.117  34.767   8.527
   35POPC   D2A 3544   9.191  34.991   8.191
   35POPC   C3A 3545   9.180  34.672   7.875
   35POPC   C4A 3546   8.930  34.292   7.857
   35POPC   C1B 3547   8.664  34.908   8.652
   35POPC   C2B 3548   8.669  35.030   8.262
   35POPC   C3B 3549   8.680  34.722   7.993
   35POPC   C4B 3550   8.491  34.705   7.629
   36POPC   NC3 3551  11.468  33.370   9.252
   36POPC   PO4 3552  11.091  33.872   9.536
   36POPC   GL1 3553  11.309  33.887   9.149
   36POPC   GL2 3554  11.145  34.188   9.087
   36POPC   C1A 3555  11.408  33.799   8.710
   36POPC   D2A 3556  11.495  33.567   8.321
   36POPC   C3A 3557  11.155  33.525   8.020
   36POPC   C4A 3558  11.276  33.597   7.571
   36POPC   C1B 3559  11.114  34.221   8.661
   36POPC   C2B 3560  11.152  33.986   8.295
   36POPC   C3B 3561  11.367  33.964   7.940
   36POPC   C4B 3562  11.202  34.105   7.589
   37POPC   NC3 3563  24.011  16.114   9.404
   37POPC   PO4 3564  23.372  15.904   9.597
   37POPC   GL1 3565  23.509  15.888   9.170
   37POPC   GL2 3566  23.392  16.242   9.127
   37POPC   C1A 3567  23.823  15.855   8.782
   37POPC   D2A 3568  23.981  15.692   8.349
   37POPC   C3A 3569  23.786  15.766   7.892
   37POPC   C4A 3570  23.608  15.646   7.440
   37POPC   C1B 3571  23.340  16.047   8.717
   37POPC   C2B 3572  23.614  16.117   8.366
   37POPC   C3B 3573  23.541  16.218   7.953
   37POPC   C4B 3574  23.594  16.134   7.556
   38POPC   NC3 3575  12.815  12.107   9.483
   38POPC   PO4 3576  12.726  11.547   9.142
   38POPC   GL1 3577  12.955  11.905   9.021
   38POPC   GL2 3578  13.157  12.229   9.134
   38POPC   C1A 3579  13.036  11.848   8.619
   38POPC   D2A 3580  12.745  11.756   8.324
   38POPC   C3A 3581  12.880  12.015   7.990
   38POPC   C4A 3582  12.987  11.969   7.603
   38POPC   C1B 3583  12.905  12.338   8.775
   38POPC   C2B 3584  12.739  12.268   8.391
   38POPC   C3B 3585  12.699  12.477   7.994
   38POPC   C4B 3586  12.525  12.554   7.592
   39POPC   NC3 3587  23.698  34.114   9.607
   39POPC   PO4 3588  23.359  33.799   9.157
   39POPC   GL1 3589  23.826  33.816   9.065
   39POPC   GL2 3590  23.988  34.125   9.167
   39POPC   C1A 3591  23.936  33.766   8.614
   39POPC   D2A 3592  23.627  33.630   8.325
   39POPC   C3A 3593  23.733  33.637   7.913
   39POPC   C4A 3594  23.528  33.608   7.511
   39POPC   C1B 3595  23.894  34.262   8.726
   39POPC   C2B 3596  23.808  34.185   8.251
   39POPC   C3B 3597  23.572  34.111   7.833
   39POPC   C4B 3598  23.786  34.028   7.383
   40POPC   NC3 3599  23.863  31.608   9.737
   40POPC   PO4 3600  23.416  31.169   9.679
   40POPC   GL1 3601  23.543  31.500   9.332
   40POPC   GL2 3602  23.885  31.415   9.263
   40POPC   C1A 3603  23.517  31.619   8.845
   40POPC   D2A 3604  23.287  31.635   8.437
   40POPC   C3A 3605  23.471  31.793   8.066
   40POPC   C4A 3606  23.682  31.541   7.799
   40POPC   C1B 3607  23.930  31.276   8.851
   40POPC   C2B 3608  23.851  31.422   8.446
   40POPC   C3B 3609  24.006  31.280   8.069
   40POPC   C4B 3610  24.134  31.352   7.666
   41POPC   NC3 3611  10.457  29.533   9.527
   41POPC   PO4 3612  10.730  28.875   9.444
   41POPC   GL1 3613  10.467  29.107   9.127
   41POPC   GL2 3614  10.679  29.357   9.090
   41POPC   C1A 3615  10.270  28.982   8.718
   41POPC   D2A 3616  10.046  28.932   8.301
   41POPC   C3A 3617  10.352  29.022   7.983
   41POPC   C4A 3618  10.820  28.991   7.970
   41POPC   C1B 3619  10.383  29.496   8.782
   41POPC   C2B 3620  10.400  29.356   8.369
   41POPC   C3B 3621  10.539  29.502   7.964
   41POPC   C4B 3622  10.207  29.682   7.775
   42POPC   NC3 3623  25.611  33.298   9.394
   42POPC   PO4 3624  25.232  32.793   9.669
   42POPC   GL1 3625  25.287  32.913   9.243
   42POPC   GL2 3626  25.168  33.257   9.156
   42POPC   C1A 3627  25.346  32.855   8.795
   42POPC   D2A 3628  25.184  33.082   8.411
   42POPC   C3A 3629  25.210  32.824   8.038
   42POPC   C4A 3630  25.479  32.870   7.687
   42POPC   C1B 3631  25.440  33.359   8.775
   42POPC   C2B 3632  25.619  33.431   8.389
   42POPC   C3B 3633  25.514  33.246   8.013
   42POPC   C4B 3634  25.469  33.404   7.589
   43POPC   NC3 3635  12.128   3.665   9.627
   43POPC   PO4 3636  11.820   3.109   9.535
   43POPC   GL1 3637  11.959   3.395   9.216
   43POPC   GL2 3638  12.053   3.762   9.131
   43POPC   C1A 3639  12.216   3.360   8.851
   43POPC   D2A 3640  12.049   3.561   8.515
   43POPC   C3A 3641  11.825   3.345   8.205
   43POPC   C4A 3642  12.037   3.350   7.785
   43POPC   C1B 3643  12.007   4.044   8.761
   43POPC   C2B 3644  12.198   4.019   8.345
   43POPC   C3B 3645  11.985   3.792   8.037
   43POPC   C4B 3646  11.785   3.832   7.648
   44POPC   NC3 3647  10.360  30.386   9.294
   44POPC   PO4 3648  10.679  30.910   9.491
   44POPC   GL1 3649  10.549  30.816   9.078
   44POPC   GL2 3650  10.245  31.044   9.147
   44POPC   C1A 3651  10.723  30.476   8.766
   44POPC   D2A 3652  10.838  30.299   8.360
   44POPC   C3A 3653  10.655  30.570   8.054
   44POPC   C4A 3654  10.349  30.541   7.738
   44POPC   C1B 3655   9.977  31.047   8.775
   44POPC   C2B 3656   9.958  30.872   8.338
   44POPC   C3B 3657  10.224  30.964   7.990
   44POPC   C4B 3658  10.486  31.178   7.706
   45POPC   NC3 3659  27.097  23.454   9.246
   45POPC   PO4 3660  26.436  23.702   9.446
   45POPC   GL1 3661  26.735  23.801   9.131
   45POPC   GL2 3662  27.106  23.951   9.174
   45POPC   C1A 3663  26.669  23.634   8.723
   45POPC   D2A 3664  26.847  23.564   8.370
   45POPC   C3A 3665  26.638  23.717   8.061
   45POPC   C4A 3666  26.707  23.879   7.700
   45POPC   C1B 3667  27.248  23.820   8.714
   45POPC   C2B 3668  27.340  23.814   8.255
   45POPC   C3B 3669  27.187  24.053   7.864
   45POPC   C4B 3670  27.123  23.947   7.404
   46POPC   NC3 3671  41.821  41.777   9.383
   46POPC   PO4 3672  41.210  41.461   9.579
   46POPC   GL1 3673  41.425  41.395   9.221
   46POPC   GL2 3674  41.359  41.732   9.139
   46POPC   C1A 3675  41.313  41.350   8.791
   46POPC   D2A 3676  41.446  41.536   8.383
   46POPC   C3A 3677  41.432  41.333   7.982
   46POPC   C4A 3678  41.771  41.240   7.636
   46POPC   C1B 3679  41.246  41.865   8.746
   46POPC   C2B 3680  41.267  42.017   8.325
   46POPC   C3B 3681  41.482  41.864   7.944
   46POPC   C4B 3682  41.349  42.036   7.554
   47POPC   NC3 3683  24.163   4.135   9.499
   47POPC   PO4 3684  23.630   4.431   9.493
   47POPC   GL1 3685  23.779   4.268   9.147
   47POPC   GL2 3686  23.485   4.082   9.124
   47POPC   C1A 3687  23.648   4.369   8.736
   47POPC   D2A 3688  23.826   4.259   8.371
   47POPC   C3A 3689  23.722   4.426   8.003
   47POPC   C4A 3690  23.836   4.358   7.596
   47POPC   C1B 3691  23.250   4.064   8.763
   47POPC   C2B 3692  23.418   3.914   8.373
   47POPC   C3B 3693  23.318   3.815   7.971
   47POPC   C4B 3694  23.391   4.149   7.716
   48POPC   NC3 3695   1.465   2.645   9.478
   48POPC   PO4 3696   2.107   2.478   9.489
   48POPC   GL1 3697   2.130   2.682   9.108
   48POPC   GL2 3698   1.801   2.846   9.101
   48POPC   C1A 3699   2.189   2.895   8.711
   48POPC   D2A 3700   2.382   3.020   8.316
   48POPC   C3A 3701   2.097   3.065   7.971
   48POPC   C4A 3702   1.966   2.671   7.824
   48POPC   C1B 3703   1.677   2.893   8.657
   48POPC   C2B 3704   1.660   3.036   8.223
   48POPC   C3B 3705   1.586   2.994   7.771
   48POPC   C4B 3706   1.722   2.641   7.393
   49POPC   NC3 3707   4.936  42.622   9.620
   49POPC   PO4 3708   5.031  41.993   9.352
   49POPC   GL1 3709   5.096  42.198   8.989
   49POPC   GL2 3710   5.100  42.539   9.090
   49POPC   C1A 3711   5.002  42.022   8.562
   49POPC   D2A 3712   4.714  42.039   8.204
   49POPC   C3A 3713   4.989  41.971   7.851
   49POPC   C4A 3714   5.309  42.177   7.584
   49POPC   C1B 3715   5.208  42.529   8.622
   49POPC   C2B 3716   5.418  42.736   8.258
   49POPC   C3B 3717   5.233  42.661   7.843
   49POPC   C4B 3718   5.209  42.771   7.393
   50POPC   NC3 3719  14.057  42.973   9.418
   50POPC   PO4 3720  13.441  42.725   9.497
   50POPC   GL1 3721  13.579  42.951   9.148
   50POPC   GL2 3722  13.305  43.192   9.173
   50POPC   C1A 3723  13.510  43.075   8.721
   50POPC   D2A 3724  13.570  43.294   8.363
   50POPC   C3A 3725  13.442  43.128   8.020
   50POPC   C4A 3726  13.574  43.046   7.625
   50POPC   C1B 3727  13.314  43.527   8.797
   50POPC   C2B 3728  13.361  43.741   8.370
   50POPC   C3B 3729  13.382  43.618   7.908
   50POPC   C4B 3730  13.265  43.422   7.497
   51POPC   NC3 3731  36.146  21.540   9.770
   51POPC   PO4 3732  36.430  21.144   9.291
   51POPC   GL1 3733  36.049  21.382   9.183
   51POPC   GL2 3734  36.006  21.750   9.228
   51POPC   C1A 3735  35.971  21.369   8.723
   51POPC   D2A 3736  35.914  21.199   8.287
   51POPC   C3A 3737  36.278  21.141   8.029
   51POPC   C4A 3738  36.377  21.372   7.645
   51POPC   C1B 3739  35.753  21.822   8.842
   51POPC   C2B 3740  35.782  21.749   8.378
   51POPC   C3B 3741  35.945  21.590   7.956
   51POPC   C4B 3742  35.919  21.595   7.506
   52POPC   NC3 3743  17.610  33.307   9.912
   52POPC   PO4 3744  17.186  33.696   9.512
   52POPC   GL1 3745  17.531  33.765   9.194
   52POPC   GL2 3746  17.420  33.552   8.959
   52POPC   C1A 3747  17.615  34.019   8.799
   52POPC   D2A 3748  17.334  34.218   8.445
   52POPC   C3A 3749  17.341  34.048   8.030
   52POPC   C4A 3750  17.679  34.029   7.729
   52POPC   C1B 3751  17.773  33.535   8.660
   52POPC   C2B 3752  17.836  33.365   8.242
   52POPC   C3B 3753  17.970  33.507   7.832
   52POPC   C4B 3754  17.804  33.658   7.433
   53POPC   NC3 3755  31.522  15.553   9.523
   53POPC   PO4 3756  31.911  14.970   9.548
   53POPC   GL1 3757  31.829  15.244   9.212
   53POPC   GL2 3758  31.487  15.165   9.165
   53POPC   C1A 3759  31.814  15.267   8.763
   53POPC   D2A 3760  31.922  15.050   8.394
   53POPC   C3A 3761  31.830  15.230   8.017
   53POPC   C4A 3762  31.749  15.191   7.603
   53POPC   C1B 3763  31.290  15.318   8.806
   53POPC   C2B 3764  31.394  15.190   8.398
   53POPC   C3B 3765  31.330  15.028   8.005
   53POPC   C4B 3766  31.279  15.323   7.779
   54POPC   NC3 3767  14.963   0.532   9.602
   54POPC   PO4 3768  15.487   0.513   9.210
   54POPC   GL1 3769  15.098   0.349   9.136
   54POPC   GL2 3770  14.971   0.692   9.122
   54POPC   C1A 3771  15.038   0.274   8.713
   54POPC   D2A 3772  15.366   0.443   8.411
   54POPC   C3A 3773  15.311   0.318   7.969
   54POPC   C4A 3774  15.216   0.517   7.554
   54POPC   C1B 3775  14.993   0.766   8.665
   54POPC   C2B 3776  14.882   0.520   8.273
   54POPC   C3B 3777  14.772   0.368   7.844
   54POPC   C4B 3778  14.731   0.689   7.542
   55POPC   NC3 3779  37.983  43.765   9.607
   55POPC   PO4 3780  37.407  44.211   9.505
   55POPC   GL1 3781  37.739  43.987   9.217
   55POPC   GL2 3782  37.763  43.640   9.165
   55POPC   C1A 3783  37.943  43.968   8.806
   55POPC   D2A 3784  37.729  43.933   8.411
   55POPC   C3A 3785  37.838  43.786   8.019
   55POPC   C4A 3786  37.764  43.963   7.617
   55POPC   C1B 3787  37.509  43.433   8.872
   55POPC   C2B 3788  37.614  43.404   8.470
   55POPC   C3B 3789  37.478  43.396   8.064
   55POPC   C4B 3790  37.616  43.462   7.656
   56POPC   NC3 3791  44.301  11.624   9.470
   56POPC   PO4 3792  44.874  11.196   9.421
   56POPC   GL1 3793  44.600  11.388   9.134
   56POPC   GL2 3794  44.396  11.147   9.047
   56POPC   C1A 3795  44.623  11.606   8.726
   56POPC   D2A 3796  44.793  11.637   8.293
   56POPC   C3A 3797  44.593  11.509   7.907
   56POPC   C4A 3798  44.846  11.432   7.543
   56POPC   C1B 3799  44.738  11.117   8.727
   56POPC   C2B 3800  44.712  11.140   8.309
   56POPC   C3B 3801   0.007  11.206   8.002
   56POPC   C4B 3802  44.831  10.945   7.709
   57POPC   NC3 3803  36.263  36.497   9.458
   57POPC   PO4 3804  36.350  35.800   9.328
   57POPC   GL1 3805  36.198  36.111   9.088
   57POPC   GL2 3806  35.891  36.253   9.151
   57POPC   C1A 3807  36.110  36.014   8.658
   57POPC   D2A 3808  36.273  35.792   8.295
   57POPC   C3A 3809  35.961  35.767   8.024
   57POPC   C4A 3810  36.096  36.004   7.724
   57POPC   C1B 3811  36.005  36.522   8.809
   57POPC   C2B 3812  36.160  36.513   8.409
   57POPC   C3B 3813  35.998  36.401   8.037
   57POPC   C4B 3814  36.052  36.526   7.620
   58POPC   NC3 3815  31.188  18.852   9.370
   58POPC   PO4 3816  31.683  19.314   9.416
   58POPC   GL1 3817  31.620  19.014   9.148
   58POPC   GL2 3818  31.325  19.220   9.045
   58POPC   C1A 3819  31.595  18.854   8.758
   58POPC   D2A 3820  31.533  19.133   8.429
   58POPC   C3A 3821  31.531  18.883   8.114
   58POPC   C4A 3822  31.522  19.040   7.763
   58POPC   C1B 3823  31.249  19.511   8.728
   58POPC   C2B 3824  31.010  19.482   8.381
   58POPC   C3B 3825  31.136  19.263   8.046
   58POPC   C4B 3826  31.246  19.437   7.634
   59POPC   NC3 3827  21.859  37.310   9.529
   59POPC   PO4 3828  22.365  37.799   9.469
   59POPC   GL1 3829  22.219  37.431   9.161
   59POPC   GL2 3830  21.863  37.301   9.038
   59POPC   C1A 3831  22.229  37.478   8.699
   59POPC   D2A 3832  22.324  37.457   8.253
   59POPC   C3A 3833  22.424  37.869   8.071
   59POPC   C4A 3834  22.353  38.045   7.670
   59POPC   C1B 3835  21.705  37.456   8.681
   59POPC   C2B 3836  21.891  37.720   8.327
   59POPC   C3B 3837  21.941  37.795   7.858
   59POPC   C4B 3838  21.824  37.604   7.446
   60POPC   NC3 3839  16.939  10.555   9.463
   60POPC   PO4 3840  16.373  10.184   9.683
   60POPC   GL1 3841  16.417  10.164   9.224
   60POPC   GL2 3842  16.793  10.195   9.152
   60POPC   C1A 3843  16.440  10.273   8.775
   60POPC   D2A 3844  16.637  10.531   8.457
   60POPC   C3A 3845  16.545  10.456   8.014
   60POPC   C4A 3846  16.496  10.805   7.727
   60POPC   C1B 3847  17.037  10.454   8.805
   60POPC   C2B 3848  17.144  10.610   8.386
   60POPC   C3B 3849  16.992  10.702   7.969
   60POPC   C4B 3850  17.077  10.513   7.596
   61POPC   NC3 3851  32.911  41.097   9.741
   61POPC   PO4 3852  32.853  40.496   9.366
   61POPC   GL1 3853  33.079  40.730   9.090
   61POPC   GL2 3854  32.991  41.023   9.240
   61POPC   C1A 3855  33.127  40.701   8.646
   61POPC   D2A 3856  33.245  40.409   8.329
   61POPC   C3A 3857  33.149  40.510   7.913
   61POPC   C4A 3858  33.258  40.709   7.515
   61POPC   C1B 3859  32.813  41.183   8.847
   61POPC   C2B 3860  32.683  40.924   8.506
   61POPC   C3B 3861  32.928  40.884   8.163
   61POPC   C4B 3862  32.897  40.979   7.735
   62POPC   NC3 3863  31.168  26.190   9.283
   62POPC   PO4 3864  31.753  25.926   9.383
   62POPC   GL1 3865  31.538  25.963   9.030
   62POPC   GL2 3866  31.165  25.783   9.005
   62POPC   C1A 3867  31.620  26.143   8.647
   62POPC   D2A 3868  31.923  26.190   8.332
   62POPC   C3A 3869  31.695  26.115   7.964
   62POPC   C4A 3870  31.272  26.111   7.784
   62POPC   C1B 3871  31.299  25.725   8.659
   62POPC   C2B 3872  31.301  25.914   8.278
   62POPC   C3B 3873  31.060  25.689   7.995
   62POPC   C4B 3874  31.250  25.592   7.625
   63POPC   NC3 3875  38.831  31.309   9.627
   63POPC   PO4 3876  39.330  31.673   9.380
   63POPC   GL1 3877  39.296  31.396   9.088
   63POPC   GL2 3878  38.961  31.329   9.131
   63POPC   C1A 3879  39.249  31.580   8.708
   63POPC   D2A 3880  39.437  31.763   8.376
   63POPC   C3A 3881  39.306  31.569   7.999
   63POPC   C4A 3882  39.352  31.730   7.598
   63POPC   C1B 3883  39.000  31.107   8.767
   63POPC   C2B 3884  39.136  31.241   8.359
   63POPC   C3B 3885  38.961  31.145   7.991
   63POPC   C4B 3886  38.970  31.376   7.634
   64POPC   NC3 3887  41.446  38.563   9.593
   64POPC   PO4 3888  41.889  38.197   9.364
   64POPC   GL1 3889  41.534  38.522   9.086
   64POPC   GL2 3890  41.231  38.789   9.155
   64POPC   C1A 3891  41.456  38.742   8.650
   64POPC   D2A 3892  41.700  38.811   8.252
   64POPC   C3A 3893  41.616  38.586   7.845
   64POPC   C4A 3894  41.907  38.290   7.614
   64POPC   C1B 3895  41.001  38.585   8.794
   64POPC   C2B 3896  41.099  38.375   8.396
   64POPC   C3B 3897  41.070  38.267   7.944
   64POPC   C4B 3898  41.080  38.577   7.626
   65POPC   NC3 3899  44.929  19.581   9.590
   65POPC   PO4 3900  44.851  18.890   9.571
   65POPC   GL1 3901  44.734  18.994   9.146
   65POPC   GL2 3902  44.454  19.239   9.087
   65POPC   C1A 3903   0.002  19.030   8.754
   65POPC   D2A 3904   0.019  18.730   8.380
   65POPC   C3A 3905  44.808  18.615   7.995
   65POPC   C4A 3906  44.679  18.752   7.563
   65POPC   C1B 3907  44.335  19.372   8.658
   65POPC   C2B 3908  44.648  19.133   8.374
   65POPC   C3B 3909  44.760  19.118   7.937
   65POPC   C4B 3910  44.421  19.171   7.618
   66POPC   NC3 3911  44.363   2.706   9.650
   66POPC   PO4 3912  44.863   2.254   9.353
   66POPC   GL1 3913  44.708   2.012   9.026
   66POPC   GL2 3914  44.728   1.659   9.152
   66POPC   C1A 3915  44.581   2.232   8.646
   66POPC   D2A 3916  44.394   2.214   8.244
   66POPC   C3A 3917  44.696   2.141   7.964
   66POPC   C4A 3918   0.096   2.338   8.002
   66POPC   C1B 3919  44.794   1.611   8.706
   66POPC   C2B 3920  44.570   1.673   8.323
   66POPC   C3B 3921  44.665   1.537   7.915
   66POPC   C4B 3922  44.600   1.661   7.508
   67POPC   NC3 3923  16.254  31.049   9.354
   67POPC   PO4 3924  16.081  30.426   9.387
   67POPC   GL1 3925  15.932  30.753   9.082
   67POPC   GL2 3926  16.243  30.900   8.871
   67POPC   C1A 3927  15.794  30.751   8.662
   67POPC   D2A 3928  15.964  30.479   8.332
   67POPC   C3A 3929  15.727  30.624   8.048
   67POPC   C4A 3930  15.649  30.850   7.712
   67POPC   C1B 3931  16.245  30.468   8.777
   67POPC   C2B 3932  16.357  30.159   8.479
   67POPC   C3B 3933  16.354  30.265   8.039
   67POPC   C4B 3934  16.170  30.638   7.821
   68POPC   NC3 3935  16.988  35.532   9.493
   68POPC   PO4 3936  16.413  35.235   9.526
   68POPC   GL1 3937  16.552  35.478   9.198
   68POPC   GL2 3938  16.814  35.261   9.073
   68POPC   C1A 3939  16.654  35.640   8.780
   68POPC   D2A 3940  16.716  35.353   8.431
   68POPC   C3A 3941  16.793  35.589   8.070
   68POPC   C4A 3942  16.634  35.619   7.627
   68POPC   C1B 3943  17.037  35.040   8.733
   68POPC   C2B 3944  17.206  35.158   8.361
   68POPC   C3B 3945  17.086  35.147   7.962
   68POPC   C4B 3946  16.727  35.133   7.739
   69POPC   NC3 3947  26.406   9.416   9.482
   69POPC   PO4 3948  26.965   9.736   9.484
   69POPC   GL1 3949  26.754   9.687   9.165
   69POPC   GL2 3950  27.008   9.542   8.915
   69POPC   C1A 3951  26.634   9.854   8.823
   69POPC   D2A 3952  26.631   9.763   8.405
   69POPC   C3A 3953  26.845  10.075   8.161
   69POPC   C4A 3954  26.735   9.957   7.761
   69POPC   C1B 3955  27.124   9.786   8.568
   69POPC   C2B 3956  27.310   9.870   8.213
   69POPC   C3B 3957  27.060   9.623   7.986
   69POPC   C4B 3958  27.072   9.617   7.596
   70POPC   NC3 3959  39.761  20.959   9.308
   70POPC   PO4 3960  40.084  21.424   9.800
   70POPC   GL1 3961  40.034  21.413   9.289
   70POPC   GL2 3962  40.265  21.597   9.140
   70POPC   C1A 3963  39.826  21.398   8.857
   70POPC   D2A 3964  39.812  21.115   8.485
   70POPC   C3A 3965  40.053  21.259   8.115
   70POPC   C4A 3966  39.867  21.231   7.707
   70POPC   C1B 3967  40.179  21.751   8.788
   70POPC   C2B 3968  40.323  21.776   8.401
   70POPC   C3B 3969  40.267  21.801   8.004
   70POPC   C4B 3970  40.288  21.505   7.696
   71POPC   NC3 3971  40.703  17.034   9.583
   71POPC   PO4 3972  41.105  16.330   9.621
   71POPC   GL1 3973  41.094  16.418   9.178
   71POPC   GL2 3974  40.758  16.548   9.181
   71POPC   C1A 3975  41.115  16.672   8.785
   71POPC   D2A 3976  40.878  16.712   8.387
   71POPC   C3A 3977  41.042  16.848   7.962
   71POPC   C4A 3978  41.011  16.595   7.587
   71POPC   C1B 3979  40.519  16.710   8.824
   71POPC   C2B 3980  40.383  16.871   8.411
   71POPC   C3B 3981  40.509  16.774   7.971
   71POPC   C4B 3982  40.492  16.572   7.553
   72POPC   NC3 3983   3.109   9.063   9.416
   72POPC   PO4 3984   2.590   8.687   9.488
   72POPC   GL1 3985   2.660   8.987   9.173
   72POPC   GL2 3986   2.358   9.051   9.053
   72POPC   C1A 3987   2.866   8.997   8.783
   72POPC   D2A 3988   3.046   8.885   8.388
   72POPC   C3A 3989   2.847   8.864   7.986
   72POPC   C4A 3990   2.951   9.131   7.640
   72POPC   C1B 3991   2.391   8.770   8.731
   72POPC   C2B 3992   2.539   8.986   8.387
   72POPC   C3B 3993   2.422   9.154   8.020
   72POPC   C4B 3994   2.467   8.965   7.620
   73POPC   NC3 3995  11.693  32.490   9.461
   73POPC   PO4 3996  11.088  32.227   9.517
   73POPC   GL1 3997  11.355  32.200   9.147
   73POPC   GL2 3998  11.644  32.383   8.988
   73POPC   C1A 3999  11.327  32.068   8.735
   73POPC   D2A 4000  11.584  32.121   8.382
   73POPC   C3A 4001  11.387  31.947   8.057
   73POPC   C4A 4002  11.286  32.040   7.677
   73POPC   C1B 4003  11.368  32.568   8.697
   73POPC   C2B 4004  11.177  32.439   8.329
   73POPC   C3B 4005  11.466  32.454   7.989
   73POPC   C4B 4006  11.452  32.733   7.677
   74POPC   NC3 4007  39.464   2.273   9.140
   74POPC   PO4 4008  38.978   1.987   9.632
   74POPC   GL1 4009  39.177   1.846   9.176
   74POPC   GL2 4010  39.445   1.556   9.145
   74POPC   C1A 4011  39.168   1.841   8.722
   74POPC   D2A 4012  39.072   2.168   8.419
   74POPC   C3A 4013  38.921   2.021   8.028
   74POPC   C4A 4014  39.120   2.125   7.649
   74POPC   C1B 4015  39.684   1.663   8.801
   74POPC   C2B 4016  39.617   1.943   8.448
   74POPC   C3B 4017  39.412   1.960   8.067
   74POPC   C4B 4018  39.413   1.720   7.680
   75POPC   NC3 4019  14.234  40.578   9.655
   75POPC   PO4 4020  14.359  41.078   9.277
   75POPC   GL1 4021  14.545  40.937   8.967
   75POPC   GL2 4022  14.519  40.628   9.093
   75POPC   C1A 4023  14.495  40.942   8.556
   75POPC   D2A 4024  14.210  40.996   8.274
   75POPC   C3A 4025  14.451  41.018   7.945
   75POPC   C4A 4026  14.336  40.950   7.534
   75POPC   C1B 4027  14.211  40.592   8.745
   75POPC   C2B 4028  14.284  40.484   8.327
   75POPC   C3B 4029  14.262  40.531   7.899
   75POPC   C4B 4030  14.421  40.272   7.587
   76POPC   NC3 4031  19.385  23.760   9.520
   76POPC   PO4 4032  18.754  23.789   9.569
   76POPC   GL1 4033  18.993  23.964   9.240
   76POPC   GL2 4034  19.085  23.614   9.124
   76POPC   C1A 4035  19.089  24.034   8.808
   76POPC   D2A 4036  19.317  23.972   8.423
   76POPC   C3A 4037  19.169  24.007   8.009
   76POPC   C4A 4038  19.036  23.922   7.603
   76POPC   C1B 4039  19.145  23.526   8.691
   76POPC   C2B 4040  19.039  23.554   8.248
   76POPC   C3B 4041  19.310  23.527   7.885
   76POPC   C4B 4042  19.337  23.519   7.433
   77POPC   NC3 4043  17.187  25.703   9.483
   77POPC   PO4 4044  17.643  26.181   9.404
   77POPC   GL1 4045  17.530  26.256   9.019
   77POPC   GL2 4046  17.173  26.270   9.060
   77POPC   C1A 4047  17.776  26.241   8.667
   77POPC   D2A 4048  17.778  26.041   8.316
   77POPC   C3A 4049  17.446  26.175   8.113
   77POPC   C4A 4050  17.416  25.952   7.780
   77POPC   C1B 4051  17.230  25.897   8.784
   77POPC   C2B 4052  17.329  25.734   8.366
   77POPC   C3B 4053  17.128  25.577   8.009
   77POPC   C4B 4054  16.982  25.771   7.640
   78POPC   NC3 4055  28.638  32.369   9.515
   78POPC   PO4 4056  27.984  32.300   9.451
   78POPC   GL1 4057  28.356  32.151   9.149
   78POPC   GL2 4058  28.456  32.460   9.027
   78POPC   C1A 4059  28.558  32.057   8.727
   78POPC   D2A 4060  28.322  32.286   8.406
   78POPC   C3A 4061  28.392  32.193   7.979
   78POPC   C4A 4062  28.086  32.063   7.692
   78POPC   C1B 4063  28.022  32.419   8.813
   78POPC   C2B 4064  27.918  32.638   8.420
   78POPC   C3B 4065  27.971  32.475   8.005
   78POPC   C4B 4066  28.209  32.585   7.621
   79POPC   NC3 4067  44.188  31.257   9.534
   79POPC   PO4 4068  43.721  31.808   9.551
   79POPC   GL1 4069  43.691  31.744   9.141
   79POPC   GL2 4070  43.855  31.438   9.175
   79POPC   C1A 4071  43.614  31.534   8.743
   79POPC   D2A 4072  43.906  31.297   8.481
   79POPC   C3A 4073  43.733  31.345   8.070
   79POPC   C4A 4074  43.946  31.314   7.684
   79POPC   C1B 4075  44.125  31.626   8.865
   79POPC   C2B 4076  44.355  31.600   8.473
   79POPC   C3B 4077  44.186  31.582   8.044
   79POPC   C4B 4078  44.194  31.787   7.596
   80POPC   NC3 4079  32.086  24.007   9.354
   80POPC   PO4 4080  32.372  23.439   9.561
   80POPC   GL1 4081  32.253  23.540   9.184
   80POPC   GL2 4082  32.498  23.785   9.121
   80POPC   C1A 4083  32.054  23.509   8.781
   80POPC   D2A 4084  32.060  23.743   8.396
   80POPC   C3A 4085  31.976  23.500   8.047
   80POPC   C4A 4086  31.896  23.762   7.710
   80POPC   C1B 4087  32.360  23.965   8.749
   80POPC   C2B 4088  32.553  23.943   8.349
   80POPC   C3B 4089  32.418  23.752   7.985
   80POPC   C4B 4090  32.391  23.788   7.561
   81POPC   NC3 4091  29.431  36.501   9.816
   81POPC   PO4 4092  29.141  37.070   9.818
   81POPC   GL1 4093  29.138  37.028   9.295
   81POPC   GL2 4094  28.931  37.284   9.124
   81POPC   C1A 4095  29.041  36.839   8.856
   81POPC   D2A 4096  29.141  36.902   8.403
   81POPC   C3A 4097  28.992  36.648   8.088
   81POPC   C4A 4098  28.899  36.519   7.694
   81POPC   C1B 4099  29.124  37.314   8.724
   81POPC   C2B 4100  28.972  37.404   8.340
   81POPC   C3B 4101  28.951  37.211   7.942
   81POPC   C4B 4102  29.184  36.960   7.680
   82POPC   NC3 4103  14.584  44.862   9.506
   82POPC   PO4 4104  14.517   0.490   9.455
   82POPC   GL1 4105  14.418   0.297   9.072
   82POPC   GL2 4106  14.026   0.319   9.079
   82POPC   C1A 4107  14.541   0.432   8.669
   82POPC   D2A 4108  14.406   0.793   8.449
   82POPC   C3A 4109  14.540   0.810   8.038
   82POPC   C4A 4110  14.225   0.678   7.762
   82POPC   C1B 4111  14.035   0.466   8.613
   82POPC   C2B 4112  14.268   0.374   8.209
   82POPC   C3B 4113  14.266   0.128   7.831
   82POPC   C4B 4114  14.130  44.952   7.420
   83POPC   NC3 4115  44.501  24.252   9.996
   83POPC   PO4 4116  44.877  23.970   9.451
   83POPC   GL1 4117  44.607  23.857   9.111
   83POPC   GL2 4118  44.559  23.508   9.024
   83POPC   C1A 4119  44.407  23.941   8.741
   83POPC   D2A 4120  44.627  24.000   8.337
   83POPC   C3A 4121  44.551  23.788   7.952
   83POPC   C4A 4122  44.563  23.444   7.705
   83POPC   C1B 4123  44.644  23.476   8.593
   83POPC   C2B 4124  44.734  23.325   8.165
   83POPC   C3B 4125   0.051  23.399   7.803
   83POPC   C4B 4126   0.378  23.264   7.485
   84POPC   NC3 4127  27.188   2.882   9.443
   84POPC   PO4 4128  26.544   2.636   9.463
   84POPC   GL1 4129  26.782   2.855   9.103
   84POPC   GL2 4130  27.112   2.689   8.966
   84POPC   C1A 4131  26.696   2.771   8.652
   84POPC   D2A 4132  26.948   2.554   8.374
   84POPC   C3A 4133  26.847   2.587   7.952
   84POPC   C4A 4134  26.876   3.007   7.781
   84POPC   C1B 4135  27.099   3.073   8.692
   84POPC   C2B 4136  27.266   3.179   8.262
   84POPC   C3B 4137  27.382   3.050   7.805
   84POPC   C4B 4138  27.299   3.119   7.330
   85POPC   NC3 4139  12.812  21.877   9.412
   85POPC   PO4 4140  13.305  22.455   9.514
   85POPC   GL1 4141  13.159  22.213   9.105
   85POPC   GL2 4142  13.141  21.831   8.984
   85POPC   C1A 4143  12.936  22.248   8.693
   85POPC   D2A 4144  12.670  22.225   8.307
   85POPC   C3A 4145  12.791  22.305   7.840
   85POPC   C4A 4146  12.933  22.163   7.390
   85POPC   C1B 4147  12.694  21.796   8.780
   85POPC   C2B 4148  12.532  21.701   8.386
   85POPC   C3B 4149  12.749  21.817   8.017
   85POPC   C4B 4150  12.607  21.844   7.615
   86POPC   NC3 4151  42.439  39.945   9.670
   86POPC   PO4 4152  41.832  39.938   9.472
   86POPC   GL1 4153  42.152  39.815   9.187
   86POPC   GL2 4154  42.492  39.721   9.231
   86POPC   C1A 4155  42.272  39.922   8.769
   86POPC   D2A 4156  42.317  40.100   8.369
   86POPC   C3A 4157  42.191  39.848   8.034
   86POPC   C4A 4158  42.072  40.048   7.669
   86POPC   C1B 4159  42.715  40.042   8.983
   86POPC   C2B 4160  42.797  40.028   8.552
   86POPC   C3B 4161  42.778  39.979   8.114
   86POPC   C4B 4162  42.563  39.975   7.723
   87POPC   NC3 4163  28.773  33.128   9.401
   87POPC   PO4 4164  29.415  33.365   9.601
   87POPC   GL1 4165  29.245  33.196   9.203
   87POPC   GL2 4166  28.981  33.297   8.971
   87POPC   C1A 4167  29.272  32.884   8.851
   87POPC   D2A 4168  29.093  32.820   8.429
   87POPC   C3A 4169  29.271  33.003   8.060
   87POPC   C4A 4170  29.308  32.839   7.638
   87POPC   C1B 4171  29.162  33.321   8.550
   87POPC   C2B 4172  29.108  33.478   8.125
   87POPC   C3B 4173  28.926  33.280   7.750
   87POPC   C4B 4174  29.079  33.205   7.321
   88POPC   NC3 4175  36.992  25.258   9.257
   88POPC   PO4 4176  36.382  25.579   9.444
   88POPC   GL1 4177  36.606  25.510   9.012
   88POPC   GL2 4178  36.686  25.126   8.895
   88POPC   C1A 4179  36.867  25.704   8.650
   88POPC   D2A 4180  37.200  25.732   8.299
   88POPC   C3A 4181  36.945  25.735   7.901
   88POPC   C4A 4182  37.012  25.596   7.464
   88POPC   C1B 4183  37.032  25.215   8.606
   88POPC   C2B 4184  36.895  25.318   8.211
   88POPC   C3B 4185  36.900  25.190   7.811
   88POPC   C4B 4186  37.236  25.005   7.587
   89POPC   NC3 4187  17.319   1.695   9.503
   89POPC   PO4 4188  17.880   2.062   9.699
   89POPC   GL1 4189  17.585   2.152   9.286
   89POPC   GL2 4190  17.332   1.943   9.064
   89POPC   C1A 4191  17.571   2.294   8.838
   89POPC   D2A 4192  17.415   2.051   8.487
   89POPC   C3A 4193  17.466   2.239   8.051
   89POPC   C4A 4194  17.134   2.172   7.759
   89POPC   C1B 4195  17.682   1.752   8.893
   89POPC   C2B 4196  17.769   1.646   8.484
   89POPC   C3B 4197  17.562   1.738   8.098
   89POPC   C4B 4198  17.315   1.698   7.713
   90POPC   NC3 4199  15.669  36.852   9.514
   90POPC   PO4 4200  16.178  37.201   9.422
   90POPC   GL1 4201  15.850  37.087   9.110
   90POPC   GL2 4202  15.966  36.736   9.110
   90POPC   C1A 4203  15.714  36.888   8.716
   90POPC   D2A 4204  15.922  36.894   8.339
   90POPC   C3A 4205  15.623  36.869   8.051
   90POPC   C4A 4206  15.608  36.983   7.688
   90POPC   C1B 4207  16.143  36.553   8.716
   90POPC   C2B 4208  16.152  36.419   8.280
   90POPC   C3B 4209  16.419  36.481   7.906
   90POPC   C4B 4210  16.350  36.456   7.440
   91POPC   NC3 4211   9.301  15.537   9.796
   91POPC   PO4 4212   8.896  15.866   9.343
   91POPC   GL1 4213   8.883  16.032   8.994
   91POPC   GL2 4214   9.204  16.113   8.998
   91POPC   C1A 4215   8.821  15.779   8.659
   91POPC   D2A 4216   8.878  15.470   8.406
   91POPC   C3A 4217   9.049  15.643   8.081
   91POPC   C4A 4218   8.911  15.759   7.733
   91POPC   C1B 4219   9.130  16.158   8.547
   91POPC   C2B 4220   9.173  16.145   8.113
   91POPC   C3B 4221   9.302  16.101   7.693
   91POPC   C4B 4222   9.398  16.025   7.237
   92POPC   NC3 4223  27.071  25.931   9.721
   92POPC   PO4 4224  26.699  25.935   9.216
   92POPC   GL1 4225  26.846  26.160   8.907
   92POPC   GL2 4226  26.601  26.442   8.919
   92POPC   C1A 4227  26.952  26.102   8.513
   92POPC   D2A 4228  26.720  25.959   8.195
   92POPC   C3A 4229  27.005  25.753   7.929
   92POPC   C4A 4230  27.217  26.069   7.803
   92POPC   C1B 4231  26.436  26.183   8.603
   92POPC   C2B 4232  26.274  26.327   8.225
   92POPC   C3B 4233  26.501  26.335   7.855
   92POPC   C4B 4234  26.588  25.926   7.717
   93POPC   NC3 4235   3.321  38.265   9.431
   93POPC   PO4 4236   3.950  38.360   9.235
   93POPC   GL1 4237   3.634  38.306   9.022
   93POPC   GL2 4238   3.498  38.637   9.128
   93POPC   C1A 4239   3.570  38.128   8.633
   93POPC   D2A 4240   3.261  38.308   8.361
   93POPC   C3A 4241   3.350  38.209   7.950
   93POPC   C4A 4242   3.735  38.295   7.813
   93POPC   C1B 4243   3.599  38.882   8.775
   93POPC   C2B 4244   3.323  38.973   8.451
   93POPC   C3B 4245   3.293  38.786   8.025
   93POPC   C4B 4246   3.485  38.740   7.615
   94POPC   NC3 4247  38.238   5.736   9.597
   94POPC   PO4 4248  38.344   6.298   9.247
   94POPC   GL1 4249  38.556   6.015   9.062
   94POPC   GL2 4250  38.606   5.703   9.249
   94POPC   C1A 4251  38.480   6.014   8.617
   94POPC   D2A 4252  38.112   5.862   8.385
   94POPC   C3A 4253  38.170   6.025   7.967
   94POPC   C4A 4254  38.620   6.096   7.841
   94POPC   C1B 4255  38.441   5.568   8.852
   94POPC   C2B 4256  38.522   5.514   8.450
   94POPC   C3B 4257  38.393   5.574   8.051
   94POPC   C4B 4258  38.693   5.579   7.756
   95POPC   NC3 4259  24.014   3.283   9.428
   95POPC   PO4 4260  23.348   3.434   9.435
   95POPC   GL1 4261  23.598   3.560   9.126
   95POPC   GL2 4262  23.893   3.762   9.183
   95POPC   C1A 4263  23.807   3.376   8.786
   95POPC   D2A 4264  23.853   3.224   8.378
   95POPC   C3A 4265  23.649   3.425   8.044
   95POPC   C4A 4266  23.696   3.460   7.583
   95POPC   C1B 4267  23.762   3.875   8.749
   95POPC   C2B 4268  23.920   3.759   8.320
   95POPC   C3B 4269  23.829   3.886   7.867
   95POPC   C4B 4270  23.734   3.918   7.402
   96POPC   NC3 4271  43.736  23.708   9.650
   96POPC   PO4 4272  44.402  23.816   9.695
   96POPC   GL1 4273  44.146  23.698   9.267
   96POPC   GL2 4274  43.799  23.616   9.172
   96POPC   C1A 4275  44.108  23.532   8.786
   96POPC   D2A 4276  44.247  23.659   8.347
   96POPC   C3A 4277  44.124  23.482   7.984
   96POPC   C4A 4278  44.145  23.684   7.592
   96POPC   C1B 4279  43.686  23.913   8.869
   96POPC   C2B 4280  43.795  23.817   8.472
   96POPC   C3B 4281  43.831  23.894   8.042
   96POPC   C4B 4282  43.659  23.655   7.723
   97POPC   NC3 4283  15.065  44.487   9.722
   97POPC   PO4 4284  15.232  43.814   9.425
   97POPC   GL1 4285  15.025  43.709   9.077
   97POPC   GL2 4286  15.292  43.512   8.916
   97POPC   C1A 4287  15.105  43.965   8.725
   97POPC   D2A 4288  15.057  44.199   8.357
   97POPC   C3A 4289  14.987  43.906   8.039
   97POPC   C4A 4290  14.990  43.955   7.610
   97POPC   C1B 4291  14.961  43.398   8.654
   97POPC   C2B 4292  14.862  43.411   8.223
   97POPC   C3B 4293  14.977  43.448   7.791
   97POPC   C4B 4294  15.264  43.469   7.421
   98POPC   NC3 4295  42.230  21.005   9.866
   98POPC   PO4 4296  42.499  20.565   9.410
   98POPC   GL1 4297  42.347  20.615   8.993
   98POPC   GL2 4298  42.063  20.848   8.937
   98POPC   C1A 4299  42.237  20.464   8.616
   98POPC   D2A 4300  42.409  20.225   8.339
   98POPC   C3A 4301  42.285  20.454   8.011
   98POPC   C4A 4302  42.337  20.491   7.585
   98POPC   C1B 4303  42.422  20.968   8.656
   98POPC   C2B 4304  42.600  20.764   8.299
   98POPC   C3B 4305  42.585  20.902   7.876
   98POPC   C4B 4306  42.438  20.945   7.432
   99POPC   NC3 4307  27.460   2.051   9.489
   99POPC   PO4 4308  28.057   2.457   9.524
   99POPC   GL1 4309  27.797   2.235   9.138
   99POPC   GL2 4310  27.602   1.901   9.053
   99POPC   C1A 4311  27.547   2.314   8.781
   99POPC   D2A 4312  27.397   2.341   8.416
   99POPC   C3A 4313  27.484   2.026   8.176
   99POPC   C4A 4314  27.487   2.026   7.743
   99POPC   C1B 4315  27.811   1.884   8.685
   99POPC   C2B 4316  27.820   1.643   8.311
   99POPC   C3B 4317  27.512   1.548   8.007
   99POPC   C4B 4318  27.875   1.721   7.781
  100POPC   NC3 4319  33.342   4.957   9.865
  100POPC   PO4 4320  33.039   5.523   9.624
  100POPC   GL1 4321  33.065   5.382   9.154
  100POPC   GL2 4322  32.973   5.043   9.134
  100POPC   C1A 4323  32.891   5.269   8.701
  100POPC   D2A 4324  32.774   5.347   8.275
  100POPC   C3A 4325  32.957   5.220   7.886
  100POPC   C4A 4326  32.902   5.307   7.419
  100POPC   C1B 4327  33.224   4.870   8.761
  100POPC   C2B 4328  33.290   4.991   8.344
  100POPC   C3B 4329  33.253   4.810   7.930
  100POPC   C4B 4330  33.356   4.605   7.543
  101POPC   NC3 4331  15.988  38.892   9.801
  101POPC   PO4 4332  15.418  38.908   9.438
  101POPC   GL1 4333  15.699  38.730   9.128
  101POPC   GL2 4334  16.042  38.846   9.182
  101POPC   C1A 4335  15.754  38.482   8.735
  101POPC   D2A 4336  15.627  38.218   8.394
  101POPC   C3A 4337  15.824  38.244   8.022
  101POPC   C4A 4338  15.732  38.650   7.921
  101POPC   C1B 4339  16.141  38.831   8.720
  101POPC   C2B 4340  16.165  38.553   8.311
  101POPC   C3B 4341  16.224  38.565   7.828
  101POPC   C4B 4342  16.361  38.679   7.386
  102POPC   NC3 4343  13.237  30.873   9.403
  102POPC   PO4 4344  12.547  30.663   9.445
  102POPC   GL1 4345  12.852  30.687   9.146
  102POPC   GL2 4346  12.631  30.971   9.038
  102POPC   C1A 4347  13.183  30.685   8.792
  102POPC   D2A 4348  13.227  30.817   8.383
  102POPC   C3A 4349  13.057  30.623   8.015
  102POPC   C4A 4350  12.805  30.908   7.810
  102POPC   C1B 4351  12.682  30.649   8.688
  102POPC   C2B 4352  12.595  30.579   8.260
  102POPC   C3B 4353  12.532  30.474   7.826
  102POPC   C4B 4354  12.562  30.635   7.397
  103POPC   NC3 4355   9.537  33.260   9.462
  103POPC   PO4 4356  10.050  32.857   9.469
  103POPC   GL1 4357   9.726  32.899   9.158
  103POPC   GL2 4358   9.579  32.543   9.149
  103POPC   C1A 4359   9.577  33.160   8.779
  103POPC   D2A 4360   9.259  33.439   8.570
  103POPC   C3A 4361   9.331  33.376   8.140
  103POPC   C4A 4362   9.535  33.133   7.789
  103POPC   C1B 4363   9.794  32.651   8.739
  103POPC   C2B 4364   9.925  32.955   8.415
  103POPC   C3B 4365   9.808  32.785   8.016
  103POPC   C4B 4366   9.665  32.623   7.601
  104POPC   NC3 4367   0.952   8.390   9.393
  104POPC   PO4 4368   1.504   8.091   9.116
  104POPC   GL1 4369   1.178   8.260   8.969
  104POPC   GL2 4370   0.943   8.041   9.024
  104POPC   C1A 4371   1.149   8.465   8.613
  104POPC   D2A 4372   1.483   8.435   8.329
  104POPC   C3A 4373   1.296   8.233   7.992
  104POPC   C4A 4374   1.472   8.245   7.590
  104POPC   C1B 4375   1.008   7.963   8.596
  104POPC   C2B 4376   0.767   8.112   8.290
  104POPC   C3B 4377   0.786   8.107   7.863
  104POPC   C4B 4378   1.010   8.101   7.517
  105POPC   NC3 4379  11.643  36.084   9.588
  105POPC   PO4 4380  11.213  36.513   9.554
  105POPC   GL1 4381  11.408  36.261   9.174
  105POPC   GL2 4382  11.299  35.898   9.124
  105POPC   C1A 4383  11.251  36.205   8.743
  105POPC   D2A 4384  11.436  36.208   8.376
  105POPC   C3A 4385  11.189  36.407   8.105
  105POPC   C4A 4386  11.303  36.229   7.739
  105POPC   C1B 4387  11.602  35.660   8.861
  105POPC   C2B 4388  11.724  35.754   8.423
  105POPC   C3B 4389  11.477  35.812   8.028
  105POPC   C4B 4390  11.600  35.818   7.596
  106POPC   NC3 4391  36.771  19.855   9.762
  106POPC   PO4 4392  36.793  20.533   9.547
  106POPC   GL1 4393  36.837  20.603   9.122
  106POPC   GL2 4394  37.181  20.477   9.035
  106POPC   C1A 4395  36.606  20.757   8.726
  106POPC   D2A 4396  36.452  20.717   8.275
  106POPC   C3A 4397  36.727  20.818   7.915
  106POPC   C4A 4398  36.816  20.662   7.465
  106POPC   C1B 4399  36.993  20.422   8.673
  106POPC   C2B 4400  36.963  20.499   8.241
  106POPC   C3B 4401  36.885  20.296   7.855
  106POPC   C4B 4402  37.122  20.256   7.482
  107POPC   NC3 4403  39.316  35.308   9.433
  107POPC   PO4 4404  38.711  35.084   9.349
  107POPC   GL1 4405  38.959  35.237   9.090
  107POPC   GL2 4406  38.908  35.572   9.191
  107POPC   C1A 4407  39.182  35.142   8.742
  107POPC   D2A 4408  39.288  35.204   8.320
  107POPC   C3A 4409  39.094  35.039   7.947
  107POPC   C4A 4410  39.263  35.010   7.534
  107POPC   C1B 4411  38.913  35.577   8.714
  107POPC   C2B 4412  39.241  35.696   8.395
  107POPC   C3B 4413  39.437  35.559   7.976
  107POPC   C4B 4414  39.094  35.703   7.767
  108POPC   NC3 4415  36.946  30.846   9.518
  108POPC   PO4 4416  36.485  30.319   9.413
  108POPC   GL1 4417  36.756  30.578   9.108
  108POPC   GL2 4418  36.760  30.955   9.048
  108POPC   C1A 4419  36.830  30.602   8.671
  108POPC   D2A 4420  36.958  30.315   8.407
  108POPC   C3A 4421  37.023  30.494   8.043
  108POPC   C4A 4422  36.712  30.577   7.780
  108POPC   C1B 4423  37.142  30.958   8.833
  108POPC   C2B 4424  37.067  31.128   8.433
  108POPC   C3B 4425  36.858  31.027   8.059
  108POPC   C4B 4426  37.105  30.904   7.748
  109POPC   NC3 4427  24.205  10.128   9.343
  109POPC   PO4 4428  24.551  10.514   9.682
  109POPC   GL1 4429  24.589  10.437   9.222
  109POPC   GL2 4430  24.331  10.513   9.029
  109POPC   C1A 4431  24.589  10.157   8.797
  109POPC   D2A 4432  24.330  10.170   8.430
  109POPC   C3A 4433  24.437  10.503   8.124
  109POPC   C4A 4434  24.690  10.632   7.765
  109POPC   C1B 4435  24.347  10.685   8.635
  109POPC   C2B 4436  24.031  10.798   8.332
  109POPC   C3B 4437  24.002  10.685   7.898
  109POPC   C4B 4438  24.159  10.861   7.476
  110POPC   NC3 4439   4.816  33.858   9.672
  110POPC   PO4 4440   5.371  34.069   9.617
  110POPC   GL1 4441   5.164  33.925   9.209
  110POPC   GL2 4442   4.965  33.648   9.193
  110POPC   C1A 4443   5.204  33.713   8.773
  110POPC   D2A 4444   5.086  33.529   8.372
  110POPC   C3A 4445   5.081  33.835   8.078
  110POPC   C4A 4446   5.121  33.828   7.675
  110POPC   C1B 4447   4.717  33.556   8.738
  110POPC   C2B 4448   4.571  33.447   8.328
  110POPC   C3B 4449   4.654  33.581   7.915
  110POPC   C4B 4450   4.803  33.487   7.515
  111POPC   NC3 4451  14.659  42.698   9.730
  111POPC   PO4 4452  14.409  43.255   9.508
  111POPC   GL1 4453  14.430  43.086   9.089
  111POPC   GL2 4454  14.182  43.295   9.031
  111POPC   C1A 4455  14.484  43.206   8.633
  111POPC   D2A 4456  14.466  42.930   8.291
  111POPC   C3A 4457  14.445  43.240   8.008
  111POPC   C4A 4458  14.501  43.317   7.640
  111POPC   C1B 4459  14.018  43.021   8.726
  111POPC   C2B 4460  14.057  43.223   8.343
  111POPC   C3B 4461  13.949  43.162   7.943
  111POPC   C4B 4462  14.046  43.182   7.514
  112POPC   NC3 4463   6.395  35.258   9.621
  112POPC   PO4 4464   6.917  35.593   9.404
  112POPC   GL1 4465   6.879  35.368   9.038
  112POPC   GL2 4466   6.539  35.376   9.101
  112POPC   C1A 4467   6.704  35.035   8.743
  112POPC   D2A 4468   6.475  35.102   8.359
  112POPC   C3A 4469   6.752  35.271   8.017
  112POPC   C4A 4470   6.882  35.655   7.792
  112POPC   C1B 4471   6.242  35.388   8.774
  112POPC   C2B 4472   6.028  35.655   8.483
  112POPC   C3B 4473   6.138  35.569   8.075
  112POPC   C4B 4474   6.348  35.425   7.750
  113POPC   NC3 4475  37.519  35.195   9.545
  113POPC   PO4 4476  37.985  35.776   9.448
  113POPC   GL1 4477  37.968  35.644   9.059
  113POPC   GL2 4478  37.744  35.384   9.143
  113POPC   C1A 4479  37.685  35.603   8.706
  113POPC   D2A 4480  37.792  35.469   8.310
  113POPC   C3A 4481  37.615  35.592   7.969
  113POPC   C4A 4482  37.735  35.539   7.553
  113POPC   C1B 4483  37.757  35.061   8.849
  113POPC   C2B 4484  37.832  34.978   8.431
  113POPC   C3B 4485  37.670  35.073   8.002
  113POPC   C4B 4486  37.853  35.070   7.593
  114POPC   NC3 4487  15.762  32.795   9.507
  114POPC   PO4 4488  16.405  32.815   9.685
  114POPC   GL1 4489  16.226  32.997   9.281
  114POPC   GL2 4490  16.071  33.330   9.160
  114POPC   C1A 4491  16.023  32.931   8.864
  114POPC   D2A 4492  16.079  32.952   8.427
  114POPC   C3A 4493  15.794  32.835   8.098
  114POPC   C4A 4494  16.034  33.060   7.774
  114POPC   C1B 4495  15.722  33.367   8.843
  114POPC   C2B 4496  15.631  33.264   8.374
  114POPC   C3B 4497  15.638  33.330   7.914
  114POPC   C4B 4498  15.613  33.313   7.446
  115POPC   NC3 4499   6.691  11.422   9.508
  115POPC   PO4 4500   6.431  10.806   9.625
  115POPC   GL1 4501   6.441  11.052   9.210
  115POPC   GL2 4502   6.283  11.387   9.243
  115POPC   C1A 4503   6.700  11.219   8.848
  115POPC   D2A 4504   6.957  11.448   8.533
  115POPC   C3A 4505   6.874  11.401   8.095
  115POPC   C4A 4506   6.677  11.173   7.787
  115POPC   C1B 4507   6.276  11.512   8.854
  115POPC   C2B 4508   6.164  11.523   8.455
  115POPC   C3B 4509   6.394  11.599   8.092
  115POPC   C4B 4510   6.262  11.480   7.721
  116POPC   NC3 4511  19.299  40.530   9.524
  116POPC   PO4 4512  18.869  40.900   9.518
  116POPC   GL1 4513  19.102  40.779   9.136
  116POPC   GL2 4514  19.037  40.437   9.081
  116POPC   C1A 4515  19.292  40.774   8.739
  116POPC   D2A 4516  19.479  40.870   8.315
  116POPC   C3A 4517  19.366  41.024   7.916
  116POPC   C4A 4518  19.120  41.313   7.733
  116POPC   C1B 4519  19.201  40.246   8.726
  116POPC   C2B 4520  19.271  40.391   8.314
  116POPC   C3B 4521  19.073  40.621   8.019
  116POPC   C4B 4522  18.807  40.414   7.736
  117POPC   NC3 4523  10.658  21.467   9.530
  117POPC   PO4 4524   9.974  21.309   9.499
  117POPC   GL1 4525  10.279  21.547   9.181
  117POPC   GL2 4526  10.463  21.259   9.127
  117POPC   C1A 4527  10.624  21.564   8.768
  117POPC   D2A 4528  10.504  21.539   8.302
  117POPC   C3A 4529  10.703  21.619   7.893
  117POPC   C4A 4530  10.604  21.853   7.520
  117POPC   C1B 4531  10.420  21.044   8.762
  117POPC   C2B 4532  10.562  21.048   8.369
  117POPC   C3B 4533  10.516  21.125   7.950
  117POPC   C4B 4534  10.711  20.950   7.594
  118POPC   NC3 4535  14.956  37.542   9.393
  118POPC   PO4 4536  15.522  37.955   9.389
  118POPC   GL1 4537  15.178  37.906   9.130
  118POPC   GL2 4538  15.344  37.585   9.040
  118POPC   C1A 4539  14.973  37.782   8.738
  118POPC   D2A 4540  15.001  37.438   8.429
  118POPC   C3A 4541  15.015  37.596   8.044
  118POPC   C4A 4542  14.954  37.986   7.835
  118POPC   C1B 4543  15.526  37.862   8.749
  118POPC   C2B 4544  15.348  37.808   8.377
  118POPC   C3B 4545  15.453  37.834   7.977
  118POPC   C4B 4546  15.403  37.450   7.693
  119POPC   NC3 4547  25.557   0.089   9.561
  119POPC   PO4 4548  24.998  44.657   9.412
  119POPC   GL1 4549  25.325  44.469   9.233
  119POPC   GL2 4550  25.501  44.737   9.132
  119POPC   C1A 4551  25.230  44.331   8.825
  119POPC   D2A 4552  25.138  44.540   8.471
  119POPC   C3A 4553  25.129  44.342   8.102
  119POPC   C4A 4554  25.320  44.537   7.776
  119POPC   C1B 4555  25.167  44.931   8.854
  119POPC   C2B 4556  25.143   0.066   8.425
  119POPC   C3B 4557  25.397  44.993   8.044
  119POPC   C4B 4558  25.408   0.236   7.653
  120POPC   NC3 4559  40.644  16.111   9.523
  120POPC   PO4 4560  41.192  15.877   9.295
  120POPC   GL1 4561  40.906  15.973   9.007
  120POPC   GL2 4562  40.582  15.924   9.065
  120POPC   C1A 4563  40.766  16.274   8.730
  120POPC   D2A 4564  40.507  16.360   8.388
  120POPC   C3A 4565  40.630  16.098   8.056
  120POPC   C4A 4566  40.841  16.137   7.678
  120POPC   C1B 4567  40.448  15.710   8.722
  120POPC   C2B 4568  40.250  15.702   8.347
  120POPC   C3B 4569  40.310  15.724   7.936
  120POPC   C4B 4570  40.653  15.656   7.717
  121POPC   NC3 4571  12.107  33.076   9.567
  121POPC   PO4 4572  12.144  32.456   9.499
  121POPC   GL1 4573  12.044  32.777   9.145
  121POPC   GL2 4574  12.237  33.129   9.092
  121POPC   C1A 4575  11.916  32.974   8.733
  121POPC   D2A 4576  11.861  33.186   8.321
  121POPC   C3A 4577  11.909  32.849   7.997
  121POPC   C4A 4578  12.318  32.665   7.825
  121POPC   C1B 4579  12.250  33.385   8.714
  121POPC   C2B 4580  12.364  33.267   8.307
  121POPC   C3B 4581  12.213  33.239   7.905
  121POPC   C4B 4582  12.183  33.413   7.510
  122POPC   NC3 4583   1.554  42.069   9.348
  122POPC   PO4 4584   1.984  42.549   9.493
  122POPC   GL1 4585   1.962  42.354   9.098
  122POPC   GL2 4586   2.009  41.980   9.121
  122POPC   C1A 4587   2.097  42.477   8.670
  122POPC   D2A 4588   2.289  42.372   8.270
  122POPC   C3A 4589   2.008  42.503   7.925
  122POPC   C4A 4590   2.139  42.495   7.493
  122POPC   C1B 4591   1.802  42.053   8.718
  122POPC   C2B 4592   1.819  42.181   8.313
  122POPC   C3B 4593   1.612  42.139   7.937
  122POPC   C4B 4594   1.841  42.068   7.568
  123POPC   NC3 4595  26.481   6.901   9.801
  123POPC   PO4 4596  26.639   7.489   9.453
  123POPC   GL1 4597  26.681   7.367   9.023
  123POPC   GL2 4598  26.394   7.186   8.857
  123POPC   C1A 4599  26.750   7.470   8.644
  123POPC   D2A 4600  26.597   7.312   8.326
  123POPC   C3A 4601  26.614   7.519   7.974
  123POPC   C4A 4602  26.664   7.308   7.597
  123POPC   C1B 4603  26.706   6.931   8.666
  123POPC   C2B 4604  26.983   6.953   8.377
  123POPC   C3B 4605  26.879   7.072   7.985
  123POPC   C4B 4606  27.082   7.018   7.615
  124POPC   NC3 4607  40.573   0.850   9.466
  124POPC   PO4 4608  40.397   1.563   9.471
  124POPC   GL1 4609  40.605   1.274   9.145
  124POPC   GL2 4610  40.800   1.007   9.039
  124POPC   C1A 4611  40.671   1.297   8.677
  124POPC   D2A 4612  40.979   1.223   8.375
  124POPC   C3A 4613  40.727   1.246   8.025
  124POPC   C4A 4614  40.726   1.558   7.686
  124POPC   C1B 4615  41.127   0.836   8.804
  124POPC   C2B 4616  41.246   0.760   8.392
  124POPC   C3B 4617  41.071   0.838   8.005
  124POPC   C4B 4618  41.178   0.807   7.605
  125POPC   NC3 4619   3.826  30.030   9.408
  125POPC   PO4 4620   3.249  29.912   9.704
  125POPC   GL1 4621   3.311  30.060   9.249
  125POPC   GL2 4622   3.423  30.405   9.278
  125POPC   C1A 4623   3.339  29.873   8.801
  125POPC   D2A 4624   3.256  29.928   8.344
  125POPC   C3A 4625   3.557  29.705   8.070
  125POPC   C4A 4626   3.548  29.823   7.653
  125POPC   C1B 4627   3.561  30.366   8.845
  125POPC   C2B 4628   3.615  30.429   8.419
  125POPC   C3B 4629   3.583  30.218   8.030
  125POPC   C4B 4630   3.594  30.357   7.636
  126POPC   NC3 4631   3.368  35.799   9.890
  126POPC   PO4 4632   3.659  36.103   9.384
  126POPC   GL1 4633   3.381  36.078   9.082
  126POPC   GL2 4634   3.246  36.334   9.138
  126POPC   C1A 4635   3.423  35.892   8.701
  126POPC   D2A 4636   3.583  36.088   8.358
  126POPC   C3A 4637   3.603  35.914   7.969
  126POPC   C4A 4638   3.954  35.860   7.728
  126POPC   C1B 4639   3.474  36.441   8.744
  126POPC   C2B 4640   3.375  36.629   8.381
  126POPC   C3B 4641   3.349  36.389   8.022
  126POPC   C4B 4642   3.530  36.302   7.599
  127POPC   NC3 4643  11.479  23.104   9.571
  127POPC   PO4 4644  10.913  22.730   9.392
  127POPC   GL1 4645  11.288  22.852   9.141
  127POPC   GL2 4646  11.349  23.196   9.075
  127POPC   C1A 4647  11.517  22.870   8.728
  127POPC   D2A 4648  11.506  23.104   8.330
  127POPC   C3A 4649  11.396  22.880   7.959
  127POPC   C4A 4650  11.598  22.615   7.677
  127POPC   C1B 4651  11.041  23.096   8.745
  127POPC   C2B 4652  11.007  22.901   8.339
  127POPC   C3B 4653  10.990  23.193   7.991
  127POPC   C4B 4654  11.370  23.363   7.801
  128POPC   NC3 4655   7.147   6.108   9.399
  128POPC   PO4 4656   7.448   5.494   9.535
  128POPC   GL1 4657   7.307   5.692   9.150
  128POPC   GL2 4658   7.448   6.016   8.990
  128POPC   C1A 4659   7.152   5.693   8.731
  128POPC   D2A 4660   7.421   5.842   8.384
  128POPC   C3A 4661   7.256   5.857   7.961
  128POPC   C4A 4662   7.135   5.492   7.727
  128POPC   C1B 4663   7.323   6.299   8.632
  128POPC   C2B 4664   7.362   6.330   8.187
  128POPC   C3B 4665   7.703   6.105   7.989
  128POPC   C4B 4666   7.679   5.891   7.614
  129POPC   NC3 4667  28.772  10.249   9.596
  129POPC   PO4 4668  28.107  10.510   9.584
  129POPC   GL1 4669  28.487  10.640   9.327
  129POPC   GL2 4670  28.217  10.572   9.073
  129POPC   C1A 4671  28.677  10.704   8.906
  129POPC   D2A 4672  28.403  10.507   8.585
  129POPC   C3A 4673  28.364  10.637   8.172
  129POPC   C4A 4674  28.583  10.474   7.825
  129POPC   C1B 4675  27.991  10.260   8.817
  129POPC   C2B 4676  28.044  10.119   8.422
  129POPC   C3B 4677  28.269  10.147   8.075
  129POPC   C4B 4678  28.097  10.407   7.783
  130POPC   NC3 4679   9.078  38.162   9.542
  130POPC   PO4 4680   9.107  37.543   9.451
  130POPC   GL1 4681   9.049  37.805   9.086
  130POPC   GL2 4682   8.932  37.475   8.945
  130POPC   C1A 4683   8.886  37.858   8.636
  130POPC   D2A 4684   9.095  37.691   8.281
  130POPC   C3A 4685   8.934  37.716   7.905
  130POPC   C4A 4686   8.969  37.796   7.495
  130POPC   C1B 4687   8.761  37.377   8.522
  130POPC   C2B 4688   8.532  37.553   8.167
  130POPC   C3B 4689   8.529  37.395   7.720
  130POPC   C4B 4690   8.821  37.346   7.344
  131POPC   NC3 4691  20.200  25.459   9.501
  131POPC   PO4 4692  20.802  25.140   9.486
  131POPC   GL1 4693  20.688  25.247   9.110
  131POPC   GL2 4694  20.593  25.576   9.169
  131POPC   C1A 4695  20.739  25.083   8.710
  131POPC   D2A 4696  20.599  25.221   8.320
  131POPC   C3A 4697  20.837  25.231   7.960
  131POPC   C4A 4698  20.587  25.061   7.730
  131POPC   C1B 4699  20.455  25.519   8.737
  131POPC   C2B 4700  20.544  25.717   8.334
  131POPC   C3B 4701  20.450  25.566   7.931
  131POPC   C4B 4702  20.253  25.413   7.583
  132POPC   NC3 4703   8.685  41.961   9.776
  132POPC   PO4 4704   8.973  42.546   9.479
  132POPC   GL1 4705   8.920  42.450   9.043
  132POPC   GL2 4706   8.689  42.143   9.035
  132POPC   C1A 4707   9.224  42.349   8.706
  132POPC   D2A 4708   9.171  42.182   8.288
  132POPC   C3A 4709   9.096  42.386   7.875
  132POPC   C4A 4710   9.315  42.358   7.452
  132POPC   C1B 4711   8.775  42.109   8.643
  132POPC   C2B 4712   8.600  41.986   8.306
  132POPC   C3B 4713   8.563  42.119   7.939
  132POPC   C4B 4714   8.544  41.756   7.733
  133POPC   NC3 4715   1.639  40.215   9.780
  133POPC   PO4 4716   1.220  39.963   9.314
  133POPC   GL1 4717   1.401  39.935   8.925
  133POPC   GL2 4718   1.063  40.020   8.809
  133POPC   C1A 4719   1.469  39.978   8.504
  133POPC   D2A 4720   1.112  40.109   8.301
  133POPC   C3A 4721   1.055  39.830   8.007
  133POPC   C4A 4722   1.234  39.533   7.742
  133POPC   C1B 4723   1.284  40.426   8.679
  133POPC   C2B 4724   1.479  40.444   8.250
  133POPC   C3B 4725   1.275  40.275   7.848
  133POPC   C4B 4726   0.792  40.252   7.868
  134POPC   NC3 4727  35.528  41.556   9.596
  134POPC   PO4 4728  34.923  41.155   9.451
  134POPC   GL1 4729  35.185  41.298   9.127
  134POPC   GL2 4730  35.360  41.607   9.139
  134POPC   C1A 4731  35.324  41.317   8.708
  134POPC   D2A 4732  35.417  41.169   8.306
  134POPC   C3A 4733  35.561  41.458   8.013
  134POPC   C4A 4734  35.376  41.428   7.610
  134POPC   C1B 4735  35.208  41.820   8.821
  134POPC   C2B 4736  35.428  41.768   8.455
  134POPC   C3B 4737  35.272  41.877   8.097
  134POPC   C4B 4738  35.549  41.925   7.799
  135POPC   NC3 4739  23.560  13.728   9.469
  135POPC   PO4 4740  24.257  13.749   9.376
  135POPC   GL1 4741  23.927  13.950   9.154
  135POPC   GL2 4742  24.078  13.965   8.865
  135POPC   C1A 4743  23.567  13.948   8.843
  135POPC   D2A 4744  23.455  13.770   8.447
  135POPC   C3A 4745  23.538  13.907   8.034
  135POPC   C4A 4746  23.392  13.613   7.759
  135POPC   C1B 4747  23.931  13.625   8.645
  135POPC   C2B 4748  24.002  13.608   8.201
  135POPC   C3B 4749  23.902  13.640   7.785
  135POPC   C4B 4750  24.023  13.473   7.398
  136POPC   NC3 4751   7.903  23.947   9.372
  136POPC   PO4 4752   7.833  23.284   9.496
  136POPC   GL1 4753   7.932  23.506   9.133
  136POPC   GL2 4754   8.280  23.459   9.102
  136POPC   C1A 4755   8.067  23.715   8.735
  136POPC   D2A 4756   8.171  23.485   8.381
  136POPC   C3A 4757   7.989  23.645   8.021
  136POPC   C4A 4758   7.865  23.559   7.625
  136POPC   C1B 4759   8.536  23.335   8.741
  136POPC   C2B 4760   8.710  23.449   8.315
  136POPC   C3B 4761   8.510  23.715   8.039
  136POPC   C4B 4762   8.356  23.635   7.672
  137POPC   NC3 4763  29.818  20.905   9.302
  137POPC   PO4 4764  30.182  20.394   9.463
  137POPC   GL1 4765  30.163  20.509   9.105
  137POPC   GL2 4766  30.282  20.862   9.125
  137POPC   C1A 4767  29.911  20.290   8.776
  137POPC   D2A 4768  29.763  20.248   8.344
  137POPC   C3A 4769  29.883  20.613   8.096
  137POPC   C4A 4770  30.158  20.534   7.791
  137POPC   C1B 4771  30.113  20.775   8.699
  137POPC   C2B 4772  30.249  20.981   8.386
  137POPC   C3B 4773  30.461  20.902   8.068
  137POPC   C4B 4774  30.142  21.021   7.812
  138POPC   NC3 4775  27.364  20.082   9.483
  138POPC   PO4 4776  27.782  19.549   9.719
  138POPC   GL1 4777  27.687  19.622   9.258
  138POPC   GL2 4778  27.666  19.929   9.120
  138POPC   C1A 4779  27.425  19.566   8.852
  138POPC   D2A 4780  27.253  19.449   8.462
  138POPC   C3A 4781  27.286  19.710   8.092
  138POPC   C4A 4782  27.430  19.536   7.690
  138POPC   C1B 4783  27.905  20.120   8.821
  138POPC   C2B 4784  27.786  20.308   8.466
  138POPC   C3B 4785  27.920  20.206   8.067
  138POPC   C4B 4786  27.652  20.153   7.693
  139POPC   NC3 4787  20.731  38.901   9.504
  139POPC   PO4 4788  20.515  39.555   9.422
  139POPC   GL1 4789  20.645  39.319   9.127
  139POPC   GL2 4790  20.470  39.034   9.051
  139POPC   C1A 4791  20.539  39.443   8.711
  139POPC   D2A 4792  20.690  39.678   8.356
  139POPC   C3A 4793  20.514  39.763   7.995
  139POPC   C4A 4794  20.499  39.378   7.818
  139POPC   C1B 4795  20.675  38.867   8.704
  139POPC   C2B 4796  20.613  38.758   8.270
  139POPC   C3B 4797  20.565  38.875   7.836
  139POPC   C4B 4798  20.247  39.034   7.505
  140POPC   NC3 4799  31.131  21.221   9.516
  140POPC   PO4 4800  30.687  21.608   9.745
  140POPC   GL1 4801  30.833  21.536   9.255
  140POPC   GL2 4802  30.555  21.536   9.065
  140POPC   C1A 4803  30.931  21.294   8.810
  140POPC   D2A 4804  30.801  21.140   8.381
  140POPC   C3A 4805  30.891  21.320   8.000
  140POPC   C4A 4806  30.574  21.284   7.704
  140POPC   C1B 4807  30.773  21.791   8.755
  140POPC   C2B 4808  30.803  21.726   8.310
  140POPC   C3B 4809  30.645  21.749   7.888
  140POPC   C4B 4810  30.793  21.720   7.442
  141POPC   NC3 4811   3.603   5.025   9.550
  141POPC   PO4 4812   3.199   5.449   9.146
  141POPC   GL1 4813   3.503   5.236   8.931
  141POPC   GL2 4814   3.703   4.920   9.066
  141POPC   C1A 4815   3.339   5.162   8.495
  141POPC   D2A 4816   3.456   4.960   8.136
  141POPC   C3A 4817   3.593   5.234   7.840
  141POPC   C4A 4818   3.740   5.587   7.688
  141POPC   C1B 4819   3.757   4.900   8.637
  141POPC   C2B 4820   3.962   4.728   8.282
  141POPC   C3B 4821   3.871   4.803   7.879
  141POPC   C4B 4822   3.712   4.904   7.467
  142POPC   NC3 4823   4.812  28.784   9.476
  142POPC   PO4 4824   5.178  29.455   9.452
  142POPC   GL1 4825   5.096  29.112   9.212
  142POPC   GL2 4826   4.838  29.294   9.072
  142POPC   C1A 4827   5.019  28.886   8.821
  142POPC   D2A 4828   4.943  29.083   8.431
  142POPC   C3A 4829   5.111  28.892   8.070
  142POPC   C4A 4830   4.993  29.006   7.662
  142POPC   C1B 4831   5.151  29.408   8.775
  142POPC   C2B 4832   5.263  29.527   8.352
  142POPC   C3B 4833   5.237  29.395   7.898
  142POPC   C4B 4834   5.324  29.311   7.449
  143POPC   NC3 4835   0.659  38.255   9.411
  143POPC   PO4 4836   0.109  38.721   9.543
  143POPC   GL1 4837   0.248  38.579   9.141
  143POPC   GL2 4838  44.917  38.456   9.112
  143POPC   C1A 4839   0.446  38.683   8.704
  143POPC   D2A 4840   0.632  38.864   8.295
  143POPC   C3A 4841   0.506  38.612   7.922
  143POPC   C4A 4842   0.475  38.127   7.901
  143POPC   C1B 4843  44.997  38.453   8.664
  143POPC   C2B 4844   0.223  38.384   8.275
  143POPC   C3B 4845   0.048  38.420   7.831
  143POPC   C4B 4846  44.978  38.524   7.373
  144POPC   NC3 4847  23.114   0.530   9.562
  144POPC   PO4 4848  23.250   0.020   9.136
  144POPC   GL1 4849  22.936   0.316   9.077
  144POPC   GL2 4850  22.953   0.660   9.116
  144POPC   C1A 4851  22.813   0.392   8.660
  144POPC   D2A 4852  22.579   0.558   8.316
  144POPC   C3A 4853  22.649   0.311   7.945
  144POPC   C4A 4854  22.909   0.586   7.626
  144POPC   C1B 4855  23.225   0.702   8.785
  144POPC   C2B 4856  23.118   0.732   8.362
  144POPC   C3B 4857  23.136   0.403   8.050
  144POPC   C4B 4858  23.362   0.308   7.656
  145POPC   NC3 4859  33.825  14.357   9.496
  145POPC   PO4 4860  34.394  14.210   9.825
  145POPC   GL1 4861  34.274  14.315   9.309
  145POPC   GL2 4862  34.011  14.166   9.054
  145POPC   C1A 4863  34.250  14.551   8.843
  145POPC   D2A 4864  33.933  14.587   8.471
  145POPC   C3A 4865  34.113  14.616   8.033
  145POPC   C4A 4866  34.115  14.325   7.687
  145POPC   C1B 4867  33.593  14.069   8.854
  145POPC   C2B 4868  33.426  14.306   8.470
  145POPC   C3B 4869  33.619  14.351   8.054
  145POPC   C4B 4870  33.422  14.274   7.663
  146POPC   NC3 4871  36.115   7.891   9.438
  146POPC   PO4 4872  36.595   7.487   9.644
  146POPC   GL1 4873  36.264   7.429   9.191
  146POPC   GL2 4874  35.990   7.644   9.025
  146POPC   C1A 4875  36.389   7.317   8.735
  146POPC   D2A 4876  36.215   7.031   8.392
  146POPC   C3A 4877  36.329   7.050   7.972
  146POPC   C4A 4878  36.335   7.392   7.817
  146POPC   C1B 4879  35.940   7.533   8.617
  146POPC   C2B 4880  36.221   7.526   8.289
  146POPC   C3B 4881  35.891   7.399   8.033
  146POPC   C4B 4882  35.617   7.517   7.695
  147POPC   NC3 4883  19.234   1.589   9.342
  147POPC   PO4 4884  18.794   1.975   9.611
  147POPC   GL1 4885  18.906   1.984   9.190
  147POPC   GL2 4886  18.741   1.662   9.184
  147POPC   C1A 4887  19.130   2.107   8.776
  147POPC   D2A 4888  19.249   1.941   8.361
  147POPC   C3A 4889  18.960   2.129   8.088
  147POPC   C4A 4890  18.843   2.301   7.716
  147POPC   C1B 4891  18.890   1.675   8.775
  147POPC   C2B 4892  18.783   1.743   8.385
  147POPC   C3B 4893  19.031   1.631   8.014
  147POPC   C4B 4894  18.838   1.795   7.676
  148POPC   NC3 4895  19.565  26.244   9.387
  148POPC   PO4 4896  20.176  25.917   9.551
  148POPC   GL1 4897  19.915  25.806   9.223
  148POPC   GL2 4898  19.963  26.137   9.087
  148POPC   C1A 4899  19.962  25.692   8.800
  148POPC   D2A 4900  20.052  25.811   8.387
  148POPC   C3A 4901  19.862  26.063   8.124
  148POPC   C4A 4902  19.960  25.793   7.769
  148POPC   C1B 4903  19.861  26.204   8.670
  148POPC   C2B 4904  19.524  26.341   8.410
  148POPC   C3B 4905  19.396  26.287   7.988
  148POPC   C4B 4906  19.649  26.164   7.638
  149POPC   NC3 4907  19.376   8.444   9.430
  149POPC   PO4 4908  20.056   8.136   9.419
  149POPC   GL1 4909  20.016   8.279   9.029
  149POPC   GL2 4910  19.707   8.361   9.063
  149POPC   C1A 4911  19.816   8.214   8.588
  149POPC   D2A 4912  19.954   8.346   8.187
  149POPC   C3A 4913  20.043   8.023   7.885
  149POPC   C4A 4914  19.627   7.842   7.994
  149POPC   C1B 4915  19.737   8.675   8.752
  149POPC   C2B 4916  19.473   8.649   8.429
  149POPC   C3B 4917  19.476   8.399   8.062
  149POPC   C4B 4918  19.737   8.374   7.676
  150POPC   NC3 4919  33.557  31.833   9.485
  150POPC   PO4 4920  32.883  31.689   9.461
  150POPC   GL1 4921  33.140  31.582   9.149
  150POPC   GL2 4922  33.258  31.895   9.106
  150POPC   C1A 4923  32.993  31.586   8.720
  150POPC   D2A 4924  32.909  31.254   8.417
  150POPC   C3A 4925  33.019  31.367   8.016
  150POPC   C4A 4926  32.842  31.376   7.631
  150POPC   C1B 4927  33.483  31.704   8.781
  150POPC   C2B 4928  33.409  31.441   8.405
  150POPC   C3B 4929  33.508  31.540   7.987
  150POPC   C4B 4930  33.358  31.552   7.588
  151POPC   NC3 4931  18.883  20.188   9.446
  151POPC   PO4 4932  19.277  19.650   9.486
  151POPC   GL1 4933  19.154  19.836   9.146
  151POPC   GL2 4934  19.249  20.195   9.088
  151POPC   C1A 4935  18.903  19.718   8.799
  151POPC   D2A 4936  18.732  19.560   8.417
  151POPC   C3A 4937  18.863  19.736   8.012
  151POPC   C4A 4938  18.761  19.592   7.581
  151POPC   C1B 4939  19.399  19.966   8.742
  151POPC   C2B 4940  19.206  19.837   8.392
  151POPC   C3B 4941  19.336  19.971   8.018
  151POPC   C4B 4942  19.218  19.818   7.657
  152POPC   NC3 4943   4.451   3.711   9.497
  152POPC   PO4 4944   3.777   3.671   9.443
  152POPC   GL1 4945   4.070   3.707   9.144
  152POPC   GL2 4946   4.117   3.383   9.172
  152POPC   C1A 4947   4.229   3.821   8.734
  152POPC   D2A 4948   4.402   3.622   8.354
  152POPC   C3A 4949   4.318   3.854   7.990
  152POPC   C4A 4950   4.289   3.693   7.574
  152POPC   C1B 4951   4.225   3.292   8.771
  152POPC   C2B 4952   4.096   3.165   8.370
  152POPC   C3B 4953   4.286   3.228   7.981
  152POPC   C4B 4954   4.442   3.198   7.557
  153POPC   NC3 4955  40.707  43.433   9.267
  153POPC   PO4 4956  41.031  42.941   9.520
  153POPC   GL1 4957  40.899  42.958   9.124
  153POPC   GL2 4958  40.551  42.950   9.129
  153POPC   C1A 4959  40.987  43.043   8.713
  153POPC   D2A 4960  40.824  43.308   8.396
  153POPC   C3A 4961  40.947  43.182   7.992
  153POPC   C4A 4962  41.028  42.837   7.686
  153POPC   C1B 4963  40.447  43.112   8.762
  153POPC   C2B 4964  40.246  42.942   8.400
  153POPC   C3B 4965  40.409  43.072   8.038
  153POPC   C4B 4966  40.579  43.060   7.657
  154POPC   NC3 4967  31.950  40.896   9.551
  154POPC   PO4 4968  31.291  40.698   9.503
  154POPC   GL1 4969  31.552  40.722   9.179
  154POPC   GL2 4970  31.315  40.518   9.022
  154POPC   C1A 4971  31.625  40.807   8.738
  154POPC   D2A 4972  31.393  41.069   8.477
  154POPC   C3A 4973  31.469  41.059   8.084
  154POPC   C4A 4974  31.437  41.336   7.842
  154POPC   C1B 4975  31.133  40.651   8.655
  154POPC   C2B 4976  31.285  40.622   8.251
  154POPC   C3B 4977  31.374  40.651   7.793
  154POPC   C4B 4978  31.723  40.530   7.492
  155POPC   NC3 4979   3.361   9.929   9.405
  155POPC   PO4 4980   3.880   9.561   9.652
  155POPC   GL1 4981   3.823   9.754   9.208
  155POPC   GL2 4982   4.017  10.066   9.190
  155POPC   C1A 4983   3.530   9.682   8.806
  155POPC   D2A 4984   3.312   9.774   8.381
  155POPC   C3A 4985   3.604   9.585   8.050
  155POPC   C4A 4986   3.559   9.761   7.639
  155POPC   C1B 4987   3.809  10.118   8.801
  155POPC   C2B 4988   3.780   9.971   8.385
  155POPC   C3B 4989   3.553  10.101   8.029
  155POPC   C4B 4990   3.803  10.209   7.680
  156POPC   NC3 4991  42.353  15.844   9.562
  156POPC   PO4 4992  42.015  16.429   9.429
  156POPC   GL1 4993  42.157  16.091   9.132
  156POPC   GL2 4994  42.183  15.678   9.132
  156POPC   C1A 4995  42.317  16.202   8.708
  156POPC   D2A 4996  42.123  16.299   8.304
  156POPC   C3A 4997  42.409  16.106   8.020
  156POPC   C4A 4998  42.753  15.912   7.864
  156POPC   C1B 4999  42.025  15.783   8.758
  156POPC   C2B 5000  42.222  15.778   8.392
  156POPC   C3B 5001  42.206  15.649   7.997
  156POPC   C4B 5002  42.396  15.681   7.598
  157POPC   NC3 5003  17.794   4.147   9.546
  157POPC   PO4 5004  17.881   4.762   9.455
  157POPC   GL1 5005  17.681   4.495   9.134
  157POPC   GL2 5006  17.562   4.121   9.100
  157POPC   C1A 5007  17.798   4.378   8.730
  157POPC   D2A 5008  17.705   4.549   8.363
  157POPC   C3A 5009  17.509   4.302   8.106
  157POPC   C4A 5010  17.472   4.503   7.771
  157POPC   C1B 5011  17.305   4.174   8.730
  157POPC   C2B 5012  17.060   4.304   8.384
  157POPC   C3B 5013  17.043   4.186   7.936
  157POPC   C4B 5014  17.409   4.020   7.644
  158POPC   NC3 5015  34.983  42.611   9.457
  158POPC   PO4 5016  35.204  41.942   9.511
  158POPC   GL1 5017  35.421  42.174   9.162
  158POPC   GL2 5018  35.308  42.533   9.058
  158POPC   C1A 5019  35.572  42.195   8.731
  158POPC   D2A 5020  35.296  42.295   8.396
  158POPC   C3A 5021  35.438  42.381   8.014
  158POPC   C4A 5022  35.404  42.595   7.686
  158POPC   C1B 5023  35.070  42.818   8.749
  158POPC   C2B 5024  35.195  42.877   8.282
  158POPC   C3B 5025  35.012  42.877   7.848
  158POPC   C4B 5026  35.093  42.858   7.385
  159POPC   NC3 5027  12.501  20.063   9.520
  159POPC   PO4 5028  12.078  19.513   9.516
  159POPC   GL1 5029  12.241  19.727   9.187
  159POPC   GL2 5030  11.886  19.660   9.039
  159POPC   C1A 5031  12.238  19.945   8.800
  159POPC   D2A 5032  12.006  19.779   8.481
  159POPC   C3A 5033  12.126  19.983   8.105
  159POPC   C4A 5034  12.126  20.306   7.805
  159POPC   C1B 5035  11.660  19.425   8.724
  159POPC   C2B 5036  11.642  19.493   8.277
  159POPC   C3B 5037  11.978  19.518   7.994
  159POPC   C4B 5038  12.273  19.698   7.715
  160POPC   NC3 5039  31.716   7.113   9.456
  160POPC   PO4 5040  32.273   7.579   9.656
  160POPC   GL1 5041  32.352   7.510   9.227
  160POPC   GL2 5042  32.091   7.572   8.985
  160POPC   C1A 5043  32.553   7.503   8.831
  160POPC   D2A 5044  32.465   7.740   8.533
  160POPC   C3A 5045  32.329   7.474   8.198
  160POPC   C4A 5046  32.424   7.495   7.783
  160POPC   C1B 5047  32.111   7.301   8.637
  160POPC   C2B 5048  31.930   7.122   8.286
  160POPC   C3B 5049  31.934   7.269   7.875
  160POPC   C4B 5050  32.006   7.429   7.490
  161POPC   NC3 5051   4.047  20.181   9.565
  161POPC   PO4 5052   4.338  19.555   9.553
  161POPC   GL1 5053   4.110  19.748   9.248
  161POPC   GL2 5054   4.373  19.997   9.199
  161POPC   C1A 5055   4.062  19.824   8.817
  161POPC   D2A 5056   4.259  19.711   8.410
  161POPC   C3A 5057   4.026  19.675   8.010
  161POPC   C4A 5058   4.064  19.830   7.592
  161POPC   C1B 5059   4.565  19.959   8.788
  161POPC   C2B 5060   4.514  20.175   8.397
  161POPC   C3B 5061   4.309  20.108   7.988
  161POPC   C4B 5062   4.486  20.124   7.567
  162POPC   NC3 5063  26.379  24.148   9.294
  162POPC   PO4 5064  26.829  24.615   9.553
  162POPC   GL1 5065  26.825  24.707   9.126
  162POPC   GL2 5066  26.800  24.359   9.099
  162POPC   C1A 5067  26.866  24.613   8.664
  162POPC   D2A 5068  26.538  24.432   8.411
  162POPC   C3A 5069  26.599  24.289   8.005
  162POPC   C4A 5070  26.796  24.371   7.648
  162POPC   C1B 5071  26.830  24.113   8.750
  162POPC   C2B 5072  26.917  24.079   8.350
  162POPC   C3B 5073  27.058  24.447   8.176
  162POPC   C4B 5074  27.203  24.626   7.809
  163POPC   NC3 5075   9.904   8.909   9.621
  163POPC   PO4 5076   9.235   8.919   9.551
  163POPC   GL1 5077   9.539   8.870   9.200
  163POPC   GL2 5078   9.780   9.116   9.164
  163POPC   C1A 5079   9.666   8.853   8.756
  163POPC   D2A 5080   9.509   8.723   8.386
  163POPC   C3A 5081   9.810   8.796   8.090
  163POPC   C4A 5082   9.607   8.978   7.793
  163POPC   C1B 5083   9.610   9.364   8.798
  163POPC   C2B 5084   9.714   9.252   8.356
  163POPC   C3B 5085   9.574   9.453   7.967
  163POPC   C4B 5086   9.653   9.366   7.482
  164POPC   NC3 5087  14.225  10.956   9.349
  164POPC   PO4 5088  14.526  11.392   9.786
  164POPC   GL1 5089  14.548  11.367   9.297
  164POPC   GL2 5090  14.250  11.339   9.016
  164POPC   C1A 5091  14.689  11.134   8.904
  164POPC   D2A 5092  14.493  11.216   8.511
  164POPC   C3A 5093  14.767  11.235   8.174
  164POPC   C4A 5094  14.601  11.214   7.785
  164POPC   C1B 5095  13.921  11.170   8.752
  164POPC   C2B 5096  13.838  11.112   8.330
  164POPC   C3B 5097  14.136  11.267   8.027
  164POPC   C4B 5098  14.166  10.951   7.734
  165POPC   NC3 5099  21.052   0.471   9.432
  165POPC   PO4 5100  21.695   0.668   9.472
  165POPC   GL1 5101  21.494   0.331   9.201
  165POPC   GL2 5102  21.702   0.107   9.046
  165POPC   C1A 5103  21.306   0.266   8.771
  165POPC   D2A 5104  21.239   0.445   8.380
  165POPC   C3A 5105  21.204   0.179   8.047
  165POPC   C4A 5106  21.425   0.498   7.871
  165POPC   C1B 5107  21.792   0.184   8.633
  165POPC   C2B 5108  21.714   0.178   8.193
  165POPC   C3B 5109  21.779   0.180   7.758
  165POPC   C4B 5110  21.810   0.131   7.328
  166POPC   NC3 5111  41.349  15.451   9.353
  166POPC   PO4 5112  41.784  14.842   9.431
  166POPC   GL1 5113  41.611  15.057   9.114
  166POPC   GL2 5114  41.781  15.358   9.116
  166POPC   C1A 5115  41.352  15.186   8.773
  166POPC   D2A 5116  41.305  15.410   8.412
  166POPC   C3A 5117  41.407  15.170   8.105
  166POPC   C4A 5118  41.435  15.375   7.759
  166POPC   C1B 5119  41.848  15.309   8.709
  166POPC   C2B 5120  41.803  15.464   8.317
  166POPC   C3B 5121  41.903  15.250   7.943
  166POPC   C4B 5122  41.939  15.455   7.610
  167POPC   NC3 5123  23.291  12.119   9.456
  167POPC   PO4 5124  22.941  11.674   9.733
  167POPC   GL1 5125  22.901  11.903   9.253
  167POPC   GL2 5126  22.633  12.114   9.227
  167POPC   C1A 5127  23.052  11.991   8.825
  167POPC   D2A 5128  23.084  12.149   8.414
  167POPC   C3A 5129  23.025  11.909   8.068
  167POPC   C4A 5130  22.957  12.051   7.611
  167POPC   C1B 5131  22.602  12.240   8.807
  167POPC   C2B 5132  22.569  12.330   8.380
  167POPC   C3B 5133  22.759  12.351   7.980
  167POPC   C4B 5134  22.660  12.469   7.550
  168POPC   NC3 5135  37.362  43.755   9.463
  168POPC   PO4 5136  36.708  43.839   9.462
  168POPC   GL1 5137  36.893  43.995   9.048
  168POPC   GL2 5138  37.172  44.120   9.082
  168POPC   C1A 5139  36.925  44.069   8.589
  168POPC   D2A 5140  36.749  43.772   8.251
  168POPC   C3A 5141  36.833  43.960   7.854
  168POPC   C4A 5142  37.068  44.329   7.816
  168POPC   C1B 5143  37.376  43.908   8.771
  168POPC   C2B 5144  37.261  43.766   8.336
  168POPC   C3B 5145  37.337  43.871   7.903
  168POPC   C4B 5146  37.298  44.010   7.472
  169POPC   NC3 5147  42.631  32.876   9.453
  169POPC   PO4 5148  42.169  33.287   9.667
  169POPC   GL1 5149  42.336  33.170   9.177
  169POPC   GL2 5150  42.657  33.182   9.036
  169POPC   C1A 5151  42.153  33.053   8.742
  169POPC   D2A 5152  42.125  33.286   8.344
  169POPC   C3A 5153  42.106  33.075   7.966
  169POPC   C4A 5154  42.293  33.244   7.614
  169POPC   C1B 5155  42.521  33.413   8.675
  169POPC   C2B 5156  42.637  33.457   8.232
  169POPC   C3B 5157  42.605  33.097   8.008
  169POPC   C4B 5158  42.821  32.793   7.842
  170POPC   NC3 5159  29.354  21.152   9.582
  170POPC   PO4 5160  28.868  21.525   9.631
  170POPC   GL1 5161  28.974  21.555   9.201
  170POPC   GL2 5162  29.355  21.523   9.173
  170POPC   C1A 5163  28.882  21.322   8.822
  170POPC   D2A 5164  28.640  21.327   8.439
  170POPC   C3A 5165  28.759  21.148   8.014
  170POPC   C4A 5166  29.149  21.057   7.814
  170POPC   C1B 5167  29.459  21.678   8.734
  170POPC   C2B 5168  29.267  21.565   8.333
  170POPC   C3B 5169  29.241  21.579   7.875
  170POPC   C4B 5170  29.352  21.863   7.538
  171POPC   NC3 5171  25.734  44.299   9.582
  171POPC   PO4 5172  26.413  44.189   9.677
  171POPC   GL1 5173  26.211  44.038   9.251
  171POPC   GL2 5174  26.018  43.720   9.147
  171POPC   C1A 5175  26.127  44.086   8.783
  171POPC   D2A 5176  25.930  44.061   8.367
  171POPC   C3A 5177  26.122  44.146   7.946
  171POPC   C4A 5178  26.082  44.036   7.497
  171POPC   C1B 5179  25.870  43.548   8.714
  171POPC   C2B 5180  25.703  43.607   8.269
  171POPC   C3B 5181  25.902  43.657   7.857
  171POPC   C4B 5182  25.831  43.577   7.403
  172POPC   NC3 5183  18.848   0.708   9.618
  172POPC   PO4 5184  19.267   0.174   9.436
  172POPC   GL1 5185  18.869   0.351   9.169
  172POPC   GL2 5186  18.827   0.710   9.101
  172POPC   C1A 5187  18.827   0.416   8.678
  172POPC   D2A 5188  19.120   0.313   8.306
  172POPC   C3A 5189  18.963   0.273   7.866
  172POPC   C4A 5190  19.020   0.068   7.453
  172POPC   C1B 5191  19.068   0.859   8.742
  172POPC   C2B 5192  19.157   0.821   8.327
  172POPC   C3B 5193  19.260   0.682   7.964
  172POPC   C4B 5194  19.147   0.814   7.579
  173POPC   NC3 5195  13.228  15.076   9.396
  173POPC   PO4 5196  12.650  15.437   9.444
  173POPC   GL1 5197  12.808  15.241   9.108
  173POPC   GL2 5198  13.108  15.456   9.049
  173POPC   C1A 5199  12.565  15.152   8.731
  173POPC   D2A 5200  12.712  15.147   8.302
  173POPC   C3A 5201  12.741  15.145   7.852
  173POPC   C4A 5202  12.850  14.927   7.437
  173POPC   C1B 5203  12.961  15.462   8.624
  173POPC   C2B 5204  13.046  15.592   8.180
  173POPC   C3B 5205  13.126  15.537   7.733
  173POPC   C4B 5206  13.231  15.246   7.367
  174POPC   NC3 5207  28.769  21.957   9.488
  174POPC   PO4 5208  29.383  22.266   9.486
  174POPC   GL1 5209  29.074  22.276   9.204
  174POPC   GL2 5210  29.212  22.004   9.060
  174POPC   C1A 5211  28.989  22.356   8.776
  174POPC   D2A 5212  29.245  22.144   8.486
  174POPC   C3A 5213  29.214  22.444   8.231
  174POPC   C4A 5214  29.215  22.489   7.839
  174POPC   C1B 5215  28.950  21.828   8.747
  174POPC   C2B 5216  28.834  21.821   8.296
  174POPC   C3B 5217  29.021  22.030   7.935
  174POPC   C4B 5218  28.850  22.039   7.511
  175POPC   NC3 5219   8.431  10.654   9.241
  175POPC   PO4 5220   7.932  10.328   9.509
  175POPC   GL1 5221   7.937  10.656   9.182
  175POPC   GL2 5222   8.015  10.422   8.999
  175POPC   C1A 5223   8.079  10.809   8.703
  175POPC   D2A 5224   8.054  10.604   8.274
  175POPC   C3A 5225   8.391  10.460   7.942
  175POPC   C4A 5226   8.425  10.511   7.448
  175POPC   C1B 5227   7.984  10.173   8.677
  175POPC   C2B 5228   8.210  10.102   8.346
  175POPC   C3B 5229   7.992  10.155   8.001
  175POPC   C4B 5230   8.118  10.133   7.575
  176POPC   NC3 5231  37.620  38.683   9.566
  176POPC   PO4 5232  38.340  38.582   9.614
  176POPC   GL1 5233  38.034  38.564   9.264
  176POPC   GL2 5234  37.714  38.385   9.166
  176POPC   C1A 5235  38.094  38.523   8.831
  176POPC   D2A 5236  37.938  38.273   8.497
  176POPC   C3A 5237  37.929  38.445   8.077
  176POPC   C4A 5238  37.752  38.366   7.684
  176POPC   C1B 5239  37.500  38.367   8.780
  176POPC   C2B 5240  37.471  38.490   8.363
  176POPC   C3B 5241  37.362  38.334   7.991
  176POPC   C4B 5242  37.213  38.517   7.636
  177POPC   NC3 5243   9.859   9.906   9.566
  177POPC   PO4 5244  10.116   9.316   9.505
  177POPC   GL1 5245   9.893   9.599   9.181
  177POPC   GL2 5246   9.534   9.710   9.218
  177POPC   C1A 5247   9.854   9.862   8.838
  177POPC   D2A 5248   9.676   9.754   8.428
  177POPC   C3A 5249   9.884   9.899   8.043
  177POPC   C4A 5250   9.856   9.806   7.630
  177POPC   C1B 5251   9.345   9.849   8.823
  177POPC   C2B 5252   9.347  10.136   8.442
  177POPC   C3B 5253   9.376   9.947   8.039
  177POPC   C4B 5254   9.309   9.741   7.649
  178POPC   NC3 5255  37.309  31.794   9.299
  178POPC   PO4 5256  37.234  31.281   9.742
  178POPC   GL1 5257  37.133  31.295   9.284
  178POPC   GL2 5258  36.817  31.494   9.312
  178POPC   C1A 5259  37.032  31.440   8.844
  178POPC   D2A 5260  37.203  31.643   8.476
  178POPC   C3A 5261  36.997  31.536   8.114
  178POPC   C4A 5262  37.104  31.398   7.719
  178POPC   C1B 5263  36.636  31.720   8.956
  178POPC   C2B 5264  36.652  31.579   8.526
  178POPC   C3B 5265  36.467  31.517   8.147
  178POPC   C4B 5266  36.609  31.393   7.770
  179POPC   NC3 5267  36.333   7.112   9.566
  179POPC   PO4 5268  36.019   6.620   9.395
  179POPC   GL1 5269  36.329   6.605   9.102
  179POPC   GL2 5270  36.424   6.941   9.087
  179POPC   C1A 5271  36.323   6.623   8.661
  179POPC   D2A 5272  36.556   6.640   8.269
  179POPC   C3A 5273  36.318   6.550   7.899
  179POPC   C4A 5274  35.907   6.355   7.772
  179POPC   C1B 5275  35.997   7.003   8.859
  179POPC   C2B 5276  35.770   6.797   8.487
  179POPC   C3B 5277  35.884   6.816   8.031
  179POPC   C4B 5278  35.901   7.068   7.628
  180POPC   NC3 5279  27.426  34.501   9.602
  180POPC   PO4 5280  28.019  34.131   9.404
  180POPC   GL1 5281  27.751  34.237   8.984
  180POPC   GL2 5282  27.450  34.382   9.117
  180POPC   C1A 5283  27.699  34.573   8.675
  180POPC   D2A 5284  27.968  34.732   8.363
  180POPC   C3A 5285  28.007  34.442   8.042
  180POPC   C4A 5286  27.945  34.666   7.706
  180POPC   C1B 5287  27.210  34.590   8.823
  180POPC   C2B 5288  27.237  34.443   8.439
  180POPC   C3B 5289  27.497  34.605   8.155
  180POPC   C4B 5290  27.527  34.421   7.784
  181POPC   NC3 5291  35.640   4.684   9.411
  181POPC   PO4 5292  35.436   5.327   9.525
  181POPC   GL1 5293  35.417   5.094   9.150
  181POPC   GL2 5294  35.127   4.899   9.091
  181POPC   C1A 5295  35.298   5.181   8.723
  181POPC   D2A 5296  35.111   5.035   8.360
  181POPC   C3A 5297  35.181   5.285   8.010
  181POPC   C4A 5298  35.059   5.307   7.607
  181POPC   C1B 5299  35.436   4.699   8.790
  181POPC   C2B 5300  35.535   4.698   8.374
  181POPC   C3B 5301  35.377   4.821   7.968
  181POPC   C4B 5302  35.537   5.011   7.603
  182POPC   NC3 5303  21.199  25.422   9.480
  182POPC   PO4 5304  21.653  24.968   9.353
  182POPC   GL1 5305  21.543  25.266   9.091
  182POPC   GL2 5306  21.830  25.307   8.901
  182POPC   C1A 5307  21.323  25.202   8.727
  182POPC   D2A 5308  21.118  25.133   8.359
  182POPC   C3A 5309  21.358  25.064   7.986
  182POPC   C4A 5310  21.550  25.113   7.560
  182POPC   C1B 5311  21.636  25.614   8.665
  182POPC   C2B 5312  21.523  25.472   8.301
  182POPC   C3B 5313  21.625  25.514   7.899
  182POPC   C4B 5314  21.233  25.498   7.688
  183POPC   NC3 5315   7.695  15.432   9.747
  183POPC   PO4 5316   7.204  15.019   9.516
  183POPC   GL1 5317   7.254  15.063   9.120
  183POPC   GL2 5318   7.372  15.389   9.175
  183POPC   C1A 5319   7.399  15.064   8.704
  183POPC   D2A 5320   7.610  15.062   8.322
  183POPC   C3A 5321   7.366  14.925   7.984
  183POPC   C4A 5322   7.494  15.155   7.630
  183POPC   C1B 5323   7.133  15.498   8.795
  183POPC   C2B 5324   7.346  15.518   8.394
  183POPC   C3B 5325   7.246  15.414   7.984
  183POPC   C4B 5326   7.105  15.483   7.556
  184POPC   NC3 5327  18.257   5.801   9.310
  184POPC   PO4 5328  18.321   5.365   9.877
  184POPC   GL1 5329  18.135   5.280   9.383
  184POPC   GL2 5330  18.369   5.071   9.164
  184POPC   C1A 5331  18.056   5.341   8.880
  184POPC   D2A 5332  18.281   5.419   8.478
  184POPC   C3A 5333  18.177   5.189   8.108
  184POPC   C4A 5334  18.120   5.126   7.655
  184POPC   C1B 5335  18.538   5.063   8.756
  184POPC   C2B 5336  18.629   4.981   8.329
  184POPC   C3B 5337  18.574   4.973   7.876
  184POPC   C4B 5338  18.634   5.201   7.483
  185POPC   NC3 5339  43.385  25.566   9.140
  185POPC   PO4 5340  43.815  25.236   9.542
  185POPC   GL1 5341  43.977  25.365   9.183
  185POPC   GL2 5342  44.266  25.552   9.248
  185POPC   C1A 5343  43.922  25.171   8.819
  185POPC   D2A 5344  43.721  25.264   8.455
  185POPC   C3A 5345  43.901  24.993   8.147
  185POPC   C4A 5346  43.832  25.016   7.728
  185POPC   C1B 5347  44.381  25.485   8.828
  185POPC   C2B 5348  44.237  25.367   8.387
  185POPC   C3B 5349  44.069  25.439   7.944
  185POPC   C4B 5350  44.041  25.417   7.486
  186POPC   NC3 5351  11.911  31.592   9.337
  186POPC   PO4 5352  12.374  31.250   9.616
  186POPC   GL1 5353  12.410  31.439   9.209
  186POPC   GL2 5354  12.175  31.226   9.055
  186POPC   C1A 5355  12.300  31.665   8.800
  186POPC   D2A 5356  12.351  31.442   8.422
  186POPC   C3A 5357  12.208  31.494   8.000
  186POPC   C4A 5358  12.129  31.770   7.654
  186POPC   C1B 5359  11.928  31.342   8.714
  186POPC   C2B 5360  11.803  31.176   8.361
  186POPC   C3B 5361  11.831  31.056   7.979
  186POPC   C4B 5362  11.922  31.252   7.609
  187POPC   NC3 5363  18.146   7.513   9.490
  187POPC   PO4 5364  18.644   7.095   9.481
  187POPC   GL1 5365  18.443   7.296   9.137
  187POPC   GL2 5366  18.683   7.501   9.100
  187POPC   C1A 5367  18.131   7.439   8.809
  187POPC   D2A 5368  18.046   7.193   8.433
  187POPC   C3A 5369  18.217   7.229   8.038
  187POPC   C4A 5370  18.147   7.597   7.790
  187POPC   C1B 5371  18.607   7.539   8.694
  187POPC   C2B 5372  18.405   7.603   8.325
  187POPC   C3B 5373  18.634   7.487   7.974
  187POPC   C4B 5374  18.557   7.467   7.534
  188POPC   NC3 5375  32.917  14.061   9.483
  188POPC   PO4 5376  33.384  14.541   9.436
  188POPC   GL1 5377  33.072  14.384   9.121
  188POPC   GL2 5378  32.709  14.470   9.224
  188POPC   C1A 5379  33.019  14.074   8.775
  188POPC   D2A 5380  32.858  14.061   8.347
  188POPC   C3A 5381  33.073  14.336   8.054
  188POPC   C4A 5382  33.281  14.709   7.882
  188POPC   C1B 5383  32.563  14.354   8.828
  188POPC   C2B 5384  32.595  14.534   8.413
  188POPC   C3B 5385  32.533  14.349   8.027
  188POPC   C4B 5386  32.523  14.226   7.620
  189POPC   NC3 5387  26.199   7.817   9.506
  189POPC   PO4 5388  26.047   7.117   9.535
  189POPC   GL1 5389  26.024   7.390   9.151
  189POPC   GL2 5390  26.274   7.646   9.058
  189POPC   C1A 5391  25.890   7.496   8.711
  189POPC   D2A 5392  25.622   7.221   8.431
  189POPC   C3A 5393  25.788   7.116   8.009
  189POPC   C4A 5394  25.893   7.285   7.602
  189POPC   C1B 5395  26.457   7.871   8.759
  189POPC   C2B 5396  26.291   7.714   8.401
  189POPC   C3B 5397  26.100   7.563   8.034
  189POPC   C4B 5398  26.258   7.639   7.604
  190POPC   NC3 5399  13.444  33.740   9.709
  190POPC   PO4 5400  14.063  33.600   9.538
  190POPC   GL1 5401  13.699  33.695   9.221
  190POPC   GL2 5402  13.326  33.832   9.236
  190POPC   C1A 5403  13.834  33.769   8.797
  190POPC   D2A 5404  13.779  34.138   8.541
  190POPC   C3A 5405  13.767  34.074   8.105
  190POPC   C4A 5406  13.893  33.749   7.844
  190POPC   C1B 5407  13.364  33.887   8.814
  190POPC   C2B 5408  13.478  33.727   8.393
  190POPC   C3B 5409  13.361  33.768   7.936
  190POPC   C4B 5410  13.441  33.990   7.536
  191POPC   NC3 5411  20.169  23.855   9.337
  191POPC   PO4 5412  19.703  23.430   9.592
  191POPC   GL1 5413  19.728  23.591   9.192
  191POPC   GL2 5414  19.995  23.448   9.095
  191POPC   C1A 5415  19.599  23.773   8.808
  191POPC   D2A 5416  19.831  23.959   8.469
  191POPC   C3A 5417  19.672  23.838   8.069
  191POPC   C4A 5418  19.552  23.980   7.647
  191POPC   C1B 5419  20.056  23.497   8.666
  191POPC   C2B 5420  20.299  23.283   8.346
  191POPC   C3B 5421  20.150  23.381   7.925
  191POPC   C4B 5422  19.783  23.491   7.703
  192POPC   NC3 5423  10.681  13.885   9.428
  192POPC   PO4 5424  10.755  13.192   9.348
  192POPC   GL1 5425  10.620  13.525   9.068
  192POPC   GL2 5426  10.954  13.472   8.941
  192POPC   C1A 5427  10.425  13.699   8.674
  192POPC   D2A 5428  10.400  13.908   8.253
  192POPC   C3A 5429  10.500  13.615   7.896
  192POPC   C4A 5430  10.607  13.362   7.487
  192POPC   C1B 5431  10.686  13.244   8.656
  192POPC   C2B 5432  10.475  13.321   8.307
  192POPC   C3B 5433  10.084  13.364   8.100
  192POPC   C4B 5434  10.122  13.390   7.665
  193POPC   NC3 5435  15.863  29.064   9.561
  193POPC   PO4 5436  15.703  29.533   9.144
  193POPC   GL1 5437  15.794  29.116   9.018
  193POPC   GL2 5438  15.593  28.813   9.172
  193POPC   C1A 5439  16.134  29.067   8.681
  193POPC   D2A 5440  16.359  29.324   8.356
  193POPC   C3A 5441  16.049  29.363   8.066
  193POPC   C4A 5442  15.873  29.128   7.752
  193POPC   C1B 5443  15.736  28.683   8.752
  193POPC   C2B 5444  15.827  28.819   8.318
  193POPC   C3B 5445  16.202  28.865   8.080
  193POPC   C4B 5446  16.289  28.731   7.682
  194POPC   NC3 5447  37.254  31.753   9.804
  194POPC   PO4 5448  37.677  31.347   9.420
  194POPC   GL1 5449  37.655  31.492   9.080
  194POPC   GL2 5450  37.808  31.853   9.126
  194POPC   C1A 5451  37.501  31.302   8.717
  194POPC   D2A 5452  37.621  31.105   8.360
  194POPC   C3A 5453  37.417  31.202   8.057
  194POPC   C4A 5454  37.627  31.325   7.720
  194POPC   C1B 5455  37.677  31.799   8.700
  194POPC   C2B 5456  37.713  31.608   8.334
  194POPC   C3B 5457  37.482  31.708   7.995
  194POPC   C4B 5458  37.178  31.899   7.784
  195POPC   NC3 5459  14.167  37.397   9.385
  195POPC   PO4 5460  14.652  37.901   9.410
  195POPC   GL1 5461  14.539  37.628   9.095
  195POPC   GL2 5462  14.230  37.784   9.068
  195POPC   C1A 5463  14.547  37.503   8.681
  195POPC   D2A 5464  14.605  37.794   8.321
  195POPC   C3A 5465  14.536  37.675   7.892
  195POPC   C4A 5466  14.413  37.606   7.451
  195POPC   C1B 5467  14.191  37.908   8.672
  195POPC   C2B 5468  13.963  38.163   8.405
  195POPC   C3B 5469  14.061  37.849   8.134
  195POPC   C4B 5470  14.097  37.865   7.731
  196POPC   NC3 5471  19.572  16.034   9.668
  196POPC   PO4 5472  20.189  15.860   9.725
  196POPC   GL1 5473  19.952  15.969   9.320
  196POPC   GL2 5474  19.658  15.750   9.231
  196POPC   C1A 5475  19.979  15.952   8.866
  196POPC   D2A 5476  20.013  16.176   8.472
  196POPC   C3A 5477  19.986  15.918   8.090
  196POPC   C4A 5478  19.913  16.095   7.684
  196POPC   C1B 5479  19.489  15.863   8.788
  196POPC   C2B 5480  19.545  16.016   8.356
  196POPC   C3B 5481  19.490  15.949   7.919
  196POPC   C4B 5482  19.502  16.009   7.407
  197POPC   NC3 5483  38.127  14.429   9.480
  197POPC   PO4 5484  38.626  14.026   9.508
  197POPC   GL1 5485  38.572  14.335   9.137
  197POPC   GL2 5486  38.546  14.695   9.116
  197POPC   C1A 5487  38.447  14.433   8.684
  197POPC   D2A 5488  38.606  14.403   8.248
  197POPC   C3A 5489  38.330  14.385   7.886
  197POPC   C4A 5490  38.288  13.989   7.638
  197POPC   C1B 5491  38.642  14.931   8.746
  197POPC   C2B 5492  38.798  14.865   8.331
  197POPC   C3B 5493  38.680  14.786   7.895
  197POPC   C4B 5494  38.758  14.642   7.477
  198POPC   NC3 5495  24.352  12.458   9.294
  198POPC   PO4 5496  24.381  11.796   9.431
  198POPC   GL1 5497  24.268  11.916   9.071
  198POPC   GL2 5498  24.004  12.117   9.162
  198POPC   C1A 5499  24.439  12.064   8.717
  198POPC   D2A 5500  24.703  12.039   8.385
  198POPC   C3A 5501  24.487  11.959   8.006
  198POPC   C4A 5502  24.576  12.191   7.638
  198POPC   C1B 5503  24.024  12.400   8.757
  198POPC   C2B 5504  24.207  12.304   8.335
  198POPC   C3B 5505  24.128  12.301   7.914
  198POPC   C4B 5506  24.167  12.555   7.575
  199POPC   NC3 5507  32.471  33.121   9.613
  199POPC   PO4 5508  32.069  32.663   9.614
  199POPC   GL1 5509  32.085  32.867   9.187
  199POPC   GL2 5510  32.285  33.188   9.121
  199POPC   C1A 5511  31.999  32.959   8.733
  199POPC   D2A 5512  32.175  33.084   8.336
  199POPC   C3A 5513  32.203  32.805   7.996
  199POPC   C4A 5514  32.108  32.799   7.581
  199POPC   C1B 5515  32.376  33.370   8.698
  199POPC   C2B 5516  32.645  33.287   8.315
  199POPC   C3B 5517  32.436  33.243   7.897
  199POPC   C4B 5518  31.942  33.209   7.879
  200POPC   NC3 5519  17.023  24.952   9.443
  200POPC   PO4 5520  17.546  25.373   9.570
  200POPC   GL1 5521  17.483  25.389   9.151
  200POPC   GL2 5522  17.569  25.734   9.137
  200POPC   C1A 5523  17.292  25.379   8.750
  200POPC   D2A 5524  17.466  25.234   8.329
  200POPC   C3A 5525  17.361  25.142   7.908
  200POPC   C4A 5526  17.295  25.390   7.518
  200POPC   C1B 5527  17.708  25.692   8.729
  200POPC   C2B 5528  17.883  25.533   8.345
  200POPC   C3B 5529  17.689  25.562   7.943
  200POPC   C4B 5530  17.766  25.686   7.486
  201POPC   NC3 5531  24.799   4.875   9.719
  201POPC   PO4 5532  24.247   5.216   9.430
  201POPC   GL1 5533  24.344   5.015   9.092
  201POPC   GL2 5534  24.617   5.274   9.059
  201POPC   C1A 5535  24.445   4.955   8.664
  201POPC   D2A 5536  24.458   5.172   8.281
  201POPC   C3A 5537  24.459   4.942   7.946
  201POPC   C4A 5538  24.307   4.956   7.559
  201POPC   C1B 5539  24.652   5.467   8.663
  201POPC   C2B 5540  24.920   5.448   8.296
  201POPC   C3B 5541  24.869   5.242   7.933
  201POPC   C4B 5542  24.581   5.381   7.663
  202POPC   NC3 5543  32.118  22.462   9.763
  202POPC   PO4 5544  32.383  21.898   9.591
  202POPC   GL1 5545  32.298  22.064   9.175
  202POPC   GL2 5546  32.035  22.307   9.237
  202POPC   C1A 5547  32.172  21.988   8.718
  202POPC   D2A 5548  32.284  22.019   8.281
  202POPC   C3A 5549  32.046  22.035   7.890
  202POPC   C4A 5550  32.231  22.192   7.509
  202POPC   C1B 5551  32.256  22.478   8.858
  202POPC   C2B 5552  32.156  22.520   8.445
  202POPC   C3B 5553  32.249  22.492   8.031
  202POPC   C4B 5554  32.150  22.686   7.667
  203POPC   NC3 5555  44.848  44.989   9.547
  203POPC   PO4 5556  44.534  44.401   9.567
  203POPC   GL1 5557  44.740  44.559   9.212
  203POPC   GL2 5558  44.925  44.285   9.202
  203POPC   C1A 5559  44.700  44.725   8.788
  203POPC   D2A 5560  44.469  44.730   8.391
  203POPC   C3A 5561  44.555  45.000   8.024
  203POPC   C4A 5562  44.733  44.880   7.621
  203POPC   C1B 5563   0.007  44.290   8.791
  203POPC   C2B 5564  44.892  44.404   8.378
  203POPC   C3B 5565  44.823  44.548   7.982
  203POPC   C4B 5566  44.939  44.404   7.542
  204POPC   NC3 5567  38.520   0.808   9.647
  204POPC   PO4 5568  38.779   1.374   9.362
  204POPC   GL1 5569  38.401   1.354   9.145
  204POPC   GL2 5570  38.345   1.016   9.225
  204POPC   C1A 5571  38.340   1.499   8.716
  204POPC   D2A 5572  38.599   1.536   8.316
  204POPC   C3A 5573  38.346   1.422   7.953
  204POPC   C4A 5574  38.523   1.227   7.563
  204POPC   C1B 5575  38.283   0.895   8.811
  204POPC   C2B 5576  38.571   0.814   8.439
  204POPC   C3B 5577  38.549   0.967   8.015
  204POPC   C4B 5578  38.145   0.952   7.736
  205POPC   NC3 5579  23.837  19.297   9.946
  205POPC   PO4 5580  23.253  19.194   9.643
  205POPC   GL1 5581  23.604  18.999   9.330
  205POPC   GL2 5582  23.953  19.190   9.230
  205POPC   C1A 5583  23.638  18.966   8.871
  205POPC   D2A 5584  23.479  18.939   8.449
  205POPC   C3A 5585  23.635  18.710   8.096
  205POPC   C4A 5586  23.568  18.804   7.679
  205POPC   C1B 5587  24.010  19.323   8.781
  205POPC   C2B 5588  23.828  19.322   8.358
  205POPC   C3B 5589  23.851  19.167   7.937
  205POPC   C4B 5590  24.075  18.859   7.759
  206POPC   NC3 5591  24.336  17.667   9.439
  206POPC   PO4 5592  24.907  17.202   9.498
  206POPC   GL1 5593  24.655  17.327   9.136
  206POPC   GL2 5594  24.305  17.234   9.173
  206POPC   C1A 5595  24.532  17.575   8.755
  206POPC   D2A 5596  24.730  17.458   8.365
  206POPC   C3A 5597  24.690  17.680   7.996
  206POPC   C4A 5598  24.902  17.600   7.604
  206POPC   C1B 5599  24.320  17.124   8.744
  206POPC   C2B 5600  24.205  17.314   8.349
  206POPC   C3B 5601  24.357  17.315   7.934
  206POPC   C4B 5602  24.188  17.566   7.570
  207POPC   NC3 5603  24.059  39.382   9.705
  207POPC   PO4 5604  23.416  39.221   9.636
  207POPC   GL1 5605  23.610  39.242   9.214
  207POPC   GL2 5606  23.917  39.429   9.212
  207POPC   C1A 5607  23.640  39.107   8.772
  207POPC   D2A 5608  23.461  39.189   8.363
  207POPC   C3A 5609  23.638  39.114   7.964
  207POPC   C4A 5610  23.342  39.076   7.617
  207POPC   C1B 5611  24.050  39.420   8.790
  207POPC   C2B 5612  23.960  39.325   8.353
  207POPC   C3B 5613  24.064  39.424   7.915
  207POPC   C4B 5614  24.029  39.411   7.475
  208POPC   NC3 5615  28.478  28.131   9.866
  208POPC   PO4 5616  28.242  28.643   9.516
  208POPC   GL1 5617  28.304  28.348   9.185
  208POPC   GL2 5618  28.018  28.281   8.982
  208POPC   C1A 5619  28.487  28.148   8.820
  208POPC   D2A 5620  28.503  27.954   8.403
  208POPC   C3A 5621  28.484  28.162   8.040
  208POPC   C4A 5622  28.351  28.096   7.645
  208POPC   C1B 5623  28.055  28.186   8.540
  208POPC   C2B 5624  28.097  28.452   8.237
  208POPC   C3B 5625  27.949  28.614   7.922
  208POPC   C4B 5626  28.104  28.514   7.518
  209POPC   NC3 5627  44.407  21.561   9.482
  209POPC   PO4 5628  44.733  21.008   9.618
  209POPC   GL1 5629  44.789  21.284   9.247
  209POPC   GL2 5630  44.469  21.186   9.079
  209POPC   C1A 5631  44.913  21.202   8.812
  209POPC   D2A 5632  44.917  21.025   8.393
  209POPC   C3A 5633  44.652  21.277   8.143
  209POPC   C4A 5634  44.742  21.478   7.764
  209POPC   C1B 5635  44.420  21.254   8.618
  209POPC   C2B 5636  44.245  21.568   8.289
  209POPC   C3B 5637  44.395  21.799   7.922
  209POPC   C4B 5638  44.433  21.708   7.469
  210POPC   NC3 5639  43.114  16.354   9.402
  210POPC   PO4 5640  43.375  16.749   9.880
  210POPC   GL1 5641  43.332  16.809   9.348
  210POPC   GL2 5642  43.569  16.937   9.120
  210POPC   C1A 5643  43.249  16.639   8.867
  210POPC   D2A 5644  43.111  16.606   8.425
  210POPC   C3A 5645  43.241  16.568   7.986
  210POPC   C4A 5646  43.088  16.249   7.717
  210POPC   C1B 5647  43.427  17.053   8.667
  210POPC   C2B 5648  43.193  17.071   8.234
  210POPC   C3B 5649  43.188  17.064   7.773
  210POPC   C4B 5650  43.479  16.887   7.447
  211POPC   NC3 5651  10.295  13.188   9.320
  211POPC   PO4 5652   9.688  13.113   9.506
  211POPC   GL1 5653   9.790  12.954   9.164
  211POPC   GL2 5654   9.933  12.617   9.303
  211POPC   C1A 5655   9.563  12.855   8.777
  211POPC   D2A 5656   9.672  13.093   8.388
  211POPC   C3A 5657   9.506  13.041   7.982
  211POPC   C4A 5658   9.845  12.984   7.705
  211POPC   C1B 5659  10.010  12.640   8.865
  211POPC   C2B 5660   9.822  12.501   8.500
  211POPC   C3B 5661   9.838  12.649   8.104
  211POPC   C4B 5662   9.736  12.488   7.721
  212POPC   NC3 5663  23.641  16.972   9.533
  212POPC   PO4 5664  24.180  16.534   9.492
  212POPC   GL1 5665  23.797  16.577   9.176
  212POPC   GL2 5666  23.503  16.816   9.074
  212POPC   C1A 5667  23.613  16.484   8.741
  212POPC   D2A 5668  23.473  16.671   8.382
  212POPC   C3A 5669  23.809  16.573   8.148
  212POPC   C4A 5670  23.780  16.706   7.743
  212POPC   C1B 5671  23.373  17.087   8.728
  212POPC   C2B 5672  23.210  17.186   8.341
  212POPC   C3B 5673  23.254  16.961   7.995
  212POPC   C4B 5674  23.429  17.102   7.648
  213POPC   NC3 5675  37.390  21.861   9.406
  213POPC   PO4 5676  37.977  22.086   9.134
  213POPC   GL1 5677  37.575  22.037   8.955
  213POPC   GL2 5678  37.403  22.306   9.169
  213POPC   C1A 5679  37.517  22.064   8.489
  213POPC   D2A 5680  37.671  22.440   8.238
  213POPC   C3A 5681  37.911  22.271   7.899
  213POPC   C4A 5682  37.916  21.945   7.610
  213POPC   C1B 5683  37.350  22.454   8.754
  213POPC   C2B 5684  37.164  22.498   8.317
  213POPC   C3B 5685  37.284  22.544   7.873
  213POPC   C4B 5686  37.474  22.243   7.602
  214POPC   NC3 5687   6.494  25.107   9.601
  214POPC   PO4 5688   6.407  25.788   9.652
  214POPC   GL1 5689   6.483  25.510   9.240
  214POPC   GL2 5690   6.405  25.131   9.115
  214POPC   C1A 5691   6.792  25.418   8.886
  214POPC   D2A 5692   6.780  25.108   8.574
  214POPC   C3A 5693   6.725  25.186   8.177
  214POPC   C4A 5694   6.701  25.124   7.799
  214POPC   C1B 5695   6.318  25.286   8.733
  214POPC   C2B 5696   6.250  25.321   8.305
  214POPC   C3B 5697   6.366  25.515   7.896
  214POPC   C4B 5698   6.448  25.600   7.444
  215POPC   NC3 5699  25.389  42.772   9.853
  215POPC   PO4 5700  25.360  42.218   9.516
  215POPC   GL1 5701  25.218  42.393   9.164
  215POPC   GL2 5702  24.917  42.202   9.055
  215POPC   C1A 5703  25.363  42.208   8.790
  215POPC   D2A 5704  25.222  42.299   8.414
  215POPC   C3A 5705  25.464  42.194   8.098
  215POPC   C4A 5706  25.435  42.324   7.739
  215POPC   C1B 5707  24.924  42.588   8.756
  215POPC   C2B 5708  25.017  42.775   8.345
  215POPC   C3B 5709  24.994  42.512   7.952
  215POPC   C4B 5710  25.042  42.486   7.479
  216POPC   NC3 5711  12.045  20.952   9.529
  216POPC   PO4 5712  12.488  20.506   9.613
  216POPC   GL1 5713  12.186  20.564   9.230
  216POPC   GL2 5714  12.046  20.880   9.036
  216POPC   C1A 5715  12.020  20.408   8.848
  216POPC   D2A 5716  12.021  20.356   8.415
  216POPC   C3A 5717  12.173  20.694   8.161
  216POPC   C4A 5718  12.159  20.837   7.736
  216POPC   C1B 5719  11.783  20.920   8.703
  216POPC   C2B 5720  11.830  21.040   8.288
  216POPC   C3B 5721  11.883  21.199   7.908
  216POPC   C4B 5722  11.707  21.024   7.552
  217POPC   NC3 5723  17.398   4.805   9.476
  217POPC   PO4 5724  17.526   5.493   9.357
  217POPC   GL1 5725  17.644   5.106   9.135
  217POPC   GL2 5726  17.318   4.957   9.010
  217POPC   C1A 5727  17.754   4.915   8.745
  217POPC   D2A 5728  17.725   5.089   8.327
  217POPC   C3A 5729  17.583   4.988   7.906
  217POPC   C4A 5730  17.571   5.212   7.510
  217POPC   C1B 5731  17.302   4.690   8.658
  217POPC   C2B 5732  17.213   4.763   8.214
  217POPC   C3B 5733  17.061   4.761   7.792
  217POPC   C4B 5734  17.315   4.811   7.401
  218POPC   NC3 5735   5.620   6.696   9.536
  218POPC   PO4 5736   5.963   6.227   9.223
  218POPC   GL1 5737   5.729   6.566   9.068
  218POPC   GL2 5738   6.065   6.740   9.147
  218POPC   C1A 5739   5.543   6.606   8.652
  218POPC   D2A 5740   5.854   6.408   8.385
  218POPC   C3A 5741   5.980   6.519   8.005
  218POPC   C4A 5742   5.662   6.396   7.765
  218POPC   C1B 5743   6.038   6.747   8.722
  218POPC   C2B 5744   5.957   6.960   8.347
  218POPC   C3B 5745   6.115   7.001   7.912
  218POPC   C4B 5746   5.977   6.774   7.555
  219POPC   NC3 5747  44.280  19.924   9.374
  219POPC   PO4 5748  44.938  20.038   9.489
  219POPC   GL1 5749  44.724  19.758   9.158
  219POPC   GL2 5750  44.987  19.437   9.116
  219POPC   C1A 5751  44.530  19.932   8.764
  219POPC   D2A 5752  44.334  20.282   8.541
  219POPC   C3A 5753  44.451  20.233   8.110
  219POPC   C4A 5754  44.641  19.969   7.820
  219POPC   C1B 5755  44.812  19.508   8.730
  219POPC   C2B 5756  44.647  19.654   8.340
  219POPC   C3B 5757  44.456  19.526   7.991
  219POPC   C4B 5758  44.773  19.537   7.627
  220POPC   NC3 5759  38.695  32.830   9.360
  220POPC   PO4 5760  38.469  33.404   9.568
  220POPC   GL1 5761  38.547  33.263   9.138
  220POPC   GL2 5762  38.249  33.006   9.090
  220POPC   C1A 5763  38.631  33.152   8.694
  220POPC   D2A 5764  38.262  33.051   8.433
  220POPC   C3A 5765  38.152  33.317   8.077
  220POPC   C4A 5766  38.546  33.304   7.860
  220POPC   C1B 5767  38.443  32.701   8.796
  220POPC   C2B 5768  38.688  32.627   8.452
  220POPC   C3B 5769  38.600  32.849   8.097
  220POPC   C4B 5770  38.236  32.887   7.838
  221POPC   NC3 5771   7.968  39.842   9.617
  221POPC   PO4 5772   7.390  40.231   9.432
  221POPC   GL1 5773   7.399  40.100   9.076
  221POPC   GL2 5774   7.693  39.992   9.113
  221POPC   C1A 5775   7.210  40.092   8.708
  221POPC   D2A 5776   7.264  39.877   8.352
  221POPC   C3A 5777   7.341  40.142   8.028
  221POPC   C4A 5778   7.404  39.940   7.678
  221POPC   C1B 5779   7.583  39.731   8.769
  221POPC   C2B 5780   7.785  39.664   8.398
  221POPC   C3B 5781   7.749  39.804   8.015
  221POPC   C4B 5782   7.850  39.662   7.602
  222POPC   NC3 5783  15.286  12.192   9.327
  222POPC   PO4 5784  14.638  12.069   9.520
  222POPC   GL1 5785  14.828  12.028   9.132
  222POPC   GL2 5786  14.800  12.387   9.115
  222POPC   C1A 5787  15.037  11.955   8.727
  222POPC   D2A 5788  15.136  11.641   8.395
  222POPC   C3A 5789  15.200  11.806   8.024
  222POPC   C4A 5790  15.062  11.834   7.641
  222POPC   C1B 5791  14.968  12.471   8.710
  222POPC   C2B 5792  14.943  12.259   8.308
  222POPC   C3B 5793  15.128  12.319   7.920
  222POPC   C4B 5794  15.025  12.370   7.491
  223POPC   NC3 5795   1.060  31.222   9.498
  223POPC   PO4 5796   1.390  31.800   9.581
  223POPC   GL1 5797   1.310  31.602   9.200
  223POPC   GL2 5798   0.999  31.789   9.162
  223POPC   C1A 5799   1.344  31.292   8.855
  223POPC   D2A 5800   1.208  31.299   8.427
  223POPC   C3A 5801   1.461  31.114   8.111
  223POPC   C4A 5802   1.174  31.049   7.781
  223POPC   C1B 5803   1.118  31.755   8.722
  223POPC   C2B 5804   0.878  31.688   8.341
  223POPC   C3B 5805   0.944  31.499   7.956
  223POPC   C4B 5806   1.104  31.692   7.635
  224POPC   NC3 5807  10.006   3.231   9.527
  224POPC   PO4 5808   9.279   3.298   9.317
  224POPC   GL1 5809   9.679   3.505   9.194
  224POPC   GL2 5810   9.913   3.290   9.035
  224POPC   C1A 5811   9.792   3.736   8.812
  224POPC   D2A 5812   9.514   3.737   8.436
  224POPC   C3A 5813   9.700   3.862   8.047
  224POPC   C4A 5814  10.027   3.696   7.794
  224POPC   C1B 5815   9.854   3.234   8.607
  224POPC   C2B 5816   9.893   3.364   8.164
  224POPC   C3B 5817   9.684   3.303   7.742
  224POPC   C4B 5818   9.597   3.317   7.250
  225POPC   NC3 5819  35.833   8.831   9.495
  225POPC   PO4 5820  36.370   8.438   9.429
  225POPC   GL1 5821  36.287   8.740   9.122
  225POPC   GL2 5822  36.474   9.036   9.224
  225POPC   C1A 5823  36.087   9.052   8.824
  225POPC   D2A 5824  35.976   9.233   8.400
  225POPC   C3A 5825  36.088   8.987   7.993
  225POPC   C4A 5826  36.147   9.026   7.542
  225POPC   C1B 5827  36.602   8.957   8.765
  225POPC   C2B 5828  36.480   9.064   8.313
  225POPC   C3B 5829  36.591   9.155   7.831
  225POPC   C4B 5830  36.621   9.096   7.346
  226POPC   NC3 5831   3.314  34.851   9.575
  226POPC   PO4 5832   3.750  34.319   9.407
  226POPC   GL1 5833   3.630  34.504   9.064
  226POPC   GL2 5834   3.292  34.377   9.066
  226POPC   C1A 5835   3.865  34.509   8.651
  226POPC   D2A 5836   3.826  34.637   8.210
  226POPC   C3A 5837   3.781  34.345   7.873
  226POPC   C4A 5838   3.570  34.272   7.476
  226POPC   C1B 5839   3.342  34.590   8.670
  226POPC   C2B 5840   3.304  34.670   8.264
  226POPC   C3B 5841   3.317  34.604   7.855
  226POPC   C4B 5842   3.613  34.858   7.670
  227POPC   NC3 5843  23.382   9.688   9.568
  227POPC   PO4 5844  24.058   9.692   9.399
  227POPC   GL1 5845  23.783   9.518   9.135
  227POPC   GL2 5846  23.638   9.837   9.135
  227POPC   C1A 5847  23.636   9.545   8.721
  227POPC   D2A 5848  23.688   9.779   8.352
  227POPC   C3A 5849  23.757   9.605   7.958
  227POPC   C4A 5850  23.578   9.529   7.582
  227POPC   C1B 5851  23.522  10.070   8.765
  227POPC   C2B 5852  23.333  10.126   8.339
  227POPC   C3B 5853  23.542  10.124   7.937
  227POPC   C4B 5854  23.690  10.008   7.533
  228POPC   NC3 5855  10.035  16.173   9.560
  228POPC   PO4 5856   9.361  15.963   9.603
  228POPC   GL1 5857   9.668  15.983   9.237
  228POPC   GL2 5858   9.997  15.771   9.232
  228POPC   C1A 5859   9.609  15.918   8.782
  228POPC   D2A 5860   9.347  15.709   8.484
  228POPC   C3A 5861   9.542  15.776   8.064
  228POPC   C4A 5862   9.782  16.036   7.785
  228POPC   C1B 5863  10.111  15.901   8.808
  228POPC   C2B 5864   9.971  15.902   8.367
  228POPC   C3B 5865  10.209  15.856   7.989
  228POPC   C4B 5866  10.259  16.189   7.662
  229POPC   NC3 5867  20.286  41.580   9.519
  229POPC   PO4 5868  19.782  41.309   9.508
  229POPC   GL1 5869  19.824  41.289   9.068
  229POPC   GL2 5870  20.161  41.203   9.017
  229POPC   C1A 5871  19.711  41.472   8.605
  229POPC   D2A 5872  19.507  41.429   8.172
  229POPC   C3A 5873  19.579  41.510   7.721
  229POPC   C4A 5874  19.541  41.873   7.444
  229POPC   C1B 5875  20.129  41.631   8.851
  229POPC   C2B 5876  20.229  41.742   8.415
  229POPC   C3B 5877  20.193  41.872   7.973
  229POPC   C4B 5878  20.050  41.658   7.616
  230POPC   NC3 5879  21.212  38.033   9.286
  230POPC   PO4 5880  21.604  38.412   9.683
  230POPC   GL1 5881  21.448  38.516   9.229
  230POPC   GL2 5882  21.116  38.458   9.019
  230POPC   C1A 5883  21.547  38.505   8.771
  230POPC   D2A 5884  21.266  38.665   8.441
  230POPC   C3A 5885  21.423  38.660   8.008
  230POPC   C4A 5886  21.654  38.710   7.627
  230POPC   C1B 5887  21.163  38.169   8.655
  230POPC   C2B 5888  21.001  38.022   8.265
  230POPC   C3B 5889  21.153  38.218   7.884
  230POPC   C4B 5890  20.918  38.459   7.588
  231POPC   NC3 5891  42.226   9.772   9.560
  231POPC   PO4 5892  42.613   9.355   9.307
  231POPC   GL1 5893  42.354   9.690   9.051
  231POPC   GL2 5894  41.983   9.759   9.114
  231POPC   C1A 5895  42.503   9.851   8.633
  231POPC   D2A 5896  42.777   9.803   8.272
  231POPC   C3A 5897  42.572   9.656   7.877
  231POPC   C4A 5898  42.464   9.922   7.583
  231POPC   C1B 5899  41.806   9.725   8.695
  231POPC   C2B 5900  42.053   9.817   8.340
  231POPC   C3B 5901  42.032   9.775   7.911
  231POPC   C4B 5902  42.115   9.543   7.583
  232POPC   NC3 5903   2.382  33.804   9.428
  232POPC   PO4 5904   3.004  33.664   9.526
  232POPC   GL1 5905   2.821  33.760   9.161
  232POPC   GL2 5906   2.717  34.107   9.167
  232POPC   C1A 5907   2.789  33.713   8.737
  232POPC   D2A 5908   2.584  33.576   8.393
  232POPC   C3A 5909   2.828  33.409   8.125
  232POPC   C4A 5910   2.852  33.742   7.817
  232POPC   C1B 5911   2.904  34.219   8.780
  232POPC   C2B 5912   3.169  34.173   8.405
  232POPC   C3B 5913   3.238  34.090   7.963
  232POPC   C4B 5914   3.075  34.249   7.560
  233POPC   NC3 5915  40.257  30.847   9.475
  233POPC   PO4 5916  39.750  30.498   9.507
  233POPC   GL1 5917  40.044  30.404   9.185
  233POPC   GL2 5918  39.968  30.721   9.073
  233POPC   C1A 5919  40.086  30.387   8.711
  233POPC   D2A 5920  39.834  30.581   8.362
  233POPC   C3A 5921  39.967  30.742   7.933
  233POPC   C4A 5922  40.355  30.630   7.732
  233POPC   C1B 5923  40.024  30.962   8.735
  233POPC   C2B 5924  40.086  31.098   8.338
  233POPC   C3B 5925  39.867  31.251   7.991
  233POPC   C4B 5926  40.179  31.185   7.711
  234POPC   NC3 5927  28.997  38.177   9.503
  234POPC   PO4 5928  28.867  38.875   9.375
  234POPC   GL1 5929  28.887  38.529   9.134
  234POPC   GL2 5930  29.218  38.432   9.048
  234POPC   C1A 5931  28.858  38.199   8.825
  234POPC   D2A 5932  29.247  38.214   8.536
  234POPC   C3A 5933  29.170  38.346   8.113
  234POPC   C4A 5934  28.916  38.252   7.757
  234POPC   C1B 5935  29.247  38.696   8.701
  234POPC   C2B 5936  29.544  38.804   8.357
  234POPC   C3B 5937  29.449  38.811   7.939
  234POPC   C4B 5938  29.563  38.411   7.755
  235POPC   NC3 5939  13.242  28.529   9.605
  235POPC   PO4 5940  12.619  28.245   9.573
  235POPC   GL1 5941  12.820  28.348   9.208
  235POPC   GL2 5942  13.136  28.204   9.215
  235POPC   C1A 5943  12.695  28.340   8.781
  235POPC   D2A 5944  12.539  28.530   8.400
  235POPC   C3A 5945  12.736  28.388   8.070
  235POPC   C4A 5946  12.927  28.481   7.708
  235POPC   C1B 5947  13.044  27.973   8.872
  235POPC   C2B 5948  12.985  28.080   8.447
  235POPC   C3B 5949  13.201  28.156   8.067
  235POPC   C4B 5950  13.252  27.857   7.753
  236POPC   NC3 5951  20.577  13.215   9.418
  236POPC   PO4 5952  20.589  13.873   9.529
  236POPC   GL1 5953  20.567  13.685   9.130
  236POPC   GL2 5954  20.279  13.502   9.137
  236POPC   C1A 5955  20.783  13.642   8.717
  236POPC   D2A 5956  20.696  13.400   8.323
  236POPC   C3A 5957  20.860  13.606   7.937
  236POPC   C4A 5958  20.802  13.612   7.482
  236POPC   C1B 5959  20.300  13.489   8.696
  236POPC   C2B 5960  20.243  13.696   8.312
  236POPC   C3B 5961  20.354  13.550   7.909
  236POPC   C4B 5962  20.322  13.711   7.495
  237POPC   NC3 5963  40.370   6.444   9.469
  237POPC   PO4 5964  39.739   6.384   9.464
  237POPC   GL1 5965  39.766   6.617   9.087
  237POPC   GL2 5966  40.106   6.626   9.061
  237POPC   C1A 5967  39.679   6.707   8.663
  237POPC   D2A 5968  39.645   6.427   8.320
  237POPC   C3A 5969  39.694   6.682   7.961
  237POPC   C4A 5970  40.065   6.833   7.775
  237POPC   C1B 5971  40.130   6.463   8.652
  237POPC   C2B 5972  40.170   6.634   8.240
  237POPC   C3B 5973  40.468   6.518   7.924
  237POPC   C4B 5974  40.441   6.156   7.646
  238POPC   NC3 5975  37.955  42.775   9.477
  238POPC   PO4 5976  37.568  43.339   9.559
  238POPC   GL1 5977  37.700  43.119   9.214
  238POPC   GL2 5978  38.063  43.224   9.279
  238POPC   C1A 5979  37.701  42.906   8.797
  238POPC   D2A 5980  37.567  42.891   8.365
  238POPC   C3A 5981  37.664  42.936   7.934
  238POPC   C4A 5982  37.284  43.067   7.721
  238POPC   C1B 5983  38.018  43.291   8.854
  238POPC   C2B 5984  38.052  43.107   8.467
  238POPC   C3B 5985  37.972  43.303   8.102
  238POPC   C4B 5986  38.058  43.234   7.725
  239POPC   NC3 5987  31.875  12.859   9.550
  239POPC   PO4 5988  32.353  12.609   9.266
  239POPC   GL1 5989  32.162  12.760   8.981
  239POPC   GL2 5990  31.966  13.032   9.081
  239POPC   C1A 5991  32.353  12.750   8.601
  239POPC   D2A 5992  32.522  12.542   8.270
  239POPC   C3A 5993  32.444  12.780   7.910
  239POPC   C4A 5994  32.279  12.710   7.500
  239POPC   C1B 5995  31.875  12.955   8.631
  239POPC   C2B 5996  31.959  12.624   8.297
  239POPC   C3B 5997  31.926  12.727   7.867
  239POPC   C4B 5998  32.009  13.109   7.657
  240POPC   NC3 5999   6.884  10.442   9.561
  240POPC   PO4 6000   6.256  10.186   9.459
  240POPC   GL1 6001   6.584  10.218   9.182
  240POPC   GL2 6002   6.950  10.312   9.075
  240POPC   C1A 6003   6.575  10.130   8.774
  240POPC   D2A 6004   6.662  10.356   8.436
  240POPC   C3A 6005   6.477  10.231   8.086
  240POPC   C4A 6006   6.534  10.266   7.689
  240POPC   C1B 6007   6.675  10.663   8.874
  240POPC   C2B 6008   6.709  10.872   8.446
  240POPC   C3B 6009   6.649  10.703   8.000
  240POPC   C4B 6010   6.992  10.511   7.727
  241POPC   NC3 6011  43.394   5.078   9.733
  241POPC   PO4 6012  43.014   5.327   9.215
  241POPC   GL1 6013  43.183   4.977   9.045
  241POPC   GL2 6014  42.899   4.936   8.894
  241POPC   C1A 6015  43.293   4.722   8.676
  241POPC   D2A 6016  43.135   4.663   8.256
  241POPC   C3A 6017  43.052   5.058   8.030
  241POPC   C4A 6018  43.225   5.242   7.674
  241POPC   C1B 6019  42.858   5.015   8.501
  241POPC   C2B 6020  42.563   5.129   8.211
  241POPC   C3B 6021  42.604   5.136   7.783
  241POPC   C4B 6022  42.838   5.008   7.458
  242POPC   NC3 6023  25.047   0.891   9.352
  242POPC   PO4 6024  25.717   1.202   9.418
  242POPC   GL1 6025  25.406   1.212   9.159
  242POPC   GL2 6026  25.192   1.479   9.211
  242POPC   C1A 6027  25.478   1.186   8.744
  242POPC   D2A 6028  25.579   1.371   8.371
  242POPC   C3A 6029  25.600   1.074   8.075
  242POPC   C4A 6030  25.544   1.181   7.675
  242POPC   C1B 6031  24.990   1.343   8.806
  242POPC   C2B 6032  25.079   1.133   8.401
  242POPC   C3B 6033  25.123   1.235   7.966
  242POPC   C4B 6034  25.049   1.175   7.510
  243POPC   NC3 6035  22.818  22.060   9.490
  243POPC   PO4 6036  23.298  22.371   9.191
  243POPC   GL1 6037  22.935  22.223   9.026
  243POPC   GL2 6038  22.614  22.401   9.157
  243POPC   C1A 6039  23.024  22.128   8.608
  243POPC   D2A 6040  23.238  21.820   8.361
  243POPC   C3A 6041  23.227  21.935   7.921
  243POPC   C4A 6042  22.800  21.961   7.796
  243POPC   C1B 6043  22.647  22.486   8.711
  243POPC   C2B 6044  22.665  22.593   8.294
  243POPC   C3B 6045  22.683  22.455   7.877
  243POPC   C4B 6046  23.051  22.398   7.615
  244POPC   NC3 6047  39.695  36.669   9.662
  244POPC   PO4 6048  40.238  36.984   9.499
  244POPC   GL1 6049  40.024  36.863   9.149
  244POPC   GL2 6050  40.294  37.013   8.991
  244POPC   C1A 6051  39.997  36.693   8.733
  244POPC   D2A 6052  39.889  36.962   8.438
  244POPC   C3A 6053  39.881  36.846   8.024
  244POPC   C4A 6054  40.140  36.519   7.815
  244POPC   C1B 6055  40.273  37.248   8.626
  244POPC   C2B 6056  40.256  37.198   8.192
  244POPC   C3B 6057  40.342  36.985   7.858
  244POPC   C4B 6058  40.443  37.305   7.647
  245POPC   NC3 6059  34.297  12.855   9.422
  245POPC   PO4 6060  34.896  13.200   9.217
  245POPC   GL1 6061  34.621  13.050   9.004
  245POPC   GL2 6062  34.557  12.743   8.995
  245POPC   C1A 6063  34.633  13.106   8.597
  245POPC   D2A 6064  34.635  13.253   8.230
  245POPC   C3A 6065  34.333  12.949   8.119
  245POPC   C4A 6066  34.487  12.820   7.790
  245POPC   C1B 6067  34.299  12.710   8.623
  245POPC   C2B 6068  34.253  12.416   8.261
  245POPC   C3B 6069  34.385  12.341   7.846
  245POPC   C4B 6070  34.292  12.523   7.418
  246POPC   NC3 6071  12.248  27.560   9.465
  246POPC   PO4 6072  11.632  27.590   9.693
  246POPC   GL1 6073  11.855  27.491   9.177
  246POPC   GL2 6074  12.243  27.468   8.983
  246POPC   C1A 6075  11.915  27.764   8.756
  246POPC   D2A 6076  11.876  27.849   8.319
  246POPC   C3A 6077  12.176  27.680   8.081
  246POPC   C4A 6078  12.344  27.748   7.726
  246POPC   C1B 6079  11.999  27.236   8.705
  246POPC   C2B 6080  12.099  26.994   8.364
  246POPC   C3B 6081  12.244  27.036   7.987
  246POPC   C4B 6082  12.107  27.287   7.701
  247POPC   NC3 6083  43.877   9.877   9.456
  247POPC   PO4 6084  43.591   9.284   9.341
  247POPC   GL1 6085  43.803   9.535   9.037
  247POPC   GL2 6086  44.134   9.612   9.060
  247POPC   C1A 6087  43.917   9.491   8.599
  247POPC   D2A 6088  43.994   9.361   8.160
  247POPC   C3A 6089  43.632   9.571   7.957
  247POPC   C4A 6090  43.688   9.993   7.834
  247POPC   C1B 6091  44.088   9.966   8.767
  247POPC   C2B 6092  44.019  10.156   8.325
  247POPC   C3B 6093  44.160  10.224   7.867
  247POPC   C4B 6094  44.211  10.130   7.403
  248POPC   NC3 6095  43.580   6.780   9.450
  248POPC   PO4 6096  44.250   6.640   9.621
  248POPC   GL1 6097  44.003   6.626   9.211
  248POPC   GL2 6098  43.742   6.339   9.220
  248POPC   C1A 6099  43.851   6.870   8.828
  248POPC   D2A 6100  44.053   6.936   8.407
  248POPC   C3A 6101  43.897   6.667   8.038
  248POPC   C4A 6102  44.006   6.857   7.633
  248POPC   C1B 6103  43.603   6.422   8.789
  248POPC   C2B 6104  43.454   6.311   8.370
  248POPC   C3B 6105  43.503   6.262   7.923
  248POPC   C4B 6106  43.659   6.489   7.559
  249POPC   NC3 6107  17.950  29.297   9.483
  249POPC   PO4 6108  18.541  29.044   9.510
  249POPC   GL1 6109  18.322  29.160   9.141
  249POPC   GL2 6110  18.153  29.489   9.049
  249POPC   C1A 6111  18.096  28.953   8.839
  249POPC   D2A 6112  18.035  28.939   8.378
  249POPC   C3A 6113  18.339  29.186   8.149
  249POPC   C4A 6114  18.410  29.273   7.708
  249POPC   C1B 6115  18.162  29.410   8.616
  249POPC   C2B 6116  18.014  29.580   8.238
  249POPC   C3B 6117  17.944  29.382   7.843
  249POPC   C4B 6118  17.994  29.360   7.376
  250POPC   NC3 6119  19.798   1.019   9.578
  250POPC   PO4 6120  19.683   1.605   9.339
  250POPC   GL1 6121  19.972   1.344   9.116
  250POPC   GL2 6122  20.096   0.992   9.147
  250POPC   C1A 6123  20.025   1.527   8.719
  250POPC   D2A 6124  19.942   1.431   8.316
  250POPC   C3A 6125  19.580   1.585   8.099
  250POPC   C4A 6126  19.690   1.620   7.676
  250POPC   C1B 6127  19.954   1.014   8.682
  250POPC   C2B 6128  20.128   0.971   8.238
  250POPC   C3B 6129  19.901   1.146   7.854
  250POPC   C4B 6130  19.993   1.234   7.430
  251POPC   NC3 6131  36.323  11.492   9.798
  251POPC   PO4 6132  35.953  11.900   9.780
  251POPC   GL1 6133  35.970  12.013   9.292
  251POPC   GL2 6134  36.309  12.081   9.117
  251POPC   C1A 6135  35.894  12.024   8.804
  251POPC   D2A 6136  35.827  11.819   8.377
  251POPC   C3A 6137  35.921  12.038   7.987
  251POPC   C4A 6138  36.003  12.035   7.550
  251POPC   C1B 6139  36.444  12.201   8.668
  251POPC   C2B 6140  36.389  12.168   8.206
  251POPC   C3B 6141  36.428  12.023   7.790
  251POPC   C4B 6142  36.445  12.165   7.373
  252POPC   NC3 6143  30.508  24.358   9.228
  252POPC   PO4 6144  30.950  24.772   9.425
  252POPC   GL1 6145  30.852  24.702   9.052
  252POPC   GL2 6146  31.004  24.338   9.120
  252POPC   C1A 6147  30.607  24.636   8.659
  252POPC   D2A 6148  30.602  24.408   8.300
  252POPC   C3A 6149  30.707  24.722   8.026
  252POPC   C4A 6150  30.846  24.648   7.632
  252POPC   C1B 6151  31.099  24.435   8.723
  252POPC   C2B 6152  31.089  24.540   8.343
  252POPC   C3B 6153  31.029  24.326   8.004
  252POPC   C4B 6154  31.233  24.344   7.676
  253POPC   NC3 6155  39.328  37.225   9.175
  253POPC   PO4 6156  39.204  36.688   9.579
  253POPC   GL1 6157  39.119  36.744   9.122
  253POPC   GL2 6158  38.899  36.974   9.011
  253POPC   C1A 6159  39.135  36.781   8.618
  253POPC   D2A 6160  39.400  37.088   8.392
  253POPC   C3A 6161  39.413  37.057   7.935
  253POPC   C4A 6162  39.222  36.735   7.662
  253POPC   C1B 6163  38.912  37.254   8.661
  253POPC   C2B 6164  38.962  37.296   8.273
  253POPC   C3B 6165  38.946  36.919   8.093
  253POPC   C4B 6166  38.749  36.948   7.754
  254POPC   NC3 6167  25.510   3.206   9.383
  254POPC   PO4 6168  25.182   3.776   9.484
  254POPC   GL1 6169  25.155   3.818   9.047
  254POPC   GL2 6170  25.213   3.475   9.062
  254POPC   C1A 6171  25.095   3.661   8.611
  254POPC   D2A 6172  25.362   3.526   8.272
  254POPC   C3A 6173  25.313   3.762   7.920
  254POPC   C4A 6174  25.043   3.717   7.543
  254POPC   C1B 6175  25.438   3.277   8.727
  254POPC   C2B 6176  25.303   3.032   8.395
  254POPC   C3B 6177  25.393   3.030   8.004
  254POPC   C4B 6178  25.235   3.291   7.711
  255POPC   NC3 6179   2.202  19.653   9.369
  255POPC   PO4 6180   1.921  20.248   9.552
  255POPC   GL1 6181   2.115  20.129   9.177
  255POPC   GL2 6182   1.787  20.137   9.054
  255POPC   C1A 6183   2.133  19.936   8.759
  255POPC   D2A 6184   1.940  19.737   8.430
  255POPC   C3A 6185   2.220  19.827   8.113
  255POPC   C4A 6186   2.175  19.814   7.687
  255POPC   C1B 6187   1.580  20.129   8.720
  255POPC   C2B 6188   1.709  20.199   8.342
  255POPC   C3B 6189   1.758  19.991   7.992
  255POPC   C4B 6190   1.499  20.080   7.660
  256POPC   NC3 6191  32.666  32.090   9.383
  256POPC   PO4 6192  33.345  32.297   9.452
  256POPC   GL1 6193  33.048  32.378   9.121
  256POPC   GL2 6194  32.844  32.109   8.908
  256POPC   C1A 6195  32.934  32.572   8.743
  256POPC   D2A 6196  32.954  32.393   8.351
  256POPC   C3A 6197  33.238  32.365   8.009
  256POPC   C4A 6198  33.078  32.403   7.603
  256POPC   C1B 6199  33.253  32.154   8.691
  256POPC   C2B 6200  33.384  31.960   8.308
  256POPC   C3B 6201  33.123  31.881   7.900
  256POPC   C4B 6202  32.995  31.851   7.433
  257POPC   NC3 6203  35.967  10.714   9.282
  257POPC   PO4 6204  35.881  10.214   9.653
  257POPC   GL1 6205  35.938  10.120   9.200
  257POPC   GL2 6206  36.271  10.181   8.993
  257POPC   C1A 6207  35.797  10.271   8.823
  257POPC   D2A 6208  35.763  10.181   8.428
  257POPC   C3A 6209  35.828  10.484   8.111
  257POPC   C4A 6210  36.156  10.546   7.791
  257POPC   C1B 6211  36.237  10.381   8.536
  257POPC   C2B 6212  36.218  10.788   8.241
  257POPC   C3B 6213  36.509  10.915   7.887
  257POPC   C4B 6214  36.684  10.706   7.480
  258POPC   NC3 6215  40.596   9.769   9.546
  258POPC   PO4 6216  41.094   9.361   9.396
  258POPC   GL1 6217  40.794   9.550   9.095
  258POPC   GL2 6218  40.731   9.919   9.079
  258POPC   C1A 6219  40.823   9.578   8.639
  258POPC   D2A 6220  41.148   9.580   8.314
  258POPC   C3A 6221  40.962   9.649   7.913
  258POPC   C4A 6222  40.745   9.423   7.585
  258POPC   C1B 6223  40.467   9.954   8.728
  258POPC   C2B 6224  40.609   9.961   8.288
  258POPC   C3B 6225  40.545  10.176   7.890
  258POPC   C4B 6226  40.290  10.213   7.528
  259POPC   NC3 6227  20.158   6.126   9.385
  259POPC   PO4 6228  19.577   5.717   9.415
  259POPC   GL1 6229  19.814   5.813   9.100
  259POPC   GL2 6230  19.621   6.082   8.992
  259POPC   C1A 6231  19.836   5.632   8.703
  259POPC   D2A 6232  19.941   5.524   8.306
  259POPC   C3A 6233  19.725   5.792   8.029
  259POPC   C4A 6234  19.675   5.808   7.594
  259POPC   C1B 6235  20.054   6.106   8.767
  259POPC   C2B 6236  20.220   5.935   8.427
  259POPC   C3B 6237  20.203   6.056   8.033
  259POPC   C4B 6238  19.939   6.199   7.772
  260POPC   NC3 6239  26.548   0.610   9.376
  260POPC   PO4 6240  26.957   0.093   9.581
  260POPC   GL1 6241  26.921   0.319   9.165
  260POPC   GL2 6242  27.007   0.718   9.169
  260POPC   C1A 6243  26.722   0.398   8.752
  260POPC   D2A 6244  26.781   0.231   8.331
  260POPC   C3A 6245  26.675   0.260   7.888
  260POPC   C4A 6246  26.915   0.250   7.528
  260POPC   C1B 6247  26.819   0.909   8.771
  260POPC   C2B 6248  26.693   0.763   8.341
  260POPC   C3B 6249  26.859   0.757   7.930
  260POPC   C4B 6250  27.049   0.963   7.594
  261POPC   NC3 6251  20.406  31.941   9.274
  261POPC   PO4 6252  21.108  31.997   9.343
  261POPC   GL1 6253  20.830  32.157   9.055
  261POPC   GL2 6254  20.615  32.412   9.241
  261POPC   C1A 6255  20.651  31.989   8.649
  261POPC   D2A 6256  20.409  31.983   8.251
  261POPC   C3A 6257  20.709  31.951   7.908
  261POPC   C4A 6258  20.739  32.161   7.500
  261POPC   C1B 6259  20.525  32.467   8.795
  261POPC   C2B 6260  20.381  32.492   8.367
  261POPC   C3B 6261  20.568  32.439   7.963
  261POPC   C4B 6262  20.396  32.505   7.571
  262POPC   NC3 6263  21.585   3.294   9.656
  262POPC   PO4 6264  21.350   2.572   9.532
  262POPC   GL1 6265  21.443   2.910   9.238
  262POPC   GL2 6266  21.808   2.981   9.205
  262POPC   C1A 6267  21.217   2.929   8.837
  262POPC   D2A 6268  20.887   2.810   8.545
  262POPC   C3A 6269  20.967   2.861   8.109
  262POPC   C4A 6270  21.212   2.705   7.789
  262POPC   C1B 6271  21.733   2.847   8.766
  262POPC   C2B 6272  21.465   2.765   8.386
  262POPC   C3B 6273  21.642   2.886   7.991
  262POPC   C4B 6274  21.822   2.667   7.660
  263POPC   NC3 6275  44.327  33.986   9.331
  263POPC   PO4 6276  43.923  33.485   9.555
  263POPC   GL1 6277  43.782  33.646   9.152
  263POPC   GL2 6278  44.070  33.742   8.981
  263POPC   C1A 6279  43.726  33.525   8.692
  263POPC   D2A 6280  43.932  33.769   8.347
  263POPC   C3A 6281  43.667  33.865   8.002
  263POPC   C4A 6282  43.540  33.609   7.660
  263POPC   C1B 6283  44.059  34.093   8.717
  263POPC   C2B 6284  43.866  34.270   8.327
  263POPC   C3B 6285  44.045  34.210   7.927
  263POPC   C4B 6286  43.863  34.095   7.560
  264POPC   NC3 6287  20.383   7.011   9.363
  264POPC   PO4 6288  19.975   6.505   9.622
  264POPC   GL1 6289  19.878   6.503   9.168
  264POPC   GL2 6290  20.177   6.567   9.003
  264POPC   C1A 6291  19.709   6.477   8.711
  264POPC   D2A 6292  19.788   6.209   8.344
  264POPC   C3A 6293  19.763   6.533   8.111
  264POPC   C4A 6294  19.734   6.646   7.716
  264POPC   C1B 6295  19.888   6.923   8.866
  264POPC   C2B 6296  19.929   7.142   8.475
  264POPC   C3B 6297  19.946   7.001   8.082
  264POPC   C4B 6298  19.869   7.138   7.692
  265POPC   NC3 6299   5.635  19.121   9.645
  265POPC   PO4 6300   5.519  18.552   9.320
  265POPC   GL1 6301   5.820  18.940   9.213
  265POPC   GL2 6302   6.165  19.120   9.149
  265POPC   C1A 6303   5.735  19.188   8.853
  265POPC   D2A 6304   5.710  19.038   8.438
  265POPC   C3A 6305   5.908  19.182   8.063
  265POPC   C4A 6306   5.663  19.143   7.697
  265POPC   C1B 6307   6.093  18.849   8.780
  265POPC   C2B 6308   6.212  18.899   8.389
  265POPC   C3B 6309   6.244  18.712   8.022
  265POPC   C4B 6310   6.067  18.837   7.658
  266POPC   NC3 6311  36.860   5.618   9.575
  266POPC   PO4 6312  37.273   6.063   9.400
  266POPC   GL1 6313  36.971   5.862   9.116
  266POPC   GL2 6314  36.774   5.516   9.083
  266POPC   C1A 6315  36.743   5.858   8.700
  266POPC   D2A 6316  36.476   5.805   8.344
  266POPC   C3A 6317  36.759   5.881   8.025
  266POPC   C4A 6318  36.934   5.875   7.630
  266POPC   C1B 6319  37.142   5.531   8.794
  266POPC   C2B 6320  37.135   5.689   8.393
  266POPC   C3B 6321  37.137   5.544   8.033
  266POPC   C4B 6322  37.363   5.621   7.740
  267POPC   NC3 6323   8.178  36.411   9.469
  267POPC   PO4 6324   8.357  37.084   9.562
  267POPC   GL1 6325   8.289  37.038   9.135
  267POPC   GL2 6326   8.431  36.728   9.172
  267POPC   C1A 6327   8.092  36.880   8.737
  267POPC   D2A 6328   7.992  36.885   8.326
  267POPC   C3A 6329   8.188  37.089   8.027
  267POPC   C4A 6330   8.129  36.954   7.696
  267POPC   C1B 6331   8.435  36.519   8.814
  267POPC   C2B 6332   8.283  36.465   8.426
  267POPC   C3B 6333   8.410  36.620   8.049
  267POPC   C4B 6334   8.372  36.509   7.649
  268POPC   NC3 6335  27.019  17.327   9.621
  268POPC   PO4 6336  27.267  17.916   9.403
  268POPC   GL1 6337  27.561  17.797   9.035
  268POPC   GL2 6338  27.864  17.583   9.108
  268POPC   C1A 6339  27.701  17.613   8.632
  268POPC   D2A 6340  27.506  17.433   8.282
  268POPC   C3A 6341  27.706  17.535   7.924
  268POPC   C4A 6342  27.630  17.691   7.509
  268POPC   C1B 6343  28.042  17.281   8.819
  268POPC   C2B 6344  27.960  17.203   8.365
  268POPC   C3B 6345  27.751  17.034   7.967
  268POPC   C4B 6346  27.566  17.153   7.544
  269POPC   NC3 6347   9.256  14.378   9.516
  269POPC   PO4 6348   8.676  14.604   9.323
  269POPC   GL1 6349   8.927  14.319   9.127
  269POPC   GL2 6350   9.163  14.627   9.066
  269POPC   C1A 6351   9.194  14.193   8.765
  269POPC   D2A 6352   9.335  14.003   8.355
  269POPC   C3A 6353   9.201  14.205   7.977
  269POPC   C4A 6354   9.079  14.405   7.559
  269POPC   C1B 6355   8.870  14.597   8.708
  269POPC   C2B 6356   8.949  14.449   8.328
  269POPC   C3B 6357   9.131  14.715   7.985
  269POPC   C4B 6358   8.793  14.814   7.702
  270POPC   NC3 6359   8.232  18.631   9.379
  270POPC   PO4 6360   8.409  17.989   9.444
  270POPC   GL1 6361   8.258  18.178   9.097
  270POPC   GL2 6362   7.929  18.193   9.243
  270POPC   C1A 6363   8.348  18.292   8.651
  270POPC   D2A 6364   8.277  18.362   8.217
  270POPC   C3A 6365   8.363  18.361   7.798
  270POPC   C4A 6366   8.261  18.709   7.509
  270POPC   C1B 6367   7.827  18.270   8.823
  270POPC   C2B 6368   7.845  18.132   8.398
  270POPC   C3B 6369   7.797  18.387   8.052
  270POPC   C4B 6370   7.886  18.356   7.648
  271POPC   NC3 6371  20.030  31.837   9.657
  271POPC   PO4 6372  20.018  31.278   9.361
  271POPC   GL1 6373  19.930  31.541   9.075
  271POPC   GL2 6374  19.585  31.601   9.221
  271POPC   C1A 6375  19.968  31.314   8.677
  271POPC   D2A 6376  20.043  31.532   8.337
  271POPC   C3A 6377  19.902  31.342   7.991
  271POPC   C4A 6378  19.944  31.629   7.709
  271POPC   C1B 6379  19.501  31.352   8.841
  271POPC   C2B 6380  19.466  31.433   8.424
  271POPC   C3B 6381  19.537  31.682   8.075
  271POPC   C4B 6382  19.480  31.408   7.713
  272POPC   NC3 6383  15.561  13.773   9.791
  272POPC   PO4 6384  14.987  13.903   9.590
  272POPC   GL1 6385  15.173  13.703   9.182
  272POPC   GL2 6386  15.204  13.355   9.062
  272POPC   C1A 6387  15.240  13.820   8.743
  272POPC   D2A 6388  15.505  13.891   8.372
  272POPC   C3A 6389  15.405  13.808   7.913
  272POPC   C4A 6390  15.194  13.800   7.465
  272POPC   C1B 6391  15.337  13.319   8.666
  272POPC   C2B 6392  15.180  13.505   8.326
  272POPC   C3B 6393  15.088  13.415   7.923
  272POPC   C4B 6394  15.305  13.193   7.605
  273POPC   NC3 6395  34.981  15.819   9.507
  273POPC   PO4 6396  34.391  15.687   9.218
  273POPC   GL1 6397  34.652  15.871   8.995
  273POPC   GL2 6398  34.744  16.157   9.207
  273POPC   C1A 6399  34.380  15.931   8.621
  273POPC   D2A 6400  34.382  15.643   8.280
  273POPC   C3A 6401  34.227  15.762   7.906
  273POPC   C4A 6402  34.490  16.029   7.702
  273POPC   C1B 6403  34.780  16.293   8.778
  273POPC   C2B 6404  34.927  16.361   8.358
  273POPC   C3B 6405  34.844  16.307   7.924
  273POPC   C4B 6406  34.796  16.369   7.436
  274POPC   NC3 6407  26.675  42.147   9.552
  274POPC   PO4 6408  27.300  42.400   9.457
  274POPC   GL1 6409  27.133  42.395   9.074
  274POPC   GL2 6410  26.822  42.359   9.117
  274POPC   C1A 6411  26.966  42.417   8.620
  274POPC   D2A 6412  26.980  42.668   8.237
  274POPC   C3A 6413  26.986  42.423   7.857
  274POPC   C4A 6414  26.663  42.445   7.529
  274POPC   C1B 6415  26.612  42.112   8.859
  274POPC   C2B 6416  26.421  42.226   8.510
  274POPC   C3B 6417  26.617  42.290   8.162
  274POPC   C4B 6418  26.722  42.012   7.803
  275POPC   NC3 6419  12.861  42.720   9.635
  275POPC   PO4 6420  13.043  42.223   9.259
  275POPC   GL1 6421  12.765  42.344   8.970
  275POPC   GL2 6422  13.112  42.334   8.772
  275POPC   C1A 6423  12.654  42.207   8.565
  275POPC   D2A 6424  12.979  42.312   8.290
  275POPC   C3A 6425  13.161  42.024   8.125
  275POPC   C4A 6426  12.839  41.965   7.870
  275POPC   C1B 6427  13.216  42.700   8.529
  275POPC   C2B 6428  13.102  42.783   8.154
  275POPC   C3B 6429  13.015  42.498   7.806
  275POPC   C4B 6430  13.076  42.430   7.371
  276POPC   NC3 6431  39.727  40.223   9.448
  276POPC   PO4 6432  39.621  39.549   9.484
  276POPC   GL1 6433  39.805  39.770   9.079
  276POPC   GL2 6434  39.793  40.113   8.974
  276POPC   C1A 6435  40.122  39.741   8.736
  276POPC   D2A 6436  40.113  39.603   8.290
  276POPC   C3A 6437  40.127  39.868   7.866
  276POPC   C4A 6438  40.046  39.987   7.407
  276POPC   C1B 6439  40.128  40.256   8.737
  276POPC   C2B 6440  40.194  40.130   8.327
  276POPC   C3B 6441  40.108  40.398   7.969
  276POPC   C4B 6442  40.243  40.444   7.537
  277POPC   NC3 6443  16.524  13.010   9.536
  277POPC   PO4 6444  17.035  12.592   9.432
  277POPC   GL1 6445  16.784  12.509   9.075
  277POPC   GL2 6446  16.631  12.841   9.021
  277POPC   C1A 6447  16.884  12.594   8.637
  277POPC   D2A 6448  16.712  12.942   8.421
  277POPC   C3A 6449  16.705  12.873   7.989
  277POPC   C4A 6450  16.859  12.791   7.581
  277POPC   C1B 6451  16.381  12.611   8.688
  277POPC   C2B 6452  16.259  12.679   8.261
  277POPC   C3B 6453  16.286  12.654   7.802
  277POPC   C4B 6454  16.406  12.976   7.500
  278POPC   NC3 6455  14.875  11.660   9.634
  278POPC   PO4 6456  15.433  11.353   9.432
  278POPC   GL1 6457  15.197  11.640   9.234
  278POPC   GL2 6458  15.415  11.782   9.054
  278POPC   C1A 6459  15.062  11.467   8.861
  278POPC   D2A 6460  15.103  11.134   8.560
  278POPC   C3A 6461  15.285  11.211   8.140
  278POPC   C4A 6462  15.096  11.333   7.735
  278POPC   C1B 6463  15.553  11.567   8.684
  278POPC   C2B 6464  15.651  11.628   8.257
  278POPC   C3B 6465  15.581  11.512   7.841
  278POPC   C4B 6466  15.536  11.087   7.690
  279POPC   NC3 6467   5.724  18.138   9.484
  279POPC   PO4 6468   6.372  18.281   9.548
  279POPC   GL1 6469   6.142  18.204   9.133
  279POPC   GL2 6470   5.946  18.452   9.081
  279POPC   C1A 6471   5.955  18.076   8.692
  279POPC   D2A 6472   5.783  17.868   8.303
  279POPC   C3A 6473   5.893  17.911   7.893
  279POPC   C4A 6474   5.999  18.336   7.805
  279POPC   C1B 6475   5.709  18.534   8.703
  279POPC   C2B 6476   5.846  18.500   8.301
  279POPC   C3B 6477   5.691  18.713   7.968
  279POPC   C4B 6478   5.585  18.663   7.522
  280POPC   NC3 6479  37.632  17.331   9.659
  280POPC   PO4 6480  38.075  17.835   9.456
  280POPC   GL1 6481  37.673  17.749   9.228
  280POPC   GL2 6482  37.531  17.398   9.156
  280POPC   C1A 6483  37.570  17.741   8.789
  280POPC   D2A 6484  37.413  17.679   8.388
  280POPC   C3A 6485  37.671  17.767   8.033
  280POPC   C4A 6486  37.645  17.692   7.595
  280POPC   C1B 6487  37.615  17.193   8.741
  280POPC   C2B 6488  37.734  17.247   8.314
  280POPC   C3B 6489  38.014  17.362   7.988
  280POPC   C4B 6490  37.918  17.268   7.592
  281POPC   NC3 6491  27.135   4.346   9.789
  281POPC   PO4 6492  27.743   4.408   9.554
  281POPC   GL1 6493  27.645   4.311   9.151
  281POPC   GL2 6494  27.297   4.371   9.086
  281POPC   C1A 6495  27.628   4.112   8.757
  281POPC   D2A 6496  27.564   4.288   8.370
  281POPC   C3A 6497  27.757   4.149   8.010
  281POPC   C4A 6498  27.498   4.346   7.729
  281POPC   C1B 6499  27.474   4.636   8.747
  281POPC   C2B 6500  27.538   4.797   8.327
  281POPC   C3B 6501  27.808   4.667   7.980
  281POPC   C4B 6502  27.813   4.640   7.497
  282POPC   NC3 6503  18.977  31.618   9.653
  282POPC   PO4 6504  19.203  31.012   9.540
  282POPC   GL1 6505  19.174  31.267   9.192
  282POPC   GL2 6506  18.902  31.486   9.183
  282POPC   C1A 6507  19.001  31.262   8.754
  282POPC   D2A 6508  18.767  31.250   8.410
  282POPC   C3A 6509  19.070  31.059   8.151
  282POPC   C4A 6510  19.079  31.078   7.704
  282POPC   C1B 6511  19.145  31.726   8.923
  282POPC   C2B 6512  19.025  31.731   8.500
  282POPC   C3B 6513  19.059  31.553   8.113
  282POPC   C4B 6514  19.096  31.715   7.721
  283POPC   NC3 6515  29.980  31.197   9.455
  283POPC   PO4 6516  29.642  31.730   9.531
  283POPC   GL1 6517  29.794  31.572   9.191
  283POPC   GL2 6518  29.609  31.252   9.131
  283POPC   C1A 6519  29.992  31.658   8.865
  283POPC   D2A 6520  29.809  31.887   8.561
  283POPC   C3A 6521  29.756  31.743   8.181
  283POPC   C4A 6522  29.825  31.812   7.758
  283POPC   C1B 6523  29.903  31.173   8.777
  283POPC   C2B 6524  30.069  31.413   8.416
  283POPC   C3B 6525  30.096  31.433   7.990
  283POPC   C4B 6526  30.087  31.354   7.556
  284POPC   NC3 6527  26.626   0.629   9.906
  284POPC   PO4 6528  26.193   0.328   9.318
  284POPC   GL1 6529  26.004   0.280   8.983
  284POPC   GL2 6530  25.691   0.215   9.086
  284POPC   C1A 6531  25.831   0.563   8.736
  284POPC   D2A 6532  25.861   0.523   8.333
  284POPC   C3A 6533  26.258   0.435   8.144
  284POPC   C4A 6534  26.237   0.580   7.720
  284POPC   C1B 6535  25.653  44.995   8.684
  284POPC   C2B 6536  25.870   0.001   8.289
  284POPC   C3B 6537  25.840   0.250   7.914
  284POPC   C4B 6538  25.892   0.303   7.460
  285POPC   NC3 6539  32.210  36.399   9.692
  285POPC   PO4 6540  32.589  35.993   9.331
  285POPC   GL1 6541  32.244  35.892   9.100
  285POPC   GL2 6542  32.071  36.188   9.141
  285POPC   C1A 6543  32.325  35.955   8.697
  285POPC   D2A 6544  32.190  36.048   8.333
  285POPC   C3A 6545  32.402  36.050   7.989
  285POPC   C4A 6546  32.632  36.195   7.721
  285POPC   C1B 6547  31.826  36.065   8.760
  285POPC   C2B 6548  31.737  35.840   8.346
  285POPC   C3B 6549  31.895  35.923   7.945
  285POPC   C4B 6550  32.060  36.158   7.595
  286POPC   NC3 6551  16.612  40.913   9.504
  286POPC   PO4 6552  16.298  40.322   9.550
  286POPC   GL1 6553  16.616  40.376   9.225
  286POPC   GL2 6554  16.917  40.536   9.285
  286POPC   C1A 6555  16.528  40.397   8.809
  286POPC   D2A 6556  16.301  40.466   8.421
  286POPC   C3A 6557  16.410  40.756   8.111
  286POPC   C4A 6558  16.666  40.829   7.761
  286POPC   C1B 6559  17.013  40.546   8.819
  286POPC   C2B 6560  16.791  40.610   8.429
  286POPC   C3B 6561  16.770  40.382   8.013
  286POPC   C4B 6562  16.953  40.450   7.587
  287POPC   NC3 6563  32.514  31.416   9.537
  287POPC   PO4 6564  32.069  31.875   9.794
  287POPC   GL1 6565  32.101  31.605   9.311
  287POPC   GL2 6566  31.983  31.288   9.321
  287POPC   C1A 6567  32.354  31.546   8.876
  287POPC   D2A 6568  32.359  31.247   8.463
  287POPC   C3A 6569  32.420  31.414   8.014
  287POPC   C4A 6570  32.267  31.828   7.861
  287POPC   C1B 6571  31.943  31.266   8.872
  287POPC   C2B 6572  31.934  31.544   8.516
  287POPC   C3B 6573  31.898  31.488   8.054
  287POPC   C4B 6574  32.013  31.088   7.893
  288POPC   NC3 6575  39.825  26.544   9.486
  288POPC   PO4 6576  39.851  27.270   9.535
  288POPC   GL1 6577  39.897  26.957   9.210
  288POPC   GL2 6578  39.623  26.800   9.061
  288POPC   C1A 6579  40.078  26.793   8.815
  288POPC   D2A 6580  40.300  26.567   8.478
  288POPC   C3A 6581  40.224  26.623   8.035
  288POPC   C4A 6582  40.061  26.692   7.600
  288POPC   C1B 6583  39.597  26.611   8.702
  288POPC   C2B 6584  39.805  26.796   8.351
  288POPC   C3B 6585  39.688  26.619   7.954
  288POPC   C4B 6586  39.570  26.629   7.503
  289POPC   NC3 6587  17.841  22.814   9.778
  289POPC   PO4 6588  17.355  23.143   9.514
  289POPC   GL1 6589  17.620  22.926   9.211
  289POPC   GL2 6590  17.348  22.992   9.013
  289POPC   C1A 6591  17.752  22.781   8.770
  289POPC   D2A 6592  17.796  22.584   8.341
  289POPC   C3A 6593  17.644  22.824   7.981
  289POPC   C4A 6594  17.881  23.065   7.714
  289POPC   C1B 6595  17.171  22.804   8.685
  289POPC   C2B 6596  17.292  22.655   8.303
  289POPC   C3B 6597  17.184  22.596   7.863
  289POPC   C4B 6598  17.270  22.895   7.559
  290POPC   NC3 6599  41.879   4.941   9.429
  290POPC   PO4 6600  41.541   5.554   9.358
  290POPC   GL1 6601  41.488   5.268   8.997
  290POPC   GL2 6602  41.476   4.913   9.136
  290POPC   C1A 6603  41.635   5.273   8.542
  290POPC   D2A 6604  41.746   5.355   8.086
  290POPC   C3A 6605  41.385   5.245   7.875
  290POPC   C4A 6606  41.190   4.851   7.841
  290POPC   C1B 6607  41.668   4.810   8.764
  290POPC   C2B 6608  41.525   4.735   8.383
  290POPC   C3B 6609  41.676   4.837   8.018
  290POPC   C4B 6610  41.748   4.972   7.613
  291POPC   NC3 6611  17.039  29.709   9.511
  291POPC   PO4 6612  16.551  29.881   9.275
  291POPC   GL1 6613  16.852  30.010   9.054
  291POPC   GL2 6614  16.947  29.690   8.976
  291POPC   C1A 6615  16.844  30.131   8.645
  291POPC   D2A 6616  16.824  30.299   8.248
  291POPC   C3A 6617  16.812  30.117   7.846
  291POPC   C4A 6618  16.562  30.070   7.520
  291POPC   C1B 6619  16.598  29.684   8.651
  291POPC   C2B 6620  16.609  29.784   8.200
  291POPC   C3B 6621  16.760  29.626   7.776
  291POPC   C4B 6622  16.682  29.521   7.330
  292POPC   NC3 6623  18.792  14.130   9.386
  292POPC   PO4 6624  19.131  14.692   9.599
  292POPC   GL1 6625  19.125  14.506   9.190
  292POPC   GL2 6626  19.271  14.203   9.177
  292POPC   C1A 6627  18.990  14.633   8.775
  292POPC   D2A 6628  19.046  14.500   8.389
  292POPC   C3A 6629  18.919  14.731   8.066
  292POPC   C4A 6630  19.094  14.777   7.687
  292POPC   C1B 6631  19.041  14.117   8.773
  292POPC   C2B 6632  18.801  14.060   8.377
  292POPC   C3B 6633  19.024  14.164   7.993
  292POPC   C4B 6634  19.256  14.286   7.613
  293POPC   NC3 6635  20.475  14.321   9.576
  293POPC   PO4 6636  20.453  14.933   9.460
  293POPC   GL1 6637  20.589  14.607   9.144
  293POPC   GL2 6638  20.648  14.230   9.120
  293POPC   C1A 6639  20.513  14.580   8.687
  293POPC   D2A 6640  20.388  14.440   8.257
  293POPC   C3A 6641  20.726  14.501   7.947
  293POPC   C4A 6642  20.883  14.812   7.672
  293POPC   C1B 6643  20.827  14.163   8.713
  293POPC   C2B 6644  20.703  13.960   8.314
  293POPC   C3B 6645  20.482  14.038   7.930
  293POPC   C4B 6646  20.662  14.092   7.541
  294POPC   NC3 6647   5.687   0.797   9.595
  294POPC   PO4 6648   5.901   1.457   9.463
  294POPC   GL1 6649   5.783   1.267   9.073
  294POPC   GL2 6650   5.877   0.940   9.129
  294POPC   C1A 6651   5.941   1.193   8.641
  294POPC   D2A 6652   6.307   1.416   8.492
  294POPC   C3A 6653   6.325   1.620   8.058
  294POPC   C4A 6654   6.108   1.486   7.669
  294POPC   C1B 6655   5.564   0.873   8.794
  294POPC   C2B 6656   5.674   0.841   8.344
  294POPC   C3B 6657   5.689   1.064   7.929
  294POPC   C4B 6658   6.028   0.990   7.610
  295POPC   NC3 6659  11.011  20.535   9.447
  295POPC   PO4 6660  11.609  20.927   9.372
  295POPC   GL1 6661  11.591  20.595   9.068
  295POPC   GL2 6662  11.312  20.766   8.922
  295POPC   C1A 6663  11.562  20.465   8.609
  295POPC   D2A 6664  11.254  20.699   8.401
  295POPC   C3A 6665  11.399  20.870   8.016
  295POPC   C4A 6666  11.719  20.616   7.849
  295POPC   C1B 6667  11.125  20.333   8.808
  295POPC   C2B 6668  11.101  20.155   8.396
  295POPC   C3B 6669  11.313  20.341   8.052
  295POPC   C4B 6670  11.233  20.507   7.675
  296POPC   NC3 6671  19.599  14.698   9.548
  296POPC   PO4 6672  20.006  14.210   9.609
  296POPC   GL1 6673  20.081  14.402   9.203
  296POPC   GL2 6674  19.735  14.484   9.128
  296POPC   C1A 6675  20.025  14.393   8.733
  296POPC   D2A 6676  19.920  14.139   8.381
  296POPC   C3A 6677  19.900  14.402   8.067
  296POPC   C4A 6678  20.064  14.486   7.727
  296POPC   C1B 6679  19.494  14.653   8.823
  296POPC   C2B 6680  19.573  14.599   8.417
  296POPC   C3B 6681  19.417  14.552   8.022
  296POPC   C4B 6682  19.596  14.682   7.628
  297POPC   NC3 6683  22.976   6.996   9.364
  297POPC   PO4 6684  23.175   7.509   9.738
  297POPC   GL1 6685  22.920   7.472   9.259
  297POPC   GL2 6686  22.646   7.586   9.184
  297POPC   C1A 6687  22.927   7.269   8.789
  297POPC   D2A 6688  23.261   7.152   8.455
  297POPC   C3A 6689  23.268   7.290   8.017
  297POPC   C4A 6690  23.000   7.154   7.663
  297POPC   C1B 6691  22.904   7.778   8.824
  297POPC   C2B 6692  22.958   7.590   8.386
  297POPC   C3B 6693  22.755   7.397   8.043
  297POPC   C4B 6694  22.618   7.536   7.650
  298POPC   NC3 6695   3.245   2.406   9.547
  298POPC   PO4 6696   3.689   2.818   9.756
  298POPC   GL1 6697   3.646   2.751   9.296
  298POPC   GL2 6698   3.881   2.927   9.182
  298POPC   C1A 6699   3.670   2.592   8.840
  298POPC   D2A 6700   3.536   2.324   8.518
  298POPC   C3A 6701   3.424   2.542   8.157
  298POPC   C4A 6702   3.743   2.524   7.852
  298POPC   C1B 6703   3.751   3.069   8.766
  298POPC   C2B 6704   3.511   2.993   8.420
  298POPC   C3B 6705   3.722   3.032   8.031
  298POPC   C4B 6706   3.585   2.986   7.630
  299POPC   NC3 6707  44.747   0.796   9.452
  299POPC   PO4 6708   0.013   0.185   9.171
  299POPC   GL1 6709  44.807   0.549   8.986
  299POPC   GL2 6710  44.469   0.684   9.031
  299POPC   C1A 6711  44.620   0.450   8.588
  299POPC   D2A 6712  44.462   0.558   8.195
  299POPC   C3A 6713  44.832   0.562   7.906
  299POPC   C4A 6714  44.957   0.314   7.556
  299POPC   C1B 6715  44.490   0.955   8.647
  299POPC   C2B 6716  44.469   1.108   8.206
  299POPC   C3B 6717  44.447   0.884   7.794
  299POPC   C4B 6718  44.266   0.775   7.385
  300POPC   NC3 6719  23.495  44.739   9.409
  300POPC   PO4 6720  24.182  44.745   9.375
  300POPC   GL1 6721  23.880  44.558   9.099
  300POPC   GL2 6722  23.756  44.885   8.998
  300POPC   C1A 6723  23.606  44.469   8.739
  300POPC   D2A 6724  23.544  44.220   8.374
  300POPC   C3A 6725  23.661  44.402   7.959
  300POPC   C4A 6726  23.987  44.596   7.751
  300POPC   C1B 6727  23.761  44.931   8.554
  300POPC   C2B 6728  23.484  44.764   8.280
  300POPC   C3B 6729  23.329  44.839   7.882
  300POPC   C4B 6730  23.282  44.754   7.449
  301POPC   NC3 6731  40.299   2.032   9.466
  301POPC   PO4 6732  39.625   1.899   9.450
  301POPC   GL1 6733  39.909   2.000   9.134
  301POPC   GL2 6734  40.152   1.737   9.077
  301POPC   C1A 6735  40.041   2.054   8.719
  301POPC   D2A 6736  40.128   1.935   8.305
  301POPC   C3A 6737  39.883   2.213   8.049
  301POPC   C4A 6738  39.637   2.205   7.669
  301POPC   C1B 6739  40.225   1.556   8.691
  301POPC   C2B 6740  39.922   1.462   8.403
  301POPC   C3B 6741  39.785   1.638   8.030
  301POPC   C4B 6742  39.987   1.834   7.715
  302POPC   NC3 6743  38.303  39.806   9.574
  302POPC   PO4 6744  38.487  40.486   9.548
  302POPC   GL1 6745  38.459  40.195   9.224
  302POPC   GL2 6746  38.727  39.918   9.283
  302POPC   C1A 6747  38.242  40.176   8.822
  302POPC   D2A 6748  38.275  39.934   8.430
  302POPC   C3A 6749  38.597  40.121   8.139
  302POPC   C4A 6750  38.410  40.248   7.726
  302POPC   C1B 6751  38.582  39.782   8.865
  302POPC   C2B 6752  38.738  39.703   8.440
  302POPC   C3B 6753  38.554  39.632   8.019
  302POPC   C4B 6754  38.749  39.845   7.680
  303POPC   NC3 6755  37.220  14.005   9.500
  303POPC   PO4 6756  37.659  14.528   9.590
  303POPC   GL1 6757  37.741  14.682   9.213
  303POPC   GL2 6758  37.383  14.665   9.122
  303POPC   C1A 6759  37.762  14.493   8.818
  303POPC   D2A 6760  37.621  14.637   8.432
  303POPC   C3A 6761  37.894  14.554   8.124
  303POPC   C4A 6762  37.854  14.230   7.784
  303POPC   C1B 6763  37.186  14.694   8.733
  303POPC   C2B 6764  37.182  14.864   8.302
  303POPC   C3B 6765  37.354  14.595   7.972
  303POPC   C4B 6766  37.287  14.593   7.536
  304POPC   NC3 6767  44.937  39.848   9.502
  304POPC   PO4 6768  44.355  40.197   9.527
  304POPC   GL1 6769  44.613  40.087   9.188
  304POPC   GL2 6770  44.404  39.927   9.072
  304POPC   C1A 6771  44.839  39.871   8.806
  304POPC   D2A 6772  44.804  39.693   8.390
  304POPC   C3A 6773  44.859  39.901   7.987
  304POPC   C4A 6774  44.708  39.864   7.591
  304POPC   C1B 6775  44.339  39.774   8.696
  304POPC   C2B 6776  44.407  39.983   8.331
  304POPC   C3B 6777  44.353  39.816   7.955
  304POPC   C4B 6778  44.215  39.998   7.613
  305POPC   NC3 6779  15.914  33.422   9.638
  305POPC   PO4 6780  15.479  33.915   9.568
  305POPC   GL1 6781  15.805  33.780   9.263
  305POPC   GL2 6782  15.922  34.112   9.199
  305POPC   C1A 6783  16.106  33.769   8.871
  305POPC   D2A 6784  16.227  33.923   8.445
  305POPC   C3A 6785  16.079  33.621   8.104
  305POPC   C4A 6786  15.968  33.610   7.664
  305POPC   C1B 6787  15.634  34.028   8.849
  305POPC   C2B 6788  15.725  33.753   8.507
  305POPC   C3B 6789  15.609  33.796   8.096
  305POPC   C4B 6790  15.596  33.985   7.723
  306POPC   NC3 6791   6.895  14.654   9.469
  306POPC   PO4 6792   6.441  14.142   9.414
  306POPC   GL1 6793   6.745  14.282   9.151
  306POPC   GL2 6794   6.556  14.600   9.067
  306POPC   C1A 6795   6.841  14.337   8.742
  306POPC   D2A 6796   6.584  14.461   8.407
  306POPC   C3A 6797   6.611  14.250   8.014
  306POPC   C4A 6798   6.416  14.495   7.729
  306POPC   C1B 6799   6.883  14.847   8.829
  306POPC   C2B 6800   7.028  14.825   8.397
  306POPC   C3B 6801   6.855  14.723   7.998
  306POPC   C4B 6802   6.927  14.462   7.651
  307POPC   NC3 6803   2.967  40.005   9.790
  307POPC   PO4 6804   2.720  40.302   9.268
  307POPC   GL1 6805   2.868  40.090   8.957
  307POPC   GL2 6806   2.942  40.377   8.766
  307POPC   C1A 6807   2.750  39.922   8.580
  307POPC   D2A 6808   2.868  39.804   8.215
  307POPC   C3A 6809   2.778  40.021   7.885
  307POPC   C4A 6810   2.621  39.773   7.591
  307POPC   C1B 6811   2.488  40.344   8.635
  307POPC   C2B 6812   2.421  40.150   8.239
  307POPC   C3B 6813   2.347  40.321   7.813
  307POPC   C4B 6814   2.648  40.270   7.431
  308POPC   NC3 6815   7.905  12.493   9.505
  308POPC   PO4 6816   8.300  13.060   9.492
  308POPC   GL1 6817   8.348  13.071   9.069
  308POPC   GL2 6818   8.000  12.928   9.100
  308POPC   C1A 6819   8.202  13.009   8.626
  308POPC   D2A 6820   8.229  12.842   8.188
  308POPC   C3A 6821   8.470  12.999   7.813
  308POPC   C4A 6822   8.452  12.944   7.331
  308POPC   C1B 6823   7.831  12.675   8.797
  308POPC   C2B 6824   7.698  12.755   8.370
  308POPC   C3B 6825   7.823  12.554   7.975
  308POPC   C4B 6826   8.003  12.671   7.531
  309POPC   NC3 6827  31.213  17.173   9.262
  309POPC   PO4 6828  31.632  16.739   9.545
  309POPC   GL1 6829  31.513  16.788   9.128
  309POPC   GL2 6830  31.771  16.994   9.072
  309POPC   C1A 6831  31.294  16.876   8.698
  309POPC   D2A 6832  31.220  16.664   8.305
  309POPC   C3A 6833  31.562  16.567   8.023
  309POPC   C4A 6834  31.269  16.701   7.742
  309POPC   C1B 6835  31.779  16.699   8.714
  309POPC   C2B 6836  31.706  16.937   8.359
  309POPC   C3B 6837  31.542  17.069   7.988
  309POPC   C4B 6838  31.682  16.926   7.601
  310POPC   NC3 6839  11.686  42.195   9.484
  310POPC   PO4 6840  12.428  42.472   9.515
  310POPC   GL1 6841  12.124  42.358   9.211
  310POPC   GL2 6842  11.973  42.052   9.081
  310POPC   C1A 6843  12.230  42.389   8.789
  310POPC   D2A 6844  12.200  42.422   8.365
  310POPC   C3A 6845  12.495  42.295   8.077
  310POPC   C4A 6846  12.555  42.353   7.655
  310POPC   C1B 6847  11.800  41.927   8.655
  310POPC   C2B 6848  11.816  42.127   8.218
  310POPC   C3B 6849  11.948  42.164   7.772
  310POPC   C4B 6850  11.735  42.020   7.336
  311POPC   NC3 6851  22.164  42.636   9.622
  311POPC   PO4 6852  22.305  43.241   9.754
  311POPC   GL1 6853  22.367  43.216   9.271
  311POPC   GL2 6854  22.428  42.842   9.216
  311POPC   C1A 6855  22.203  43.167   8.814
  311POPC   D2A 6856  21.920  43.077   8.471
  311POPC   C3A 6857  22.189  43.099   8.088
  311POPC   C4A 6858  22.332  43.232   7.663
  311POPC   C1B 6859  22.495  42.620   8.862
  311POPC   C2B 6860  22.375  42.804   8.474
  311POPC   C3B 6861  22.339  42.612   8.075
  311POPC   C4B 6862  22.466  42.730   7.668
  312POPC   NC3 6863  39.608  34.978   9.774
  312POPC   PO4 6864  39.939  35.455   9.620
  312POPC   GL1 6865  39.850  35.411   9.189
  312POPC   GL2 6866  39.691  35.050   9.179
  312POPC   C1A 6867  40.030  35.604   8.777
  312POPC   D2A 6868  39.785  35.598   8.360
  312POPC   C3A 6869  39.990  35.463   7.996
  312POPC   C4A 6870  39.837  35.540   7.563
  312POPC   C1B 6871  39.683  35.222   8.742
  312POPC   C2B 6872  39.769  35.078   8.326
  312POPC   C3B 6873  39.675  35.090   7.866
  312POPC   C4B 6874  40.079  35.101   7.624
  313POPC   NC3 6875  28.898  43.359   9.407
  313POPC   PO4 6876  29.250  42.970   9.773
  313POPC   GL1 6877  29.194  42.960   9.217
  313POPC   GL2 6878  29.191  43.289   9.013
  313POPC   C1A 6879  29.167  42.965   8.670
  313POPC   D2A 6880  29.456  43.033   8.295
  313POPC   C3A 6881  29.213  42.929   7.938
  313POPC   C4A 6882  28.813  42.840   8.069
  313POPC   C1B 6883  29.218  43.561   8.665
  313POPC   C2B 6884  29.321  43.708   8.265
  313POPC   C3B 6885  29.293  43.424   7.976
  313POPC   C4B 6886  29.307  43.309   7.570
  314POPC   NC3 6887  11.782  37.864   9.577
  314POPC   PO4 6888  12.358  37.463   9.469
  314POPC   GL1 6889  12.226  37.603   9.098
  314POPC   GL2 6890  11.862  37.686   9.112
  314POPC   C1A 6891  12.214  37.494   8.704
  314POPC   D2A 6892  12.002  37.656   8.362
  314POPC   C3A 6893  12.226  37.570   8.017
  314POPC   C4A 6894  12.262  37.777   7.624
  314POPC   C1B 6895  11.703  37.480   8.753
  314POPC   C2B 6896  11.591  37.328   8.364
  314POPC   C3B 6897  11.683  37.524   7.973
  314POPC   C4B 6898  11.770  37.685   7.563
  315POPC   NC3 6899  29.792  20.108   9.465
  315POPC   PO4 6900  30.138  19.555   9.586
  315POPC   GL1 6901  29.993  19.563   9.188
  315POPC   GL2 6902  30.320  19.430   9.091
  315POPC   C1A 6903  29.807  19.744   8.797
  315POPC   D2A 6904  29.677  19.636   8.355
  315POPC   C3A 6905  29.745  19.860   7.949
  315POPC   C4A 6906  29.653  19.600   7.591
  315POPC   C1B 6907  30.320  19.807   8.875
  315POPC   C2B 6908  30.167  19.944   8.477
  315POPC   C3B 6909  30.228  19.981   8.053
  315POPC   C4B 6910  30.272  19.649   7.713
  316POPC   NC3 6911  10.224   1.708   9.419
  316POPC   PO4 6912  10.781   2.093   9.541
  316POPC   GL1 6913  10.531   2.056   9.190
  316POPC   GL2 6914  10.452   2.399   9.092
  316POPC   C1A 6915  10.420   1.843   8.791
  316POPC   D2A 6916  10.232   2.057   8.461
  316POPC   C3A 6917  10.532   2.011   8.136
  316POPC   C4A 6918  10.522   1.859   7.730
  316POPC   C1B 6919  10.749   2.219   8.758
  316POPC   C2B 6920  10.985   2.076   8.418
  316POPC   C3B 6921  11.042   2.263   8.041
  316POPC   C4B 6922  10.926   2.170   7.662
  317POPC   NC3 6923  42.373  31.344   9.496
  317POPC   PO4 6924  42.027  31.959   9.492
  317POPC   GL1 6925  42.141  31.834   9.083
  317POPC   GL2 6926  42.449  31.654   9.091
  317POPC   C1A 6927  42.150  31.660   8.648
  317POPC   D2A 6928  42.070  31.260   8.397
  317POPC   C3A 6929  42.019  31.230   7.929
  317POPC   C4A 6930  42.213  31.302   7.492
  317POPC   C1B 6931  42.601  31.389   8.772
  317POPC   C2B 6932  42.581  31.548   8.365
  317POPC   C3B 6933  42.472  31.483   7.938
  317POPC   C4B 6934  42.810  31.330   7.699
  318POPC   NC3 6935   0.184  32.539   9.934
  318POPC   PO4 6936  44.634  32.216   9.589
  318POPC   GL1 6937  44.628  32.237   9.099
  318POPC   GL2 6938  44.775  32.575   8.956
  318POPC   C1A 6939  44.354  32.074   8.759
  318POPC   D2A 6940  44.304  32.090   8.295
  318POPC   C3A 6941  44.580  31.878   7.986
  318POPC   C4A 6942  44.829  32.111   7.670
  318POPC   C1B 6943  44.707  32.388   8.578
  318POPC   C2B 6944  44.862  32.230   8.210
  318POPC   C3B 6945  44.910  32.563   7.939
  318POPC   C4B 6946  44.563  32.750   7.754
  319POPC   NC3 6947  43.570  38.899   9.518
  319POPC   PO4 6948  43.780  39.464   9.502
  319POPC   GL1 6949  43.714  39.305   9.074
  319POPC   GL2 6950  43.755  38.976   9.010
  319POPC   C1A 6951  44.054  39.323   8.725
  319POPC   D2A 6952  44.244  39.151   8.335
  319POPC   C3A 6953  44.165  39.341   7.922
  319POPC   C4A 6954  44.025  39.534   7.519
  319POPC   C1B 6955  43.586  39.156   8.599
  319POPC   C2B 6956  43.683  39.312   8.198
  319POPC   C3B 6957  43.705  39.221   7.777
  319POPC   C4B 6958  43.587  38.802   7.558
  320POPC   NC3 6959   1.716  26.830   9.626
  320POPC   PO4 6960   2.282  26.560   9.660
  320POPC   GL1 6961   2.238  26.733   9.228
  320POPC   GL2 6962   1.938  26.972   9.179
  320POPC   C1A 6963   2.068  26.680   8.803
  320POPC   D2A 6964   1.882  26.830   8.416
  320POPC   C3A 6965   1.988  26.665   8.015
  320POPC   C4A 6966   1.646  26.867   7.793
  320POPC   C1B 6967   2.002  27.184   8.762
  320POPC   C2B 6968   2.289  27.135   8.361
  320POPC   C3B 6969   2.200  27.096   7.878
  320POPC   C4B 6970   1.927  27.285   7.576
  321POPC   NC3 6971  29.911  34.412   9.727
  321POPC   PO4 6972  30.245  34.805   9.370
  321POPC   GL1 6973  30.115  34.531   9.063
  321POPC   GL2 6974  29.804  34.447   9.219
  321POPC   C1A 6975  29.964  34.701   8.679
  321POPC   D2A 6976  29.913  34.952   8.291
  321POPC   C3A 6977  29.980  34.698   7.978
  321POPC   C4A 6978  29.981  34.515   7.634
  321POPC   C1B 6979  29.653  34.310   8.802
  321POPC   C2B 6980  29.692  34.427   8.332
  321POPC   C3B 6981  29.597  34.316   7.898
  321POPC   C4B 6982  29.565  34.345   7.413
  322POPC   NC3 6983  43.634   3.002   9.273
  322POPC   PO4 6984  43.943   2.399   9.326
  322POPC   GL1 6985  44.047   2.571   8.964
  322POPC   GL2 6986  44.134   2.871   9.097
  322POPC   C1A 6987  44.192   2.595   8.570
  322POPC   D2A 6988  43.818   2.709   8.354
  322POPC   C3A 6989  43.842   2.465   8.028
  322POPC   C4A 6990  44.193   2.389   7.794
  322POPC   C1B 6991  44.023   3.059   8.692
  322POPC   C2B 6992  44.213   3.024   8.261
  322POPC   C3B 6993  43.994   2.918   7.886
  322POPC   C4B 6994  43.964   3.001   7.465
  323POPC   NC3 6995   6.893  13.856   9.445
  323POPC   PO4 6996   6.377  13.456   9.586
  323POPC   GL1 6997   6.487  13.632   9.173
  323POPC   GL2 6998   6.191  13.532   8.990
  323POPC   C1A 6999   6.744  13.733   8.803
  323POPC   D2A 7000   6.785  13.960   8.415
  323POPC   C3A 7001   6.846  13.771   8.020
  323POPC   C4A 7002   6.793  13.426   7.752
  323POPC   C1B 7003   6.388  13.351   8.624
  323POPC   C2B 7004   6.477  13.424   8.172
  323POPC   C3B 7005   6.253  13.441   7.762
  323POPC   C4B 7006   6.176  13.318   7.320
  324POPC   NC3 7007  11.823   8.416   9.826
  324POPC   PO4 7008  11.969   7.932   9.426
  324POPC   GL1 7009  11.968   7.980   9.023
  324POPC   GL2 7010  12.174   8.251   8.997
  324POPC   C1A 7011  12.146   7.935   8.619
  324POPC   D2A 7012  12.397   8.274   8.458
  324POPC   C3A 7013  12.281   8.234   8.067
  324POPC   C4A 7014  11.944   8.284   7.795
  324POPC   C1B 7015  11.872   8.353   8.675
  324POPC   C2B 7016  11.861   8.511   8.303
  324POPC   C3B 7017  11.621   8.644   7.995
  324POPC   C4B 7018  11.825   8.737   7.644
  325POPC   NC3 7019   2.291   9.051   9.543
  325POPC   PO4 7020   1.605   8.846   9.553
  325POPC   GL1 7021   1.876   8.957   9.243
  325POPC   GL2 7022   1.903   9.309   9.195
  325POPC   C1A 7023   1.923   8.986   8.822
  325POPC   D2A 7024   2.030   8.993   8.421
  325POPC   C3A 7025   1.808   8.793   8.115
  325POPC   C4A 7026   1.959   8.872   7.707
  325POPC   C1B 7027   2.154   9.423   8.772
  325POPC   C2B 7028   1.935   9.506   8.410
  325POPC   C3B 7029   1.943   9.309   8.027
  325POPC   C4B 7030   2.144   9.352   7.637
  326POPC   NC3 7031  22.549  41.144   9.406
  326POPC   PO4 7032  22.476  40.452   9.392
  326POPC   GL1 7033  22.279  40.775   9.108
  326POPC   GL2 7034  21.977  40.928   9.248
  326POPC   C1A 7035  22.133  40.783   8.652
  326POPC   D2A 7036  22.016  40.590   8.240
  326POPC   C3A 7037  22.066  40.709   7.770
  326POPC   C4A 7038  21.766  40.694   7.365
  326POPC   C1B 7039  21.951  41.195   8.890
  326POPC   C2B 7040  21.983  41.234   8.448
  326POPC   C3B 7041  21.863  41.109   8.052
  326POPC   C4B 7042  21.778  41.356   7.720
  327POPC   NC3 7043  38.772  43.305   9.238
  327POPC   PO4 7044  39.247  42.922   9.556
  327POPC   GL1 7045  39.278  43.125   9.183
  327POPC   GL2 7046  39.364  42.798   9.059
  327POPC   C1A 7047  39.473  43.261   8.809
  327POPC   D2A 7048  39.434  43.131   8.383
  327POPC   C3A 7049  39.434  43.349   8.012
  327POPC   C4A 7050  39.605  42.975   7.798
  327POPC   C1B 7051  39.109  42.922   8.717
  327POPC   C2B 7052  38.918  43.004   8.330
  327POPC   C3B 7053  39.052  42.997   7.912
  327POPC   C4B 7054  38.951  43.409   7.819
  328POPC   NC3 7055  38.584  28.760   9.412
  328POPC   PO4 7056  38.697  28.088   9.339
  328POPC   GL1 7057  38.699  28.415   9.047
  328POPC   GL2 7058  38.339  28.500   9.060
  328POPC   C1A 7059  38.601  28.455   8.618
  328POPC   D2A 7060  38.328  28.365   8.299
  328POPC   C3A 7061  38.598  28.202   8.070
  328POPC   C4A 7062  38.580  28.292   7.684
  328POPC   C1B 7063  38.063  28.502   8.717
  328POPC   C2B 7064  37.845  28.572   8.339
  328POPC   C3B 7065  38.039  28.606   7.921
  328POPC   C4B 7066  38.277  28.767   7.580
  329POPC   NC3 7067  21.900   4.250   9.572
  329POPC   PO4 7068  21.308   4.465   9.594
  329POPC   GL1 7069  21.449   4.373   9.208
  329POPC   GL2 7070  21.705   4.164   9.090
  329POPC   C1A 7071  21.315   4.411   8.805
  329POPC   D2A 7072  21.469   4.371   8.411
  329POPC   C3A 7073  21.227   4.563   8.090
  329POPC   C4A 7074  21.103   4.348   7.725
  329POPC   C1B 7075  21.852   3.964   8.718
  329POPC   C2B 7076  21.691   3.904   8.307
  329POPC   C3B 7077  21.555   4.151   7.955
  329POPC   C4B 7078  21.520   4.122   7.521
  330POPC   NC3 7079  35.436  30.078   9.580
  330POPC   PO4 7080  34.875  30.144   9.335
  330POPC   GL1 7081  35.185  29.871   9.136
  330POPC   GL2 7082  35.440  29.636   9.280
  330POPC   C1A 7083  35.469  29.951   8.794
  330POPC   D2A 7084  35.456  30.116   8.379
  330POPC   C3A 7085  35.217  29.937   8.031
  330POPC   C4A 7086  35.437  30.135   7.714
  330POPC   C1B 7087  35.640  29.479   8.898
  330POPC   C2B 7088  35.575  29.488   8.437
  330POPC   C3B 7089  35.658  29.681   8.033
  330POPC   C4B 7090  35.511  29.653   7.590
  331POPC   NC3 7091  26.422   5.970   9.438
  331POPC   PO4 7092  25.743   5.713   9.382
  331POPC   GL1 7093  26.032   5.925   9.064
  331POPC   GL2 7094  26.362   5.801   8.984
  331POPC   C1A 7095  26.074   5.954   8.599
  331POPC   D2A 7096  26.001   6.228   8.253
  331POPC   C3A 7097  26.219   6.194   7.862
  331POPC   C4A 7098  26.100   5.997   7.442
  331POPC   C1B 7099  26.416   5.461   8.769
  331POPC   C2B 7100  26.349   5.560   8.390
  331POPC   C3B 7101  26.145   5.721   8.101
  331POPC   C4B 7102  26.391   5.737   7.790
  332POPC   NC3 7103   8.554   3.218   9.440
  332POPC   PO4 7104   8.148   3.717   9.547
  332POPC   GL1 7105   7.930   3.663   9.141
  332POPC   GL2 7106   8.217   3.462   9.092
  332POPC   C1A 7107   8.024   3.723   8.701
  332POPC   D2A 7108   8.250   3.664   8.312
  332POPC   C3A 7109   7.980   3.771   8.012
  332POPC   C4A 7110   7.871   3.610   7.626
  332POPC   C1B 7111   7.936   3.227   8.805
  332POPC   C2B 7112   7.862   3.329   8.342
  332POPC   C3B 7113   8.125   3.274   7.963
  332POPC   C4B 7114   8.549   3.413   7.918
  333POPC   NC3 7115  30.876  42.762   9.481
  333POPC   PO4 7116  31.106  43.443   9.439
  333POPC   GL1 7117  30.743  43.242   9.174
  333POPC   GL2 7118  30.541  42.905   9.127
  333POPC   C1A 7119  30.796  43.124   8.728
  333POPC   D2A 7120  30.994  42.942   8.356
  333POPC   C3A 7121  30.934  43.171   7.966
  333POPC   C4A 7122  31.110  43.274   7.592
  333POPC   C1B 7123  30.552  42.678   8.738
  333POPC   C2B 7124  30.488  42.899   8.350
  333POPC   C3B 7125  30.627  42.777   7.952
  333POPC   C4B 7126  30.448  42.731   7.576
  334POPC   NC3 7127  10.745  38.242   9.734
  334POPC   PO4 7128  10.352  38.757   9.741
  334POPC   GL1 7129  10.426  38.585   9.307
  334POPC   GL2 7130  10.435  38.233   9.316
  334POPC   C1A 7131  10.602  38.660   8.887
  334POPC   D2A 7132  10.722  38.832   8.480
  334POPC   C3A 7133  10.785  38.531   8.143
  334POPC   C4A 7134  10.786  38.644   7.731
  334POPC   C1B 7135  10.607  38.108   8.917
  334POPC   C2B 7136  10.537  37.978   8.471
  334POPC   C3B 7137  10.369  38.155   8.103
  334POPC   C4B 7138  10.445  38.267   7.698
  335POPC   NC3 7139  12.502  37.011   9.486
  335POPC   PO4 7140  13.115  36.821   9.592
  335POPC   GL1 7141  12.922  36.791   9.232
  335POPC   GL2 7142  12.901  37.133   9.172
  335POPC   C1A 7143  12.775  36.772   8.832
  335POPC   D2A 7144  12.894  36.904   8.455
  335POPC   C3A 7145  12.819  36.734   8.096
  335POPC   C4A 7146  12.941  36.745   7.661
  335POPC   C1B 7147  12.688  37.291   8.790
  335POPC   C2B 7148  12.545  37.273   8.354
  335POPC   C3B 7149  12.760  37.231   7.965
  335POPC   C4B 7150  12.701  37.188   7.521
  336POPC   NC3 7151  36.672  37.057   9.567
  336POPC   PO4 7152  36.175  37.311   9.369
  336POPC   GL1 7153  36.377  37.150   9.076
  336POPC   GL2 7154  36.449  36.852   9.151
  336POPC   C1A 7155  36.269  36.953   8.676
  336POPC   D2A 7156  36.094  37.098   8.296
  336POPC   C3A 7157  36.167  36.938   7.899
  336POPC   C4A 7158  36.283  37.097   7.486
  336POPC   C1B 7159  36.720  36.779   8.806
  336POPC   C2B 7160  36.668  36.626   8.382
  336POPC   C3B 7161  36.507  36.473   7.978
  336POPC   C4B 7162  36.570  36.718   7.621
  337POPC   NC3 7163  43.770   1.001   9.486
  337POPC   PO4 7164  44.004   1.636   9.513
  337POPC   GL1 7165  43.919   1.403   9.149
  337POPC   GL2 7166  43.606   1.552   9.116
  337POPC   C1A 7167  44.041   1.041   8.866
  337POPC   D2A 7168  44.015   0.909   8.416
  337POPC   C3A 7169  43.894   1.055   8.006
  337POPC   C4A 7170  43.826   0.895   7.588
  337POPC   C1B 7171  43.597   1.244   8.753
  337POPC   C2B 7172  43.574   1.292   8.332
  337POPC   C3B 7173  43.364   1.122   7.979
  337POPC   C4B 7174  43.457   1.243   7.606
  338POPC   NC3 7175  16.486   1.733   9.598
  338POPC   PO4 7176  17.066   2.135   9.444
  338POPC   GL1 7177  16.849   2.075   9.104
  338POPC   GL2 7178  16.812   1.738   9.162
  338POPC   C1A 7179  16.943   1.848   8.694
  338POPC   D2A 7180  16.778   1.606   8.374
  338POPC   C3A 7181  16.893   1.824   8.052
  338POPC   C4A 7182  16.646   2.142   7.857
  338POPC   C1B 7183  16.481   1.629   8.825
  338POPC   C2B 7184  16.238   1.610   8.454
  338POPC   C3B 7185  16.365   1.721   8.045
  338POPC   C4B 7186  16.246   1.891   7.673
  339POPC   NC3 7187  31.378   6.493   9.509
  339POPC   PO4 7188  31.219   7.142   9.416
  339POPC   GL1 7189  31.457   6.844   9.100
  339POPC   GL2 7190  31.358   6.527   9.008
  339POPC   C1A 7191  31.748   6.819   8.697
  339POPC   D2A 7192  31.626   6.702   8.230
  339POPC   C3A 7193  31.858   6.766   7.847
  339POPC   C4A 7194  31.859   6.932   7.406
  339POPC   C1B 7195  31.371   6.490   8.608
  339POPC   C2B 7196  31.253   6.317   8.251
  339POPC   C3B 7197  31.238   6.501   7.851
  339POPC   C4B 7198  31.455   6.644   7.525
  340POPC   NC3 7199  18.579  40.555   9.541
  340POPC   PO4 7200  18.009  40.671   9.498
  340POPC   GL1 7201  18.316  40.861   9.161
  340POPC   GL2 7202  18.603  40.703   9.074
  340POPC   C1A 7203  18.405  40.918   8.668
  340POPC   D2A 7204  18.352  41.081   8.246
  340POPC   C3A 7205  18.282  40.988   7.816
  340POPC   C4A 7206  18.308  40.520   7.646
  340POPC   C1B 7207  18.570  40.409   8.787
  340POPC   C2B 7208  18.377  40.471   8.422
  340POPC   C3B 7209  18.561  40.662   8.077
  340POPC   C4B 7210  18.776  40.932   7.731
  341POPC   NC3 7211   7.972   2.406   9.449
  341POPC   PO4 7212   8.297   1.840   9.400
  341POPC   GL1 7213   8.192   1.939   9.032
  341POPC   GL2 7214   8.246   2.309   9.005
  341POPC   C1A 7215   8.320   1.973   8.606
  341POPC   D2A 7216   8.329   2.164   8.192
  341POPC   C3A 7217   8.302   1.878   7.868
  341POPC   C4A 7218   8.530   1.920   7.480
  341POPC   C1B 7219   7.861   2.213   8.774
  341POPC   C2B 7220   7.677   2.084   8.394
  341POPC   C3B 7221   7.730   2.289   8.010
  341POPC   C4B 7222   8.064   2.324   7.731
  342POPC   NC3 7223  34.875   4.243   9.451
  342POPC   PO4 7224  34.277   4.498   9.548
  342POPC   GL1 7225  34.475   4.421   9.194
  342POPC   GL2 7226  34.402   4.083   9.188
  342POPC   C1A 7227  34.740   4.614   8.900
  342POPC   D2A 7228  34.726   4.709   8.461
  342POPC   C3A 7229  35.034   4.537   8.239
  342POPC   C4A 7230  34.846   4.261   7.984
  342POPC   C1B 7231  34.612   4.108   8.806
  342POPC   C2B 7232  34.597   3.958   8.384
  342POPC   C3B 7233  34.311   4.121   8.135
  342POPC   C4B 7234  34.284   4.457   7.877
  343POPC   NC3 7235  13.867  33.231   9.346
  343POPC   PO4 7236  14.223  32.725   9.626
  343POPC   GL1 7237  14.334  32.984   9.244
  343POPC   GL2 7238  14.042  32.828   9.113
  343POPC   C1A 7239  14.564  33.187   8.851
  343POPC   D2A 7240  14.609  33.495   8.435
  343POPC   C3A 7241  14.318  33.497   8.030
  343POPC   C4A 7242  14.131  33.326   7.625
  343POPC   C1B 7243  14.092  33.070   8.728
  343POPC   C2B 7244  14.259  33.086   8.311
  343POPC   C3B 7245  14.366  32.917   7.911
  343POPC   C4B 7246  14.150  32.814   7.510
  344POPC   NC3 7247  13.446  29.174   9.586
  344POPC   PO4 7248  14.093  29.418   9.508
  344POPC   GL1 7249  13.840  29.189   9.169
  344POPC   GL2 7250  13.482  29.165   9.104
  344POPC   C1A 7251  13.797  29.094   8.720
  344POPC   D2A 7252  13.552  28.960   8.372
  344POPC   C3A 7253  13.676  28.900   7.956
  344POPC   C4A 7254  13.536  28.937   7.487
  344POPC   C1B 7255  13.249  29.049   8.767
  344POPC   C2B 7256  13.166  29.295   8.431
  344POPC   C3B 7257  13.411  29.386   8.093
  344POPC   C4B 7258  13.309  29.368   7.705
  345POPC   NC3 7259  14.370  10.938   9.837
  345POPC   PO4 7260  14.024  11.432   9.453
  345POPC   GL1 7261  13.671  11.372   9.160
  345POPC   GL2 7262  13.548  11.029   9.078
  345POPC   C1A 7263  13.450  11.478   8.754
  345POPC   D2A 7264  13.481  11.745   8.369
  345POPC   C3A 7265  13.528  11.464   8.024
  345POPC   C4A 7266  13.700  11.130   7.809
  345POPC   C1B 7267  13.368  10.943   8.654
  345POPC   C2B 7268  13.363  10.920   8.185
  345POPC   C3B 7269  13.206  11.111   7.817
  345POPC   C4B 7270  13.151  11.035   7.393
  346POPC   NC3 7271  32.599  16.124   9.404
  346POPC   PO4 7272  31.975  15.801   9.476
  346POPC   GL1 7273  32.098  16.073   9.116
  346POPC   GL2 7274  32.411  16.158   8.936
  346POPC   C1A 7275  31.934  16.186   8.715
  346POPC   D2A 7276  31.923  16.030   8.287
  346POPC   C3A 7277  32.327  16.036   8.119
  346POPC   C4A 7278  32.290  16.020   7.671
  346POPC   C1B 7279  32.649  15.795   8.743
  346POPC   C2B 7280  32.644  15.580   8.342
  346POPC   C3B 7281  32.791  15.763   7.953
  346POPC   C4B 7282  32.727  16.231   7.839
  347POPC   NC3 7283  23.469  26.225   9.728
  347POPC   PO4 7284  24.058  26.005   9.504
  347POPC   GL1 7285  23.761  26.030   9.190
  347POPC   GL2 7286  23.498  26.235   9.206
  347POPC   C1A 7287  23.597  25.898   8.793
  347POPC   D2A 7288  23.655  26.086   8.371
  347POPC   C3A 7289  23.634  25.898   7.942
  347POPC   C4A 7290  23.629  25.739   7.508
  347POPC   C1B 7291  23.445  26.389   8.765
  347POPC   C2B 7292  23.313  26.492   8.342
  347POPC   C3B 7293  23.613  26.441   7.992
  347POPC   C4B 7294  23.616  26.252   7.571
  348POPC   NC3 7295  12.453   1.238   9.337
  348POPC   PO4 7296  12.038   0.715   9.425
  348POPC   GL1 7297  12.077   1.005   9.065
  348POPC   GL2 7298  12.363   0.968   8.884
  348POPC   C1A 7299  11.777   1.176   8.749
  348POPC   D2A 7300  11.831   1.287   8.319
  348POPC   C3A 7301  11.778   1.022   7.993
  348POPC   C4A 7302  11.811   1.150   7.552
  348POPC   C1B 7303  12.220   1.403   8.703
  348POPC   C2B 7304  12.298   1.561   8.281
  348POPC   C3B 7305  12.130   1.401   7.889
  348POPC   C4B 7306  12.289   1.342   7.462
  349POPC   NC3 7307  15.841  31.621   9.967
  349POPC   PO4 7308  15.886  31.325   9.354
  349POPC   GL1 7309  15.869  31.543   8.952
  349POPC   GL2 7310  15.555  31.801   8.924
  349POPC   C1A 7311  15.990  31.285   8.641
  349POPC   D2A 7312  16.097  30.983   8.314
  349POPC   C3A 7313  16.047  31.127   7.915
  349POPC   C4A 7314  15.734  31.345   7.712
  349POPC   C1B 7315  15.786  31.952   8.569
  349POPC   C2B 7316  16.098  31.699   8.353
  349POPC   C3B 7317  16.113  31.679   7.939
  349POPC   C4B 7318  15.814  31.858   7.678
  350POPC   NC3 7319  18.000  30.900   9.555
  350POPC   PO4 7320  18.556  30.604   9.485
  350POPC   GL1 7321  18.236  30.587   9.204
  350POPC   GL2 7322  18.242  30.908   9.086
  350POPC   C1A 7323  18.185  30.457   8.787
  350POPC   D2A 7324  17.973  30.477   8.388
  350POPC   C3A 7325  18.258  30.558   8.068
  350POPC   C4A 7326  18.508  30.252   7.863
  350POPC   C1B 7327  18.092  30.961   8.647
  350POPC   C2B 7328  18.282  31.086   8.250
  350POPC   C3B 7329  18.237  31.046   7.810
  350POPC   C4B 7330  17.987  31.038   7.436
  351POPC   NC3 7331  12.590  26.899   9.465
  351POPC   PO4 7332  13.128  26.496   9.526
  351POPC   GL1 7333  12.969  26.629   9.154
  351POPC   GL2 7334  12.634  26.522   9.110
  351POPC   C1A 7335  12.913  26.929   8.832
  351POPC   D2A 7336  12.796  27.120   8.451
  351POPC   C3A 7337  12.898  26.955   8.048
  351POPC   C4A 7338  12.656  27.007   7.653
  351POPC   C1B 7339  12.736  26.425   8.706
  351POPC   C2B 7340  13.019  26.609   8.434
  351POPC   C3B 7341  12.943  26.419   8.087
  351POPC   C4B 7342  12.917  26.547   7.711
  352POPC   NC3 7343  43.935  20.758   9.523
  352POPC   PO4 7344  43.387  20.350   9.640
  352POPC   GL1 7345  43.584  20.435   9.221
  352POPC   GL2 7346  43.646  20.794   9.120
  352POPC   C1A 7347  43.777  20.410   8.786
  352POPC   D2A 7348  43.846  20.226   8.359
  352POPC   C3A 7349  44.035  20.527   8.122
  352POPC   C4A 7350  44.080  20.692   7.743
  352POPC   C1B 7351  44.039  20.885   8.880
  352POPC   C2B 7352  44.244  20.800   8.499
  352POPC   C3B 7353  44.138  21.071   8.159
  352POPC   C4B 7354  44.277  21.223   7.753
  353POPC   NC3 7355  26.621  25.055   9.548
  353POPC   PO4 7356  26.768  25.600   9.783
  353POPC   GL1 7357  26.846  25.467   9.339
  353POPC   GL2 7358  26.501  25.427   9.189
  353POPC   C1A 7359  26.937  25.414   8.868
  353POPC   D2A 7360  26.684  25.559   8.507
  353POPC   C3A 7361  26.703  25.381   8.093
  353POPC   C4A 7362  26.701  25.391   7.649
  353POPC   C1B 7363  26.474  25.192   8.815
  353POPC   C2B 7364  26.636  25.004   8.429
  353POPC   C3B 7365  26.698  24.800   8.016
  353POPC   C4B 7366  26.430  24.722   7.658
  354POPC   NC3 7367  16.793  33.897   9.670
  354POPC   PO4 7368  16.367  33.456   9.558
  354POPC   GL1 7369  16.704  33.585   9.233
  354POPC   GL2 7370  16.873  33.946   9.180
  354POPC   C1A 7371  16.638  33.715   8.794
  354POPC   D2A 7372  16.771  33.946   8.431
  354POPC   C3A 7373  16.573  33.725   8.096
  354POPC   C4A 7374  16.398  33.866   7.720
  354POPC   C1B 7375  17.116  33.936   8.828
  354POPC   C2B 7376  17.308  33.707   8.485
  354POPC   C3B 7377  17.066  33.619   8.164
  354POPC   C4B 7378  16.948  33.647   7.769
  355POPC   NC3 7379  39.974  13.700   9.626
  355POPC   PO4 7380  39.557  14.140   9.469
  355POPC   GL1 7381  39.948  13.926   9.175
  355POPC   GL2 7382  40.107  13.566   9.168
  355POPC   C1A 7383  40.078  13.808   8.726
  355POPC   D2A 7384  39.978  13.606   8.350
  355POPC   C3A 7385  40.139  13.691   7.969
  355POPC   C4A 7386  39.855  13.588   7.612
  355POPC   C1B 7387  40.402  13.401   8.878
  355POPC   C2B 7388  40.391  13.231   8.471
  355POPC   C3B 7389  40.301  13.217   8.042
  355POPC   C4B 7390  40.316  13.361   7.620
  356POPC   NC3 7391  20.985  41.554   9.522
  356POPC   PO4 7392  20.464  41.160   9.459
  356POPC   GL1 7393  20.569  41.505   9.123
  356POPC   GL2 7394  20.883  41.494   9.041
  356POPC   C1A 7395  20.539  41.411   8.682
  356POPC   D2A 7396  20.568  41.147   8.369
  356POPC   C3A 7397  20.383  41.381   8.046
  356POPC   C4A 7398  20.415  41.267   7.650
  356POPC   C1B 7399  21.007  41.244   8.697
  356POPC   C2B 7400  21.054  41.394   8.294
  356POPC   C3B 7401  20.866  41.488   7.883
  356POPC   C4B 7402  20.917  41.488   7.398
  357POPC   NC3 7403  35.980  23.135   9.465
  357POPC   PO4 7404  36.633  22.907   9.477
  357POPC   GL1 7405  36.274  22.877   9.154
  357POPC   GL2 7406  36.299  23.249   9.089
  357POPC   C1A 7407  36.022  22.778   8.751
  357POPC   D2A 7408  35.774  22.756   8.339
  357POPC   C3A 7409  35.997  22.655   7.971
  357POPC   C4A 7410  36.338  22.813   7.797
  357POPC   C1B 7411  36.123  23.326   8.682
  357POPC   C2B 7412  36.182  23.509   8.274
  357POPC   C3B 7413  36.035  23.223   7.980
  357POPC   C4B 7414  35.994  23.158   7.578
  358POPC   NC3 7415  18.366  13.458   9.620
  358POPC   PO4 7416  17.999  13.956   9.420
  358POPC   GL1 7417  18.363  13.841   9.176
  358POPC   GL2 7418  18.429  13.493   9.126
  358POPC   C1A 7419  18.261  13.760   8.740
  358POPC   D2A 7420  18.145  13.763   8.316
  358POPC   C3A 7421  18.381  14.004   8.055
  358POPC   C4A 7422  18.324  14.003   7.622
  358POPC   C1B 7423  18.460  13.260   8.734
  358POPC   C2B 7424  18.542  13.047   8.360
  358POPC   C3B 7425  18.530  13.232   7.948
  358POPC   C4B 7426  18.231  13.532   7.865
  359POPC   NC3 7427   3.913  34.836   9.335
  359POPC   PO4 7428   4.503  34.456   9.460
  359POPC   GL1 7429   4.512  34.571   9.070
  359POPC   GL2 7430   4.454  34.938   9.117
  359POPC   C1A 7431   4.407  34.348   8.687
  359POPC   D2A 7432   4.187  34.221   8.314
  359POPC   C3A 7433   4.287  34.492   7.993
  359POPC   C4A 7434   4.588  34.511   7.662
  359POPC   C1B 7435   4.361  34.848   8.673
  359POPC   C2B 7436   4.256  34.934   8.283
  359POPC   C3B 7437   4.063  34.985   7.896
  359POPC   C4B 7438   4.076  34.684   7.583
  360POPC   NC3 7439   6.257  32.690   9.415
  360POPC   PO4 7440   6.759  33.213   9.697
  360POPC   GL1 7441   6.628  33.249   9.205
  360POPC   GL2 7442   6.737  32.957   9.120
  360POPC   C1A 7443   6.404  33.234   8.772
  360POPC   D2A 7444   6.360  33.458   8.381
  360POPC   C3A 7445   6.309  33.198   8.051
  360POPC   C4A 7446   6.569  32.983   7.800
  360POPC   C1B 7447   6.905  33.234   8.755
  360POPC   C2B 7448   6.785  33.154   8.336
  360POPC   C3B 7449   6.895  32.775   8.188
  360POPC   C4B 7450   6.955  32.510   7.851
  361POPC   NC3 7451  23.349  36.595   9.536
  361POPC   PO4 7452  23.015  35.969   9.460
  361POPC   GL1 7453  22.856  36.058   9.065
  361POPC   GL2 7454  23.031  36.385   9.084
  361POPC   C1A 7455  22.726  36.279   8.678
  361POPC   D2A 7456  22.596  36.272   8.256
  361POPC   C3A 7457  22.709  35.874   8.033
  361POPC   C4A 7458  22.611  35.800   7.618
  361POPC   C1B 7459  23.236  36.099   8.750
  361POPC   C2B 7460  23.079  36.061   8.337
  361POPC   C3B 7461  23.067  36.223   7.920
  361POPC   C4B 7462  23.409  36.042   7.703
  362POPC   NC3 7463  11.713  10.754   9.438
  362POPC   PO4 7464  12.191  10.235   9.442
  362POPC   GL1 7465  12.148  10.550   9.122
  362POPC   GL2 7466  11.818  10.499   9.004
  362POPC   C1A 7467  12.240  10.478   8.682
  362POPC   D2A 7468  12.114  10.359   8.269
  362POPC   C3A 7469  12.113  10.610   7.891
  362POPC   C4A 7470  12.426  10.761   7.582
  362POPC   C1B 7471  11.775  10.179   8.675
  362POPC   C2B 7472  11.610  10.076   8.309
  362POPC   C3B 7473  11.652  10.420   8.062
  362POPC   C4B 7474  11.634  10.512   7.644
  363POPC   NC3 7475  36.543  40.105   9.535
  363POPC   PO4 7476  37.054  39.692   9.452
  363POPC   GL1 7477  36.842  39.923   9.139
  363POPC   GL2 7478  36.900  40.290   9.202
  363POPC   C1A 7479  36.961  40.062   8.723
  363POPC   D2A 7480  37.135  40.146   8.302
  363POPC   C3A 7481  37.009  39.957   7.895
  363POPC   C4A 7482  36.971  39.942   7.414
  363POPC   C1B 7483  36.556  40.346   8.919
  363POPC   C2B 7484  36.571  40.439   8.474
  363POPC   C3B 7485  36.705  40.318   8.070
  363POPC   C4B 7486  36.578  40.104   7.689
  364POPC   NC3 7487  33.414  21.628   9.623
  364POPC   PO4 7488  33.801  21.181   9.829
  364POPC   GL1 7489  33.902  21.398   9.395
  364POPC   GL2 7490  33.649  21.487   9.161
  364POPC   C1A 7491  34.130  21.531   8.971
  364POPC   D2A 7492  34.008  21.746   8.553
  364POPC   C3A 7493  33.897  21.499   8.215
  364POPC   C4A 7494  33.980  21.512   7.784
  364POPC   C1B 7495  33.522  21.599   8.737
  364POPC   C2B 7496  33.455  21.861   8.358
  364POPC   C3B 7497  33.504  21.705   7.941
  364POPC   C4B 7498  33.483  21.378   7.702
  365POPC   NC3 7499   1.547  37.793   9.477
  365POPC   PO4 7500   2.185  37.486   9.369
  365POPC   GL1 7501   2.001  37.651   9.004
  365POPC   GL2 7502   2.135  37.974   8.903
  365POPC   C1A 7503   2.085  37.479   8.596
  365POPC   D2A 7504   2.192  37.331   8.147
  365POPC   C3A 7505   1.835  37.329   7.852
  365POPC   C4A 7506   1.638  37.375   7.456
  365POPC   C1B 7507   1.857  37.961   8.549
  365POPC   C2B 7508   1.843  37.712   8.190
  365POPC   C3B 7509   2.121  37.738   7.841
  365POPC   C4B 7510   2.155  38.084   7.596
  366POPC   NC3 7511  13.290  43.611   9.487
  366POPC   PO4 7512  13.960  43.928   9.498
  366POPC   GL1 7513  13.676  43.771   9.154
  366POPC   GL2 7514  13.732  43.450   9.188
  366POPC   C1A 7515  13.535  43.988   8.773
  366POPC   D2A 7516  13.734  44.201   8.449
  366POPC   C3A 7517  13.626  44.045   8.060
  366POPC   C4A 7518  13.661  44.073   7.646
  366POPC   C1B 7519  13.835  43.528   8.738
  366POPC   C2B 7520  13.914  43.722   8.337
  366POPC   C3B 7521  13.992  43.673   7.883
  366POPC   C4B 7522  13.750  43.599   7.529
  367POPC   NC3 7523   7.636  17.193   9.427
  367POPC   PO4 7524   7.439  17.795   9.590
  367POPC   GL1 7525   7.419  17.589   9.185
  367POPC   GL2 7526   7.740  17.697   9.107
  367POPC   C1A 7527   7.238  17.440   8.795
  367POPC   D2A 7528   6.974  17.556   8.462
  367POPC   C3A 7529   7.106  17.442   8.085
  367POPC   C4A 7530   7.278  17.610   7.756
  367POPC   C1B 7531   7.744  17.407   8.776
  367POPC   C2B 7532   7.493  17.224   8.406
  367POPC   C3B 7533   7.596  17.247   7.958
  367POPC   C4B 7534   7.795  17.535   7.667
  368POPC   NC3 7535  31.809  16.309   9.466
  368POPC   PO4 7536  31.242  15.918   9.537
  368POPC   GL1 7537  31.287  15.741   9.127
  368POPC   GL2 7538  31.655  15.713   9.057
  368POPC   C1A 7539  31.284  16.054   8.818
  368POPC   D2A 7540  31.482  16.250   8.463
  368POPC   C3A 7541  31.447  16.078   8.042
  368POPC   C4A 7542  31.795  16.176   7.754
  368POPC   C1B 7543  31.661  15.741   8.625
  368POPC   C2B 7544  31.601  15.625   8.203
  368POPC   C3B 7545  31.658  15.676   7.761
  368POPC   C4B 7546  31.954  15.627   7.399
  369POPC   NC3 7547  12.492  32.155   9.506
  369POPC   PO4 7548  11.764  32.015   9.411
  369POPC   GL1 7549  12.093  32.096   9.098
  369POPC   GL2 7550  12.372  32.370   9.049
  369POPC   C1A 7551  12.023  32.270   8.691
  369POPC   D2A 7552  11.845  32.559   8.419
  369POPC   C3A 7553  11.963  32.347   8.050
  369POPC   C4A 7554  11.780  32.118   7.750
  369POPC   C1B 7555  12.516  32.105   8.700
  369POPC   C2B 7556  12.277  31.998   8.335
  369POPC   C3B 7557  12.416  32.129   7.942
  369POPC   C4B 7558  12.265  32.246   7.540
  370POPC   NC3 7559  31.390  22.341   9.449
  370POPC   PO4 7560  31.647  21.683   9.479
  370POPC   GL1 7561  31.510  21.928   9.128
  370POPC   GL2 7562  31.143  21.974   9.135
  370POPC   C1A 7563  31.668  21.971   8.696
  370POPC   D2A 7564  31.771  22.190   8.334
  370POPC   C3A 7565  31.500  22.186   7.975
  370POPC   C4A 7566  31.630  22.161   7.569
  370POPC   C1B 7567  31.315  22.300   8.829
  370POPC   C2B 7568  31.232  22.310   8.425
  370POPC   C3B 7569  31.212  22.589   8.114
  370POPC   C4B 7570  31.047  22.566   7.701
  371POPC   NC3 7571  35.868  38.485   9.499
  371POPC   PO4 7572  36.327  39.012   9.542
  371POPC   GL1 7573  36.178  38.721   9.160
  371POPC   GL2 7574  35.902  38.451   9.005
  371POPC   C1A 7575  36.365  38.481   8.809
  371POPC   D2A 7576  36.446  38.622   8.389
  371POPC   C3A 7577  36.379  38.430   7.984
  371POPC   C4A 7578  36.202  38.375   7.530
  371POPC   C1B 7579  35.895  38.610   8.609
  371POPC   C2B 7580  35.909  38.526   8.176
  371POPC   C3B 7581  35.915  38.693   7.795
  371POPC   C4B 7582  35.922  39.103   7.693
  372POPC   NC3 7583  30.272  23.410   9.443
  372POPC   PO4 7584  29.659  23.735   9.594
  372POPC   GL1 7585  29.872  23.696   9.237
  372POPC   GL2 7586  29.861  23.360   9.098
  372POPC   C1A 7587  29.762  23.821   8.842
  372POPC   D2A 7588  29.784  23.601   8.480
  372POPC   C3A 7589  30.016  23.825   8.162
  372POPC   C4A 7590  29.856  24.041   7.821
  372POPC   C1B 7591  30.185  23.477   8.780
  372POPC   C2B 7592  30.251  23.402   8.332
  372POPC   C3B 7593  30.022  23.378   7.928
  372POPC   C4B 7594  30.238  23.293   7.572
  373POPC   NC3 7595  24.465  23.905   9.642
  373POPC   PO4 7596  24.639  23.253   9.536
  373POPC   GL1 7597  24.490  23.533   9.184
  373POPC   GL2 7598  24.554  23.889   9.154
  373POPC   C1A 7599  24.267  23.599   8.781
  373POPC   D2A 7600  24.425  23.754   8.400
  373POPC   C3A 7601  24.311  23.626   8.066
  373POPC   C4A 7602  24.443  23.487   7.694
  373POPC   C1B 7603  24.443  24.085   8.764
  373POPC   C2B 7604  24.119  24.151   8.441
  373POPC   C3B 7605  24.254  24.146   8.014
  373POPC   C4B 7606  24.550  23.986   7.758
  374POPC   NC3 7607   3.963  11.738   9.208
  374POPC   PO4 7608   4.471  11.883   9.539
  374POPC   GL1 7609   4.354  12.066   9.121
  374POPC   GL2 7610   4.664  12.036   9.091
  374POPC   C1A 7611   4.187  12.036   8.660
  374POPC   D2A 7612   3.859  11.887   8.361
  374POPC   C3A 7613   3.968  12.208   8.125
  374POPC   C4A 7614   4.151  12.308   7.763
  374POPC   C1B 7615   4.574  11.737   8.783
  374POPC   C2B 7616   4.597  11.852   8.388
  374POPC   C3B 7617   4.426  11.974   8.034
  374POPC   C4B 7618   4.639  12.134   7.709
  375POPC   NC3 7619  44.315   4.821   9.479
  375POPC   PO4 7620  44.879   5.102   9.513
  375POPC   GL1 7621  44.664   5.083   9.147
  375POPC   GL2 7622  44.983   4.960   9.003
  375POPC   C1A 7623  44.536   5.172   8.730
  375POPC   D2A 7624  44.777   4.980   8.420
  375POPC   C3A 7625  44.641   5.130   8.033
  375POPC   C4A 7626  44.404   5.206   7.664
  375POPC   C1B 7627   0.008   5.379   8.871
  375POPC   C2B 7628  44.872   5.544   8.470
  375POPC   C3B 7629   0.038   5.508   8.066
  375POPC   C4B 7630  44.874   5.412   7.673
  376POPC   NC3 7631  20.011  22.227   9.535
  376POPC   PO4 7632  19.388  22.111   9.300
  376POPC   GL1 7633  19.757  22.054   9.113
  376POPC   GL2 7634  20.057  22.279   9.040
  376POPC   C1A 7635  19.862  21.856   8.765
  376POPC   D2A 7636  20.044  21.693   8.394
  376POPC   C3A 7637  19.827  21.732   7.997
  376POPC   C4A 7638  19.997  21.855   7.616
  376POPC   C1B 7639  19.947  22.546   8.727
  376POPC   C2B 7640  19.864  22.510   8.313
  376POPC   C3B 7641  19.961  22.250   7.958
  376POPC   C4B 7642  20.002  22.363   7.515
  377POPC   NC3 7643  32.656  27.105   9.471
  377POPC   PO4 7644  32.089  26.739   9.553
  377POPC   GL1 7645  32.154  26.687   9.136
  377POPC   GL2 7646  32.001  26.331   9.137
  377POPC   C1A 7647  32.435  26.874   8.774
  377POPC   D2A 7648  32.619  26.829   8.321
  377POPC   C3A 7649  32.338  26.992   8.004
  377POPC   C4A 7650  32.173  27.416   7.853
  377POPC   C1B 7651  32.232  26.404   8.736
  377POPC   C2B 7652  32.154  26.650   8.390
  377POPC   C3B 7653  32.014  26.570   7.987
  377POPC   C4B 7654  31.832  26.912   7.837
  378POPC   NC3 7655  44.780  38.983   9.719
  378POPC   PO4 7656  44.584  39.564   9.445
  378POPC   GL1 7657  44.407  39.421   9.090
  378POPC   GL2 7658  44.183  39.212   9.233
  378POPC   C1A 7659  44.595  39.327   8.697
  378POPC   D2A 7660  44.763  39.201   8.322
  378POPC   C3A 7661  44.665  39.393   7.981
  378POPC   C4A 7662  44.953  39.427   7.711
  378POPC   C1B 7663  44.337  38.924   8.882
  378POPC   C2B 7664  44.610  38.765   8.530
  378POPC   C3B 7665  44.690  38.755   8.081
  378POPC   C4B 7666  44.461  38.933   7.763
  379POPC   NC3 7667  27.700   8.359   9.496
  379POPC   PO4 7668  27.254   7.899   9.425
  379POPC   GL1 7669  27.384   8.087   9.053
  379POPC   GL2 7670  27.310   8.415   9.171
  379POPC   C1A 7671  27.761   8.191   8.774
  379POPC   D2A 7672  27.975   8.410   8.409
  379POPC   C3A 7673  27.844   8.242   7.999
  379POPC   C4A 7674  27.972   7.913   7.716
  379POPC   C1B 7675  27.350   8.570   8.767
  379POPC   C2B 7676  27.486   8.548   8.325
  379POPC   C3B 7677  27.340   8.447   7.905
  379POPC   C4B 7678  27.366   8.037   7.727
  380POPC   NC3 7679  10.462  22.597   9.528
  380POPC   PO4 7680  10.438  21.898   9.624
  380POPC   GL1 7681  10.365  22.063   9.229
  380POPC   GL2 7682  10.658  22.271   9.176
  380POPC   C1A 7683  10.298  21.953   8.793
  380POPC   D2A 7684  10.509  22.027   8.410
  380POPC   C3A 7685  10.321  21.945   8.016
  380POPC   C4A 7686  10.191  22.198   7.692
  380POPC   C1B 7687  10.840  22.067   8.803
  380POPC   C2B 7688  11.020  22.122   8.373
  380POPC   C3B 7689  10.804  22.123   7.957
  380POPC   C4B 7690  10.694  22.367   7.581
  381POPC   NC3 7691   6.462  39.296   9.470
  381POPC   PO4 7692   7.138  39.270   9.343
  381POPC   GL1 7693   6.847  39.327   9.041
  381POPC   GL2 7694   6.611  39.050   9.042
  381POPC   C1A 7695   6.783  39.232   8.609
  381POPC   D2A 7696   6.492  39.376   8.307
  381POPC   C3A 7697   6.769  39.413   7.987
  381POPC   C4A 7698   6.757  39.427   7.557
  381POPC   C1B 7699   6.301  39.037   8.686
  381POPC   C2B 7700   6.247  38.913   8.243
  381POPC   C3B 7701   6.374  39.094   7.828
  381POPC   C4B 7702   6.410  38.915   7.393
  382POPC   NC3 7703  15.808  40.556   9.491
  382POPC   PO4 7704  16.208  41.170   9.483
  382POPC   GL1 7705  15.970  40.916   9.164
  382POPC   GL2 7706  16.199  40.644   9.156
  382POPC   C1A 7707  15.827  40.590   8.814
  382POPC   D2A 7708  15.811  40.398   8.357
  382POPC   C3A 7709  15.724  40.601   7.921
  382POPC   C4A 7710  15.514  41.007   7.828
  382POPC   C1B 7711  16.243  40.845   8.752
  382POPC   C2B 7712  15.956  40.886   8.414
  382POPC   C3B 7713  15.983  41.022   8.038
  382POPC   C4B 7714  16.124  40.823   7.672
  383POPC   NC3 7715   9.415  12.737   9.463
  383POPC   PO4 7716   9.082  13.273   9.340
  383POPC   GL1 7717   8.850  12.926   9.138
  383POPC   GL2 7718   8.628  12.666   9.296
  383POPC   C1A 7719   8.993  12.675   8.775
  383POPC   D2A 7720   9.224  12.819   8.397
  383POPC   C3A 7721   9.291  12.573   8.031
  383POPC   C4A 7722   9.055  12.742   7.715
  383POPC   C1B 7723   8.462  12.616   8.867
  383POPC   C2B 7724   8.613  12.499   8.456
  383POPC   C3B 7725   8.755  12.488   8.035
  383POPC   C4B 7726   8.525  12.520   7.624
  384POPC   NC3 7727  11.105   6.026   9.444
  384POPC   PO4 7728  11.667   6.202   9.150
  384POPC   GL1 7729  11.305   5.967   8.969
  384POPC   GL2 7730  11.256   5.628   9.131
  384POPC   C1A 7731  11.084   5.727   8.620
  384POPC   D2A 7732  11.062   5.629   8.159
  384POPC   C3A 7733  11.186   5.968   7.878
  384POPC   C4A 7734  11.075   5.982   7.452
  384POPC   C1B 7735  11.545   5.533   8.778
  384POPC   C2B 7736  11.541   5.709   8.354
  384POPC   C3B 7737  11.529   5.559   7.932
  384POPC   C4B 7738  11.567   5.783   7.507
  385POPC   NC3 7739  34.972  20.062   9.404
  385POPC   PO4 7740  35.436  19.595   9.560
  385POPC   GL1 7741  35.357  19.806   9.187
  385POPC   GL2 7742  35.419  20.153   9.161
  385POPC   C1A 7743  35.407  19.741   8.777
  385POPC   D2A 7744  35.686  19.721   8.470
  385POPC   C3A 7745  35.462  19.579   8.174
  385POPC   C4A 7746  35.197  19.655   7.812
  385POPC   C1B 7747  35.223  20.217   8.750
  385POPC   C2B 7748  35.246  20.048   8.311
  385POPC   C3B 7749  35.188  20.189   7.852
  385POPC   C4B 7750  34.946  20.116   7.440
  386POPC   NC3 7751  15.970   3.715   9.780
  386POPC   PO4 7752  16.142   3.075   9.658
  386POPC   GL1 7753  16.163   3.409   9.250
  386POPC   GL2 7754  16.214   3.166   9.054
  386POPC   C1A 7755  16.232   3.532   8.715
  386POPC   D2A 7756  16.265   3.598   8.211
  386POPC   C3A 7757  16.052   3.820   7.827
  386POPC   C4A 7758  16.024   3.779   7.336
  386POPC   C1B 7759  15.981   3.054   8.691
  386POPC   C2B 7760  15.833   3.244   8.298
  386POPC   C3B 7761  15.926   3.328   7.869
  386POPC   C4B 7762  16.013   3.285   7.416
  387POPC   NC3 7763  32.958  20.190   9.530
  387POPC   PO4 7764  33.100  19.586   9.856
  387POPC   GL1 7765  33.168  19.708   9.330
  387POPC   GL2 7766  32.965  19.990   9.066
  387POPC   C1A 7767  33.132  19.568   8.856
  387POPC   D2A 7768  33.321  19.788   8.467
  387POPC   C3A 7769  33.117  19.791   8.054
  387POPC   C4A 7770  32.745  19.959   7.901
  387POPC   C1B 7771  33.138  20.231   8.671
  387POPC   C2B 7772  33.263  20.268   8.207
  387POPC   C3B 7773  33.204  20.237   7.737
  387POPC   C4B 7774  33.206  20.411   7.303
  388POPC   NC3 7775   2.595  13.224   9.378
  388POPC   PO4 7776   3.004  12.665   9.422
  388POPC   GL1 7777   2.986  12.969   9.088
  388POPC   GL2 7778   2.672  12.807   9.005
  388POPC   C1A 7779   3.004  12.914   8.623
  388POPC   D2A 7780   2.854  12.591   8.328
  388POPC   C3A 7781   2.782  12.746   7.912
  388POPC   C4A 7782   2.862  13.113   7.681
  388POPC   C1B 7783   2.593  12.409   8.732
  388POPC   C2B 7784   2.412  12.312   8.299
  388POPC   C3B 7785   2.320  12.468   7.864
  388POPC   C4B 7786   2.484  12.675   7.418
  389POPC   NC3 7787  32.589  40.112   9.511
  389POPC   PO4 7788  32.233  39.591   9.552
  389POPC   GL1 7789  32.165  39.963   9.267
  389POPC   GL2 7790  31.848  40.040   9.170
  389POPC   C1A 7791  32.236  40.179   8.859
  389POPC   D2A 7792  32.154  40.060   8.439
  389POPC   C3A 7793  32.196  40.223   8.016
  389POPC   C4A 7794  32.343  39.913   7.722
  389POPC   C1B 7795  31.915  39.738   8.857
  389POPC   C2B 7796  31.917  39.578   8.447
  389POPC   C3B 7797  31.959  39.751   8.047
  389POPC   C4B 7798  31.965  39.563   7.657
  390POPC   NC3 7799   6.476   0.307   9.467
  390POPC   PO4 7800   6.624   0.943   9.485
  390POPC   GL1 7801   6.631   0.615   9.094
  390POPC   GL2 7802   6.556   0.227   9.007
  390POPC   C1A 7803   6.836   0.501   8.692
  390POPC   D2A 7804   6.909   0.704   8.310
  390POPC   C3A 7805   6.807   0.553   7.904
  390POPC   C4A 7806   6.398   0.711   7.806
  390POPC   C1B 7807   6.370   0.303   8.670
  390POPC   C2B 7808   6.503   0.389   8.272
  390POPC   C3B 7809   6.324   0.220   7.898
  390POPC   C4B 7810   6.322  44.957   7.521
  391POPC   NC3 7811   4.494   4.706   9.512
  391POPC   PO4 7812   4.219   4.098   9.433
  391POPC   GL1 7813   4.183   4.440   9.167
  391POPC   GL2 7814   4.541   4.462   9.074
  391POPC   C1A 7815   4.120   4.471   8.723
  391POPC   D2A 7816   4.097   4.189   8.338
  391POPC   C3A 7817   4.114   4.320   7.885
  391POPC   C4A 7818   4.114   4.164   7.451
  391POPC   C1B 7819   4.642   4.674   8.723
  391POPC   C2B 7820   4.449   4.583   8.347
  391POPC   C3B 7821   4.583   4.376   8.020
  391POPC   C4B 7822   4.692   4.660   7.750
  392POPC   NC3 7823   5.927  26.334   9.812
  392POPC   PO4 7824   5.546  26.890   9.573
  392POPC   GL1 7825   5.822  26.699   9.241
  392POPC   GL2 7826   5.543  26.686   9.006
  392POPC   C1A 7827   6.017  26.854   8.828
  392POPC   D2A 7828   6.118  27.034   8.420
  392POPC   C3A 7829   5.916  26.854   8.051
  392POPC   C4A 7830   5.997  27.101   7.694
  392POPC   C1B 7831   5.612  26.702   8.549
  392POPC   C2B 7832   5.379  26.920   8.219
  392POPC   C3B 7833   5.495  27.109   7.824
  392POPC   C4B 7834   5.568  27.008   7.382
  393POPC   NC3 7835  42.555  41.548   9.511
  393POPC   PO4 7836  42.019  41.316   9.339
  393POPC   GL1 7837  42.226  41.638   9.074
  393POPC   GL2 7838  42.549  41.806   9.073
  393POPC   C1A 7839  42.252  41.658   8.615
  393POPC   D2A 7840  42.063  41.420   8.247
  393POPC   C3A 7841  42.094  41.609   7.829
  393POPC   C4A 7842  42.165  41.468   7.394
  393POPC   C1B 7843  42.653  41.437   8.857
  393POPC   C2B 7844  42.636  41.375   8.413
  393POPC   C3B 7845  42.571  41.457   7.999
  393POPC   C4B 7846  42.575  41.721   7.648
  394POPC   NC3 7847  13.950   1.083   9.586
  394POPC   PO4 7848  13.665   1.624   9.745
  394POPC   GL1 7849  13.677   1.378   9.270
  394POPC   GL2 7850  13.957   1.199   9.087
  394POPC   C1A 7851  13.563   1.334   8.789
  394POPC   D2A 7852  13.664   1.267   8.372
  394POPC   C3A 7853  13.359   0.998   8.145
  394POPC   C4A 7854  13.206   1.173   7.754
  394POPC   C1B 7855  13.882   0.938   8.685
  394POPC   C2B 7856  13.892   0.846   8.211
  394POPC   C3B 7857  13.731   1.136   7.860
  394POPC   C4B 7858  13.886   0.995   7.511
  395POPC   NC3 7859  34.486  24.829   9.424
  395POPC   PO4 7860  34.552  24.230   9.761
  395POPC   GL1 7861  34.578  24.300   9.289
  395POPC   GL2 7862  34.863  24.544   9.211
  395POPC   C1A 7863  34.434  24.486   8.864
  395POPC   D2A 7864  34.215  24.718   8.526
  395POPC   C3A 7865  34.387  24.595   8.118
  395POPC   C4A 7866  34.388  24.404   7.693
  395POPC   C1B 7867  34.936  24.541   8.754
  395POPC   C2B 7868  34.846  24.684   8.331
  395POPC   C3B 7869  34.857  24.514   7.897
  395POPC   C4B 7870  34.725  24.735   7.523
  396POPC   NC3 7871  30.102  17.514   9.596
  396POPC   PO4 7872  29.612  17.119   9.471
  396POPC   GL1 7873  29.862  17.344   9.150
  396POPC   GL2 7874  30.033  17.654   9.004
  396POPC   C1A 7875  29.970  17.237   8.727
  396POPC   D2A 7876  30.121  17.459   8.388
  396POPC   C3A 7877  29.816  17.434   8.094
  396POPC   C4A 7878  29.990  17.092   7.896
  396POPC   C1B 7879  30.206  17.908   8.640
  396POPC   C2B 7880  30.125  17.939   8.197
  396POPC   C3B 7881  30.198  17.890   7.793
  396POPC   C4B 7882  30.071  17.507   7.648
  397POPC   NC3 7883  31.414  20.381   9.524
  397POPC   PO4 7884  31.873  20.844   9.265
  397POPC   GL1 7885  31.603  20.544   9.064
  397POPC   GL2 7886  31.241  20.591   9.115
  397POPC   C1A 7887  31.757  20.461   8.661
  397POPC   D2A 7888  31.845  20.774   8.378
  397POPC   C3A 7889  31.472  20.856   8.171
  397POPC   C4A 7890  31.471  20.577   7.836
  397POPC   C1B 7891  31.243  20.562   8.684
  397POPC   C2B 7892  31.341  20.358   8.297
  397POPC   C3B 7893  31.067  20.303   7.878
  397POPC   C4B 7894  30.881  20.361   7.462
  398POPC   NC3 7895  11.493   3.436   9.510
  398POPC   PO4 7896  10.957   3.773   9.433
  398POPC   GL1 7897  11.148   3.433   9.122
  398POPC   GL2 7898  11.483   3.232   9.063
  398POPC   C1A 7899  11.227   3.444   8.675
  398POPC   D2A 7900  11.133   3.324   8.284
  398POPC   C3A 7901  10.939   3.638   8.029
  398POPC   C4A 7902  11.104   3.588   7.656
  398POPC   C1B 7903  11.665   3.619   8.850
  398POPC   C2B 7904  11.632   3.861   8.443
  398POPC   C3B 7905  11.457   3.714   8.052
  398POPC   C4B 7906  11.535   3.381   7.762
  399POPC   NC3 7907  19.006   1.607   9.795
  399POPC   PO4 7908  19.255   0.985   9.509
  399POPC   GL1 7909  18.948   1.182   9.225
  399POPC   GL2 7910  19.198   1.294   8.952
  399POPC   C1A 7911  18.729   1.213   8.817
  399POPC   D2A 7912  19.001   1.288   8.439
  399POPC   C3A 7913  18.871   1.150   8.023
  399POPC   C4A 7914  18.968   1.293   7.614
  399POPC   C1B 7915  19.512   1.265   8.639
  399POPC   C2B 7916  19.598   1.059   8.262
  399POPC   C3B 7917  19.383   1.165   7.896
  399POPC   C4B 7918  19.451   1.224   7.477
  400POPC   NC3 7919  25.283  33.225   9.814
  400POPC   PO4 7920  25.439  33.775   9.489
  400POPC   GL1 7921  25.442  33.755   9.083
  400POPC   GL2 7922  25.188  33.959   9.051
  400POPC   C1A 7923  25.454  33.867   8.633
  400POPC   D2A 7924  25.175  33.676   8.372
  400POPC   C3A 7925  25.234  33.668   7.980
  400POPC   C4A 7926  24.998  33.631   7.664
  400POPC   C1B 7927  24.966  34.127   8.711
  400POPC   C2B 7928  25.187  34.275   8.393
  400POPC   C3B 7929  25.328  34.160   8.042
  400POPC   C4B 7930  25.085  34.125   7.709
  401POPC   NC3 7931  23.615  29.320   9.529
  401POPC   PO4 7932  24.008  28.884   9.233
  401POPC   GL1 7933  23.675  29.102   9.066
  401POPC   GL2 7934  23.867  29.356   9.086
  401POPC   C1A 7935  23.529  29.320   8.701
  401POPC   D2A 7936  23.544  29.065   8.342
  401POPC   C3A 7937  23.512  29.313   7.985
  401POPC   C4A 7938  23.501  29.217   7.554
  401POPC   C1B 7939  24.024  29.210   8.672
  401POPC   C2B 7940  23.939  29.397   8.300
  401POPC   C3B 7941  24.104  29.564   7.919
  401POPC   C4B 7942  24.032  29.355   7.510
  402POPC   NC3 7943  34.354  16.013   9.548
  402POPC   PO4 7944  33.695  16.143   9.632
  402POPC   GL1 7945  33.950  16.029   9.221
  402POPC   GL2 7946  34.249  16.191   9.075
  402POPC   C1A 7947  33.863  15.966   8.751
  402POPC   D2A 7948  33.554  16.017   8.399
  402POPC   C3A 7949  33.720  15.944   7.965
  402POPC   C4A 7950  33.825  15.781   7.580
  402POPC   C1B 7951  34.180  16.390   8.685
  402POPC   C2B 7952  34.070  16.186   8.286
  402POPC   C3B 7953  34.109  16.303   7.871
  402POPC   C4B 7954  34.221  16.334   7.404
  403POPC   NC3 7955  31.436   4.649   9.484
  403POPC   PO4 7956  31.284   5.276   9.532
  403POPC   GL1 7957  31.421   5.128   9.168
  403POPC   GL2 7958  31.738   5.287   9.217
  403POPC   C1A 7959  31.304   5.050   8.747
  403POPC   D2A 7960  31.301   4.831   8.393
  403POPC   C3A 7961  31.296   5.096   8.068
  403POPC   C4A 7962  31.287   4.913   7.705
  403POPC   C1B 7963  31.825   5.142   8.829
  403POPC   C2B 7964  31.826   5.103   8.417
  403POPC   C3B 7965  31.853   5.366   8.082
  403POPC   C4B 7966  31.717   5.189   7.725
  404POPC   NC3 7967   2.705  26.723   9.523
  404POPC   PO4 7968   3.341  27.012   9.505
  404POPC   GL1 7969   2.990  26.954   9.177
  404POPC   GL2 7970   3.106  26.645   9.111
  404POPC   C1A 7971   2.618  26.795   8.868
  404POPC   D2A 7972   2.433  26.610   8.462
  404POPC   C3A 7973   2.536  26.767   8.061
  404POPC   C4A 7974   2.418  26.665   7.634
  404POPC   C1B 7975   3.108  26.780   8.698
  404POPC   C2B 7976   2.961  26.651   8.320
  404POPC   C3B 7977   3.055  26.850   7.936
  404POPC   C4B 7978   2.938  26.619   7.600
  405POPC   NC3 7979   5.411   5.058   9.328
  405POPC   PO4 7980   4.926   5.475   9.639
  405POPC   GL1 7981   4.939   5.323   9.184
  405POPC   GL2 7982   4.845   4.975   9.099
  405POPC   C1A 7983   5.150   5.349   8.750
  405POPC   D2A 7984   5.047   5.419   8.347
  405POPC   C3A 7985   5.344   5.407   8.081
  405POPC   C4A 7986   5.341   5.217   7.733
  405POPC   C1B 7987   5.134   4.834   8.782
  405POPC   C2B 7988   5.233   4.957   8.399
  405POPC   C3B 7989   5.149   4.832   7.991
  405POPC   C4B 7990   5.442   4.680   7.709
  406POPC   NC3 7991  15.392  27.750   9.258
  406POPC   PO4 7992  14.770  27.446   9.424
  406POPC   GL1 7993  15.042  27.375   9.120
  406POPC   GL2 7994  15.336  27.216   9.280
  406POPC   C1A 7995  15.019  27.555   8.727
  406POPC   D2A 7996  14.881  27.516   8.317
  406POPC   C3A 7997  15.229  27.673   8.095
  406POPC   C4A 7998  15.048  27.618   7.713
  406POPC   C1B 7999  15.363  27.071   8.838
  406POPC   C2B 8000  15.289  27.226   8.416
  406POPC   C3B 8001  15.177  27.179   7.975
  406POPC   C4B 8002  15.472  27.184   7.630
  407POPC   NC3 8003  31.052  39.564   9.322
  407POPC   PO4 8004  30.611  39.114   9.668
  407POPC   GL1 8005  30.696  39.180   9.246
  407POPC   GL2 8006  30.559  39.515   9.166
  407POPC   C1A 8007  30.605  39.020   8.822
  407POPC   D2A 8008  30.769  39.208   8.460
  407POPC   C3A 8009  30.773  39.062   8.065
  407POPC   C4A 8010  30.909  39.243   7.690
  407POPC   C1B 8011  30.276  39.446   8.802
  407POPC   C2B 8012  30.255  39.574   8.373
  407POPC   C3B 8013  30.507  39.475   8.018
  407POPC   C4B 8014  30.485  39.539   7.579
  408POPC   NC3 8015  16.192  20.825   9.759
  408POPC   PO4 8016  16.643  20.443   9.426
  408POPC   GL1 8017  16.746  20.640   9.038
  408POPC   GL2 8018  16.846  20.995   9.044
  408POPC   C1A 8019  16.567  20.724   8.645
  408POPC   D2A 8020  16.653  20.469   8.299
  408POPC   C3A 8021  16.483  20.625   7.916
  408POPC   C4A 8022  16.398  20.707   7.466
  408POPC   C1B 8023  17.003  20.977   8.590
  408POPC   C2B 8024  16.851  20.926   8.167
  408POPC   C3B 8025  16.745  21.014   7.729
  408POPC   C4B 8026  16.888  20.828   7.371
  409POPC   NC3 8027  39.410  23.597   9.573
  409POPC   PO4 8028  38.811  23.820   9.580
  409POPC   GL1 8029  39.020  23.707   9.173
  409POPC   GL2 8030  39.286  23.444   9.081
  409POPC   C1A 8031  39.113  23.933   8.770
  409POPC   D2A 8032  38.952  23.998   8.339
  409POPC   C3A 8033  39.289  23.906   8.050
  409POPC   C4A 8034  39.293  23.624   7.735
  409POPC   C1B 8035  39.025  23.403   8.706
  409POPC   C2B 8036  39.049  23.484   8.238
  409POPC   C3B 8037  38.895  23.327   7.828
  409POPC   C4B 8038  39.085  23.370   7.335
  410POPC   NC3 8039  34.243  21.125   9.867
  410POPC   PO4 8040  34.744  21.434   9.559
  410POPC   GL1 8041  34.594  21.328   9.186
  410POPC   GL2 8042  34.318  21.125   9.289
  410POPC   C1A 8043  34.662  21.431   8.769
  410POPC   D2A 8044  34.506  21.570   8.395
  410POPC   C3A 8045  34.787  21.643   8.055
  410POPC   C4A 8046  34.596  21.568   7.691
  410POPC   C1B 8047  34.338  21.008   8.848
  410POPC   C2B 8048  34.534  21.024   8.436
  410POPC   C3B 8049  34.505  21.189   8.014
  410POPC   C4B 8050  34.246  21.133   7.592
  411POPC   NC3 8051  27.384  40.915   9.790
  411POPC   PO4 8052  27.856  40.482   9.539
  411POPC   GL1 8053  27.708  40.870   9.195
  411POPC   GL2 8054  27.332  40.964   9.096
  411POPC   C1A 8055  27.600  40.865   8.712
  411POPC   D2A 8056  27.381  40.850   8.317
  411POPC   C3A 8057  27.465  40.470   8.056
  411POPC   C4A 8058  27.765  40.379   7.736
  411POPC   C1B 8059  27.078  40.723   8.791
  411POPC   C2B 8060  27.072  40.449   8.424
  411POPC   C3B 8061  26.977  40.646   8.042
  411POPC   C4B 8062  27.196  40.747   7.668
  412POPC   NC3 8063  24.807   4.826   9.210
  412POPC   PO4 8064  25.236   5.247   9.527
  412POPC   GL1 8065  25.215   5.130   9.124
  412POPC   GL2 8066  25.340   4.775   9.134
  412POPC   C1A 8067  25.165   5.325   8.735
  412POPC   D2A 8068  25.453   5.379   8.398
  412POPC   C3A 8069  25.361   5.305   7.969
  412POPC   C4A 8070  25.278   4.925   7.742
  412POPC   C1B 8071  25.190   4.784   8.696
  412POPC   C2B 8072  25.261   4.875   8.271
  412POPC   C3B 8073  25.656   4.804   8.094
  412POPC   C4B 8074  25.832   4.827   7.688
  413POPC   NC3 8075   0.617  29.506   9.513
  413POPC   PO4 8076   1.191  29.079   9.474
  413POPC   GL1 8077   1.316  28.968   9.109
  413POPC   GL2 8078   0.983  28.778   9.048
  413POPC   C1A 8079   1.414  29.186   8.731
  413POPC   D2A 8080   1.243  29.132   8.326
  413POPC   C3A 8081   1.538  29.183   7.975
  413POPC   C4A 8082   1.441  29.034   7.541
  413POPC   C1B 8083   0.903  29.201   8.872
  413POPC   C2B 8084   0.769  29.288   8.454
  413POPC   C3B 8085   0.853  29.270   8.027
  413POPC   C4B 8086   0.944  29.040   7.688
  414POPC   NC3 8087  22.454   2.490   9.587
  414POPC   PO4 8088  21.811   2.077   9.537
  414POPC   GL1 8089  21.974   1.992   9.106
  414POPC   GL2 8090  22.259   1.769   9.038
  414POPC   C1A 8091  21.831   1.943   8.724
  414POPC   D2A 8092  22.038   2.013   8.359
  414POPC   C3A 8093  21.906   1.970   8.001
  414POPC   C4A 8094  22.220   1.927   7.726
  414POPC   C1B 8095  22.390   1.987   8.708
  414POPC   C2B 8096  22.475   2.292   8.408
  414POPC   C3B 8097  22.662   2.308   8.030
  414POPC   C4B 8098  22.636   2.198   7.601
  415POPC   NC3 8099  41.406   3.500   9.791
  415POPC   PO4 8100  42.050   3.587   9.574
  415POPC   GL1 8101  41.710   3.589   9.213
  415POPC   GL2 8102  41.511   3.304   9.120
  415POPC   C1A 8103  41.542   3.685   8.759
  415POPC   D2A 8104  41.420   3.441   8.368
  415POPC   C3A 8105  41.390   3.711   8.002
  415POPC   C4A 8106  41.501   3.725   7.612
  415POPC   C1B 8107  41.869   3.316   8.788
  415POPC   C2B 8108  41.923   3.540   8.397
  415POPC   C3B 8109  41.881   3.552   7.953
  415POPC   C4B 8110  41.942   3.477   7.502
  416POPC   NC3 8111   6.639  23.461   9.504
  416POPC   PO4 8112   7.096  23.924   9.357
  416POPC   GL1 8113   6.856  23.622   9.069
  416POPC   GL2 8114   6.448  23.638   9.060
  416POPC   C1A 8115   6.688  23.370   8.720
  416POPC   D2A 8116   6.428  23.383   8.343
  416POPC   C3A 8117   6.647  23.583   7.993
  416POPC   C4A 8118   7.020  23.736   7.789
  416POPC   C1B 8119   6.481  23.844   8.647
  416POPC   C2B 8120   6.799  23.956   8.339
  416POPC   C3B 8121   6.742  24.140   7.943
  416POPC   C4B 8122   6.389  23.955   7.725
  417POPC   NC3 8123   5.986  39.908   9.507
  417POPC   PO4 8124   6.287  40.582   9.360
  417POPC   GL1 8125   6.027  40.281   9.115
  417POPC   GL2 8126   6.007  39.907   9.015
  417POPC   C1A 8127   5.840  40.301   8.700
  417POPC   D2A 8128   5.663  40.150   8.280
  417POPC   C3A 8129   5.881  40.138   7.880
  417POPC   C4A 8130   5.702  40.273   7.497
  417POPC   C1B 8131   5.871  39.802   8.610
  417POPC   C2B 8132   5.547  39.666   8.314
  417POPC   C3B 8133   5.537  39.747   7.903
  417POPC   C4B 8134   5.522  39.406   7.679
  418POPC   NC3 8135  43.232   6.064   9.696
  418POPC   PO4 8136  43.087   5.457   9.697
  418POPC   GL1 8137  43.079   5.810   9.285
  418POPC   GL2 8138  42.816   6.046   9.278
  418POPC   C1A 8139  43.085   5.830   8.781
  418POPC   D2A 8140  43.123   5.457   8.465
  418POPC   C3A 8141  43.365   5.509   8.085
  418POPC   C4A 8142  43.320   5.743   7.704
  418POPC   C1B 8143  42.658   6.134   8.816
  418POPC   C2B 8144  42.758   6.157   8.369
  418POPC   C3B 8145  43.005   6.035   8.000
  418POPC   C4B 8146  42.913   5.969   7.521
  419POPC   NC3 8147   3.728  36.549   9.334
  419POPC   PO4 8148   3.321  37.042   9.520
  419POPC   GL1 8149   3.563  37.080   9.138
  419POPC   GL2 8150   3.368  36.812   9.063
  419POPC   C1A 8151   3.680  36.961   8.671
  419POPC   D2A 8152   3.763  36.919   8.210
  419POPC   C3A 8153   3.580  36.785   7.804
  419POPC   C4A 8154   3.749  36.985   7.423
  419POPC   C1B 8155   3.190  37.084   8.790
  419POPC   C2B 8156   3.052  37.101   8.405
  419POPC   C3B 8157   3.134  36.926   8.042
  419POPC   C4B 8158   3.225  37.111   7.672
  420POPC   NC3 8159  29.757   9.472   9.404
  420POPC   PO4 8160  30.074  10.099   9.625
  420POPC   GL1 8161  30.064   9.912   9.175
  420POPC   GL2 8162  30.198   9.611   9.140
  420POPC   C1A 8163  29.853   9.725   8.786
  420POPC   D2A 8164  29.985   9.443   8.467
  420POPC   C3A 8165  29.823   9.603   8.119
  420POPC   C4A 8166  29.771   9.706   7.717
  420POPC   C1B 8167  30.362   9.754   8.712
  420POPC   C2B 8168  30.284   9.831   8.282
  420POPC   C3B 8169  30.272   9.695   7.863
  420POPC   C4B 8170  30.192   9.951   7.481
  421POPC   NC3 8171   8.334  25.651   9.539
  421POPC   PO4 8172   7.964  25.134   9.523
  421POPC   GL1 8173   8.042  25.417   9.169
  421POPC   GL2 8174   8.366  25.303   9.113
  421POPC   C1A 8175   7.959  25.347   8.736
  421POPC   D2A 8176   8.244  25.300   8.396
  421POPC   C3A 8177   8.076  25.171   8.015
  421POPC   C4A 8178   8.201  24.979   7.669
  421POPC   C1B 8179   8.661  25.342   8.764
  421POPC   C2B 8180   8.692  25.556   8.382
  421POPC   C3B 8181   8.492  25.521   7.993
  421POPC   C4B 8182   8.593  25.311   7.606
  422POPC   NC3 8183  13.049  15.795   9.486
  422POPC   PO4 8184  12.749  16.266   9.246
  422POPC   GL1 8185  12.874  15.931   8.997
  422POPC   GL2 8186  12.631  15.700   8.992
  422POPC   C1A 8187  12.844  15.952   8.547
  422POPC   D2A 8188  12.951  16.247   8.224
  422POPC   C3A 8189  13.036  16.036   7.851
  422POPC   C4A 8190  13.265  16.234   7.487
  422POPC   C1B 8191  12.393  15.635   8.648
  422POPC   C2B 8192  12.535  15.641   8.235
  422POPC   C3B 8193  12.623  15.658   7.805
  422POPC   C4B 8194  12.737  15.437   7.415
  423POPC   NC3 8195  24.790   4.031   9.453
  423POPC   PO4 8196  24.436   4.650   9.475
  423POPC   GL1 8197  24.287   4.482   9.110
  423POPC   GL2 8198  24.564   4.257   9.061
  423POPC   C1A 8199  24.147   4.220   8.779
  423POPC   D2A 8200  24.323   4.075   8.400
  423POPC   C3A 8201  24.197   4.197   8.009
  423POPC   C4A 8202  24.254   4.520   7.784
  423POPC   C1B 8203  24.679   3.929   8.744
  423POPC   C2B 8204  24.817   3.983   8.286
  423POPC   C3B 8205  24.697   4.365   8.022
  423POPC   C4B 8206  24.682   4.419   7.548
  424POPC   NC3 8207  19.512  39.909   9.500
  424POPC   PO4 8208  18.880  40.179   9.499
  424POPC   GL1 8209  19.080  39.926   9.133
  424POPC   GL2 8210  19.425  39.827   9.021
  424POPC   C1A 8211  19.044  39.743   8.697
  424POPC   D2A 8212  19.153  39.595   8.273
  424POPC   C3A 8213  19.001  39.901   7.996
  424POPC   C4A 8214  19.258  40.184   7.814
  424POPC   C1B 8215  19.642  39.964   8.651
  424POPC   C2B 8216  19.558  39.972   8.206
  424POPC   C3B 8217  19.498  39.714   7.847
  424POPC   C4B 8218  19.328  39.637   7.426
  425POPC   NC3 8219   5.320  13.515   9.428
  425POPC   PO4 8220   4.856  13.988   9.292
  425POPC   GL1 8221   5.148  13.775   9.034
  425POPC   GL2 8222   4.941  13.476   9.081
  425POPC   C1A 8223   5.142  13.628   8.613
  425POPC   D2A 8224   4.842  13.829   8.320
  425POPC   C3A 8225   4.963  13.798   7.900
  425POPC   C4A 8226   5.399  13.725   7.745
  425POPC   C1B 8227   4.782  13.236   8.738
  425POPC   C2B 8228   4.842  13.305   8.323
  425POPC   C3B 8229   5.200  13.384   8.105
  425POPC   C4B 8230   5.099  13.332   7.674
  426POPC   NC3 8231   3.892  39.540   9.492
  426POPC   PO4 8232   3.502  38.985   9.504
  426POPC   GL1 8233   3.328  39.174   9.116
  426POPC   GL2 8234   3.216  39.490   9.258
  426POPC   C1A 8235   3.498  39.418   8.777
  426POPC   D2A 8236   3.732  39.451   8.417
  426POPC   C3A 8237   3.697  39.131   8.168
  426POPC   C4A 8238   3.653  39.201   7.772
  426POPC   C1B 8239   3.031  39.581   8.849
  426POPC   C2B 8240   2.973  39.362   8.454
  426POPC   C3B 8241   3.172  39.311   8.045
  426POPC   C4B 8242   3.070  39.500   7.644
  427POPC   NC3 8243  38.163  33.129   9.793
  427POPC   PO4 8244  37.506  33.165   9.446
  427POPC   GL1 8245  37.571  33.039   9.056
  427POPC   GL2 8246  37.309  32.796   9.140
  427POPC   C1A 8247  37.711  33.214   8.659
  427POPC   D2A 8248  37.784  32.983   8.289
  427POPC   C3A 8249  37.674  33.165   7.930
  427POPC   C4A 8250  37.660  33.551   7.697
  427POPC   C1B 8251  37.401  32.720   8.697
  427POPC   C2B 8252  37.447  32.603   8.265
  427POPC   C3B 8253  37.342  32.762   7.867
  427POPC   C4B 8254  37.283  32.636   7.439
  428POPC   NC3 8255  13.606   2.964   9.473
  428POPC   PO4 8256  13.844   2.438   9.240
  428POPC   GL1 8257  13.534   2.646   8.974
  428POPC   GL2 8258  13.428   2.984   8.995
  428POPC   C1A 8259  13.355   2.448   8.639
  428POPC   D2A 8260  13.439   2.484   8.230
  428POPC   C3A 8261  13.823   2.601   8.102
  428POPC   C4A 8262  13.915   2.717   7.689
  428POPC   C1B 8263  13.154   2.938   8.646
  428POPC   C2B 8264  13.254   2.972   8.207
  428POPC   C3B 8265  13.429   2.849   7.817
  428POPC   C4B 8266  13.676   3.100   7.468
  429POPC   NC3 8267  38.195  16.485   9.291
  429POPC   PO4 8268  37.872  17.066   9.363
  429POPC   GL1 8269  37.750  16.756   9.035
  429POPC   GL2 8270  37.711  16.379   9.106
  429POPC   C1A 8271  37.464  16.672   8.666
  429POPC   D2A 8272  37.385  16.816   8.226
  429POPC   C3A 8273  37.733  16.892   7.918
  429POPC   C4A 8274  37.801  16.735   7.495
  429POPC   C1B 8275  37.950  16.410   8.708
  429POPC   C2B 8276  37.832  16.583   8.314
  429POPC   C3B 8277  37.573  16.382   8.007
  429POPC   C4B 8278  37.344  16.590   7.718
  430POPC   NC3 8279  33.503  13.397   9.501
  430POPC   PO4 8280  34.000  13.919   9.485
  430POPC   GL1 8281  33.811  13.670   9.182
  430POPC   GL2 8282  33.986  13.383   9.289
  430POPC   C1A 8283  33.687  13.420   8.822
  430POPC   D2A 8284  33.682  13.373   8.365
  430POPC   C3A 8285  33.777  13.762   8.141
  430POPC   C4A 8286  33.771  13.933   7.755
  430POPC   C1B 8287  34.177  13.275   8.917
  430POPC   C2B 8288  34.179  13.309   8.494
  430POPC   C3B 8289  34.138  13.409   8.103
  430POPC   C4B 8290  33.947  13.459   7.732
  431POPC   NC3 8291  37.194  28.503   9.631
  431POPC   PO4 8292  36.610  28.208   9.667
  431POPC   GL1 8293  36.923  28.363   9.228
  431POPC   GL2 8294  37.017  28.085   9.049
  431POPC   C1A 8295  36.774  28.486   8.756
  431POPC   D2A 8296  36.750  28.295   8.308
  431POPC   C3A 8297  36.791  28.498   7.867
  431POPC   C4A 8298  36.857  28.768   7.509
  431POPC   C1B 8299  37.076  28.097   8.649
  431POPC   C2B 8300  37.091  27.877   8.297
  431POPC   C3B 8301  36.901  27.981   7.944
  431POPC   C4B 8302  37.044  28.124   7.563
  432POPC   NC3 8303  30.897  12.868   9.759
  432POPC   PO4 8304  31.476  13.076   9.470
  432POPC   GL1 8305  31.476  12.836   9.143
  432POPC   GL2 8306  31.702  12.580   9.162
  432POPC   C1A 8307  31.382  12.953   8.742
  432POPC   D2A 8308  31.494  12.828   8.326
  432POPC   C3A 8309  31.691  13.129   8.072
  432POPC   C4A 8310  31.502  13.165   7.690
  432POPC   C1B 8311  31.708  12.470   8.743
  432POPC   C2B 8312  31.467  12.323   8.403
  432POPC   C3B 8313  31.173  12.495   8.109
  432POPC   C4B 8314  31.412  12.675   7.771
  433POPC   NC3 8315  32.490   4.370   9.524
  433POPC   PO4 8316  31.848   4.522   9.349
  433POPC   GL1 8317  32.052   4.414   9.026
  433POPC   GL2 8318  32.326   4.225   9.075
  433POPC   C1A 8319  31.985   4.222   8.672
  433POPC   D2A 8320  32.195   4.157   8.295
  433POPC   C3A 8321  32.022   4.353   7.916
  433POPC   C4A 8322  32.036   4.292   7.438
  433POPC   C1B 8323  32.488   4.333   8.697
  433POPC   C2B 8324  32.691   4.328   8.319
  433POPC   C3B 8325  32.528   4.264   7.901
  433POPC   C4B 8326  32.699   4.292   7.511
  434POPC   NC3 8327  36.260  44.029   9.582
  434POPC   PO4 8328  35.971  43.560   9.192
  434POPC   GL1 8329  36.048  43.996   9.122
  434POPC   GL2 8330  36.398  44.052   9.108
  434POPC   C1A 8331  36.098  44.149   8.714
  434POPC   D2A 8332  36.069  43.805   8.451
  434POPC   C3A 8333  35.939  43.980   8.134
  434POPC   C4A 8334  35.905  44.045   7.735
  434POPC   C1B 8335  36.500  43.857   8.722
  434POPC   C2B 8336  36.461  44.180   8.352
  434POPC   C3B 8337  36.381  44.186   7.933
  434POPC   C4B 8338  36.322  43.743   7.876
  435POPC   NC3 8339  12.726  29.453   9.490
  435POPC   PO4 8340  13.051  28.950   9.658
  435POPC   GL1 8341  12.991  29.088   9.231
  435POPC   GL2 8342  13.136  28.757   9.156
  435POPC   C1A 8343  12.830  29.345   8.831
  435POPC   D2A 8344  12.728  29.573   8.410
  435POPC   C3A 8345  12.876  29.379   8.012
  435POPC   C4A 8346  12.613  29.273   7.640
  435POPC   C1B 8347  12.787  28.830   8.849
  435POPC   C2B 8348  12.671  29.026   8.440
  435POPC   C3B 8349  12.724  28.897   8.016
  435POPC   C4B 8350  13.032  28.963   7.679
  436POPC   NC3 8351  29.853  39.584   9.479
  436POPC   PO4 8352  29.812  38.906   9.404
  436POPC   GL1 8353  29.638  39.219   9.146
  436POPC   GL2 8354  29.582  39.019   8.873
  436POPC   C1A 8355  29.750  39.511   8.839
  436POPC   D2A 8356  29.733  39.571   8.419
  436POPC   C3A 8357  29.780  39.257   8.106
  436POPC   C4A 8358  29.991  39.444   7.754
  436POPC   C1B 8359  29.935  39.098   8.575
  436POPC   C2B 8360  30.254  39.077   8.222
  436POPC   C3B 8361  30.344  39.072   7.754
  436POPC   C4B 8362  30.275  38.857   7.349
  437POPC   NC3 8363   5.377  12.700   9.292
  437POPC   PO4 8364   5.901  12.621   9.762
  437POPC   GL1 8365   5.893  12.609   9.264
  437POPC   GL2 8366   5.903  12.920   9.162
  437POPC   C1A 8367   5.721  12.641   8.763
  437POPC   D2A 8368   5.860  12.457   8.363
  437POPC   C3A 8369   5.792  12.680   7.973
  437POPC   C4A 8370   5.889  12.938   7.592
  437POPC   C1B 8371   5.795  13.141   8.787
  437POPC   C2B 8372   5.644  13.113   8.319
  437POPC   C3B 8373   5.691  13.294   7.890
  437POPC   C4B 8374   5.572  13.297   7.440
  438POPC   NC3 8375   8.596   4.840   9.461
  438POPC   PO4 8376   8.123   5.371   9.528
  438POPC   GL1 8377   8.189   5.074   9.198
  438POPC   GL2 8378   8.496   5.115   9.008
  438POPC   C1A 8379   7.976   5.077   8.801
  438POPC   D2A 8380   8.167   5.048   8.426
  438POPC   C3A 8381   7.942   5.108   8.056
  438POPC   C4A 8382   8.004   5.361   7.683
  438POPC   C1B 8383   8.321   4.717   8.819
  438POPC   C2B 8384   8.304   4.549   8.395
  438POPC   C3B 8385   8.194   4.670   8.007
  438POPC   C4B 8386   8.351   4.999   7.768
  439POPC   NC3 8387  31.819  36.879   9.491
  439POPC   PO4 8388  31.285  36.629   9.536
  439POPC   GL1 8389  31.417  36.878   9.149
  439POPC   GL2 8390  31.698  37.135   9.073
  439POPC   C1A 8391  31.383  36.992   8.710
  439POPC   D2A 8392  31.553  36.790   8.367
  439POPC   C3A 8393  31.301  36.856   8.056
  439POPC   C4A 8394  31.216  36.643   7.724
  439POPC   C1B 8395  31.861  36.854   8.776
  439POPC   C2B 8396  32.034  36.981   8.351
  439POPC   C3B 8397  31.846  37.077   7.974
  439POPC   C4B 8398  31.728  36.756   7.755
  440POPC   NC3 8399  38.980   5.484   9.623
  440POPC   PO4 8400  39.052   4.840   9.518
  440POPC   GL1 8401  38.972   5.081   9.187
  440POPC   GL2 8402  39.195   5.337   9.175
  440POPC   C1A 8403  39.183   5.009   8.780
  440POPC   D2A 8404  39.545   4.951   8.507
  440POPC   C3A 8405  39.396   4.997   8.093
  440POPC   C4A 8406  39.061   4.916   7.817
  440POPC   C1B 8407  38.954   5.482   8.837
  440POPC   C2B 8408  39.032   5.328   8.398
  440POPC   C3B 8409  39.143   5.419   7.963
  440POPC   C4B 8410  39.437   5.270   7.643
  441POPC   NC3 8411  15.710  27.060   9.775
  441POPC   PO4 8412  16.178  26.757   9.469
  441POPC   GL1 8413  15.995  26.893   9.129
  441POPC   GL2 8414  15.660  26.837   9.184
  441POPC   C1A 8415  16.142  27.035   8.732
  441POPC   D2A 8416  16.102  27.248   8.328
  441POPC   C3A 8417  16.148  26.962   7.957
  441POPC   C4A 8418  16.014  27.008   7.499
  441POPC   C1B 8419  15.742  26.606   8.792
  441POPC   C2B 8420  15.887  26.764   8.389
  441POPC   C3B 8421  15.670  27.041   8.116
  441POPC   C4B 8422  15.658  26.726   7.854
  442POPC   NC3 8423   4.924  11.849   9.486
  442POPC   PO4 8424   4.993  12.543   9.519
  442POPC   GL1 8425   5.107  12.273   9.148
  442POPC   GL2 8426   5.299  11.966   9.136
  442POPC   C1A 8427   4.990  12.055   8.727
  442POPC   D2A 8428   4.921  12.231   8.333
  442POPC   C3A 8429   5.018  11.939   8.003
  442POPC   C4A 8430   5.138  12.070   7.585
  442POPC   C1B 8431   5.482  12.179   8.769
  442POPC   C2B 8432   5.558  12.045   8.365
  442POPC   C3B 8433   5.533  12.068   7.927
  442POPC   C4B 8434   5.430  11.659   7.775
  443POPC   NC3 8435  36.353  18.150   9.504
  443POPC   PO4 8436  35.708  18.086   9.241
  443POPC   GL1 8437  35.959  18.423   9.104
  443POPC   GL2 8438  36.291  18.322   9.034
  443POPC   C1A 8439  35.974  18.458   8.654
  443POPC   D2A 8440  35.871  18.167   8.316
  443POPC   C3A 8441  36.184  18.053   7.999
  443POPC   C4A 8442  36.216  18.153   7.555
  443POPC   C1B 8443  36.477  18.575   8.711
  443POPC   C2B 8444  36.354  18.501   8.285
  443POPC   C3B 8445  36.416  18.510   7.851
  443POPC   C4B 8446  36.435  18.570   7.387
  444POPC   NC3 8447  23.972   7.205   9.507
  444POPC   PO4 8448  23.410   7.453   9.224
  444POPC   GL1 8449  23.790   7.547   9.020
  444POPC   GL2 8450  23.878   7.194   9.013
  444POPC   C1A 8451  23.857   7.810   8.638
  444POPC   D2A 8452  23.500   7.728   8.325
  444POPC   C3A 8453  23.602   7.679   7.868
  444POPC   C4A 8454  23.751   7.603   7.448
  444POPC   C1B 8455  23.849   7.297   8.594
  444POPC   C2B 8456  23.967   7.472   8.244
  444POPC   C3B 8457  23.916   7.268   7.876
  444POPC   C4B 8458  23.609   7.121   7.599
  445POPC   NC3 8459  16.337  20.072   9.477
  445POPC   PO4 8460  15.888  19.542   9.523
  445POPC   GL1 8461  16.031  19.768   9.159
  445POPC   GL2 8462  15.940  20.103   9.155
  445POPC   C1A 8463  16.126  19.829   8.709
  445POPC   D2A 8464  16.000  19.807   8.285
  445POPC   C3A 8465  16.250  19.758   7.951
  445POPC   C4A 8466  16.084  19.708   7.569
  445POPC   C1B 8467  15.800  20.243   8.755
  445POPC   C2B 8468  15.681  20.207   8.313
  445POPC   C3B 8469  15.741  20.069   7.849
  445POPC   C4B 8470  15.743  20.047   7.384
  446POPC   NC3 8471  27.323  30.546   9.360
  446POPC   PO4 8472  27.925  30.828   9.421
  446POPC   GL1 8473  27.729  30.708   9.048
  446POPC   GL2 8474  27.485  30.974   9.046
  446POPC   C1A 8475  27.709  30.848   8.605
  446POPC   D2A 8476  27.907  31.163   8.326
  446POPC   C3A 8477  27.790  31.030   7.904
  446POPC   C4A 8478  27.804  30.572   7.874
  446POPC   C1B 8479  27.189  30.975   8.740
  446POPC   C2B 8480  27.196  30.694   8.390
  446POPC   C3B 8481  27.337  30.744   7.965
  446POPC   C4B 8482  27.370  30.499   7.604
  447POPC   NC3 8483  42.886   1.468   9.491
  447POPC   PO4 8484  43.366   1.171   9.342
  447POPC   GL1 8485  43.097   1.340   9.058
  447POPC   GL2 8486  43.115   1.683   9.084
  447POPC   C1A 8487  42.877   1.197   8.728
  447POPC   D2A 8488  43.038   1.061   8.373
  447POPC   C3A 8489  42.820   1.169   8.009
  447POPC   C4A 8490  42.938   1.083   7.630
  447POPC   C1B 8491  43.224   1.561   8.631
  447POPC   C2B 8492  43.124   1.541   8.186
  447POPC   C3B 8493  43.058   1.554   7.740
  447POPC   C4B 8494  43.116   1.418   7.268
  448POPC   NC3 8495  20.664  36.239   9.655
  448POPC   PO4 8496  20.222  35.909   9.352
  448POPC   GL1 8497  20.632  36.052   9.182
  448POPC   GL2 8498  20.642  36.380   9.127
  448POPC   C1A 8499  20.919  36.104   8.816
  448POPC   D2A 8500  20.906  36.348   8.458
  448POPC   C3A 8501  20.744  36.068   8.163
  448POPC   C4A 8502  20.659  36.134   7.756
  448POPC   C1B 8503  20.393  36.188   8.752
  448POPC   C2B 8504  20.240  36.162   8.321
  448POPC   C3B 8505  20.202  36.348   7.887
  448POPC   C4B 8506  20.213  36.074   7.517
  449POPC   NC3 8507  19.396  21.802   9.638
  449POPC   PO4 8508  18.870  21.471   9.450
  449POPC   GL1 8509  19.079  21.463   9.090
  449POPC   GL2 8510  19.382  21.621   9.147
  449POPC   C1A 8511  19.113  21.313   8.702
  449POPC   D2A 8512  18.903  21.549   8.444
  449POPC   C3A 8513  18.971  21.430   8.063
  449POPC   C4A 8514  18.797  21.639   7.750
  449POPC   C1B 8515  19.343  21.775   8.717
  449POPC   C2B 8516  19.395  21.630   8.274
  449POPC   C3B 8517  19.298  21.727   7.811
  449POPC   C4B 8518  19.303  21.772   7.324
  450POPC   NC3 8519  35.721  37.335   9.394
  450POPC   PO4 8520  35.818  36.631   9.490
  450POPC   GL1 8521  35.648  36.737   9.111
  450POPC   GL2 8522  35.906  36.966   9.074
  450POPC   C1A 8523  35.300  36.881   8.838
  450POPC   D2A 8524  35.280  37.166   8.484
  450POPC   C3A 8525  35.235  36.929   8.122
  450POPC   C4A 8526  35.063  36.679   7.812
  450POPC   C1B 8527  35.759  37.017   8.671
  450POPC   C2B 8528  35.691  36.751   8.318
  450POPC   C3B 8529  35.648  36.747   7.863
  450POPC   C4B 8530  35.793  36.978   7.488
  451POPC   NC3 8531  32.791  10.217   9.537
  451POPC   PO4 8532  33.298   9.797   9.558
  451POPC   GL1 8533  33.077   9.956   9.197
  451POPC   GL2 8534  32.902   9.657   9.192
  451POPC   C1A 8535  32.797   9.945   8.793
  451POPC   D2A 8536  33.038  10.083   8.445
  451POPC   C3A 8537  32.904   9.977   8.059
  451POPC   C4A 8538  32.866   9.639   7.830
  451POPC   C1B 8539  33.197   9.658   8.805
  451POPC   C2B 8540  33.071   9.556   8.386
  451POPC   C3B 8541  33.205   9.315   8.047
  451POPC   C4B 8542  33.236   9.399   7.602
  452POPC   NC3 8543  39.205  20.333   9.448
  452POPC   PO4 8544  39.214  20.997   9.553
  452POPC   GL1 8545  39.314  20.772   9.184
  452POPC   GL2 8546  39.046  20.620   9.025
  452POPC   C1A 8547  39.499  20.629   8.809
  452POPC   D2A 8548  39.219  20.567   8.514
  452POPC   C3A 8549  39.337  20.643   8.130
  452POPC   C4A 8550  39.321  20.636   7.713
  452POPC   C1B 8551  38.909  20.929   8.721
  452POPC   C2B 8552  39.047  21.034   8.279
  452POPC   C3B 8553  39.077  21.068   7.802
  452POPC   C4B 8554  38.928  21.121   7.321
  453POPC   NC3 8555  39.395  10.103   9.743
  453POPC   PO4 8556  39.317   9.526   9.584
  453POPC   GL1 8557  39.421   9.633   9.182
  453POPC   GL2 8558  39.646   9.893   9.189
  453POPC   C1A 8559  39.488   9.570   8.759
  453POPC   D2A 8560  39.356   9.751   8.356
  453POPC   C3A 8561  39.495   9.510   7.984
  453POPC   C4A 8562  39.336   9.521   7.544
  453POPC   C1B 8563  39.570  10.085   8.771
  453POPC   C2B 8564  39.710  10.117   8.332
  453POPC   C3B 8565  39.511  10.021   7.913
  453POPC   C4B 8566  39.428  10.029   7.442
  454POPC   NC3 8567  44.677  30.716   9.464
  454POPC   PO4 8568   0.055  31.350   9.341
  454POPC   GL1 8569  44.888  30.997   9.083
  454POPC   GL2 8570  44.917  30.593   9.033
  454POPC   C1A 8571  44.782  30.907   8.669
  454POPC   D2A 8572   0.022  30.701   8.409
  454POPC   C3A 8573  44.803  30.814   8.044
  454POPC   C4A 8574  44.761  30.842   7.604
  454POPC   C1B 8575  44.538  30.464   8.794
  454POPC   C2B 8576  44.645  30.383   8.368
  454POPC   C3B 8577  44.767  30.323   7.948
  454POPC   C4B 8578  44.483  30.376   7.603
  455POPC   NC3 8579   2.181  16.779   9.431
  455POPC   PO4 8580   1.740  16.392   9.401
  455POPC   GL1 8581   2.002  16.468   9.067
  455POPC   GL2 8582   2.046  16.843   8.938
  455POPC   C1A 8583   2.102  16.398   8.678
  455POPC   D2A 8584   2.074  16.671   8.358
  455POPC   C3A 8585   2.066  16.414   8.048
  455POPC   C4A 8586   1.938  16.475   7.655
  455POPC   C1B 8587   2.331  17.034   8.614
  455POPC   C2B 8588   2.508  16.919   8.237
  455POPC   C3B 8589   2.260  16.861   7.861
  455POPC   C4B 8590   2.303  16.784   7.431
  456POPC   NC3 8591  12.163  34.892   9.678
  456POPC   PO4 8592  11.849  34.354   9.422
  456POPC   GL1 8593  12.021  34.491   9.076
  456POPC   GL2 8594  12.211  34.710   9.212
  456POPC   C1A 8595  12.150  34.331   8.696
  456POPC   D2A 8596  12.261  34.169   8.304
  456POPC   C3A 8597  12.112  34.506   8.056
  456POPC   C4A 8598  12.041  34.458   7.625
  456POPC   C1B 8599  12.380  34.830   8.818
  456POPC   C2B 8600  12.255  35.008   8.409
  456POPC   C3B 8601  12.458  34.990   8.009
  456POPC   C4B 8602  12.416  34.819   7.616
  457POPC   NC3 8603  21.681  41.313   9.474
  457POPC   PO4 8604  21.333  41.894   9.509
  457POPC   GL1 8605  21.375  41.650   9.130
  457POPC   GL2 8606  21.352  41.286   9.077
  457POPC   C1A 8607  21.204  41.718   8.711
  457POPC   D2A 8608  21.265  41.961   8.351
  457POPC   C3A 8609  21.136  41.923   7.943
  457POPC   C4A 8610  21.355  41.774   7.581
  457POPC   C1B 8611  21.507  41.289   8.678
  457POPC   C2B 8612  21.631  41.598   8.438
  457POPC   C3B 8613  21.490  41.584   8.060
  457POPC   C4B 8614  21.298  41.235   7.871
  458POPC   NC3 8615  34.626  38.121   9.645
  458POPC   PO4 8616  34.617  38.802   9.690
  458POPC   GL1 8617  34.613  38.836   9.250
  458POPC   GL2 8618  34.384  38.534   9.180
  458POPC   C1A 8619  34.663  38.741   8.809
  458POPC   D2A 8620  34.429  38.492   8.507
  458POPC   C3A 8621  34.525  38.578   8.102
  458POPC   C4A 8622  34.338  38.694   7.705
  458POPC   C1B 8623  34.412  38.145   8.903
  458POPC   C2B 8624  34.660  37.958   8.555
  458POPC   C3B 8625  34.600  38.043   8.101
  458POPC   C4B 8626  34.365  38.208   7.758
  459POPC   NC3 8627   4.485  21.967   9.713
  459POPC   PO4 8628   4.640  21.317   9.676
  459POPC   GL1 8629   4.524  21.302   9.216
  459POPC   GL2 8630   4.155  21.321   9.109
  459POPC   C1A 8631   4.552  21.427   8.776
  459POPC   D2A 8632   4.322  21.437   8.366
  459POPC   C3A 8633   4.517  21.419   7.963
  459POPC   C4A 8634   4.392  21.491   7.516
  459POPC   C1B 8635   4.148  21.088   8.688
  459POPC   C2B 8636   4.051  21.029   8.221
  459POPC   C3B 8637   4.041  21.263   7.808
  459POPC   C4B 8638   3.907  21.600   7.474
  460POPC   NC3 8639  17.264   5.855   9.413
  460POPC   PO4 8640  17.905   6.114   9.361
  460POPC   GL1 8641  17.658   5.932   9.097
  460POPC   GL2 8642  17.438   6.251   9.106
  460POPC   C1A 8643  17.647   5.670   8.715
  460POPC   D2A 8644  17.840   5.601   8.308
  460POPC   C3A 8645  17.576   5.607   7.945
  460POPC   C4A 8646  17.728   6.000   7.806
  460POPC   C1B 8647  17.610   6.187   8.683
  460POPC   C2B 8648  17.470   6.003   8.315
  460POPC   C3B 8649  17.238   6.017   7.953
  460POPC   C4B 8650  17.298   6.145   7.573
  461POPC   NC3 8651   5.498  29.859   9.462
  461POPC   PO4 8652   6.059  30.303   9.394
  461POPC   GL1 8653   6.194  30.127   9.034
  461POPC   GL2 8654   6.058  29.795   9.091
  461POPC   C1A 8655   5.974  30.112   8.691
  461POPC   D2A 8656   5.603  30.098   8.452
  461POPC   C3A 8657   5.924  30.085   8.152
  461POPC   C4A 8658   5.939  30.054   7.739
  461POPC   C1B 8659   5.696  29.691   8.819
  461POPC   C2B 8660   5.761  29.612   8.386
  461POPC   C3B 8661   5.569  29.765   8.007
  461POPC   C4B 8662   5.635  29.676   7.566
  462POPC   NC3 8663  17.986  11.530   9.487
  462POPC   PO4 8664  18.672  11.248   9.428
  462POPC   GL1 8665  18.413  11.333   9.085
  462POPC   GL2 8666  18.075  11.178   9.111
  462POPC   C1A 8667  18.328  11.219   8.644
  462POPC   D2A 8668  18.483  11.404   8.281
  462POPC   C3A 8669  18.341  11.139   7.991
  462POPC   C4A 8670  18.262  11.109   7.571
  462POPC   C1B 8671  18.028  11.581   8.845
  462POPC   C2B 8672  17.983  11.664   8.405
  462POPC   C3B 8673  18.085  11.580   7.976
  462POPC   C4B 8674  17.994  11.533   7.535
  463POPC   NC3 8675  29.327  24.260   9.899
  463POPC   PO4 8676  28.881  24.595   9.531
  463POPC   GL1 8677  29.097  24.330   9.227
  463POPC   GL2 8678  29.485  24.236   9.257
  463POPC   C1A 8679  28.931  24.440   8.806
  463POPC   D2A 8680  28.785  24.653   8.437
  463POPC   C3A 8681  28.948  24.498   8.020
  463POPC   C4A 8682  29.295  24.631   7.781
  463POPC   C1B 8683  29.325  24.117   8.816
  463POPC   C2B 8684  29.165  24.243   8.384
  463POPC   C3B 8685  29.299  24.101   7.935
  463POPC   C4B 8686  29.478  24.137   7.489
  464POPC   NC3 8687   0.633  42.406   9.545
  464POPC   PO4 8688   0.025  42.125   9.440
  464POPC   GL1 8689   0.339  42.328   9.132
  464POPC   GL2 8690   0.718  42.209   9.065
  464POPC   C1A 8691   0.476  42.570   8.780
  464POPC   D2A 8692   0.372  42.470   8.389
  464POPC   C3A 8693   0.559  42.491   8.019
  464POPC   C4A 8694   0.340  42.688   7.721
  464POPC   C1B 8695   0.502  42.060   8.663
  464POPC   C2B 8696   0.503  42.007   8.177
  464POPC   C3B 8697   0.707  42.086   7.726
  464POPC   C4B 8698   0.765  41.940   7.279
  465POPC   NC3 8699  40.914  39.949   9.391
  465POPC   PO4 8700  40.181  40.107   9.399
  465POPC   GL1 8701  40.469  40.063   9.115
  465POPC   GL2 8702  40.697  40.325   9.125
  465POPC   C1A 8703  40.592  40.025   8.712
  465POPC   D2A 8704  40.585  39.676   8.483
  465POPC   C3A 8705  40.590  39.808   8.088
  465POPC   C4A 8706  40.881  39.913   7.800
  465POPC   C1B 8707  41.012  40.329   8.792
  465POPC   C2B 8708  40.988  40.132   8.374
  465POPC   C3B 8709  40.993  40.373   8.034
  465POPC   C4B 8710  40.631  40.357   7.818
  466POPC   NC3 8711  36.992  18.730   9.313
  466POPC   PO4 8712  36.700  18.223   9.799
  466POPC   GL1 8713  36.752  18.153   9.203
  466POPC   GL2 8714  37.004  18.332   8.999
  466POPC   C1A 8715  36.653  18.093   8.748
  466POPC   D2A 8716  36.823  18.322   8.384
  466POPC   C3A 8717  36.758  18.086   8.002
  466POPC   C4A 8718  36.753  18.206   7.557
  466POPC   C1B 8719  37.220  18.110   8.653
  466POPC   C2B 8720  37.260  18.121   8.182
  466POPC   C3B 8721  37.250  18.219   7.742
  466POPC   C4B 8722  37.284  18.048   7.350
  467POPC   NC3 8723  10.465  41.273   9.696
  467POPC   PO4 8724  10.236  41.863   9.494
  467POPC   GL1 8725  10.351  41.612   9.149
  467POPC   GL2 8726  10.652  41.609   9.020
  467POPC   C1A 8727  10.274  41.730   8.714
  467POPC   D2A 8728  10.398  41.947   8.376
  467POPC   C3A 8729  10.322  41.596   8.138
  467POPC   C4A 8730  10.292  41.456   7.687
  467POPC   C1B 8731  10.831  41.737   8.671
  467POPC   C2B 8732  10.809  41.639   8.265
  467POPC   C3B 8733  10.726  41.372   7.929
  467POPC   C4B 8734  10.818  41.583   7.539
  468POPC   NC3 8735   9.481   5.375   9.611
  468POPC   PO4 8736   9.700   4.745   9.554
  468POPC   GL1 8737   9.738   5.042   9.210
  468POPC   GL2 8738  10.068   5.185   9.178
  468POPC   C1A 8739   9.665   5.253   8.801
  468POPC   D2A 8740   9.580   5.152   8.374
  468POPC   C3A 8741   9.866   5.286   8.070
  468POPC   C4A 8742   9.681   5.353   7.687
  468POPC   C1B 8743  10.046   4.909   8.787
  468POPC   C2B 8744   9.860   4.736   8.393
  468POPC   C3B 8745  10.034   4.715   7.966
  468POPC   C4B 8746  10.027   4.979   7.618
  469POPC   NC3 8747  30.667  35.325   9.466
  469POPC   PO4 8748  31.099  35.882   9.682
  469POPC   GL1 8749  30.941  35.743   9.239
  469POPC   GL2 8750  30.554  35.687   9.107
  469POPC   C1A 8751  30.952  35.562   8.824
  469POPC   D2A 8752  30.646  35.684   8.517
  469POPC   C3A 8753  30.635  35.449   8.169
  469POPC   C4A 8754  30.820  35.365   7.828
  469POPC   C1B 8755  30.519  35.288   8.816
  469POPC   C2B 8756  30.432  34.980   8.453
  469POPC   C3B 8757  30.344  35.068   7.988
  469POPC   C4B 8758  30.341  35.441   7.689
  470POPC   NC3 8759  39.279  34.291   9.545
  470POPC   PO4 8760  39.155  34.936   9.682
  470POPC   GL1 8761  39.229  34.798   9.215
  470POPC   GL2 8762  39.388  34.465   9.079
  470POPC   C1A 8763  38.979  34.679   8.831
  470POPC   D2A 8764  38.927  34.841   8.406
  470POPC   C3A 8765  38.887  34.567   8.081
  470POPC   C4A 8766  39.060  34.547   7.682
  470POPC   C1B 8767  39.509  34.732   8.723
  470POPC   C2B 8768  39.419  34.702   8.274
  470POPC   C3B 8769  39.338  34.320   8.067
  470POPC   C4B 8770  39.427  34.036   7.771
  471POPC   NC3 8771  39.502  42.452   9.417
  471POPC   PO4 8772  38.944  42.028   9.581
  471POPC   GL1 8773  39.046  42.306   9.198
  471POPC   GL2 8774  39.082  42.015   9.046
  471POPC   C1A 8775  39.210  42.407   8.749
  471POPC   D2A 8776  39.096  42.542   8.323
  471POPC   C3A 8777  39.351  42.545   7.934
  471POPC   C4A 8778  39.303  42.283   7.526
  471POPC   C1B 8779  39.200  41.867   8.638
  471POPC   C2B 8780  39.212  42.019   8.212
  471POPC   C3B 8781  39.431  41.892   7.849
  471POPC   C4B 8782  39.727  41.995   7.527
  472POPC   NC3 8783   8.614   5.643   9.500
  472POPC   PO4 8784   8.958   6.219   9.385
  472POPC   GL1 8785   8.773   5.909   9.081
  472POPC   GL2 8786   8.841   5.524   9.054
  472POPC   C1A 8787   8.983   5.892   8.681
  472POPC   D2A 8788   9.362   6.053   8.427
  472POPC   C3A 8789   9.199   6.113   7.983
  472POPC   C4A 8790   8.793   6.113   7.725
  472POPC   C1B 8791   8.712   5.445   8.624
  472POPC   C2B 8792   8.814   5.695   8.226
  472POPC   C3B 8793   8.993   5.631   7.808
  472POPC   C4B 8794   9.104   5.535   7.318
  473POPC   NC3 8795  25.608  38.829   9.531
  473POPC   PO4 8796  25.326  38.202   9.435
  473POPC   GL1 8797  25.412  38.518   9.167
  473POPC   GL2 8798  25.075  38.600   9.177
  473POPC   C1A 8799  25.584  38.512   8.761
  473POPC   D2A 8800  25.482  38.159   8.464
  473POPC   C3A 8801  25.262  38.279   8.078
  473POPC   C4A 8802  25.440  38.210   7.677
  473POPC   C1B 8803  25.094  38.324   8.787
  473POPC   C2B 8804  24.854  38.354   8.406
  473POPC   C3B 8805  24.742  38.196   8.032
  473POPC   C4B 8806  24.948  38.307   7.642
  474POPC   NC3 8807  22.772  33.189   9.900
  474POPC   PO4 8808  23.326  32.872   9.469
  474POPC   GL1 8809  23.120  32.940   9.076
  474POPC   GL2 8810  23.173  33.248   8.946
  474POPC   C1A 8811  22.813  32.976   8.709
  474POPC   D2A 8812  22.671  32.856   8.291
  474POPC   C3A 8813  23.017  32.797   7.968
  474POPC   C4A 8814  23.008  32.681   7.528
  474POPC   C1B 8815  23.249  33.234   8.524
  474POPC   C2B 8816  22.988  33.258   8.189
  474POPC   C3B 8817  23.061  33.245   7.747
  474POPC   C4B 8818  22.752  33.490   7.645
  475POPC   NC3 8819   9.219   2.866   9.462
  475POPC   PO4 8820   9.044   2.306   9.288
  475POPC   GL1 8821   8.802   2.658   9.096
  475POPC   GL2 8822   9.015   2.962   9.015
  475POPC   C1A 8823   8.708   2.753   8.661
  475POPC   D2A 8824   9.037   2.813   8.378
  475POPC   C3A 8825   8.993   2.475   8.137
  475POPC   C4A 8826   9.119   2.494   7.732
  475POPC   C1B 8827   9.362   3.053   8.731
  475POPC   C2B 8828   9.429   3.192   8.330
  475POPC   C3B 8829   9.325   2.980   7.944
  475POPC   C4B 8830   9.138   3.072   7.539
  476POPC   NC3 8831  11.718   4.914   9.705
  476POPC   PO4 8832  12.179   5.191   9.742
  476POPC   GL1 8833  12.012   5.013   9.287
  476POPC   GL2 8834  11.758   4.722   9.229
  476POPC   C1A 8835  11.925   5.108   8.807
  476POPC   D2A 8836  11.830   5.286   8.362
  476POPC   C3A 8837  12.035   5.249   7.905
  476POPC   C4A 8838  12.281   5.134   7.513
  476POPC   C1B 8839  11.913   4.579   8.809
  476POPC   C2B 8840  11.927   4.447   8.353
  476POPC   C3B 8841  12.070   4.709   7.992
  476POPC   C4B 8842  12.135   4.643   7.557
  477POPC   NC3 8843  33.711   9.912   9.334
  477POPC   PO4 8844  33.831  10.586   9.321
  477POPC   GL1 8845  33.807  10.402   8.993
  477POPC   GL2 8846  33.494  10.217   9.003
  477POPC   C1A 8847  33.845  10.703   8.683
  477POPC   D2A 8848  33.909  10.461   8.373
  477POPC   C3A 8849  33.740  10.683   8.091
  477POPC   C4A 8850  34.079  10.657   7.877
  477POPC   C1B 8851  33.435  10.399   8.605
  477POPC   C2B 8852  33.504  10.193   8.233
  477POPC   C3B 8853  33.779  10.215   7.888
  477POPC   C4B 8854  33.660  10.509   7.576
  478POPC   NC3 8855  17.398  26.568   9.426
  478POPC   PO4 8856  18.036  26.869   9.497
  478POPC   GL1 8857  17.746  26.930   9.150
  478POPC   GL2 8858  17.392  27.028   9.116
  478POPC   C1A 8859  17.617  26.714   8.774
  478POPC   D2A 8860  17.367  26.621   8.395
  478POPC   C3A 8861  17.543  26.664   7.978
  478POPC   C4A 8862  17.895  26.374   7.934
  478POPC   C1B 8863  17.140  26.921   8.756
  478POPC   C2B 8864  16.921  26.867   8.377
  478POPC   C3B 8865  16.996  26.679   7.997
  478POPC   C4B 8866  17.053  26.871   7.625
  479POPC   NC3 8867  16.604  28.748   9.547
  479POPC   PO4 8868  16.325  29.238   9.486
  479POPC   GL1 8869  16.733  29.199   9.223
  479POPC   GL2 8870  16.888  28.856   9.141
  479POPC   C1A 8871  16.843  29.232   8.781
  479POPC   D2A 8872  16.906  29.363   8.358
  479POPC   C3A 8873  16.746  29.158   7.989
  479POPC   C4A 8874  16.971  29.188   7.596
  479POPC   C1B 8875  16.558  28.820   8.839
  479POPC   C2B 8876  16.626  28.891   8.423
  479POPC   C3B 8877  16.861  28.652   8.131
  479POPC   C4B 8878  16.799  28.711   7.713
  480POPC   NC3 8879  20.201  26.865   9.416
  480POPC   PO4 8880  19.662  27.230   9.430
  480POPC   GL1 8881  19.575  27.054   8.985
  480POPC   GL2 8882  19.517  26.672   8.963
  480POPC   C1A 8883  19.587  27.278   8.570
  480POPC   D2A 8884  19.711  27.439   8.167
  480POPC   C3A 8885  19.752  27.130   7.864
  480POPC   C4A 8886  20.109  26.881   7.733
  480POPC   C1B 8887  19.872  26.755   8.696
  480POPC   C2B 8888  20.002  26.565   8.335
  480POPC   C3B 8889  19.826  26.545   7.957
  480POPC   C4B 8890  19.527  26.708   7.687
  481POPC   NC3 8891  18.792  38.723   9.463
  481POPC   PO4 8892  18.085  38.627   9.467
  481POPC   GL1 8893  18.252  38.557   9.126
  481POPC   GL2 8894  18.524  38.311   9.238
  481POPC   C1A 8895  18.055  38.429   8.748
  481POPC   D2A 8896  18.258  38.532   8.408
  481POPC   C3A 8897  18.168  38.416   8.014
  481POPC   C4A 8898  18.324  38.743   7.770
  481POPC   C1B 8899  18.565  38.358   8.799
  481POPC   C2B 8900  18.703  38.263   8.435
  481POPC   C3B 8901  18.673  38.529   8.102
  481POPC   C4B 8902  18.724  38.423   7.721
  482POPC   NC3 8903  15.958   7.030   9.591
  482POPC   PO4 8904  16.214   6.408   9.662
  482POPC   GL1 8905  15.978   6.601   9.250
  482POPC   GL2 8906  16.072   6.887   9.005
  482POPC   C1A 8907  15.842   6.540   8.759
  482POPC   D2A 8908  16.086   6.740   8.398
  482POPC   C3A 8909  16.086   6.605   7.918
  482POPC   C4A 8910  15.674   6.559   7.658
  482POPC   C1B 8911  16.230   7.182   8.673
  482POPC   C2B 8912  16.280   7.245   8.221
  482POPC   C3B 8913  16.364   7.076   7.806
  482POPC   C4B 8914  16.271   6.826   7.438
  483POPC   NC3 8915   4.336  35.534   9.449
  483POPC   PO4 8916   3.969  35.206   9.069
  483POPC   GL1 8917   4.080  35.640   9.003
  483POPC   GL2 8918   4.462  35.550   8.951
  483POPC   C1A 8919   3.932  35.684   8.597
  483POPC   D2A 8920   4.278  35.418   8.470
  483POPC   C3A 8921   4.398  35.396   8.061
  483POPC   C4A 8922   4.210  35.411   7.663
  483POPC   C1B 8923   4.714  35.203   8.741
  483POPC   C2B 8924   4.776  35.072   8.296
  483POPC   C3B 8925   4.585  34.960   7.895
  483POPC   C4B 8926   4.493  35.002   7.462
  484POPC   NC3 8927  43.884  17.788   9.742
  484POPC   PO4 8928  44.113  18.488   9.571
  484POPC   GL1 8929  44.176  18.250   9.200
  484POPC   GL2 8930  43.827  18.238   9.076
  484POPC   C1A 8931  44.210  18.385   8.770
  484POPC   D2A 8932  43.997  18.514   8.378
  484POPC   C3A 8933  43.907  18.153   8.107
  484POPC   C4A 8934  44.118  18.007   7.762
  484POPC   C1B 8935  43.771  18.099   8.634
  484POPC   C2B 8936  43.530  17.875   8.306
  484POPC   C3B 8937  43.402  18.017   7.906
  484POPC   C4B 8938  43.693  18.204   7.584
  485POPC   NC3 8939   0.938  26.206   9.565
  485POPC   PO4 8940   1.081  25.511   9.494
  485POPC   GL1 8941   1.080  25.811   9.198
  485POPC   GL2 8942   0.795  26.001   9.115
  485POPC   C1A 8943   1.304  25.940   8.842
  485POPC   D2A 8944   1.488  26.026   8.449
  485POPC   C3A 8945   1.264  26.004   8.085
  485POPC   C4A 8946   1.381  25.922   7.693
  485POPC   C1B 8947   0.820  25.772   8.757
  485POPC   C2B 8948   1.019  25.680   8.380
  485POPC   C3B 8949   0.861  25.702   7.935
  485POPC   C4B 8950   0.913  25.803   7.491
  486POPC   NC3 8951   0.635   9.909   9.719
  486POPC   PO4 8952   1.326   9.802   9.457
  486POPC   GL1 8953   1.178   9.670   9.094
  486POPC   GL2 8954   0.833   9.710   9.163
  486POPC   C1A 8955   1.316   9.617   8.670
  486POPC   D2A 8956   1.205   9.791   8.293
  486POPC   C3A 8957   1.257   9.549   7.974
  486POPC   C4A 8958   0.888   9.510   7.812
  486POPC   C1B 8959   0.883   9.912   8.726
  486POPC   C2B 8960   0.724  10.069   8.327
  486POPC   C3B 8961   0.920  10.018   7.923
  486POPC   C4B 8962   0.914   9.877   7.476
  487POPC   NC3 8963  11.917  30.248   9.627
  487POPC   PO4 8964  12.448  29.825   9.469
  487POPC   GL1 8965  12.280  30.031   9.099
  487POPC   GL2 8966  12.484  30.322   9.039
  487POPC   C1A 8967  12.094  29.921   8.684
  487POPC   D2A 8968  12.247  29.732   8.294
  487POPC   C3A 8969  12.025  29.625   7.885
  487POPC   C4A 8970  12.266  29.632   7.474
  487POPC   C1B 8971  12.228  30.428   8.696
  487POPC   C2B 8972  12.213  30.246   8.302
  487POPC   C3B 8973  12.193  30.103   7.905
  487POPC   C4B 8974  11.859  30.082   7.638
  488POPC   NC3 8975  28.316  30.528   9.472
  488POPC   PO4 8976  28.888  31.073   9.532
  488POPC   GL1 8977  28.465  30.992   9.262
  488POPC   GL2 8978  28.493  30.697   9.037
  488POPC   C1A 8979  28.157  31.000   8.848
  488POPC   D2A 8980  28.215  30.734   8.494
  488POPC   C3A 8981  28.253  30.842   8.062
  488POPC   C4A 8982  28.215  30.696   7.627
  488POPC   C1B 8983  28.577  30.429   8.708
  488POPC   C2B 8984  28.648  30.538   8.283
  488POPC   C3B 8985  28.614  30.513   7.854
  488POPC   C4B 8986  28.744  30.211   7.565
  489POPC   NC3 8987  13.760  42.287   9.577
  489POPC   PO4 8988  13.467  41.710   9.662
  489POPC   GL1 8989  13.542  41.996   9.200
  489POPC   GL2 8990  13.531  42.360   9.125
  489POPC   C1A 8991  13.718  42.047   8.772
  489POPC   D2A 8992  13.522  42.267   8.422
  489POPC   C3A 8993  13.657  42.161   8.018
  489POPC   C4A 8994  13.376  42.154   7.693
  489POPC   C1B 8995  13.682  42.605   8.770
  489POPC   C2B 8996  13.687  42.763   8.312
  489POPC   C3B 8997  13.503  42.624   7.893
  489POPC   C4B 8998  13.549  42.573   7.421
  490POPC   NC3 8999  38.460  35.449   9.501
  490POPC   PO4 9000  37.958  35.034   9.526
  490POPC   GL1 9001  38.200  35.167   9.126
  490POPC   GL2 9002  38.466  35.378   9.018
  490POPC   C1A 9003  38.138  35.346   8.668
  490POPC   D2A 9004  38.306  35.532   8.293
  490POPC   C3A 9005  38.151  35.300   7.961
  490POPC   C4A 9006  38.238  35.410   7.566
  490POPC   C1B 9007  38.644  35.156   8.689
  490POPC   C2B 9008  38.777  35.317   8.280
  490POPC   C3B 9009  38.687  35.396   7.844
  490POPC   C4B 9010  38.881  35.391   7.419
  491POPC   NC3 9011  40.138  39.611   9.405
  491POPC   PO4 9012  40.074  38.971   9.413
  491POPC   GL1 9013  39.863  39.252   9.090
  491POPC   GL2 9014  39.644  38.988   8.987
  491POPC   C1A 9015  39.697  39.402   8.656
  491POPC   D2A 9016  39.624  39.432   8.172
  491POPC   C3A 9017  39.986  39.362   7.865
  491POPC   C4A 9018  40.150  39.482   7.453
  491POPC   C1B 9019  39.975  38.923   8.711
  491POPC   C2B 9020  39.954  39.066   8.317
  491POPC   C3B 9021  39.726  38.948   7.974
  491POPC   C4B 9022  39.963  38.889   7.639
  492POPC   NC3 9023   2.402  17.779   9.408
  492POPC   PO4 9024   2.687  18.407   9.470
  492POPC   GL1 9025   2.799  18.333   9.072
  492POPC   GL2 9026   2.572  18.596   8.971
  492POPC   C1A 9027   2.880  18.009   8.776
  492POPC   D2A 9028   2.692  17.944   8.396
  492POPC   C3A 9029   2.779  17.828   7.993
  492POPC   C4A 9030   3.029  18.168   7.877
  492POPC   C1B 9031   2.623  18.514   8.571
  492POPC   C2B 9032   2.692  18.406   8.183
  492POPC   C3B 9033   2.800  18.624   7.822
  492POPC   C4B 9034   2.696  18.549   7.382
  493POPC   NC3 9035   6.385  26.806   9.350
  493POPC   PO4 9036   6.999  26.563   9.431
  493POPC   GL1 9037   6.959  26.627   8.997
  493POPC   GL2 9038   6.603  26.678   8.914
  493POPC   C1A 9039   6.926  26.887   8.608
  493POPC   D2A 9040   6.603  26.818   8.282
  493POPC   C3A 9041   6.857  26.873   7.906
  493POPC   C4A 9042   6.851  26.785   7.457
  493POPC   C1B 9043   6.281  26.418   8.787
  493POPC   C2B 9044   6.091  26.515   8.422
  493POPC   C3B 9045   6.255  26.455   8.022
  493POPC   C4B 9046   6.396  26.732   7.735
  494POPC   NC3 9047  36.985   3.950   9.491
  494POPC   PO4 9048  36.798   4.580   9.482
  494POPC   GL1 9049  36.814   4.324   9.120
  494POPC   GL2 9050  37.132   4.254   9.084
  494POPC   C1A 9051  36.737   4.543   8.741
  494POPC   D2A 9052  36.690   4.371   8.329
  494POPC   C3A 9053  36.891   4.600   7.989
  494POPC   C4A 9054  36.902   4.509   7.552
  494POPC   C1B 9055  36.995   4.103   8.660
  494POPC   C2B 9056  37.036   3.943   8.226
  494POPC   C3B 9057  37.098   4.076   7.783
  494POPC   C4B 9058  37.186   4.167   7.319
  495POPC   NC3 9059  12.787  26.160   9.472
  495POPC   PO4 9060  12.507  25.579   9.320
  495POPC   GL1 9061  12.869  25.781   9.056
  495POPC   GL2 9062  13.009  26.144   9.013
  495POPC   C1A 9063  12.992  25.859   8.617
  495POPC   D2A 9064  12.838  25.870   8.223
  495POPC   C3A 9065  12.525  26.139   8.128
  495POPC   C4A 9066  12.610  26.128   7.695
  495POPC   C1B 9067  13.310  26.243   8.627
  495POPC   C2B 9068  13.335  26.092   8.195
  495POPC   C3B 9069  13.189  26.094   7.754
  495POPC   C4B 9070  13.325  26.417   7.428
  496POPC   NC3 9071  18.833   8.488   9.856
  496POPC   PO4 9072  19.280   7.974   9.520
  496POPC   GL1 9073  19.274   8.064   9.109
  496POPC   GL2 9074  18.957   8.294   9.170
  496POPC   C1A 9075  19.303   8.200   8.683
  496POPC   D2A 9076  19.020   8.360   8.358
  496POPC   C3A 9077  19.016   8.316   7.877
  496POPC   C4A 9078  19.315   8.069   7.686
  496POPC   C1B 9079  18.835   7.962   8.902
  496POPC   C2B 9080  18.937   7.857   8.483
  496POPC   C3B 9081  18.726   7.976   8.132
  496POPC   C4B 9082  18.553   7.937   7.746
  497POPC   NC3 9083  19.318  26.929   9.399
  497POPC   PO4 9084  18.899  26.377   9.380
  497POPC   GL1 9085  19.022  26.546   9.025
  497POPC   GL2 9086  19.053  26.892   8.989
  497POPC   C1A 9087  18.827  26.624   8.636
  497POPC   D2A 9088  19.072  26.579   8.309
  497POPC   C3A 9089  18.887  26.762   8.002
  497POPC   C4A 9090  19.027  26.608   7.637
  497POPC   C1B 9091  19.111  27.128   8.632
  497POPC   C2B 9092  19.239  27.117   8.174
  497POPC   C3B 9093  19.155  27.105   7.715
  497POPC   C4B 9094  19.291  26.938   7.291
  498POPC   NC3 9095   4.116  10.090   9.748
  498POPC   PO4 9096   4.657   9.887   9.403
  498POPC   GL1 9097   4.376   9.747   9.072
  498POPC   GL2 9098   4.216   9.415   9.116
  498POPC   C1A 9099   4.107   9.699   8.717
  498POPC   D2A 9100   4.245   9.722   8.307
  498POPC   C3A 9101   4.047   9.822   7.923
  498POPC   C4A 9102   4.281  10.013   7.604
  498POPC   C1B 9103   4.589   9.377   8.823
  498POPC   C2B 9104   4.742   9.469   8.403
  498POPC   C3B 9105   4.598   9.266   8.014
  498POPC   C4B 9106   4.415   9.496   7.691
  499POPC   NC3 9107  33.095  29.938   9.628
  499POPC   PO4 9108  32.548  30.068   9.425
  499POPC   GL1 9109  32.967  30.152   9.172
  499POPC   GL2 9110  33.126  29.811   9.133
  499POPC   C1A 9111  33.141  30.116   8.717
  499POPC   D2A 9112  33.136  29.764   8.399
  499POPC   C3A 9113  33.234  29.927   8.015
  499POPC   C4A 9114  32.993  30.211   7.782
  499POPC   C1B 9115  32.758  29.810   8.811
  499POPC   C2B 9116  32.668  29.992   8.383
  499POPC   C3B 9117  32.721  29.793   7.975
  499POPC   C4B 9118  33.023  29.455   7.893
  500POPC   NC3 9119  22.522  23.577   9.679
  500POPC   PO4 9120  21.894  23.629   9.387
  500POPC   GL1 9121  22.256  23.759   9.234
  500POPC   GL2 9122  22.375  23.436   9.167
  500POPC   C1A 9123  22.302  23.920   8.803
  500POPC   D2A 9124  22.244  24.116   8.416
  500POPC   C3A 9125  22.013  23.897   8.127
  500POPC   C4A 9126  22.117  24.013   7.766
  500POPC   C1B 9127  22.400  23.424   8.729
  500POPC   C2B 9128  22.103  23.446   8.360
  500POPC   C3B 9129  22.157  23.449   7.892
  500POPC   C4B 9130  22.544  23.301   7.701
  501POPC   NC3 9131   6.518  32.839   9.814
  501POPC   PO4 9132   6.194  32.261   9.654
  501POPC   GL1 9133   6.427  32.211   9.236
  501POPC   GL2 9134   6.526  32.501   9.026
  501POPC   C1A 9135   6.538  32.035   8.825
  501POPC   D2A 9136   6.461  32.253   8.430
  501POPC   C3A 9137   6.418  32.028   8.041
  501POPC   C4A 9138   6.712  32.081   7.732
  501POPC   C1B 9139   6.594  32.758   8.674
  501POPC   C2B 9140   6.346  32.771   8.330
  501POPC   C3B 9141   6.460  32.535   7.987
  501POPC   C4B 9142   6.509  32.520   7.561
  502POPC   NC3 9143  29.506   6.417   9.556
  502POPC   PO4 9144  28.852   6.286   9.674
  502POPC   GL1 9145  29.093   6.568   9.273
  502POPC   GL2 9146  29.383   6.619   9.081
  502POPC   C1A 9147  28.993   6.736   8.796
  502POPC   D2A 9148  28.881   6.524   8.435
  502POPC   C3A 9149  29.000   6.647   8.049
  502POPC   C4A 9150  28.882   6.478   7.656
  502POPC   C1B 9151  29.459   6.923   8.716
  502POPC   C2B 9152  29.415   6.870   8.252
  502POPC   C3B 9153  29.385   6.804   7.765
  502POPC   C4B 9154  29.325   7.075   7.420
  503POPC   NC3 9155  21.203   7.570   9.489
  503POPC   PO4 9156  21.776   7.216   9.725
  503POPC   GL1 9157  21.608   7.351   9.239
  503POPC   GL2 9158  21.232   7.254   9.108
  503POPC   C1A 9159  21.538   7.497   8.775
  503POPC   D2A 9160  21.447   7.696   8.337
  503POPC   C3A 9161  21.707   7.622   7.962
  503POPC   C4A 9162  21.579   7.399   7.579
  503POPC   C1B 9163  21.092   7.120   8.708
  503POPC   C2B 9164  21.326   6.925   8.356
  503POPC   C3B 9165  21.347   7.044   7.912
  503POPC   C4B 9166  20.960   7.165   7.696
  504POPC   NC3 9167  35.562  14.161   9.466
  504POPC   PO4 9168  35.121  14.712   9.610
  504POPC   GL1 9169  35.256  14.590   9.190
  504POPC   GL2 9170  35.069  14.865   9.092
  504POPC   C1A 9171  35.405  14.295   8.831
  504POPC   D2A 9172  35.207  13.956   8.586
  504POPC   C3A 9173  35.207  14.017   8.148
  504POPC   C4A 9174  35.465  14.210   7.803
  504POPC   C1B 9175  35.259  14.767   8.694
  504POPC   C2B 9176  35.625  14.653   8.477
  504POPC   C3B 9177  35.657  14.710   8.046
  504POPC   C4B 9178  35.284  14.867   7.821
  505POPC   NC3 9179  14.328   8.617   9.557
  505POPC   PO4 9180  14.478   8.087   9.856
  505POPC   GL1 9181  14.422   8.129   9.318
  505POPC   GL2 9182  14.351   8.399   9.121
  505POPC   C1A 9183  14.570   8.043   8.862
  505POPC   D2A 9184  14.518   8.259   8.472
  505POPC   C3A 9185  14.401   8.060   8.110
  505POPC   C4A 9186  14.604   7.945   7.767
  505POPC   C1B 9187  14.213   8.675   8.870
  505POPC   C2B 9188  14.178   8.639   8.484
  505POPC   C3B 9189  14.105   8.616   8.064
  505POPC   C4B 9190  14.366   8.467   7.781
  506POPC   NC3 9191  42.839  18.148   9.610
  506POPC   PO4 9192  42.147  18.338   9.534
  506POPC   GL1 9193  42.256  18.304   9.108
  506POPC   GL2 9194  42.550  18.462   9.009
  506POPC   C1A 9195  42.162  18.247   8.685
  506POPC   D2A 9196  42.338  18.128   8.275
  506POPC   C3A 9197  42.137  18.301   7.886
  506POPC   C4A 9198  42.230  18.109   7.473
  506POPC   C1B 9199  42.670  18.402   8.621
  506POPC   C2B 9200  42.941  18.488   8.307
  506POPC   C3B 9201  42.652  18.487   7.998
  506POPC   C4B 9202  42.523  18.505   7.598
  507POPC   NC3 9203  34.569  44.040   9.657
  507POPC   PO4 9204  35.137  43.997   9.527
  507POPC   GL1 9205  34.825  43.899   9.230
  507POPC   GL2 9206  34.765  44.194   9.023
  507POPC   C1A 9207  34.544  43.744   8.895
  507POPC   D2A 9208  34.595  43.590   8.445
  507POPC   C3A 9209  34.382  43.646   8.084
  507POPC   C4A 9210  34.595  43.722   7.715
  507POPC   C1B 9211  34.710  44.082   8.551
  507POPC   C2B 9212  34.541  44.113   8.143
  507POPC   C3B 9213  34.323  44.210   7.753
  507POPC   C4B 9214  34.525  44.435   7.404
  508POPC   NC3 9215   9.937  34.139   9.720
  508POPC   PO4 9216   9.436  33.702   9.506
  508POPC   GL1 9217   9.678  33.679   9.161
  508POPC   GL2 9218   9.900  33.421   9.140
  508POPC   C1A 9219   9.603  33.774   8.754
  508POPC   D2A 9220   9.656  34.114   8.468
  508POPC   C3A 9221   9.874  34.008   8.124
  508POPC   C4A 9222   9.845  33.967   7.705
  508POPC   C1B 9223  10.036  33.394   8.732
  508POPC   C2B 9224   9.780  33.485   8.379
  508POPC   C3B 9225   9.818  33.512   7.978
  508POPC   C4B 9226  10.077  33.207   7.819
  509POPC   NC3 9227  34.090   4.920   9.574
  509POPC   PO4 9228  33.561   5.340   9.737
  509POPC   GL1 9229  33.538   5.148   9.277
  509POPC   GL2 9230  33.729   5.418   9.068
  509POPC   C1A 9231  33.721   4.956   8.852
  509POPC   D2A 9232  33.835   5.148   8.417
  509POPC   C3A 9233  33.974   4.906   8.019
  509POPC   C4A 9234  33.845   4.993   7.591
  509POPC   C1B 9235  33.408   5.358   8.744
  509POPC   C2B 9236  33.415   5.471   8.310
  509POPC   C3B 9237  33.567   5.217   7.957
  509POPC   C4B 9238  33.360   5.125   7.535
  510POPC   NC3 9239  39.304   8.417   9.530
  510POPC   PO4 9240  39.307   7.728   9.635
  510POPC   GL1 9241  39.240   8.003   9.215
  510POPC   GL2 9242  38.979   8.252   9.187
  510POPC   C1A 9243  39.468   8.061   8.805
  510POPC   D2A 9244  39.605   8.259   8.477
  510POPC   C3A 9245  39.520   8.060   8.086
  510POPC   C4A 9246  39.526   8.431   7.927
  510POPC   C1B 9247  39.040   8.316   8.780
  510POPC   C2B 9248  39.067   8.181   8.351
  510POPC   C3B 9249  39.022   8.188   7.884
  510POPC   C4B 9250  38.761   7.851   7.708
  511POPC   NC3 9251  44.701  22.504   9.329
  511POPC   PO4 9252  44.829  21.798   9.472
  511POPC   GL1 9253  44.573  21.975   9.150
  511POPC   GL2 9254  44.396  21.699   8.986
  511POPC   C1A 9255  44.436  22.197   8.773
  511POPC   D2A 9256  44.396  22.053   8.371
  511POPC   C3A 9257  44.417  22.308   8.008
  511POPC   C4A 9258  44.641  22.175   7.636
  511POPC   C1B 9259  44.686  21.674   8.647
  511POPC   C2B 9260  44.810  21.769   8.227
  511POPC   C3B 9261   0.030  21.879   7.861
  511POPC   C4B 9262  44.969  21.811   7.404
  512POPC   NC3 9263  43.383  22.424   9.295
  512POPC   PO4 9264  43.141  21.849   9.618
  512POPC   GL1 9265  42.963  22.107   9.226
  512POPC   GL2 9266  42.834  22.422   9.145
  512POPC   C1A 9267  42.923  22.108   8.737
  512POPC   D2A 9268  43.208  21.998   8.398
  512POPC   C3A 9269  43.159  22.047   7.953
  512POPC   C4A 9270  43.491  21.805   7.809
  512POPC   C1B 9271  42.917  22.614   8.724
  512POPC   C2B 9272  43.075  22.507   8.315
  512POPC   C3B 9273  42.898  22.514   7.906
  512POPC   C4B 9274  42.934  22.332   7.492
  513POPC   NC3 9275  35.178  19.112   9.541
  513POPC   PO4 9276  35.797  18.828   9.444
  513POPC   GL1 9277  35.681  19.183   9.137
  513POPC   GL2 9278  35.333  19.300   9.108
  513POPC   C1A 9279  35.567  19.246   8.662
  513POPC   D2A 9280  35.306  19.089   8.336
  513POPC   C3A 9281  35.396  19.157   7.892
  513POPC   C4A 9282  35.627  18.811   7.824
  513POPC   C1B 9283  35.045  19.351   8.776
  513POPC   C2B 9284  35.003  19.502   8.366
  513POPC   C3B 9285  34.910  19.201   8.041
  513POPC   C4B 9286  34.916  19.255   7.625
  514POPC   NC3 9287  10.172  10.588   9.677
  514POPC   PO4 9288  10.754  10.412   9.823
  514POPC   GL1 9289  10.602  10.412   9.291
  514POPC   GL2 9290  10.543  10.676   9.019
  514POPC   C1A 9291  10.704  10.241   8.826
  514POPC   D2A 9292  10.458  10.340   8.424
  514POPC   C3A 9293  10.498  10.519   8.016
  514POPC   C4A 9294  10.636  10.358   7.645
  514POPC   C1B 9295  10.266  10.843   8.673
  514POPC   C2B 9296  10.288  10.968   8.210
  514POPC   C3B 9297  10.103  10.812   7.801
  514POPC   C4B 9298  10.289  10.666   7.400
  515POPC   NC3 9299  19.211   9.328   9.465
  515POPC   PO4 9300  18.780   8.734   9.458
  515POPC   GL1 9301  18.991   8.826   9.072
  515POPC   GL2 9302  19.281   8.644   8.971
  515POPC   C1A 9303  18.862   8.882   8.608
  515POPC   D2A 9304  18.846   8.769   8.142
  515POPC   C3A 9305  18.922   8.977   7.762
  515POPC   C4A 9306  19.166   9.331   7.674
  515POPC   C1B 9307  19.340   9.049   8.772
  515POPC   C2B 9308  19.240   9.162   8.360
  515POPC   C3B 9309  19.346   8.921   8.024
  515POPC   C4B 9310  19.328   8.689   7.664
  516POPC   NC3 9311  13.814  23.733   9.489
  516POPC   PO4 9312  13.177  24.112   9.522
  516POPC   GL1 9313  13.387  23.866   9.217
  516POPC   GL2 9314  13.704  24.057   9.106
  516POPC   C1A 9315  13.516  23.653   8.857
  516POPC   D2A 9316  13.680  23.864   8.517
  516POPC   C3A 9317  13.565  23.741   8.126
  516POPC   C4A 9318  13.391  23.537   7.766
  516POPC   C1B 9319  13.973  24.226   8.773
  516POPC   C2B 9320  14.161  24.021   8.405
  516POPC   C3B 9321  13.982  24.042   7.979
  516POPC   C4B 9322  13.631  24.005   7.680
  517POPC   NC3 9323  12.926  27.907   9.607
  517POPC   PO4 9324  12.673  27.356   9.533
  517POPC   GL1 9325  12.745  27.618   9.183
  517POPC   GL2 9326  12.562  27.896   9.208
  517POPC   C1A 9327  12.750  27.554   8.745
  517POPC   D2A 9328  12.417  27.464   8.463
  517POPC   C3A 9329  12.600  27.383   8.041
  517POPC   C4A 9330  12.861  27.507   7.710
  517POPC   C1B 9331  12.407  27.913   8.818
  517POPC   C2B 9332  12.452  28.000   8.407
  517POPC   C3B 9333  12.697  27.879   8.075
  517POPC   C4B 9334  12.760  28.019   7.682
  518POPC   NC3 9335  18.454   9.347   9.510
  518POPC   PO4 9336  18.175   8.773   9.643
  518POPC   GL1 9337  18.222   8.859   9.188
  518POPC   GL2 9338  18.515   9.035   9.108
  518POPC   C1A 9339  18.314   8.672   8.771
  518POPC   D2A 9340  18.140   8.777   8.360
  518POPC   C3A 9341  18.054   8.550   7.990
  518POPC   C4A 9342  18.107   8.703   7.564
  518POPC   C1B 9343  18.431   9.220   8.717
  518POPC   C2B 9344  18.500   9.110   8.295
  518POPC   C3B 9345  18.423   8.954   7.879
  518POPC   C4B 9346  18.528   9.011   7.414
  519POPC   NC3 9347  38.246  33.876   9.646
  519POPC   PO4 9348  38.857  34.146   9.426
  519POPC   GL1 9349  38.542  33.853   9.211
  519POPC   GL2 9350  38.209  33.649   9.199
  519POPC   C1A 9351  38.467  33.833   8.805
  519POPC   D2A 9352  38.321  34.044   8.467
  519POPC   C3A 9353  38.728  34.102   8.267
  519POPC   C4A 9354  38.751  34.160   7.803
  519POPC   C1B 9355  38.200  33.411   8.787
  519POPC   C2B 9356  38.473  33.544   8.393
  519POPC   C3B 9357  38.432  33.780   8.004
  519POPC   C4B 9358  38.198  33.622   7.651
  520POPC   NC3 9359  14.799  22.385   9.576
  520POPC   PO4 9360  15.328  21.971   9.684
  520POPC   GL1 9361  15.209  22.058   9.248
  520POPC   GL2 9362  14.880  22.112   9.136
  520POPC   C1A 9363  15.387  22.131   8.820
  520POPC   D2A 9364  15.556  22.054   8.407
  520POPC   C3A 9365  15.337  22.133   8.034
  520POPC   C4A 9366  15.088  22.433   7.796
  520POPC   C1B 9367  14.911  21.997   8.681
  520POPC   C2B 9368  14.939  21.836   8.250
  520POPC   C3B 9369  14.914  21.942   7.800
  520POPC   C4B 9370  14.985  21.986   7.352
  521POPC   NC3 9371  29.214  17.289   9.599
  521POPC   PO4 9372  29.065  17.948   9.592
  521POPC   GL1 9373  29.307  17.697   9.294
  521POPC   GL2 9374  29.008  17.518   9.178
  521POPC   C1A 9375  29.368  17.681   8.858
  521POPC   D2A 9376  29.128  17.748   8.473
  521POPC   C3A 9377  29.288  17.530   8.127
  521POPC   C4A 9378  29.347  17.470   7.714
  521POPC   C1B 9379  28.989  17.336   8.764
  521POPC   C2B 9380  28.931  17.229   8.335
  521POPC   C3B 9381  28.895  17.281   7.879
  521POPC   C4B 9382  28.764  17.156   7.447
  522POPC   NC3 9383  42.031  20.554   9.360
  522POPC   PO4 9384  41.460  20.585   9.656
  522POPC   GL1 9385  41.484  20.460   9.237
  522POPC   GL2 9386  41.214  20.709   9.194
  522POPC   C1A 9387  41.499  20.585   8.797
  522POPC   D2A 9388  41.675  20.393   8.437
  522POPC   C3A 9389  41.783  20.548   8.046
  522POPC   C4A 9390  41.612  20.737   7.658
  522POPC   C1B 9391  41.095  20.941   8.819
  522POPC   C2B 9392  41.192  20.828   8.400
  522POPC   C3B 9393  41.285  20.614   8.034
  522POPC   C4B 9394  41.178  20.469   7.608
  523POPC   NC3 9395  23.933  20.846   9.446
  523POPC   PO4 9396  23.284  20.764   9.607
  523POPC   GL1 9397  23.517  20.564   9.240
  523POPC   GL2 9398  23.796  20.295   9.233
  523POPC   C1A 9399  23.685  20.646   8.815
  523POPC   D2A 9400  23.459  20.710   8.412
  523POPC   C3A 9401  23.648  20.809   8.009
  523POPC   C4A 9402  23.438  20.568   7.702
  523POPC   C1B 9403  23.965  20.216   8.808
  523POPC   C2B 9404  23.941  20.448   8.397
  523POPC   C3B 9405  23.716  20.288   8.060
  523POPC   C4B 9406  23.874  20.060   7.705
  524POPC   NC3 9407   6.110  10.625   9.343
  524POPC   PO4 9408   5.516  10.708   9.733
  524POPC   GL1 9409   5.664  10.753   9.192
  524POPC   GL2 9410   5.801  10.430   8.993
  524POPC   C1A 9411   5.633  10.812   8.739
  524POPC   D2A 9412   5.715  10.485   8.431
  524POPC   C3A 9413   5.638  10.624   8.017
  524POPC   C4A 9414   5.778  10.823   7.640
  524POPC   C1B 9415   6.157  10.564   8.712
  524POPC   C2B 9416   6.195  10.622   8.263
  524POPC   C3B 9417   6.090  10.462   7.836
  524POPC   C4B 9418   6.179  10.626   7.400
  525POPC   NC3 9419  43.827  27.698   9.673
  525POPC   PO4 9420  44.442  27.494   9.517
  525POPC   GL1 9421  44.228  27.526   9.140
  525POPC   GL2 9422  43.890  27.377   9.217
  525POPC   C1A 9423  44.034  27.504   8.728
  525POPC   D2A 9424  44.198  27.523   8.294
  525POPC   C3A 9425  43.936  27.764   8.057
  525POPC   C4A 9426  43.690  27.832   7.716
  525POPC   C1B 9427  43.636  27.163   8.867
  525POPC   C2B 9428  43.456  27.252   8.434
  525POPC   C3B 9429  43.478  27.297   7.979
  525POPC   C4B 9430  43.854  27.301   7.787
  526POPC   NC3 9431  35.555   8.171   9.556
  526POPC   PO4 9432  34.911   8.042   9.424
  526POPC   GL1 9433  35.246   8.249   9.132
  526POPC   GL2 9434  35.558   8.086   9.072
  526POPC   C1A 9435  35.358   8.425   8.710
  526POPC   D2A 9436  35.094   8.569   8.346
  526POPC   C3A 9437  35.101   8.343   7.912
  526POPC   C4A 9438  35.277   7.945   7.711
  526POPC   C1B 9439  35.644   7.962   8.717
  526POPC   C2B 9440  35.329   7.935   8.440
  526POPC   C3B 9441  35.527   7.786   8.113
  526POPC   C4B 9442  35.737   8.111   7.836
  527POPC   NC3 9443  19.010  30.591   9.603
  527POPC   PO4 9444  19.039  29.901   9.647
  527POPC   GL1 9445  18.983  29.864   9.198
  527POPC   GL2 9446  18.988  30.211   9.234
  527POPC   C1A 9447  19.037  29.630   8.795
  527POPC   D2A 9448  19.038  29.898   8.425
  527POPC   C3A 9449  18.987  29.761   8.037
  527POPC   C4A 9450  19.092  29.578   7.638
  527POPC   C1B 9451  19.079  30.243   8.817
  527POPC   C2B 9452  18.813  30.342   8.503
  527POPC   C3B 9453  18.948  30.297   8.077
  527POPC   C4B 9454  18.962  30.099   7.666
  528POPC   NC3 9455  12.279  28.559   9.474
  528POPC   PO4 9456  11.906  27.984   9.374
  528POPC   GL1 9457  12.137  28.242   9.107
  528POPC   GL2 9458  11.950  28.584   9.087
  528POPC   C1A 9459  12.181  28.350   8.696
  528POPC   D2A 9460  12.021  28.335   8.302
  528POPC   C3A 9461  12.265  28.202   7.970
  528POPC   C4A 9462  12.213  28.219   7.546
  528POPC   C1B 9463  11.708  28.532   8.716
  528POPC   C2B 9464  11.643  28.677   8.312
  528POPC   C3B 9465  11.746  28.561   7.910
  528POPC   C4B 9466  11.947  28.676   7.564
  529POPC   NC3 9467  11.326  31.821   9.513
  529POPC   PO4 9468  11.703  31.190   9.346
  529POPC   GL1 9469  11.369  31.355   9.143
  529POPC   GL2 9470  11.449  31.690   9.049
  529POPC   C1A 9471  11.419  31.298   8.714
  529POPC   D2A 9472  11.355  31.547   8.376
  529POPC   C3A 9473  11.328  31.220   8.093
  529POPC   C4A 9474  11.428  31.088   7.681
  529POPC   C1B 9475  11.767  31.817   8.749
  529POPC   C2B 9476  11.866  31.693   8.336
  529POPC   C3B 9477  11.697  31.559   7.954
  529POPC   C4B 9478  11.640  31.675   7.535
  530POPC   NC3 9479  43.960  29.675   9.648
  530POPC   PO4 9480  43.421  30.182   9.558
  530POPC   GL1 9481  43.611  30.187   9.137
  530POPC   GL2 9482  43.978  30.131   9.215
  530POPC   C1A 9483  43.840  30.233   8.731
  530POPC   D2A 9484  43.930  29.999   8.380
  530POPC   C3A 9485  43.855  30.225   8.015
  530POPC   C4A 9486  43.695  30.015   7.675
  530POPC   C1B 9487  44.259  29.941   8.872
  530POPC   C2B 9488  44.439  29.931   8.457
  530POPC   C3B 9489  44.332  30.033   8.039
  530POPC   C4B 9490  43.994  29.699   7.936
  531POPC   NC3 9491  37.979   4.049   9.460
  531POPC   PO4 9492  37.794   4.638   9.588
  531POPC   GL1 9493  37.609   4.414   9.185
  531POPC   GL2 9494  37.633   4.055   9.098
  531POPC   C1A 9495  37.477   4.323   8.723
  531POPC   D2A 9496  37.695   4.405   8.392
  531POPC   C3A 9497  37.450   4.363   8.038
  531POPC   C4A 9498  37.425   4.502   7.630
  531POPC   C1B 9499  37.980   4.237   8.822
  531POPC   C2B 9500  38.146   4.061   8.421
  531POPC   C3B 9501  37.970   4.184   8.046
  531POPC   C4B 9502  37.962   4.302   7.663
  532POPC   NC3 9503   1.571  40.273   9.269
  532POPC   PO4 9504   1.929  40.870   9.500
  532POPC   GL1 9505   2.043  40.785   9.100
  532POPC   GL2 9506   1.706  40.692   8.984
  532POPC   C1A 9507   2.114  40.715   8.675
  532POPC   D2A 9508   1.808  40.806   8.361
  532POPC   C3A 9509   2.038  40.751   7.983
  532POPC   C4A 9510   2.306  40.825   7.634
  532POPC   C1B 9511   1.775  41.116   8.789
  532POPC   C2B 9512   1.757  41.348   8.400
  532POPC   C3B 9513   1.766  41.185   7.997
  532POPC   C4B 9514   1.812  41.065   7.565
  533POPC   NC3 9515   9.553  39.507   9.400
  533POPC   PO4 9516  10.256  39.559   9.381
  533POPC   GL1 9517  10.084  39.446   9.029
  533POPC   GL2 9518   9.824  39.233   9.069
  533POPC   C1A 9519  10.034  39.372   8.604
  533POPC   D2A 9520  10.005  39.511   8.189
  533POPC   C3A 9521  10.073  39.163   7.931
  533POPC   C4A 9522   9.874  39.407   7.648
  533POPC   C1B 9523   9.677  39.027   8.716
  533POPC   C2B 9524   9.717  39.014   8.304
  533POPC   C3B 9525   9.555  39.249   8.005
  533POPC   C4B 9526   9.618  38.978   7.680
  534POPC   NC3 9527  37.059  40.960   9.579
  534POPC   PO4 9528  36.544  41.243   9.362
  534POPC   GL1 9529  36.632  40.841   9.233
  534POPC   GL2 9530  36.973  40.815   9.110
  534POPC   C1A 9531  36.547  40.845   8.814
  534POPC   D2A 9532  36.738  41.024   8.474
  534POPC   C3A 9533  36.694  40.821   8.113
  534POPC   C4A 9534  36.832  40.926   7.736
  534POPC   C1B 9535  36.984  40.582   8.769
  534POPC   C2B 9536  37.098  40.650   8.386
  534POPC   C3B 9537  37.194  40.646   7.985
  534POPC   C4B 9538  37.032  40.414   7.646
  535POPC   NC3 9539   9.603  21.085   9.330
  535POPC   PO4 9540   9.503  21.693   9.454
  535POPC   GL1 9541   9.751  21.497   9.067
  535POPC   GL2 9542   9.965  21.170   8.993
  535POPC   C1A 9543   9.629  21.376   8.644
  535POPC   D2A 9544   9.505  21.622   8.289
  535POPC   C3A 9545   9.643  21.381   7.967
  535POPC   C4A 9546   9.437  21.112   7.715
  535POPC   C1B 9547  10.125  21.471   8.685
  535POPC   C2B 9548  10.014  21.581   8.257
  535POPC   C3B 9549  10.171  21.481   7.830
  535POPC   C4B 9550  10.105  21.115   7.583
  536POPC   NC3 9551  35.773  19.915   9.518
  536POPC   PO4 9552  36.390  19.604   9.662
  536POPC   GL1 9553  36.288  19.821   9.283
  536POPC   GL2 9554  36.038  19.569   9.236
  536POPC   C1A 9555  36.076  19.995   8.900
  536POPC   D2A 9556  36.212  19.875   8.505
  536POPC   C3A 9557  36.069  19.784   8.113
  536POPC   C4A 9558  36.194  19.975   7.717
  536POPC   C1B 9559  35.979  19.493   8.830
  536POPC   C2B 9560  36.041  19.358   8.421
  536POPC   C3B 9561  35.867  19.325   8.003
  536POPC   C4B 9562  35.715  19.709   7.767
  537POPC   NC3 9563  34.900  12.869   9.538
  537POPC   PO4 9564  35.561  12.717   9.649
  537POPC   GL1 9565  35.337  12.918   9.250
  537POPC   GL2 9566  35.068  12.703   9.094
  537POPC   C1A 9567  35.343  13.054   8.784
  537POPC   D2A 9568  35.221  13.023   8.349
  537POPC   C3A 9569  35.580  13.005   8.049
  537POPC   C4A 9570  35.772  12.802   7.689
  537POPC   C1B 9571  34.936  12.719   8.671
  537POPC   C2B 9572  34.716  12.657   8.309
  537POPC   C3B 9573  34.938  12.804   7.991
  537POPC   C4B 9574  35.287  12.637   7.811
  538POPC   NC3 9575   3.689  32.565   9.677
  538POPC   PO4 9576   3.466  32.099   9.306
  538POPC   GL1 9577   3.397  32.220   8.919
  538POPC   GL2 9578   3.706  32.220   8.854
  538POPC   C1A 9579   3.355  32.272   8.489
  538POPC   D2A 9580   3.480  32.526   8.167
  538POPC   C3A 9581   3.575  32.286   7.831
  538POPC   C4A 9582   3.220  32.358   7.618
  538POPC   C1B 9583   3.783  31.922   8.582
  538POPC   C2B 9584   3.623  31.941   8.214
  538POPC   C3B 9585   3.686  31.767   7.857
  538POPC   C4B 9586   3.893  31.935   7.500
  539POPC   NC3 9587   2.314  32.588   9.288
  539POPC   PO4 9588   2.353  33.288   9.485
  539POPC   GL1 9589   2.082  33.117   9.156
  539POPC   GL2 9590   1.806  32.899   9.296
  539POPC   C1A 9591   1.947  33.298   8.734
  539POPC   D2A 9592   2.076  33.508   8.383
  539POPC   C3A 9593   2.305  33.328   8.044
  539POPC   C4A 9594   2.170  33.130   7.682
  539POPC   C1B 9595   1.754  32.864   8.848
  539POPC   C2B 9596   1.671  32.801   8.426
  539POPC   C3B 9597   1.856  32.910   8.030
  539POPC   C4B 9598   1.728  32.708   7.650
  540POPC   NC3 9599  11.404  41.604   9.551
  540POPC   PO4 9600  10.838  41.407   9.457
  540POPC   GL1 9601  11.137  41.663   9.130
  540POPC   GL2 9602  11.485  41.851   9.101
  540POPC   C1A 9603  11.263  41.456   8.765
  540POPC   D2A 9604  11.065  41.219   8.396
  540POPC   C3A 9605  11.214  41.410   8.026
  540POPC   C4A 9606  11.448  41.393   7.687
  540POPC   C1B 9607  11.277  42.006   8.743
  540POPC   C2B 9608  11.322  41.770   8.378
  540POPC   C3B 9609  11.652  41.664   8.108
  540POPC   C4B 9610  11.541  41.876   7.770
  541POPC   NC3 9611  25.741  42.469   9.404
  541POPC   PO4 9612  26.514  42.586   9.457
  541POPC   GL1 9613  26.277  42.437   9.131
  541POPC   GL2 9614  26.087  42.733   9.102
  541POPC   C1A 9615  26.042  42.141   8.858
  541POPC   D2A 9616  25.772  42.105   8.487
  541POPC   C3A 9617  25.953  42.007   8.071
  541POPC   C4A 9618  26.269  42.258   7.809
  541POPC   C1B 9619  26.052  42.617   8.662
  541POPC   C2B 9620  26.051  42.456   8.246
  541POPC   C3B 9621  25.870  42.546   7.863
  541POPC   C4B 9622  26.099  42.849   7.701
  542POPC   NC3 9623   7.816  21.908   9.333
  542POPC   PO4 9624   7.319  22.430   9.418
  542POPC   GL1 9625   7.429  22.151   9.066
  542POPC   GL2 9626   7.527  21.816   8.900
  542POPC   C1A 9627   7.162  22.296   8.784
  542POPC   D2A 9628   7.202  22.470   8.415
  542POPC   C3A 9629   7.337  22.210   8.065
  542POPC   C4A 9630   7.430  22.360   7.677
  542POPC   C1B 9631   7.519  22.075   8.532
  542POPC   C2B 9632   7.761  22.370   8.327
  542POPC   C3B 9633   7.873  22.221   7.928
  542POPC   C4B 9634   7.705  21.896   7.672
  543POPC   NC3 9635  34.694  18.362   9.639
  543POPC   PO4 9636  35.066  18.779   9.235
  543POPC   GL1 9637  34.690  18.493   9.107
  543POPC   GL2 9638  34.591  18.146   9.184
  543POPC   C1A 9639  34.730  18.272   8.705
  543POPC   D2A 9640  34.591  18.267   8.294
  543POPC   C3A 9641  34.785  18.178   7.891
  543POPC   C4A 9642  34.555  18.518   7.729
  543POPC   C1B 9643  34.336  17.955   8.869
  543POPC   C2B 9644  34.280  17.888   8.396
  543POPC   C3B 9645  34.285  18.056   7.929
  543POPC   C4B 9646  34.446  18.095   7.469
  544POPC   NC3 9647  28.167   5.385   9.423
  544POPC   PO4 9648  28.506   4.871   9.701
  544POPC   GL1 9649  28.572   5.082   9.268
  544POPC   GL2 9650  28.265   5.028   9.049
  544POPC   C1A 9651  28.696   5.201   8.826
  544POPC   D2A 9652  28.474   5.164   8.409
  544POPC   C3A 9653  28.683   5.119   8.018
  544POPC   C4A 9654  28.561   5.108   7.589
  544POPC   C1B 9655  28.217   5.421   8.781
  544POPC   C2B 9656  28.153   5.565   8.376
  544POPC   C3B 9657  28.167   5.344   7.982
  544POPC   C4B 9658  28.068   5.022   7.721
  545POPC   NC3 9659  20.970  16.799   9.466
  545POPC   PO4 9660  21.719  16.570   9.550
  545POPC   GL1 9661  21.476  16.719   9.235
  545POPC   GL2 9662  21.777  16.798   9.080
  545POPC   C1A 9663  21.365  16.697   8.783
  545POPC   D2A 9664  21.307  16.944   8.400
  545POPC   C3A 9665  21.273  16.789   7.982
  545POPC   C4A 9666  21.228  16.981   7.531
  545POPC   C1B 9667  21.833  16.471   8.803
  545POPC   C2B 9668  21.630  16.400   8.397
  545POPC   C3B 9669  21.716  16.491   7.962
  545POPC   C4B 9670  21.479  16.533   7.600
  546POPC   NC3 9671  13.511  12.509   9.447
  546POPC   PO4 9672  13.155  13.019   9.374
  546POPC   GL1 9673  13.530  12.927   9.151
  546POPC   GL2 9674  13.802  13.191   9.233
  546POPC   C1A 9675  13.561  12.662   8.784
  546POPC   D2A 9676  13.447  12.789   8.392
  546POPC   C3A 9677  13.471  12.567   8.034
  546POPC   C4A 9678  13.557  12.759   7.692
  546POPC   C1B 9679  13.885  13.084   8.812
  546POPC   C2B 9680  13.750  13.201   8.434
  546POPC   C3B 9681  13.803  12.996   8.064
  546POPC   C4B 9682  13.989  13.122   7.696
  547POPC   NC3 9683   3.865   9.092   9.616
  547POPC   PO4 9684   3.371   8.688   9.502
  547POPC   GL1 9685   3.577   8.896   9.196
  547POPC   GL2 9686   3.598   9.271   9.203
  547POPC   C1A 9687   3.719   8.734   8.811
  547POPC   D2A 9688   3.550   8.818   8.435
  547POPC   C3A 9689   3.808   8.887   8.110
  547POPC   C4A 9690   3.717   8.818   7.687
  547POPC   C1B 9691   3.369   9.166   8.809
  547POPC   C2B 9692   3.360   9.281   8.394
  547POPC   C3B 9693   3.340   9.098   8.001
  547POPC   C4B 9694   3.449   9.264   7.610
  548POPC   NC3 9695  42.185  23.896   9.337
  548POPC   PO4 9696  42.192  23.189   9.331
  548POPC   GL1 9697  42.230  23.520   9.025
  548POPC   GL2 9698  42.599  23.645   9.106
  548POPC   C1A 9699  42.232  23.910   8.716
  548POPC   D2A 9700  42.530  23.999   8.405
  548POPC   C3A 9701  42.356  23.931   8.027
  548POPC   C4A 9702  42.044  23.681   7.852
  548POPC   C1B 9703  42.571  23.554   8.672
  548POPC   C2B 9704  42.355  23.496   8.296
  548POPC   C3B 9705  42.531  23.440   7.905
  548POPC   C4B 9706  42.762  23.402   7.542
  549POPC   NC3 9707  39.725   4.012   9.244
  549POPC   PO4 9708  40.281   4.056   9.623
  549POPC   GL1 9709  40.156   4.384   9.231
  549POPC   GL2 9710  39.974   4.751   9.212
  549POPC   C1A 9711  39.975   4.395   8.771
  549POPC   D2A 9712  40.078   4.284   8.322
  549POPC   C3A 9713  39.857   4.246   7.921
  549POPC   C4A 9714  40.032   4.391   7.520
  549POPC   C1B 9715  40.141   4.871   8.817
  549POPC   C2B 9716  40.279   4.761   8.411
  549POPC   C3B 9717  40.199   4.670   7.977
  549POPC   C4B 9718  40.179   4.867   7.593
  550POPC   NC3 9719   8.542  35.483   9.381
  550POPC   PO4 9720   9.063  35.043   9.513
  550POPC   GL1 9721   8.916  35.141   9.058
  550POPC   GL2 9722   8.948  35.492   9.095
  550POPC   C1A 9723   8.821  35.388   8.621
  550POPC   D2A 9724   8.858  35.508   8.149
  550POPC   C3A 9725   8.898  35.161   7.822
  550POPC   C4A 9726   8.932  34.896   7.473
  550POPC   C1B 9727   9.253  35.647   8.821
  550POPC   C2B 9728   9.302  35.800   8.408
  550POPC   C3B 9729   9.379  35.465   8.129
  550POPC   C4B 9730   9.279  35.483   7.713
  551POPC   NC3 9731  14.822   8.231   9.597
  551POPC   PO4 9732  15.431   8.073   9.556
  551POPC   GL1 9733  15.136   8.082   9.187
  551POPC   GL2 9734  14.872   8.374   9.131
  551POPC   C1A 9735  15.084   8.119   8.742
  551POPC   D2A 9736  15.326   8.020   8.378
  551POPC   C3A 9737  15.317   8.250   8.041
  551POPC   C4A 9738  15.177   8.125   7.686
  551POPC   C1B 9739  14.792   8.582   8.763
  551POPC   C2B 9740  14.979   8.450   8.372
  551POPC   C3B 9741  14.825   8.351   7.972
  551POPC   C4B 9742  14.758   8.365   7.489
  552POPC   NC3 9743  42.921  23.223   9.334
  552POPC   PO4 9744  43.276  23.755   9.560
  552POPC   GL1 9745  43.242  23.766   9.105
  552POPC   GL2 9746  43.331  23.449   9.055
  552POPC   C1A 9747  43.001  23.804   8.704
  552POPC   D2A 9748  42.865  23.647   8.285
  552POPC   C3A 9749  42.873  23.887   7.955
  552POPC   C4A 9750  43.148  23.597   7.789
  552POPC   C1B 9751  43.404  23.516   8.597
  552POPC   C2B 9752  43.352  23.791   8.217
  552POPC   C3B 9753  43.378  24.066   7.833
  552POPC   C4B 9754  43.431  24.124   7.372
  553POPC   NC3 9755   9.973  11.571  10.118
  553POPC   PO4 9756   9.684  11.210   9.616
  553POPC   GL1 9757   9.492  11.374   9.232
  553POPC   GL2 9758   9.276  11.148   9.095
  553POPC   C1A 9759   9.516  11.561   8.798
  553POPC   D2A 9760   9.737  11.584   8.382
  553POPC   C3A 9761   9.625  11.672   7.947
  553POPC   C4A 9762   9.856  11.499   7.575
  553POPC   C1B 9763   9.573  11.042   8.755
  553POPC   C2B 9764   9.805  11.065   8.371
  553POPC   C3B 9765   9.695  11.173   7.980
  553POPC   C4B 9766   9.583  11.052   7.593
  554POPC   NC3 9767   3.865  27.372   9.166
  554POPC   PO4 9768   3.396  27.702   9.575
  554POPC   GL1 9769   3.454  27.652   9.146
  554POPC   GL2 9770   3.188  27.428   9.132
  554POPC   C1A 9771   3.639  27.905   8.765
  554POPC   D2A 9772   3.798  28.053   8.371
  554POPC   C3A 9773   3.791  27.696   8.133
  554POPC   C4A 9774   3.580  27.576   7.795
  554POPC   C1B 9775   3.160  27.704   8.752
  554POPC   C2B 9776   3.325  27.706   8.364
  554POPC   C3B 9777   3.144  27.517   8.038
  554POPC   C4B 9778   3.132  27.317   7.662
  555POPC   NC3 9779  27.296  18.454   9.452
  555POPC   PO4 9780  26.556  18.320   9.493
  555POPC   GL1 9781  26.611  18.444   9.118
  555POPC   GL2 9782  26.922  18.394   9.113
  555POPC   C1A 9783  26.408  18.394   8.733
  555POPC   D2A 9784  26.391  18.212   8.344
  555POPC   C3A 9785  26.739  18.297   8.124
  555POPC   C4A 9786  26.828  17.979   7.849
  555POPC   C1B 9787  26.916  18.322   8.692
  555POPC   C2B 9788  27.198  18.410   8.392
  555POPC   C3B 9789  27.247  18.266   8.016
  555POPC   C4B 9790  27.062  18.387   7.694
  556POPC   NC3 9791  30.937  25.234   9.463
  556POPC   PO4 9792  30.280  25.410   9.423
  556POPC   GL1 9793  30.560  25.170   9.102
  556POPC   GL2 9794  30.936  25.224   8.974
  556POPC   C1A 9795  30.530  25.162   8.660
  556POPC   D2A 9796  30.551  25.452   8.348
  556POPC   C3A 9797  30.476  25.232   8.016
  556POPC   C4A 9798  30.522  25.459   7.664
  556POPC   C1B 9799  31.008  24.955   8.633
  556POPC   C2B 9800  30.952  25.111   8.242
  556POPC   C3B 9801  30.956  25.207   7.821
  556POPC   C4B 9802  30.855  25.105   7.422
  557POPC   NC3 9803  40.808  26.411   9.611
  557POPC   PO4 9804  40.591  25.702   9.585
  557POPC   GL1 9805  40.829  25.946   9.277
  557POPC   GL2 9806  40.641  26.243   9.169
  557POPC   C1A 9807  40.981  25.807   8.877
  557POPC   D2A 9808  40.790  25.870   8.462
  557POPC   C3A 9809  40.994  25.985   8.057
  557POPC   C4A 9810  40.876  26.227   7.704
  557POPC   C1B 9811  40.503  26.189   8.772
  557POPC   C2B 9812  40.324  26.063   8.414
  557POPC   C3B 9813  40.492  26.099   8.029
  557POPC   C4B 9814  40.376  26.299   7.664
  558POPC   NC3 9815  21.079  13.991   9.596
  558POPC   PO4 9816  21.364  13.400   9.540
  558POPC   GL1 9817  21.414  13.514   9.108
  558POPC   GL2 9818  21.562  13.847   9.116
  558POPC   C1A 9819  21.216  13.367   8.726
  558POPC   D2A 9820  21.195  13.585   8.335
  558POPC   C3A 9821  21.364  13.367   8.018
  558POPC   C4A 9822  21.267  13.463   7.624
  558POPC   C1B 9823  21.801  13.957   8.773
  558POPC   C2B 9824  21.763  14.178   8.405
  558POPC   C3B 9825  21.601  14.078   8.029
  558POPC   C4B 9826  21.452  13.929   7.668
  559POPC   NC3 9827  34.543   7.768   9.493
  559POPC   PO4 9828  34.403   8.456   9.412
  559POPC   GL1 9829  34.552   8.243   9.064
  559POPC   GL2 9830  34.649   7.897   9.019
  559POPC   C1A 9831  34.419   8.127   8.638
  559POPC   D2A 9832  34.124   8.206   8.335
  559POPC   C3A 9833  34.356   8.104   8.028
  559POPC   C4A 9834  34.582   8.284   7.711
  559POPC   C1B 9835  34.926   8.154   8.739
  559POPC   C2B 9836  34.853   8.106   8.310
  559POPC   C3B 9837  34.819   7.879   7.941
  559POPC   C4B 9838  34.838   7.826   7.535
  560POPC   NC3 9839  25.246  35.117   9.643
  560POPC   PO4 9840  25.166  35.760   9.416
  560POPC   GL1 9841  25.078  35.345   9.190
  560POPC   GL2 9842  25.276  35.001   9.147
  560POPC   C1A 9843  24.956  35.226   8.769
  560POPC   D2A 9844  25.140  35.177   8.365
  560POPC   C3A 9845  25.260  35.513   8.100
  560POPC   C4A 9846  24.998  35.380   7.768
  560POPC   C1B 9847  25.457  35.276   8.832
  560POPC   C2B 9848  25.631  35.221   8.473
  560POPC   C3B 9849  25.648  35.146   8.059
  560POPC   C4B 9850  25.419  35.085   7.704
  561POPC   NC3 9851  31.659  30.907   9.433
  561POPC   PO4 9852  32.348  30.960   9.502
  561POPC   GL1 9853  32.354  31.009   9.075
  561POPC   GL2 9854  32.058  30.810   9.076
  561POPC   C1A 9855  32.422  30.786   8.678
  561POPC   D2A 9856  32.258  30.766   8.242
  561POPC   C3A 9857  32.499  30.914   7.873
  561POPC   C4A 9858  32.379  31.170   7.526
  561POPC   C1B 9859  31.903  30.779   8.652
  561POPC   C2B 9860  31.762  30.607   8.238
  561POPC   C3B 9861  31.673  30.706   7.797
  561POPC   C4B 9862  31.467  30.650   7.381
  562POPC   NC3 9863  44.960  40.696   9.502
  562POPC   PO4 9864  44.305  40.864   9.357
  562POPC   GL1 9865  44.593  40.599   9.104
  562POPC   GL2 9866  44.941  40.682   9.009
  562POPC   C1A 9867  44.584  40.327   8.724
  562POPC   D2A 9868  44.749  40.386   8.291
  562POPC   C3A 9869  44.559  40.342   7.882
  562POPC   C4A 9870  44.458  40.695   7.611
  562POPC   C1B 9871  44.845  40.784   8.621
  562POPC   C2B 9872  44.496  40.885   8.403
  562POPC   C3B 9873  44.683  40.860   8.035
  562POPC   C4B 9874   0.012  40.760   7.782
  563POPC   NC3 9875  32.623  39.322   9.506
  563POPC   PO4 9876  32.080  38.944   9.730
  563POPC   GL1 9877  32.195  39.162   9.285
  563POPC   GL2 9878  32.512  39.001   9.128
  563POPC   C1A 9879  32.189  39.289   8.817
  563POPC   D2A 9880  32.451  39.393   8.416
  563POPC   C3A 9881  32.331  39.367   7.976
  563POPC   C4A 9882  32.050  39.075   7.833
  563POPC   C1B 9883  32.490  38.879   8.691
  563POPC   C2B 9884  32.356  38.882   8.255
  563POPC   C3B 9885  32.498  38.828   7.835
  563POPC   C4B 9886  32.531  38.806   7.377
  564POPC   NC3 9887  29.122   0.743   9.452
  564POPC   PO4 9888  28.764   0.163   9.518
  564POPC   GL1 9889  28.967   0.139   9.117
  564POPC   GL2 9890  29.033   0.518   9.003
  564POPC   C1A 9891  29.066   0.137   8.680
  564POPC   D2A 9892  28.960   0.457   8.397
  564POPC   C3A 9893  28.988   0.338   7.965
  564POPC   C4A 9894  28.785   0.019   7.714
  564POPC   C1B 9895  29.145   0.872   8.699
  564POPC   C2B 9896  29.332   0.818   8.274
  564POPC   C3B 9897  29.264   0.765   7.813
  564POPC   C4B 9898  29.384   0.709   7.349
  565POPC   NC3 9899   7.131  24.345   9.572
  565POPC   PO4 9900   7.403  24.947   9.449
  565POPC   GL1 9901   7.386  24.582   9.165
  565POPC   GL2 9902   7.041  24.461   9.078
  565POPC   C1A 9903   7.468  24.378   8.778
  565POPC   D2A 9904   7.472  24.523   8.368
  565POPC   C3A 9905   7.614  24.337   8.007
  565POPC   C4A 9906   7.834  24.566   7.738
  565POPC   C1B 9907   7.105  24.735   8.707
  565POPC   C2B 9908   7.131  24.877   8.269
  565POPC   C3B 9909   7.181  24.636   7.859
  565POPC   C4B 9910   7.206  24.210   7.689
  566POPC   NC3 9911  29.335   7.969   9.582
  566POPC   PO4 9912  28.953   8.493   9.570
  566POPC   GL1 9913  29.028   8.234   9.211
  566POPC   GL2 9914  29.352   8.237   9.109
  566POPC   C1A 9915  28.879   8.200   8.786
  566POPC   D2A 9916  29.090   8.164   8.400
  566POPC   C3A 9917  28.887   8.301   8.080
  566POPC   C4A 9918  28.838   8.074   7.727
  566POPC   C1B 9919  29.417   7.977   8.736
  566POPC   C2B 9920  29.540   7.917   8.303
  566POPC   C3B 9921  29.327   8.030   7.915
  566POPC   C4B 9922  29.372   8.036   7.442
  567POPC   NC3 9923  11.739  10.015   9.379
  567POPC   PO4 9924  12.018   9.557   9.556
  567POPC   GL1 9925  12.085   9.691   9.146
  567POPC   GL2 9926  12.092  10.020   9.011
  567POPC   C1A 9927  11.993   9.571   8.743
  567POPC   D2A 9928  12.047   9.369   8.367
  567POPC   C3A 9929  12.226   9.458   7.967
  567POPC   C4A 9930  12.052   9.633   7.600
  567POPC   C1B 9931  12.307   9.954   8.642
  567POPC   C2B 9932  12.092   9.867   8.264
  567POPC   C3B 9933  11.947  10.059   7.859
  567POPC   C4B 9934  11.744  10.029   7.423
  568POPC   NC3 9935  21.781   9.163   9.241
  568POPC   PO4 9936  22.323   8.972   9.571
  568POPC   GL1 9937  22.169   8.874   9.144
  568POPC   GL2 9938  21.886   8.645   9.086
  568POPC   C1A 9939  22.071   8.935   8.701
  568POPC   D2A 9940  22.203   9.149   8.326
  568POPC   C3A 9941  22.374   9.000   7.976
  568POPC   C4A 9942  22.289   8.831   7.539
  568POPC   C1B 9943  21.685   8.611   8.685
  568POPC   C2B 9944  21.804   8.809   8.285
  568POPC   C3B 9945  21.865   8.931   7.826
  568POPC   C4B 9946  21.796   8.718   7.386
  569POPC   NC3 9947  30.930  38.721   9.573
  569POPC   PO4 9948  30.344  38.262   9.548
  569POPC   GL1 9949  30.474  38.257   9.117
  569POPC   GL2 9950  30.217  38.069   9.001
  569POPC   C1A 9951  30.679  38.464   8.744
  569POPC   D2A 9952  30.555  38.693   8.371
  569POPC   C3A 9953  30.754  38.576   7.977
  569POPC   C4A 9954  30.727  38.763   7.584
  569POPC   C1B 9955  30.261  38.186   8.586
  569POPC   C2B 9956  30.594  38.185   8.282
  569POPC   C3B 9957  30.521  38.159   7.852
  569POPC   C4B 9958  30.400  38.356   7.385
  570POPC   NC3 9959  21.614  34.107   9.365
  570POPC   PO4 9960  21.329  33.487   9.591
  570POPC   GL1 9961  21.360  33.508   9.190
  570POPC   GL2 9962  21.654  33.641   9.159
  570POPC   C1A 9963  21.265  33.645   8.793
  570POPC   D2A 9964  21.269  33.969   8.501
  570POPC   C3A 9965  21.399  33.789   8.140
  570POPC   C4A 9966  21.289  33.885   7.727
  570POPC   C1B 9967  21.713  33.933   8.777
  570POPC   C2B 9968  21.807  34.051   8.365
  570POPC   C3B 9969  21.724  34.117   7.929
  570POPC   C4B 9970  21.759  33.900   7.509
  571POPC   NC3 9971  18.630  24.948   9.504
  571POPC   PO4 9972  19.382  24.950   9.366
  571POPC   GL1 9973  19.161  25.251   9.080
  571POPC   GL2 9974  18.807  25.302   9.139
  571POPC   C1A 9975  19.028  25.460   8.689
  571POPC   D2A 9976  18.986  25.270   8.292
  571POPC   C3A 9977  19.290  25.202   7.960
  571POPC   C4A 9978  19.037  25.307   7.613
  571POPC   C1B 9979  18.806  24.980   8.798
  571POPC   C2B 9980  18.762  24.821   8.383
  571POPC   C3B 9981  18.855  24.918   7.930
  571POPC   C4B 9982  18.701  24.943   7.507
  572POPC   NC3 9983  18.846  27.805   9.299
  572POPC   PO4 9984  18.417  27.407   9.694
  572POPC   GL1 9985  18.416  27.285   9.248
  572POPC   GL2 9986  18.310  27.625   9.198
  572POPC   C1A 9987  18.108  27.209   8.903
  572POPC   D2A 9988  18.034  27.452   8.509
  572POPC   C3A 9989  18.220  27.319   8.137
  572POPC   C4A 9990  18.168  27.183   7.735
  572POPC   C1B 9991  18.466  27.540   8.802
  572POPC   C2B 9992  18.523  27.647   8.398
  572POPC   C3B 9993  18.302  27.864   8.094
  572POPC   C4B 9994  18.421  27.631   7.759
  573POPC   NC3 9995  29.574   4.225   9.357
  573POPC   PO4 9996  30.122   4.615   9.321
  573POPC   GL1 9997  29.964   4.343   9.026
  573POPC   GL2 9998  30.008   3.994   9.066
  573POPC   C1A 9999  30.016   4.274   8.627
  573POPC   D2A10000  29.798   4.335   8.250
  573POPC   C3A10001  29.923   4.476   7.872
  573POPC   C4A10002  30.271   4.287   7.794
  573POPC   C1B10003  29.726   3.863   8.695
  573POPC   C2B10004  29.619   3.867   8.266
  573POPC   C3B10005  29.862   3.934   7.871
  573POPC   C4B10006  29.904   3.999   7.408
  574POPC   NC310007   2.551   2.547   9.420
  574POPC   PO410008   3.152   2.841   9.394
  574POPC   GL110009   2.881   2.740   9.092
  574POPC   GL210010   2.991   2.413   9.101
  574POPC   C1A10011   2.719   2.903   8.713
  574POPC   D2A10012   2.973   3.060   8.391
  574POPC   C3A10013   2.807   3.003   7.993
  574POPC   C4A10014   2.474   2.762   7.855
  574POPC   C1B10015   3.109   2.553   8.678
  574POPC   C2B10016   2.848   2.550   8.319
  574POPC   C3B10017   2.885   2.494   7.911
  574POPC   C4B10018   3.170   2.749   7.726
  575POPC   NC310019  33.792  34.085   9.903
  575POPC   PO410020  34.122  33.723   9.322
  575POPC   GL110021  33.768  33.800   9.146
  575POPC   GL210022  33.588  33.578   9.257
  575POPC   C1A10023  33.737  34.035   8.793
  575POPC   D2A10024  33.845  34.284   8.447
  575POPC   C3A10025  33.840  34.049   8.052
  575POPC   C4A10026  33.643  33.985   7.636
  575POPC   C1B10027  33.644  33.539   8.757
  575POPC   C2B10028  33.802  33.556   8.328
  575POPC   C3B10029  33.760  33.555   7.884
  575POPC   C4B10030  34.139  33.368   7.753
  576POPC   NC310031  11.135  22.179   9.410
  576POPC   PO410032  11.722  21.804   9.507
  576POPC   GL110033  11.578  22.017   9.144
  576POPC   GL210034  11.513  22.391   9.152
  576POPC   C1A10035  11.346  21.960   8.780
  576POPC   D2A10036  11.338  21.703   8.446
  576POPC   C3A10037  11.325  21.875   8.004
  576POPC   C4A10038  11.108  21.873   7.606
  576POPC   C1B10039  11.225  22.457   8.782
  576POPC   C2B10040  11.370  22.523   8.352
  576POPC   C3B10041  11.227  22.392   7.946
  576POPC   C4B10042  11.214  22.352   7.493
  577POPC   NC310043  33.621  23.356   9.539
  577POPC   PO410044  34.064  23.857   9.396
  577POPC   GL110045  33.908  23.571   9.056
  577POPC   GL210046  33.586  23.352   9.042
  577POPC   C1A10047  33.973  23.740   8.637
  577POPC   D2A10048  33.709  23.959   8.328
  577POPC   C3A10049  33.898  23.764   7.982
  577POPC   C4A10050  34.120  23.924   7.653
  577POPC   C1B10051  33.478  23.654   8.729
  577POPC   C2B10052  33.485  23.514   8.303
  577POPC   C3B10053  33.416  23.646   7.865
  577POPC   C4B10054  33.426  23.263   7.637
  578POPC   NC310055  15.975  35.190   9.674
  578POPC   PO410056  16.037  34.520   9.517
  578POPC   GL110057  15.917  34.622   9.117
  578POPC   GL210058  16.199  34.775   8.989
  578POPC   C1A10059  16.017  34.346   8.736
  578POPC   D2A10060  15.748  34.240   8.387
  578POPC   C3A10061  15.976  34.156   8.029
  578POPC   C4A10062  15.827  34.498   7.802
  578POPC   C1B10063  15.939  34.832   8.633
  578POPC   C2B10064  16.100  34.637   8.250
  578POPC   C3B10065  16.179  34.859   7.877
  578POPC   C4B10066  15.802  35.039   7.697
  579POPC   NC310067  20.149  39.267   9.358
  579POPC   PO410068  19.620  38.821   9.558
  579POPC   GL110069  19.705  39.047   9.155
  579POPC   GL210070  19.584  39.353   9.173
  579POPC   C1A10071  20.023  39.061   8.764
  579POPC   D2A10072  20.295  39.124   8.407
  579POPC   C3A10073  20.108  39.081   8.012
  579POPC   C4A10074  20.009  39.435   7.735
  579POPC   C1B10075  19.732  39.476   8.782
  579POPC   C2B10076  19.640  39.464   8.345
  579POPC   C3B10077  19.623  39.228   7.968
  579POPC   C4B10078  19.613  39.209   7.511
  580POPC   NC310079  24.783  25.031   9.510
  580POPC   PO410080  24.246  25.379   9.777
  580POPC   GL110081  24.364  25.373   9.297
  580POPC   GL210082  24.376  25.046   9.103
  580POPC   C1A10083  24.478  25.546   8.882
  580POPC   D2A10084  24.300  25.344   8.526
  580POPC   C3A10085  24.402  25.367   8.110
  580POPC   C4A10086  24.139  25.140   7.877
  580POPC   C1B10087  24.603  24.964   8.684
  580POPC   C2B10088  24.652  24.934   8.233
  580POPC   C3B10089  24.623  25.020   7.790
  580POPC   C4B10090  24.631  25.468   7.662
  581POPC   NC310091  12.701   2.494   9.561
  581POPC   PO410092  13.224   2.734   9.405
  581POPC   GL110093  12.964   2.501   9.069
  581POPC   GL210094  12.628   2.289   9.095
  581POPC   C1A10095  12.846   2.515   8.621
  581POPC   D2A10096  12.954   2.539   8.158
  581POPC   C3A10097  12.888   2.926   7.864
  581POPC   C4A10098  13.114   3.042   7.468
  581POPC   C1B10099  12.361   2.356   8.748
  581POPC   C2B10100  12.453   2.519   8.299
  581POPC   C3B10101  12.547   2.546   7.875
  581POPC   C4B10102  12.613   2.723   7.454
  582POPC   NC310103  18.428  33.352   9.339
  582POPC   PO410104  17.936  32.951   9.501
  582POPC   GL110105  18.151  32.974   9.124
  582POPC   GL210106  18.477  32.805   9.231
  582POPC   C1A10107  18.165  33.194   8.733
  582POPC   D2A10108  18.378  33.131   8.354
  582POPC   C3A10109  18.137  33.020   8.008
  582POPC   C4A10110  18.152  33.069   7.534
  582POPC   C1B10111  18.581  32.889   8.800
  582POPC   C2B10112  18.749  32.785   8.372
  582POPC   C3B10113  18.653  32.904   7.944
  582POPC   C4B10114  18.647  32.893   7.493
  583POPC   NC310115  42.972  10.301   9.487
  583POPC   PO410116  43.328  10.749   9.164
  583POPC   GL110117  43.240  10.336   8.995
  583POPC   GL210118  42.860  10.312   8.980
  583POPC   C1A10119  43.287  10.348   8.544
  583POPC   D2A10120  43.279  10.755   8.314
  583POPC   C3A10121  43.117  10.667   7.899
  583POPC   C4A10122  43.114  10.873   7.521
  583POPC   C1B10123  42.870  10.665   8.681
  583POPC   C2B10124  42.779  10.619   8.261
  583POPC   C3B10125  42.687  10.914   7.946
  583POPC   C4B10126  42.720  11.169   7.619
  584POPC   NC310127  17.577  35.830   9.407
  584POPC   PO410128  17.814  36.572   9.429
  584POPC   GL110129  17.607  36.494   9.034
  584POPC   GL210130  17.425  36.173   9.027
  584POPC   C1A10131  17.575  36.403   8.585
  584POPC   D2A10132  17.356  36.084   8.372
  584POPC   C3A10133  17.399  36.121   7.949
  584POPC   C4A10134  17.471  36.491   7.699
  584POPC   C1B10135  17.687  35.914   8.731
  584POPC   C2B10136  17.955  36.024   8.379
  584POPC   C3B10137  18.008  35.855   7.981
  584POPC   C4B10138  17.667  35.729   7.743
  585POPC   NC310139  19.303   0.594   9.268
  585POPC   PO410140  19.942   0.567   9.515
  585POPC   GL110141  19.778   0.608   9.097
  585POPC   GL210142  19.589   0.954   9.057
  585POPC   C1A10143  19.836   0.299   8.757
  585POPC   D2A10144  19.602   0.077   8.396
  585POPC   C3A10145  19.758   0.141   7.961
  585POPC   C4A10146  20.216   0.149   7.833
  585POPC   C1B10147  19.546   0.711   8.649
  585POPC   C2B10148  19.794   0.566   8.296
  585POPC   C3B10149  19.926   0.629   7.865
  585POPC   C4B10150  19.673   0.786   7.519
  586POPC   NC310151   7.733  21.090   9.545
  586POPC   PO410152   7.318  21.621   9.309
  586POPC   GL110153   7.285  21.307   9.026
  586POPC   GL210154   7.460  21.080   9.118
  586POPC   C1A10155   7.319  21.220   8.627
  586POPC   D2A10156   7.372  21.596   8.441
  586POPC   C3A10157   7.672  21.706   8.156
  586POPC   C4A10158   7.449  21.483   7.821
  586POPC   C1B10159   7.783  21.045   8.791
  586POPC   C2B10160   7.768  21.212   8.366
  586POPC   C3B10161   7.418  21.074   8.132
  586POPC   C4B10162   7.431  20.952   7.721
  587POPC   NC310163   3.867  33.154   9.420
  587POPC   PO410164   3.321  32.816   9.541
  587POPC   GL110165   3.479  32.975   9.130
  587POPC   GL210166   3.623  32.653   9.140
  587POPC   C1A10167   3.691  33.205   8.738
  587POPC   D2A10168   3.693  33.432   8.301
  587POPC   C3A10169   3.688  33.230   7.859
  587POPC   C4A10170   3.327  33.191   7.529
  587POPC   C1B10171   3.570  32.701   8.691
  587POPC   C2B10172   3.795  32.883   8.352
  587POPC   C3B10173   3.914  32.751   7.966
  587POPC   C4B10174   3.609  32.754   7.654
  588POPC   NC310175  35.554  44.185   9.570
  588POPC   PO410176  35.577  44.893   9.561
  588POPC   GL110177  35.438  44.723   9.158
  588POPC   GL210178  35.093  44.620   9.107
  588POPC   C1A10179  35.454  44.701   8.722
  588POPC   D2A10180  35.346  44.666   8.317
  588POPC   C3A10181  35.584  44.825   8.030
  588POPC   C4A10182  35.614   0.030   7.683
  588POPC   C1B10183  35.007  44.469   8.657
  588POPC   C2B10184  35.011  44.333   8.186
  588POPC   C3B10185  35.156  44.569   7.789
  588POPC   C4B10186  34.877  44.825   7.489
  589POPC   NC310187  29.756  44.115   9.524
  589POPC   PO410188  29.671  44.751   9.562
  589POPC   GL110189  29.824  44.596   9.206
  589POPC   GL210190  29.833  44.889   9.017
  589POPC   C1A10191  30.032  44.454   8.825
  589POPC   D2A10192  30.142  44.236   8.457
  589POPC   C3A10193  30.067  44.466   8.038
  589POPC   C4A10194  30.236  44.623   7.631
  589POPC   C1B10195  29.556  44.931   8.657
  589POPC   C2B10196  29.783  44.962   8.238
  589POPC   C3B10197  29.780  44.903   7.798
  589POPC   C4B10198  29.872  44.870   7.361
  590POPC   NC310199  20.375  37.677   9.576
  590POPC   PO410200  20.961  37.802   9.602
  590POPC   GL110201  20.852  37.666   9.182
  590POPC   GL210202  20.501  37.628   9.090
  590POPC   C1A10203  20.816  37.756   8.729
  590POPC   D2A10204  20.500  37.566   8.473
  590POPC   C3A10205  20.573  37.743   8.129
  590POPC   C4A10206  20.492  37.601   7.757
  590POPC   C1B10207  20.290  37.930   8.798
  590POPC   C2B10208  20.133  37.891   8.363
  590POPC   C3B10209  20.219  38.038   7.943
  590POPC   C4B10210  20.228  37.946   7.490
  591POPC   NC310211  42.933   6.952   9.639
  591POPC   PO410212  42.975   7.638   9.614
  591POPC   GL110213  43.053   7.424   9.218
  591POPC   GL210214  42.854   7.577   9.027
  591POPC   C1A10215  43.243   7.377   8.777
  591POPC   D2A10216  43.081   7.147   8.421
  591POPC   C3A10217  43.063   7.394   8.080
  591POPC   C4A10218  43.358   7.399   7.774
  591POPC   C1B10219  42.716   7.449   8.637
  591POPC   C2B10220  42.533   7.223   8.308
  591POPC   C3B10221  42.669   7.163   7.890
  591POPC   C4B10222  42.886   7.425   7.591
  592POPC   NC310223  40.437   4.840   9.412
  592POPC   PO410224  40.709   5.484   9.444
  592POPC   GL110225  40.989   5.383   9.114
  592POPC   GL210226  40.987   5.041   9.145
  592POPC   C1A10227  41.070   5.318   8.684
  592POPC   D2A10228  41.149   5.089   8.323
  592POPC   C3A10229  40.887   5.265   8.040
  592POPC   C4A10230  40.938   5.258   7.645
  592POPC   C1B10231  41.141   4.828   8.769
  592POPC   C2B10232  40.786   4.783   8.537
  592POPC   C3B10233  40.750   4.782   8.137
  592POPC   C4B10234  40.656   4.849   7.765
  593POPC   NC310235  26.065   1.332   9.710
  593POPC   PO410236  26.219   0.685   9.719
  593POPC   GL110237  26.241   1.010   9.328
  593POPC   GL210238  26.159   1.345   9.213
  593POPC   C1A10239  26.193   0.962   8.872
  593POPC   D2A10240  25.921   1.012   8.497
  593POPC   C3A10241  26.090   0.926   8.108
  593POPC   C4A10242  26.051   1.072   7.709
  593POPC   C1B10243  25.954   1.425   8.788
  593POPC   C2B10244  26.071   1.551   8.388
  593POPC   C3B10245  25.931   1.470   7.999
  593POPC   C4B10246  26.216   1.555   7.697
  594POPC   NC310247   1.646  36.170   9.525
  594POPC   PO410248   2.229  35.760   9.535
  594POPC   GL110249   2.032  35.937   9.177
  594POPC   GL210250   2.094  35.618   9.009
  594POPC   C1A10251   1.824  36.047   8.739
  594POPC   D2A10252   1.653  35.985   8.288
  594POPC   C3A10253   1.858  36.226   7.960
  594POPC   C4A10254   1.661  36.478   7.656
  594POPC   C1B10255   2.307  35.906   8.734
  594POPC   C2B10256   2.160  35.950   8.364
  594POPC   C3B10257   2.074  35.770   8.031
  594POPC   C4B10258   2.237  35.875   7.673
  595POPC   NC310259  31.942   7.880   9.782
  595POPC   PO410260  31.574   8.251   9.356
  595POPC   GL110261  31.517   7.986   8.981
  595POPC   GL210262  31.211   7.859   8.953
  595POPC   C1A10263  31.505   8.080   8.535
  595POPC   D2A10264  31.743   8.296   8.212
  595POPC   C3A10265  31.552   8.244   7.797
  595POPC   C4A10266  31.743   8.270   7.392
  595POPC   C1B10267  31.140   8.317   8.816
  595POPC   C2B10268  30.988   8.458   8.413
  595POPC   C3B10269  30.994   8.394   7.973
  595POPC   C4B10270  31.172   8.523   7.585
  596POPC   NC310271  38.848  21.264   9.507
  596POPC   PO410272  39.573  21.468   9.482
  596POPC   GL110273  39.371  21.305   9.166
  596POPC   GL210274  39.366  21.595   8.955
  596POPC   C1A10275  39.371  21.124   8.772
  596POPC   D2A10276  39.356  21.404   8.465
  596POPC   C3A10277  39.491  21.253   8.080
  596POPC   C4A10278  39.392  21.482   7.717
  596POPC   C1B10279  38.954  21.452   8.854
  596POPC   C2B10280  38.807  21.462   8.454
  596POPC   C3B10281  39.011  21.515   8.072
  596POPC   C4B10282  39.033  21.858   7.794
  597POPC   NC310283  39.000  15.459   9.736
  597POPC   PO410284  39.507  16.014   9.556
  597POPC   GL110285  39.264  15.916   9.221
  597POPC   GL210286  38.911  16.032   9.186
  597POPC   C1A10287  39.208  15.727   8.827
  597POPC   D2A10288  39.393  15.657   8.430
  597POPC   C3A10289  39.306  15.956   8.083
  597POPC   C4A10290  39.233  15.813   7.666
  597POPC   C1B10291  39.055  16.234   8.799
  597POPC   C2B10292  38.915  16.365   8.406
  597POPC   C3B10293  39.089  16.437   8.025
  597POPC   C4B10294  39.045  16.274   7.635
  598POPC   NC310295  30.212   1.962   9.472
  598POPC   PO410296  30.875   1.875   9.420
  598POPC   GL110297  30.605   2.105   9.054
  598POPC   GL210298  30.247   2.181   9.024
  598POPC   C1A10299  30.549   2.045   8.569
  598POPC   D2A10300  30.611   1.690   8.227
  598POPC   C3A10301  30.759   1.708   7.779
  598POPC   C4A10302  30.790   2.066   7.470
  598POPC   C1B10303  30.056   1.981   8.697
  598POPC   C2B10304  30.134   1.890   8.282
  598POPC   C3B10305  30.294   1.908   7.854
  598POPC   C4B10306  30.301   2.141   7.466
  599POPC   NC310307  26.774  44.419   9.837
  599POPC   PO410308  26.871  44.605   9.263
  599POPC   GL110309  26.841  44.834   8.938
  599POPC   GL210310  27.036  44.556   8.774
  599POPC   C1A10311  27.104   0.048   8.692
  599POPC   D2A10312  27.203  44.894   8.316
  599POPC   C3A10313  26.816  44.762   8.122
  599POPC   C4A10314  26.654  44.716   7.698
  599POPC   C1B10315  26.595  44.477   8.629
  599POPC   C2B10316  26.532  44.333   8.213
  599POPC   C3B10317  26.893  44.274   7.979
  599POPC   C4B10318  27.057  44.392   7.591
  600POPC   NC310319   0.317  26.536   9.597
  600POPC   PO410320   0.600  27.084   9.436
  600POPC   GL110321   0.451  26.792   9.162
  600POPC   GL210322   0.661  26.493   9.196
  600POPC   C1A10323   0.418  26.740   8.732
  600POPC   D2A10324   0.431  26.559   8.339
  600POPC   C3A10325   0.097  26.691   8.078
  600POPC   C4A10326   0.145  26.857   7.668
  600POPC   C1B10327   0.914  26.764   8.904
  600POPC   C2B10328   0.928  26.753   8.437
  600POPC   C3B10329   0.797  26.798   8.009
  600POPC   C4B10330   0.511  26.529   7.799
  601POPC   NC310331  21.589   1.134   9.513
  601POPC   PO410332  20.876   0.925   9.519
  601POPC   GL110333  21.138   1.113   9.234
  601POPC   GL210334  21.330   0.835   9.167
  601POPC   C1A10335  21.356   1.302   8.854
  601POPC   D2A10336  21.583   1.474   8.472
  601POPC   C3A10337  21.478   1.368   8.018
  601POPC   C4A10338  21.290   1.422   7.576
  601POPC   C1B10339  21.227   0.795   8.761
  601POPC   C2B10340  21.351   0.984   8.377
  601POPC   C3B10341  21.201   0.950   7.958
  601POPC   C4B10342  21.367   0.921   7.573
  602POPC   NC310343  16.728  38.255   9.506
  602POPC   PO410344  16.400  38.799   9.592
  602POPC   GL110345  16.492  38.596   9.176
  602POPC   GL210346  16.817  38.462   9.024
  602POPC   C1A10347  16.393  38.382   8.775
  602POPC   D2A10348  16.703  38.436   8.469
  602POPC   C3A10349  16.661  38.209   8.116
  602POPC   C4A10350  16.662  38.334   7.689
  602POPC   C1B10351  17.090  38.227   8.772
  602POPC   C2B10352  17.172  38.185   8.315
  602POPC   C3B10353  17.090  38.136   7.841
  602POPC   C4B10354  17.119  38.069   7.356
  603POPC   NC310355  30.232  35.948   9.455
  603POPC   PO410356  29.757  36.345   9.525
  603POPC   GL110357  29.945  36.229   9.122
  603POPC   GL210358  29.894  35.866   9.092
  603POPC   C1A10359  29.849  36.179   8.678
  603POPC   D2A10360  29.712  35.944   8.319
  603POPC   C3A10361  29.872  36.165   7.985
  603POPC   C4A10362  29.898  36.553   7.774
  603POPC   C1B10363  30.162  35.751   8.767
  603POPC   C2B10364  30.236  35.976   8.394
  603POPC   C3B10365  30.289  35.831   8.017
  603POPC   C4B10366  30.205  35.946   7.592
  604POPC   NC310367  14.206  25.684   9.526
  604POPC   PO410368  14.563  25.019   9.383
  604POPC   GL110369  14.280  25.229   9.139
  604POPC   GL210370  13.999  25.466   9.131
  604POPC   C1A10371  14.376  25.278   8.718
  604POPC   D2A10372  14.553  25.115   8.356
  604POPC   C3A10373  14.509  25.391   8.034
  604POPC   C4A10374  14.357  25.063   7.759
  604POPC   C1B10375  13.942  25.566   8.735
  604POPC   C2B10376  14.115  25.590   8.333
  604POPC   C3B10377  14.007  25.362   7.957
  604POPC   C4B10378  14.006  25.425   7.520
  605POPC   NC310379  13.872  15.011   9.506
  605POPC   PO410380  13.419  15.499   9.454
  605POPC   GL110381  13.609  15.256   9.114
  605POPC   GL210382  13.610  14.917   9.057
  605POPC   C1A10383  13.758  15.225   8.682
  605POPC   D2A10384  13.566  15.462   8.361
  605POPC   C3A10385  13.660  15.320   7.983
  605POPC   C4A10386  13.624  15.410   7.610
  605POPC   C1B10387  13.291  15.061   8.736
  605POPC   C2B10388  13.213  15.115   8.294
  605POPC   C3B10389  13.240  15.069   7.872
  605POPC   C4B10390  13.548  14.833   7.764
  606POPC   NC310391  36.929  20.979   9.500
  606POPC   PO410392  36.609  21.511   9.716
  606POPC   GL110393  36.915  21.379   9.246
  606POPC   GL210394  37.244  21.447   9.147
  606POPC   C1A10395  36.855  21.355   8.782
  606POPC   D2A10396  36.528  21.307   8.462
  606POPC   C3A10397  36.717  21.392   8.059
  606POPC   C4A10398  36.773  21.679   7.745
  606POPC   C1B10399  37.310  21.632   8.727
  606POPC   C2B10400  37.154  21.465   8.342
  606POPC   C3B10401  37.228  21.435   7.906
  606POPC   C4B10402  37.262  21.762   7.616
  607POPC   NC310403   5.559  20.813   9.405
  607POPC   PO410404   6.103  20.393   9.311
  607POPC   GL110405   5.869  20.324   8.978
  607POPC   GL210406   5.782  20.637   8.990
  607POPC   C1A10407   6.084  20.354   8.602
  607POPC   D2A10408   6.059  20.609   8.268
  607POPC   C3A10409   5.716  20.550   8.026
  607POPC   C4A10410   5.689  20.424   7.602
  607POPC   C1B10411   5.613  20.628   8.563
  607POPC   C2B10412   5.375  20.871   8.255
  607POPC   C3B10413   5.499  20.999   7.870
  607POPC   C4B10414   5.721  20.896   7.469
  608POPC   NC310415  23.347  17.755   9.457
  608POPC   PO410416  23.949  17.380   9.511
  608POPC   GL110417  23.745  17.586   9.184
  608POPC   GL210418  23.473  17.324   9.189
  608POPC   C1A10419  23.510  17.628   8.800
  608POPC   D2A10420  23.660  17.413   8.462
  608POPC   C3A10421  23.561  17.549   8.049
  608POPC   C4A10422  23.857  17.841   7.844
  608POPC   C1B10423  23.841  17.155   8.910
  608POPC   C2B10424  23.886  16.940   8.519
  608POPC   C3B10425  23.744  17.062   8.120
  608POPC   C4B10426  23.886  17.236   7.778
  609POPC   NC310427   9.750  27.100   9.401
  609POPC   PO410428  10.049  27.634   9.433
  609POPC   GL110429   9.845  27.637   9.059
  609POPC   GL210430   9.544  27.861   9.032
  609POPC   C1A10431   9.556  27.403   8.808
  609POPC   D2A10432   9.442  27.276   8.412
  609POPC   C3A10433   9.711  27.411   8.119
  609POPC   C4A10434   9.646  27.324   7.686
  609POPC   C1B10435   9.723  27.873   8.626
  609POPC   C2B10436   9.526  27.879   8.267
  609POPC   C3B10437   9.430  27.767   7.865
  609POPC   C4B10438   9.373  27.997   7.509
  610POPC   NC310439  19.339  33.282   9.746
  610POPC   PO410440  19.058  32.740   9.500
  610POPC   GL110441  18.954  33.010   9.160
  610POPC   GL210442  19.289  32.919   9.078
  610POPC   C1A10443  18.919  33.251   8.756
  610POPC   D2A10444  19.250  33.292   8.501
  610POPC   C3A10445  19.064  33.173   8.128
  610POPC   C4A10446  18.937  33.284   7.717
  610POPC   C1B10447  19.130  32.737   8.715
  610POPC   C2B10448  19.189  32.528   8.331
  610POPC   C3B10449  19.173  32.703   7.914
  610POPC   C4B10450  19.063  32.615   7.484
  611POPC   NC310451  36.977  23.218   9.493
  611POPC   PO410452  37.079  22.496   9.606
  611POPC   GL110453  37.088  22.793   9.195
  611POPC   GL210454  36.809  23.091   9.043
  611POPC   C1A10455  36.975  22.762   8.732
  611POPC   D2A10456  36.892  23.062   8.433
  611POPC   C3A10457  37.027  22.939   8.076
  611POPC   C4A10458  36.843  22.883   7.701
  611POPC   C1B10459  36.502  22.972   8.725
  611POPC   C2B10460  36.346  22.989   8.314
  611POPC   C3B10461  36.554  23.220   7.975
  611POPC   C4B10462  36.488  23.191   7.491
  612POPC   NC310463  33.524  41.074   9.337
  612POPC   PO410464  33.997  40.616   9.573
  612POPC   GL110465  33.789  40.660   9.124
  612POPC   GL210466  33.850  40.872   8.838
  612POPC   C1A10467  33.599  40.481   8.697
  612POPC   D2A10468  33.597  40.792   8.317
  612POPC   C3A10469  33.847  40.792   7.905
  612POPC   C4A10470  33.740  40.760   7.438
  612POPC   C1B10471  33.868  41.193   8.562
  612POPC   C2B10472  33.879  41.265   8.135
  612POPC   C3B10473  33.847  41.277   7.725
  612POPC   C4B10474  34.077  41.152   7.391
  613POPC   NC310475   9.046  42.106   9.383
  613POPC   PO410476   8.890  41.526   9.626
  613POPC   GL110477   8.874  41.430   9.179
  613POPC   GL210478   9.026  41.723   9.084
  613POPC   C1A10479   8.695  41.529   8.765
  613POPC   D2A10480   8.441  41.503   8.415
  613POPC   C3A10481   8.673  41.391   8.074
  613POPC   C4A10482   8.942  41.407   7.718
  613POPC   C1B10483   9.218  41.838   8.710
  613POPC   C2B10484   9.008  41.679   8.362
  613POPC   C3B10485   9.007  41.839   7.958
  613POPC   C4B10486   9.341  41.876   7.645
  614POPC   NC310487  28.557  42.419   9.401
  614POPC   PO410488  28.101  41.935   9.332
  614POPC   GL110489  28.333  42.154   8.974
  614POPC   GL210490  28.699  42.219   8.961
  614POPC   C1A10491  28.255  42.538   8.739
  614POPC   D2A10492  27.973  42.597   8.394
  614POPC   C3A10493  28.118  42.314   8.093
  614POPC   C4A10494  28.082  42.090   7.716
  614POPC   C1B10495  28.855  42.170   8.550
  614POPC   C2B10496  28.607  42.417   8.271
  614POPC   C3B10497  28.541  42.448   7.846
  614POPC   C4B10498  28.553  42.201   7.503
  615POPC   NC310499  44.775  26.134   9.460
  615POPC   PO410500   0.479  26.091   9.511
  615POPC   GL110501   0.276  26.118   9.167
  615POPC   GL210502   0.097  26.414   9.146
  615POPC   C1A10503   0.417  26.138   8.769
  615POPC   D2A10504   0.223  26.073   8.391
  615POPC   C3A10505   0.541  26.102   8.113
  615POPC   C4A10506   0.458  25.998   7.729
  615POPC   C1B10507  44.985  26.424   8.712
  615POPC   C2B10508  44.763  26.313   8.335
  615POPC   C3B10509  44.887  26.261   7.884
  615POPC   C4B10510   0.130  26.360   7.511
  616POPC   NC310511   6.340   8.955   9.589
  616POPC   PO410512   7.027   9.007   9.491
  616POPC   GL110513   6.750   9.002   9.185
  616POPC   GL210514   6.498   9.267   9.164
  616POPC   C1A10515   6.911   8.949   8.791
  616POPC   D2A10516   6.823   9.103   8.437
  616POPC   C3A10517   6.873   8.843   8.085
  616POPC   C4A10518   6.801   9.046   7.725
  616POPC   C1B10519   6.395   8.914   8.833
  616POPC   C2B10520   6.314   9.045   8.392
  616POPC   C3B10521   6.511   9.284   8.068
  616POPC   C4B10522   6.416   9.348   7.620
  617POPC   NC310523  41.924  13.678   9.517
  617POPC   PO410524  41.374  13.341   9.456
  617POPC   GL110525  41.579  13.562   9.139
  617POPC   GL210526  41.824  13.806   9.023
  617POPC   C1A10527  41.547  13.385   8.757
  617POPC   D2A10528  41.272  13.515   8.440
  617POPC   C3A10529  41.502  13.516   8.074
  617POPC   C4A10530  41.322  13.527   7.683
  617POPC   C1B10531  41.807  13.782   8.563
  617POPC   C2B10532  41.489  14.009   8.332
  617POPC   C3B10533  41.381  14.007   7.900
  617POPC   C4B10534  41.761  13.814   7.726
  618POPC   NC310535  30.727   7.252   9.526
  618POPC   PO410536  30.601   6.578   9.544
  618POPC   GL110537  30.620   6.825   9.208
  618POPC   GL210538  30.949   6.777   9.181
  618POPC   C1A10539  30.435   6.697   8.839
  618POPC   D2A10540  30.494   6.441   8.483
  618POPC   C3A10541  30.292   6.582   8.144
  618POPC   C4A10542  30.357   6.574   7.717
  618POPC   C1B10543  30.905   6.523   8.792
  618POPC   C2B10544  30.945   6.694   8.363
  618POPC   C3B10545  30.776   6.487   8.030
  618POPC   C4B10546  30.793   6.303   7.638
  619POPC   NC310547  18.005  20.467   9.541
  619POPC   PO410548  18.280  21.115   9.537
  619POPC   GL110549  18.319  20.773   9.213
  619POPC   GL210550  18.073  20.520   9.047
  619POPC   C1A10551  18.430  20.717   8.770
  619POPC   D2A10552  18.265  20.523   8.393
  619POPC   C3A10553  18.415  20.731   8.057
  619POPC   C4A10554  18.220  20.919   7.715
  619POPC   C1B10555  17.946  20.253   8.689
  619POPC   C2B10556  17.967  20.127   8.237
  619POPC   C3B10557  18.137  20.326   7.870
  619POPC   C4B10558  18.509  20.462   7.625
  620POPC   NC310559  30.326  14.458   9.702
  620POPC   PO410560  29.649  14.504   9.574
  620POPC   GL110561  29.917  14.494   9.186
  620POPC   GL210562  30.232  14.673   9.163
  620POPC   C1A10563  30.043  14.303   8.762
  620POPC   D2A10564  30.267  14.343   8.376
  620POPC   C3A10565  30.074  14.336   7.984
  620POPC   C4A10566  30.144  14.171   7.610
  620POPC   C1B10567  30.081  14.821   8.737
  620POPC   C2B10568  29.976  14.751   8.282
  620POPC   C3B10569  29.857  14.810   7.840
  620POPC   C4B10570  29.528  14.762   7.514
  621POPC   NC310571   7.240  39.728   9.381
  621POPC   PO410572   7.699  39.296   9.605
  621POPC   GL110573   7.599  39.372   9.171
  621POPC   GL210574   7.862  39.537   9.163
  621POPC   C1A10575   7.408  39.241   8.750
  621POPC   D2A10576   7.225  39.204   8.328
  621POPC   C3A10577   7.298  39.504   7.992
  621POPC   C4A10578   7.236  39.297   7.615
  621POPC   C1B10579   7.932  39.344   8.779
  621POPC   C2B10580   7.781  39.140   8.402
  621POPC   C3B10581   7.770  39.272   7.974
  621POPC   C4B10582   7.723  39.166   7.542
  622POPC   NC310583  20.688  34.465   9.486
  622POPC   PO410584  20.811  35.111   9.481
  622POPC   GL110585  20.817  34.841   9.116
  622POPC   GL210586  20.483  34.751   9.072
  622POPC   C1A10587  20.823  34.718   8.653
  622POPC   D2A10588  20.589  34.594   8.251
  622POPC   C3A10589  20.756  34.519   7.822
  622POPC   C4A10590  20.886  34.613   7.384
  622POPC   C1B10591  20.239  34.633   8.713
  622POPC   C2B10592  20.131  34.846   8.340
  622POPC   C3B10593  20.156  34.690   7.938
  622POPC   C4B10594  20.400  34.739   7.517
  623POPC   NC310595  31.654  26.805   9.651
  623POPC   PO410596  31.102  26.610   9.455
  623POPC   GL110597  31.533  26.577   9.197
  623POPC   GL210598  31.673  26.927   9.148
  623POPC   C1A10599  31.765  26.610   8.778
  623POPC   D2A10600  31.669  26.775   8.385
  623POPC   C3A10601  31.487  26.551   8.106
  623POPC   C4A10602  31.494  26.566   7.681
  623POPC   C1B10603  31.366  26.948   8.766
  623POPC   C2B10604  31.206  26.995   8.302
  623POPC   C3B10605  31.312  27.041   7.868
  623POPC   C4B10606  31.157  27.310   7.514
  624POPC   NC310607  21.289  21.430   9.683
  624POPC   PO410608  21.863  21.069   9.691
  624POPC   GL110609  21.599  21.310   9.287
  624POPC   GL210610  21.236  21.495   9.177
  624POPC   C1A10611  21.597  21.538   8.849
  624POPC   D2A10612  21.612  21.334   8.453
  624POPC   C3A10613  21.624  21.611   8.127
  624POPC   C4A10614  21.617  21.456   7.676
  624POPC   C1B10615  21.181  21.246   8.783
  624POPC   C2B10616  21.104  21.467   8.383
  624POPC   C3B10617  21.180  21.439   7.951
  624POPC   C4B10618  21.084  21.657   7.588
  625POPC   NC310619  28.538   3.540   9.613
  625POPC   PO410620  27.896   3.422   9.487
  625POPC   GL110621  28.248   3.450   9.194
  625POPC   GL210622  28.570   3.246   9.193
  625POPC   C1A10623  28.395   3.573   8.788
  625POPC   D2A10624  28.314   3.377   8.387
  625POPC   C3A10625  28.420   3.651   8.035
  625POPC   C4A10626  28.050   3.593   7.869
  625POPC   C1B10627  28.648   3.141   8.738
  625POPC   C2B10628  28.706   3.037   8.291
  625POPC   C3B10629  28.454   3.152   7.929
  625POPC   C4B10630  28.582   3.398   7.575
  626POPC   NC310631  23.270  38.877   9.355
  626POPC   PO410632  22.934  38.352   9.750
  626POPC   GL110633  22.992  38.448   9.312
  626POPC   GL210634  23.287  38.327   9.131
  626POPC   C1A10635  22.839  38.421   8.882
  626POPC   D2A10636  22.592  38.257   8.515
  626POPC   C3A10637  22.707  38.437   8.118
  626POPC   C4A10638  22.593  38.505   7.692
  626POPC   C1B10639  23.358  38.540   8.746
  626POPC   C2B10640  23.369  38.334   8.345
  626POPC   C3B10641  23.344  38.231   7.924
  626POPC   C4B10642  23.084  38.587   7.760
  627POPC   NC310643  40.227  43.638   9.663
  627POPC   PO410644  39.660  43.811   9.752
  627POPC   GL110645  39.832  43.798   9.289
  627POPC   GL210646  40.169  43.937   9.188
  627POPC   C1A10647  39.814  43.877   8.809
  627POPC   D2A10648  40.127  43.910   8.467
  627POPC   C3A10649  40.038  43.777   8.045
  627POPC   C4A10650  40.075  43.971   7.634
  627POPC   C1B10651  40.250  43.611   8.864
  627POPC   C2B10652  40.334  43.459   8.424
  627POPC   C3B10653  40.516  43.557   8.056
  627POPC   C4B10654  40.287  43.470   7.691
  628POPC   NC310655  27.422   0.151   9.536
  628POPC   PO410656  27.654   0.809   9.515
  628POPC   GL110657  27.584   0.665   9.115
  628POPC   GL210658  27.418   0.385   9.101
  628POPC   C1A10659  27.751   0.522   8.730
  628POPC   D2A10660  27.905   0.636   8.345
  628POPC   C3A10661  27.720   0.493   7.994
  628POPC   C4A10662  28.000   0.473   7.651
  628POPC   C1B10663  27.231   0.526   8.760
  628POPC   C2B10664  27.349   0.389   8.383
  628POPC   C3B10665  27.168   0.355   8.019
  628POPC   C4B10666  27.308   0.520   7.677
  629POPC   NC310667  40.044  41.999   9.320
  629POPC   PO410668  39.933  42.646   9.522
  629POPC   GL110669  40.197  42.479   9.172
  629POPC   GL210670  39.914  42.380   8.957
  629POPC   C1A10671  40.376  42.237   8.807
  629POPC   D2A10672  40.188  42.419   8.436
  629POPC   C3A10673  40.281  42.235   8.061
  629POPC   C4A10674  40.223  42.282   7.656
  629POPC   C1B10675  39.918  42.010   8.646
  629POPC   C2B10676  39.856  41.956   8.212
  629POPC   C3B10677  39.779  42.285   7.929
  629POPC   C4B10678  39.751  42.534   7.531
  630POPC   NC310679   0.253  44.076   9.514
  630POPC   PO410680   0.365  43.464   9.693
  630POPC   GL110681   0.500  43.635   9.232
  630POPC   GL210682   0.333  43.931   9.035
  630POPC   C1A10683   0.515  43.514   8.762
  630POPC   D2A10684   0.415  43.464   8.294
  630POPC   C3A10685   0.485  43.754   7.929
  630POPC   C4A10686   0.865  43.905   7.720
  630POPC   C1B10687   0.088  43.801   8.683
  630POPC   C2B10688   0.203  43.990   8.302
  630POPC   C3B10689   0.031  44.065   7.908
  630POPC   C4B10690   0.243  43.958   7.501
  631POPC   NC310691   3.301  29.033   9.600
  631POPC   PO410692   3.565  29.610   9.367
  631POPC   GL110693   3.414  29.309   9.131
  631POPC   GL210694   3.558  28.988   9.149
  631POPC   C1A10695   3.586  29.348   8.746
  631POPC   D2A10696   3.345  29.427   8.442
  631POPC   C3A10697   3.412  29.143   8.155
  631POPC   C4A10698   3.462  29.301   7.758
  631POPC   C1B10699   3.363  28.893   8.728
  631POPC   C2B10700   3.159  28.708   8.381
  631POPC   C3B10701   3.350  28.652   7.986
  631POPC   C4B10702   3.411  28.811   7.556
  632POPC   NC310703  39.880   1.421   9.456
  632POPC   PO410704  40.075   0.702   9.432
  632POPC   GL110705  39.878   0.982   9.164
  632POPC   GL210706  40.113   1.218   9.073
  632POPC   C1A10707  39.740   1.117   8.752
  632POPC   D2A10708  39.832   0.910   8.372
  632POPC   C3A10709  39.829   1.140   8.017
  632POPC   C4A10710  39.447   1.236   7.853
  632POPC   C1B10711  40.255   1.001   8.730
  632POPC   C2B10712  40.313   1.153   8.325
  632POPC   C3B10713  40.262   1.462   8.013
  632POPC   C4B10714  40.286   1.184   7.717
  633POPC   NC310715  16.446  28.114   9.499
  633POPC   PO410716  17.037  28.536   9.505
  633POPC   GL110717  16.895  28.289   9.172
  633POPC   GL210718  16.573  28.423   9.135
  633POPC   C1A10719  16.994  28.152   8.741
  633POPC   D2A10720  16.807  28.120   8.316
  633POPC   C3A10721  17.019  28.045   7.907
  633POPC   C4A10722  17.148  28.353   7.597
  633POPC   C1B10723  16.472  28.275   8.732
  633POPC   C2B10724  16.404  28.442   8.321
  633POPC   C3B10725  16.531  28.311   7.903
  633POPC   C4B10726  16.298  28.263   7.500
  634POPC   NC310727   0.308   4.930   9.520
  634POPC   PO410728   0.990   4.664   9.424
  634POPC   GL110729   0.639   4.811   9.139
  634POPC   GL210730   0.477   5.172   9.121
  634POPC   C1A10731   0.405   4.846   8.758
  634POPC   D2A10732   0.246   5.166   8.469
  634POPC   C3A10733   0.166   5.007   8.046
  634POPC   C4A10734   0.336   5.159   7.653
  634POPC   C1B10735   0.682   5.315   8.795
  634POPC   C2B10736   0.647   5.495   8.420
  634POPC   C3B10737   0.549   5.358   8.061
  634POPC   C4B10738   0.791   5.373   7.718
  635POPC   NC310739  21.952  16.978   9.522
  635POPC   PO410740  22.502  16.533   9.478
  635POPC   GL110741  22.264  16.573   9.141
  635POPC   GL210742  22.317  16.905   9.135
  635POPC   C1A10743  22.412  16.536   8.740
  635POPC   D2A10744  22.164  16.518   8.411
  635POPC   C3A10745  22.367  16.493   8.047
  635POPC   C4A10746  22.171  16.616   7.676
  635POPC   C1B10747  22.103  16.958   8.753
  635POPC   C2B10748  21.823  16.893   8.438
  635POPC   C3B10749  22.014  16.894   8.065
  635POPC   C4B10750  22.049  17.125   7.698
  636POPC   NC310751   8.641  13.370   9.426
  636POPC   PO410752   9.107  13.926   9.469
  636POPC   GL110753   8.837  13.785   9.098
  636POPC   GL210754   8.775  13.419   8.955
  636POPC   C1A10755   8.938  13.763   8.648
  636POPC   D2A10756   8.900  13.477   8.321
  636POPC   C3A10757   9.082  13.690   7.979
  636POPC   C4A10758   8.841  13.966   7.726
  636POPC   C1B10759   8.701  13.097   8.660
  636POPC   C2B10760   8.762  12.980   8.231
  636POPC   C3B10761   8.951  13.206   7.855
  636POPC   C4B10762   8.911  13.111   7.398
  637POPC   NC310763  42.286  24.700   9.579
  637POPC   PO410764  42.597  24.102   9.377
  637POPC   GL110765  42.276  24.380   9.169
  637POPC   GL210766  42.443  24.687   9.088
  637POPC   C1A10767  42.094  24.501   8.756
  637POPC   D2A10768  42.073  24.265   8.370
  637POPC   C3A10769  42.255  24.442   8.023
  637POPC   C4A10770  42.373  24.230   7.625
  637POPC   C1B10771  42.603  24.376   8.773
  637POPC   C2B10772  42.634  24.479   8.365
  637POPC   C3B10773  42.747  24.411   7.946
  637POPC   C4B10774  42.556  24.695   7.660
  638POPC   NC310775  33.740  11.675   9.606
  638POPC   PO410776  33.960  11.013   9.658
  638POPC   GL110777  33.911  11.147   9.226
  638POPC   GL210778  33.830  11.511   9.140
  638POPC   C1A10779  34.036  11.217   8.779
  638POPC   D2A10780  33.910  11.461   8.421
  638POPC   C3A10781  33.971  11.203   8.024
  638POPC   C4A10782  33.727  11.004   7.677
  638POPC   C1B10783  33.545  11.655   8.813
  638POPC   C2B10784  33.385  11.824   8.448
  638POPC   C3B10785  33.560  11.682   8.086
  638POPC   C4B10786  33.710  11.518   7.720
  639POPC   NC310787  13.343   7.877   9.514
  639POPC   PO410788  13.946   8.327   9.479
  639POPC   GL110789  13.543   8.278   9.227
  639POPC   GL210790  13.647   7.975   9.084
  639POPC   C1A10791  13.393   8.347   8.797
  639POPC   D2A10792  13.485   8.096   8.464
  639POPC   C3A10793  13.342   8.118   8.044
  639POPC   C4A10794  13.537   8.149   7.642
  639POPC   C1B10795  13.897   8.261   8.823
  639POPC   C2B10796  14.010   8.151   8.434
  639POPC   C3B10797  13.863   8.150   8.052
  639POPC   C4B10798  14.059   8.089   7.679
  640POPC   NC310799  42.165   0.848   9.424
  640POPC   PO410800  42.433   1.469   9.563
  640POPC   GL110801  42.521   1.372   9.138
  640POPC   GL210802  42.651   1.047   9.157
  640POPC   C1A10803  42.416   1.398   8.722
  640POPC   D2A10804  42.205   1.430   8.337
  640POPC   C3A10805  42.278   1.251   7.939
  640POPC   C4A10806  42.009   0.919   7.767
  640POPC   C1B10807  42.393   0.903   8.789
  640POPC   C2B10808  42.502   0.978   8.359
  640POPC   C3B10809  42.484   0.781   7.930
  640POPC   C4B10810  42.471   0.938   7.469
  641POPC   NC310811  21.358  30.857   9.465
  641POPC   PO410812  22.004  30.580   9.508
  641POPC   GL110813  21.676  30.499   9.184
  641POPC   GL210814  21.323  30.366   9.210
  641POPC   C1A10815  21.497  30.615   8.788
  641POPC   D2A10816  21.589  30.865   8.444
  641POPC   C3A10817  21.573  30.636   8.083
  641POPC   C4A10818  21.492  30.833   7.710
  641POPC   C1B10819  21.024  30.446   8.837
  641POPC   C2B10820  21.125  30.657   8.408
  641POPC   C3B10821  21.051  30.707   7.960
  641POPC   C4B10822  20.841  30.360   7.706
  642POPC   NC310823  41.964  27.426   9.808
  642POPC   PO410824  42.506  27.344   9.393
  642POPC   GL110825  42.381  27.635   9.073
  642POPC   GL210826  42.581  27.913   9.014
  642POPC   C1A10827  42.214  27.593   8.667
  642POPC   D2A10828  42.123  27.818   8.279
  642POPC   C3A10829  42.130  27.525   7.957
  642POPC   C4A10830  42.191  27.661   7.568
  642POPC   C1B10831  42.725  27.635   8.706
  642POPC   C2B10832  42.563  27.555   8.293
  642POPC   C3B10833  42.605  27.711   7.882
  642POPC   C4B10834  42.710  27.767   7.445
  643POPC   NC310835  18.052  34.844   9.285
  643POPC   PO410836  18.577  34.350   9.491
  643POPC   GL110837  18.346  34.426   9.121
  643POPC   GL210838  17.998  34.380   9.025
  643POPC   C1A10839  18.429  34.392   8.705
  643POPC   D2A10840  18.521  34.719   8.421
  643POPC   C3A10841  18.491  34.567   8.030
  643POPC   C4A10842  18.628  34.769   7.692
  643POPC   C1B10843  18.044  34.738   8.675
  643POPC   C2B10844  18.041  34.825   8.245
  643POPC   C3B10845  18.068  34.771   7.807
  643POPC   C4B10846  17.879  34.951   7.486
  644POPC   NC310847   7.111  29.923   9.411
  644POPC   PO410848   7.858  30.125   9.389
  644POPC   GL110849   7.528  30.021   9.128
  644POPC   GL210850   7.678  29.743   8.982
  644POPC   C1A10851   7.360  30.034   8.721
  644POPC   D2A10852   7.589  29.860   8.392
  644POPC   C3A10853   7.449  30.145   8.096
  644POPC   C4A10854   7.365  30.236   7.697
  644POPC   C1B10855   7.255  29.561   8.890
  644POPC   C2B10856   7.186  29.459   8.496
  644POPC   C3B10857   7.149  29.707   8.156
  644POPC   C4B10858   7.228  29.686   7.726
  645POPC   NC310859   9.495   6.351   9.450
  645POPC   PO410860   9.778   5.734   9.678
  645POPC   GL110861   9.811   5.936   9.278
  645POPC   GL210862   9.760   5.588   9.180
  645POPC   C1A10863   9.847   5.933   8.832
  645POPC   D2A10864   9.819   5.678   8.474
  645POPC   C3A10865   9.841   5.967   8.159
  645POPC   C4A10866   9.882   5.821   7.772
  645POPC   C1B10867   9.393   5.678   8.923
  645POPC   C2B10868   9.315   5.564   8.489
  645POPC   C3B10869   9.453   5.649   8.065
  645POPC   C4B10870   9.417   5.797   7.615
  646POPC   NC310871  21.122  31.524   9.508
  646POPC   PO410872  20.449  31.600   9.586
  646POPC   GL110873  20.493  31.441   9.178
  646POPC   GL210874  20.794  31.639   9.125
  646POPC   C1A10875  20.417  31.538   8.746
  646POPC   D2A10876  20.616  31.519   8.359
  646POPC   C3A10877  20.399  31.535   7.961
  646POPC   C4A10878  20.664  31.519   7.616
  646POPC   C1B10879  20.942  31.442   8.791
  646POPC   C2B10880  21.119  31.347   8.399
  646POPC   C3B10881  21.028  31.557   8.033
  646POPC   C4B10882  21.178  31.433   7.684
  647POPC   NC310883  20.393  31.096   9.566
  647POPC   PO410884  20.946  30.644   9.490
  647POPC   GL110885  20.693  30.841   9.223
  647POPC   GL210886  20.908  31.130   9.240
  647POPC   C1A10887  20.541  30.708   8.837
  647POPC   D2A10888  20.671  30.445   8.477
  647POPC   C3A10889  20.575  30.605   8.102
  647POPC   C4A10890  20.473  30.705   7.690
  647POPC   C1B10891  21.036  30.956   8.830
  647POPC   C2B10892  20.746  30.997   8.456
  647POPC   C3B10893  20.706  31.121   8.025
  647POPC   C4B10894  20.872  31.046   7.636
  648POPC   NC310895   7.878  13.243   9.509
  648POPC   PO410896   8.112  13.860   9.402
  648POPC   GL110897   8.321  13.638   9.097
  648POPC   GL210898   8.030  13.456   9.057
  648POPC   C1A10899   8.410  13.596   8.647
  648POPC   D2A10900   8.399  13.353   8.273
  648POPC   C3A10901   8.572  13.548   7.921
  648POPC   C4A10902   8.529  13.420   7.492
  648POPC   C1B10903   7.936  13.793   8.778
  648POPC   C2B10904   8.135  14.012   8.466
  648POPC   C3B10905   8.088  13.759   8.108
  648POPC   C4B10906   8.164  13.719   7.687
  649POPC   NC310907  13.512  27.287   9.487
  649POPC   PO410908  13.380  28.007   9.610
  649POPC   GL110909  13.500  27.782   9.260
  649POPC   GL210910  13.255  27.572   9.120
  649POPC   C1A10911  13.670  27.779   8.861
  649POPC   D2A10912  13.499  28.015   8.501
  649POPC   C3A10913  13.581  27.778   8.132
  649POPC   C4A10914  13.754  27.602   7.741
  649POPC   C1B10915  13.255  27.557   8.649
  649POPC   C2B10916  13.096  27.587   8.232
  649POPC   C3B10917  13.295  27.361   7.906
  649POPC   C4B10918  13.187  27.002   7.634
  650POPC   NC310919  25.843  36.689   9.345
  650POPC   PO410920  26.174  37.315   9.436
  650POPC   GL110921  26.193  36.990   9.110
  650POPC   GL210922  26.264  36.592   9.081
  650POPC   C1A10923  26.127  37.053   8.690
  650POPC   D2A10924  26.020  37.343   8.360
  650POPC   C3A10925  25.960  37.165   7.970
  650POPC   C4A10926  26.149  37.131   7.568
  650POPC   C1B10927  26.089  36.525   8.657
  650POPC   C2B10928  25.986  36.751   8.260
  650POPC   C3B10929  25.977  36.685   7.784
  650POPC   C4B10930  25.955  36.373   7.406
  651POPC   NC310931  33.713  20.725   9.662
  651POPC   PO410932  33.623  20.102   9.444
  651POPC   GL110933  33.820  20.476   9.203
  651POPC   GL210934  33.865  20.882   9.216
  651POPC   C1A10935  33.845  20.623   8.777
  651POPC   D2A10936  33.609  20.624   8.390
  651POPC   C3A10937  33.795  20.552   8.019
  651POPC   C4A10938  33.644  20.503   7.594
  651POPC   C1B10939  33.825  21.128   8.840
  651POPC   C2B10940  34.009  21.000   8.452
  651POPC   C3B10941  34.032  21.015   8.042
  651POPC   C4B10942  33.767  20.977   7.734
  652POPC   NC310943  26.386  30.840   9.550
  652POPC   PO410944  27.123  31.007   9.421
  652POPC   GL110945  26.872  30.691   9.142
  652POPC   GL210946  26.503  30.585   9.124
  652POPC   C1A10947  26.753  30.722   8.703
  652POPC   D2A10948  26.762  30.968   8.360
  652POPC   C3A10949  26.830  30.712   8.010
  652POPC   C4A10950  26.939  30.770   7.602
  652POPC   C1B10951  26.362  30.410   8.751
  652POPC   C2B10952  26.467  30.514   8.303
  652POPC   C3B10953  26.422  30.453   7.836
  652POPC   C4B10954  26.545  30.429   7.398
  653POPC   NC310955  25.259   5.716   9.432
  653POPC   PO410956  25.371   6.363   9.670
  653POPC   GL110957  25.270   6.213   9.215
  653POPC   GL210958  25.532   6.052   9.071
  653POPC   C1A10959  25.237   6.278   8.748
  653POPC   D2A10960  25.486   6.290   8.358
  653POPC   C3A10961  25.263   6.095   8.006
  653POPC   C4A10962  25.123   6.131   7.562
  653POPC   C1B10963  25.511   5.826   8.690
  653POPC   C2B10964  25.683   5.816   8.277
  653POPC   C3B10965  25.731   5.975   7.860
  653POPC   C4B10966  25.421   5.698   7.641
  654POPC   NC310967   5.042  10.134   9.376
  654POPC   PO410968   5.474   9.563   9.429
  654POPC   GL110969   5.349   9.855   9.104
  654POPC   GL210970   5.011   9.707   9.067
  654POPC   C1A10971   5.225  10.077   8.725
  654POPC   D2A10972   5.120   9.863   8.345
  654POPC   C3A10973   5.173   9.883   7.907
  654POPC   C4A10974   5.012   9.470   7.812
  654POPC   C1B10975   4.748   9.880   8.755
  654POPC   C2B10976   4.640  10.029   8.387
  654POPC   C3B10977   4.649   9.808   8.004
  654POPC   C4B10978   4.771   9.856   7.564
  655POPC   NC310979  32.021  20.417   9.338
  655POPC   PO410980  32.652  20.552   9.466
  655POPC   GL110981  32.435  20.586   9.100
  655POPC   GL210982  32.503  20.233   9.080
  655POPC   C1A10983  32.248  20.775   8.728
  655POPC   D2A10984  32.344  20.996   8.350
  655POPC   C3A10985  32.370  20.747   7.982
  655POPC   C4A10986  31.972  20.608   7.887
  655POPC   C1B10987  32.259  20.238   8.709
  655POPC   C2B10988  32.222  20.422   8.344
  655POPC   C3B10989  32.308  20.231   7.977
  655POPC   C4B10990  32.493  20.334   7.647
  656POPC   NC310991  27.071  33.592   9.360
  656POPC   PO410992  27.050  34.269   9.477
  656POPC   GL110993  26.941  34.016   9.089
  656POPC   GL210994  26.637  33.776   9.128
  656POPC   C1A10995  26.884  33.776   8.680
  656POPC   D2A10996  26.603  33.640   8.335
  656POPC   C3A10997  26.813  33.557   7.961
  656POPC   C4A10998  26.801  33.933   7.751
  656POPC   C1B10999  26.377  33.938   8.765
  656POPC   C2B11000  26.326  34.086   8.329
  656POPC   C3B11001  26.300  33.868   7.895
  656POPC   C4B11002  26.375  34.051   7.446
  657POPC   NC311003  10.169  42.323   9.464
  657POPC   PO411004   9.483  42.189   9.548
  657POPC   GL111005   9.492  42.069   9.120
  657POPC   GL211006   9.567  42.402   9.085
  657POPC   C1A11007   9.762  42.061   8.740
  657POPC   D2A11008   9.867  41.886   8.338
  657POPC   C3A11009   9.628  42.127   8.001
  657POPC   C4A11010   9.788  42.212   7.570
  657POPC   C1B11011   9.721  42.619   8.768
  657POPC   C2B11012   9.604  42.480   8.380
  657POPC   C3B11013   9.527  42.636   8.002
  657POPC   C4B11014   9.708  42.713   7.633
  658POPC   NC311015   9.307  15.613   9.290
  658POPC   PO411016   8.956  15.187   9.666
  658POPC   GL111017   8.935  15.129   9.185
  658POPC   GL211018   8.881  15.457   9.039
  658POPC   C1A11019   8.684  15.088   8.759
  658POPC   D2A11020   8.837  14.961   8.333
  658POPC   C3A11021   8.766  15.237   7.962
  658POPC   C4A11022   8.927  15.279   7.502
  658POPC   C1B11023   9.177  15.243   8.734
  658POPC   C2B11024   9.313  15.188   8.300
  658POPC   C3B11025   9.299  15.255   7.860
  658POPC   C4B11026   9.400  15.614   7.593
  659POPC   NC311027  13.224  13.478   9.411
  659POPC   PO411028  13.842  13.739   9.469
  659POPC   GL111029  13.917  13.838   9.073
  659POPC   GL211030  13.590  13.636   9.017
  659POPC   C1A11031  13.706  14.023   8.727
  659POPC   D2A11032  13.473  13.751   8.438
  659POPC   C3A11033  13.654  13.746   8.040
  659POPC   C4A11034  13.438  13.783   7.662
  659POPC   C1B11035  13.407  13.287   8.810
  659POPC   C2B11036  13.194  13.213   8.469
  659POPC   C3B11037  13.366  13.328   8.117
  659POPC   C4B11038  13.541  13.304   7.734
  660POPC   NC311039  12.504  25.124   9.435
  660POPC   PO411040  13.224  24.941   9.490
  660POPC   GL111041  13.151  24.981   9.096
  660POPC   GL211042  12.833  24.880   9.123
  660POPC   C1A11043  13.031  25.322   8.833
  660POPC   D2A11044  12.693  25.466   8.566
  660POPC   C3A11045  12.714  25.373   8.128
  660POPC   C4A11046  12.707  25.410   7.684
  660POPC   C1B11047  12.666  24.982   8.738
  660POPC   C2B11048  12.729  24.882   8.311
  660POPC   C3B11049  12.607  24.925   7.880
  660POPC   C4B11050  12.603  24.954   7.418
  661POPC   NC311051  12.482  35.818   9.882
  661POPC   PO411052  13.043  36.069   9.527
  661POPC   GL111053  13.037  36.257   9.154
  661POPC   GL211054  12.679  36.356   9.134
  661POPC   C1A11055  13.124  36.001   8.784
  661POPC   D2A11056  12.887  35.838   8.422
  661POPC   C3A11057  13.021  36.021   8.037
  661POPC   C4A11058  13.140  36.160   7.631
  661POPC   C1B11059  12.707  36.288   8.690
  661POPC   C2B11060  12.592  36.260   8.256
  661POPC   C3B11061  12.643  36.364   7.819
  661POPC   C4B11062  12.724  36.295   7.393
  662POPC   NC311063  15.421  38.420   9.505
  662POPC   PO411064  14.800  38.604   9.628
  662POPC   GL111065  14.964  38.385   9.214
  662POPC   GL211066  14.714  38.170   8.994
  662POPC   C1A11067  15.176  38.266   8.775
  662POPC   D2A11068  15.013  38.185   8.342
  662POPC   C3A11069  15.283  38.353   7.995
  662POPC   C4A11070  15.494  38.256   7.618
  662POPC   C1B11071  14.753  38.564   8.786
  662POPC   C2B11072  14.823  38.669   8.379
  662POPC   C3B11073  14.775  38.497   7.981
  662POPC   C4B11074  14.885  38.781   7.708
  663POPC   NC311075   8.128  35.942   9.787
  663POPC   PO411076   8.073  35.502   9.386
  663POPC   GL111077   8.229  35.765   9.099
  663POPC   GL211078   8.316  36.086   9.104
  663POPC   C1A11079   8.384  35.698   8.721
  663POPC   D2A11080   8.292  35.961   8.416
  663POPC   C3A11081   8.234  35.809   8.023
  663POPC   C4A11082   8.103  36.067   7.750
  663POPC   C1B11083   8.013  36.210   8.824
  663POPC   C2B11084   7.778  36.492   8.564
  663POPC   C3B11085   7.868  36.450   8.099
  663POPC   C4B11086   7.875  36.496   7.666
  664POPC   NC311087  33.281   9.356   9.400
  664POPC   PO411088  32.886   8.888   9.503
  664POPC   GL111089  33.061   8.890   9.127
  664POPC   GL211090  33.042   9.206   8.983
  664POPC   C1A11091  33.209   8.796   8.748
  664POPC   D2A11092  33.015   9.056   8.467
  664POPC   C3A11093  33.038   8.834   8.113
  664POPC   C4A11094  33.036   8.673   7.726
  664POPC   C1B11095  32.727   9.410   8.773
  664POPC   C2B11096  32.489   9.225   8.476
  664POPC   C3B11097  32.674   9.255   8.110
  664POPC   C4B11098  32.828   9.144   7.732
  665POPC   NC311099  16.796  21.777   9.522
  665POPC   PO411100  16.334  21.279   9.612
  665POPC   GL111101  16.555  21.406   9.184
  665POPC   GL211102  16.869  21.554   9.080
  665POPC   C1A11103  16.552  21.247   8.715
  665POPC   D2A11104  16.408  21.169   8.284
  665POPC   C3A11105  16.533  21.437   7.937
  665POPC   C4A11106  16.476  21.604   7.529
  665POPC   C1B11107  17.014  21.464   8.701
  665POPC   C2B11108  16.885  21.417   8.299
  665POPC   C3B11109  17.049  21.390   7.866
  665POPC   C4B11110  16.938  21.465   7.394
  666POPC   NC311111  26.103  21.641   9.386
  666POPC   PO411112  25.557  21.599   9.713
  666POPC   GL111113  25.669  21.466   9.190
  666POPC   GL211114  26.010  21.304   9.028
  666POPC   C1A11115  25.814  21.650   8.736
  666POPC   D2A11116  25.820  21.417   8.337
  666POPC   C3A11117  25.855  21.562   7.925
  666POPC   C4A11118  26.247  21.661   7.724
  666POPC   C1B11119  26.188  20.989   8.755
  666POPC   C2B11120  26.013  20.950   8.357
  666POPC   C3B11121  26.137  21.093   7.963
  666POPC   C4B11122  26.223  20.835   7.613
  667POPC   NC311123  32.038  19.604   9.438
  667POPC   PO411124  32.681  19.766   9.427
  667POPC   GL111125  32.383  19.733   9.084
  667POPC   GL211126  32.065  19.950   9.069
  667POPC   C1A11127  32.235  19.676   8.680
  667POPC   D2A11128  32.336  19.858   8.319
  667POPC   C3A11129  32.382  19.608   7.964
  667POPC   C4A11130  32.325  19.853   7.566
  667POPC   C1B11131  31.807  19.964   8.708
  667POPC   C2B11132  31.859  20.071   8.300
  667POPC   C3B11133  31.955  19.878   7.914
  667POPC   C4B11134  31.902  20.203   7.597
  668POPC   NC311135  17.150   0.994   9.712
  668POPC   PO411136  17.649   1.324   9.459
  668POPC   GL111137  17.344   1.163   9.206
  668POPC   GL211138  17.291   1.443   9.031
  668POPC   C1A11139  17.284   1.049   8.746
  668POPC   D2A11140  17.271   1.451   8.497
  668POPC   C3A11141  17.152   1.369   8.078
  668POPC   C4A11142  17.253   1.031   7.828
  668POPC   C1B11143  17.731   1.240   8.816
  668POPC   C2B11144  17.909   0.982   8.425
  668POPC   C3B11145  17.840   1.021   7.963
  668POPC   C4B11146  17.726   1.388   7.768
  669POPC   NC311147   0.516  41.351   9.447
  669POPC   PO411148   0.678  41.954   9.668
  669POPC   GL111149   0.443  41.837   9.295
  669POPC   GL211150   0.689  41.669   9.058
  669POPC   C1A11151   0.210  41.719   8.922
  669POPC   D2A11152   0.344  41.566   8.519
  669POPC   C3A11153   0.153  41.632   8.137
  669POPC   C4A11154   0.438  41.673   7.810
  669POPC   C1B11155   0.633  41.254   8.828
  669POPC   C2B11156   0.728  41.097   8.442
  669POPC   C3B11157   0.764  41.315   8.072
  669POPC   C4B11158   0.785  41.137   7.663
  670POPC   NC311159  43.355  33.565   9.475
  670POPC   PO411160  42.865  33.943   9.374
  670POPC   GL111161  42.931  33.616   9.049
  670POPC   GL211162  43.298  33.564   8.983
  670POPC   C1A11163  43.003  33.505   8.599
  670POPC   D2A11164  43.357  33.573   8.341
  670POPC   C3A11165  43.168  33.756   8.018
  670POPC   C4A11166  43.069  33.862   7.641
  670POPC   C1B11167  43.264  33.933   8.703
  670POPC   C2B11168  43.326  34.145   8.293
  670POPC   C3B11169  43.068  34.284   7.923
  670POPC   C4B11170  43.127  34.379   7.469
  671POPC   NC311171   2.632   7.319   9.457
  671POPC   PO411172   3.072   7.787   9.188
  671POPC   GL111173   2.732   7.542   9.014
  671POPC   GL211174   2.418   7.705   9.187
  671POPC   C1A11175   2.834   7.239   8.673
  671POPC   D2A11176   3.051   7.367   8.275
  671POPC   C3A11177   2.847   7.160   7.940
  671POPC   C4A11178   2.888   7.243   7.527
  671POPC   C1B11179   2.318   7.737   8.776
  671POPC   C2B11180   2.634   7.693   8.514
  671POPC   C3B11181   2.568   7.569   8.132
  671POPC   C4B11182   2.772   7.719   7.785
  672POPC   NC311183  32.513   5.396   9.517
  672POPC   PO411184  32.766   4.773   9.521
  672POPC   GL111185  32.412   4.773   9.182
  672POPC   GL211186  32.217   5.080   9.194
  672POPC   C1A11187  32.218   4.802   8.729
  672POPC   D2A11188  32.305   4.671   8.287
  672POPC   C3A11189  32.181   4.957   7.950
  672POPC   C4A11190  32.498   5.125   7.678
  672POPC   C1B11191  32.306   5.381   8.849
  672POPC   C2B11192  32.282   5.353   8.399
  672POPC   C3B11193  32.368   5.511   7.982
  672POPC   C4B11194  32.133   5.457   7.603
  673POPC   NC311195  19.443  29.978   9.419
  673POPC   PO411196  20.175  29.947   9.438
  673POPC   GL111197  20.047  29.963   9.049
  673POPC   GL211198  19.734  29.836   9.049
  673POPC   C1A11199  19.983  29.870   8.618
  673POPC   D2A11200  20.084  29.629   8.306
  673POPC   C3A11201  19.959  29.938   8.024
  673POPC   C4A11202  19.880  30.030   7.625
  673POPC   C1B11203  19.465  29.911   8.703
  673POPC   C2B11204  19.529  29.797   8.278
  673POPC   C3B11205  19.469  29.826   7.840
  673POPC   C4B11206  19.562  29.650   7.420
  674POPC   NC311207  13.570  38.135   9.831
  674POPC   PO411208  13.697  37.605   9.389
  674POPC   GL111209  13.549  37.449   9.021
  674POPC   GL211210  13.738  37.709   8.880
  674POPC   C1A11211  13.530  37.401   8.555
  674POPC   D2A11212  13.720  37.259   8.209
  674POPC   C3A11213  13.682  37.582   7.922
  674POPC   C4A11214  13.463  37.629   7.569
  674POPC   C1B11215  14.037  37.410   8.711
  674POPC   C2B11216  14.226  37.363   8.308
  674POPC   C3B11217  14.139  37.360   7.881
  674POPC   C4B11218  13.938  37.447   7.496
  675POPC   NC311219  16.917  40.044   9.447
  675POPC   PO411220  16.448  39.619   9.201
  675POPC   GL111221  16.688  39.902   8.988
  675POPC   GL211222  17.025  39.776   9.001
  675POPC   C1A11223  16.647  39.788   8.563
  675POPC   D2A11224  16.488  39.462   8.299
  675POPC   C3A11225  16.658  39.639   7.944
  675POPC   C4A11226  16.481  39.995   7.777
  675POPC   C1B11227  17.097  40.031   8.644
  675POPC   C2B11228  17.016  39.935   8.229
  675POPC   C3B11229  17.173  39.699   7.891
  675POPC   C4B11230  16.950  39.953   7.651
  676POPC   NC311231  35.545  33.924   9.452
  676POPC   PO411232  34.939  33.671   9.394
  676POPC   GL111233  35.107  33.852   9.101
  676POPC   GL211234  35.378  33.640   9.089
  676POPC   C1A11235  35.218  33.957   8.703
  676POPC   D2A11236  35.315  33.742   8.351
  676POPC   C3A11237  35.344  34.051   8.092
  676POPC   C4A11238  35.212  33.999   7.723
  676POPC   C1B11239  35.661  33.714   8.755
  676POPC   C2B11240  35.744  34.016   8.439
  676POPC   C3B11241  35.783  33.782   8.114
  676POPC   C4B11242  35.587  33.629   7.790
  677POPC   NC311243  43.139  29.132   9.470
  677POPC   PO411244  43.612  28.685   9.254
  677POPC   GL111245  43.278  28.900   9.047
  677POPC   GL211246  42.922  28.831   9.132
  677POPC   C1A11247  43.145  29.087   8.670
  677POPC   D2A11248  43.090  28.903   8.314
  677POPC   C3A11249  43.314  29.097   8.035
  677POPC   C4A11250  43.173  29.177   7.667
  677POPC   C1B11251  42.679  28.901   8.772
  677POPC   C2B11252  42.637  29.115   8.410
  677POPC   C3B11253  42.802  29.298   8.043
  677POPC   C4B11254  42.660  29.042   7.727
  678POPC   NC311255  17.353  28.124   9.403
  678POPC   PO411256  17.856  28.585   9.574
  678POPC   GL111257  17.723  28.695   9.137
  678POPC   GL211258  17.393  28.498   9.062
  678POPC   C1A11259  17.665  28.708   8.679
  678POPC   D2A11260  17.367  28.414   8.509
  678POPC   C3A11261  17.341  28.420   8.084
  678POPC   C4A11262  17.678  28.529   7.844
  678POPC   C1B11263  17.733  28.228   8.833
  678POPC   C2B11264  17.850  27.949   8.452
  678POPC   C3B11265  17.767  28.024   7.998
  678POPC   C4B11266  17.604  28.113   7.556
  679POPC   NC311267  25.166  29.726   9.381
  679POPC   PO411268  25.484  30.312   9.454
  679POPC   GL111269  25.488  30.084   9.048
  679POPC   GL211270  25.135  30.048   8.977
  679POPC   C1A11271  25.449  30.102   8.554
  679POPC   D2A11272  25.178  30.079   8.177
  679POPC   C3A11273  25.450  30.038   7.816
  679POPC   C4A11274  25.530  30.129   7.342
  679POPC   C1B11275  25.165  29.689   8.690
  679POPC   C2B11276  25.378  29.614   8.293
  679POPC   C3B11277  25.129  29.632   7.913
  679POPC   C4B11278  25.207  29.720   7.483
  680POPC   NC311279  36.705   8.673   9.639
  680POPC   PO411280  36.832   9.314   9.566
  680POPC   GL111281  37.015   9.005   9.270
  680POPC   GL211282  36.855   8.689   9.162
  680POPC   C1A11283  37.123   9.021   8.823
  680POPC   D2A11284  36.970   9.147   8.392
  680POPC   C3A11285  37.027   8.899   8.001
  680POPC   C4A11286  37.070   9.001   7.560
  680POPC   C1B11287  36.974   8.530   8.770
  680POPC   C2B11288  36.802   8.626   8.383
  680POPC   C3B11289  36.558   8.670   8.022
  680POPC   C4B11290  36.713   8.648   7.619
  681POPC   NC311291  33.484  30.857   9.692
  681POPC   PO411292  34.043  30.601   9.473
  681POPC   GL111293  33.795  30.861   9.225
  681POPC   GL211294  34.057  30.970   9.007
  681POPC   C1A11295  33.600  30.737   8.841
  681POPC   D2A11296  33.542  30.394   8.524
  681POPC   C3A11297  33.415  30.478   8.073
  681POPC   C4A11298  33.641  30.674   7.721
  681POPC   C1B11299  34.099  30.581   8.756
  681POPC   C2B11300  34.163  30.586   8.295
  681POPC   C3B11301  34.125  30.801   7.870
  681POPC   C4B11302  34.039  30.841   7.408
  682POPC   NC311303  32.870  22.673   9.389
  682POPC   PO411304  33.285  23.032   9.605
  682POPC   GL111305  33.130  23.034   9.139
  682POPC   GL211306  33.111  22.681   8.951
  682POPC   C1A11307  33.322  23.048   8.698
  682POPC   D2A11308  33.105  22.777   8.403
  682POPC   C3A11309  33.270  22.846   8.013
  682POPC   C4A11310  33.077  22.903   7.655
  682POPC   C1B11311  32.739  22.861   8.773
  682POPC   C2B11312  32.544  22.847   8.381
  682POPC   C3B11313  32.698  22.754   7.977
  682POPC   C4B11314  32.599  22.921   7.559
  683POPC   NC311315   3.971  15.561   9.696
  683POPC   PO411316   3.389  15.989   9.498
  683POPC   GL111317   3.393  15.916   9.084
  683POPC   GL211318   3.743  16.038   9.086
  683POPC   C1A11319   3.290  15.638   8.735
  683POPC   D2A11320   3.290  15.391   8.369
  683POPC   C3A11321   3.497  15.625   8.032
  683POPC   C4A11322   3.345  15.902   7.722
  683POPC   C1B11323   3.737  15.869   8.724
  683POPC   C2B11324   3.476  15.987   8.390
  683POPC   C3B11325   3.630  16.190   8.044
  683POPC   C4B11326   3.834  16.120   7.693
  684POPC   NC311327  19.173   2.318   9.519
  684POPC   PO411328  18.861   2.965   9.664
  684POPC   GL111329  19.031   2.816   9.237
  684POPC   GL211330  19.052   2.504   9.052
  684POPC   C1A11331  19.166   2.944   8.807
  684POPC   D2A11332  19.180   2.919   8.349
  684POPC   C3A11333  19.496   2.977   8.025
  684POPC   C4A11334  19.297   3.158   7.673
  684POPC   C1B11335  18.835   2.578   8.616
  684POPC   C2B11336  18.769   2.663   8.148
  684POPC   C3B11337  18.756   2.792   7.686
  684POPC   C4B11338  18.831   2.563   7.232
  685POPC   NC311339  10.160   0.425   9.503
  685POPC   PO411340  10.789   0.503   9.450
  685POPC   GL111341  10.558   0.327   9.120
  685POPC   GL211342  10.233   0.501   8.999
  685POPC   C1A11343  10.643   0.446   8.708
  685POPC   D2A11344  10.493   0.522   8.347
  685POPC   C3A11345  10.704   0.477   8.006
  685POPC   C4A11346  10.441   0.281   7.743
  685POPC   C1B11347  10.316   0.878   8.704
  685POPC   C2B11348  10.401   1.006   8.264
  685POPC   C3B11349  10.208   0.711   7.948
  685POPC   C4B11350  10.205   0.641   7.463
  686POPC   NC311351   4.637  32.276   9.549
  686POPC   PO411352   4.110  32.793   9.627
  686POPC   GL111353   4.330  32.534   9.248
  686POPC   GL211354   4.070  32.404   9.142
  686POPC   C1A11355   4.450  32.202   8.879
  686POPC   D2A11356   4.298  32.009   8.477
  686POPC   C3A11357   4.520  32.005   8.074
  686POPC   C4A11358   4.372  31.857   7.694
  686POPC   C1B11359   4.073  32.507   8.675
  686POPC   C2B11360   3.922  32.353   8.327
  686POPC   C3B11361   4.036  32.138   7.979
  686POPC   C4B11362   4.087  32.381   7.628
  687POPC   NC311363  27.086   3.592   9.590
  687POPC   PO411364  26.572   3.362   9.379
  687POPC   GL111365  26.858   3.560   9.115
  687POPC   GL211366  26.588   3.710   8.951
  687POPC   C1A11367  26.951   3.553   8.661
  687POPC   D2A11368  26.710   3.697   8.346
  687POPC   C3A11369  27.027   3.595   8.063
  687POPC   C4A11370  27.081   3.444   7.656
  687POPC   C1B11371  26.547   3.270   8.722
  687POPC   C2B11372  26.720   3.179   8.283
  687POPC   C3B11373  26.584   3.444   7.891
  687POPC   C4B11374  26.507   3.316   7.475
  688POPC   NC311375  42.875  14.678   9.506
  688POPC   PO411376  43.212  14.042   9.476
  688POPC   GL111377  43.179  14.091   9.068
  688POPC   GL211378  42.963  14.352   9.121
  688POPC   C1A11379  43.177  14.284   8.657
  688POPC   D2A11380  43.358  14.276   8.273
  688POPC   C3A11381  43.164  14.199   7.898
  688POPC   C4A11382  43.180  14.550   7.664
  688POPC   C1B11383  42.934  14.705   8.854
  688POPC   C2B11384  42.797  14.618   8.461
  688POPC   C3B11385  42.874  14.586   8.064
  688POPC   C4B11386  42.707  14.353   7.713
  689POPC   NC311387  14.589  42.068   9.321
  689POPC   PO411388  14.217  42.571   9.578
  689POPC   GL111389  14.287  42.555   9.139
  689POPC   GL211390  14.642  42.609   9.200
  689POPC   C1A11391  14.132  42.382   8.704
  689POPC   D2A11392  14.115  42.162   8.273
  689POPC   C3A11393  14.169  42.367   7.882
  689POPC   C4A11394  13.955  42.707   7.687
  689POPC   C1B11395  14.628  42.453   8.754
  689POPC   C2B11396  14.713  42.471   8.323
  689POPC   C3B11397  14.675  42.410   7.900
  689POPC   C4B11398  14.618  42.149   7.524
  690POPC   NC311399  41.099  29.336   9.380
  690POPC   PO411400  40.730  28.776   9.408
  690POPC   GL111401  40.907  28.939   9.064
  690POPC   GL211402  40.678  29.216   9.067
  690POPC   C1A11403  40.995  29.096   8.676
  690POPC   D2A11404  40.753  29.242   8.331
  690POPC   C3A11405  40.886  29.128   7.899
  690POPC   C4A11406  40.943  28.919   7.472
  690POPC   C1B11407  40.745  29.543   8.761
  690POPC   C2B11408  40.526  29.698   8.395
  690POPC   C3B11409  40.632  29.593   7.975
  690POPC   C4B11410  40.502  29.734   7.627
  691POPC   NC311411  34.723  37.359   9.441
  691POPC   PO411412  34.223  37.850   9.584
  691POPC   GL111413  34.444  37.722   9.191
  691POPC   GL211414  34.763  37.673   9.022
  691POPC   C1A11415  34.353  37.589   8.753
  691POPC   D2A11416  34.108  37.530   8.395
  691POPC   C3A11417  34.447  37.549   8.114
  691POPC   C4A11418  34.404  37.707   7.719
  691POPC   C1B11419  34.825  37.339   8.719
  691POPC   C2B11420  34.802  37.195   8.296
  691POPC   C3B11421  34.954  37.289   7.892
  691POPC   C4B11422  34.829  37.168   7.484
  692POPC   NC311423  29.004  34.721   9.612
  692POPC   PO411424  29.501  34.228   9.635
  692POPC   GL111425  29.294  34.495   9.268
  692POPC   GL211426  28.910  34.467   9.195
  692POPC   C1A11427  29.242  34.658   8.845
  692POPC   D2A11428  29.463  34.845   8.527
  692POPC   C3A11429  29.341  34.776   8.098
  692POPC   C4A11430  29.547  34.789   7.700
  692POPC   C1B11431  28.746  34.415   8.768
  692POPC   C2B11432  28.888  34.609   8.412
  692POPC   C3B11433  28.828  34.696   8.021
  692POPC   C4B11434  28.902  34.467   7.644
  693POPC   NC311435  30.512  34.343   9.352
  693POPC   PO411436  31.159  34.597   9.411
  693POPC   GL111437  30.910  34.495   9.037
  693POPC   GL211438  30.679  34.772   9.110
  693POPC   C1A11439  30.544  34.500   8.700
  693POPC   D2A11440  30.257  34.465   8.336
  693POPC   C3A11441  30.493  34.491   7.952
  693POPC   C4A11442  30.942  34.313   7.879
  693POPC   C1B11443  30.944  35.006   8.857
  693POPC   C2B11444  30.958  35.176   8.465
  693POPC   C3B11445  30.821  34.948   8.123
  693POPC   C4B11446  30.842  34.802   7.733
  694POPC   NC311447  38.804   3.726   9.511
  694POPC   PO411448  38.150   3.626   9.454
  694POPC   GL111449  38.274   3.809   9.050
  694POPC   GL211450  38.627   3.847   9.062
  694POPC   C1A11451  38.322   3.552   8.664
  694POPC   D2A11452  38.350   3.176   8.372
  694POPC   C3A11453  38.295   3.383   7.981
  694POPC   C4A11454  38.504   3.685   7.760
  694POPC   C1B11455  38.777   3.827   8.676
  694POPC   C2B11456  38.622   3.759   8.277
  694POPC   C3B11457  38.910   3.895   7.979
  694POPC   C4B11458  38.958   3.915   7.558
  695POPC   NC311459  29.520  18.330   9.219
  695POPC   PO411460  30.114  17.947   9.409
  695POPC   GL111461  30.134  18.192   9.043
  695POPC   GL211462  29.814  18.135   8.864
  695POPC   C1A11463  30.204  18.428   8.670
  695POPC   D2A11464  29.888  18.341   8.369
  695POPC   C3A11465  29.903  18.308   7.913
  695POPC   C4A11466  29.475  18.350   7.867
  695POPC   C1B11467  29.714  17.844   8.531
  695POPC   C2B11468  29.608  17.919   8.139
  695POPC   C3B11469  29.691  17.833   7.767
  695POPC   C4B11470  29.788  18.009   7.435
  696POPC   NC311471  29.504  25.991   9.401
  696POPC   PO411472  30.150  26.306   9.442
  696POPC   GL111473  30.114  26.106   9.056
  696POPC   GL211474  29.796  25.991   8.980
  696POPC   C1A11475  30.299  25.913   8.689
  696POPC   D2A11476  30.123  25.835   8.303
  696POPC   C3A11477  30.129  26.124   7.942
  696POPC   C4A11478  29.926  26.500   7.916
  696POPC   C1B11479  29.890  26.236   8.604
  696POPC   C2B11480  29.682  26.201   8.230
  696POPC   C3B11481  29.685  25.892   7.903
  696POPC   C4B11482  29.603  25.838   7.489
  697POPC   NC311483   1.851  17.451   9.501
  697POPC   PO411484   2.444  17.084   9.244
  697POPC   GL111485   2.145  17.373   9.055
  697POPC   GL211486   1.779  17.285   9.038
  697POPC   C1A11487   1.995  17.397   8.613
  697POPC   D2A11488   1.747  17.167   8.327
  697POPC   C3A11489   1.880  17.314   7.942
  697POPC   C4A11490   2.115  17.731   7.839
  697POPC   C1B11491   1.667  17.707   8.824
  697POPC   C2B11492   1.749  17.818   8.393
  697POPC   C3B11493   1.611  17.742   7.993
  697POPC   C4B11494   1.681  17.907   7.578
  698POPC   NC311495  22.802  29.850   9.733
  698POPC   PO411496  23.294  29.603   9.322
  698POPC   GL111497  22.897  29.751   9.224
  698POPC   GL211498  22.931  30.074   9.113
  698POPC   C1A11499  22.713  29.684   8.821
  698POPC   D2A11500  22.800  29.939   8.446
  698POPC   C3A11501  23.011  29.725   8.097
  698POPC   C4A11502  22.849  29.828   7.707
  698POPC   C1B11503  23.191  30.117   8.722
  698POPC   C2B11504  23.328  30.115   8.267
  698POPC   C3B11505  23.313  30.079   7.757
  698POPC   C4B11506  23.060  30.070   7.308
  699POPC   NC311507  21.031   5.841   9.636
  699POPC   PO411508  21.457   6.348   9.677
  699POPC   GL111509  21.485   5.946   9.329
  699POPC   GL211510  21.194   5.762   9.166
  699POPC   C1A11511  21.627   5.790   8.869
  699POPC   D2A11512  21.593   5.959   8.409
  699POPC   C3A11513  21.580   5.784   7.998
  699POPC   C4A11514  21.846   5.908   7.594
  699POPC   C1B11515  21.102   5.918   8.760
  699POPC   C2B11516  21.105   5.783   8.347
  699POPC   C3B11517  21.077   5.984   7.990
  699POPC   C4B11518  20.927   6.195   7.629
  700POPC   NC311519   5.937  38.874   9.891
  700POPC   PO411520   5.995  39.397   9.489
  700POPC   GL111521   5.884  39.324   9.102
  700POPC   GL211522   6.074  39.009   9.143
  700POPC   C1A11523   5.622  39.384   8.741
  700POPC   D2A11524   5.935  39.325   8.410
  700POPC   C3A11525   6.051  39.659   8.137
  700POPC   C4A11526   5.983  39.596   7.732
  700POPC   C1B11527   5.798  38.940   8.757
  700POPC   C2B11528   5.747  38.854   8.354
  700POPC   C3B11529   5.838  39.096   7.954
  700POPC   C4B11530   5.888  39.117   7.485
  701POPC   NC311531   0.845  34.532   9.350
  701POPC   PO411532   1.407  34.861   9.562
  701POPC   GL111533   1.264  34.776   9.125
  701POPC   GL211534   1.436  34.539   8.922
  701POPC   C1A11535   0.982  34.768   8.757
  701POPC   D2A11536   0.853  34.687   8.338
  701POPC   C3A11537   1.160  34.694   8.022
  701POPC   C4A11538   1.023  34.368   7.813
  701POPC   C1B11539   1.364  34.557   8.483
  701POPC   C2B11540   1.542  34.361   8.155
  701POPC   C3B11541   1.513  34.435   7.736
  701POPC   C4B11542   1.527  34.777   7.502
  702POPC   NC311543  11.154  30.958   9.497
  702POPC   PO411544  10.803  30.320   9.457
  702POPC   GL111545  11.045  30.523   9.181
  702POPC   GL211546  11.333  30.299   9.155
  702POPC   C1A11547  11.212  30.754   8.826
  702POPC   D2A11548  11.426  30.836   8.433
  702POPC   C3A11549  11.223  30.718   8.017
  702POPC   C4A11550  10.927  30.930   7.762
  702POPC   C1B11551  11.197  30.223   8.745
  702POPC   C2B11552  11.370  30.337   8.320
  702POPC   C3B11553  11.358  30.220   7.866
  702POPC   C4B11554  11.350  30.410   7.430
  703POPC   NC311555  36.471   0.943   9.497
  703POPC   PO411556  35.878   0.883   9.799
  703POPC   GL111557  35.985   0.799   9.295
  703POPC   GL211558  36.292   0.852   9.046
  703POPC   C1A11559  35.835   0.936   8.850
  703POPC   D2A11560  36.065   0.898   8.430
  703POPC   C3A11561  35.857   0.968   7.993
  703POPC   C4A11562  35.918   1.378   7.787
  703POPC   C1B11563  36.595   1.065   8.722
  703POPC   C2B11564  36.599   1.036   8.252
  703POPC   C3B11565  36.432   1.118   7.821
  703POPC   C4B11566  36.591   1.136   7.363
  704POPC   NC311567   3.067  29.634   9.386
  704POPC   PO411568   2.771  29.042   9.583
  704POPC   GL111569   2.809  29.242   9.189
  704POPC   GL211570   3.014  28.981   9.090
  704POPC   C1A11571   2.938  29.404   8.761
  704POPC   D2A11572   2.921  29.169   8.344
  704POPC   C3A11573   2.619  29.259   7.978
  704POPC   C4A11574   2.533  29.631   7.776
  704POPC   C1B11575   2.671  28.973   8.781
  704POPC   C2B11576   2.453  28.956   8.401
  704POPC   C3B11577   2.733  28.771   8.095
  704POPC   C4B11578   3.030  29.020   7.841
  705POPC   NC311579  31.162  23.025   9.662
  705POPC   PO411580  31.741  22.664   9.557
  705POPC   GL111581  31.505  22.979   9.279
  705POPC   GL211582  31.171  22.821   9.185
  705POPC   C1A11583  31.500  23.075   8.822
  705POPC   D2A11584  31.539  22.702   8.547
  705POPC   C3A11585  31.737  22.670   8.149
  705POPC   C4A11586  31.632  22.645   7.730
  705POPC   C1B11587  31.049  22.812   8.769
  705POPC   C2B11588  31.156  23.043   8.392
  705POPC   C3B11589  31.028  23.019   7.948
  705POPC   C4B11590  31.291  23.004   7.580
  706POPC   NC311591  32.419   8.866   9.527
  706POPC   PO411592  31.801   9.234   9.485
  706POPC   GL111593  32.081   9.014   9.148
  706POPC   GL211594  32.427   9.155   9.101
  706POPC   C1A11595  32.159   8.873   8.711
  706POPC   D2A11596  31.904   8.821   8.326
  706POPC   C3A11597  32.066   8.910   7.914
  706POPC   C4A11598  32.306   9.249   7.744
  706POPC   C1B11599  32.654   8.896   8.833
  706POPC   C2B11600  32.632   8.732   8.433
  706POPC   C3B11601  32.543   8.764   8.018
  706POPC   C4B11602  32.523   8.783   7.593
  707POPC   NC311603  20.352  20.371   9.878
  707POPC   PO411604  20.959  20.314   9.519
  707POPC   GL111605  20.859  20.473   9.128
  707POPC   GL211606  20.535  20.534   9.103
  707POPC   C1A11607  20.879  20.688   8.750
  707POPC   D2A11608  20.530  20.679   8.449
  707POPC   C3A11609  20.630  20.546   8.081
  707POPC   C4A11610  20.895  20.713   7.780
  707POPC   C1B11611  20.580  20.256   8.742
  707POPC   C2B11612  20.555  20.071   8.379
  707POPC   C3B11613  20.272  20.167   8.084
  707POPC   C4B11614  20.225  20.372   7.716
  708POPC   NC311615   1.597  28.658   9.468
  708POPC   PO411616   0.956  28.327   9.531
  708POPC   GL111617   1.129  28.277   9.124
  708POPC   GL211618   1.395  28.464   9.050
  708POPC   C1A11619   1.252  28.149   8.690
  708POPC   D2A11620   1.130  28.388   8.312
  708POPC   C3A11621   1.209  28.181   7.940
  708POPC   C4A11622   1.446  28.010   7.666
  708POPC   C1B11623   1.341  28.685   8.679
  708POPC   C2B11624   1.554  28.746   8.297
  708POPC   C3B11625   1.334  28.705   7.925
  708POPC   C4B11626   1.437  28.499   7.546
  709POPC   NC311627  43.759  16.823   9.630
  709POPC   PO411628  44.378  16.507   9.628
  709POPC   GL111629  44.238  16.693   9.208
  709POPC   GL211630  43.890  16.533   9.158
  709POPC   C1A11631  44.284  16.907   8.770
  709POPC   D2A11632  44.066  16.963   8.340
  709POPC   C3A11633  44.070  16.620   8.001
  709POPC   C4A11634  43.864  16.548   7.591
  709POPC   C1B11635  43.798  16.697   8.727
  709POPC   C2B11636  43.609  16.746   8.308
  709POPC   C3B11637  43.676  16.972   7.933
  709POPC   C4B11638  43.873  17.197   7.587
  710POPC   NC311639   8.920  29.699   9.533
  710POPC   PO411640   8.829  30.370   9.484
  710POPC   GL111641   8.897  30.095   9.150
  710POPC   GL211642   9.243  29.960   9.165
  710POPC   C1A11643   8.979  30.015   8.729
  710POPC   D2A11644   8.863  29.771   8.404
  710POPC   C3A11645   8.982  29.933   8.062
  710POPC   C4A11646   8.761  29.990   7.679
  710POPC   C1B11647   9.400  29.710   8.787
  710POPC   C2B11648   9.377  29.685   8.358
  710POPC   C3B11649   9.273  29.519   7.976
  710POPC   C4B11650   9.218  29.798   7.640
  711POPC   NC311651   1.469  41.127   9.407
  711POPC   PO411652   1.305  40.498   9.598
  711POPC   GL111653   1.222  40.681   9.196
  711POPC   GL211654   1.009  40.421   9.152
  711POPC   C1A11655   1.057  40.889   8.808
  711POPC   D2A11656   1.315  41.059   8.449
  711POPC   C3A11657   1.255  41.085   7.997
  711POPC   C4A11658   1.512  40.745   7.832
  711POPC   C1B11659   0.755  40.416   8.810
  711POPC   C2B11660   0.803  40.584   8.453
  711POPC   C3B11661   1.038  40.650   8.146
  711POPC   C4B11662   1.009  40.692   7.732
  712POPC   NC311663  20.882  33.488   9.408
  712POPC   PO411664  20.488  34.019   9.503
  712POPC   GL111665  20.531  33.759   9.127
  712POPC   GL211666  20.456  33.383   9.111
  712POPC   C1A11667  20.792  33.898   8.800
  712POPC   D2A11668  20.741  34.090   8.395
  712POPC   C3A11669  20.577  33.823   8.081
  712POPC   C4A11670  20.793  33.997   7.759
  712POPC   C1B11671  20.813  33.353   8.789
  712POPC   C2B11672  20.910  33.591   8.419
  712POPC   C3B11673  20.993  33.528   8.023
  712POPC   C4B11674  20.911  33.516   7.604
  713POPC   NC311675   4.094  40.323   9.534
  713POPC   PO411676   4.599  39.829   9.553
  713POPC   GL111677   4.279  39.920   9.256
  713POPC   GL211678   4.436  40.233   9.170
  713POPC   C1A11679   4.250  39.876   8.812
  713POPC   D2A11680   4.139  39.767   8.388
  713POPC   C3A11681   4.413  39.791   8.043
  713POPC   C4A11682   4.140  39.810   7.731
  713POPC   C1B11683   4.083  40.357   8.897
  713POPC   C2B11684   4.065  40.258   8.504
  713POPC   C3B11685   4.160  40.244   8.087
  713POPC   C4B11686   4.343  40.289   7.701
  714POPC   NC311687   4.161  12.399   9.462
  714POPC   PO411688   4.191  13.080   9.257
  714POPC   GL111689   4.473  12.891   8.982
  714POPC   GL211690   4.579  12.576   9.173
  714POPC   C1A11691   4.395  12.849   8.555
  714POPC   D2A11692   4.451  13.027   8.158
  714POPC   C3A11693   4.150  13.143   7.874
  714POPC   C4A11694   4.252  13.217   7.423
  714POPC   C1B11695   4.586  12.403   8.754
  714POPC   C2B11696   4.431  12.379   8.343
  714POPC   C3B11697   4.547  12.558   7.970
  714POPC   C4B11698   4.335  12.755   7.625
  715POPC   NC311699  32.691   2.873   9.484
  715POPC   PO411700  33.285   2.884   9.560
  715POPC   GL111701  33.067   2.873   9.145
  715POPC   GL211702  32.851   2.609   9.055
  715POPC   C1A11703  32.904   3.045   8.767
  715POPC   D2A11704  33.120   3.149   8.402
  715POPC   C3A11705  33.000   2.999   7.996
  715POPC   C4A11706  32.849   2.558   7.824
  715POPC   C1B11707  33.194   2.626   8.726
  715POPC   C2B11708  33.097   2.627   8.307
  715POPC   C3B11709  33.344   2.609   7.922
  715POPC   C4B11710  33.485   2.245   7.662
  716POPC   NC311711  44.438   1.739   9.581
  716POPC   PO411712  44.929   1.261   9.452
  716POPC   GL111713  44.756   1.136   9.065
  716POPC   GL211714  44.416   1.161   9.221
  716POPC   C1A11715  44.977   1.117   8.667
  716POPC   D2A11716   0.006   1.352   8.291
  716POPC   C3A11717  44.924   1.074   7.944
  716POPC   C4A11718  44.806   1.178   7.534
  716POPC   C1B11719  44.353   1.430   8.873
  716POPC   C2B11720  44.117   1.415   8.482
  716POPC   C3B11721  44.145   1.506   8.046
  716POPC   C4B11722  44.216   1.299   7.661
  717POPC   NC311723  40.465   7.376   9.615
  717POPC   PO411724  41.018   7.090   9.558
  717POPC   GL111725  40.924   7.272   9.155
  717POPC   GL211726  41.024   7.630   9.187
  717POPC   C1A11727  40.825   7.166   8.724
  717POPC   D2A11728  40.910   7.362   8.346
  717POPC   C3A11729  41.019   7.145   7.998
  717POPC   C4A11730  40.916   7.308   7.617
  717POPC   C1B11731  41.099   7.634   8.723
  717POPC   C2B11732  41.025   7.850   8.244
  717POPC   C3B11733  40.961   7.804   7.782
  717POPC   C4B11734  41.062   7.703   7.328
  718POPC   NC311735  11.187  33.431   9.731
  718POPC   PO411736  11.633  32.988   9.455
  718POPC   GL111737  11.523  32.891   9.066
  718POPC   GL211738  11.240  32.724   9.171
  718POPC   C1A11739  11.413  33.084   8.652
  718POPC   D2A11740  11.458  32.880   8.273
  718POPC   C3A11741  11.484  33.149   7.952
  718POPC   C4A11742  11.094  33.076   7.804
  718POPC   C1B11743  10.957  32.868   8.815
  718POPC   C2B11744  10.944  33.024   8.376
  718POPC   C3B11745  10.830  32.730   8.063
  718POPC   C4B11746  11.004  32.434   7.800
  719POPC   NC311747  18.891  36.415   9.325
  719POPC   PO411748  19.418  36.036   9.456
  719POPC   GL111749  19.173  36.026   9.121
  719POPC   GL211750  19.363  36.268   8.963
  719POPC   C1A11751  19.072  35.917   8.705
  719POPC   D2A11752  19.200  36.088   8.313
  719POPC   C3A11753  18.932  35.876   8.027
  719POPC   C4A11754  19.087  35.649   7.712
  719POPC   C1B11755  19.009  36.414   8.696
  719POPC   C2B11756  18.713  36.231   8.360
  719POPC   C3B11757  18.886  36.389   7.976
  719POPC   C4B11758  19.265  36.255   7.819
  720POPC   NC311759  36.177  19.134   9.500
  720POPC   PO411760  36.572  18.560   9.408
  720POPC   GL111761  36.310  18.830   9.122
  720POPC   GL211762  36.401  19.184   9.039
  720POPC   C1A11763  36.004  18.958   8.799
  720POPC   D2A11764  35.856  18.888   8.381
  720POPC   C3A11765  36.215  18.965   8.149
  720POPC   C4A11766  36.134  18.936   7.781
  720POPC   C1B11767  36.493  19.505   8.755
  720POPC   C2B11768  36.520  19.490   8.314
  720POPC   C3B11769  36.398  19.386   7.909
  720POPC   C4B11770  36.127  19.477   7.592
  721POPC   NC311771  32.118  37.390   9.592
  721POPC   PO411772  32.485  37.875   9.554
  721POPC   GL111773  32.284  37.726   9.213
  721POPC   GL211774  32.109  38.026   9.150
  721POPC   C1A11775  32.112  37.517   8.887
  721POPC   D2A11776  32.236  37.532   8.490
  721POPC   C3A11777  32.053  37.531   8.106
  721POPC   C4A11778  32.214  37.499   7.705
  721POPC   C1B11779  31.969  37.986   8.725
  721POPC   C2B11780  31.760  37.883   8.358
  721POPC   C3B11781  31.867  38.007   7.943
  721POPC   C4B11782  31.939  37.923   7.531
  722POPC   NC311783  37.333  37.761   9.306
  722POPC   PO411784  36.719  38.107   9.379
  722POPC   GL111785  36.845  37.780   9.049
  722POPC   GL211786  37.154  37.668   8.858
  722POPC   C1A11787  36.713  37.756   8.609
  722POPC   D2A11788  36.597  37.909   8.226
  722POPC   C3A11789  36.772  37.698   7.883
  722POPC   C4A11790  36.891  37.919   7.504
  722POPC   C1B11791  37.136  37.367   8.530
  722POPC   C2B11792  37.082  37.625   8.273
  722POPC   C3B11793  37.258  37.800   7.973
  722POPC   C4B11794  37.174  37.513   7.658
  723POPC   NC311795  41.694  20.198   9.663
  723POPC   PO411796  41.375  19.594   9.549
  723POPC   GL111797  41.398  19.893   9.227
  723POPC   GL211798  41.750  19.888   9.240
  723POPC   C1A11799  41.460  20.060   8.809
  723POPC   D2A11800  41.492  19.883   8.388
  723POPC   C3A11801  41.467  20.113   8.019
  723POPC   C4A11802  41.537  19.889   7.672
  723POPC   C1B11803  41.927  19.627   8.913
  723POPC   C2B11804  41.852  19.519   8.461
  723POPC   C3B11805  41.827  19.599   8.034
  723POPC   C4B11806  41.999  19.643   7.627
  724POPC   NC311807  44.796  32.622   9.463
  724POPC   PO411808  44.592  33.327   9.572
  724POPC   GL111809  44.662  33.067   9.204
  724POPC   GL211810   0.024  32.976   9.186
  724POPC   C1A11811  44.569  33.014   8.730
  724POPC   D2A11812  44.447  32.785   8.316
  724POPC   C3A11813  44.281  33.083   7.990
  724POPC   C4A11814  44.431  33.304   7.593
  724POPC   C1B11815   0.091  32.965   8.741
  724POPC   C2B11816  44.925  32.995   8.323
  724POPC   C3B11817  44.803  33.146   7.935
  724POPC   C4B11818  44.925  33.049   7.525
  725POPC   NC311819  42.650   5.510   9.460
  725POPC   PO411820  42.331   6.117   9.411
  725POPC   GL111821  42.372   5.781   9.090
  725POPC   GL211822  42.669   5.660   8.987
  725POPC   C1A11823  42.293   5.819   8.648
  725POPC   D2A11824  42.190   5.908   8.233
  725POPC   C3A11825  42.495   6.026   7.912
  725POPC   C4A11826  42.431   6.079   7.461
  725POPC   C1B11827  42.631   5.445   8.636
  725POPC   C2B11828  42.673   5.643   8.264
  725POPC   C3B11829  42.858   5.558   7.891
  725POPC   C4B11830  42.567   5.603   7.587
  726POPC   NC311831  21.814  13.574   9.459
  726POPC   PO411832  22.270  13.984   9.258
  726POPC   GL111833  22.231  13.634   9.024
  726POPC   GL211834  21.922  13.479   8.984
  726POPC   C1A11835  22.223  13.684   8.583
  726POPC   D2A11836  22.524  13.788   8.255
  726POPC   C3A11837  22.261  13.693   7.915
  726POPC   C4A11838  22.213  13.336   7.616
  726POPC   C1B11839  21.695  13.497   8.607
  726POPC   C2B11840  21.791  13.625   8.195
  726POPC   C3B11841  21.778  13.558   7.748
  726POPC   C4B11842  21.812  13.699   7.328
  727POPC   NC311843  30.579  22.046   9.792
  727POPC   PO411844  30.982  22.548   9.569
  727POPC   GL111845  30.782  22.349   9.215
  727POPC   GL211846  30.631  22.019   9.276
  727POPC   C1A11847  30.825  22.304   8.784
  727POPC   D2A11848  30.692  22.231   8.389
  727POPC   C3A11849  30.931  22.164   8.031
  727POPC   C4A11850  30.681  22.192   7.676
  727POPC   C1B11851  30.389  22.070   8.912
  727POPC   C2B11852  30.298  21.940   8.492
  727POPC   C3B11853  30.174  21.933   8.071
  727POPC   C4B11854  30.253  21.945   7.605
  728POPC   NC311855  16.474   7.619  10.010
  728POPC   PO411856  16.772   7.093   9.714
  728POPC   GL111857  16.843   7.174   9.211
  728POPC   GL211858  16.811   7.513   9.013
  728POPC   C1A11859  16.727   7.092   8.777
  728POPC   D2A11860  16.720   7.379   8.455
  728POPC   C3A11861  16.781   7.260   8.070
  728POPC   C4A11862  16.884   7.269   7.687
  728POPC   C1B11863  16.454   7.667   8.761
  728POPC   C2B11864  16.360   7.744   8.305
  728POPC   C3B11865  16.659   7.741   7.953
  728POPC   C4B11866  17.093   7.913   7.900
  729POPC   NC311867  19.984   2.907   9.328
  729POPC   PO411868  19.529   2.507   9.287
  729POPC   GL111869  19.658   2.748   8.959
  729POPC   GL211870  19.986   2.533   8.949
  729POPC   C1A11871  19.848   2.799   8.550
  729POPC   D2A11872  20.080   2.432   8.433
  729POPC   C3A11873  20.094   2.445   8.018
  729POPC   C4A11874  19.983   2.859   7.839
  729POPC   C1B11875  19.633   2.329   8.666
  729POPC   C2B11876  19.292   2.439   8.429
  729POPC   C3B11877  19.267   2.516   8.016
  729POPC   C4B11878  19.632   2.503   7.768
  730POPC   NC311879  39.025   7.483   9.306
  730POPC   PO411880  38.409   7.288   9.645
  730POPC   GL111881  38.342   7.339   9.184
  730POPC   GL211882  38.636   7.470   8.982
  730POPC   C1A11883  38.159   7.639   8.883
  730POPC   D2A11884  38.387   7.580   8.499
  730POPC   C3A11885  38.184   7.627   8.105
  730POPC   C4A11886  38.316   7.578   7.682
  730POPC   C1B11887  38.945   7.244   8.719
  730POPC   C2B11888  38.835   7.149   8.317
  730POPC   C3B11889  38.651   7.415   8.040
  730POPC   C4B11890  38.512   7.107   7.788
  731POPC   NC311891  41.012  32.579   9.296
  731POPC   PO411892  40.627  32.289   9.806
  731POPC   GL111893  40.578  32.261   9.357
  731POPC   GL211894  40.842  32.093   9.200
  731POPC   C1A11895  40.517  32.337   8.901
  731POPC   D2A11896  40.582  32.264   8.479
  731POPC   C3A11897  40.689  32.472   8.103
  731POPC   C4A11898  40.565  32.190   7.796
  731POPC   C1B11899  40.949  31.990   8.789
  731POPC   C2B11900  41.063  32.123   8.382
  731POPC   C3B11901  40.940  31.923   8.003
  731POPC   C4B11902  40.931  31.979   7.535
  732POPC   NC311903  24.352  32.064   9.538
  732POPC   PO411904  24.595  32.654   9.604
  732POPC   GL111905  24.606  32.441   9.166
  732POPC   GL211906  24.316  32.229   9.067
  732POPC   C1A11907  24.682  32.244   8.720
  732POPC   D2A11908  24.554  32.424   8.324
  732POPC   C3A11909  24.523  32.208   7.956
  732POPC   C4A11910  24.808  32.251   7.612
  732POPC   C1B11911  24.166  32.285   8.657
  732POPC   C2B11912  24.049  32.348   8.231
  732POPC   C3B11913  24.243  32.630   7.943
  732POPC   C4B11914  24.406  32.563   7.554
  733POPC   NC311915  33.434  35.235   9.418
  733POPC   PO411916  32.847  35.436   9.615
  733POPC   GL111917  32.959  35.352   9.177
  733POPC   GL211918  33.211  35.543   9.070
  733POPC   C1A11919  33.042  35.222   8.723
  733POPC   D2A11920  33.017  35.415   8.325
  733POPC   C3A11921  33.269  35.304   7.979
  733POPC   C4A11922  33.055  35.372   7.600
  733POPC   C1B11923  33.252  35.751   8.652
  733POPC   C2B11924  33.413  35.754   8.223
  733POPC   C3B11925  33.268  35.790   7.811
  733POPC   C4B11926  33.374  35.664   7.348
  734POPC   NC311927   8.242  40.511   9.524
  734POPC   PO411928   8.727  40.949   9.342
  734POPC   GL111929   8.400  40.944   9.096
  734POPC   GL211930   8.412  40.617   9.058
  734POPC   C1A11931   8.401  41.052   8.677
  734POPC   D2A11932   8.519  40.889   8.273
  734POPC   C3A11933   8.211  40.772   7.934
  734POPC   C4A11934   8.316  40.871   7.483
  734POPC   C1B11935   8.104  40.619   8.753
  734POPC   C2B11936   8.199  40.476   8.373
  734POPC   C3B11937   8.453  40.343   8.035
  734POPC   C4B11938   8.317  40.389   7.607
  735POPC   NC311939  18.778  39.678   9.470
  735POPC   PO411940  18.051  39.626   9.427
  735POPC   GL111941  18.102  40.010   9.145
  735POPC   GL211942  18.431  40.175   9.217
  735POPC   C1A11943  18.151  40.089   8.688
  735POPC   D2A11944  18.228  39.754   8.366
  735POPC   C3A11945  18.193  39.700   7.891
  735POPC   C4A11946  18.116  39.945   7.456
  735POPC   C1B11947  18.585  39.894   8.882
  735POPC   C2B11948  18.685  40.011   8.454
  735POPC   C3B11949  18.491  40.121   8.085
  735POPC   C4B11950  18.531  40.009   7.726
  736POPC   NC311951  41.782  39.505   9.617
  736POPC   PO411952  41.381  39.007   9.641
  736POPC   GL111953  41.561  39.205   9.212
  736POPC   GL211954  41.695  39.547   9.127
  736POPC   C1A11955  41.686  39.194   8.737
  736POPC   D2A11956  41.413  39.220   8.347
  736POPC   C3A11957  41.600  39.165   7.901
  736POPC   C4A11958  41.486  38.932   7.488
  736POPC   C1B11959  41.340  39.540   8.834
  736POPC   C2B11960  41.088  39.604   8.495
  736POPC   C3B11961  41.191  39.608   8.085
  736POPC   C4B11962  41.284  39.500   7.691
  737POPC   NC311963  41.189  43.351   9.678
  737POPC   PO411964  41.889  43.084   9.515
  737POPC   GL111965  41.679  43.162   9.121
  737POPC   GL211966  41.332  43.251   9.204
  737POPC   C1A11967  41.540  42.897   8.744
  737POPC   D2A11968  41.277  42.711   8.391
  737POPC   C3A11969  41.434  42.902   8.011
  737POPC   C4A11970  41.804  43.190   7.960
  737POPC   C1B11971  41.343  43.422   8.808
  737POPC   C2B11972  41.354  43.247   8.406
  737POPC   C3B11973  41.389  43.445   8.054
  737POPC   C4B11974  41.360  43.290   7.686
  738POPC   NC311975  24.092   9.822   9.838
  738POPC   PO411976  24.616   9.904   9.415
  738POPC   GL111977  24.424   9.758   9.049
  738POPC   GL211978  24.093   9.943   8.909
  738POPC   C1A11979  24.646   9.583   8.719
  738POPC   D2A11980  24.532   9.396   8.329
  738POPC   C3A11981  24.672   9.725   8.061
  738POPC   C4A11982  24.472   9.918   7.729
  738POPC   C1B11983  24.141   9.666   8.624
  738POPC   C2B11984  24.182   9.729   8.207
  738POPC   C3B11985  24.253   9.472   7.871
  738POPC   C4B11986  24.075   9.681   7.549
  739POPC   NC311987   5.385  41.684   9.336
  739POPC   PO411988   4.878  41.304   9.646
  739POPC   GL111989   4.922  41.393   9.154
  739POPC   GL211990   5.067  41.691   8.954
  739POPC   C1A11991   4.881  41.360   8.666
  739POPC   D2A11992   4.691  41.541   8.331
  739POPC   C3A11993   4.914  41.475   7.984
  739POPC   C4A11994   4.750  41.561   7.614
  739POPC   C1B11995   5.440  41.731   8.659
  739POPC   C2B11996   5.608  41.602   8.231
  739POPC   C3B11997   5.387  41.597   7.825
  739POPC   C4B11998   5.433  41.683   7.402
  740POPC   NC311999  22.363  39.271   9.505
  740POPC   PO412000  21.655  39.375   9.547
  740POPC   GL112001  21.815  39.213   9.140
  740POPC   GL212002  22.183  39.118   9.041
  740POPC   C1A12003  21.865  39.327   8.685
  740POPC   D2A12004  22.187  39.153   8.407
  740POPC   C3A12005  22.317  39.342   8.003
  740POPC   C4A12006  22.460  39.610   7.649
  740POPC   C1B12007  21.941  38.829   8.794
  740POPC   C2B12008  21.760  38.842   8.378
  740POPC   C3B12009  21.986  38.912   7.962
  740POPC   C4B12010  22.333  38.975   7.641
  741POPC   NC312011  37.637   0.808   9.411
  741POPC   PO412012  37.427   1.367   9.689
  741POPC   GL112013  37.640   1.388   9.222
  741POPC   GL212014  37.871   1.120   9.090
  741POPC   C1A12015  37.790   1.483   8.750
  741POPC   D2A12016  37.533   1.404   8.355
  741POPC   C3A12017  37.659   1.321   7.910
  741POPC   C4A12018  37.391   1.177   7.539
  741POPC   C1B12019  37.759   0.918   8.686
  741POPC   C2B12020  37.741   0.891   8.225
  741POPC   C3B12021  37.643   0.815   7.782
  741POPC   C4B12022  37.811   1.009   7.346
  742POPC   NC312023  24.273  37.446   9.332
  742POPC   PO412024  23.737  37.786   9.562
  742POPC   GL112025  23.481  37.770   9.188
  742POPC   GL212026  23.807  37.670   9.049
  742POPC   C1A12027  23.394  37.618   8.766
  742POPC   D2A12028  23.443  37.817   8.356
  742POPC   C3A12029  23.677  37.633   8.017
  742POPC   C4A12030  23.768  37.859   7.615
  742POPC   C1B12031  23.892  37.729   8.604
  742POPC   C2B12032  24.186  37.501   8.378
  742POPC   C3B12033  24.224  37.347   8.005
  742POPC   C4B12034  23.999  37.421   7.694
  743POPC   NC312035  43.905  25.691   9.603
  743POPC   PO412036  43.984  26.377   9.576
  743POPC   GL112037  43.840  26.229   9.173
  743POPC   GL212038  43.870  25.877   9.127
  743POPC   C1A12039  43.759  26.146   8.717
  743POPC   D2A12040  43.615  26.164   8.308
  743POPC   C3A12041  43.876  26.338   8.038
  743POPC   C4A12042  43.733  26.277   7.645
  743POPC   C1B12043  43.920  25.672   8.740
  743POPC   C2B12044  43.890  25.741   8.323
  743POPC   C3B12045  43.719  25.824   7.934
  743POPC   C4B12046  44.079  25.913   7.714
  744POPC   NC312047  29.947  25.105   9.517
  744POPC   PO412048  29.572  25.597   9.620
  744POPC   GL112049  29.808  25.501   9.205
  744POPC   GL212050  29.806  25.125   9.036
  744POPC   C1A12051  30.019  25.511   8.790
  744POPC   D2A12052  30.076  25.288   8.393
  744POPC   C3A12053  30.026  25.475   7.977
  744POPC   C4A12054  29.671  25.402   7.729
  744POPC   C1B12055  30.111  24.868   8.749
  744POPC   C2B12056  30.251  24.822   8.292
  744POPC   C3B12057  29.998  24.968   7.907
  744POPC   C4B12058  30.092  25.234   7.521
  745POPC   NC312059   9.088  21.880   9.397
  745POPC   PO412060   8.981  21.207   9.555
  745POPC   GL112061   8.905  21.414   9.166
  745POPC   GL212062   8.731  21.710   9.055
  745POPC   C1A12063   9.139  21.431   8.799
  745POPC   D2A12064   9.195  21.212   8.406
  745POPC   C3A12065   9.105  21.398   8.000
  745POPC   C4A12066   9.011  21.419   7.567
  745POPC   C1B12067   8.622  21.453   8.673
  745POPC   C2B12068   8.697  21.223   8.272
  745POPC   C3B12069   8.561  21.309   7.826
  745POPC   C4B12070   8.574  21.615   7.462
  746POPC   NC312071  10.914   0.986   9.476
  746POPC   PO412072  10.227   1.203   9.424
  746POPC   GL112073  10.538   1.188   9.115
  746POPC   GL212074  10.620   0.842   9.098
  746POPC   C1A12075  10.539   1.347   8.695
  746POPC   D2A12076  10.337   1.544   8.325
  746POPC   C3A12077  10.520   1.390   7.925
  746POPC   C4A12078  10.289   1.256   7.542
  746POPC   C1B12079  10.860   0.944   8.754
  746POPC   C2B12080  10.960   0.759   8.385
  746POPC   C3B12081  10.873   0.989   8.028
  746POPC   C4B12082  10.584   0.912   7.722
  747POPC   NC312083  11.173  29.966   9.511
  747POPC   PO412084  11.780  30.049   9.252
  747POPC   GL112085  11.613  29.821   8.957
  747POPC   GL212086  11.265  29.757   9.031
  747POPC   C1A12087  11.574  29.926   8.539
  747POPC   D2A12088  11.144  29.881   8.353
  747POPC   C3A12089  10.968  29.867   7.942
  747POPC   C4A12090  11.080  29.939   7.523
  747POPC   C1B12091  11.331  29.498   8.653
  747POPC   C2B12092  11.511  29.551   8.207
  747POPC   C3B12093  11.496  29.711   7.780
  747POPC   C4B12094  11.303  29.490   7.420
  748POPC   NC312095   7.099  33.228   9.386
  748POPC   PO412096   7.629  32.775   9.470
  748POPC   GL112097   7.489  33.017   9.117
  748POPC   GL212098   7.209  32.749   9.119
  748POPC   C1A12099   7.700  33.368   8.843
  748POPC   D2A12100   7.810  33.453   8.381
  748POPC   C3A12101   7.640  33.186   8.013
  748POPC   C4A12102   7.358  32.820   7.907
  748POPC   C1B12103   7.209  32.822   8.677
  748POPC   C2B12104   7.355  33.174   8.455
  748POPC   C3B12105   7.202  33.421   8.135
  748POPC   C4B12106   7.021  33.205   7.844
  749POPC   NC312107   1.415   9.270   9.495
  749POPC   PO412108   0.848   8.911   9.370
  749POPC   GL112109   1.093   8.783   9.030
  749POPC   GL212110   1.461   8.677   9.061
  749POPC   C1A12111   0.992   8.966   8.623
  749POPC   D2A12112   1.167   8.832   8.243
  749POPC   C3A12113   1.025   9.050   7.962
  749POPC   C4A12114   1.113   9.058   7.541
  749POPC   C1B12115   1.485   8.869   8.637
  749POPC   C2B12116   1.515   9.212   8.312
  749POPC   C3B12117   1.511   9.118   7.866
  749POPC   C4B12118   1.393   8.700   7.804
  750POPC   NC312119   9.231  11.113   9.628
  750POPC   PO412120   8.871  11.664   9.515
  750POPC   GL112121   8.838  11.470   9.111
  750POPC   GL212122   8.754  11.103   9.126
  750POPC   C1A12123   8.985  11.510   8.693
  750POPC   D2A12124   9.229  11.691   8.365
  750POPC   C3A12125   9.131  11.489   7.998
  750POPC   C4A12126   8.834  11.570   7.707
  750POPC   C1B12127   8.961  11.006   8.714
  750POPC   C2B12128   9.236  11.138   8.373
  750POPC   C3B12129   9.228  10.969   7.967
  750POPC   C4B12130   9.038  11.102   7.616
  751POPC   NC312131  31.494  12.261   9.498
  751POPC   PO412132  30.964  11.896   9.693
  751POPC   GL112133  31.244  11.879   9.274
  751POPC   GL212134  31.634  11.864   9.196
  751POPC   C1A12135  31.287  12.110   8.856
  751POPC   D2A12136  31.328  11.840   8.472
  751POPC   C3A12137  31.349  11.981   8.031
  751POPC   C4A12138  31.136  12.189   7.697
  751POPC   C1B12139  31.777  11.934   8.752
  751POPC   C2B12140  31.892  11.991   8.305
  751POPC   C3B12141  31.792  12.252   7.943
  751POPC   C4B12142  31.614  12.303   7.500
  752POPC   NC312143   0.240  27.381   9.451
  752POPC   PO412144   0.896  27.645   9.548
  752POPC   GL112145   0.590  27.643   9.178
  752POPC   GL212146   0.254  27.646   9.022
  752POPC   C1A12147   0.614  27.806   8.736
  752POPC   D2A12148   0.235  27.751   8.480
  752POPC   C3A12149   0.437  27.677   8.091
  752POPC   C4A12150   0.377  27.859   7.706
  752POPC   C1B12151   0.349  27.303   8.771
  752POPC   C2B12152   0.195  27.105   8.407
  752POPC   C3B12153   0.377  27.138   8.025
  752POPC   C4B12154   0.241  27.371   7.685
  753POPC   NC312155  10.919  13.136   9.776
  753POPC   PO412156  10.555  12.626   9.611
  753POPC   GL112157  10.469  12.628   9.166
  753POPC   GL212158  10.683  12.392   9.020
  753POPC   C1A12159  10.459  12.788   8.722
  753POPC   D2A12160  10.159  12.938   8.408
  753POPC   C3A12161  10.304  12.913   7.945
  753POPC   C4A12162  10.590  12.850   7.558
  753POPC   C1B12163  10.754  12.390   8.584
  753POPC   C2B12164  10.792  12.736   8.323
  753POPC   C3B12165  10.691  12.574   7.967
  753POPC   C4B12166  10.837  12.395   7.600
  754POPC   NC312167  19.506  43.009   9.246
  754POPC   PO412168  20.025  42.862   9.704
  754POPC   GL112169  20.130  42.953   9.228
  754POPC   GL212170  19.936  43.205   9.005
  754POPC   C1A12171  20.174  42.842   8.751
  754POPC   D2A12172  20.177  43.130   8.359
  754POPC   C3A12173  19.915  43.072   7.953
  754POPC   C4A12174  19.770  43.003   7.507
  754POPC   C1B12175  19.710  43.060   8.591
  754POPC   C2B12176  19.467  42.888   8.220
  754POPC   C3B12177  19.399  43.097   7.846
  754POPC   C4B12178  19.621  43.463   7.667
  755POPC   NC312179  28.561  25.658   9.439
  755POPC   PO412180  28.163  26.252   9.458
  755POPC   GL112181  28.365  26.169   9.113
  755POPC   GL212182  28.232  25.846   9.103
  755POPC   C1A12183  28.172  26.142   8.698
  755POPC   D2A12184  27.894  26.220   8.385
  755POPC   C3A12185  28.110  26.274   7.978
  755POPC   C4A12186  28.477  26.328   7.687
  755POPC   C1B12187  28.168  25.628   8.767
  755POPC   C2B12188  28.242  25.771   8.368
  755POPC   C3B12189  28.102  25.722   7.965
  755POPC   C4B12190  28.383  25.653   7.628
  756POPC   NC312191  24.927  37.913   9.394
  756POPC   PO412192  25.267  37.460   9.707
  756POPC   GL112193  25.262  37.531   9.215
  756POPC   GL212194  25.505  37.782   9.174
  756POPC   C1A12195  25.093  37.772   8.794
  756POPC   D2A12196  25.032  37.897   8.366
  756POPC   C3A12197  25.136  37.785   7.932
  756POPC   C4A12198  25.147  37.400   7.654
  756POPC   C1B12199  25.558  37.604   8.749
  756POPC   C2B12200  25.470  37.636   8.343
  756POPC   C3B12201  25.553  37.502   7.960
  756POPC   C4B12202  25.526  37.714   7.549
  757POPC   NC312203  15.724  28.052   9.653
  757POPC   PO412204  16.213  28.497   9.575
  757POPC   GL112205  16.027  28.232   9.227
  757POPC   GL212206  15.674  28.285   9.181
  757POPC   C1A12207  15.972  28.096   8.791
  757POPC   D2A12208  15.874  28.311   8.412
  757POPC   C3A12209  16.032  28.321   7.991
  757POPC   C4A12210  15.852  28.109   7.649
  757POPC   C1B12211  15.461  28.242   8.792
  757POPC   C2B12212  15.400  28.095   8.395
  757POPC   C3B12213  15.524  28.270   8.022
  757POPC   C4B12214  15.666  28.669   7.829
  758POPC   NC312215  30.537  41.692   9.401
  758POPC   PO412216  30.565  42.415   9.430
  758POPC   GL112217  30.512  42.136   9.092
  758POPC   GL212218  30.823  41.949   9.072
  758POPC   C1A12219  30.633  42.173   8.660
  758POPC   D2A12220  30.647  42.379   8.261
  758POPC   C3A12221  30.498  42.273   7.826
  758POPC   C4A12222  30.701  42.326   7.401
  758POPC   C1B12223  31.128  41.982   8.738
  758POPC   C2B12224  31.167  42.028   8.316
  758POPC   C3B12225  30.814  41.942   8.077
  758POPC   C4B12226  30.716  41.837   7.680
  759POPC   NC312227   0.157  21.168   9.656
  759POPC   PO412228   0.630  21.676   9.534
  759POPC   GL112229   0.319  21.459   9.258
  759POPC   GL212230   0.270  21.086   9.183
  759POPC   C1A12231   0.359  21.428   8.821
  759POPC   D2A12232   0.178  21.480   8.421
  759POPC   C3A12233   0.484  21.621   8.105
  759POPC   C4A12234   0.484  21.752   7.662
  759POPC   C1B12235   0.616  20.969   8.973
  759POPC   C2B12236   0.601  21.025   8.543
  759POPC   C3B12237   0.431  21.113   8.167
  759POPC   C4B12238   0.199  21.293   7.829
  760POPC   NC312239  39.968   8.596   9.436
  760POPC   PO412240  40.278   9.266   9.490
  760POPC   GL112241  40.005   9.084   9.183
  760POPC   GL212242  40.189   8.811   9.005
  760POPC   C1A12243  39.887   9.217   8.774
  760POPC   D2A12244  40.083   9.080   8.405
  760POPC   C3A12245  40.001   9.292   8.033
  760POPC   C4A12246  40.215   9.233   7.664
  760POPC   C1B12247  39.821   8.696   8.750
  760POPC   C2B12248  39.719   8.734   8.309
  760POPC   C3B12249  39.910   8.794   7.922
  760POPC   C4B12250  39.713   8.696   7.544
  761POPC   NC312251  31.830  21.288   9.319
  761POPC   PO412252  31.362  20.833   9.576
  761POPC   GL112253  31.417  21.058   9.133
  761POPC   GL212254  31.363  21.427   9.098
  761POPC   C1A12255  31.448  21.038   8.686
  761POPC   D2A12256  31.271  21.311   8.377
  761POPC   C3A12257  31.423  21.342   7.970
  761POPC   C4A12258  31.571  21.053   7.692
  761POPC   C1B12259  31.263  21.681   8.728
  761POPC   C2B12260  31.312  21.815   8.283
  761POPC   C3B12261  31.180  21.765   7.830
  761POPC   C4B12262  31.407  21.722   7.427
  762POPC   NC312263   9.403   1.883   9.537
  762POPC   PO412264  10.035   2.182   9.346
  762POPC   GL112265   9.744   1.963   9.175
  762POPC   GL212266   9.955   1.885   8.929
  762POPC   C1A12267   9.483   2.061   8.837
  762POPC   D2A12268   9.686   2.260   8.511
  762POPC   C3A12269   9.803   2.066   8.133
  762POPC   C4A12270   9.551   1.900   7.821
  762POPC   C1B12271   9.797   1.745   8.555
  762POPC   C2B12272   9.798   1.552   8.163
  762POPC   C3B12273  10.059   1.631   7.798
  762POPC   C4B12274  10.223   1.717   7.342
  763POPC   NC312275  40.132  34.181   9.475
  763POPC   PO412276  39.619  34.607   9.511
  763POPC   GL112277  39.910  34.541   9.139
  763POPC   GL212278  40.303  34.508   9.130
  763POPC   C1A12279  40.041  34.674   8.719
  763POPC   D2A12280  40.328  34.628   8.376
  763POPC   C3A12281  40.083  34.791   8.051
  763POPC   C4A12282  39.738  34.581   7.858
  763POPC   C1B12283  40.280  34.209   8.768
  763POPC   C2B12284  40.273  34.079   8.322
  763POPC   C3B12285  40.253  34.331   7.924
  763POPC   C4B12286  40.377  34.697   7.654
  764POPC   NC312287  21.466   2.196   9.811
  764POPC   PO412288  21.256   1.576   9.525
  764POPC   GL112289  21.467   1.780   9.125
  764POPC   GL212290  21.478   2.158   9.132
  764POPC   C1A12291  21.331   1.889   8.678
  764POPC   D2A12292  21.220   1.795   8.218
  764POPC   C3A12293  21.447   1.845   7.808
  764POPC   C4A12294  21.287   1.981   7.382
  764POPC   C1B12295  21.537   2.366   8.732
  764POPC   C2B12296  21.558   2.202   8.328
  764POPC   C3B12297  21.564   2.332   7.913
  764POPC   C4B12298  21.800   2.150   7.527
  765POPC   NC312299  18.364   4.853   9.610
  765POPC   PO412300  18.257   4.110   9.654
  765POPC   GL112301  18.180   4.228   9.203
  765POPC   GL212302  18.423   4.512   9.201
  765POPC   C1A12303  18.309   4.199   8.743
  765POPC   D2A12304  18.372   4.352   8.304
  765POPC   C3A12305  18.283   4.174   7.899
  765POPC   C4A12306  17.896   4.252   7.689
  765POPC   C1B12307  18.196   4.685   8.864
  765POPC   C2B12308  18.152   4.799   8.438
  765POPC   C3B12309  18.040   4.689   7.995
  765POPC   C4B12310  18.297   4.605   7.640
  766POPC   NC312311  44.679   9.297   9.595
  766POPC   PO412312  44.394   8.760   9.380
  766POPC   GL112313  44.664   8.807   9.024
  766POPC   GL212314  44.740   9.124   9.098
  766POPC   C1A12315  44.727   8.960   8.600
  766POPC   D2A12316  44.536   9.246   8.316
  766POPC   C3A12317  44.549   9.101   7.896
  766POPC   C4A12318  44.512   8.657   7.775
  766POPC   C1B12319   0.014   9.343   8.817
  766POPC   C2B12320   0.117   9.326   8.363
  766POPC   C3B12321   0.071   9.215   7.903
  766POPC   C4B12322  44.874   9.421   7.514
  767POPC   NC312323   8.689  34.617   9.188
  767POPC   PO412324   8.242  34.570   9.710
  767POPC   GL112325   8.110  34.658   9.250
  767POPC   GL212326   8.169  34.346   9.040
  767POPC   C1A12327   8.181  34.795   8.788
  767POPC   D2A12328   8.358  34.590   8.403
  767POPC   C3A12329   8.164  34.641   8.010
  767POPC   C4A12330   7.999  34.659   7.596
  767POPC   C1B12331   8.396  34.130   8.676
  767POPC   C2B12332   8.609  34.152   8.262
  767POPC   C3B12333   8.432  34.249   7.871
  767POPC   C4B12334   8.295  34.245   7.448
  768POPC   NC312335  43.445  32.140   9.737
  768POPC   PO412336  42.884  32.474   9.520
  768POPC   GL112337  43.106  32.288   9.182
  768POPC   GL212338  43.250  31.976   9.296
  768POPC   C1A12339  42.957  32.332   8.754
  768POPC   D2A12340  42.976  32.602   8.422
  768POPC   C3A12341  43.024  32.323   8.097
  768POPC   C4A12342  42.742  32.295   7.787
  768POPC   C1B12343  43.323  31.966   8.854
  768POPC   C2B12344  43.399  32.167   8.475
  768POPC   C3B12345  43.401  31.905   8.129
  768POPC   C4B12346  43.249  31.991   7.755
  769POPC   NC312347  19.203  15.112   9.781
  769POPC   PO412348  18.660  15.385   9.533
  769POPC   GL112349  19.065  15.302   9.272
  769POPC   GL212350  18.997  14.991   9.146
  769POPC   C1A12351  19.373  15.159   8.882
  769POPC   D2A12352  19.214  14.976   8.477
  769POPC   C3A12353  19.347  15.065   8.072
  769POPC   C4A12354  19.326  15.246   7.670
  769POPC   C1B12355  18.808  15.135   8.760
  769POPC   C2B12356  18.839  15.334   8.354
  769POPC   C3B12357  18.841  15.213   7.915
  769POPC   C4B12358  18.706  15.475   7.607
  770POPC   NC312359  40.083  27.711   9.469
  770POPC   PO412360  39.432  27.691   9.495
  770POPC   GL112361  39.700  27.623   9.108
  770POPC   GL212362  40.030  27.419   9.064
  770POPC   C1A12363  39.908  27.759   8.710
  770POPC   D2A12364  40.121  28.006   8.388
  770POPC   C3A12365  40.274  27.753   8.052
  770POPC   C4A12366  39.970  27.597   7.762
  770POPC   C1B12367  39.730  27.253   8.736
  770POPC   C2B12368  39.653  27.401   8.307
  770POPC   C3B12369  39.805  27.150   7.978
  770POPC   C4B12370  40.238  27.120   7.885
  771POPC   NC312371  11.811   8.374   9.314
  771POPC   PO412372  11.238   8.073   9.601
  771POPC   GL112373  11.180   8.177   9.173
  771POPC   GL212374  11.467   8.200   8.977
  771POPC   C1A12375  10.997   8.216   8.759
  771POPC   D2A12376  10.994   8.321   8.333
  771POPC   C3A12377  11.326   8.222   8.045
  771POPC   C4A12378  11.287   8.045   7.617
  771POPC   C1B12379  11.452   8.096   8.544
  771POPC   C2B12380  11.775   8.001   8.251
  771POPC   C3B12381  11.674   7.871   7.861
  771POPC   C4B12382  11.732   7.937   7.384
  772POPC   NC312383  38.145  17.441   9.218
  772POPC   PO412384  38.763  17.457   9.595
  772POPC   GL112385  38.634  17.648   9.205
  772POPC   GL212386  38.613  17.302   9.088
  772POPC   C1A12387  38.507  17.734   8.753
  772POPC   D2A12388  38.208  17.633   8.425
  772POPC   C3A12389  38.380  17.728   8.023
  772POPC   C4A12390  38.125  17.800   7.681
  772POPC   C1B12391  38.475  17.229   8.674
  772POPC   C2B12392  38.616  17.343   8.291
  772POPC   C3B12393  38.563  17.240   7.890
  772POPC   C4B12394  38.417  17.398   7.516
  773POPC   NC312395  25.532   4.113   9.444
  773POPC   PO412396  24.942   4.474   9.480
  773POPC   GL112397  25.076   4.327   9.105
  773POPC   GL212398  25.421   4.266   8.993
  773POPC   C1A12399  25.047   4.260   8.682
  773POPC   D2A12400  25.345   4.074   8.445
  773POPC   C3A12401  25.229   4.308   8.127
  773POPC   C4A12402  25.079   4.187   7.738
  773POPC   C1B12403  25.624   4.480   8.687
  773POPC   C2B12404  25.782   4.315   8.321
  773POPC   C3B12405  25.677   4.134   7.962
  773POPC   C4B12406  25.510   4.450   7.733
  774POPC   NC312407  34.816   6.599   9.518
  774POPC   PO412408  34.186   6.696   9.485
  774POPC   GL112409  34.471   6.673   9.158
  774POPC   GL212410  34.550   6.310   9.176
  774POPC   C1A12411  34.572   6.856   8.773
  774POPC   D2A12412  34.402   6.757   8.402
  774POPC   C3A12413  34.520   6.836   7.977
  774POPC   C4A12414  34.616   6.497   7.672
  774POPC   C1B12415  34.317   6.343   8.803
  774POPC   C2B12416  34.410   6.240   8.404
  774POPC   C3B12417  34.251   6.406   8.051
  774POPC   C4B12418  34.170   6.242   7.691
  775POPC   NC312419  25.310  32.353   9.525
  775POPC   PO412420  24.767  31.981   9.315
  775POPC   GL112421  25.098  32.172   9.101
  775POPC   GL212422  25.416  31.991   9.154
  775POPC   C1A12423  25.192  32.354   8.736
  775POPC   D2A12424  25.088  32.083   8.436
  775POPC   C3A12425  25.064  32.281   8.057
  775POPC   C4A12426  25.301  32.392   7.707
  775POPC   C1B12427  25.534  31.972   8.709
  775POPC   C2B12428  25.695  31.977   8.301
  775POPC   C3B12429  25.612  32.015   7.889
  775POPC   C4B12430  25.267  31.907   7.628
  776POPC   NC312431  36.289  13.984   9.544
  776POPC   PO412432  35.649  13.699   9.431
  776POPC   GL112433  35.790  13.881   9.044
  776POPC   GL212434  36.150  13.809   9.007
  776POPC   C1A12435  35.866  13.791   8.578
  776POPC   D2A12436  36.098  13.599   8.234
  776POPC   C3A12437  36.050  13.804   7.846
  776POPC   C4A12438  35.732  13.847   7.533
  776POPC   C1B12439  36.176  13.397   8.715
  776POPC   C2B12440  36.106  13.100   8.333
  776POPC   C3B12441  36.089  13.179   7.866
  776POPC   C4B12442  36.115  13.458   7.475
  777POPC   NC312443  44.941  28.868   9.714
  777POPC   PO412444  44.362  29.114   9.465
  777POPC   GL112445  44.587  28.986   9.128
  777POPC   GL212446  44.932  28.941   9.208
  777POPC   C1A12447  44.476  28.928   8.696
  777POPC   D2A12448  44.297  29.158   8.333
  777POPC   C3A12449  44.507  29.067   7.939
  777POPC   C4A12450  44.780  28.795   7.731
  777POPC   C1B12451   0.004  28.940   8.762
  777POPC   C2B12452  44.858  28.997   8.336
  777POPC   C3B12453   0.024  29.187   7.979
  777POPC   C4B12454  44.840  29.330   7.599
  778POPC   NC312455  36.966  18.593   9.781
  778POPC   PO412456  36.745  19.146   9.414
  778POPC   GL112457  37.001  19.155   9.027
  778POPC   GL212458  37.256  19.469   8.940
  778POPC   C1A12459  36.935  18.892   8.691
  778POPC   D2A12460  36.607  19.012   8.475
  778POPC   C3A12461  36.787  18.891   8.133
  778POPC   C4A12462  36.926  18.559   7.905
  778POPC   C1B12463  36.994  19.403   8.591
  778POPC   C2B12464  37.010  19.492   8.190
  778POPC   C3B12465  36.913  19.314   7.866
  778POPC   C4B12466  37.097  18.973   7.667
  779POPC   NC312467  18.173  34.122   9.506
  779POPC   PO412468  17.993  33.548   9.364
  779POPC   GL112469  18.119  33.855   9.058
  779POPC   GL212470  18.488  33.906   9.100
  779POPC   C1A12471  18.091  33.967   8.622
  779POPC   D2A12472  17.848  33.892   8.225
  779POPC   C3A12473  18.160  33.983   7.888
  779POPC   C4A12474  18.274  33.779   7.499
  779POPC   C1B12475  18.471  33.628   8.705
  779POPC   C2B12476  18.324  33.625   8.245
  779POPC   C3B12477  18.457  33.390   7.854
  779POPC   C4B12478  18.542  33.372   7.392
  780POPC   NC312479  21.854  15.410   9.493
  780POPC   PO412480  22.286  14.910   9.481
  780POPC   GL112481  22.176  15.172   9.136
  780POPC   GL212482  21.820  15.123   9.095
  780POPC   C1A12483  22.117  15.082   8.701
  780POPC   D2A12484  22.260  15.181   8.344
  780POPC   C3A12485  22.044  15.192   8.025
  780POPC   C4A12486  22.286  15.230   7.693
  780POPC   C1B12487  21.684  14.839   8.787
  780POPC   C2B12488  21.895  14.693   8.410
  780POPC   C3B12489  21.775  14.761   7.994
  780POPC   C4B12490  21.855  14.992   7.596
  781POPC   NC312491  23.491   8.695   9.528
  781POPC   PO412492  24.080   8.919   9.456
  781POPC   GL112493  23.814   8.854   9.128
  781POPC   GL212494  23.517   9.043   9.142
  781POPC   C1A12495  23.850   9.080   8.729
  781POPC   D2A12496  23.917   9.300   8.353
  781POPC   C3A12497  23.984   9.072   8.023
  781POPC   C4A12498  23.876   8.862   7.699
  781POPC   C1B12499  23.323   9.129   8.735
  781POPC   C2B12500  23.388   9.300   8.328
  781POPC   C3B12501  23.482   9.153   7.907
  781POPC   C4B12502  23.480   9.057   7.431
  782POPC   NC312503   2.867   4.776   9.606
  782POPC   PO412504   3.247   5.324   9.656
  782POPC   GL112505   3.187   4.973   9.278
  782POPC   GL212506   2.840   5.027   9.166
  782POPC   C1A12507   3.229   4.817   8.853
  782POPC   D2A12508   3.020   4.727   8.447
  782POPC   C3A12509   2.957   4.908   8.067
  782POPC   C4A12510   3.083   5.254   7.818
  782POPC   C1B12511   2.689   4.760   8.833
  782POPC   C2B12512   2.539   4.896   8.408
  782POPC   C3B12513   2.461   4.907   7.980
  782POPC   C4B12514   2.668   5.023   7.642
  783POPC   NC312515  28.598  31.444   9.527
  783POPC   PO412516  27.970  31.521   9.559
  783POPC   GL112517  28.195  31.423   9.132
  783POPC   GL212518  28.484  31.635   9.056
  783POPC   C1A12519  28.270  31.439   8.626
  783POPC   D2A12520  28.624  31.574   8.361
  783POPC   C3A12521  28.462  31.501   7.944
  783POPC   C4A12522  28.245  31.199   7.692
  783POPC   C1B12523  28.645  31.204   8.843
  783POPC   C2B12524  28.615  31.058   8.382
  783POPC   C3B12525  28.722  31.028   7.910
  783POPC   C4B12526  28.631  30.925   7.464
  784POPC   NC312527   2.568  28.641   9.710
  784POPC   PO412528   2.860  28.132   9.325
  784POPC   GL112529   2.737  28.531   9.124
  784POPC   GL212530   2.482  28.793   9.203
  784POPC   C1A12531   2.798  28.494   8.691
  784POPC   D2A12532   2.829  28.133   8.410
  784POPC   C3A12533   2.753  28.259   7.961
  784POPC   C4A12534   2.952  28.549   7.692
  784POPC   C1B12535   2.286  28.622   8.791
  784POPC   C2B12536   2.424  28.455   8.345
  784POPC   C3B12537   2.303  28.538   7.903
  784POPC   C4B12538   2.495  28.851   7.660
  785POPC   NC312539  13.638  41.289   9.631
  785POPC   PO412540  13.958  41.870   9.453
  785POPC   GL112541  13.779  41.551   9.160
  785POPC   GL212542  13.463  41.425   9.166
  785POPC   C1A12543  13.868  41.535   8.748
  785POPC   D2A12544  14.003  41.450   8.356
  785POPC   C3A12545  13.932  41.738   8.023
  785POPC   C4A12546  13.710  41.755   7.627
  785POPC   C1B12547  13.379  41.653   8.786
  785POPC   C2B12548  13.520  41.736   8.380
  785POPC   C3B12549  13.518  41.449   8.067
  785POPC   C4B12550  13.560  41.271   7.671
  786POPC   NC312551  26.627  29.871   9.608
  786POPC   PO412552  25.957  29.718   9.541
  786POPC   GL112553  25.948  29.844   9.143
  786POPC   GL212554  26.244  30.041   9.160
  786POPC   C1A12555  25.756  29.717   8.760
  786POPC   D2A12556  25.948  29.800   8.378
  786POPC   C3A12557  25.801  29.654   7.992
  786POPC   C4A12558  25.881  29.870   7.620
  786POPC   C1B12559  26.311  29.894   8.773
  786POPC   C2B12560  26.456  30.017   8.421
  786POPC   C3B12561  26.387  29.861   8.044
  786POPC   C4B12562  26.387  29.987   7.636
  787POPC   NC312563  19.397  12.333   9.766
  787POPC   PO412564  18.883  12.144   9.371
  787POPC   GL112565  19.134  12.004   9.067
  787POPC   GL212566  19.342  12.342   9.134
  787POPC   C1A12567  19.250  11.783   8.659
  787POPC   D2A12568  19.413  11.782   8.220
  787POPC   C3A12569  19.111  11.837   7.859
  787POPC   C4A12570  19.206  11.938   7.437
  787POPC   C1B12571  19.344  12.304   8.676
  787POPC   C2B12572  19.195  12.259   8.272
  787POPC   C3B12573  18.878  12.267   7.994
  787POPC   C4B12574  18.497  12.349   7.818
  788POPC   NC312575   5.263  32.787   9.455
  788POPC   PO412576   5.090  32.198   9.674
  788POPC   GL112577   5.187  32.281   9.231
  788POPC   GL212578   4.869  32.375   9.098
  788POPC   C1A12579   5.145  32.072   8.796
  788POPC   D2A12580   4.870  32.010   8.437
  788POPC   C3A12581   5.036  32.001   7.995
  788POPC   C4A12582   5.254  32.268   7.676
  788POPC   C1B12583   5.051  32.596   8.750
  788POPC   C2B12584   5.150  32.470   8.340
  788POPC   C3B12585   4.889  32.502   8.009
  788POPC   C4B12586   4.880  32.686   7.642
  789POPC   NC312587  39.237  43.949   9.696
  789POPC   PO412588  38.839  43.756   9.185
  789POPC   GL112589  39.140  43.611   8.941
  789POPC   GL212590  38.950  43.401   8.751
  789POPC   C1A12591  39.391  43.709   8.551
  789POPC   D2A12592  39.652  44.028   8.315
  789POPC   C3A12593  39.606  43.998   7.863
  789POPC   C4A12594  39.344  43.744   7.619
  789POPC   C1B12595  38.889  43.798   8.495
  789POPC   C2B12596  39.132  43.880   8.101
  789POPC   C3B12597  39.135  44.185   7.758
  789POPC   C4B12598  38.930  44.142   7.323
  790POPC   NC312599  27.002   8.663   9.487
  790POPC   PO412600  26.407   8.913   9.379
  790POPC   GL112601  26.719   8.894   9.133
  790POPC   GL212602  26.858   9.185   9.246
  790POPC   C1A12603  26.729   8.823   8.736
  790POPC   D2A12604  26.635   8.700   8.388
  790POPC   C3A12605  26.778   8.879   8.047
  790POPC   C4A12606  26.572   8.806   7.668
  790POPC   C1B12607  26.569   9.312   8.862
  790POPC   C2B12608  26.485   9.192   8.445
  790POPC   C3B12609  26.554   9.366   8.064
  790POPC   C4B12610  26.757   9.263   7.722
  791POPC   NC312611   3.098   1.730   9.599
  791POPC   PO412612   3.706   2.030   9.588
  791POPC   GL112613   3.367   2.006   9.266
  791POPC   GL212614   3.518   2.266   9.153
  791POPC   C1A12615   3.202   2.055   8.828
  791POPC   D2A12616   3.267   1.885   8.445
  791POPC   C3A12617   3.115   2.114   8.144
  791POPC   C4A12618   3.289   2.247   7.749
  791POPC   C1B12619   3.694   1.947   8.871
  791POPC   C2B12620   3.800   1.887   8.450
  791POPC   C3B12621   3.616   2.032   8.083
  791POPC   C4B12622   3.336   1.758   7.830
  792POPC   NC312623  38.298  26.003   9.533
  792POPC   PO412624  38.999  25.848   9.519
  792POPC   GL112625  38.685  25.901   9.199
  792POPC   GL212626  38.677  26.246   9.200
  792POPC   C1A12627  38.415  25.843   8.811
  792POPC   D2A12628  38.234  25.975   8.405
  792POPC   C3A12629  38.217  25.786   7.984
  792POPC   C4A12630  38.568  25.767   7.705
  792POPC   C1B12631  38.523  26.338   8.809
  792POPC   C2B12632  38.472  26.447   8.413
  792POPC   C3B12633  38.469  26.287   8.029
  792POPC   C4B12634  38.325  26.197   7.670
  793POPC   NC312635  10.128   4.094   9.443
  793POPC   PO412636  10.551   4.586   9.453
  793POPC   GL112637  10.753   4.403   9.137
  793POPC   GL212638  10.593   4.101   9.165
  793POPC   C1A12639  10.927   4.245   8.744
  793POPC   D2A12640  10.860   3.981   8.391
  793POPC   C3A12641  10.919   4.172   7.993
  793POPC   C4A12642  10.565   4.366   7.790
  793POPC   C1B12643  10.467   3.981   8.735
  793POPC   C2B12644  10.229   3.837   8.351
  793POPC   C3B12645  10.451   3.922   7.976
  793POPC   C4B12646  10.337   3.978   7.514
  794POPC   NC312647  32.799  24.707   9.396
  794POPC   PO412648  33.400  24.598   9.495
  794POPC   GL112649  33.188  24.605   9.080
  794POPC   GL212650  32.969  24.322   9.109
  794POPC   C1A12651  33.082  24.755   8.636
  794POPC   D2A12652  33.164  24.765   8.162
  794POPC   C3A12653  32.882  24.596   7.839
  794POPC   C4A12654  32.941  24.485   7.371
  794POPC   C1B12655  33.190  24.253   8.713
  794POPC   C2B12656  33.005  24.278   8.318
  794POPC   C3B12657  33.231  24.208   7.974
  794POPC   C4B12658  33.231  24.077   7.535
  795POPC   NC312659   5.025  10.562   9.776
  795POPC   PO412660   5.475  10.327   9.353
  795POPC   GL112661   5.229  10.513   9.044
  795POPC   GL212662   4.919  10.613   9.194
  795POPC   C1A12663   5.218  10.571   8.599
  795POPC   D2A12664   5.227  10.354   8.217
  795POPC   C3A12665   5.143  10.647   7.885
  795POPC   C4A12666   5.358  10.624   7.503
  795POPC   C1B12667   4.781  10.407   8.769
  795POPC   C2B12668   4.742  10.518   8.307
  795POPC   C3B12669   4.808  10.266   7.899
  795POPC   C4B12670   4.657  10.343   7.462
  796POPC   NC312671  25.766  11.946   9.474
  796POPC   PO412672  26.305  12.401   9.522
  796POPC   GL112673  26.118  12.155   9.149
  796POPC   GL212674  25.737  12.230   9.060
  796POPC   C1A12675  26.078  12.005   8.716
  796POPC   D2A12676  25.997  11.804   8.330
  796POPC   C3A12677  25.958  12.112   8.027
  796POPC   C4A12678  26.221  11.976   7.688
  796POPC   C1B12679  25.611  11.856   8.825
  796POPC   C2B12680  25.520  11.898   8.428
  796POPC   C3B12681  25.508  11.748   8.045
  796POPC   C4B12682  25.690  11.834   7.714
  797POPC   NC312683  33.290  40.276   9.314
  797POPC   PO412684  32.957  39.763   9.529
  797POPC   GL112685  32.960  39.927   9.111
  797POPC   GL212686  33.298  39.824   9.074
  797POPC   C1A12687  32.835  40.232   8.746
  797POPC   D2A12688  32.731  40.422   8.326
  797POPC   C3A12689  32.742  40.152   7.951
  797POPC   C4A12690  32.814  39.703   7.847
  797POPC   C1B12691  33.303  40.027   8.686
  797POPC   C2B12692  33.052  39.948   8.308
  797POPC   C3B12693  33.243  40.004   7.911
  797POPC   C4B12694  33.419  40.238   7.564
  798POPC   NC312695  36.521  16.309   9.757
  798POPC   PO412696  36.204  15.770   9.467
  798POPC   GL112697  36.054  16.093   9.211
  798POPC   GL212698  35.973  15.813   8.997
  798POPC   C1A12699  35.964  16.318   8.843
  798POPC   D2A12700  35.816  16.026   8.542
  798POPC   C3A12701  35.873  16.080   8.104
  798POPC   C4A12702  36.207  16.144   7.849
  798POPC   C1B12703  35.971  15.538   8.625
  798POPC   C2B12704  35.942  15.437   8.199
  798POPC   C3B12705  35.899  15.649   7.798
  798POPC   C4B12706  35.913  15.492   7.384
  799POPC   NC312707  27.599  12.404   9.381
  799POPC   PO412708  27.850  11.777   9.542
  799POPC   GL112709  27.744  11.974   9.147
  799POPC   GL212710  27.467  11.871   9.041
  799POPC   C1A12711  27.660  12.209   8.730
  799POPC   D2A12712  27.447  12.181   8.327
  799POPC   C3A12713  27.642  12.336   7.974
  799POPC   C4A12714  27.706  12.204   7.550
  799POPC   C1B12715  27.487  11.696   8.667
  799POPC   C2B12716  27.319  11.683   8.250
  799POPC   C3B12717  27.475  11.811   7.849
  799POPC   C4B12718  27.434  11.798   7.388
  800POPC   NC312719  36.444  14.633   9.456
  800POPC   PO412720  35.968  14.280   9.660
  800POPC   GL112721  36.055  14.309   9.190
  800POPC   GL212722  36.419  14.259   9.108
  800POPC   C1A12723  35.902  14.273   8.729
  800POPC   D2A12724  35.728  14.178   8.269
  800POPC   C3A12725  35.954  14.313   7.867
  800POPC   C4A12726  35.835  14.643   7.570
  800POPC   C1B12727  36.308  14.564   8.782
  800POPC   C2B12728  36.132  14.559   8.362
  800POPC   C3B12729  36.337  14.620   8.011
  800POPC   C4B12730  36.434  14.401   7.660
  801POPC   NC312731  28.926  18.904   9.201
  801POPC   PO412732  29.532  18.722   9.497
  801POPC   GL112733  29.493  19.082   9.169
  801POPC   GL212734  29.213  19.360   9.199
  801POPC   C1A12735  29.485  19.338   8.780
  801POPC   D2A12736  29.295  19.156   8.456
  801POPC   C3A12737  29.417  19.166   8.051
  801POPC   C4A12738  29.256  18.808   7.819
  801POPC   C1B12739  28.977  19.473   8.780
  801POPC   C2B12740  28.941  19.479   8.313
  801POPC   C3B12741  28.870  19.216   7.943
  801POPC   C4B12742  28.556  19.263   7.600
  802POPC   NC312743  44.187   6.165   9.863
  802POPC   PO412744  43.625   5.870   9.565
  802POPC   GL112745  43.803   5.806   9.168
  802POPC   GL212746  43.551   5.895   8.964
  802POPC   C1A12747  43.988   5.485   8.872
  802POPC   D2A12748  44.021   5.278   8.462
  802POPC   C3A12749  43.976   5.568   8.125
  802POPC   C4A12750  44.106   5.669   7.711
  802POPC   C1B12751  43.929   6.031   8.713
  802POPC   C2B12752  44.023   6.234   8.311
  802POPC   C3B12753  44.008   6.174   7.851
  802POPC   C4B12754  43.732   5.960   7.533
  803POPC   NC312755  21.065   1.974   9.370
  803POPC   PO412756  20.443   2.135   9.446
  803POPC   GL112757  20.579   1.838   9.145
  803POPC   GL212758  20.878   1.972   8.922
  803POPC   C1A12759  20.503   1.737   8.730
  803POPC   D2A12760  20.768   1.971   8.420
  803POPC   C3A12761  20.714   1.800   8.042
  803POPC   C4A12762  20.429   1.870   7.716
  803POPC   C1B12763  21.029   2.331   8.698
  803POPC   C2B12764  21.093   2.384   8.256
  803POPC   C3B12765  21.071   2.182   7.861
  803POPC   C4B12766  20.869   2.259   7.484
  804POPC   NC312767  18.589  15.852   9.695
  804POPC   PO412768  19.153  16.206   9.601
  804POPC   GL112769  19.011  16.224   9.170
  804POPC   GL212770  19.149  15.869   9.174
  804POPC   C1A12771  18.903  16.041   8.748
  804POPC   D2A12772  19.057  15.934   8.356
  804POPC   C3A12773  19.104  16.271   8.032
  804POPC   C4A12774  19.062  16.232   7.574
  804POPC   C1B12775  19.084  15.570   8.826
  804POPC   C2B12776  19.326  15.484   8.454
  804POPC   C3B12777  19.181  15.564   8.039
  804POPC   C4B12778  19.154  15.722   7.633
  805POPC   NC312779  42.013  21.882   9.510
  805POPC   PO412780  41.392  21.802   9.461
  805POPC   GL112781  41.565  22.115   9.157
  805POPC   GL212782  41.867  22.315   9.234
  805POPC   C1A12783  41.483  22.313   8.761
  805POPC   D2A12784  41.647  22.158   8.396
  805POPC   C3A12785  41.519  22.319   8.012
  805POPC   C4A12786  41.299  22.194   7.624
  805POPC   C1B12787  41.958  22.468   8.808
  805POPC   C2B12788  41.779  22.658   8.431
  805POPC   C3B12789  41.954  22.674   8.028
  805POPC   C4B12790  41.955  22.398   7.729
  806POPC   NC312791  35.448   3.922   9.542
  806POPC   PO412792  35.178   4.597   9.501
  806POPC   GL112793  35.217   4.401   9.125
  806POPC   GL212794  35.469   4.244   9.106
  806POPC   C1A12795  35.090   4.283   8.727
  806POPC   D2A12796  35.122   4.039   8.380
  806POPC   C3A12797  35.383   4.189   8.057
  806POPC   C4A12798  35.427   3.882   7.767
  806POPC   C1B12799  35.598   4.211   8.661
  806POPC   C2B12800  35.869   4.268   8.300
  806POPC   C3B12801  35.794   4.537   7.962
  806POPC   C4B12802  35.536   4.480   7.625
  807POPC   NC312803   6.119   3.533   9.783
  807POPC   PO412804   5.614   3.841   9.484
  807POPC   GL112805   5.748   3.579   9.155
  807POPC   GL212806   6.113   3.585   9.045
  807POPC   C1A12807   5.732   3.420   8.745
  807POPC   D2A12808   6.066   3.537   8.462
  807POPC   C3A12809   5.909   3.323   8.119
  807POPC   C4A12810   5.560   3.345   7.861
  807POPC   C1B12811   5.840   3.918   8.782
  807POPC   C2B12812   5.762   3.956   8.366
  807POPC   C3B12813   5.937   3.845   7.975
  807POPC   C4B12814   5.748   3.744   7.589
  808POPC   NC312815  19.340  16.621   9.514
  808POPC   PO412816  18.658  16.901   9.457
  808POPC   GL112817  18.952  16.750   9.141
  808POPC   GL212818  19.285  16.713   9.028
  808POPC   C1A12819  18.927  16.538   8.725
  808POPC   D2A12820  19.159  16.654   8.367
  808POPC   C3A12821  18.991  16.918   8.037
  808POPC   C4A12822  19.113  16.721   7.704
  808POPC   C1B12823  19.091  17.020   8.716
  808POPC   C2B12824  19.311  17.166   8.351
  808POPC   C3B12825  19.504  16.897   8.037
  808POPC   C4B12826  19.577  16.891   7.612
  809POPC   NC312827   5.199  30.857   9.563
  809POPC   PO412828   4.627  31.068   9.310
  809POPC   GL112829   4.952  30.907   9.052
  809POPC   GL212830   5.296  30.768   9.074
  809POPC   C1A12831   5.038  30.631   8.675
  809POPC   D2A12832   5.322  30.602   8.345
  809POPC   C3A12833   5.023  30.620   8.003
  809POPC   C4A12834   4.827  30.223   7.861
  809POPC   C1B12835   5.308  31.063   8.711
  809POPC   C2B12836   5.216  31.099   8.292
  809POPC   C3B12837   5.404  30.950   7.934
  809POPC   C4B12838   5.323  30.931   7.525
  810POPC   NC312839  24.268   8.502   9.523
  810POPC   PO412840  24.879   8.318   9.447
  810POPC   GL112841  24.517   8.243   9.129
  810POPC   GL212842  24.136   8.138   9.196
  810POPC   C1A12843  24.370   8.053   8.739
  810POPC   D2A12844  24.308   7.852   8.360
  810POPC   C3A12845  24.381   8.116   8.043
  810POPC   C4A12846  24.660   7.997   7.732
  810POPC   C1B12847  24.050   8.455   8.887
  810POPC   C2B12848  24.039   8.410   8.458
  810POPC   C3B12849  24.033   8.516   8.032
  810POPC   C4B12850  24.302   8.468   7.670
  811POPC   NC312851  25.038  37.122   9.461
  811POPC   PO412852  25.625  37.053   9.116
  811POPC   GL112853  25.220  37.044   8.989
  811POPC   GL212854  25.089  36.710   9.119
  811POPC   C1A12855  25.103  37.287   8.619
  811POPC   D2A12856  25.105  37.301   8.170
  811POPC   C3A12857  25.425  37.011   7.984
  811POPC   C4A12858  25.603  37.154   7.596
  811POPC   C1B12859  25.267  36.577   8.753
  811POPC   C2B12860  25.403  36.544   8.353
  811POPC   C3B12861  25.281  36.453   7.954
  811POPC   C4B12862  25.511  36.637   7.607
  812POPC   NC312863  31.976  11.378   9.370
  812POPC   PO412864  31.570  11.566   9.902
  812POPC   GL112865  31.443  11.432   9.437
  812POPC   GL212866  31.396  11.083   9.326
  812POPC   C1A12867  31.369  11.488   8.960
  812POPC   D2A12868  31.400  11.343   8.519
  812POPC   C3A12869  31.644  11.527   8.188
  812POPC   C4A12870  31.434  11.529   7.797
  812POPC   C1B12871  31.397  10.957   8.881
  812POPC   C2B12872  31.310  10.861   8.430
  812POPC   C3B12873  31.478  11.039   8.034
  812POPC   C4B12874  31.496  11.080   7.578
  813POPC   NC312875   7.792  15.702   9.203
  813POPC   PO412876   7.220  15.780   9.500
  813POPC   GL112877   7.383  15.882   9.014
  813POPC   GL212878   7.671  16.139   8.898
  813POPC   C1A12879   7.310  15.985   8.626
  813POPC   D2A12880   7.522  16.172   8.331
  813POPC   C3A12881   7.353  15.927   8.045
  813POPC   C4A12882   7.176  16.004   7.689
  813POPC   C1B12883   7.920  15.909   8.606
  813POPC   C2B12884   7.878  15.505   8.430
  813POPC   C3B12885   7.743  15.476   8.024
  813POPC   C4B12886   7.582  15.663   7.661
  814POPC   NC312887  37.087   7.708   9.291
  814POPC   PO412888  37.096   8.350   9.580
  814POPC   GL112889  36.938   8.178   9.134
  814POPC   GL212890  36.608   8.241   9.049
  814POPC   C1A12891  36.824   8.042   8.656
  814POPC   D2A12892  36.931   8.062   8.241
  814POPC   C3A12893  37.196   8.388   8.091
  814POPC   C4A12894  37.232   8.537   7.670
  814POPC   C1B12895  36.452   8.442   8.725
  814POPC   C2B12896  36.447   8.249   8.330
  814POPC   C3B12897  36.543   8.186   7.902
  814POPC   C4B12898  36.927   8.112   7.731
  815POPC   NC312899   5.727  32.231   9.653
  815POPC   PO412900   5.762  32.874   9.452
  815POPC   GL112901   5.873  32.528   9.140
  815POPC   GL212902   5.930  32.146   9.167
  815POPC   C1A12903   6.113  32.403   8.773
  815POPC   D2A12904   5.890  32.270   8.444
  815POPC   C3A12905   6.008  32.350   8.062
  815POPC   C4A12906   5.734  32.449   7.733
  815POPC   C1B12907   6.044  31.887   8.773
  815POPC   C2B12908   6.039  31.806   8.319
  815POPC   C3B12909   5.888  31.880   7.916
  815POPC   C4B12910   6.133  32.144   7.607
  816POPC   NC312911  37.169  14.701   9.572
  816POPC   PO412912  36.760  14.129   9.513
  816POPC   GL112913  36.945  14.320   9.170
  816POPC   GL212914  36.849  14.620   9.153
  816POPC   C1A12915  36.805  14.352   8.733
  816POPC   D2A12916  37.040  14.359   8.346
  816POPC   C3A12917  36.784  14.178   8.024
  816POPC   C4A12918  36.907  14.236   7.606
  816POPC   C1B12919  36.703  14.871   8.809
  816POPC   C2B12920  36.687  14.720   8.374
  816POPC   C3B12921  36.847  14.661   7.931
  816POPC   C4B12922  36.797  14.737   7.492
  817POPC   NC312923  32.099  13.838   9.533
  817POPC   PO412924  32.235  13.174   9.539
  817POPC   GL112925  32.304  13.423   9.147
  817POPC   GL212926  32.482  13.763   9.167
  817POPC   C1A12927  32.290  13.251   8.701
  817POPC   D2A12928  32.196  13.108   8.254
  817POPC   C3A12929  32.356  13.358   7.917
  817POPC   C4A12930  32.509  13.205   7.545
  817POPC   C1B12931  32.229  13.758   8.782
  817POPC   C2B12932  32.349  13.631   8.349
  817POPC   C3B12933  32.554  13.825   7.988
  817POPC   C4B12934  32.563  13.721   7.534
  818POPC   NC312935  39.900  35.873   9.436
  818POPC   PO412936  40.107  36.435   9.723
  818POPC   GL112937  39.942  36.353   9.231
  818POPC   GL212938  39.672  36.154   9.092
  818POPC   C1A12939  40.085  36.198   8.788
  818POPC   D2A12940  40.124  35.979   8.391
  818POPC   C3A12941  40.358  36.079   8.030
  818POPC   C4A12942  40.318  35.735   7.708
  818POPC   C1B12943  39.536  36.508   8.883
  818POPC   C2B12944  39.570  36.567   8.457
  818POPC   C3B12945  39.861  36.386   8.209
  818POPC   C4B12946  39.648  36.399   7.794
  819POPC   NC312947  21.607  36.347   9.443
  819POPC   PO412948  20.894  36.632   9.510
  819POPC   GL112949  21.173  36.436   9.122
  819POPC   GL212950  21.361  36.063   9.088
  819POPC   C1A12951  21.377  36.397   8.674
  819POPC   D2A12952  21.358  36.482   8.191
  819POPC   C3A12953  21.172  36.193   7.876
  819POPC   C4A12954  21.024  35.748   7.793
  819POPC   C1B12955  21.720  36.027   8.764
  819POPC   C2B12956  21.758  35.882   8.309
  819POPC   C3B12957  21.612  35.908   7.862
  819POPC   C4B12958  21.628  36.264   7.585
  820POPC   NC312959  41.196  28.623   9.343
  820POPC   PO412960  41.507  29.147   9.472
  820POPC   GL112961  41.429  29.113   9.050
  820POPC   GL212962  41.701  28.910   8.953
  820POPC   C1A12963  41.486  29.277   8.642
  820POPC   D2A12964  41.257  29.280   8.274
  820POPC   C3A12965  41.502  29.303   7.957
  820POPC   C4A12966  41.408  29.527   7.613
  820POPC   C1B12967  41.347  28.714   8.726
  820POPC   C2B12968  41.151  28.743   8.331
  820POPC   C3B12969  41.277  28.810   7.920
  820POPC   C4B12970  41.504  28.967   7.577
  821POPC   NC312971  42.619   6.534   9.317
  821POPC   PO412972  43.210   6.540   9.631
  821POPC   GL112973  43.205   6.589   9.180
  821POPC   GL212974  43.240   6.269   9.120
  821POPC   C1A12975  43.330   6.855   8.787
  821POPC   D2A12976  43.555   6.828   8.398
  821POPC   C3A12977  43.388   6.781   7.982
  821POPC   C4A12978  43.094   6.952   7.717
  821POPC   C1B12979  43.076   6.406   8.726
  821POPC   C2B12980  43.041   6.641   8.366
  821POPC   C3B12981  42.850   6.558   7.995
  821POPC   C4B12982  43.083   6.424   7.685
  822POPC   NC312983   4.950  28.083   9.743
  822POPC   PO412984   5.352  28.583   9.502
  822POPC   GL112985   5.056  28.300   9.250
  822POPC   GL212986   4.782  28.473   9.051
  822POPC   C1A12987   5.138  28.198   8.804
  822POPC   D2A12988   5.058  28.489   8.450
  822POPC   C3A12989   5.208  28.342   8.058
  822POPC   C4A12990   5.255  28.554   7.681
  822POPC   C1B12991   4.648  28.261   8.652
  822POPC   C2B12992   4.699  28.149   8.222
  822POPC   C3B12993   4.745  28.348   7.820
  822POPC   C4B12994   4.727  28.188   7.403
  823POPC   NC312995  22.936  44.969   9.471
  823POPC   PO412996  22.615  44.399   9.595
  823POPC   GL112997  22.731  44.542   9.180
  823POPC   GL212998  23.081  44.462   9.272
  823POPC   C1A12999  22.757  44.844   8.776
  823POPC   D2A13000  22.994  44.977   8.380
  823POPC   C3A13001  22.837  44.790   8.014
  823POPC   C4A13002  22.517  44.769   7.706
  823POPC   C1B13003  23.099  44.418   8.841
  823POPC   C2B13004  22.940  44.458   8.439
  823POPC   C3B13005  23.144  44.379   8.082
  823POPC   C4B13006  23.230  44.240   7.705
  824POPC   NC313007   8.007  26.287   9.493
  824POPC   PO413008   8.562  26.017   9.724
  824POPC   GL113009   8.479  26.074   9.268
  824POPC   GL213010   8.554  25.783   9.117
  824POPC   C1A13011   8.226  26.182   8.906
  824POPC   D2A13012   8.042  26.332   8.545
  824POPC   C3A13013   8.318  26.315   8.196
  824POPC   C4A13014   8.203  26.050   7.856
  824POPC   C1B13015   8.326  25.714   8.753
  824POPC   C2B13016   8.214  25.834   8.352
  824POPC   C3B13017   7.932  25.658   8.067
  824POPC   C4B13018   8.097  25.558   7.669
  825POPC   NC313019  25.158  20.077   9.407
  825POPC   PO413020  25.183  20.745   9.489
  825POPC   GL113021  25.226  20.565   9.128
  825POPC   GL213022  25.521  20.364   9.093
  825POPC   C1A13023  25.310  20.710   8.731
  825POPC   D2A13024  25.434  20.479   8.375
  825POPC   C3A13025  25.256  20.672   8.054
  825POPC   C4A13026  25.293  20.820   7.647
  825POPC   C1B13027  25.627  20.125   8.723
  825POPC   C2B13028  25.614  19.941   8.319
  825POPC   C3B13029  25.617  20.182   7.958
  825POPC   C4B13030  25.247  20.296   7.726
  826POPC   NC313031  44.742  25.143   9.611
  826POPC   PO413032  44.302  24.670   9.476
  826POPC   GL113033  44.390  25.045   9.206
  826POPC   GL213034  44.746  25.077   9.119
  826POPC   C1A13035  44.390  24.990   8.734
  826POPC   D2A13036  44.652  25.053   8.354
  826POPC   C3A13037  44.444  25.096   7.967
  826POPC   C4A13038  44.546  25.366   7.604
  826POPC   C1B13039  44.870  25.316   8.765
  826POPC   C2B13040   0.029  25.418   8.361
  826POPC   C3B13041  44.918  25.316   7.943
  826POPC   C4B13042   0.133  25.073   7.619
  827POPC   NC313043   2.409  37.875   9.305
  827POPC   PO413044   3.038  37.891   9.445
  827POPC   GL113045   2.829  37.804   9.061
  827POPC   GL213046   2.687  37.466   9.145
  827POPC   C1A13047   2.574  37.855   8.679
  827POPC   D2A13048   2.340  37.806   8.310
  827POPC   C3A13049   2.524  38.016   7.956
  827POPC   C4A13050   2.912  37.980   7.832
  827POPC   C1B13051   2.822  37.423   8.726
  827POPC   C2B13052   2.723  37.487   8.312
  827POPC   C3B13053   2.683  37.500   7.884
  827POPC   C4B13054   2.857  37.393   7.461
  828POPC   NC313055  18.292  37.216   9.311
  828POPC   PO413056  18.687  36.696   9.632
  828POPC   GL113057  18.470  36.578   9.136
  828POPC   GL213058  18.171  36.749   9.080
  828POPC   C1A13059  18.499  36.491   8.739
  828POPC   D2A13060  18.704  36.733   8.432
  828POPC   C3A13061  18.477  36.673   8.097
  828POPC   C4A13062  18.514  36.592   7.660
  828POPC   C1B13063  18.281  36.952   8.657
  828POPC   C2B13064  18.161  37.070   8.220
  828POPC   C3B13065  18.251  36.998   7.769
  828POPC   C4B13066  18.289  36.998   7.300
  829POPC   NC313067   8.403  30.554   9.496
  829POPC   PO413068   7.816  30.924   9.511
  829POPC   GL113069   8.026  30.745   9.195
  829POPC   GL213070   8.340  30.903   9.141
  829POPC   C1A13071   8.020  30.602   8.791
  829POPC   D2A13072   8.135  30.734   8.394
  829POPC   C3A13073   8.265  30.496   8.031
  829POPC   C4A13074   8.314  30.263   7.653
  829POPC   C1B13075   8.520  30.572   8.854
  829POPC   C2B13076   8.643  30.617   8.451
  829POPC   C3B13077   8.613  30.859   8.109
  829POPC   C4B13078   8.679  30.779   7.689
  830POPC   NC313079   4.365  31.216   9.660
  830POPC   PO413080   4.621  31.812   9.459
  830POPC   GL113081   4.349  31.499   9.195
  830POPC   GL213082   4.436  31.250   8.896
  830POPC   C1A13083   4.087  31.587   8.830
  830POPC   D2A13084   4.053  31.362   8.450
  830POPC   C3A13085   4.107  31.627   8.107
  830POPC   C4A13086   4.066  31.458   7.713
  830POPC   C1B13087   4.802  31.191   8.657
  830POPC   C2B13088   4.703  31.020   8.308
  830POPC   C3B13089   4.382  31.113   8.033
  830POPC   C4B13090   4.749  31.035   7.777
  831POPC   NC313091  25.565  18.943   9.438
  831POPC   PO413092  26.241  19.269   9.500
  831POPC   GL113093  26.332  19.117   9.103
  831POPC   GL213094  25.985  19.004   9.108
  831POPC   C1A13095  26.261  19.153   8.674
  831POPC   D2A13096  25.982  19.133   8.375
  831POPC   C3A13097  26.203  19.085   7.988
  831POPC   C4A13098  25.970  19.190   7.657
  831POPC   C1B13099  25.646  19.093   8.784
  831POPC   C2B13100  25.514  18.867   8.407
  831POPC   C3B13101  25.729  18.870   8.018
  831POPC   C4B13102  25.765  18.728   7.616
  832POPC   NC313103  20.624   3.530   9.490
  832POPC   PO413104  21.111   3.950   9.271
  832POPC   GL113105  20.831   3.657   9.046
  832POPC   GL213106  20.842   3.254   9.127
  832POPC   C1A13107  20.496   3.730   8.745
  832POPC   D2A13108  20.445   3.547   8.335
  832POPC   C3A13109  20.505   3.757   7.950
  832POPC   C4A13110  20.397   3.652   7.553
  832POPC   C1B13111  20.697   3.251   8.728
  832POPC   C2B13112  20.890   3.320   8.334
  832POPC   C3B13113  20.748   3.291   7.910
  832POPC   C4B13114  21.025   3.152   7.604
  833POPC   NC313115  33.345   7.466   9.468
  833POPC   PO413116  34.061   7.684   9.396
  833POPC   GL113117  33.959   7.478   9.022
  833POPC   GL213118  33.626   7.589   9.046
  833POPC   C1A13119  34.109   7.136   8.722
  833POPC   D2A13120  34.281   7.241   8.305
  833POPC   C3A13121  34.106   7.143   7.889
  833POPC   C4A13122  34.156   7.380   7.479
  833POPC   C1B13123  33.596   7.228   8.771
  833POPC   C2B13124  33.759   7.214   8.357
  833POPC   C3B13125  33.674   7.416   8.003
  833POPC   C4B13126  33.360   7.223   7.839
  834POPC   NC313127  10.185  24.032   9.392
  834POPC   PO413128  10.431  23.402   9.601
  834POPC   GL113129  10.507  23.567   9.172
  834POPC   GL213130  10.476  23.871   9.016
  834POPC   C1A13131  10.777  23.581   8.761
  834POPC   D2A13132  10.568  23.808   8.464
  834POPC   C3A13133  10.618  23.663   8.066
  834POPC   C4A13134  10.569  23.592   7.676
  834POPC   C1B13135  10.172  24.035   8.741
  834POPC   C2B13136  10.234  24.196   8.377
  834POPC   C3B13137  10.483  24.151   8.072
  834POPC   C4B13138  10.271  24.007   7.761
  835POPC   NC313139  33.317  15.826   9.538
  835POPC   PO413140  32.933  16.432   9.496
  835POPC   GL113141  33.077  16.132   9.175
  835POPC   GL213142  33.444  16.041   9.105
  835POPC   C1A13143  33.064  16.104   8.739
  835POPC   D2A13144  32.853  16.088   8.344
  835POPC   C3A13145  33.187  16.070   8.041
  835POPC   C4A13146  33.242  16.175   7.643
  835POPC   C1B13147  33.391  15.714   8.807
  835POPC   C2B13148  33.158  15.663   8.436
  835POPC   C3B13149  33.366  15.598   8.060
  835POPC   C4B13150  33.248  15.684   7.666
  836POPC   NC313151  28.587  18.055   9.452
  836POPC   PO413152  27.996  18.338   9.616
  836POPC   GL113153  28.199  18.313   9.197
  836POPC   GL213154  28.141  18.017   9.060
  836POPC   C1A13155  28.371  18.324   8.717
  836POPC   D2A13156  28.282  18.481   8.248
  836POPC   C3A13157  28.460  18.479   7.782
  836POPC   C4A13158  28.229  18.327   7.389
  836POPC   C1B13159  28.187  17.823   8.683
  836POPC   C2B13160  28.082  17.964   8.276
  836POPC   C3B13161  28.393  18.011   7.980
  836POPC   C4B13162  28.593  18.017   7.572
  837POPC   NC313163   6.373   7.254   9.633
  837POPC   PO413164   7.005   7.292   9.490
  837POPC   GL113165   6.863   7.082   9.112
  837POPC   GL213166   6.474   7.116   9.119
  837POPC   C1A13167   6.779   7.217   8.681
  837POPC   D2A13168   6.665   7.576   8.433
  837POPC   C3A13169   6.878   7.565   8.045
  837POPC   C4A13170   6.807   7.841   7.753
  837POPC   C1B13171   6.256   7.213   8.716
  837POPC   C2B13172   6.431   7.156   8.282
  837POPC   C3B13173   6.405   7.419   7.884
  837POPC   C4B13174   6.227   7.287   7.468
  838POPC   NC313175   4.492  19.386   9.977
  838POPC   PO413176   4.020  19.038   9.642
  838POPC   GL113177   4.153  19.147   9.232
  838POPC   GL213178   4.144  18.801   9.128
  838POPC   C1A13179   4.198  19.334   8.813
  838POPC   D2A13180   4.046  19.237   8.378
  838POPC   C3A13181   4.375  19.304   8.067
  838POPC   C4A13182   4.511  19.663   7.832
  838POPC   C1B13183   4.273  18.832   8.717
  838POPC   C2B13184   4.119  18.703   8.327
  838POPC   C3B13185   4.127  18.869   7.919
  838POPC   C4B13186   4.504  18.949   7.667
  839POPC   NC313187  19.282  13.291   9.565
  839POPC   PO413188  18.771  13.699   9.567
  839POPC   GL113189  18.938  13.637   9.171
  839POPC   GL213190  19.287  13.694   9.237
  839POPC   C1A13191  18.776  13.681   8.759
  839POPC   D2A13192  18.613  13.565   8.349
  839POPC   C3A13193  18.789  13.701   7.969
  839POPC   C4A13194  19.025  13.818   7.595
  839POPC   C1B13195  19.320  13.674   8.794
  839POPC   C2B13196  19.138  13.673   8.385
  839POPC   C3B13197  19.303  13.589   7.993
  839POPC   C4B13198  19.517  13.670   7.643
  840POPC   NC313199   1.954   5.415   9.452
  840POPC   PO413200   2.453   5.015   9.582
  840POPC   GL113201   2.093   4.954   9.282
  840POPC   GL213202   2.321   5.013   9.055
  840POPC   C1A13203   1.820   4.971   8.893
  840POPC   D2A13204   1.676   5.280   8.563
  840POPC   C3A13205   1.554   5.134   8.137
  840POPC   C4A13206   1.691   5.206   7.697
  840POPC   C1B13207   2.218   5.194   8.671
  840POPC   C2B13208   2.052   5.060   8.266
  840POPC   C3B13209   1.979   4.850   7.864
  840POPC   C4B13210   2.218   4.815   7.459
  841POPC   NC313211  36.185   3.354   9.567
  841POPC   PO413212  35.802   2.835   9.512
  841POPC   GL113213  36.077   2.854   9.173
  841POPC   GL213214  36.317   3.108   9.150
  841POPC   C1A13215  36.133   2.902   8.733
  841POPC   D2A13216  36.070   2.744   8.347
  841POPC   C3A13217  36.003   2.942   7.963
  841POPC   C4A13218  36.163   2.547   7.851
  841POPC   C1B13219  36.584   3.139   8.795
  841POPC   C2B13220  36.582   2.857   8.468
  841POPC   C3B13221  36.511   2.883   8.061
  841POPC   C4B13222  36.440   2.912   7.641
  842POPC   NC313223  16.580  36.444   9.460
  842POPC   PO413224  17.131  35.960   9.408
  842POPC   GL113225  16.876  36.138   9.136
  842POPC   GL213226  16.553  35.989   9.201
  842POPC   C1A13227  16.908  36.394   8.789
  842POPC   D2A13228  16.659  36.407   8.406
  842POPC   C3A13229  16.887  36.155   8.139
  842POPC   C4A13230  16.987  36.413   7.827
  842POPC   C1B13231  16.474  36.136   8.797
  842POPC   C2B13232  16.438  35.946   8.376
  842POPC   C3B13233  16.464  35.976   7.934
  842POPC   C4B13234  16.241  35.951   7.551
  843POPC   NC313235  12.775  30.214   9.437
  843POPC   PO413236  13.171  29.625   9.489
  843POPC   GL113237  13.112  29.946   9.167
  843POPC   GL213238  12.780  29.824   9.056
  843POPC   C1A13239  12.977  30.222   8.815
  843POPC   D2A13240  12.625  30.107   8.574
  843POPC   C3A13241  12.683  30.058   8.134
  843POPC   C4A13242  12.550  29.736   7.877
  843POPC   C1B13243  13.122  29.740   8.711
  843POPC   C2B13244  13.165  29.843   8.269
  843POPC   C3B13245  13.080  29.829   7.829
  843POPC   C4B13246  13.241  29.778   7.404
  844POPC   NC313247   6.426  21.989   9.869
  844POPC   PO413248   5.882  22.209   9.555
  844POPC   GL113249   6.132  22.242   9.192
  844POPC   GL213250   5.843  22.198   9.006
  844POPC   C1A13251   6.262  22.125   8.755
  844POPC   D2A13252   5.985  22.173   8.439
  844POPC   C3A13253   6.189  22.229   8.090
  844POPC   C4A13254   6.085  22.296   7.663
  844POPC   C1B13255   5.817  21.822   8.773
  844POPC   C2B13256   5.633  21.818   8.348
  844POPC   C3B13257   5.814  21.919   7.928
  844POPC   C4B13258   5.895  21.853   7.463
  845POPC   NC313259  28.026   9.977   9.533
  845POPC   PO413260  28.715   9.788   9.548
  845POPC   GL113261  28.519   9.716   9.187
  845POPC   GL213262  28.298   9.990   9.096
  845POPC   C1A13263  28.709   9.810   8.832
  845POPC   D2A13264  28.499   9.994   8.548
  845POPC   C3A13265  28.328   9.700   8.282
  845POPC   C4A13266  28.515   9.622   7.908
  845POPC   C1B13267  28.130   9.713   8.762
  845POPC   C2B13268  28.038   9.336   8.497
  845POPC   C3B13269  28.067   9.314   8.056
  845POPC   C4B13270  28.011   9.678   7.800
  846POPC   NC313271  30.171  38.708   9.602
  846POPC   PO413272  29.495  38.404   9.456
  846POPC   GL113273  29.711  38.542   9.080
  846POPC   GL213274  30.067  38.572   9.116
  846POPC   C1A13275  29.702  38.447   8.690
  846POPC   D2A13276  29.664  38.315   8.249
  846POPC   C3A13277  30.041  38.146   8.091
  846POPC   C4A13278  30.080  38.079   7.656
  846POPC   C1B13279  30.200  38.682   8.753
  846POPC   C2B13280  30.048  38.624   8.372
  846POPC   C3B13281  29.943  38.704   8.004
  846POPC   C4B13282  30.259  38.583   7.801
  847POPC   NC313283  33.655   9.714   9.854
  847POPC   PO413284  34.128   9.988   9.522
  847POPC   GL113285  34.084   9.638   9.136
  847POPC   GL213286  33.715   9.585   8.966
  847POPC   C1A13287  34.129   9.657   8.665
  847POPC   D2A13288  34.024   9.953   8.312
  847POPC   C3A13289  33.923   9.727   7.941
  847POPC   C4A13290  33.661   9.388   7.851
  847POPC   C1B13291  33.637   9.869   8.646
  847POPC   C2B13292  33.544   9.675   8.276
  847POPC   C3B13293  33.373   9.815   7.898
  847POPC   C4B13294  33.275  10.232   7.780
  848POPC   NC313295  38.848  43.128   9.756
  848POPC   PO413296  38.399  42.763   9.384
  848POPC   GL113297  38.493  42.932   9.055
  848POPC   GL213298  38.856  42.808   9.149
  848POPC   C1A13299  38.527  43.120   8.667
  848POPC   D2A13300  38.606  43.405   8.357
  848POPC   C3A13301  38.481  43.177   8.031
  848POPC   C4A13302  38.150  42.843   8.041
  848POPC   C1B13303  38.729  42.611   8.767
  848POPC   C2B13304  38.514  42.669   8.400
  848POPC   C3B13305  38.638  42.698   7.990
  848POPC   C4B13306  38.440  42.860   7.632
  849POPC   NC313307  29.603  12.141   9.517
  849POPC   PO413308  30.202  11.786   9.557
  849POPC   GL113309  30.237  12.036   9.189
  849POPC   GL213310  29.946  12.241   9.135
  849POPC   C1A13311  30.279  11.960   8.761
  849POPC   D2A13312  30.245  12.163   8.362
  849POPC   C3A13313  30.274  11.964   7.968
  849POPC   C4A13314  30.097  12.008   7.534
  849POPC   C1B13315  29.828  12.193   8.710
  849POPC   C2B13316  29.746  12.364   8.316
  849POPC   C3B13317  29.812  12.240   7.906
  849POPC   C4B13318  29.925  12.504   7.578
  850POPC   NC313319  15.496  39.606   9.473
  850POPC   PO413320  16.112  39.346   9.660
  850POPC   GL113321  15.888  39.333   9.249
  850POPC   GL213322  15.899  39.683   9.184
  850POPC   C1A13323  15.711  39.149   8.829
  850POPC   D2A13324  15.752  38.897   8.403
  850POPC   C3A13325  16.056  39.013   8.085
  850POPC   C4A13326  16.073  39.046   7.628
  850POPC   C1B13327  15.937  39.613   8.770
  850POPC   C2B13328  15.905  39.400   8.398
  850POPC   C3B13329  15.908  39.504   7.977
  850POPC   C4B13330  16.254  39.531   7.666
  851POPC   NC313331   1.211  38.788   9.325
  851POPC   PO413332   1.173  38.122   9.405
  851POPC   GL113333   1.487  38.331   9.177
  851POPC   GL213334   1.657  38.038   9.055
  851POPC   C1A13335   1.562  38.557   8.761
  851POPC   D2A13336   1.419  38.872   8.403
  851POPC   C3A13337   1.320  38.664   7.965
  851POPC   C4A13338   0.941  38.421   7.764
  851POPC   C1B13339   1.393  38.085   8.729
  851POPC   C2B13340   1.461  38.284   8.339
  851POPC   C3B13341   1.331  38.141   7.967
  851POPC   C4B13342   1.260  38.068   7.587
  852POPC   NC313343  22.690   3.031   9.260
  852POPC   PO413344  22.963   2.537   9.580
  852POPC   GL113345  22.825   2.529   9.176
  852POPC   GL213346  23.119   2.768   9.093
  852POPC   C1A13347  22.709   2.607   8.742
  852POPC   D2A13348  22.982   2.560   8.360
  852POPC   C3A13349  22.854   2.783   7.980
  852POPC   C4A13350  22.550   2.694   7.708
  852POPC   C1B13351  23.394   3.017   8.793
  852POPC   C2B13352  23.354   3.085   8.338
  852POPC   C3B13353  23.348   2.788   8.009
  852POPC   C4B13354  23.281   2.830   7.558
  853POPC   NC313355  37.938   6.474   9.369
  853POPC   PO413356  37.420   6.959   9.496
  853POPC   GL113357  37.549   6.733   9.099
  853POPC   GL213358  37.549   6.351   9.072
  853POPC   C1A13359  37.783   6.683   8.703
  853POPC   D2A13360  37.901   6.798   8.285
  853POPC   C3A13361  37.601   6.921   7.984
  853POPC   C4A13362  37.557   6.692   7.602
  853POPC   C1B13363  37.821   6.164   8.774
  853POPC   C2B13364  37.688   6.194   8.385
  853POPC   C3B13365  37.718   6.379   7.999
  853POPC   C4B13366  37.859   6.236   7.609
  854POPC   NC313367  24.782  38.701   9.594
  854POPC   PO413368  24.500  38.091   9.594
  854POPC   GL113369  24.383  38.224   9.194
  854POPC   GL213370  24.291  38.567   9.140
  854POPC   C1A13371  24.173  38.176   8.830
  854POPC   D2A13372  24.304  38.482   8.511
  854POPC   C3A13373  24.304  38.469   8.075
  854POPC   C4A13374  24.158  38.775   7.766
  854POPC   C1B13375  24.646  38.548   8.864
  854POPC   C2B13376  24.717  38.814   8.488
  854POPC   C3B13377  24.830  38.725   8.057
  854POPC   C4B13378  24.682  38.740   7.654
  855POPC   NC313379  40.528  44.308   9.330
  855POPC   PO413380  40.995  44.495   9.783
  855POPC   GL113381  40.921  44.706   9.340
  855POPC   GL213382  41.005  44.432   9.161
  855POPC   C1A13383  40.969  44.819   8.826
  855POPC   D2A13384  41.214  44.682   8.426
  855POPC   C3A13385  41.042  44.783   7.998
  855POPC   C4A13386  40.661   0.038   7.891
  855POPC   C1B13387  40.866  44.338   8.728
  855POPC   C2B13388  40.697  44.639   8.401
  855POPC   C3B13389  40.534  44.560   7.999
  855POPC   C4B13390  40.820  44.323   7.769
  856POPC   NC313391  14.714   9.272   9.449
  856POPC   PO413392  14.082   9.010   9.466
  856POPC   GL113393  14.266   9.148   9.114
  856POPC   GL213394  14.576   8.955   9.067
  856POPC   C1A13395  14.060   9.153   8.730
  856POPC   D2A13396  13.953   9.056   8.333
  856POPC   C3A13397  14.267   9.111   7.977
  856POPC   C4A13398  14.140   9.128   7.514
  856POPC   C1B13399  14.539   9.009   8.612
  856POPC   C2B13400  14.599   8.757   8.228
  856POPC   C3B13401  14.741   8.828   7.824
  856POPC   C4B13402  14.635   9.176   7.617
  857POPC   NC313403  41.834  19.372   9.514
  857POPC   PO413404  41.534  18.729   9.435
  857POPC   GL113405  41.729  18.993   9.165
  857POPC   GL213406  41.514  19.302   9.135
  857POPC   C1A13407  41.837  19.135   8.779
  857POPC   D2A13408  41.885  18.998   8.378
  857POPC   C3A13409  41.605  19.058   8.082
  857POPC   C4A13410  41.848  19.170   7.748
  857POPC   C1B13411  41.428  19.530   8.765
  857POPC   C2B13412  41.299  19.393   8.349
  857POPC   C3B13413  41.356  19.464   7.901
  857POPC   C4B13414  41.505  19.416   7.461
  858POPC   NC313415   7.747   3.970   9.515
  858POPC   PO413416   7.399   3.423   9.519
  858POPC   GL113417   7.489   3.405   9.117
  858POPC   GL213418   7.403   3.781   9.123
  858POPC   C1A13419   7.547   3.527   8.699
  858POPC   D2A13420   7.596   3.778   8.347
  858POPC   C3A13421   7.515   3.565   7.975
  858POPC   C4A13422   7.390   3.408   7.560
  858POPC   C1B13423   7.118   3.774   8.738
  858POPC   C2B13424   7.144   3.529   8.343
  858POPC   C3B13425   7.040   3.704   7.923
  858POPC   C4B13426   7.005   3.765   7.475
  859POPC   NC313427  37.537   1.792   9.558
  859POPC   PO413428  38.073   2.078   9.414
  859POPC   GL113429  37.743   1.929   9.120
  859POPC   GL213430  37.617   2.221   9.051
  859POPC   C1A13431  37.451   1.859   8.756
  859POPC   D2A13432  37.678   1.928   8.388
  859POPC   C3A13433  37.496   1.823   8.012
  859POPC   C4A13434  37.611   1.695   7.562
  859POPC   C1B13435  37.788   2.415   8.736
  859POPC   C2B13436  37.596   2.433   8.354
  859POPC   C3B13437  37.718   2.274   7.970
  859POPC   C4B13438  37.917   2.234   7.607
  860POPC   NC313439  44.078  22.769   9.621
  860POPC   PO413440  43.601  23.219   9.737
  860POPC   GL113441  43.673  23.121   9.282
  860POPC   GL213442  43.812  22.783   9.169
  860POPC   C1A13443  43.689  23.147   8.809
  860POPC   D2A13444  43.843  22.897   8.417
  860POPC   C3A13445  43.796  23.088   8.016
  860POPC   C4A13446  43.448  23.190   7.754
  860POPC   C1B13447  43.995  22.536   8.815
  860POPC   C2B13448  44.046  22.426   8.381
  860POPC   C3B13449  43.977  22.601   7.957
  860POPC   C4B13450  43.775  22.791   7.580
  861POPC   NC313451   5.364  15.537   9.405
  861POPC   PO413452   5.024  16.098   9.516
  861POPC   GL113453   5.034  15.857   9.166
  861POPC   GL213454   5.350  15.972   9.038
  861POPC   C1A13455   5.114  15.667   8.749
  861POPC   D2A13456   5.186  15.521   8.347
  861POPC   C3A13457   5.165  15.905   8.129
  861POPC   C4A13458   5.053  15.989   7.721
  861POPC   C1B13459   5.435  16.074   8.587
  861POPC   C2B13460   5.310  16.399   8.265
  861POPC   C3B13461   5.340  16.417   7.808
  861POPC   C4B13462   5.245  16.287   7.361
  862POPC   NC313463  13.605  44.213   9.367
  862POPC   PO413464  13.882  44.744   9.551
  862POPC   GL113465  13.690  44.750   9.155
  862POPC   GL213466  13.356  44.611   9.123
  862POPC   C1A13467  13.752  44.632   8.758
  862POPC   D2A13468  13.526  44.668   8.400
  862POPC   C3A13469  13.821  44.579   8.090
  862POPC   C4A13470  13.797  44.876   7.789
  862POPC   C1B13471  13.181  44.395   8.760
  862POPC   C2B13472  13.236  44.259   8.323
  862POPC   C3B13473  13.377  44.440   7.868
  862POPC   C4B13474  13.414  44.422   7.364
  863POPC   NC313475  34.666  27.954   9.320
  863POPC   PO413476  34.833  28.539   9.523
  863POPC   GL113477  34.740  28.396   9.110
  863POPC   GL213478  34.360  28.321   9.134
  863POPC   C1A13479  34.642  28.175   8.702
  863POPC   D2A13480  34.484  28.374   8.316
  863POPC   C3A13481  34.666  28.323   7.880
  863POPC   C4A13482  35.008  28.557   7.659
  863POPC   C1B13483  34.149  28.288   8.750
  863POPC   C2B13484  34.063  28.090   8.393
  863POPC   C3B13485  34.171  28.186   7.957
  863POPC   C4B13486  34.202  28.404   7.569
  864POPC   NC313487  22.677   8.666   9.511
  864POPC   PO413488  23.130   9.214   9.560
  864POPC   GL113489  23.003   8.956   9.222
  864POPC   GL213490  22.651   9.024   9.162
  864POPC   C1A13491  22.953   8.792   8.810
  864POPC   D2A13492  23.125   8.649   8.418
  864POPC   C3A13493  22.861   8.746   8.055
  864POPC   C4A13494  23.132   8.836   7.714
  864POPC   C1B13495  22.546   9.079   8.723
  864POPC   C2B13496  22.873   9.170   8.422
  864POPC   C3B13497  22.967   9.243   8.000
  864POPC   C4B13498  22.723   9.110   7.649
  865POPC   NC313499   7.119  29.262   9.585
  865POPC   PO413500   7.485  29.696   9.541
  865POPC   GL113501   7.523  29.333   9.237
  865POPC   GL213502   7.400  28.994   9.215
  865POPC   C1A13503   7.639  29.238   8.780
  865POPC   D2A13504   7.509  29.079   8.350
  865POPC   C3A13505   7.613  29.252   7.901
  865POPC   C4A13506   7.571  29.416   7.446
  865POPC   C1B13507   7.162  29.038   8.816
  865POPC   C2B13508   6.988  28.980   8.391
  865POPC   C3B13509   7.107  29.209   8.034
  865POPC   C4B13510   7.019  29.213   7.627
  866POPC   NC313511   7.841  35.109   9.312
  866POPC   PO413512   8.493  35.014   9.340
  866POPC   GL113513   8.389  35.240   8.965
  866POPC   GL213514   8.040  35.314   8.923
  866POPC   C1A13515   8.291  35.235   8.521
  866POPC   D2A13516   8.141  35.118   8.154
  866POPC   C3A13517   8.375  35.329   7.863
  866POPC   C4A13518   8.505  35.184   7.483
  866POPC   C1B13519   7.869  35.649   8.736
  866POPC   C2B13520   7.929  35.551   8.334
  866POPC   C3B13521   7.853  35.489   7.922
  866POPC   C4B13522   7.850  35.665   7.565
  867POPC   NC313523  26.689   6.221   9.949
  867POPC   PO413524  26.753   5.682   9.587
  867POPC   GL113525  26.840   5.824   9.159
  867POPC   GL213526  27.080   6.062   9.155
  867POPC   C1A13527  26.761   6.001   8.721
  867POPC   D2A13528  26.515   6.090   8.316
  867POPC   C3A13529  26.744   6.123   7.901
  867POPC   C4A13530  26.656   5.989   7.452
  867POPC   C1B13531  27.233   5.743   8.828
  867POPC   C2B13532  27.133   5.790   8.423
  867POPC   C3B13533  27.236   5.719   8.052
  867POPC   C4B13534  27.097   5.817   7.642
  868POPC   NC313535  15.636  23.950   9.471
  868POPC   PO413536  16.195  24.354   9.627
  868POPC   GL113537  16.007  24.573   9.290
  868POPC   GL213538  16.229  24.770   9.168
  868POPC   C1A13539  15.747  24.788   8.967
  868POPC   D2A13540  15.787  24.783   8.515
  868POPC   C3A13541  15.944  24.409   8.289
  868POPC   C4A13542  16.107  24.295   7.882
  868POPC   C1B13543  16.215  24.589   8.755
  868POPC   C2B13544  16.314  24.802   8.363
  868POPC   C3B13545  16.466  24.686   7.953
  868POPC   C4B13546  16.507  24.884   7.537
  869POPC   NC313547  25.668  22.845   9.378
  869POPC   PO413548  26.328  22.713   9.548
  869POPC   GL113549  26.210  22.812   9.139
  869POPC   GL213550  26.127  23.155   9.130
  869POPC   C1A13551  26.054  22.830   8.693
  869POPC   D2A13552  25.871  23.127   8.369
  869POPC   C3A13553  25.883  22.953   7.941
  869POPC   C4A13554  26.056  22.536   7.796
  869POPC   C1B13555  26.241  23.313   8.712
  869POPC   C2B13556  26.230  23.494   8.294
  869POPC   C3B13557  26.337  23.303   7.884
  869POPC   C4B13558  26.401  23.187   7.418
  870POPC   NC313559  15.383   8.953   9.596
  870POPC   PO413560  14.771   8.787   9.513
  870POPC   GL113561  15.077   8.841   9.213
  870POPC   GL213562  15.335   8.559   9.266
  870POPC   C1A13563  15.050   9.082   8.862
  870POPC   D2A13564  15.040   8.948   8.454
  870POPC   C3A13565  15.014   9.229   8.122
  870POPC   C4A13566  15.137   9.163   7.719
  870POPC   C1B13567  15.305   8.612   8.811
  870POPC   C2B13568  15.453   8.645   8.374
  870POPC   C3B13569  15.226   8.746   8.010
  870POPC   C4B13570  15.276   8.615   7.595
  871POPC   NC313571  38.154  24.185   9.395
  871POPC   PO413572  37.464  24.291   9.633
  871POPC   GL113573  37.660  24.370   9.213
  871POPC   GL213574  37.358  24.246   9.089
  871POPC   C1A13575  37.707  24.596   8.765
  871POPC   D2A13576  37.723  24.868   8.382
  871POPC   C3A13577  37.821  24.657   8.016
  871POPC   C4A13578  37.723  24.495   7.604
  871POPC   C1B13579  37.293  24.330   8.678
  871POPC   C2B13580  37.432  24.468   8.312
  871POPC   C3B13581  37.321  24.626   7.926
  871POPC   C4B13582  37.232  24.311   7.687
  872POPC   NC313583  41.500  24.940   9.459
  872POPC   PO413584  41.714  25.592   9.533
  872POPC   GL113585  41.589  25.626   9.121
  872POPC   GL213586  41.344  25.372   9.083
  872POPC   C1A13587  41.630  25.547   8.705
  872POPC   D2A13588  41.723  25.143   8.587
  872POPC   C3A13589  41.806  25.161   8.164
  872POPC   C4A13590  41.623  25.322   7.802
  872POPC   C1B13591  41.211  25.093   8.770
  872POPC   C2B13592  41.296  24.904   8.376
  872POPC   C3B13593  41.215  25.087   7.999
  872POPC   C4B13594  41.243  24.861   7.634
  873POPC   NC313595  19.665  28.949   9.410
  873POPC   PO413596  19.393  29.534   9.323
  873POPC   GL113597  19.832  29.332   9.133
  873POPC   GL213598  20.080  29.471   8.908
  873POPC   C1A13599  19.924  29.015   8.752
  873POPC   D2A13600  19.744  28.774   8.410
  873POPC   C3A13601  19.754  28.912   7.972
  873POPC   C4A13602  19.655  28.765   7.537
  873POPC   C1B13603  19.680  29.455   8.675
  873POPC   C2B13604  19.665  29.294   8.306
  873POPC   C3B13605  19.800  29.447   7.930
  873POPC   C4B13606  19.980  29.421   7.550
  874POPC   NC313607  11.188  25.848   9.819
  874POPC   PO413608  11.687  26.130   9.471
  874POPC   GL113609  11.604  26.060   9.061
  874POPC   GL213610  11.324  25.832   9.015
  874POPC   C1A13611  11.432  26.319   8.737
  874POPC   D2A13612  11.610  26.403   8.348
  874POPC   C3A13613  11.510  26.204   7.989
  874POPC   C4A13614  11.208  26.231   7.700
  874POPC   C1B13615  11.002  25.611   8.766
  874POPC   C2B13616  10.877  25.513   8.353
  874POPC   C3B13617  10.966  25.681   7.925
  874POPC   C4B13618  11.383  25.738   7.774
  875POPC   NC313619  27.759   3.024   9.887
  875POPC   PO413620  27.531   2.582   9.391
  875POPC   GL113621  27.626   2.744   8.997
  875POPC   GL213622  27.478   3.065   9.039
  875POPC   C1A13623  27.519   2.808   8.586
  875POPC   D2A13624  27.602   2.781   8.183
  875POPC   C3A13625  27.386   2.504   7.937
  875POPC   C4A13626  27.674   2.493   7.616
  875POPC   C1B13627  27.842   3.171   8.766
  875POPC   C2B13628  27.793   3.257   8.341
  875POPC   C3B13629  27.879   3.132   7.932
  875POPC   C4B13630  27.837   2.985   7.525
  876POPC   NC313631  15.148  38.844   9.812
  876POPC   PO413632  15.116  39.512   9.714
  876POPC   GL113633  15.171  39.304   9.220
  876POPC   GL213634  14.955  38.949   9.163
  876POPC   C1A13635  15.116  39.281   8.780
  876POPC   D2A13636  15.395  39.259   8.426
  876POPC   C3A13637  15.271  39.426   8.037
  876POPC   C4A13638  15.085  39.317   7.655
  876POPC   C1B13639  15.233  38.776   8.831
  876POPC   C2B13640  15.322  38.635   8.426
  876POPC   C3B13641  15.280  38.894   8.064
  876POPC   C4B13642  15.593  39.128   7.802
  877POPC   NC313643  35.703   9.784   9.539
  877POPC   PO413644  35.072   9.668   9.440
  877POPC   GL113645  35.073   9.925   9.111
  877POPC   GL213646  35.381  10.081   9.214
  877POPC   C1A13647  35.036   9.835   8.684
  877POPC   D2A13648  35.130   9.466   8.451
  877POPC   C3A13649  35.329   9.506   8.062
  877POPC   C4A13650  35.128   9.735   7.769
  877POPC   C1B13651  35.530   9.828   8.866
  877POPC   C2B13652  35.616   9.690   8.450
  877POPC   C3B13653  35.712   9.875   8.043
  877POPC   C4B13654  35.631   9.781   7.669
  878POPC   NC313655   8.502  22.393   9.452
  878POPC   PO413656   8.261  21.814   9.219
  878POPC   GL113657   8.257  22.221   9.026
  878POPC   GL213658   7.910  22.327   9.000
  878POPC   C1A13659   8.217  22.403   8.594
  878POPC   D2A13660   8.488  22.523   8.289
  878POPC   C3A13661   8.434  22.255   7.966
  878POPC   C4A13662   8.256  22.353   7.609
  878POPC   C1B13663   7.979  21.972   8.668
  878POPC   C2B13664   8.148  21.952   8.266
  878POPC   C3B13665   8.220  21.807   7.833
  878POPC   C4B13666   8.166  21.894   7.397
  879POPC   NC313667  17.199  13.027   9.329
  879POPC   PO413668  17.857  12.748   9.386
  879POPC   GL113669  17.583  12.831   9.064
  879POPC   GL213670  17.290  12.631   8.980
  879POPC   C1A13671  17.714  12.803   8.679
  879POPC   D2A13672  17.515  12.585   8.389
  879POPC   C3A13673  17.718  12.743   8.050
  879POPC   C4A13674  17.710  12.744   7.620
  879POPC   C1B13675  17.236  12.957   8.642
  879POPC   C2B13676  17.203  12.936   8.176
  879POPC   C3B13677  17.267  12.642   7.826
  879POPC   C4B13678  17.296  12.742   7.342
  880POPC   NC313679  40.353  40.571   9.410
  880POPC   PO413680  41.072  40.481   9.433
  880POPC   GL113681  40.926  40.784   9.133
  880POPC   GL213682  40.601  40.871   9.066
  880POPC   C1A13683  41.101  40.876   8.763
  880POPC   D2A13684  40.942  40.750   8.398
  880POPC   C3A13685  41.092  40.898   8.033
  880POPC   C4A13686  40.917  40.757   7.668
  880POPC   C1B13687  40.555  40.573   8.719
  880POPC   C2B13688  40.500  40.537   8.286
  880POPC   C3B13689  40.510  40.844   7.962
  880POPC   C4B13690  40.494  40.979   7.518
  881POPC   NC313691  44.031  32.190   9.509
  881POPC   PO413692  44.387  32.647   9.267
  881POPC   GL113693  44.056  32.424   9.052
  881POPC   GL213694  43.677  32.277   9.123
  881POPC   C1A13695  44.065  32.483   8.637
  881POPC   D2A13696  43.857  32.357   8.318
  881POPC   C3A13697  44.110  32.485   8.001
  881POPC   C4A13698  44.383  32.286   7.791
  881POPC   C1B13699  43.829  32.043   8.757
  881POPC   C2B13700  43.869  31.818   8.375
  881POPC   C3B13701  43.879  31.991   7.952
  881POPC   C4B13702  43.616  32.345   7.873
  882POPC   NC313703  43.797  15.055   9.414
  882POPC   PO413704  43.521  15.687   9.449
  882POPC   GL113705  43.806  15.499   9.104
  882POPC   GL213706  44.150  15.289   9.082
  882POPC   C1A13707  43.811  15.267   8.710
  882POPC   D2A13708  44.130  15.163   8.403
  882POPC   C3A13709  43.936  15.204   8.005
  882POPC   C4A13710  43.889  14.845   7.755
  882POPC   C1B13711  44.264  15.560   8.713
  882POPC   C2B13712  44.191  15.651   8.252
  882POPC   C3B13713  44.245  15.579   7.802
  882POPC   C4B13714  44.228  15.198   7.577
  883POPC   NC313715   7.068  34.999   9.336
  883POPC   PO413716   7.588  35.295   9.658
  883POPC   GL113717   7.410  35.344   9.213
  883POPC   GL213718   7.427  35.060   8.983
  883POPC   C1A13719   7.344  35.558   8.850
  883POPC   D2A13720   7.439  35.637   8.433
  883POPC   C3A13721   7.238  35.448   8.103
  883POPC   C4A13722   7.381  35.584   7.736
  883POPC   C1B13723   7.654  35.175   8.615
  883POPC   C2B13724   7.620  35.135   8.182
  883POPC   C3B13725   7.521  35.116   7.743
  883POPC   C4B13726   7.112  35.213   7.498
  884POPC   NC313727  33.974  19.825   9.310
  884POPC   PO413728  34.659  19.704   9.464
  884POPC   GL113729  34.551  19.892   9.106
  884POPC   GL213730  34.876  19.823   8.942
  884POPC   C1A13731  34.339  19.855   8.716
  884POPC   D2A13732  34.606  19.823   8.344
  884POPC   C3A13733  34.452  19.923   7.937
  884POPC   C4A13734  34.717  19.729   7.652
  884POPC   C1B13735  34.738  20.164   8.674
  884POPC   C2B13736  34.790  20.318   8.247
  884POPC   C3B13737  34.688  20.343   7.806
  884POPC   C4B13738  34.462  20.294   7.423
  885POPC   NC313739   6.436  19.414   9.556
  885POPC   PO413740   6.880  19.989   9.488
  885POPC   GL113741   6.726  19.958   9.094
  885POPC   GL213742   6.934  19.743   8.955
  885POPC   C1A13743   6.526  20.122   8.735
  885POPC   D2A13744   6.348  19.936   8.412
  885POPC   C3A13745   6.544  19.844   8.031
  885POPC   C4A13746   6.404  20.052   7.665
  885POPC   C1B13747   6.574  19.575   8.671
  885POPC   C2B13748   6.339  19.419   8.257
  885POPC   C3B13749   6.195  19.565   7.806
  885POPC   C4B13750   6.606  19.611   7.541
  886POPC   NC313751   0.290  19.060   9.505
  886POPC   PO413752   0.786  18.611   9.505
  886POPC   GL113753   0.724  18.903   9.129
  886POPC   GL213754   0.457  19.193   9.057
  886POPC   C1A13755   0.698  18.973   8.673
  886POPC   D2A13756   0.396  19.080   8.420
  886POPC   C3A13757   0.461  18.939   8.014
  886POPC   C4A13758   0.173  18.832   7.708
  886POPC   C1B13759   0.824  19.415   8.911
  886POPC   C2B13760   0.853  19.531   8.484
  886POPC   C3B13761   0.610  19.427   8.114
  886POPC   C4B13762   0.712  19.306   7.682
  887POPC   NC313763   0.710   4.147   9.638
  887POPC   PO413764   0.173   4.502   9.627
  887POPC   GL113765   0.269   4.450   9.221
  887POPC   GL213766   0.070   4.164   9.109
  887POPC   C1A13767   0.516   4.336   8.860
  887POPC   D2A13768   0.556   4.150   8.470
  887POPC   C3A13769   0.690   4.419   8.190
  887POPC   C4A13770   0.687   4.323   7.774
  887POPC   C1B13771   0.027   4.498   8.785
  887POPC   C2B13772   0.157   4.609   8.390
  887POPC   C3B13773   0.217   4.481   8.013
  887POPC   C4B13774   0.350   4.669   7.679
  888POPC   NC313775  30.846  15.712   9.467
  888POPC   PO413776  30.252  16.050   9.478
  888POPC   GL113777  30.496  15.987   9.128
  888POPC   GL213778  30.500  15.650   9.017
  888POPC   C1A13779  30.680  16.120   8.733
  888POPC   D2A13780  30.715  15.871   8.359
  888POPC   C3A13781  30.766  16.038   7.949
  888POPC   C4A13782  30.436  15.907   7.753
  888POPC   C1B13783  30.903  15.671   8.813
  888POPC   C2B13784  31.180  15.701   8.477
  888POPC   C3B13785  31.104  15.681   8.072
  888POPC   C4B13786  30.760  15.506   7.824
  889POPC   NC313787  15.222  29.789   9.813
  889POPC   PO413788  15.090  30.287   9.377
  889POPC   GL113789  15.074  30.091   9.046
  889POPC   GL213790  15.389  30.118   8.997
  889POPC   C1A13791  15.030  30.048   8.642
  889POPC   D2A13792  14.830  29.958   8.302
  889POPC   C3A13793  15.062  30.038   7.953
  889POPC   C4A13794  15.193  29.704   7.802
  889POPC   C1B13795  15.488  29.851   8.662
  889POPC   C2B13796  15.333  29.765   8.325
  889POPC   C3B13797  15.577  29.552   8.089
  889POPC   C4B13798  15.745  29.678   7.732
  890POPC   NC313799  23.393  33.377   9.366
  890POPC   PO413800  23.917  33.680   9.656
  890POPC   GL113801  23.866  33.339   9.270
  890POPC   GL213802  23.713  33.001   9.168
  890POPC   C1A13803  23.698  33.336   8.794
  890POPC   D2A13804  23.736  33.130   8.405
  890POPC   C3A13805  23.493  33.199   8.032
  890POPC   C4A13806  23.764  33.191   7.655
  890POPC   C1B13807  23.495  32.830   8.772
  890POPC   C2B13808  23.643  32.632   8.395
  890POPC   C3B13809  23.768  32.770   8.010
  890POPC   C4B13810  23.467  32.758   7.705
  891POPC   NC313811  44.158  13.194   9.432
  891POPC   PO413812  43.710  12.676   9.451
  891POPC   GL113813  43.805  12.955   9.123
  891POPC   GL213814  44.126  12.855   9.041
  891POPC   C1A13815  43.810  13.077   8.684
  891POPC   D2A13816  43.676  12.904   8.313
  891POPC   C3A13817  43.921  12.965   7.979
  891POPC   C4A13818  43.824  13.118   7.594
  891POPC   C1B13819  43.920  12.586   8.694
  891POPC   C2B13820  43.845  12.400   8.290
  891POPC   C3B13821  43.904  12.468   7.855
  891POPC   C4B13822  43.962  12.622   7.458
  892POPC   NC313823  42.471  26.596   9.576
  892POPC   PO413824  41.916  26.991   9.621
  892POPC   GL113825  42.286  26.898   9.215
  892POPC   GL213826  42.254  26.632   8.977
  892POPC   C1A13827  42.267  27.083   8.757
  892POPC   D2A13828  42.180  27.194   8.339
  892POPC   C3A13829  42.525  27.082   8.065
  892POPC   C4A13830  42.475  26.812   7.707
  892POPC   C1B13831  42.438  26.469   8.607
  892POPC   C2B13832  42.353  26.572   8.168
  892POPC   C3B13833  42.026  26.644   7.827
  892POPC   C4B13834  42.136  26.602   7.369
  893POPC   NC313835  40.795  20.606   9.510
  893POPC   PO413836  40.187  20.981   9.489
  893POPC   GL113837  40.476  20.806   9.143
  893POPC   GL213838  40.592  20.440   9.065
  893POPC   C1A13839  40.608  20.794   8.700
  893POPC   D2A13840  40.759  20.556   8.348
  893POPC   C3A13841  40.812  20.812   7.979
  893POPC   C4A13842  40.775  20.790   7.502
  893POPC   C1B13843  40.992  20.435   8.812
  893POPC   C2B13844  41.184  20.293   8.425
  893POPC   C3B13845  40.962  20.235   8.008
  893POPC   C4B13846  40.622  20.391   7.789
  894POPC   NC313847  42.777  39.323   9.632
  894POPC   PO413848  42.238  39.512   9.744
  894POPC   GL113849  42.177  39.321   9.318
  894POPC   GL213850  42.517  39.210   9.184
  894POPC   C1A13851  42.179  39.407   8.855
  894POPC   D2A13852  42.288  39.542   8.420
  894POPC   C3A13853  42.129  39.316   8.021
  894POPC   C4A13854  42.049  38.905   7.842
  894POPC   C1B13855  42.601  39.083   8.733
  894POPC   C2B13856  42.540  39.113   8.281
  894POPC   C3B13857  42.572  38.986   7.860
  894POPC   C4B13858  42.424  38.606   7.611
  895POPC   NC313859   3.640  14.631   9.538
  895POPC   PO413860   3.718  13.927   9.439
  895POPC   GL113861   3.609  14.265   9.147
  895POPC   GL213862   3.796  14.620   9.073
  895POPC   C1A13863   3.578  14.190   8.709
  895POPC   D2A13864   3.441  14.239   8.263
  895POPC   C3A13865   3.665  14.204   7.884
  895POPC   C4A13866   3.574  14.246   7.452
  895POPC   C1B13867   3.386  14.643   8.875
  895POPC   C2B13868   3.283  14.721   8.456
  895POPC   C3B13869   3.217  14.637   8.013
  895POPC   C4B13870   3.522  14.682   7.704
  896POPC   NC313871  23.474  21.963   9.326
  896POPC   PO413872  24.028  22.134   9.572
  896POPC   GL113873  23.816  22.291   9.155
  896POPC   GL213874  23.940  21.980   9.052
  896POPC   C1A13875  23.656  22.175   8.686
  896POPC   D2A13876  23.654  22.099   8.226
  896POPC   C3A13877  23.481  22.413   7.923
  896POPC   C4A13878  23.548  22.494   7.472
  896POPC   C1B13879  24.265  21.903   8.734
  896POPC   C2B13880  24.235  21.695   8.315
  896POPC   C3B13881  24.066  21.857   7.944
  896POPC   C4B13882  23.707  21.969   7.719
  897POPC   NC313883  18.267  36.535   9.569
  897POPC   PO413884  18.641  36.024   9.306
  897POPC   GL113885  18.212  36.151   9.186
  897POPC   GL213886  18.025  35.873   9.103
  897POPC   C1A13887  18.024  36.328   8.808
  897POPC   D2A13888  18.043  36.571   8.403
  897POPC   C3A13889  18.088  36.372   7.993
  897POPC   C4A13890  18.449  36.122   7.904
  897POPC   C1B13891  18.327  35.913   8.721
  897POPC   C2B13892  18.440  35.766   8.300
  897POPC   C3B13893  18.477  35.599   7.883
  897POPC   C4B13894  18.281  35.743   7.549
  898POPC   NC313895  24.161   1.334   9.486
  898POPC   PO413896  24.845   1.259   9.568
  898POPC   GL113897  24.595   1.198   9.174
  898POPC   GL213898  24.364   0.892   9.209
  898POPC   C1A13899  24.530   1.099   8.719
  898POPC   D2A13900  24.624   0.924   8.311
  898POPC   C3A13901  24.632   1.148   7.930
  898POPC   C4A13902  24.556   1.263   7.535
  898POPC   C1B13903  24.209   0.681   8.822
  898POPC   C2B13904  24.138   0.852   8.405
  898POPC   C3B13905  24.259   0.815   7.928
  898POPC   C4B13906  24.111   0.984   7.516
  899POPC   NC313907  20.853  40.752   9.438
  899POPC   PO413908  20.196  40.501   9.364
  899POPC   GL113909  20.407  40.757   9.103
  899POPC   GL213910  20.660  41.013   9.028
  899POPC   C1A13911  20.294  40.805   8.699
  899POPC   D2A13912  20.470  40.628   8.347
  899POPC   C3A13913  20.325  40.859   8.004
  899POPC   C4A13914  20.412  40.757   7.614
  899POPC   C1B13915  20.801  40.793   8.715
  899POPC   C2B13916  20.989  40.810   8.326
  899POPC   C3B13917  20.852  40.698   7.925
  899POPC   C4B13918  20.870  41.029   7.635
  900POPC   NC313919  23.356  32.400   9.441
  900POPC   PO413920  23.877  32.056   9.647
  900POPC   GL113921  23.822  32.276   9.253
  900POPC   GL213922  23.566  32.001   9.199
  900POPC   C1A13923  23.649  32.322   8.801
  900POPC   D2A13924  23.425  32.167   8.417
  900POPC   C3A13925  23.597  32.285   7.961
  900POPC   C4A13926  23.630  32.332   7.463
  900POPC   C1B13927  23.911  31.905   8.938
  900POPC   C2B13928  23.869  31.917   8.477
  900POPC   C3B13929  23.987  31.882   8.037
  900POPC   C4B13930  24.056  32.205   7.714
  901POPC   NC313931  28.678  26.548   9.496
  901POPC   PO413932  28.129  27.014   9.439
  901POPC   GL113933  28.323  26.728   9.178
  901POPC   GL213934  28.651  26.882   9.051
  901POPC   C1A13935  28.372  26.588   8.764
  901POPC   D2A13936  28.214  26.626   8.370
  901POPC   C3A13937  28.496  26.652   8.068
  901POPC   C4A13938  28.630  26.822   7.668
  901POPC   C1B13939  28.337  27.108   8.791
  901POPC   C2B13940  28.140  27.129   8.423
  901POPC   C3B13941  28.303  27.118   8.017
  901POPC   C4B13942  28.126  27.246   7.650
  902POPC   NC313943  41.468  26.740   9.586
  902POPC   PO413944  42.065  26.449   9.402
  902POPC   GL113945  41.797  26.798   9.163
  902POPC   GL213946  41.478  26.739   9.077
  902POPC   C1A13947  41.750  27.095   8.779
  902POPC   D2A13948  41.726  26.950   8.372
  902POPC   C3A13949  41.738  27.079   7.961
  902POPC   C4A13950  41.524  26.686   7.784
  902POPC   C1B13951  41.237  26.994   8.809
  902POPC   C2B13952  41.285  27.218   8.415
  902POPC   C3B13953  41.204  27.066   8.004
  902POPC   C4B13954  41.384  27.141   7.597
  903POPC   NC313955   1.010  11.877   9.411
  903POPC   PO413956   1.466  12.367   9.654
  903POPC   GL113957   1.385  12.156   9.236
  903POPC   GL213958   1.067  12.263   9.093
  903POPC   C1A13959   1.452  12.029   8.808
  903POPC   D2A13960   1.256  12.188   8.437
  903POPC   C3A13961   1.436  12.129   8.058
  903POPC   C4A13962   1.518  12.056   7.651
  903POPC   C1B13963   0.938  11.968   8.748
  903POPC   C2B13964   0.815  11.998   8.271
  903POPC   C3B13965   0.962  12.063   7.825
  903POPC   C4B13966   0.770  12.121   7.396
  904POPC   NC313967  15.621   0.904   9.404
  904POPC   PO413968  16.128   1.317   9.484
  904POPC   GL113969  15.988   1.196   9.093
  904POPC   GL213970  16.028   1.536   9.026
  904POPC   C1A13971  16.068   1.122   8.639
  904POPC   D2A13972  16.101   1.176   8.188
  904POPC   C3A13973  15.734   1.117   7.868
  904POPC   C4A13974  15.929   1.012   7.447
  904POPC   C1B13975  15.775   1.542   8.714
  904POPC   C2B13976  15.662   1.374   8.364
  904POPC   C3B13977  15.851   1.591   8.050
  904POPC   C4B13978  16.096   1.422   7.731
  905POPC   NC313979  37.532  33.548   9.699
  905POPC   PO413980  37.859  34.100   9.471
  905POPC   GL113981  37.564  33.867   9.176
  905POPC   GL213982  37.716  33.543   9.148
  905POPC   C1A13983  37.450  33.691   8.728
  905POPC   D2A13984  37.463  33.565   8.266
  905POPC   C3A13985  37.406  33.910   7.958
  905POPC   C4A13986  37.443  33.980   7.516
  905POPC   C1B13987  37.929  33.839   8.820
  905POPC   C2B13988  37.958  33.659   8.416
  905POPC   C3B13989  37.922  33.829   8.033
  905POPC   C4B13990  38.107  34.116   7.731
  906POPC   NC313991  30.347  26.718   9.499
  906POPC   PO413992  29.829  27.034   9.638
  906POPC   GL113993  29.860  26.731   9.274
  906POPC   GL213994  29.636  26.450   9.239
  906POPC   C1A13995  29.933  26.691   8.821
  906POPC   D2A13996  30.040  26.716   8.365
  906POPC   C3A13997  29.857  27.004   8.026
  906POPC   C4A13998  29.825  27.241   7.610
  906POPC   C1B13999  29.448  26.473   8.839
  906POPC   C2B14000  29.519  26.650   8.456
  906POPC   C3B14001  29.429  26.674   8.030
  906POPC   C4B14002  29.615  26.778   7.641
  907POPC   NC314003  24.858  44.202   9.428
  907POPC   PO414004  25.477  43.867   9.540
  907POPC   GL114005  25.308  43.959   9.172
  907POPC   GL214006  25.652  44.088   9.107
  907POPC   C1A14007  25.073  43.829   8.792
  907POPC   D2A14008  25.208  43.574   8.446
  907POPC   C3A14009  25.234  43.743   8.034
  907POPC   C4A14010  25.028  44.020   7.741
  907POPC   C1B14011  25.573  43.942   8.732
  907POPC   C2B14012  25.409  44.061   8.397
  907POPC   C3B14013  25.586  44.128   7.989
  907POPC   C4B14014  25.531  43.923   7.632
  908POPC   NC314015   0.972  35.831   9.513
  908POPC   PO414016   1.220  36.363   9.520
  908POPC   GL114017   1.397  36.315   9.097
  908POPC   GL214018   1.151  36.051   9.054
  908POPC   C1A14019   1.388  36.288   8.629
  908POPC   D2A14020   1.147  36.070   8.304
  908POPC   C3A14021   1.312  36.183   7.914
  908POPC   C4A14022   1.372  36.039   7.518
  908POPC   C1B14023   0.909  36.331   8.771
  908POPC   C2B14024   0.816  36.461   8.332
  908POPC   C3B14025   0.827  36.365   7.881
  908POPC   C4B14026   0.649  36.524   7.477
  909POPC   NC314027  20.356  16.244   9.512
  909POPC   PO414028  20.416  16.913   9.430
  909POPC   GL114029  20.384  16.671   9.110
  909POPC   GL214030  20.671  16.490   9.168
  909POPC   C1A14031  20.601  16.711   8.707
  909POPC   D2A14032  20.788  16.987   8.413
  909POPC   C3A14033  20.490  16.988   8.105
  909POPC   C4A14034  20.442  16.722   7.753
  909POPC   C1B14035  20.939  16.355   8.845
  909POPC   C2B14036  21.029  16.496   8.437
  909POPC   C3B14037  20.809  16.587   8.080
  909POPC   C4B14038  20.916  16.614   7.657
  910POPC   NC314039  20.109  13.752   9.551
  910POPC   PO414040  19.668  13.328   9.328
  910POPC   GL114041  19.790  13.656   9.108
  910POPC   GL214042  19.748  13.977   9.195
  910POPC   C1A14043  19.865  13.736   8.715
  910POPC   D2A14044  19.649  13.699   8.370
  910POPC   C3A14045  19.835  13.513   8.059
  910POPC   C4A14046  19.934  13.396   7.668
  910POPC   C1B14047  19.566  14.139   8.778
  910POPC   C2B14048  19.383  14.126   8.370
  910POPC   C3B14049  19.556  14.045   7.972
  910POPC   C4B14050  19.977  13.941   7.803
  911POPC   NC314051  44.184  33.006   9.470
  911POPC   PO414052  43.679  32.514   9.580
  911POPC   GL114053  43.709  32.792   9.184
  911POPC   GL214054  43.728  33.148   9.188
  911POPC   C1A14055  43.790  32.905   8.739
  911POPC   D2A14056  43.945  32.883   8.323
  911POPC   C3A14057  43.785  32.849   7.911
  911POPC   C4A14058  44.102  32.783   7.555
  911POPC   C1B14059  44.122  33.255   8.897
  911POPC   C2B14060  44.165  33.324   8.459
  911POPC   C3B14061  43.847  33.347   8.093
  911POPC   C4B14062  43.922  33.258   7.664
  912POPC   NC314063  28.839  44.014   9.468
  912POPC   PO414064  29.327  43.550   9.399
  912POPC   GL114065  29.164  43.819   9.107
  912POPC   GL214066  28.853  43.704   9.053
  912POPC   C1A14067  29.062  44.060   8.746
  912POPC   D2A14068  29.254  44.224   8.388
  912POPC   C3A14069  29.140  44.114   7.982
  912POPC   C4A14070  29.293  43.827   7.681
  912POPC   C1B14071  28.709  43.548   8.695
  912POPC   C2B14072  28.830  43.801   8.347
  912POPC   C3B14073  28.846  43.687   7.932
  912POPC   C4B14074  28.817  43.284   7.804
  913POPC   NC314075  30.526  10.769   9.415
  913POPC   PO414076  31.018  10.733   9.855
  913POPC   GL114077  30.947  10.579   9.242
  913POPC   GL214078  31.030  10.232   9.157
  913POPC   C1A14079  30.648  10.597   8.790
  913POPC   D2A14080  30.384  10.297   8.514
  913POPC   C3A14081  30.369  10.478   8.088
  913POPC   C4A14082  30.527  10.863   7.870
  913POPC   C1B14083  31.138  10.519   8.781
  913POPC   C2B14084  30.923  10.499   8.377
  913POPC   C3B14085  30.901  10.497   7.954
  913POPC   C4B14086  31.102  10.805   7.732
  914POPC   NC314087  10.491  31.692   9.510
  914POPC   PO414088  11.109  31.422   9.585
  914POPC   GL114089  10.835  31.399   9.250
  914POPC   GL214090  10.916  31.766   9.209
  914POPC   C1A14091  10.514  31.388   8.888
  914POPC   D2A14092  10.370  31.200   8.468
  914POPC   C3A14093  10.343  31.489   8.093
  914POPC   C4A14094  10.335  31.853   7.793
  914POPC   C1B14095  11.002  31.568   8.794
  914POPC   C2B14096  10.804  31.476   8.390
  914POPC   C3B14097  10.859  31.435   7.951
  914POPC   C4B14098  11.207  31.549   7.737
  915POPC   NC314099  23.336  22.694   9.513
  915POPC   PO414100  23.907  22.912   9.654
  915POPC   GL114101  23.963  22.788   9.209
  915POPC   GL214102  23.634  22.794   9.115
  915POPC   C1A14103  23.949  22.832   8.728
  915POPC   D2A14104  23.735  22.598   8.426
  915POPC   C3A14105  23.649  22.870   8.131
  915POPC   C4A14106  23.814  22.832   7.757
  915POPC   C1B14107  23.445  22.916   8.727
  915POPC   C2B14108  23.465  23.255   8.463
  915POPC   C3B14109  23.385  23.296   8.057
  915POPC   C4B14110  23.544  23.377   7.691
  916POPC   NC314111  38.427   8.410   9.420
  916POPC   PO414112  38.777   7.860   9.418
  916POPC   GL114113  38.569   7.990   9.025
  916POPC   GL214114  38.245   8.166   9.006
  916POPC   C1A14115  38.581   8.074   8.592
  916POPC   D2A14116  38.581   7.956   8.167
  916POPC   C3A14117  38.325   8.074   7.845
  916POPC   C4A14118  38.443   8.429   7.649
  916POPC   C1B14119  38.209   8.429   8.626
  916POPC   C2B14120  38.161   8.401   8.190
  916POPC   C3B14121  38.051   8.699   7.853
  916POPC   C4B14122  38.030   8.590   7.410
  917POPC   NC314123  18.525  18.110   9.553
  917POPC   PO414124  17.996  18.432   9.432
  917POPC   GL114125  18.260  18.242   9.119
  917POPC   GL214126  18.609  18.329   9.101
  917POPC   C1A14127  18.111  18.311   8.716
  917POPC   D2A14128  17.913  18.220   8.347
  917POPC   C3A14129  17.960  18.499   8.034
  917POPC   C4A14130  18.196  18.384   7.699
  917POPC   C1B14131  18.589  18.439   8.667
  917POPC   C2B14132  18.436  18.279   8.276
  917POPC   C3B14133  18.668  18.389   7.919
  917POPC   C4B14134  18.669  18.196   7.524
  918POPC   NC314135  41.125   5.662   9.515
  918POPC   PO414136  40.697   6.145   9.625
  918POPC   GL114137  40.577   5.922   9.189
  918POPC   GL214138  40.462   6.106   8.843
  918POPC   C1A14139  40.706   5.674   8.811
  918POPC   D2A14140  40.843   5.688   8.386
  918POPC   C3A14141  40.575   5.756   8.057
  918POPC   C4A14142  40.652   5.678   7.678
  918POPC   C1B14143  40.931   6.114   8.659
  918POPC   C2B14144  41.170   6.105   8.270
  918POPC   C3B14145  40.875   6.164   7.921
  918POPC   C4B14146  40.894   6.035   7.477
  919POPC   NC314147   9.515  24.395   9.528
  919POPC   PO414148  10.124  24.500   9.438
  919POPC   GL114149   9.834  24.393   9.134
  919POPC   GL214150   9.517  24.619   9.088
  919POPC   C1A14151   9.713  24.265   8.761
  919POPC   D2A14152   9.683  24.489   8.446
  919POPC   C3A14153   9.733  24.416   8.066
  919POPC   C4A14154   9.730  24.435   7.673
  919POPC   C1B14155   9.266  24.535   8.735
  919POPC   C2B14156   9.250  24.756   8.358
  919POPC   C3B14157   9.351  24.754   7.958
  919POPC   C4B14158   9.186  24.673   7.549
  920POPC   NC314159  44.447  27.962   9.591
  920POPC   PO414160   0.136  27.869   9.451
  920POPC   GL114161  44.784  27.735   9.212
  920POPC   GL214162  44.551  27.974   9.097
  920POPC   C1A14163  44.815  27.600   8.796
  920POPC   D2A14164  44.682  27.613   8.392
  920POPC   C3A14165  44.936  27.591   8.059
  920POPC   C4A14166  44.797  27.600   7.650
  920POPC   C1B14167  44.387  27.876   8.715
  920POPC   C2B14168  44.307  28.063   8.312
  920POPC   C3B14169  44.470  27.857   7.961
  920POPC   C4B14170  44.318  27.498   7.764
  921POPC   NC314171  35.166  38.881   9.284
  921POPC   PO414172  35.350  39.383   9.726
  921POPC   GL114173  35.445  39.364   9.255
  921POPC   GL214174  35.269  39.229   8.953
  921POPC   C1A14175  35.593  39.587   8.847
  921POPC   D2A14176  35.601  39.600   8.373
  921POPC   C3A14177  35.626  39.200   8.143
  921POPC   C4A14178  35.418  39.162   7.744
  921POPC   C1B14179  35.129  38.889   8.667
  921POPC   C2B14180  34.875  38.886   8.348
  921POPC   C3B14181  35.027  39.184   8.086
  921POPC   C4B14182  35.004  38.881   7.767
  922POPC   NC314183   3.250  15.523   9.403
  922POPC   PO414184   3.776  15.127   9.654
  922POPC   GL114185   3.617  15.199   9.248
  922POPC   GL214186   3.744  15.540   9.229
  922POPC   C1A14187   3.491  15.135   8.808
  922POPC   D2A14188   3.783  14.897   8.543
  922POPC   C3A14189   3.629  14.940   8.141
  922POPC   C4A14190   3.300  15.144   7.927
  922POPC   C1B14191   3.930  15.356   8.864
  922POPC   C2B14192   3.795  15.420   8.457
  922POPC   C3B14193   3.932  15.340   8.073
  922POPC   C4B14194   3.718  15.305   7.702
  923POPC   NC314195  14.134  41.420   9.479
  923POPC   PO414196  14.850  41.515   9.562
  923POPC   GL114197  14.525  41.543   9.189
  923POPC   GL214198  14.261  41.747   9.078
  923POPC   C1A14199  14.426  41.408   8.738
  923POPC   D2A14200  14.634  41.384   8.345
  923POPC   C3A14201  14.396  41.520   8.018
  923POPC   C4A14202  14.503  41.423   7.620
  923POPC   C1B14203  14.244  41.874   8.664
  923POPC   C2B14204  14.579  41.944   8.371
  923POPC   C3B14205  14.723  41.909   7.975
  923POPC   C4B14206  14.926  41.752   7.655
  924POPC   NC314207  11.634   2.761   9.278
  924POPC   PO414208  12.237   2.487   9.574
  924POPC   GL114209  12.349   2.720   9.208
  924POPC   GL214210  12.053   2.912   9.060
  924POPC   C1A14211  12.463   2.847   8.786
  924POPC   D2A14212  12.094   2.755   8.542
  924POPC   C3A14213  12.161   2.943   8.156
  924POPC   C4A14214  12.210   2.883   7.719
  924POPC   C1B14215  11.789   3.112   8.702
  924POPC   C2B14216  11.623   2.877   8.353
  924POPC   C3B14217  11.713   2.929   7.924
  924POPC   C4B14218  11.775   3.024   7.492
  925POPC   NC314219  42.784  13.865   9.327
  925POPC   PO414220  43.230  13.370   9.504
  925POPC   GL114221  43.103  13.537   9.079
  925POPC   GL214222  42.746  13.575   8.903
  925POPC   C1A14223  43.182  13.738   8.697
  925POPC   D2A14224  42.953  13.634   8.377
  925POPC   C3A14225  43.216  13.743   8.095
  925POPC   C4A14226  43.255  13.637   7.717
  925POPC   C1B14227  42.745  14.032   8.716
  925POPC   C2B14228  42.818  14.126   8.285
  925POPC   C3B14229  42.752  13.873   7.915
  925POPC   C4B14230  42.921  13.942   7.476
  926POPC   NC314231   8.098   8.027   9.460
  926POPC   PO414232   8.524   8.436   9.732
  926POPC   GL114233   8.523   8.226   9.247
  926POPC   GL214234   8.209   8.376   9.089
  926POPC   C1A14235   8.456   8.046   8.785
  926POPC   D2A14236   8.213   8.010   8.371
  926POPC   C3A14237   8.455   8.076   8.035
  926POPC   C4A14238   8.431   8.377   7.745
  926POPC   C1B14239   7.850   8.563   8.836
  926POPC   C2B14240   7.827   8.738   8.446
  926POPC   C3B14241   7.970   8.541   8.071
  926POPC   C4B14242   7.950   8.669   7.640
  927POPC   NC314243  42.431   3.394   9.807
  927POPC   PO414244  42.448   3.824   9.334
  927POPC   GL114245  42.278   3.574   9.053
  927POPC   GL214246  42.203   3.259   9.174
  927POPC   C1A14247  42.320   3.735   8.638
  927POPC   D2A14248  42.644   3.694   8.348
  927POPC   C3A14249  42.517   3.659   7.932
  927POPC   C4A14250  42.206   3.874   7.694
  927POPC   C1B14251  42.361   3.222   8.705
  927POPC   C2B14252  42.184   3.118   8.275
  927POPC   C3B14253  42.267   3.220   7.830
  927POPC   C4B14254  42.703   3.227   7.720
  928POPC   NC314255  40.261   0.266   9.441
  928POPC   PO414256  39.574   0.144   9.537
  928POPC   GL114257  39.792   0.344   9.155
  928POPC   GL214258  40.027   0.134   9.032
  928POPC   C1A14259  39.933   0.592   8.769
  928POPC   D2A14260  40.235   0.589   8.395
  928POPC   C3A14261  40.164   0.772   7.983
  928POPC   C4A14262  39.910   0.817   7.593
  928POPC   C1B14263  40.193   0.132   8.653
  928POPC   C2B14264  39.895   0.189   8.368
  928POPC   C3B14265  39.900   0.353   8.000
  928POPC   C4B14266  40.241   0.289   7.751
  929POPC   NC314267  23.094  20.330   9.619
  929POPC   PO414268  22.805  20.933   9.385
  929POPC   GL114269  22.983  20.588   9.188
  929POPC   GL214270  22.794  20.264   9.190
  929POPC   C1A14271  23.192  20.481   8.822
  929POPC   D2A14272  23.026  20.238   8.474
  929POPC   C3A14273  23.128  20.351   8.080
  929POPC   C4A14274  22.858  20.200   7.767
  929POPC   C1B14275  22.685  20.455   8.779
  929POPC   C2B14276  22.927  20.753   8.479
  929POPC   C3B14277  23.090  20.853   8.052
  929POPC   C4B14278  22.929  20.712   7.634
  930POPC   NC314279   1.674  11.914   9.572
  930POPC   PO414280   2.168  12.231   9.383
  930POPC   GL114281   1.895  12.033   9.121
  930POPC   GL214282   1.792  12.342   9.003
  930POPC   C1A14283   1.943  11.849   8.730
  930POPC   D2A14284   2.153  11.848   8.369
  930POPC   C3A14285   1.856  11.812   8.068
  930POPC   C4A14286   2.015  12.060   7.780
  930POPC   C1B14287   2.024  12.351   8.656
  930POPC   C2B14288   1.888  12.305   8.247
  930POPC   C3B14289   1.758  12.500   7.881
  930POPC   C4B14290   1.826  12.405   7.429
  931POPC   NC314291   4.101   7.110   9.500
  931POPC   PO414292   4.489   6.551   9.439
  931POPC   GL114293   4.301   6.579   9.062
  931POPC   GL214294   3.998   6.765   9.148
  931POPC   C1A14295   4.302   6.529   8.638
  931POPC   D2A14296   4.556   6.770   8.383
  931POPC   C3A14297   4.703   6.521   8.031
  931POPC   C4A14298   4.603   6.774   7.676
  931POPC   C1B14299   4.190   6.997   8.805
  931POPC   C2B14300   4.041   6.892   8.394
  931POPC   C3B14301   4.023   6.767   7.972
  931POPC   C4B14302   3.776   6.998   7.684
  932POPC   NC314303  19.645  38.354   9.489
  932POPC   PO414304  20.249  38.813   9.481
  932POPC   GL114305  19.967  38.613   9.193
  932POPC   GL214306  19.981  38.257   9.082
  932POPC   C1A14307  19.723  38.661   8.814
  932POPC   D2A14308  19.616  38.936   8.415
  932POPC   C3A14309  19.678  38.725   8.005
  932POPC   C4A14310  19.845  38.749   7.583
  932POPC   C1B14311  19.878  38.222   8.648
  932POPC   C2B14312  19.567  38.382   8.368
  932POPC   C3B14313  19.525  38.214   7.968
  932POPC   C4B14314  19.836  38.241   7.688
  933POPC   NC314315  27.895   3.861   9.357
  933POPC   PO414316  27.439   3.243   9.553
  933POPC   GL114317  27.427   3.547   9.195
  933POPC   GL214318  27.374   3.898   9.303
  933POPC   C1A14319  27.464   3.535   8.727
  933POPC   D2A14320  27.624   3.754   8.351
  933POPC   C3A14321  27.536   3.537   7.981
  933POPC   C4A14322  27.623   3.442   7.566
  933POPC   C1B14323  27.168   3.924   8.917
  933POPC   C2B14324  27.176   3.967   8.476
  933POPC   C3B14325  27.264   4.034   8.057
  933POPC   C4B14326  27.332   3.879   7.672
  934POPC   NC314327  38.593  38.890   9.851
  934POPC   PO414328  38.792  38.234   9.581
  934POPC   GL114329  38.508  38.288   9.231
  934POPC   GL214330  38.536  38.574   9.121
  934POPC   C1A14331  38.513  38.166   8.801
  934POPC   D2A14332  38.698  38.177   8.381
  934POPC   C3A14333  38.360  38.141   8.071
  934POPC   C4A14334  38.391  38.489   7.794
  934POPC   C1B14335  38.586  38.682   8.724
  934POPC   C2B14336  38.307  38.908   8.502
  934POPC   C3B14337  38.369  38.902   8.083
  934POPC   C4B14338  38.048  38.874   7.784
  935POPC   NC314339  20.064  17.164   9.250
  935POPC   PO414340  19.679  17.763   9.441
  935POPC   GL114341  19.872  17.692   9.044
  935POPC   GL214342  19.687  17.420   9.050
  935POPC   C1A14343  19.838  17.603   8.592
  935POPC   D2A14344  19.746  17.893   8.244
  935POPC   C3A14345  19.925  17.757   7.849
  935POPC   C4A14346  19.571  17.621   7.578
  935POPC   C1B14347  19.605  17.052   8.787
  935POPC   C2B14348  19.825  17.058   8.444
  935POPC   C3B14349  19.778  17.337   8.123
  935POPC   C4B14350  19.894  17.254   7.729
  936POPC   NC314351   5.498  44.043   9.854
  936POPC   PO414352   5.588  43.472   9.492
  936POPC   GL114353   5.904  43.684   9.177
  936POPC   GL214354   6.067  44.026   9.237
  936POPC   C1A14355   6.001  43.660   8.724
  936POPC   D2A14356   5.683  43.613   8.392
  936POPC   C3A14357   5.827  43.729   7.983
  936POPC   C4A14358   6.097  43.583   7.683
  936POPC   C1B14359   6.123  44.162   8.810
  936POPC   C2B14360   5.924  44.088   8.393
  936POPC   C3B14361   5.967  44.234   7.955
  936POPC   C4B14362   5.670  44.239   7.582
  937POPC   NC314363  25.972  19.668   9.523
  937POPC   PO414364  26.282  20.268   9.477
  937POPC   GL114365  26.208  19.989   9.166
  937POPC   GL214366  25.859  19.955   9.124
  937POPC   C1A14367  26.170  20.058   8.740
  937POPC   D2A14368  26.422  20.066   8.392
  937POPC   C3A14369  26.158  19.969   8.061
  937POPC   C4A14370  26.065  20.162   7.691
  937POPC   C1B14371  25.969  19.576   8.880
  937POPC   C2B14372  25.986  19.633   8.466
  937POPC   C3B14373  25.910  19.531   8.048
  937POPC   C4B14374  25.845  19.692   7.656
  938POPC   NC314375  19.668  30.941   9.401
  938POPC   PO414376  20.243  30.703   9.751
  938POPC   GL114377  20.169  30.691   9.289
  938POPC   GL214378  19.916  30.424   9.244
  938POPC   C1A14379  20.004  30.767   8.845
  938POPC   D2A14380  19.619  30.881   8.585
  938POPC   C3A14381  19.734  30.860   8.142
  938POPC   C4A14382  20.194  30.944   8.043
  938POPC   C1B14383  19.721  30.327   8.834
  938POPC   C2B14384  19.750  30.276   8.409
  938POPC   C3B14385  20.067  30.447   8.190
  938POPC   C4B14386  19.988  30.539   7.783
  939POPC   NC314387  34.247  10.441   9.481
  939POPC   PO414388  34.788  10.873   9.292
  939POPC   GL114389  34.600  10.546   9.112
  939POPC   GL214390  34.891  10.390   9.025
  939POPC   C1A14391  34.328  10.542   8.767
  939POPC   D2A14392  34.399  10.605   8.340
  939POPC   C3A14393  34.355  10.284   8.065
  939POPC   C4A14394  34.517  10.430   7.686
  939POPC   C1B14395  34.843  10.598   8.626
  939POPC   C2B14396  34.938  10.596   8.176
  939POPC   C3B14397  34.994  10.600   7.730
  939POPC   C4B14398  34.939  10.383   7.363
  940POPC   NC314399  34.993  32.526   9.428
  940POPC   PO414400  34.795  33.180   9.634
  940POPC   GL114401  34.794  33.019   9.248
  940POPC   GL214402  34.430  32.958   9.233
  940POPC   C1A14403  34.830  33.136   8.821
  940POPC   D2A14404  34.818  32.909   8.432
  940POPC   C3A14405  34.740  33.082   8.021
  940POPC   C4A14406  34.685  32.719   7.761
  940POPC   C1B14407  34.391  32.860   8.789
  940POPC   C2B14408  34.306  33.041   8.363
  940POPC   C3B14409  34.240  32.898   7.945
  940POPC   C4B14410  34.318  32.951   7.493
  941POPC   NC314411  24.771  42.578   9.411
  941POPC   PO414412  24.376  42.048   9.459
  941POPC   GL114413  24.377  42.187   9.080
  941POPC   GL214414  24.481  42.479   8.984
  941POPC   C1A14415  24.552  42.070   8.692
  941POPC   D2A14416  24.765  42.132   8.309
  941POPC   C3A14417  24.538  42.167   7.944
  941POPC   C4A14418  24.314  42.078   7.593
  941POPC   C1B14419  24.349  42.614   8.617
  941POPC   C2B14420  24.530  42.602   8.214
  941POPC   C3B14421  24.519  42.640   7.781
  941POPC   C4B14422  24.227  42.772   7.493
  942POPC   NC314423  17.829   2.510   9.577
  942POPC   PO414424  17.263   2.845   9.617
  942POPC   GL114425  17.413   2.649   9.248
  942POPC   GL214426  17.782   2.679   9.115
  942POPC   C1A14427  17.353   2.747   8.839
  942POPC   D2A14428  17.412   2.583   8.434
  942POPC   C3A14429  17.276   2.831   8.110
  942POPC   C4A14430  17.314   2.665   7.729
  942POPC   C1B14431  17.841   2.729   8.677
  942POPC   C2B14432  17.696   3.022   8.356
  942POPC   C3B14433  17.750   2.910   7.924
  942POPC   C4B14434  17.825   2.504   7.718
  943POPC   NC314435   2.877  18.794   9.306
  943POPC   PO414436   2.344  19.199   9.483
  943POPC   GL114437   2.545  19.104   9.082
  943POPC   GL214438   2.906  19.170   8.977
  943POPC   C1A14439   2.465  19.020   8.664
  943POPC   D2A14440   2.529  18.899   8.242
  943POPC   C3A14441   2.802  19.106   8.024
  943POPC   C4A14442   2.800  19.204   7.629
  943POPC   C1B14443   3.153  19.415   8.697
  943POPC   C2B14444   3.062  19.510   8.239
  943POPC   C3B14445   3.220  19.432   7.786
  943POPC   C4B14446   3.113  19.402   7.292
  944POPC   NC314447  40.047  38.535   9.521
  944POPC   PO414448  40.250  37.974   9.359
  944POPC   GL114449  40.177  38.335   9.076
  944POPC   GL214450  39.838  38.513   9.069
  944POPC   C1A14451  40.126  38.432   8.664
  944POPC   D2A14452  40.251  38.202   8.376
  944POPC   C3A14453  40.016  38.115   8.080
  944POPC   C4A14454  40.148  38.110   7.693
  944POPC   C1B14455  39.604  38.550   8.706
  944POPC   C2B14456  39.781  38.559   8.312
  944POPC   C3B14457  40.130  38.608   8.035
  944POPC   C4B14458  39.784  38.448   7.765
  945POPC   NC314459   7.247  27.131   9.484
  945POPC   PO414460   7.755  26.686   9.400
  945POPC   GL114461   7.453  26.802   9.081
  945POPC   GL214462   7.246  27.065   8.998
  945POPC   C1A14463   7.414  26.720   8.638
  945POPC   D2A14464   7.711  26.646   8.301
  945POPC   C3A14465   7.573  26.576   7.874
  945POPC   C4A14466   7.701  26.820   7.524
  945POPC   C1B14467   7.513  27.227   8.738
  945POPC   C2B14468   7.293  27.190   8.384
  945POPC   C3B14469   7.358  26.999   8.029
  945POPC   C4B14470   7.245  27.048   7.604
  946POPC   NC314471  41.519   9.384   9.567
  946POPC   PO414472  41.832  10.008   9.590
  946POPC   GL114473  41.488   9.822   9.262
  946POPC   GL214474  41.537   9.509   9.088
  946POPC   C1A14475  41.262   9.828   8.818
  946POPC   D2A14476  41.438  10.021   8.426
  946POPC   C3A14477  41.467   9.889   8.000
  946POPC   C4A14478  41.632   9.964   7.598
  946POPC   C1B14479  41.905   9.271   8.937
  946POPC   C2B14480  41.979   9.272   8.507
  946POPC   C3B14481  41.681   9.477   8.216
  946POPC   C4B14482  41.624   9.454   7.758
  947POPC   NC314483   2.831   5.539   9.418
  947POPC   PO414484   2.850   6.226   9.485
  947POPC   GL114485   2.662   5.944   9.131
  947POPC   GL214486   2.481   5.561   9.031
  947POPC   C1A14487   2.788   5.803   8.724
  947POPC   D2A14488   2.557   5.771   8.366
  947POPC   C3A14489   2.698   6.067   8.071
  947POPC   C4A14490   2.884   5.847   7.779
  947POPC   C1B14491   2.723   5.284   8.723
  947POPC   C2B14492   2.866   5.353   8.298
  947POPC   C3B14493   2.596   5.447   7.940
  947POPC   C4B14494   2.216   5.327   7.706
  948POPC   NC314495  14.718  30.594   9.501
  948POPC   PO414496  14.039  31.029   9.455
  948POPC   GL114497  14.263  30.870   9.094
  948POPC   GL214498  14.620  30.777   9.047
  948POPC   C1A14499  14.300  30.663   8.678
  948POPC   D2A14500  14.137  30.423   8.339
  948POPC   C3A14501  14.252  30.561   7.909
  948POPC   C4A14502  14.447  30.866   7.619
  948POPC   C1B14503  14.787  30.473   8.814
  948POPC   C2B14504  14.914  30.483   8.408
  948POPC   C3B14505  14.693  30.370   8.049
  948POPC   C4B14506  14.787  30.480   7.644
  949POPC   NC314507  42.427  28.140   9.450
  949POPC   PO414508  41.950  28.567   9.572
  949POPC   GL114509  42.157  28.447   9.149
  949POPC   GL214510  42.106  28.102   9.080
  949POPC   C1A14511  42.513  28.420   8.820
  949POPC   D2A14512  42.695  28.555   8.397
  949POPC   C3A14513  42.529  28.402   8.015
  949POPC   C4A14514  42.370  28.120   7.699
  949POPC   C1B14515  42.149  28.082   8.711
  949POPC   C2B14516  42.171  28.339   8.401
  949POPC   C3B14517  42.008  28.295   8.015
  949POPC   C4B14518  41.849  28.036   7.675
  950POPC   NC314519  31.439  34.971   9.434
  950POPC   PO414520  31.760  34.307   9.422
  950POPC   GL114521  31.584  34.579   9.144
  950POPC   GL214522  31.744  34.902   9.037
  950POPC   C1A14523  31.344  34.695   8.778
  950POPC   D2A14524  31.063  34.621   8.448
  950POPC   C3A14525  31.255  34.694   8.048
  950POPC   C4A14526  31.316  34.648   7.646
  950POPC   C1B14527  31.830  34.536   8.732
  950POPC   C2B14528  31.630  34.536   8.347
  950POPC   C3B14529  31.765  34.581   7.919
  950POPC   C4B14530  31.975  34.201   7.761
  951POPC   NC314531  44.522  10.222   9.803
  951POPC   PO414532  44.321   9.620   9.539
  951POPC   GL114533  44.627   9.611   9.188
  951POPC   GL214534  44.728   9.920   9.149
  951POPC   C1A14535  44.543   9.561   8.737
  951POPC   D2A14536  44.315   9.714   8.368
  951POPC   C3A14537  44.456   9.618   7.970
  951POPC   C4A14538  44.555   9.831   7.602
  951POPC   C1B14539  44.963   9.858   8.752
  951POPC   C2B14540  44.853   9.760   8.344
  951POPC   C3B14541  44.953   9.716   7.922
  951POPC   C4B14542   0.040   9.909   7.507
  952POPC   NC314543   9.203  44.402   9.564
  952POPC   PO414544   8.802  44.931   9.540
  952POPC   GL114545   9.062  44.774   9.220
  952POPC   GL214546   9.277  44.997   9.122
  952POPC   C1A14547   9.048  44.542   8.804
  952POPC   D2A14548   8.878  44.333   8.423
  952POPC   C3A14549   8.931  44.497   8.050
  952POPC   C4A14550   8.736  44.716   7.752
  952POPC   C1B14551   8.964   0.045   8.799
  952POPC   C2B14552   9.162   0.060   8.431
  952POPC   C3B14553   9.152  44.958   8.027
  952POPC   C4B14554   8.991   0.157   7.690
  953POPC   NC314555  40.374  22.460   9.364
  953POPC   PO414556  41.042  22.732   9.415
  953POPC   GL114557  40.815  22.562   9.104
  953POPC   GL214558  40.522  22.716   8.909
  953POPC   C1A14559  40.960  22.486   8.719
  953POPC   D2A14560  40.735  22.678   8.392
  953POPC   C3A14561  40.845  22.585   7.968
  953POPC   C4A14562  40.448  22.546   7.769
  953POPC   C1B14563  40.548  23.169   8.733
  953POPC   C2B14564  40.616  23.462   8.373
  953POPC   C3B14565  40.528  23.289   7.975
  953POPC   C4B14566  40.671  23.009   7.643
  954POPC   NC314567  39.963  17.192   9.452
  954POPC   PO414568  40.520  17.493   9.588
  954POPC   GL114569  40.330  17.485   9.150
  954POPC   GL214570  39.964  17.591   9.118
  954POPC   C1A14571  40.211  17.558   8.682
  954POPC   D2A14572  40.094  17.307   8.312
  954POPC   C3A14573  40.172  17.523   7.933
  954POPC   C4A14574  40.517  17.745   7.766
  954POPC   C1B14575  39.810  17.246   8.790
  954POPC   C2B14576  39.594  17.236   8.364
  954POPC   C3B14577  39.642  17.285   7.946
  954POPC   C4B14578  39.749  17.586   7.636
  955POPC   NC314579  11.195  28.977   9.537
  955POPC   PO414580  11.481  29.588   9.469
  955POPC   GL114581  11.528  29.289   9.126
  955POPC   GL214582  11.183  29.185   9.050
  955POPC   C1A14583  11.612  29.066   8.725
  955POPC   D2A14584  11.348  29.082   8.337
  955POPC   C3A14585  11.622  29.093   7.973
  955POPC   C4A14586  11.616  29.078   7.538
  955POPC   C1B14587  10.917  29.179   8.675
  955POPC   C2B14588  10.945  29.408   8.298
  955POPC   C3B14589  11.128  29.378   7.901
  955POPC   C4B14590  10.839  29.375   7.557
  956POPC   NC314591  18.858  19.198   9.437
  956POPC   PO414592  19.286  18.683   9.441
  956POPC   GL114593  19.198  18.945   9.089
  956POPC   GL214594  19.264  19.306   9.107
  956POPC   C1A14595  18.929  19.092   8.741
  956POPC   D2A14596  18.719  18.941   8.358
  956POPC   C3A14597  18.713  19.240   8.000
  956POPC   C4A14598  19.134  19.330   7.784
  956POPC   C1B14599  19.351  19.422   8.671
  956POPC   C2B14600  19.145  19.236   8.294
  956POPC   C3B14601  19.082  18.864   7.985
  956POPC   C4B14602  19.327  18.800   7.611
  957POPC   NC314603  25.751  26.405   9.329
  957POPC   PO414604  26.404  26.304   9.574
  957POPC   GL114605  26.213  26.091   9.169
  957POPC   GL214606  26.046  25.726   9.166
  957POPC   C1A14607  25.963  26.103   8.790
  957POPC   D2A14608  25.690  26.265   8.482
  957POPC   C3A14609  25.768  26.083   8.079
  957POPC   C4A14610  26.095  26.071   7.770
  957POPC   C1B14611  26.239  25.676   8.748
  957POPC   C2B14612  26.229  25.820   8.286
  957POPC   C3B14613  26.248  25.597   7.880
  957POPC   C4B14614  26.242  25.677   7.416
  958POPC   NC314615   6.660  31.882   9.559
  958POPC   PO414616   6.347  31.252   9.517
  958POPC   GL114617   6.603  31.246   9.142
  958POPC   GL214618   6.939  31.384   9.195
  958POPC   C1A14619   6.684  31.512   8.758
  958POPC   D2A14620   6.525  31.620   8.335
  958POPC   C3A14621   6.753  31.582   7.905
  958POPC   C4A14622   6.731  31.693   7.421
  958POPC   C1B14623   7.102  31.221   8.795
  958POPC   C2B14624   6.922  31.255   8.361
  958POPC   C3B14625   7.113  31.154   7.951
  958POPC   C4B14626   7.024  31.279   7.514
  959POPC   NC314627  24.227  22.568   9.583
  959POPC   PO414628  24.755  22.181   9.577
  959POPC   GL114629  24.596  22.207   9.157
  959POPC   GL214630  24.317  22.282   9.155
  959POPC   C1A14631  24.646  22.286   8.721
  959POPC   D2A14632  24.630  22.000   8.368
  959POPC   C3A14633  24.519  22.130   7.963
  959POPC   C4A14634  24.564  21.909   7.576
  959POPC   C1B14635  24.135  22.380   8.759
  959POPC   C2B14636  24.136  22.241   8.338
  959POPC   C3B14637  23.990  22.363   7.926
  959POPC   C4B14638  24.202  22.260   7.573
  960POPC   NC314639  21.257   8.321   9.368
  960POPC   PO414640  21.604   7.815   9.453
  960POPC   GL114641  21.343   7.871   9.085
  960POPC   GL214642  21.065   8.109   8.943
  960POPC   C1A14643  21.503   8.030   8.701
  960POPC   D2A14644  21.553   8.261   8.319
  960POPC   C3A14645  21.354   8.085   7.973
  960POPC   C4A14646  21.459   7.886   7.592
  960POPC   C1B14647  21.208   8.443   8.713
  960POPC   C2B14648  21.247   8.683   8.355
  960POPC   C3B14649  21.428   8.664   7.992
  960POPC   C4B14650  21.164   8.554   7.748
  961POPC   NC314651  27.409   4.733   9.411
  961POPC   PO414652  27.693   5.395   9.402
  961POPC   GL114653  27.551   5.105   9.065
  961POPC   GL214654  27.184   4.969   9.024
  961POPC   C1A14655  27.820   5.025   8.725
  961POPC   D2A14656  27.982   5.052   8.332
  961POPC   C3A14657  27.689   5.181   8.019
  961POPC   C4A14658  27.405   5.377   7.742
  961POPC   C1B14659  27.294   5.160   8.613
  961POPC   C2B14660  27.199   5.149   8.145
  961POPC   C3B14661  27.361   4.867   7.770
  961POPC   C4B14662  27.313   4.664   7.350
  962POPC   NC314663   4.154  34.066   9.413
  962POPC   PO414664   4.532  33.529   9.543
  962POPC   GL114665   4.450  33.716   9.156
  962POPC   GL214666   4.618  34.028   9.207
  962POPC   C1A14667   4.286  33.853   8.744
  962POPC   D2A14668   4.116  33.705   8.344
  962POPC   C3A14669   4.215  33.835   7.915
  962POPC   C4A14670   4.308  33.705   7.462
  962POPC   C1B14671   4.792  34.045   8.829
  962POPC   C2B14672   4.684  33.965   8.408
  962POPC   C3B14673   4.654  34.127   8.014
  962POPC   C4B14674   4.652  34.010   7.615
  963POPC   NC314675   3.694  41.852   9.426
  963POPC   PO414676   3.348  41.352   9.561
  963POPC   GL114677   3.668  41.425   9.176
  963POPC   GL214678   3.386  41.591   9.104
  963POPC   C1A14679   3.840  41.559   8.722
  963POPC   D2A14680   3.696  41.632   8.254
  963POPC   C3A14681   3.862  41.781   7.830
  963POPC   C4A14682   3.834  41.711   7.357
  963POPC   C1B14683   3.330  41.384   8.761
  963POPC   C2B14684   3.155  41.544   8.412
  963POPC   C3B14685   3.287  41.412   8.030
  963POPC   C4B14686   3.514  41.439   7.675
  964POPC   NC314687  33.015  11.732   9.570
  964POPC   PO414688  32.960  12.454   9.538
  964POPC   GL114689  33.012  12.152   9.159
  964POPC   GL214690  33.141  11.793   9.091
  964POPC   C1A14691  33.160  12.191   8.747
  964POPC   D2A14692  32.940  12.146   8.370
  964POPC   C3A14693  33.144  11.999   8.007
  964POPC   C4A14694  33.024  12.017   7.540
  964POPC   C1B14695  32.820  11.806   8.769
  964POPC   C2B14696  32.834  11.663   8.332
  964POPC   C3B14697  32.714  11.755   7.898
  964POPC   C4B14698  32.720  11.496   7.515
  965POPC   NC314699   1.825  35.444   9.424
  965POPC   PO414700   2.187  34.994   9.622
  965POPC   GL114701   2.073  35.060   9.194
  965POPC   GL214702   1.703  35.043   9.141
  965POPC   C1A14703   2.114  35.155   8.777
  965POPC   D2A14704   2.277  35.438   8.500
  965POPC   C3A14705   2.112  35.268   8.127
  965POPC   C4A14706   2.284  35.375   7.749
  965POPC   C1B14707   1.672  35.369   8.806
  965POPC   C2B14708   1.784  35.526   8.450
  965POPC   C3B14709   1.654  35.494   8.046
  965POPC   C4B14710   1.703  35.692   7.682
  966POPC   NC314711  24.182  35.603   9.638
  966POPC   PO414712  23.495  35.425   9.532
  966POPC   GL114713  23.709  35.428   9.156
  966POPC   GL214714  23.924  35.137   9.252
  966POPC   C1A14715  23.847  35.733   8.822
  966POPC   D2A14716  23.973  35.867   8.418
  966POPC   C3A14717  23.885  35.582   8.070
  966POPC   C4A14718  23.713  35.390   7.668
  966POPC   C1B14719  23.633  34.994   8.900
  966POPC   C2B14720  23.580  35.172   8.501
  966POPC   C3B14721  23.621  35.106   8.083
  966POPC   C4B14722  23.281  35.132   7.808
  967POPC   NC314723  34.998  24.223   9.638
  967POPC   PO414724  35.679  24.480   9.507
  967POPC   GL114725  35.694  24.651   9.160
  967POPC   GL214726  35.372  24.475   9.066
  967POPC   C1A14727  35.687  24.712   8.759
  967POPC   D2A14728  35.346  24.717   8.510
  967POPC   C3A14729  35.550  24.551   8.179
  967POPC   C4A14730  35.382  24.340   7.849
  967POPC   C1B14731  35.442  24.241   8.659
  967POPC   C2B14732  35.141  24.259   8.322
  967POPC   C3B14733  34.969  24.018   7.977
  967POPC   C4B14734  35.065  24.131   7.522
  968POPC   NC314735  10.208  39.196   9.656
  968POPC   PO414736  10.884  39.509   9.615
  968POPC   GL114737  10.667  39.378   9.180
  968POPC   GL214738  10.428  39.087   9.222
  968POPC   C1A14739  10.511  39.234   8.757
  968POPC   D2A14740  10.445  39.268   8.314
  968POPC   C3A14741  10.658  39.066   8.016
  968POPC   C4A14742  10.490  39.049   7.642
  968POPC   C1B14743  10.146  38.883   8.929
  968POPC   C2B14744  10.183  38.860   8.480
  968POPC   C3B14745  10.296  38.700   8.068
  968POPC   C4B14746  10.011  38.596   7.749
  969POPC   NC314747  44.602  16.098   9.599
  969POPC   PO414748  44.262  15.528   9.504
  969POPC   GL114749  44.405  15.766   9.165
  969POPC   GL214750  44.754  15.749   9.223
  969POPC   C1A14751  44.602  16.025   8.819
  969POPC   D2A14752  44.867  16.135   8.452
  969POPC   C3A14753  44.625  16.226   8.054
  969POPC   C4A14754  44.685  16.177   7.595
  969POPC   C1B14755  44.802  15.549   8.808
  969POPC   C2B14756  44.705  15.661   8.358
  969POPC   C3B14757  44.716  15.753   7.885
  969POPC   C4B14758  44.562  15.712   7.407
  970POPC   NC314759  28.488  34.060   9.490
  970POPC   PO414760  28.311  33.393   9.554
  970POPC   GL114761  28.292  33.686   9.222
  970POPC   GL214762  28.631  33.723   9.124
  970POPC   C1A14763  28.286  33.703   8.781
  970POPC   D2A14764  28.419  33.949   8.469
  970POPC   C3A14765  28.200  33.836   8.125
  970POPC   C4A14766  28.270  33.858   7.712
  970POPC   C1B14767  28.842  33.751   8.734
  970POPC   C2B14768  28.901  33.901   8.317
  970POPC   C3B14769  28.779  33.799   7.879
  970POPC   C4B14770  28.692  34.009   7.494
  971POPC   NC314771  16.678   8.398   9.417
  971POPC   PO414772  16.944   7.746   9.499
  971POPC   GL114773  16.823   7.997   9.145
  971POPC   GL214774  17.078   8.208   9.069
  971POPC   C1A14775  16.657   8.137   8.732
  971POPC   D2A14776  16.851   8.060   8.331
  971POPC   C3A14777  16.689   8.255   7.946
  971POPC   C4A14778  16.464   8.484   7.623
  971POPC   C1B14779  17.025   8.481   8.738
  971POPC   C2B14780  17.193   8.466   8.309
  971POPC   C3B14781  17.183   8.441   7.886
  971POPC   C4B14782  16.895   8.730   7.786
  972POPC   NC314783  35.327  35.430   9.642
  972POPC   PO414784  35.741  35.007   9.358
  972POPC   GL114785  35.555  35.388   9.150
  972POPC   GL214786  35.179  35.474   9.143
  972POPC   C1A14787  35.476  35.574   8.733
  972POPC   D2A14788  35.537  35.749   8.320
  972POPC   C3A14789  35.469  35.452   8.005
  972POPC   C4A14790  35.462  34.982   8.015
  972POPC   C1B14791  35.024  35.248   8.752
  972POPC   C2B14792  34.963  35.242   8.278
  972POPC   C3B14793  35.043  35.223   7.812
  972POPC   C4B14794  35.072  35.115   7.350
  973POPC   NC314795  29.453   3.204   9.388
  973POPC   PO414796  29.667   3.780   9.353
  973POPC   GL114797  29.827   3.487   9.042
  973POPC   GL214798  30.195   3.414   9.017
  973POPC   C1A14799  29.871   3.128   8.769
  973POPC   D2A14800  29.700   3.086   8.369
  973POPC   C3A14801  29.885   3.433   8.140
  973POPC   C4A14802  29.975   3.282   7.749
  973POPC   C1B14803  30.217   3.737   8.702
  973POPC   C2B14804  30.183   3.932   8.303
  973POPC   C3B14805  30.347   3.788   7.945
  973POPC   C4B14806  30.225   3.663   7.536
  974POPC   NC314807  36.458  37.688   9.374
  974POPC   PO414808  35.780  37.789   9.484
  974POPC   GL114809  35.973  37.716   9.112
  974POPC   GL214810  36.152  38.048   9.197
  974POPC   C1A14811  36.085  37.445   8.739
  974POPC   D2A14812  36.222  37.620   8.374
  974POPC   C3A14813  36.350  37.439   7.996
  974POPC   C4A14814  36.021  37.472   7.738
  974POPC   C1B14815  36.278  37.967   8.782
  974POPC   C2B14816  36.173  38.157   8.410
  974POPC   C3B14817  36.094  37.995   8.003
  974POPC   C4B14818  36.415  37.987   7.736
  975POPC   NC314819  36.493  16.325   9.254
  975POPC   PO414820  36.982  15.950   9.566
  975POPC   GL114821  36.923  16.007   9.109
  975POPC   GL214822  36.607  15.825   9.171
  975POPC   C1A14823  37.195  16.190   8.732
  975POPC   D2A14824  37.122  16.337   8.277
  975POPC   C3A14825  37.147  16.078   7.867
  975POPC   C4A14826  37.092  15.931   7.416
  975POPC   C1B14827  36.393  15.902   8.764
  975POPC   C2B14828  36.343  16.043   8.360
  975POPC   C3B14829  36.655  16.037   8.052
  975POPC   C4B14830  36.652  16.013   7.636
  976POPC   NC314831   4.722  39.391   9.613
  976POPC   PO414832   4.152  39.172   9.589
  976POPC   GL114833   4.209  39.083   9.181
  976POPC   GL214834   3.846  39.133   9.143
  976POPC   C1A14835   4.517  39.267   8.892
  976POPC   D2A14836   4.574  39.559   8.544
  976POPC   C3A14837   4.620  39.337   8.135
  976POPC   C4A14838   4.703  39.069   7.772
  976POPC   C1B14839   4.022  39.407   8.832
  976POPC   C2B14840   4.191  39.246   8.456
  976POPC   C3B14841   4.113  39.382   8.048
  976POPC   C4B14842   4.193  39.173   7.735
  977POPC   NC314843  30.280  16.539   9.462
  977POPC   PO414844  30.752  17.031   9.383
  977POPC   GL114845  30.787  16.966   8.967
  977POPC   GL214846  30.466  16.790   9.003
  977POPC   C1A14847  30.774  16.642   8.618
  977POPC   D2A14848  30.544  16.390   8.294
  977POPC   C3A14849  30.773  16.550   7.935
  977POPC   C4A14850  30.873  16.980   7.832
  977POPC   C1B14851  30.428  17.027   8.602
  977POPC   C2B14852  30.476  16.907   8.169
  977POPC   C3B14853  30.399  16.889   7.706
  977POPC   C4B14854  30.445  16.859   7.263
  978POPC   NC314855  14.714  25.454   9.326
  978POPC   PO414856  15.282  25.197   9.529
  978POPC   GL114857  15.247  25.004   9.139
  978POPC   GL214858  14.937  25.107   9.032
  978POPC   C1A14859  15.321  24.953   8.700
  978POPC   D2A14860  15.451  25.098   8.296
  978POPC   C3A14861  15.469  25.534   8.214
  978POPC   C4A14862  15.372  25.484   7.780
  978POPC   C1B14863  14.957  25.304   8.610
  978POPC   C2B14864  15.004  25.302   8.150
  978POPC   C3B14865  14.868  25.088   7.784
  978POPC   C4B14866  14.770  25.018   7.337
  979POPC   NC314867  35.038   1.817   9.400
  979POPC   PO414868  35.572   2.254   9.545
  979POPC   GL114869  35.383   2.115   9.132
  979POPC   GL214870  35.411   1.759   9.027
  979POPC   C1A14871  35.373   2.151   8.681
  979POPC   D2A14872  35.383   1.920   8.298
  979POPC   C3A14873  35.349   2.159   7.912
  979POPC   C4A14874  35.208   2.045   7.484
  979POPC   C1B14875  35.100   1.694   8.689
  979POPC   C2B14876  34.895   1.797   8.278
  979POPC   C3B14877  35.074   1.720   7.892
  979POPC   C4B14878  35.015   1.527   7.518
  980POPC   NC314879  17.981  14.421   9.400
  980POPC   PO414880  18.566  14.489   9.215
  980POPC   GL114881  18.221  14.291   8.959
  980POPC   GL214882  17.867  14.162   8.983
  980POPC   C1A14883  18.321  14.228   8.546
  980POPC   D2A14884  18.504  14.528   8.289
  980POPC   C3A14885  18.501  14.462   7.861
  980POPC   C4A14886  18.759  14.260   7.568
  980POPC   C1B14887  17.835  14.044   8.590
  980POPC   C2B14888  17.958  14.277   8.190
  980POPC   C3B14889  17.991  14.376   7.735
  980POPC   C4B14890  17.789  14.601   7.346
  981POPC   NC314891  40.408  27.056   9.454
  981POPC   PO414892  41.009  26.832   9.588
  981POPC   GL114893  40.894  26.720   9.193
  981POPC   GL214894  41.092  26.444   9.172
  981POPC   C1A14895  40.703  26.726   8.790
  981POPC   D2A14896  40.897  26.888   8.406
  981POPC   C3A14897  40.693  26.887   8.015
  981POPC   C4A14898  40.547  26.826   7.603
  981POPC   C1B14899  40.996  26.304   8.761
  981POPC   C2B14900  40.795  26.379   8.362
  981POPC   C3B14901  41.079  26.536   8.049
  981POPC   C4B14902  41.039  26.723   7.648
  982POPC   NC314903  20.024   1.915   9.447
  982POPC   PO414904  19.346   1.913   9.668
  982POPC   GL114905  19.421   2.016   9.179
  982POPC   GL214906  19.740   2.083   9.078
  982POPC   C1A14907  19.507   1.774   8.759
  982POPC   D2A14908  19.773   1.892   8.451
  982POPC   C3A14909  19.656   2.166   8.150
  982POPC   C4A14910  19.383   2.033   7.810
  982POPC   C1B14911  20.101   2.048   8.794
  982POPC   C2B14912  20.265   1.962   8.348
  982POPC   C3B14913  20.031   1.840   8.009
  982POPC   C4B14914  19.905   2.087   7.686
  983POPC   NC314915  26.208   4.584  10.012
  983POPC   PO414916  26.076   4.224   9.484
  983POPC   GL114917  25.917   4.319   9.111
  983POPC   GL214918  26.027   4.600   9.055
  983POPC   C1A14919  26.026   4.133   8.733
  983POPC   D2A14920  26.306   4.086   8.383
  983POPC   C3A14921  26.174   4.295   8.004
  983POPC   C4A14922  26.009   4.307   7.591
  983POPC   C1B14923  26.386   4.504   8.786
  983POPC   C2B14924  26.541   4.574   8.384
  983POPC   C3B14925  26.581   4.564   7.934
  983POPC   C4B14926  26.356   4.732   7.585
  984POPC   NC314927  13.724   8.727   9.399
  984POPC   PO414928  13.449   9.251   9.448
  984POPC   GL114929  13.697   9.195   9.075
  984POPC   GL214930  13.515   8.967   9.018
  984POPC   C1A14931  13.521   9.212   8.593
  984POPC   D2A14932  13.156   9.103   8.272
  984POPC   C3A14933  13.371   9.121   7.873
  984POPC   C4A14934  13.783   9.013   7.864
  984POPC   C1B14935  13.726   8.750   8.727
  984POPC   C2B14936  13.696   8.552   8.368
  984POPC   C3B14937  13.577   8.565   7.959
  984POPC   C4B14938  13.419   8.655   7.577
  985POPC   NC314939   4.172  38.046   9.485
  985POPC   PO414940   4.546  37.502   9.400
  985POPC   GL114941   4.311  37.669   9.030
  985POPC   GL214942   3.984  37.884   9.028
  985POPC   C1A14943   4.251  37.361   8.693
  985POPC   D2A14944   3.944  37.366   8.371
  985POPC   C3A14945   4.076  37.614   8.015
  985POPC   C4A14946   4.409  37.586   7.687
  985POPC   C1B14947   4.028  37.820   8.589
  985POPC   C2B14948   4.421  37.733   8.374
  985POPC   C3B14949   4.481  37.955   8.010
  985POPC   C4B14950   4.136  38.011   7.684
  986POPC   NC314951  32.389  17.824   9.360
  986POPC   PO414952  32.368  17.228   9.712
  986POPC   GL114953  32.073  17.443   9.236
  986POPC   GL214954  31.894  17.799   9.185
  986POPC   C1A14955  32.168  17.569   8.775
  986POPC   D2A14956  32.471  17.520   8.436
  986POPC   C3A14957  32.246  17.519   8.054
  986POPC   C4A14958  32.262  17.523   7.614
  986POPC   C1B14959  31.765  17.846   8.726
  986POPC   C2B14960  32.100  17.930   8.389
  986POPC   C3B14961  32.382  18.035   8.039
  986POPC   C4B14962  32.325  18.019   7.590
  987POPC   NC314963  30.633  14.854   9.426
  987POPC   PO414964  31.110  15.331   9.468
  987POPC   GL114965  30.827  15.259   9.165
  987POPC   GL214966  31.004  14.943   9.088
  987POPC   C1A14967  30.737  15.205   8.752
  987POPC   D2A14968  30.842  15.334   8.361
  987POPC   C3A14969  30.457  15.437   8.196
  987POPC   C4A14970  30.253  15.143   7.900
  987POPC   C1B14971  31.117  14.842   8.663
  987POPC   C2B14972  30.933  14.830   8.256
  987POPC   C3B14973  30.816  15.008   7.839
  987POPC   C4B14974  30.942  15.233   7.419
  988POPC   NC314975  41.985  29.070   9.545
  988POPC   PO414976  42.699  29.227   9.620
  988POPC   GL114977  42.486  29.092   9.187
  988POPC   GL214978  42.191  28.955   9.093
  988POPC   C1A14979  42.345  29.336   8.769
  988POPC   D2A14980  42.438  29.588   8.361
  988POPC   C3A14981  42.282  29.279   8.050
  988POPC   C4A14982  41.955  29.159   7.788
  988POPC   C1B14983  42.181  28.804   8.660
  988POPC   C2B14984  42.257  28.798   8.202
  988POPC   C3B14985  42.217  28.724   7.743
  988POPC   C4B14986  41.970  28.865   7.351
  989POPC   NC314987  11.832   2.680   9.736
  989POPC   PO414988  11.242   2.976   9.446
  989POPC   GL114989  11.092   2.911   9.098
  989POPC   GL214990  11.193   2.590   9.072
  989POPC   C1A14991  11.205   2.916   8.677
  989POPC   D2A14992  11.060   2.649   8.364
  989POPC   C3A14993  11.210   2.858   8.048
  989POPC   C4A14994  11.291   2.904   7.641
  989POPC   C1B14995  11.268   2.378   8.731
  989POPC   C2B14996  11.472   2.252   8.372
  989POPC   C3B14997  11.529   2.457   8.019
  989POPC   C4B14998  11.362   2.396   7.618
  990POPC   NC314999  26.197  41.407   9.626
  990POPC   PO415000  25.600  41.466   9.421
  990POPC   GL115001  26.013  41.403   9.147
  990POPC   GL215002  26.433  41.367   9.175
  990POPC   C1A15003  26.042  41.301   8.698
  990POPC   D2A15004  26.221  41.259   8.302
  990POPC   C3A15005  26.030  41.444   7.987
  990POPC   C4A15006  25.908  41.345   7.566
  990POPC   C1B15007  26.321  41.700   8.901
  990POPC   C2B15008  26.187  41.767   8.498
  990POPC   C3B15009  26.404  41.808   8.133
  990POPC   C4B15010  26.284  41.764   7.714
  991POPC   NC315011   4.455  26.656   9.540
  991POPC   PO415012   4.279  27.295   9.343
  991POPC   GL115013   4.287  26.892   9.100
  991POPC   GL215014   4.231  26.473   9.117
  991POPC   C1A15015   4.547  26.865   8.715
  991POPC   D2A15016   4.506  27.022   8.304
  991POPC   C3A15017   4.477  26.756   7.959
  991POPC   C4A15018   4.635  26.691   7.557
  991POPC   C1B15019   4.098  26.626   8.724
  991POPC   C2B15020   3.986  26.763   8.324
  991POPC   C3B15021   3.956  26.819   7.905
  991POPC   C4B15022   4.130  26.583   7.602
  992POPC   NC315023  27.643  42.022   9.331
  992POPC   PO415024  28.128  42.413   9.641
  992POPC   GL115025  27.973  42.434   9.179
  992POPC   GL215026  27.658  42.491   9.105
  992POPC   C1A15027  27.831  42.214   8.732
  992POPC   D2A15028  27.566  41.919   8.459
  992POPC   C3A15029  27.665  42.072   8.050
  992POPC   C4A15030  27.516  42.072   7.630
  992POPC   C1B15031  27.435  42.619   8.761
  992POPC   C2B15032  27.421  42.421   8.384
  992POPC   C3B15033  27.445  42.555   7.997
  992POPC   C4B15034  27.768  42.495   7.756
  993POPC   NC315035  12.332  18.348   9.590
  993POPC   PO415036  11.720  18.580   9.482
  993POPC   GL115037  12.009  18.300   9.186
  993POPC   GL215038  12.361  18.108   9.162
  993POPC   C1A15039  12.184  18.479   8.819
  993POPC   D2A15040  12.064  18.652   8.422
  993POPC   C3A15041  12.119  18.518   8.003
  993POPC   C4A15042  11.911  18.654   7.590
  993POPC   C1B15043  12.284  17.995   8.779
  993POPC   C2B15044  12.051  17.925   8.447
  993POPC   C3B15045  12.070  17.950   8.018
  993POPC   C4B15046  12.144  18.196   7.622
  994POPC   NC315047   2.417  20.457   9.503
  994POPC   PO415048   3.135  20.524   9.539
  994POPC   GL115049   2.916  20.292   9.167
  994POPC   GL215050   2.582  20.380   9.043
  994POPC   C1A15051   2.982  20.390   8.708
  994POPC   D2A15052   2.753  20.428   8.303
  994POPC   C3A15053   2.976  20.541   7.918
  994POPC   C4A15054   2.854  20.661   7.500
  994POPC   C1B15055   2.479  20.621   8.707
  994POPC   C2B15056   2.311  20.776   8.324
  994POPC   C3B15057   2.480  20.679   7.914
  994POPC   C4B15058   2.312  20.671   7.522
  995POPC   NC315059  28.811   8.927   9.611
  995POPC   PO415060  29.379   9.164   9.373
  995POPC   GL115061  28.985   9.069   9.118
  995POPC   GL215062  28.869   8.733   9.120
  995POPC   C1A15063  28.871   9.026   8.666
  995POPC   D2A15064  29.073   9.206   8.289
  995POPC   C3A15065  29.107   8.987   7.901
  995POPC   C4A15066  29.446   8.933   7.655
  995POPC   C1B15067  29.169   8.630   8.820
  995POPC   C2B15068  29.150   8.688   8.373
  995POPC   C3B15069  29.353   8.544   8.021
  995POPC   C4B15070  29.174   8.456   7.647
  996POPC   NC315071  21.700  12.176   9.464
  996POPC   PO415072  21.085  11.854   9.434
  996POPC   GL115073  21.387  11.890   9.153
  996POPC   GL215074  21.294  12.235   9.155
  996POPC   C1A15075  21.515  11.961   8.739
  996POPC   D2A15076  21.420  11.737   8.354
  996POPC   C3A15077  21.478  11.957   7.983
  996POPC   C4A15078  21.250  11.993   7.626
  996POPC   C1B15079  21.167  12.360   8.775
  996POPC   C2B15080  21.270  12.234   8.373
  996POPC   C3B15081  21.204  12.389   7.970
  996POPC   C4B15082  21.350  12.491   7.579
  997POPC   NC315083  22.717  43.940   9.523
  997POPC   PO415084  23.105  43.522   9.147
  997POPC   GL115085  22.966  43.955   9.071
  997POPC   GL215086  22.586  44.028   9.043
  997POPC   C1A15087  22.910  43.984   8.643
  997POPC   D2A15088  23.192  43.812   8.358
  997POPC   C3A15089  23.019  43.865   8.004
  997POPC   C4A15090  23.073  43.673   7.638
  997POPC   C1B15091  22.525  43.608   8.808
  997POPC   C2B15092  22.503  43.440   8.358
  997POPC   C3B15093  22.553  43.642   7.912
  997POPC   C4B15094  22.701  44.029   7.652
  998POPC   NC315095  31.452  25.823   9.700
  998POPC   PO415096  31.574  25.137   9.605
  998POPC   GL115097  31.395  25.175   9.212
  998POPC   GL215098  31.492  25.480   9.213
  998POPC   C1A15099  31.423  25.206   8.736
  998POPC   D2A15100  31.377  25.396   8.298
  998POPC   C3A15101  31.476  25.237   7.912
  998POPC   C4A15102  31.358  25.136   7.476
  998POPC   C1B15103  31.770  25.534   8.858
  998POPC   C2B15104  31.767  25.691   8.438
  998POPC   C3B15105  31.832  25.593   8.015
  998POPC   C4B15106  31.749  25.768   7.609
  999POPC   NC315107  40.926  39.012   9.547
  999POPC   PO415108  40.614  39.594   9.380
  999POPC   GL115109  40.706  39.418   9.007
  999POPC   GL215110  41.038  39.303   9.147
  999POPC   C1A15111  40.379  39.257   8.711
  999POPC   D2A15112  40.461  39.059   8.316
  999POPC   C3A15113  40.766  39.303   8.158
  999POPC   C4A15114  40.795  39.427   7.771
  999POPC   C1B15115  41.051  39.100   8.736
  999POPC   C2B15116  41.015  38.888   8.325
  999POPC   C3B15117  41.105  39.021   7.878
  999POPC   C4B15118  41.041  39.132   7.417
 1000POPC   NC315119  10.113  16.983   9.375
 1000POPC   PO415120  10.412  16.459   9.471
 1000POPC   GL115121  10.423  16.574   9.072
 1000POPC   GL215122  10.679  16.821   9.106
 1000POPC   C1A15123  10.325  16.840   8.718
 1000POPC   D2A15124  10.253  16.735   8.304
 1000POPC   C3A15125  10.393  17.055   8.000
 1000POPC   C4A15126  10.420  17.011   7.517
 1000POPC   C1B15127  10.783  16.616   8.699
 1000POPC   C2B15128  10.751  16.556   8.259
 1000POPC   C3B15129  10.511  16.594   7.880
 1000POPC   C4B15130  10.847  16.839   7.727
 1001POPC   NC315131   1.840  12.571   9.442
 1001POPC   PO415132   2.133  13.151   9.492
 1001POPC   GL115133   2.176  12.875   9.153
 1001POPC   GL215134   1.833  12.861   9.006
 1001POPC   C1A15135   2.248  12.814   8.707
 1001POPC   D2A15136   1.918  12.810   8.396
 1001POPC   C3A15137   1.991  12.982   8.002
 1001POPC   C4A15138   2.066  12.817   7.625
 1001POPC   C1B15139   1.638  13.132   8.687
 1001POPC   C2B15140   1.496  13.122   8.244
 1001POPC   C3B15141   1.500  12.961   7.842
 1001POPC   C4B15142   1.681  13.035   7.439
 1002POPC   NC315143  36.367  33.852   9.452
 1002POPC   PO415144  35.740  33.438   9.430
 1002POPC   GL115145  36.006  33.704   9.121
 1002POPC   GL215146  36.393  33.675   8.990
 1002POPC   C1A15147  36.110  34.031   8.783
 1002POPC   D2A15148  36.274  34.208   8.371
 1002POPC   C3A15149  36.168  34.048   7.990
 1002POPC   C4A15150  36.070  33.815   7.576
 1002POPC   C1B15151  36.584  33.857   8.639
 1002POPC   C2B15152  36.318  33.690   8.325
 1002POPC   C3B15153  36.398  33.580   7.912
 1002POPC   C4B15154  36.255  33.352   7.556
 1003POPC   NC315155  40.611  44.793   9.817
 1003POPC   PO415156  40.702   0.410   9.546
 1003POPC   GL115157  40.848   0.501   9.154
 1003POPC   GL215158  41.046   0.187   9.159
 1003POPC   C1A15159  40.639   0.609   8.752
 1003POPC   D2A15160  40.697   0.803   8.341
 1003POPC   C3A15161  40.632   0.610   7.896
 1003POPC   C4A15162  40.390   0.683   7.481
 1003POPC   C1B15163  41.093   0.323   8.741
 1003POPC   C2B15164  40.930   0.165   8.373
 1003POPC   C3B15165  41.092   0.320   8.015
 1003POPC   C4B15166  40.958   0.327   7.610
 1004POPC   NC315167   0.722   0.598   9.552
 1004POPC   PO415168   0.137   0.331   9.676
 1004POPC   GL115169   0.271   0.611   9.265
 1004POPC   GL215170   0.558   0.448   9.086
 1004POPC   C1A15171   0.240   0.673   8.763
 1004POPC   D2A15172   0.096   0.492   8.341
 1004POPC   C3A15173   0.337   0.574   7.918
 1004POPC   C4A15174   0.275   0.717   7.455
 1004POPC   C1B15175   0.547   0.113   8.758
 1004POPC   C2B15176   0.436   0.093   8.334
 1004POPC   C3B15177   0.624   0.002   7.956
 1004POPC   C4B15178   0.949   0.239   7.723
 1005POPC   NC315179  23.991  18.511   9.346
 1005POPC   PO415180  23.410  18.222   9.491
 1005POPC   GL115181  23.669  18.131   9.159
 1005POPC   GL215182  23.586  18.479   9.047
 1005POPC   C1A15183  23.900  17.958   8.796
 1005POPC   D2A15184  23.760  17.906   8.375
 1005POPC   C3A15185  23.891  18.254   8.142
 1005POPC   C4A15186  23.881  18.382   7.728
 1005POPC   C1B15187  23.476  18.253   8.684
 1005POPC   C2B15188  23.390  18.259   8.267
 1005POPC   C3B15189  23.424  18.170   7.843
 1005POPC   C4B15190  23.346  18.407   7.458
 1006POPC   NC315191  12.188  34.053   9.373
 1006POPC   PO415192  11.808  33.520   9.521
 1006POPC   GL115193  11.977  33.612   9.137
 1006POPC   GL215194  12.340  33.640   9.139
 1006POPC   C1A15195  11.911  33.872   8.791
 1006POPC   D2A15196  12.015  33.726   8.412
 1006POPC   C3A15197  11.863  33.876   8.052
 1006POPC   C4A15198  11.759  33.547   7.794
 1006POPC   C1B15199  12.424  33.892   8.759
 1006POPC   C2B15200  12.541  33.733   8.384
 1006POPC   C3B15201  12.343  33.721   8.017
 1006POPC   C4B15202  12.248  33.979   7.704
 1007POPC   NC315203  41.018  41.870   9.506
 1007POPC   PO415204  40.747  41.162   9.476
 1007POPC   GL115205  40.917  41.311   9.146
 1007POPC   GL215206  40.826  41.634   9.118
 1007POPC   C1A15207  40.785  41.304   8.739
 1007POPC   D2A15208  41.014  41.261   8.392
 1007POPC   C3A15209  40.738  41.280   8.118
 1007POPC   C4A15210  40.859  41.273   7.732
 1007POPC   C1B15211  40.743  41.854   8.761
 1007POPC   C2B15212  40.848  41.742   8.372
 1007POPC   C3B15213  41.020  41.683   7.982
 1007POPC   C4B15214  40.827  41.819   7.599
 1008POPC   NC315215  13.404  37.256   9.578
 1008POPC   PO415216  13.822  36.695   9.501
 1008POPC   GL115217  13.753  37.023   9.229
 1008POPC   GL215218  13.411  36.949   9.179
 1008POPC   C1A15219  13.754  36.994   8.780
 1008POPC   D2A15220  13.983  36.850   8.408
 1008POPC   C3A15221  13.755  36.747   8.035
 1008POPC   C4A15222  13.693  37.080   7.723
 1008POPC   C1B15223  13.240  37.065   8.806
 1008POPC   C2B15224  13.400  36.889   8.419
 1008POPC   C3B15225  13.272  36.986   8.034
 1008POPC   C4B15226  13.205  37.193   7.681
 1009POPC   NC315227  13.765  18.866   9.466
 1009POPC   PO415228  13.801  19.500   9.638
 1009POPC   GL115229  13.835  19.310   9.184
 1009POPC   GL215230  13.558  19.163   9.069
 1009POPC   C1A15231  13.930  19.066   8.759
 1009POPC   D2A15232  13.729  19.066   8.349
 1009POPC   C3A15233  13.857  18.959   7.922
 1009POPC   C4A15234  13.818  19.309   7.668
 1009POPC   C1B15235  13.347  19.179   8.692
 1009POPC   C2B15236  13.219  19.084   8.284
 1009POPC   C3B15237  13.208  18.795   7.997
 1009POPC   C4B15238  13.334  18.901   7.606
 1010POPC   NC315239  16.803  24.084   9.527
 1010POPC   PO415240  16.847  24.689   9.777
 1010POPC   GL115241  16.659  24.546   9.283
 1010POPC   GL215242  16.444  24.272   9.189
 1010POPC   C1A15243  16.722  24.531   8.802
 1010POPC   D2A15244  16.840  24.711   8.387
 1010POPC   C3A15245  16.939  24.491   8.030
 1010POPC   C4A15246  16.763  24.442   7.609
 1010POPC   C1B15247  16.435  24.102   8.768
 1010POPC   C2B15248  16.442  24.255   8.335
 1010POPC   C3B15249  16.599  24.098   7.947
 1010POPC   C4B15250  17.019  24.056   7.778
 1011POPC   NC315251  20.901  21.776   9.460
 1011POPC   PO415252  20.483  22.361   9.490
 1011POPC   GL115253  20.493  21.996   9.216
 1011POPC   GL215254  20.820  21.983   9.009
 1011POPC   C1A15255  20.351  21.893   8.819
 1011POPC   D2A15256  20.241  22.185   8.491
 1011POPC   C3A15257  20.429  22.042   8.126
 1011POPC   C4A15258  20.425  22.159   7.707
 1011POPC   C1B15259  20.762  22.062   8.563
 1011POPC   C2B15260  20.759  22.454   8.354
 1011POPC   C3B15261  20.823  22.512   7.917
 1011POPC   C4B15262  20.913  22.074   7.827
 1012POPC   NC315263  35.366   2.705   9.564
 1012POPC   PO415264  35.125   2.997   9.047
 1012POPC   GL115265  35.300   2.608   8.932
 1012POPC   GL215266  35.622   2.568   9.121
 1012POPC   C1A15267  35.344   2.639   8.475
 1012POPC   D2A15268  35.297   3.034   8.215
 1012POPC   C3A15269  35.139   2.915   7.815
 1012POPC   C4A15270  35.119   2.535   7.642
 1012POPC   C1B15271  35.775   2.524   8.725
 1012POPC   C2B15272  35.752   2.292   8.368
 1012POPC   C3B15273  35.679   2.519   8.078
 1012POPC   C4B15274  35.596   2.689   7.748
 1013POPC   NC315275   5.861  23.363   9.490
 1013POPC   PO415276   6.344  23.918   9.469
 1013POPC   GL115277   6.055  23.989   9.142
 1013POPC   GL215278   5.757  23.808   9.191
 1013POPC   C1A15279   5.965  23.920   8.708
 1013POPC   D2A15280   5.737  24.049   8.355
 1013POPC   C3A15281   5.929  23.932   7.970
 1013POPC   C4A15282   5.920  23.976   7.540
 1013POPC   C1B15283   5.684  23.507   8.837
 1013POPC   C2B15284   5.850  23.492   8.399
 1013POPC   C3B15285   5.611  23.543   8.032
 1013POPC   C4B15286   5.669  23.528   7.620
 1014POPC   NC315287   1.532  39.576   9.259
 1014POPC   PO415288   1.492  39.032   9.669
 1014POPC   GL115289   1.136  39.274   9.285
 1014POPC   GL215290   1.179  39.130   8.921
 1014POPC   C1A15291   0.898  39.539   8.916
 1014POPC   D2A15292   0.835  39.656   8.454
 1014POPC   C3A15293   0.912  39.343   8.106
 1014POPC   C4A15294   0.850  38.975   7.843
 1014POPC   C1B15295   1.409  39.452   8.647
 1014POPC   C2B15296   1.441  39.528   8.225
 1014POPC   C3B15297   1.510  39.173   7.967
 1014POPC   C4B15298   1.738  39.234   7.603
 1015POPC   NC315299   8.945   7.656   9.447
 1015POPC   PO415300   9.228   7.141   9.176
 1015POPC   GL115301   9.178   7.580   8.993
 1015POPC   GL215302   8.808   7.729   8.985
 1015POPC   C1A15303   9.102   7.639   8.555
 1015POPC   D2A15304   8.984   7.372   8.239
 1015POPC   C3A15305   9.119   7.451   7.834
 1015POPC   C4A15306   9.062   7.180   7.497
 1015POPC   C1B15307   8.650   7.441   8.710
 1015POPC   C2B15308   8.583   7.656   8.341
 1015POPC   C3B15309   8.611   7.591   7.917
 1015POPC   C4B15310   8.660   7.481   7.491
 1016POPC   NC315311  14.805  24.155   9.284
 1016POPC   PO415312  14.287  23.701   9.482
 1016POPC   GL115313  14.547  23.754   9.161
 1016POPC   GL215314  14.293  23.921   9.012
 1016POPC   C1A15315  14.733  23.741   8.785
 1016POPC   D2A15316  14.601  23.630   8.439
 1016POPC   C3A15317  14.586  23.925   8.133
 1016POPC   C4A15318  14.370  23.716   7.856
 1016POPC   C1B15319  14.064  23.636   8.773
 1016POPC   C2B15320  14.130  23.462   8.363
 1016POPC   C3B15321  14.162  23.268   7.986
 1016POPC   C4B15322  13.895  23.557   7.797
 1017POPC   NC315323  33.333  25.988   9.564
 1017POPC   PO415324  32.745  26.026   9.306
 1017POPC   GL115325  33.138  26.080   9.089
 1017POPC   GL215326  33.239  25.746   9.099
 1017POPC   C1A15327  33.214  26.166   8.665
 1017POPC   D2A15328  32.956  26.152   8.329
 1017POPC   C3A15329  33.152  26.060   8.010
 1017POPC   C4A15330  33.034  25.948   7.595
 1017POPC   C1B15331  32.946  25.707   8.761
 1017POPC   C2B15332  32.756  25.678   8.364
 1017POPC   C3B15333  32.679  25.835   7.967
 1017POPC   C4B15334  32.750  25.532   7.620
 1018POPC   NC315335   9.146  41.118   9.499
 1018POPC   PO415336   9.287  40.579   9.889
 1018POPC   GL115337   9.250  40.657   9.330
 1018POPC   GL215338   8.939  40.543   9.132
 1018POPC   C1A15339   9.185  40.879   8.876
 1018POPC   D2A15340   8.973  41.143   8.531
 1018POPC   C3A15341   9.034  41.006   8.092
 1018POPC   C4A15342   8.698  40.949   7.797
 1018POPC   C1B15343   8.760  40.648   8.683
 1018POPC   C2B15344   8.899  40.505   8.253
 1018POPC   C3B15345   8.881  40.451   7.786
 1018POPC   C4B15346   8.741  40.620   7.406
 1019POPC   NC315347  28.519  27.263   9.396
 1019POPC   PO415348  28.204  27.835   9.630
 1019POPC   GL115349  28.251  27.807   9.195
 1019POPC   GL215350  28.130  27.467   9.143
 1019POPC   C1A15351  28.441  27.624   8.786
 1019POPC   D2A15352  28.546  27.432   8.378
 1019POPC   C3A15353  28.429  27.614   7.958
 1019POPC   C4A15354  28.659  27.340   7.674
 1019POPC   C1B15355  27.949  27.769   8.807
 1019POPC   C2B15356  28.072  27.671   8.401
 1019POPC   C3B15357  28.029  27.930   8.057
 1019POPC   C4B15358  27.974  27.751   7.677
 1020POPC   NC315359  11.550  24.839   9.337
 1020POPC   PO415360  11.297  25.388   9.756
 1020POPC   GL115361  11.377  25.335   9.280
 1020POPC   GL215362  11.105  25.126   9.105
 1020POPC   C1A15363  11.443  25.359   8.816
 1020POPC   D2A15364  11.273  25.109   8.486
 1020POPC   C3A15365  11.508  25.042   8.112
 1020POPC   C4A15366  11.340  25.207   7.743
 1020POPC   C1B15367  10.862  24.946   8.759
 1020POPC   C2B15368  10.654  25.068   8.366
 1020POPC   C3B15369  10.868  25.149   7.982
 1020POPC   C4B15370  10.870  25.009   7.579
 1021POPC   NC315371  23.027   2.091   9.464
 1021POPC   PO415372  22.413   2.042   9.450
 1021POPC   GL115373  22.714   2.002   9.090
 1021POPC   GL215374  22.991   1.730   9.073
 1021POPC   C1A15375  22.902   2.127   8.706
 1021POPC   D2A15376  23.098   1.952   8.338
 1021POPC   C3A15377  23.015   1.970   7.892
 1021POPC   C4A15378  23.122   2.380   7.744
 1021POPC   C1B15379  22.677   1.544   8.781
 1021POPC   C2B15380  22.528   1.583   8.344
 1021POPC   C3B15381  22.449   1.500   7.898
 1021POPC   C4B15382  22.636   1.684   7.525
 1022POPC   NC315383   7.634   0.622   9.574
 1022POPC   PO415384   6.961   0.341   9.602
 1022POPC   GL115385   7.190   0.351   9.205
 1022POPC   GL215386   7.573   0.297   9.176
 1022POPC   C1A15387   7.247   0.219   8.780
 1022POPC   D2A15388   7.296   0.392   8.400
 1022POPC   C3A15389   7.391   0.123   8.047
 1022POPC   C4A15390   7.444   0.215   7.626
 1022POPC   C1B15391   7.687   0.496   8.753
 1022POPC   C2B15392   7.631   0.794   8.416
 1022POPC   C3B15393   7.558   0.634   8.034
 1022POPC   C4B15394   7.810   0.589   7.709
 1023POPC   NC315395   1.905   3.306   9.335
 1023POPC   PO415396   1.752   4.016   9.407
 1023POPC   GL115397   1.950   3.767   9.070
 1023POPC   GL215398   1.634   3.629   9.022
 1023POPC   C1A15399   2.238   3.771   8.679
 1023POPC   D2A15400   2.290   3.930   8.225
 1023POPC   C3A15401   2.289   3.620   7.870
 1023POPC   C4A15402   2.130   3.568   7.439
 1023POPC   C1B15403   1.825   3.392   8.682
 1023POPC   C2B15404   2.004   3.462   8.276
 1023POPC   C3B15405   1.788   3.488   7.857
 1023POPC   C4B15406   1.591   3.466   7.445
 1024POPC   NC315407   0.116   3.351   9.520
 1024POPC   PO415408   0.819   3.687   9.554
 1024POPC   GL115409   0.627   3.577   9.177
 1024POPC   GL215410   0.534   3.939   9.183
 1024POPC   C1A15411   0.760   3.345   8.775
 1024POPC   D2A15412   0.762   3.072   8.399
 1024POPC   C3A15413   0.474   3.197   8.091
 1024POPC   C4A15414   0.472   3.545   7.797
 1024POPC   C1B15415   0.346   3.803   8.788
 1024POPC   C2B15416   0.366   3.695   8.328
 1024POPC   C3B15417   0.315   3.991   7.996
 1024POPC   C4B15418   0.300   3.982   7.545
 1025POPC   NC315419  33.520  19.745   9.722
 1025POPC   PO415420  33.747  19.420   9.175
 1025POPC   GL115421  33.635  19.698   8.902
 1025POPC   GL215422  33.459  19.976   8.995
 1025POPC   C1A15423  33.811  19.645   8.521
 1025POPC   D2A15424  34.117  19.742   8.276
 1025POPC   C3A15425  33.969  19.669   7.937
 1025POPC   C4A15426  33.551  19.607   7.847
 1025POPC   C1B15427  33.657  20.165   8.681
 1025POPC   C2B15428  33.748  20.106   8.288
 1025POPC   C3B15429  33.670  20.085   7.886
 1025POPC   C4B15430  34.044  20.107   7.682
 1026POPC   NC315431  30.585  19.502   9.525
 1026POPC   PO415432  31.012  20.053   9.462
 1026POPC   GL115433  30.758  19.860   9.157
 1026POPC   GL215434  30.937  19.591   9.110
 1026POPC   C1A15435  30.797  19.879   8.690
 1026POPC   D2A15436  30.903  20.054   8.298
 1026POPC   C3A15437  31.057  19.783   7.952
 1026POPC   C4A15438  31.062  19.899   7.480
 1026POPC   C1B15439  30.735  19.392   8.803
 1026POPC   C2B15440  30.486  19.511   8.448
 1026POPC   C3B15441  30.621  19.410   8.027
 1026POPC   C4B15442  30.757  19.518   7.622
 1027POPC   NC315443  28.084  38.446   9.584
 1027POPC   PO415444  27.432  38.409   9.650
 1027POPC   GL115445  27.666  38.398   9.284
 1027POPC   GL215446  27.608  38.711   9.104
 1027POPC   C1A15447  27.585  38.163   8.908
 1027POPC   D2A15448  27.611  38.412   8.538
 1027POPC   C3A15449  27.379  38.422   8.175
 1027POPC   C4A15450  27.523  38.395   7.765
 1027POPC   C1B15451  27.803  38.852   8.735
 1027POPC   C2B15452  27.778  38.805   8.280
 1027POPC   C3B15453  27.863  38.763   7.881
 1027POPC   C4B15454  28.184  38.543   7.677
 1028POPC   NC315455  34.740  25.590   9.765
 1028POPC   PO415456  34.916  25.018   9.478
 1028POPC   GL115457  34.808  25.316   9.116
 1028POPC   GL215458  34.519  25.582   9.095
 1028POPC   C1A15459  34.788  25.516   8.667
 1028POPC   D2A15460  34.620  25.669   8.269
 1028POPC   C3A15461  34.860  25.465   7.960
 1028POPC   C4A15462  34.742  25.035   7.919
 1028POPC   C1B15463  34.398  25.204   8.831
 1028POPC   C2B15464  34.475  25.177   8.379
 1028POPC   C3B15465  34.322  25.281   7.966
 1028POPC   C4B15466  34.261  24.901   7.728
 1029POPC   NC315467   3.953  28.277   9.547
 1029POPC   PO415468   4.622  28.343   9.565
 1029POPC   GL115469   4.321  28.475   9.253
 1029POPC   GL215470   4.293  28.156   9.161
 1029POPC   C1A15471   4.310  28.607   8.799
 1029POPC   D2A15472   4.575  28.708   8.387
 1029POPC   C3A15473   4.338  28.722   7.970
 1029POPC   C4A15474   4.350  28.526   7.531
 1029POPC   C1B15475   4.166  28.119   8.741
 1029POPC   C2B15476   4.220  28.344   8.348
 1029POPC   C3B15477   4.234  28.212   7.918
 1029POPC   C4B15478   3.829  28.042   7.754
 1030POPC   NC315479  29.913   0.131   9.476
 1030POPC   PO415480  29.574   0.717   9.324
 1030POPC   GL115481  29.784   0.421   9.079
 1030POPC   GL215482  29.479   0.239   9.098
 1030POPC   C1A15483  29.920   0.280   8.646
 1030POPC   D2A15484  29.879   0.521   8.273
 1030POPC   C3A15485  30.038   0.413   7.857
 1030POPC   C4A15486  29.971   0.751   7.530
 1030POPC   C1B15487  29.455   0.468   8.693
 1030POPC   C2B15488  29.417   0.297   8.297
 1030POPC   C3B15489  29.526   0.344   7.890
 1030POPC   C4B15490  29.687   0.326   7.478
 1031POPC   NC315491  13.733  22.173   9.541
 1031POPC   PO415492  14.017  22.652   9.224
 1031POPC   GL115493  13.648  22.368   9.018
 1031POPC   GL215494  13.654  21.994   9.074
 1031POPC   C1A15495  13.450  22.143   8.639
 1031POPC   D2A15496  13.142  21.884   8.398
 1031POPC   C3A15497  13.191  22.094   8.032
 1031POPC   C4A15498  13.284  22.391   7.700
 1031POPC   C1B15499  13.974  21.780   8.800
 1031POPC   C2B15500  13.950  21.818   8.370
 1031POPC   C3B15501  13.625  21.867   8.148
 1031POPC   C4B15502  13.593  21.995   7.723
 1032POPC   NC315503   3.676  27.322   9.649
 1032POPC   PO415504   3.934  26.715   9.494
 1032POPC   GL115505   3.751  26.747   9.085
 1032POPC   GL215506   3.501  27.008   9.032
 1032POPC   C1A15507   3.594  26.666   8.670
 1032POPC   D2A15508   3.460  26.714   8.243
 1032POPC   C3A15509   3.274  26.374   7.981
 1032POPC   C4A15510   3.528  26.572   7.693
 1032POPC   C1B15511   3.401  27.227   8.649
 1032POPC   C2B15512   3.539  27.231   8.211
 1032POPC   C3B15513   3.524  27.057   7.796
 1032POPC   C4B15514   3.295  26.891   7.388
 1033POPC   NC315515  27.995  22.264   9.360
 1033POPC   PO415516  27.316  22.058   9.503
 1033POPC   GL115517  27.308  22.177   9.074
 1033POPC   GL215518  27.676  22.139   8.981
 1033POPC   C1A15519  27.302  22.276   8.628
 1033POPC   D2A15520  27.637  22.254   8.343
 1033POPC   C3A15521  27.546  22.316   7.918
 1033POPC   C4A15522  27.326  21.962   7.814
 1033POPC   C1B15523  27.928  21.805   8.766
 1033POPC   C2B15524  27.832  21.776   8.359
 1033POPC   C3B15525  27.851  21.902   7.979
 1033POPC   C4B15526  27.804  21.984   7.577
 1034POPC   NC315527   3.369  35.675   9.366
 1034POPC   PO415528   3.699  35.130   9.613
 1034POPC   GL115529   3.465  35.152   9.178
 1034POPC   GL215530   3.249  34.898   9.083
 1034POPC   C1A15531   3.490  35.106   8.675
 1034POPC   D2A15532   3.502  35.473   8.377
 1034POPC   C3A15533   3.868  35.480   8.101
 1034POPC   C4A15534   3.701  35.378   7.705
 1034POPC   C1B15535   3.031  35.223   8.835
 1034POPC   C2B15536   3.060  35.112   8.391
 1034POPC   C3B15537   3.236  35.137   7.951
 1034POPC   C4B15538   3.185  35.457   7.602
 1035POPC   NC315539  30.507   4.529   9.549
 1035POPC   PO415540  30.515   3.868   9.475
 1035POPC   GL115541  30.466   4.204   9.145
 1035POPC   GL215542  30.695   4.513   9.072
 1035POPC   C1A15543  30.524   4.159   8.711
 1035POPC   D2A15544  30.874   4.346   8.494
 1035POPC   C3A15545  30.948   4.157   8.110
 1035POPC   C4A15546  30.723   4.076   7.730
 1035POPC   C1B15547  30.385   4.637   8.729
 1035POPC   C2B15548  30.349   4.462   8.292
 1035POPC   C3B15549  30.664   4.558   7.998
 1035POPC   C4B15550  30.813   4.966   7.913
 1036POPC   NC315551   5.413  12.577   9.765
 1036POPC   PO415552   5.106  13.104   9.395
 1036POPC   GL115553   5.274  13.098   8.988
 1036POPC   GL215554   4.984  12.839   8.982
 1036POPC   C1A15555   5.204  13.012   8.549
 1036POPC   D2A15556   4.863  12.773   8.337
 1036POPC   C3A15557   4.914  12.927   7.934
 1036POPC   C4A15558   5.353  12.933   7.895
 1036POPC   C1B15559   5.114  12.542   8.719
 1036POPC   C2B15560   5.350  12.535   8.370
 1036POPC   C3B15561   5.209  12.456   7.982
 1036POPC   C4B15562   5.444  12.496   7.622
 1037POPC   NC315563  35.693  22.372   9.450
 1037POPC   PO415564  35.142  21.966   9.452
 1037POPC   GL115565  35.370  22.126   9.108
 1037POPC   GL215566  35.304  22.481   9.139
 1037POPC   C1A15567  35.211  22.133   8.695
 1037POPC   D2A15568  35.147  21.789   8.414
 1037POPC   C3A15569  35.216  21.949   7.993
 1037POPC   C4A15570  35.577  21.910   7.746
 1037POPC   C1B15571  35.571  22.503   8.772
 1037POPC   C2B15572  35.626  22.264   8.382
 1037POPC   C3B15573  35.541  22.396   7.958
 1037POPC   C4B15574  35.179  22.537   7.723
 1038POPC   NC315575  37.866  14.952   9.648
 1038POPC   PO415576  37.559  15.521   9.524
 1038POPC   GL115577  37.518  15.148   9.284
 1038POPC   GL215578  37.442  15.367   9.059
 1038POPC   C1A15579  37.619  14.988   8.815
 1038POPC   D2A15580  37.855  15.103   8.432
 1038POPC   C3A15581  37.655  15.015   8.027
 1038POPC   C4A15582  37.766  14.724   7.679
 1038POPC   C1B15583  37.780  15.486   8.804
 1038POPC   C2B15584  37.960  15.606   8.423
 1038POPC   C3B15585  38.038  15.469   8.033
 1038POPC   C4B15586  37.752  15.407   7.700
 1039POPC   NC315587  26.304  32.239   9.527
 1039POPC   PO415588  25.730  31.930   9.582
 1039POPC   GL115589  25.933  32.075   9.181
 1039POPC   GL215590  26.044  32.453   9.154
 1039POPC   C1A15591  26.045  31.977   8.740
 1039POPC   D2A15592  26.322  32.047   8.384
 1039POPC   C3A15593  26.148  32.272   8.046
 1039POPC   C4A15594  26.318  32.626   7.784
 1039POPC   C1B15595  25.661  32.425   8.933
 1039POPC   C2B15596  25.675  32.432   8.524
 1039POPC   C3B15597  25.565  32.467   8.128
 1039POPC   C4B15598  25.797  32.479   7.743
 1040POPC   NC315599  32.575  13.006   9.251
 1040POPC   PO415600  33.193  13.024   9.617
 1040POPC   GL115601  33.201  12.998   9.170
 1040POPC   GL215602  32.985  12.725   9.111
 1040POPC   C1A15603  33.016  13.085   8.733
 1040POPC   D2A15604  32.711  13.066   8.399
 1040POPC   C3A15605  32.940  12.997   8.028
 1040POPC   C4A15606  32.862  12.874   7.639
 1040POPC   C1B15607  32.827  12.585   8.739
 1040POPC   C2B15608  33.013  12.630   8.366
 1040POPC   C3B15609  32.962  12.474   7.946
 1040POPC   C4B15610  33.199  12.504   7.545
 1041POPC   NC315611  35.124  30.924   9.379
 1041POPC   PO415612  35.587  30.508   9.640
 1041POPC   GL115613  35.331  30.471   9.234
 1041POPC   GL215614  35.606  30.612   9.138
 1041POPC   C1A15615  35.259  30.717   8.791
 1041POPC   D2A15616  35.435  30.635   8.406
 1041POPC   C3A15617  35.320  30.768   8.029
 1041POPC   C4A15618  35.384  30.693   7.630
 1041POPC   C1B15619  35.723  30.424   8.786
 1041POPC   C2B15620  35.925  30.430   8.398
 1041POPC   C3B15621  35.721  30.406   8.029
 1041POPC   C4B15622  35.816  30.430   7.617
 1042POPC   NC315623  21.894  34.489   9.666
 1042POPC   PO415624  22.489  34.222   9.406
 1042POPC   GL115625  22.110  34.382   9.199
 1042POPC   GL215626  22.160  34.724   9.134
 1042POPC   C1A15627  21.966  34.423   8.757
 1042POPC   D2A15628  22.164  34.419   8.344
 1042POPC   C3A15629  22.012  34.562   7.946
 1042POPC   C4A15630  21.759  34.448   7.553
 1042POPC   C1B15631  22.435  34.928   8.833
 1042POPC   C2B15632  22.335  34.897   8.412
 1042POPC   C3B15633  22.467  34.989   8.024
 1042POPC   C4B15634  22.300  34.887   7.669
 1043POPC   NC315635  41.552  31.764   9.507
 1043POPC   PO415636  41.865  31.169   9.464
 1043POPC   GL115637  41.636  31.433   9.116
 1043POPC   GL215638  41.285  31.614   9.102
 1043POPC   C1A15639  41.553  31.395   8.656
 1043POPC   D2A15640  41.341  31.205   8.303
 1043POPC   C3A15641  41.511  31.188   7.867
 1043POPC   C4A15642  41.717  31.484   7.559
 1043POPC   C1B15643  41.459  31.891   8.795
 1043POPC   C2B15644  41.567  31.944   8.370
 1043POPC   C3B15645  41.483  31.666   8.038
 1043POPC   C4B15646  41.235  31.596   7.681
 1044POPC   NC315647  26.678  10.106   9.493
 1044POPC   PO415648  26.766  10.753   9.384
 1044POPC   GL115649  26.628  10.429   9.068
 1044POPC   GL215650  26.938  10.224   9.039
 1044POPC   C1A15651  26.649  10.303   8.606
 1044POPC   D2A15652  26.352  10.188   8.283
 1044POPC   C3A15653  26.524  10.470   8.009
 1044POPC   C4A15654  26.868  10.446   7.755
 1044POPC   C1B15655  27.002  10.633   8.782
 1044POPC   C2B15656  26.966  10.673   8.334
 1044POPC   C3B15657  27.197  10.768   7.983
 1044POPC   C4B15658  27.208  10.965   7.609
 1045POPC   NC315659  18.720  32.426   9.565
 1045POPC   PO415660  19.276  32.009   9.578
 1045POPC   GL115661  19.022  32.158   9.202
 1045POPC   GL215662  18.897  32.494   9.097
 1045POPC   C1A15663  19.134  32.203   8.755
 1045POPC   D2A15664  19.415  32.053   8.453
 1045POPC   C3A15665  19.141  32.054   8.120
 1045POPC   C4A15666  19.130  32.207   7.740
 1045POPC   C1B15667  18.668  32.402   8.746
 1045POPC   C2B15668  18.690  32.216   8.374
 1045POPC   C3B15669  18.723  32.395   7.982
 1045POPC   C4B15670  18.644  32.346   7.545
 1046POPC   NC315671  42.123   0.053   9.504
 1046POPC   PO415672  42.548   0.597   9.381
 1046POPC   GL115673  42.353   0.300   9.126
 1046POPC   GL215674  41.992   0.417   9.159
 1046POPC   C1A15675  42.501   0.192   8.724
 1046POPC   D2A15676  42.475   0.470   8.385
 1046POPC   C3A15677  42.663   0.304   8.043
 1046POPC   C4A15678  42.480   0.167   7.683
 1046POPC   C1B15679  42.070   0.488   8.742
 1046POPC   C2B15680  42.032   0.212   8.420
 1046POPC   C3B15681  42.094   0.360   8.003
 1046POPC   C4B15682  41.950   0.122   7.686
 1047POPC   NC315683  17.313  34.147   9.457
 1047POPC   PO415684  17.883  34.523   9.559
 1047POPC   GL115685  17.573  34.625   9.237
 1047POPC   GL215686  17.199  34.567   9.202
 1047POPC   C1A15687  17.554  34.530   8.805
 1047POPC   D2A15688  17.819  34.363   8.430
 1047POPC   C3A15689  17.673  34.466   7.993
 1047POPC   C4A15690  17.681  34.506   7.521
 1047POPC   C1B15691  17.028  34.446   8.803
 1047POPC   C2B15692  17.029  34.626   8.408
 1047POPC   C3B15693  17.145  34.561   7.985
 1047POPC   C4B15694  17.298  34.789   7.643
 1048POPC   NC315695   2.065  41.278   9.685
 1048POPC   PO415696   1.556  41.624   9.485
 1048POPC   GL115697   1.819  41.466   9.164
 1048POPC   GL215698   2.140  41.285   9.188
 1048POPC   C1A15699   2.018  41.591   8.771
 1048POPC   D2A15700   2.240  41.618   8.371
 1048POPC   C3A15701   1.967  41.737   8.043
 1048POPC   C4A15702   1.876  41.564   7.662
 1048POPC   C1B15703   2.314  41.183   8.792
 1048POPC   C2B15704   2.217  41.103   8.355
 1048POPC   C3B15705   2.268  41.260   7.946
 1048POPC   C4B15706   2.467  41.620   7.788
 1049POPC   NC315707  35.876  32.987   9.343
 1049POPC   PO415708  36.491  33.371   9.390
 1049POPC   GL115709  36.236  33.205   9.078
 1049POPC   GL215710  36.317  32.854   9.083
 1049POPC   C1A15711  36.040  33.374   8.697
 1049POPC   D2A15712  35.697  33.356   8.377
 1049POPC   C3A15713  35.950  33.320   7.984
 1049POPC   C4A15714  36.329  33.048   7.960
 1049POPC   C1B15715  36.015  32.840   8.743
 1049POPC   C2B15716  35.961  32.919   8.334
 1049POPC   C3B15717  35.827  32.841   7.947
 1049POPC   C4B15718  36.029  32.907   7.551
 1050POPC   NC315719  29.068  11.106   9.641
 1050POPC   PO415720  29.456  11.619   9.455
 1050POPC   GL115721  29.213  11.340   9.195
 1050POPC   GL215722  29.073  10.986   9.156
 1050POPC   C1A15723  29.393  11.245   8.809
 1050POPC   D2A15724  29.330  11.542   8.481
 1050POPC   C3A15725  29.278  11.291   8.122
 1050POPC   C4A15726  29.249  11.428   7.735
 1050POPC   C1B15727  28.841  11.188   8.819
 1050POPC   C2B15728  28.651  10.979   8.457
 1050POPC   C3B15729  28.796  10.888   8.051
 1050POPC   C4B15730  28.772  11.218   7.784
 1051POPC   NC315731  36.952   7.174   9.570
 1051POPC   PO415732  36.648   7.726   9.194
 1051POPC   GL115733  36.807   7.327   9.084
 1051POPC   GL215734  37.215   7.252   9.122
 1051POPC   C1A15735  36.989   7.384   8.680
 1051POPC   D2A15736  37.141   7.586   8.324
 1051POPC   C3A15737  36.828   7.611   7.970
 1051POPC   C4A15738  36.765   7.299   7.623
 1051POPC   C1B15739  37.320   7.006   8.745
 1051POPC   C2B15740  37.199   7.062   8.313
 1051POPC   C3B15741  37.207   7.269   7.917
 1051POPC   C4B15742  37.210   7.083   7.540
 1052POPC   NC315743   3.409  20.297   9.260
 1052POPC   PO415744   3.861  20.796   9.470
 1052POPC   GL115745   3.799  20.684   9.026
 1052POPC   GL215746   3.462  20.605   8.868
 1052POPC   C1A15747   3.864  20.669   8.573
 1052POPC   D2A15748   3.516  20.436   8.366
 1052POPC   C3A15749   3.509  20.572   7.969
 1052POPC   C4A15750   3.814  20.805   7.749
 1052POPC   C1B15751   3.765  20.227   8.767
 1052POPC   C2B15752   3.997  20.162   8.427
 1052POPC   C3B15753   3.800  20.132   8.072
 1052POPC   C4B15754   3.802  20.267   7.685
 1053POPC   NC315755  11.779   6.482   9.490
 1053POPC   PO415756  12.354   6.721   9.659
 1053POPC   GL115757  12.250   6.844   9.205
 1053POPC   GL215758  11.902   6.810   9.102
 1053POPC   C1A15759  12.229   6.879   8.711
 1053POPC   D2A15760  12.108   7.022   8.256
 1053POPC   C3A15761  12.336   6.854   7.876
 1053POPC   C4A15762  12.502   6.589   7.517
 1053POPC   C1B15763  11.711   6.689   8.688
 1053POPC   C2B15764  11.787   6.549   8.254
 1053POPC   C3B15765  11.951   6.336   7.860
 1053POPC   C4B15766  11.900   6.180   7.416
 1054POPC   NC315767  37.198  29.284   9.271
 1054POPC   PO415768  37.473  28.869   9.768
 1054POPC   GL115769  37.607  28.937   9.273
 1054POPC   GL215770  37.669  29.263   9.058
 1054POPC   C1A15771  37.663  28.837   8.798
 1054POPC   D2A15772  37.405  28.914   8.411
 1054POPC   C3A15773  37.602  28.891   7.992
 1054POPC   C4A15774  37.509  29.170   7.641
 1054POPC   C1B15775  37.408  29.479   8.698
 1054POPC   C2B15776  37.464  29.633   8.268
 1054POPC   C3B15777  37.786  29.378   8.053
 1054POPC   C4B15778  38.019  29.204   7.710
 1055POPC   NC315779  14.165  28.852   9.395
 1055POPC   PO415780  14.293  28.223   9.512
 1055POPC   GL115781  14.244  28.415   9.119
 1055POPC   GL215782  14.294  28.115   8.932
 1055POPC   C1A15783  14.123  28.682   8.761
 1055POPC   D2A15784  14.117  28.910   8.361
 1055POPC   C3A15785  14.161  28.679   7.994
 1055POPC   C4A15786  13.914  28.586   7.630
 1055POPC   C1B15787  14.566  28.405   8.712
 1055POPC   C2B15788  14.701  28.584   8.341
 1055POPC   C3B15789  14.604  28.378   7.976
 1055POPC   C4B15790  14.220  28.194   7.829
 1056POPC   NC315791  13.137  41.779   9.367
 1056POPC   PO415792  12.517  41.483   9.395
 1056POPC   GL115793  12.728  41.693   9.051
 1056POPC   GL215794  12.959  41.414   9.041
 1056POPC   C1A15795  12.916  41.769   8.626
 1056POPC   D2A15796  13.012  41.557   8.222
 1056POPC   C3A15797  12.660  41.491   7.927
 1056POPC   C4A15798  12.252  41.320   8.009
 1056POPC   C1B15799  13.058  41.241   8.644
 1056POPC   C2B15800  13.063  41.037   8.233
 1056POPC   C3B15801  13.088  41.226   7.833
 1056POPC   C4B15802  13.214  41.660   7.729
 1057POPC   NC315803  14.914  27.029   9.521
 1057POPC   PO415804  15.433  26.668   9.647
 1057POPC   GL115805  15.174  26.678   9.245
 1057POPC   GL215806  14.931  26.878   9.052
 1057POPC   C1A15807  15.223  26.554   8.819
 1057POPC   D2A15808  15.380  26.712   8.424
 1057POPC   C3A15809  15.158  26.674   8.043
 1057POPC   C4A15810  15.208  26.761   7.628
 1057POPC   C1B15811  14.858  27.072   8.673
 1057POPC   C2B15812  14.758  26.973   8.246
 1057POPC   C3B15813  14.755  26.897   7.802
 1057POPC   C4B15814  14.966  27.188   7.484
 1058POPC   NC315815  22.657  42.953   9.677
 1058POPC   PO415816  23.095  43.464   9.660
 1058POPC   GL115817  22.854  43.126   9.265
 1058POPC   GL215818  22.944  42.768   9.210
 1058POPC   C1A15819  22.715  43.083   8.827
 1058POPC   D2A15820  22.884  43.008   8.413
 1058POPC   C3A15821  22.978  43.341   8.117
 1058POPC   C4A15822  22.848  43.216   7.717
 1058POPC   C1B15823  23.196  42.818   8.812
 1058POPC   C2B15824  23.267  42.652   8.387
 1058POPC   C3B15825  23.183  42.864   7.976
 1058POPC   C4B15826  23.372  43.262   7.765
 1059POPC   NC315827  39.234  17.386   9.575
 1059POPC   PO415828  39.632  17.928   9.444
 1059POPC   GL115829  39.458  17.568   9.159
 1059POPC   GL215830  39.106  17.435   9.104
 1059POPC   C1A15831  39.427  17.576   8.733
 1059POPC   D2A15832  39.331  17.868   8.471
 1059POPC   C3A15833  39.445  17.767   8.083
 1059POPC   C4A15834  39.256  17.592   7.785
 1059POPC   C1B15835  38.947  17.394   8.701
 1059POPC   C2B15836  39.123  17.404   8.308
 1059POPC   C3B15837  39.100  17.140   7.968
 1059POPC   C4B15838  38.958  17.234   7.575
 1060POPC   NC315839   6.481  28.752   9.516
 1060POPC   PO415840   6.790  28.125   9.539
 1060POPC   GL115841   6.743  28.130   9.129
 1060POPC   GL215842   6.670  28.494   9.116
 1060POPC   C1A15843   6.848  28.167   8.721
 1060POPC   D2A15844   7.013  28.424   8.398
 1060POPC   C3A15845   6.887  28.163   8.058
 1060POPC   C4A15846   6.750  28.331   7.683
 1060POPC   C1B15847   6.409  28.478   8.760
 1060POPC   C2B15848   6.497  28.358   8.400
 1060POPC   C3B15849   6.564  28.562   8.086
 1060POPC   C4B15850   6.321  28.572   7.751
 1061POPC   NC315851   8.530  15.014   9.482
 1061POPC   PO415852   8.075  15.511   9.502
 1061POPC   GL115853   8.093  15.183   9.186
 1061POPC   GL215854   7.778  15.009   9.100
 1061POPC   C1A15855   8.151  15.165   8.735
 1061POPC   D2A15856   8.339  15.045   8.339
 1061POPC   C3A15857   8.213  15.281   8.001
 1061POPC   C4A15858   7.984  15.340   7.599
 1061POPC   C1B15859   7.826  14.745   8.712
 1061POPC   C2B15860   7.967  14.691   8.271
 1061POPC   C3B15861   7.878  14.908   7.853
 1061POPC   C4B15862   7.836  14.912   7.351
 1062POPC   NC315863  38.574  30.415   9.552
 1062POPC   PO415864  38.112  30.853   9.596
 1062POPC   GL115865  38.379  30.778   9.250
 1062POPC   GL215866  38.536  31.067   9.250
 1062POPC   C1A15867  38.611  30.693   8.879
 1062POPC   D2A15868  38.522  30.717   8.434
 1062POPC   C3A15869  38.369  30.474   8.089
 1062POPC   C4A15870  38.191  30.584   7.673
 1062POPC   C1B15871  38.484  31.174   8.809
 1062POPC   C2B15872  38.620  31.211   8.382
 1062POPC   C3B15873  38.445  31.008   8.010
 1062POPC   C4B15874  38.527  30.979   7.582
 1063POPC   NC315875  35.527   0.953   9.515
 1063POPC   PO415876  35.144   1.376   9.333
 1063POPC   GL115877  35.450   1.235   9.062
 1063POPC   GL215878  35.321   0.906   9.061
 1063POPC   C1A15879  35.547   1.396   8.642
 1063POPC   D2A15880  35.633   1.388   8.205
 1063POPC   C3A15881  35.413   1.334   7.805
 1063POPC   C4A15882  35.517   1.506   7.407
 1063POPC   C1B15883  35.130   1.101   8.685
 1063POPC   C2B15884  35.135   1.328   8.289
 1063POPC   C3B15885  34.927   1.204   7.910
 1063POPC   C4B15886  34.702   1.080   7.550
 1064POPC   NC315887  14.222  10.140   9.524
 1064POPC   PO415888  14.635  10.755   9.500
 1064POPC   GL115889  14.565  10.678   9.101
 1064POPC   GL215890  14.319  10.421   9.114
 1064POPC   C1A15891  14.307  10.791   8.744
 1064POPC   D2A15892  14.146  10.676   8.382
 1064POPC   C3A15893  14.435  10.834   8.140
 1064POPC   C4A15894  14.625  10.693   7.803
 1064POPC   C1B15895  14.545  10.336   8.744
 1064POPC   C2B15896  14.664  10.434   8.372
 1064POPC   C3B15897  14.463  10.271   8.057
 1064POPC   C4B15898  14.498  10.062   7.699
 1065POPC   NC315899  38.425  16.114   9.705
 1065POPC   PO415900  38.557  15.473   9.559
 1065POPC   GL115901  38.482  15.690   9.132
 1065POPC   GL215902  38.402  16.038   9.140
 1065POPC   C1A15903  38.690  15.871   8.756
 1065POPC   D2A15904  38.918  15.835   8.407
 1065POPC   C3A15905  38.800  15.970   8.012
 1065POPC   C4A15906  38.692  15.864   7.622
 1065POPC   C1B15907  38.191  15.915   8.755
 1065POPC   C2B15908  38.386  15.932   8.334
 1065POPC   C3B15909  38.261  16.011   7.927
 1065POPC   C4B15910  38.060  16.434   7.852
 1066POPC   NC315911   5.543  27.340   9.432
 1066POPC   PO415912   5.976  27.861   9.481
 1066POPC   GL115913   6.034  27.685   9.119
 1066POPC   GL215914   6.345  27.488   9.088
 1066POPC   C1A15915   5.720  27.640   8.808
 1066POPC   D2A15916   5.615  27.793   8.425
 1066POPC   C3A15917   5.576  27.563   8.055
 1066POPC   C4A15918   5.593  27.575   7.598
 1066POPC   C1B15919   6.191  27.534   8.656
 1066POPC   C2B15920   6.068  27.567   8.253
 1066POPC   C3B15921   6.031  27.702   7.857
 1066POPC   C4B15922   6.269  27.514   7.594
 1067POPC   NC315923  30.345  33.615   9.473
 1067POPC   PO415924  30.817  33.986   9.328
 1067POPC   GL115925  30.534  33.885   9.035
 1067POPC   GL215926  30.538  33.513   8.982
 1067POPC   C1A15927  30.613  33.970   8.616
 1067POPC   D2A15928  30.450  33.986   8.224
 1067POPC   C3A15929  30.528  34.006   7.787
 1067POPC   C4A15930  30.859  33.885   7.573
 1067POPC   C1B15931  30.960  33.630   8.798
 1067POPC   C2B15932  31.013  33.743   8.364
 1067POPC   C3B15933  30.774  33.599   8.011
 1067POPC   C4B15934  30.994  33.323   7.710
 1068POPC   NC315935  37.012  24.282   9.478
 1068POPC   PO415936  36.610  24.823   9.375
 1068POPC   GL115937  36.863  24.553   9.080
 1068POPC   GL215938  36.825  24.147   9.043
 1068POPC   C1A15939  36.911  24.685   8.682
 1068POPC   D2A15940  37.038  24.807   8.306
 1068POPC   C3A15941  36.796  24.725   7.984
 1068POPC   C4A15942  36.874  24.666   7.581
 1068POPC   C1B15943  36.828  24.175   8.634
 1068POPC   C2B15944  36.974  24.262   8.215
 1068POPC   C3B15945  36.752  24.208   7.823
 1068POPC   C4B15946  36.577  23.941   7.488
 1069POPC   NC315947  43.104   9.312   9.429
 1069POPC   PO415948  43.357   9.996   9.507
 1069POPC   GL115949  43.373   9.819   9.112
 1069POPC   GL215950  43.291   9.475   8.979
 1069POPC   C1A15951  43.531   9.868   8.707
 1069POPC   D2A15952  43.313   9.679   8.359
 1069POPC   C3A15953  43.218   9.978   8.029
 1069POPC   C4A15954  43.229   9.953   7.574
 1069POPC   C1B15955  42.940   9.521   8.717
 1069POPC   C2B15956  42.893   9.311   8.335
 1069POPC   C3B15957  43.045   9.486   7.944
 1069POPC   C4B15958  42.939   9.511   7.495
 1070POPC   NC315959   6.159  22.616   9.544
 1070POPC   PO415960   5.615  22.923   9.555
 1070POPC   GL115961   5.849  22.980   9.171
 1070POPC   GL215962   5.890  22.693   9.122
 1070POPC   C1A15963   5.955  23.070   8.722
 1070POPC   D2A15964   5.700  22.949   8.349
 1070POPC   C3A15965   5.865  23.111   7.963
 1070POPC   C4A15966   6.139  23.474   7.896
 1070POPC   C1B15967   6.128  22.598   8.788
 1070POPC   C2B15968   6.126  22.661   8.354
 1070POPC   C3B15969   5.781  22.531   8.057
 1070POPC   C4B15970   5.747  22.709   7.664
 1071POPC   NC315971   6.477  18.547   9.917
 1071POPC   PO415972   7.031  18.373   9.567
 1071POPC   GL115973   6.772  18.325   9.187
 1071POPC   GL215974   6.595  17.997   9.117
 1071POPC   C1A15975   6.826  18.425   8.755
 1071POPC   D2A15976   6.583  18.540   8.398
 1071POPC   C3A15977   6.702  18.429   8.004
 1071POPC   C4A15978   6.470  18.435   7.630
 1071POPC   C1B15979   6.465  18.089   8.674
 1071POPC   C2B15980   6.269  18.167   8.248
 1071POPC   C3B15981   6.395  17.988   7.861
 1071POPC   C4B15982   6.202  18.041   7.443
 1072POPC   NC315983  42.706  12.162   9.484
 1072POPC   PO415984  42.118  11.806   9.489
 1072POPC   GL115985  42.353  11.966   9.141
 1072POPC   GL215986  42.324  12.324   9.139
 1072POPC   C1A15987  42.321  12.015   8.700
 1072POPC   D2A15988  41.980  11.894   8.406
 1072POPC   C3A15989  42.132  11.946   7.972
 1072POPC   C4A15990  42.449  11.955   7.660
 1072POPC   C1B15991  42.013  12.398   8.769
 1072POPC   C2B15992  42.181  12.376   8.318
 1072POPC   C3B15993  42.144  12.482   7.866
 1072POPC   C4B15994  42.065  12.245   7.482
 1073POPC   NC315995  44.848  29.392   9.462
 1073POPC   PO415996  44.335  29.925   9.573
 1073POPC   GL115997  44.645  30.029   9.211
 1073POPC   GL215998  44.705  29.692   9.086
 1073POPC   C1A15999  44.837  30.052   8.764
 1073POPC   D2A16000  44.939  29.965   8.308
 1073POPC   C3A16001  44.964  29.727   7.949
 1073POPC   C4A16002  44.723  29.926   7.630
 1073POPC   C1B16003  44.712  29.399   8.736
 1073POPC   C2B16004  44.679  29.484   8.292
 1073POPC   C3B16005  44.478  29.565   7.900
 1073POPC   C4B16006  44.348  29.451   7.483
 1074POPC   NC316007  25.389  30.764   9.574
 1074POPC   PO416008  24.867  31.071   9.247
 1074POPC   GL116009  25.155  30.768   9.093
 1074POPC   GL216010  25.524  30.796   9.109
 1074POPC   C1A16011  25.197  30.852   8.651
 1074POPC   D2A16012  25.107  30.565   8.337
 1074POPC   C3A16013  24.909  30.810   8.052
 1074POPC   C4A16014  25.002  30.997   7.675
 1074POPC   C1B16015  25.538  30.537   8.822
 1074POPC   C2B16016  25.622  30.603   8.457
 1074POPC   C3B16017  25.558  30.463   8.101
 1074POPC   C4B16018  25.306  30.576   7.765
 1075POPC   NC316019  42.047  10.738   9.373
 1075POPC   PO416020  42.422  10.197   9.634
 1075POPC   GL116021  42.362  10.356   9.217
 1075POPC   GL216022  42.023  10.267   9.195
 1075POPC   C1A16023  42.374  10.562   8.791
 1075POPC   D2A16024  42.384  10.338   8.405
 1075POPC   C3A16025  42.275  10.558   8.044
 1075POPC   C4A16026  42.524  10.509   7.685
 1075POPC   C1B16027  42.107  10.130   8.774
 1075POPC   C2B16028  41.878  10.290   8.375
 1075POPC   C3B16029  41.878  10.254   7.949
 1075POPC   C4B16030  42.057  10.260   7.550
 1076POPC   NC316031  14.467  32.204   9.752
 1076POPC   PO416032  14.097  31.878   9.268
 1076POPC   GL116033  14.418  32.131   9.131
 1076POPC   GL216034  14.437  32.455   9.258
 1076POPC   C1A16035  14.594  32.063   8.739
 1076POPC   D2A16036  14.464  32.144   8.363
 1076POPC   C3A16037  14.319  31.862   8.049
 1076POPC   C4A16038  14.541  31.943   7.661
 1076POPC   C1B16039  14.377  32.600   8.825
 1076POPC   C2B16040  14.177  32.600   8.422
 1076POPC   C3B16041  14.128  32.346   8.067
 1076POPC   C4B16042  14.353  32.411   7.750
 1077POPC   NC316043  23.059  34.119   9.310
 1077POPC   PO416044  22.941  33.483   9.564
 1077POPC   GL116045  22.862  33.619   9.130
 1077POPC   GL216046  22.651  33.879   9.072
 1077POPC   C1A16047  22.867  33.555   8.666
 1077POPC   D2A16048  23.127  33.760   8.385
 1077POPC   C3A16049  23.221  33.669   7.970
 1077POPC   C4A16050  23.122  33.886   7.621
 1077POPC   C1B16051  22.828  34.059   8.726
 1077POPC   C2B16052  22.637  33.992   8.392
 1077POPC   C3B16053  22.790  33.973   8.025
 1077POPC   C4B16054  22.638  34.041   7.667
 1078POPC   NC316055   6.228  29.207   9.534
 1078POPC   PO416056   6.907  28.861   9.668
 1078POPC   GL116057   6.843  28.990   9.217
 1078POPC   GL216058   6.552  29.202   9.153
 1078POPC   C1A16059   6.672  28.894   8.782
 1078POPC   D2A16060   6.412  28.940   8.405
 1078POPC   C3A16061   6.611  29.050   7.991
 1078POPC   C4A16062   6.566  28.975   7.564
 1078POPC   C1B16063   6.754  29.396   8.777
 1078POPC   C2B16064   6.703  29.428   8.319
 1078POPC   C3B16065   6.733  29.563   7.875
 1078POPC   C4B16066   6.646  29.539   7.432
 1079POPC   NC316067   1.325   1.226   9.474
 1079POPC   PO416068   0.833   1.674   9.341
 1079POPC   GL116069   0.926   1.464   8.998
 1079POPC   GL216070   1.039   1.124   9.025
 1079POPC   C1A16071   0.945   1.432   8.565
 1079POPC   D2A16072   0.832   1.211   8.206
 1079POPC   C3A16073   1.175   1.270   7.913
 1079POPC   C4A16074   1.604   1.416   7.819
 1079POPC   C1B16075   1.016   0.913   8.604
 1079POPC   C2B16076   1.142   0.805   8.159
 1079POPC   C3B16077   1.225   0.759   7.712
 1079POPC   C4B16078   1.323   0.692   7.275
 1080POPC   NC316079  42.855  43.747   9.864
 1080POPC   PO416080  43.157  44.177   9.456
 1080POPC   GL116081  42.960  43.915   9.178
 1080POPC   GL216082  42.834  44.196   9.027
 1080POPC   C1A16083  43.056  43.703   8.776
 1080POPC   D2A16084  43.252  43.577   8.389
 1080POPC   C3A16085  43.070  43.706   8.016
 1080POPC   C4A16086  42.981  43.736   7.575
 1080POPC   C1B16087  42.847  44.186   8.648
 1080POPC   C2B16088  43.115  44.090   8.370
 1080POPC   C3B16089  43.098  44.211   7.978
 1080POPC   C4B16090  42.817  44.219   7.637
 1081POPC   NC316091  32.680  22.188   9.804
 1081POPC   PO416092  33.223  22.362   9.348
 1081POPC   GL116093  33.068  22.160   9.020
 1081POPC   GL216094  32.743  22.309   9.053
 1081POPC   C1A16095  33.142  22.286   8.596
 1081POPC   D2A16096  33.359  22.371   8.230
 1081POPC   C3A16097  33.083  22.375   7.923
 1081POPC   C4A16098  33.051  21.939   7.833
 1081POPC   C1B16099  32.640  22.179   8.669
 1081POPC   C2B16100  32.707  22.307   8.273
 1081POPC   C3B16101  32.592  22.137   7.885
 1081POPC   C4B16102  32.690  22.416   7.585
 1082POPC   NC316103  37.236   9.499   9.451
 1082POPC   PO416104  36.797   9.938   9.363
 1082POPC   GL116105  36.622   9.784   9.005
 1082POPC   GL216106  36.759   9.431   9.053
 1082POPC   C1A16107  36.528   9.928   8.586
 1082POPC   D2A16108  36.828  10.041   8.274
 1082POPC   C3A16109  36.894   9.886   7.860
 1082POPC   C4A16110  37.296   9.839   7.623
 1082POPC   C1B16111  36.943   9.596   8.664
 1082POPC   C2B16112  37.150   9.631   8.259
 1082POPC   C3B16113  37.067   9.407   7.889
 1082POPC   C4B16114  36.877   9.505   7.507
 1083POPC   NC316115  10.366  43.778   9.376
 1083POPC   PO416116  10.888  44.211   9.601
 1083POPC   GL116117  10.723  44.064   9.162
 1083POPC   GL216118  10.610  43.747   8.935
 1083POPC   C1A16119  10.534  44.217   8.774
 1083POPC   D2A16120  10.734  44.166   8.351
 1083POPC   C3A16121  10.445  44.073   8.007
 1083POPC   C4A16122  10.271  44.256   7.647
 1083POPC   C1B16123  10.246  43.529   8.720
 1083POPC   C2B16124  10.178  43.409   8.272
 1083POPC   C3B16125  10.067  43.743   7.969
 1083POPC   C4B16126  10.187  43.765   7.536
 1084POPC   NC316127  11.935  35.510   9.533
 1084POPC   PO416128  11.688  34.928   9.639
 1084POPC   GL116129  11.842  35.082   9.211
 1084POPC   GL216130  12.169  35.215   9.191
 1084POPC   C1A16131  11.929  35.232   8.750
 1084POPC   D2A16132  11.682  35.223   8.364
 1084POPC   C3A16133  11.845  34.957   8.038
 1084POPC   C4A16134  12.080  35.201   7.759
 1084POPC   C1B16135  12.294  35.557   8.899
 1084POPC   C2B16136  12.430  35.520   8.447
 1084POPC   C3B16137  12.398  35.531   7.988
 1084POPC   C4B16138  12.546  35.399   7.565
 1085POPC   NC316139  14.806  41.093   9.377
 1085POPC   PO416140  15.350  40.658   9.435
 1085POPC   GL116141  15.363  40.436   9.069
 1085POPC   GL216142  15.004  40.424   9.061
 1085POPC   C1A16143  15.372  40.515   8.631
 1085POPC   D2A16144  15.424  40.770   8.292
 1085POPC   C3A16145  15.202  40.584   7.931
 1085POPC   C4A16146  15.190  40.773   7.515
 1085POPC   C1B16147  14.881  40.646   8.699
 1085POPC   C2B16148  14.901  40.839   8.278
 1085POPC   C3B16149  14.996  41.065   7.913
 1085POPC   C4B16150  14.957  41.224   7.500
 1086POPC   NC316151  24.125  44.292   9.481
 1086POPC   PO416152  24.582  43.754   9.313
 1086POPC   GL116153  24.358  43.973   9.031
 1086POPC   GL216154  24.153  43.670   8.954
 1086POPC   C1A16155  24.643  44.136   8.713
 1086POPC   D2A16156  24.844  43.986   8.338
 1086POPC   C3A16157  24.592  44.125   7.994
 1086POPC   C4A16158  24.545  44.046   7.565
 1086POPC   C1B16159  24.420  43.587   8.620
 1086POPC   C2B16160  24.232  43.542   8.226
 1086POPC   C3B16161  24.381  43.654   7.844
 1086POPC   C4B16162  24.193  43.664   7.432
 1087POPC   NC316163  23.975   4.762   9.416
 1087POPC   PO416164  23.527   5.180   9.504
 1087POPC   GL116165  23.407   5.012   9.098
 1087POPC   GL216166  23.595   4.736   9.074
 1087POPC   C1A16167  23.520   5.003   8.652
 1087POPC   D2A16168  23.668   5.041   8.259
 1087POPC   C3A16169  23.404   5.050   7.925
 1087POPC   C4A16170  23.518   5.178   7.499
 1087POPC   C1B16171  23.973   4.747   8.741
 1087POPC   C2B16172  24.074   4.726   8.255
 1087POPC   C3B16173  23.883   4.878   7.816
 1087POPC   C4B16174  23.859   4.789   7.347
 1088POPC   NC316175  38.017  40.536   9.443
 1088POPC   PO416176  37.282  40.565   9.465
 1088POPC   GL116177  37.540  40.651   9.122
 1088POPC   GL216178  37.667  40.323   9.092
 1088POPC   C1A16179  37.624  40.906   8.733
 1088POPC   D2A16180  37.811  41.090   8.335
 1088POPC   C3A16181  37.743  40.813   7.974
 1088POPC   C4A16182  37.960  40.450   7.845
 1088POPC   C1B16183  37.429  40.345   8.715
 1088POPC   C2B16184  37.571  40.422   8.297
 1088POPC   C3B16185  37.478  40.226   7.902
 1088POPC   C4B16186  37.559  40.418   7.509
 1089POPC   NC316187  43.506  26.985   9.814
 1089POPC   PO416188  43.037  26.527   9.620
 1089POPC   GL116189  42.828  26.760   9.250
 1089POPC   GL216190  43.099  26.959   9.139
 1089POPC   C1A16191  42.721  26.885   8.815
 1089POPC   D2A16192  42.811  26.752   8.385
 1089POPC   C3A16193  43.139  26.927   8.133
 1089POPC   C4A16194  42.959  26.803   7.790
 1089POPC   C1B16195  43.228  26.859   8.698
 1089POPC   C2B16196  43.286  26.524   8.389
 1089POPC   C3B16197  43.375  26.521   7.918
 1089POPC   C4B16198  43.415  26.927   7.618
 1090POPC   NC316199  15.629  42.683   9.973
 1090POPC   PO416200  15.591  42.938   9.338
 1090POPC   GL116201  15.766  42.890   8.930
 1090POPC   GL216202  15.748  43.247   8.944
 1090POPC   C1A16203  15.942  42.793   8.506
 1090POPC   D2A16204  16.090  43.122   8.262
 1090POPC   C3A16205  15.857  43.238   7.933
 1090POPC   C4A16206  16.167  43.262   7.628
 1090POPC   C1B16207  15.706  43.330   8.521
 1090POPC   C2B16208  15.917  43.638   8.235
 1090POPC   C3B16209  15.961  43.724   7.775
 1090POPC   C4B16210  15.773  43.529   7.409
 1091POPC   NC316211   9.288  38.866   9.442
 1091POPC   PO416212   8.693  38.450   9.522
 1091POPC   GL116213   8.951  38.554   9.190
 1091POPC   GL216214   9.259  38.386   9.126
 1091POPC   C1A16215   9.034  38.698   8.794
 1091POPC   D2A16216   8.806  38.620   8.429
 1091POPC   C3A16217   8.982  38.633   8.031
 1091POPC   C4A16218   8.799  38.733   7.654
 1091POPC   C1B16219   9.209  38.220   8.709
 1091POPC   C2B16220   9.038  38.192   8.266
 1091POPC   C3B16221   9.174  38.166   7.825
 1091POPC   C4B16222   9.287  38.135   7.323
 1092POPC   NC316223  27.155  10.980   9.332
 1092POPC   PO416224  26.872  11.580   9.474
 1092POPC   GL116225  26.853  11.339   9.121
 1092POPC   GL216226  27.200  11.429   9.053
 1092POPC   C1A16227  26.831  11.115   8.713
 1092POPC   D2A16228  27.104  11.220   8.362
 1092POPC   C3A16229  26.960  11.253   7.960
 1092POPC   C4A16230  26.732  10.930   7.826
 1092POPC   C1B16231  26.973  11.603   8.690
 1092POPC   C2B16232  26.789  11.632   8.266
 1092POPC   C3B16233  26.936  11.764   7.844
 1092POPC   C4B16234  26.999  11.516   7.445
 1093POPC   NC316235  38.569   1.832   9.411
 1093POPC   PO416236  39.023   2.336   9.237
 1093POPC   GL116237  38.749   2.067   8.990
 1093POPC   GL216238  38.390   2.145   9.026
 1093POPC   C1A16239  38.593   2.005   8.575
 1093POPC   D2A16240  38.563   2.298   8.248
 1093POPC   C3A16241  38.428   2.077   7.883
 1093POPC   C4A16242  38.645   1.724   7.693
 1093POPC   C1B16243  38.090   1.970   8.724
 1093POPC   C2B16244  38.154   1.782   8.303
 1093POPC   C3B16245  38.002   1.807   7.878
 1093POPC   C4B16246  38.215   1.882   7.441
 1094POPC   NC316247  38.579   4.849   9.487
 1094POPC   PO416248  38.644   4.163   9.493
 1094POPC   GL116249  38.393   4.299   9.172
 1094POPC   GL216250  38.129   4.532   9.230
 1094POPC   C1A16251  38.487   4.237   8.754
 1094POPC   D2A16252  38.695   4.262   8.367
 1094POPC   C3A16253  38.464   4.153   8.006
 1094POPC   C4A16254  38.510   4.152   7.588
 1094POPC   C1B16255  38.295   4.697   8.862
 1094POPC   C2B16256  38.196   4.574   8.449
 1094POPC   C3B16257  38.444   4.653   8.121
 1094POPC   C4B16258  38.375   4.604   7.763
 1095POPC   NC316259  42.198  25.659   9.547
 1095POPC   PO416260  42.558  25.073   9.669
 1095POPC   GL116261  42.472  25.193   9.199
 1095POPC   GL216262  42.519  25.555   9.171
 1095POPC   C1A16263  42.239  25.062   8.772
 1095POPC   D2A16264  42.269  24.859   8.333
 1095POPC   C3A16265  42.140  24.931   7.862
 1095POPC   C4A16266  42.090  25.316   7.589
 1095POPC   C1B16267  42.476  25.523   8.769
 1095POPC   C2B16268  42.562  25.308   8.451
 1095POPC   C3B16269  42.417  25.324   8.057
 1095POPC   C4B16270  42.595  25.206   7.688
 1096POPC   NC316271  23.355  11.130   9.325
 1096POPC   PO416272  23.819  11.194   9.745
 1096POPC   GL116273  23.844  11.260   9.241
 1096POPC   GL216274  23.871  11.576   9.065
 1096POPC   C1A16275  23.784  11.136   8.792
 1096POPC   D2A16276  23.803  11.314   8.399
 1096POPC   C3A16277  23.629  11.082   8.097
 1096POPC   C4A16278  23.867  11.180   7.754
 1096POPC   C1B16279  23.532  11.587   8.737
 1096POPC   C2B16280  23.313  11.536   8.380
 1096POPC   C3B16281  23.515  11.573   8.010
 1096POPC   C4B16282  23.297  11.708   7.704
 1097POPC   NC316283   7.800  24.701   9.461
 1097POPC   PO416284   8.186  24.230   9.158
 1097POPC   GL116285   8.248  24.729   9.141
 1097POPC   GL216286   7.953  24.936   9.049
 1097POPC   C1A16287   8.349  24.939   8.751
 1097POPC   D2A16288   8.377  24.654   8.441
 1097POPC   C3A16289   8.188  24.666   8.082
 1097POPC   C4A16290   8.327  24.454   7.706
 1097POPC   C1B16291   7.914  24.622   8.733
 1097POPC   C2B16292   7.938  24.284   8.436
 1097POPC   C3B16293   8.097  24.140   8.033
 1097POPC   C4B16294   7.948  24.075   7.603
 1098POPC   NC316295  29.206  15.888   9.528
 1098POPC   PO416296  29.671  15.466   9.511
 1098POPC   GL116297  29.499  15.690   9.107
 1098POPC   GL216298  29.383  16.054   9.075
 1098POPC   C1A16299  29.264  15.711   8.663
 1098POPC   D2A16300  29.096  15.564   8.235
 1098POPC   C3A16301  29.137  15.807   7.874
 1098POPC   C4A16302  29.243  15.772   7.443
 1098POPC   C1B16303  29.152  16.216   8.720
 1098POPC   C2B16304  29.140  16.101   8.300
 1098POPC   C3B16305  29.032  16.298   7.915
 1098POPC   C4B16306  29.059  16.267   7.464
 1099POPC   NC316307  27.108  32.154   9.503
 1099POPC   PO416308  26.565  32.465   9.853
 1099POPC   GL116309  26.677  32.582   9.378
 1099POPC   GL216310  26.990  32.487   9.154
 1099POPC   C1A16311  26.558  32.526   8.900
 1099POPC   D2A16312  26.775  32.325   8.534
 1099POPC   C3A16313  26.672  32.347   8.102
 1099POPC   C4A16314  26.645  32.091   7.721
 1099POPC   C1B16315  27.135  32.171   8.846
 1099POPC   C2B16316  27.247  32.044   8.416
 1099POPC   C3B16317  27.124  32.071   7.994
 1099POPC   C4B16318  27.257  31.878   7.629
 1100POPC   NC316319  29.150  18.418   9.627
 1100POPC   PO416320  29.189  18.562   8.998
 1100POPC   GL116321  29.223  18.165   8.838
 1100POPC   GL216322  28.997  18.055   9.100
 1100POPC   C1A16323  29.323  18.225   8.414
 1100POPC   D2A16324  29.045  18.494   8.180
 1100POPC   C3A16325  28.953  18.379   7.764
 1100POPC   C4A16326  29.216  18.328   7.419
 1100POPC   C1B16327  28.721  17.895   8.795
 1100POPC   C2B16328  28.702  18.061   8.383
 1100POPC   C3B16329  28.864  17.831   8.017
 1100POPC   C4B16330  29.195  17.940   7.797
 1101POPC   NC316331  34.333   5.733   9.649
 1101POPC   PO416332  34.917   6.127   9.550
 1101POPC   GL116333  34.869   5.906   9.176
 1101POPC   GL216334  34.581   5.712   9.205
 1101POPC   C1A16335  34.674   5.943   8.753
 1101POPC   D2A16336  34.855   6.007   8.335
 1101POPC   C3A16337  34.578   5.987   7.969
 1101POPC   C4A16338  34.784   5.774   7.644
 1101POPC   C1B16339  34.451   5.505   8.828
 1101POPC   C2B16340  34.400   5.677   8.394
 1101POPC   C3B16341  34.208   5.457   8.013
 1101POPC   C4B16342  34.237   5.726   7.610
 1102POPC   NC316343  30.862   5.464   9.564
 1102POPC   PO416344  30.393   4.945   9.717
 1102POPC   GL116345  30.502   5.003   9.257
 1102POPC   GL216346  30.887   5.035   9.211
 1102POPC   C1A16347  30.478   5.150   8.800
 1102POPC   D2A16348  30.446   4.994   8.349
 1102POPC   C3A16349  30.398   5.271   7.993
 1102POPC   C4A16350  30.485   5.267   7.558
 1102POPC   C1B16351  30.928   5.377   8.895
 1102POPC   C2B16352  30.934   5.342   8.450
 1102POPC   C3B16353  30.846   5.513   8.060
 1102POPC   C4B16354  30.992   5.379   7.683
 1103POPC   NC316355  34.700  21.864   9.372
 1103POPC   PO416356  34.221  22.352   9.405
 1103POPC   GL116357  34.508  22.194   9.049
 1103POPC   GL216358  34.860  22.251   9.083
 1103POPC   C1A16359  34.706  21.965   8.688
 1103POPC   D2A16360  34.762  22.110   8.269
 1103POPC   C3A16361  34.377  21.938   8.067
 1103POPC   C4A16362  34.238  21.937   7.674
 1103POPC   C1B16363  34.771  22.478   8.697
 1103POPC   C2B16364  34.645  22.650   8.296
 1103POPC   C3B16365  34.694  22.489   7.882
 1103POPC   C4B16366  34.766  22.058   7.743
 1104POPC   NC316367   9.318  25.623   9.449
 1104POPC   PO416368  10.004  25.752   9.347
 1104POPC   GL116369   9.589  25.915   9.127
 1104POPC   GL216370   9.461  26.268   9.080
 1104POPC   C1A16371   9.392  25.937   8.712
 1104POPC   D2A16372   9.187  25.753   8.369
 1104POPC   C3A16373   9.418  25.849   8.058
 1104POPC   C4A16374   9.810  25.969   7.914
 1104POPC   C1B16375   9.653  26.442   8.675
 1104POPC   C2B16376   9.958  26.326   8.341
 1104POPC   C3B16377  10.035  26.448   7.919
 1104POPC   C4B16378   9.691  26.402   7.643
 1105POPC   NC316379   3.406  20.948   9.516
 1105POPC   PO416380   3.212  21.520   9.478
 1105POPC   GL116381   3.600  21.465   9.156
 1105POPC   GL216382   3.869  21.757   9.149
 1105POPC   C1A16383   3.651  21.145   8.778
 1105POPC   D2A16384   3.534  20.963   8.337
 1105POPC   C3A16385   3.542  21.187   7.935
 1105POPC   C4A16386   3.377  21.467   7.598
 1105POPC   C1B16387   3.914  21.588   8.721
 1105POPC   C2B16388   3.786  21.430   8.326
 1105POPC   C3B16389   3.732  21.665   7.934
 1105POPC   C4B16390   3.834  22.080   7.792
 1106POPC   NC316391   5.670  33.352   9.547
 1106POPC   PO416392   6.272  33.138   9.552
 1106POPC   GL116393   6.120  33.100   9.156
 1106POPC   GL216394   5.829  33.241   9.076
 1106POPC   C1A16395   6.020  32.897   8.774
 1106POPC   D2A16396   5.946  33.110   8.421
 1106POPC   C3A16397   5.828  32.815   8.113
 1106POPC   C4A16398   6.081  32.812   7.723
 1106POPC   C1B16399   5.586  33.370   8.717
 1106POPC   C2B16400   5.587  33.442   8.269
 1106POPC   C3B16401   5.810  33.272   7.934
 1106POPC   C4B16402   5.607  33.147   7.593
 1107POPC   NC316403  34.759  14.978   9.512
 1107POPC   PO416404  34.514  15.570   9.692
 1107POPC   GL116405  34.788  15.407   9.218
 1107POPC   GL216406  34.598  15.134   9.068
 1107POPC   C1A16407  34.630  15.440   8.692
 1107POPC   D2A16408  34.454  15.141   8.370
 1107POPC   C3A16409  34.444  15.266   7.933
 1107POPC   C4A16410  34.659  15.558   7.646
 1107POPC   C1B16411  34.711  14.870   8.729
 1107POPC   C2B16412  34.910  14.905   8.334
 1107POPC   C3B16413  34.747  14.821   7.917
 1107POPC   C4B16414  34.519  14.629   7.573
 1108POPC   NC316415  11.890  12.470   9.590
 1108POPC   PO416416  12.250  13.051   9.673
 1108POPC   GL116417  12.156  13.062   9.218
 1108POPC   GL216418  11.884  12.846   9.229
 1108POPC   C1A16419  12.159  12.796   8.806
 1108POPC   D2A16420  12.445  12.668   8.481
 1108POPC   C3A16421  12.221  12.613   8.083
 1108POPC   C4A16422  12.185  12.935   7.774
 1108POPC   C1B16423  11.717  13.096   8.887
 1108POPC   C2B16424  11.705  13.191   8.455
 1108POPC   C3B16425  11.753  12.983   8.057
 1108POPC   C4B16426  11.501  13.061   7.742
 1109POPC   NC316427  27.429   5.773   9.431
 1109POPC   PO416428  27.748   6.403   9.468
 1109POPC   GL116429  27.884   6.201   9.079
 1109POPC   GL216430  27.559   6.139   9.056
 1109POPC   C1A16431  27.821   5.794   8.793
 1109POPC   D2A16432  27.631   5.524   8.449
 1109POPC   C3A16433  27.768   5.679   8.047
 1109POPC   C4A16434  27.604   5.863   7.715
 1109POPC   C1B16435  27.393   6.175   8.651
 1109POPC   C2B16436  27.512   6.113   8.237
 1109POPC   C3B16437  27.297   6.208   7.878
 1109POPC   C4B16438  27.379   6.225   7.431
 1110POPC   NC316439  37.529  35.794   9.382
 1110POPC   PO416440  37.180  36.353   9.400
 1110POPC   GL116441  37.440  36.208   9.087
 1110POPC   GL216442  37.784  36.138   9.123
 1110POPC   C1A16443  37.538  36.089   8.693
 1110POPC   D2A16444  37.730  35.974   8.351
 1110POPC   C3A16445  37.475  36.113   8.070
 1110POPC   C4A16446  37.614  36.006   7.675
 1110POPC   C1B16447  38.061  36.113   8.787
 1110POPC   C2B16448  38.195  36.170   8.372
 1110POPC   C3B16449  37.949  36.325   8.020
 1110POPC   C4B16450  37.911  36.638   7.706
 1111POPC   NC316451   3.366   7.544   9.455
 1111POPC   PO416452   4.012   7.555   9.440
 1111POPC   GL116453   3.909   7.322   9.074
 1111POPC   GL216454   3.565   7.288   9.052
 1111POPC   C1A16455   3.869   7.344   8.614
 1111POPC   D2A16456   3.904   7.692   8.334
 1111POPC   C3A16457   3.567   7.530   8.103
 1111POPC   C4A16458   3.259   7.615   7.785
 1111POPC   C1B16459   3.383   7.185   8.655
 1111POPC   C2B16460   3.569   7.050   8.257
 1111POPC   C3B16461   3.348   7.134   7.869
 1111POPC   C4B16462   3.416   7.262   7.422
 1112POPC   NC316463  10.554   9.511   9.531
 1112POPC   PO416464  10.224  10.166   9.506
 1112POPC   GL116465  10.291   9.924   9.133
 1112POPC   GL216466  10.391   9.553   9.065
 1112POPC   C1A16467  10.348   9.882   8.686
 1112POPC   D2A16468  10.619   9.858   8.369
 1112POPC   C3A16469  10.438   9.899   7.965
 1112POPC   C4A16470  10.644   9.549   7.768
 1112POPC   C1B16471  10.115   9.419   8.739
 1112POPC   C2B16472  10.141   9.570   8.323
 1112POPC   C3B16473  10.078   9.412   7.910
 1112POPC   C4B16474  10.234   9.464   7.504
 1113POPC   NC316475   7.235   8.529   9.459
 1113POPC   PO416476   7.658   7.963   9.569
 1113POPC   GL116477   7.436   8.095   9.207
 1113POPC   GL216478   7.724   8.187   9.124
 1113POPC   C1A16479   7.252   8.286   8.819
 1113POPC   D2A16480   7.097   8.515   8.445
 1113POPC   C3A16481   7.406   8.474   8.157
 1113POPC   C4A16482   7.543   8.402   7.755
 1113POPC   C1B16483   7.934   8.054   8.799
 1113POPC   C2B16484   7.750   8.223   8.449
 1113POPC   C3B16485   7.779   8.069   8.046
 1113POPC   C4B16486   8.002   8.127   7.722
 1114POPC   NC316487  42.818   4.912   9.386
 1114POPC   PO416488  42.206   5.327   9.458
 1114POPC   GL116489  42.325   4.994   9.170
 1114POPC   GL216490  42.519   5.196   9.066
 1114POPC   C1A16491  42.372   4.890   8.689
 1114POPC   D2A16492  42.071   4.759   8.367
 1114POPC   C3A16493  42.190   4.866   7.940
 1114POPC   C4A16494  42.319   4.820   7.488
 1114POPC   C1B16495  42.154   5.347   8.821
 1114POPC   C2B16496  42.152   5.390   8.396
 1114POPC   C3B16497  42.259   5.478   7.982
 1114POPC   C4B16498  42.146   5.278   7.644
 1115POPC   NC316499  20.423   0.763   9.561
 1115POPC   PO416500  20.845   0.208   9.750
 1115POPC   GL116501  20.593   0.400   9.273
 1115POPC   GL216502  20.278   0.488   9.134
 1115POPC   C1A16503  20.776   0.496   8.822
 1115POPC   D2A16504  20.845   0.158   8.510
 1115POPC   C3A16505  20.698   0.224   8.080
 1115POPC   C4A16506  20.800   0.133   7.648
 1115POPC   C1B16507  20.310   0.673   8.725
 1115POPC   C2B16508  20.643   0.872   8.454
 1115POPC   C3B16509  20.724   0.798   8.030
 1115POPC   C4B16510  20.494   0.556   7.742
 1116POPC   NC316511  23.041  16.218   9.503
 1116POPC   PO416512  22.990  15.595   9.295
 1116POPC   GL116513  22.950  15.969   9.066
 1116POPC   GL216514  22.600  16.040   9.122
 1116POPC   C1A16515  22.835  16.199   8.676
 1116POPC   D2A16516  23.117  16.311   8.316
 1116POPC   C3A16517  23.067  16.088   7.935
 1116POPC   C4A16518  23.161  15.784   7.626
 1116POPC   C1B16519  22.637  15.713   8.758
 1116POPC   C2B16520  22.592  15.571   8.322
 1116POPC   C3B16521  22.704  15.747   7.903
 1116POPC   C4B16522  22.592  16.152   7.735
 1117POPC   NC316523  28.496   2.515   9.704
 1117POPC   PO416524  29.229   2.694   9.523
 1117POPC   GL116525  29.153   2.801   9.117
 1117POPC   GL216526  29.243   2.475   9.047
 1117POPC   C1A16527  29.114   2.969   8.666
 1117POPC   D2A16528  29.238   2.822   8.279
 1117POPC   C3A16529  29.273   3.030   7.905
 1117POPC   C4A16530  28.900   3.014   7.676
 1117POPC   C1B16531  29.162   2.431   8.642
 1117POPC   C2B16532  29.160   2.324   8.240
 1117POPC   C3B16533  29.104   2.520   7.810
 1117POPC   C4B16534  29.351   2.434   7.424
 1118POPC   NC316535   3.359  34.014   9.466
 1118POPC   PO416536   3.996  33.594   9.443
 1118POPC   GL116537   3.719  33.563   9.103
 1118POPC   GL216538   3.378  33.483   9.221
 1118POPC   C1A16539   3.728  33.777   8.697
 1118POPC   D2A16540   3.679  34.064   8.332
 1118POPC   C3A16541   3.698  33.835   7.945
 1118POPC   C4A16542   3.826  33.831   7.517
 1118POPC   C1B16543   3.282  33.521   8.779
 1118POPC   C2B16544   3.218  33.658   8.363
 1118POPC   C3B16545   3.291  33.528   7.944
 1118POPC   C4B16546   3.307  33.754   7.542
 1119POPC   NC316547   4.720  29.585   9.474
 1119POPC   PO416548   5.074  30.177   9.518
 1119POPC   GL116549   5.036  29.871   9.168
 1119POPC   GL216550   4.689  29.859   9.041
 1119POPC   C1A16551   5.181  29.910   8.732
 1119POPC   D2A16552   5.032  30.090   8.348
 1119POPC   C3A16553   5.302  30.180   8.028
 1119POPC   C4A16554   5.211  29.924   7.669
 1119POPC   C1B16555   4.651  29.575   8.690
 1119POPC   C2B16556   4.772  29.560   8.281
 1119POPC   C3B16557   4.807  29.696   7.869
 1119POPC   C4B16558   4.852  29.482   7.470
 1120POPC   NC316559  31.169  37.161   9.513
 1120POPC   PO416560  30.649  36.736   9.754
 1120POPC   GL116561  30.809  36.775   9.330
 1120POPC   GL216562  30.543  36.633   9.145
 1120POPC   C1A16563  30.910  36.963   8.907
 1120POPC   D2A16564  30.956  37.049   8.436
 1120POPC   C3A16565  30.760  36.765   8.130
 1120POPC   C4A16566  30.729  36.857   7.701
 1120POPC   C1B16567  30.300  36.755   8.772
 1120POPC   C2B16568  30.335  36.523   8.378
 1120POPC   C3B16569  30.338  36.349   7.975
 1120POPC   C4B16570  30.376  36.534   7.545
 1121POPC   NC316571   6.499  35.821   9.353
 1121POPC   PO416572   7.119  36.162   9.491
 1121POPC   GL116573   6.962  35.992   9.081
 1121POPC   GL216574   6.620  36.108   8.949
 1121POPC   C1A16575   7.045  35.934   8.635
 1121POPC   D2A16576   7.130  35.972   8.176
 1121POPC   C3A16577   6.771  36.163   7.912
 1121POPC   C4A16578   6.451  35.911   7.698
 1121POPC   C1B16579   6.298  36.086   8.648
 1121POPC   C2B16580   6.346  36.011   8.228
 1121POPC   C3B16581   6.232  36.278   7.947
 1121POPC   C4B16582   6.425  36.457   7.630
 1122POPC   NC316583  22.424  22.559   9.830
 1122POPC   PO416584  22.359  23.157   9.577
 1122POPC   GL116585  22.308  22.834   9.257
 1122POPC   GL216586  21.963  22.729   9.165
 1122POPC   C1A16587  22.330  22.877   8.802
 1122POPC   D2A16588  22.454  23.046   8.396
 1122POPC   C3A16589  22.116  22.991   8.116
 1122POPC   C4A16590  22.260  22.888   7.737
 1122POPC   C1B16591  21.779  22.673   8.721
 1122POPC   C2B16592  21.728  22.605   8.261
 1122POPC   C3B16593  21.790  22.624   7.798
 1122POPC   C4B16594  21.908  22.769   7.366
 1123POPC   NC316595  18.936  29.459   9.507
 1123POPC   PO416596  19.184  28.788   9.414
 1123POPC   GL116597  19.201  29.086   9.140
 1123POPC   GL216598  18.860  29.158   9.104
 1123POPC   C1A16599  19.234  29.155   8.710
 1123POPC   D2A16600  19.180  29.403   8.356
 1123POPC   C3A16601  19.274  29.100   8.041
 1123POPC   C4A16602  19.443  29.209   7.669
 1123POPC   C1B16603  18.636  29.148   8.729
 1123POPC   C2B16604  18.802  29.073   8.346
 1123POPC   C3B16605  18.821  29.291   7.979
 1123POPC   C4B16606  18.960  29.090   7.600
 1124POPC   NC316607  17.853  22.100   9.336
 1124POPC   PO416608  18.549  22.074   9.448
 1124POPC   GL116609  18.310  22.173   9.107
 1124POPC   GL216610  18.071  22.506   9.111
 1124POPC   C1A16611  18.419  21.903   8.767
 1124POPC   D2A16612  18.605  21.968   8.364
 1124POPC   C3A16613  18.392  22.240   8.089
 1124POPC   C4A16614  18.366  22.195   7.664
 1124POPC   C1B16615  18.021  22.276   8.701
 1124POPC   C2B16616  18.076  21.936   8.384
 1124POPC   C3B16617  17.915  22.007   7.996
 1124POPC   C4B16618  17.956  22.434   7.848
 1125POPC   NC316619  31.899  25.503   9.505
 1125POPC   PO416620  32.476  25.055   9.417
 1125POPC   GL116621  32.210  25.297   9.148
 1125POPC   GL216622  31.911  25.077   9.208
 1125POPC   C1A16623  32.239  25.408   8.706
 1125POPC   D2A16624  32.469  25.252   8.368
 1125POPC   C3A16625  32.368  25.420   7.974
 1125POPC   C4A16626  32.411  25.139   7.630
 1125POPC   C1B16627  31.913  25.020   8.781
 1125POPC   C2B16628  31.873  25.190   8.373
 1125POPC   C3B16629  31.966  25.090   7.945
 1125POPC   C4B16630  31.840  25.264   7.556
 1126POPC   NC316631   1.435  29.472   9.386
 1126POPC   PO416632   0.923  29.931   9.469
 1126POPC   GL116633   1.176  29.921   9.082
 1126POPC   GL216634   1.557  29.902   9.156
 1126POPC   C1A16635   1.236  29.660   8.730
 1126POPC   D2A16636   1.452  29.584   8.373
 1126POPC   C3A16637   1.353  29.765   7.992
 1126POPC   C4A16638   1.210  29.487   7.701
 1126POPC   C1B16639   1.640  29.962   8.723
 1126POPC   C2B16640   1.377  30.108   8.429
 1126POPC   C3B16641   1.090  30.245   8.140
 1126POPC   C4B16642   1.082  30.180   7.714
 1127POPC   NC316643  37.009  42.639   9.184
 1127POPC   PO416644  36.711  42.195   9.620
 1127POPC   GL116645  36.702  42.198   9.186
 1127POPC   GL216646  37.039  42.117   9.023
 1127POPC   C1A16647  36.638  42.290   8.753
 1127POPC   D2A16648  36.978  42.224   8.458
 1127POPC   C3A16649  36.837  42.383   8.090
 1127POPC   C4A16650  36.897  42.557   7.697
 1127POPC   C1B16651  37.345  41.950   8.691
 1127POPC   C2B16652  37.353  41.892   8.217
 1127POPC   C3B16653  37.250  42.142   7.823
 1127POPC   C4B16654  37.151  42.232   7.371
 1128POPC   NC316655  44.367  26.493   9.795
 1128POPC   PO416656  44.485  25.822   9.627
 1128POPC   GL116657  44.338  26.076   9.229
 1128POPC   GL216658  44.378  26.459   9.252
 1128POPC   C1A16659  44.560  26.049   8.795
 1128POPC   D2A16660  44.615  25.734   8.446
 1128POPC   C3A16661  44.525  25.703   8.002
 1128POPC   C4A16662  44.828  25.798   7.668
 1128POPC   C1B16663  44.185  26.391   8.831
 1128POPC   C2B16664  44.202  26.144   8.431
 1128POPC   C3B16665  44.375  26.196   8.020
 1128POPC   C4B16666  44.249  26.410   7.657
 1129POPC   NC316667   0.246  11.724   9.780
 1129POPC   PO416668   0.675  12.202   9.456
 1129POPC   GL116669   0.548  12.065   9.083
 1129POPC   GL216670   0.169  12.054   9.068
 1129POPC   C1A16671   0.495  12.155   8.667
 1129POPC   D2A16672   0.255  12.313   8.417
 1129POPC   C3A16673   0.340  12.352   8.009
 1129POPC   C4A16674   0.310  12.247   7.585
 1129POPC   C1B16675   0.109  11.827   8.655
 1129POPC   C2B16676   0.309  11.836   8.252
 1129POPC   C3B16677   0.478  11.857   7.841
 1129POPC   C4B16678   0.372  11.454   7.693
 1130POPC   NC316679  21.056  43.928   9.557
 1130POPC   PO416680  21.413  43.417   9.420
 1130POPC   GL116681  21.250  43.730   9.113
 1130POPC   GL216682  21.444  44.027   9.153
 1130POPC   C1A16683  21.313  43.843   8.671
 1130POPC   D2A16684  21.633  43.877   8.349
 1130POPC   C3A16685  21.493  43.959   7.959
 1130POPC   C4A16686  21.078  43.912   7.811
 1130POPC   C1B16687  21.716  44.153   8.788
 1130POPC   C2B16688  21.645  44.369   8.375
 1130POPC   C3B16689  21.809  44.373   7.961
 1130POPC   C4B16690  21.521  44.331   7.609
 1131POPC   NC316691   7.643  13.994   9.404
 1131POPC   PO416692   7.189  13.474   9.413
 1131POPC   GL116693   7.280  13.785   9.130
 1131POPC   GL216694   7.512  13.571   8.976
 1131POPC   C1A16695   7.216  13.986   8.775
 1131POPC   D2A16696   7.229  13.659   8.482
 1131POPC   C3A16697   7.528  13.687   8.161
 1131POPC   C4A16698   7.309  13.800   7.793
 1131POPC   C1B16699   7.721  13.224   8.752
 1131POPC   C2B16700   7.916  13.387   8.438
 1131POPC   C3B16701   7.920  13.268   8.051
 1131POPC   C4B16702   7.717  13.493   7.742
 1132POPC   NC316703  40.184   3.024   9.411
 1132POPC   PO416704  39.721   2.544   9.420
 1132POPC   GL116705  39.905   2.525   9.025
 1132POPC   GL216706  40.244   2.420   9.031
 1132POPC   C1A16707  40.002   2.883   8.795
 1132POPC   D2A16708  39.995   3.011   8.375
 1132POPC   C3A16709  39.782   2.831   7.980
 1132POPC   C4A16710  39.831   3.005   7.532
 1132POPC   C1B16711  40.205   2.494   8.534
 1132POPC   C2B16712  40.250   2.607   8.073
 1132POPC   C3B16713  40.063   2.525   7.640
 1132POPC   C4B16714  40.277   2.544   7.207
 1133POPC   NC316715  42.730  21.870   9.810
 1133POPC   PO416716  42.321  22.204   9.441
 1133POPC   GL116717  42.363  22.279   9.051
 1133POPC   GL216718  42.514  21.992   9.010
 1133POPC   C1A16719  42.408  22.217   8.593
 1133POPC   D2A16720  42.147  22.299   8.292
 1133POPC   C3A16721  42.406  22.345   7.945
 1133POPC   C4A16722  42.436  22.297   7.516
 1133POPC   C1B16723  42.049  21.939   8.840
 1133POPC   C2B16724  42.017  21.816   8.405
 1133POPC   C3B16725  42.349  21.837   8.101
 1133POPC   C4B16726  42.673  21.927   7.760
 1134POPC   NC316727  28.762  37.209   9.589
 1134POPC   PO416728  28.251  36.732   9.699
 1134POPC   GL116729  28.312  36.723   9.246
 1134POPC   GL216730  28.649  36.831   9.190
 1134POPC   C1A16731  28.136  36.678   8.821
 1134POPC   D2A16732  28.292  36.665   8.396
 1134POPC   C3A16733  28.067  36.716   8.018
 1134POPC   C4A16734  28.124  36.980   7.642
 1134POPC   C1B16735  28.577  37.047   8.764
 1134POPC   C2B16736  28.634  37.029   8.328
 1134POPC   C3B16737  28.550  36.906   7.917
 1134POPC   C4B16738  28.718  36.935   7.481
 1135POPC   NC316739   3.293  42.487   9.402
 1135POPC   PO416740   3.852  42.267   9.332
 1135POPC   GL116741   3.589  42.275   9.019
 1135POPC   GL216742   3.341  42.085   9.088
 1135POPC   C1A16743   3.538  42.376   8.607
 1135POPC   D2A16744   3.387  42.540   8.273
 1135POPC   C3A16745   3.485  42.428   7.906
 1135POPC   C4A16746   3.402  42.697   7.549
 1135POPC   C1B16747   3.458  41.884   8.689
 1135POPC   C2B16748   3.348  42.002   8.271
 1135POPC   C3B16749   3.383  41.931   7.840
 1135POPC   C4B16750   3.659  42.153   7.532
 1136POPC   NC316751  20.846   1.378   9.638
 1136POPC   PO416752  20.229   1.178   9.639
 1136POPC   GL116753  20.523   1.228   9.271
 1136POPC   GL216754  20.611   0.917   9.082
 1136POPC   C1A16755  20.829   1.412   8.980
 1136POPC   D2A16756  20.971   1.544   8.603
 1136POPC   C3A16757  20.974   1.309   8.261
 1136POPC   C4A16758  20.820   1.327   7.875
 1136POPC   C1B16759  20.419   1.204   8.766
 1136POPC   C2B16760  20.465   1.411   8.352
 1136POPC   C3B16761  20.323   1.415   7.943
 1136POPC   C4B16762  20.400   1.049   7.713
 1137POPC   NC316763  18.128   0.391   9.907
 1137POPC   PO416764  18.425   0.712   9.427
 1137POPC   GL116765  18.116   0.582   9.161
 1137POPC   GL216766  18.078   0.880   8.992
 1137POPC   C1A16767  18.117   0.405   8.753
 1137POPC   D2A16768  18.376   0.451   8.392
 1137POPC   C3A16769  18.110   0.597   8.100
 1137POPC   C4A16770  17.822   0.328   7.851
 1137POPC   C1B16771  18.452   0.790   8.773
 1137POPC   C2B16772  18.661   0.873   8.411
 1137POPC   C3B16773  18.692   0.677   8.013
 1137POPC   C4B16774  18.675   0.588   7.573
 1138POPC   NC316775  25.877   0.672   9.417
 1138POPC   PO416776  25.237   0.533   9.606
 1138POPC   GL116777  25.214   0.328   9.221
 1138POPC   GL216778  24.921   0.456   9.136
 1138POPC   C1A16779  25.324   0.427   8.778
 1138POPC   D2A16780  25.429   0.757   8.469
 1138POPC   C3A16781  25.442   0.581   8.047
 1138POPC   C4A16782  25.706   0.700   7.693
 1138POPC   C1B16783  24.904   0.729   8.748
 1138POPC   C2B16784  24.978   0.564   8.361
 1138POPC   C3B16785  24.965   0.737   7.956
 1138POPC   C4B16786  25.208   0.706   7.582
 1139POPC   NC316787  38.789  37.085   9.596
 1139POPC   PO416788  38.209  36.709   9.481
 1139POPC   GL116789  38.445  36.912   9.227
 1139POPC   GL216790  38.603  36.574   9.122
 1139POPC   C1A16791  38.436  37.102   8.833
 1139POPC   D2A16792  38.558  36.961   8.430
 1139POPC   C3A16793  38.453  37.221   8.084
 1139POPC   C4A16794  38.273  37.193   7.661
 1139POPC   C1B16795  38.240  36.623   8.813
 1139POPC   C2B16796  38.133  36.683   8.377
 1139POPC   C3B16797  38.327  36.732   7.979
 1139POPC   C4B16798  38.384  36.714   7.514
 1140POPC   NC316799  43.514  12.235   9.473
 1140POPC   PO416800  43.037  11.655   9.436
 1140POPC   GL116801  43.121  12.031   9.195
 1140POPC   GL216802  42.831  12.192   9.000
 1140POPC   C1A16803  43.325  12.173   8.823
 1140POPC   D2A16804  43.317  11.992   8.422
 1140POPC   C3A16805  43.097  12.229   8.131
 1140POPC   C4A16806  43.399  12.431   7.900
 1140POPC   C1B16807  42.816  12.119   8.563
 1140POPC   C2B16808  42.596  12.091   8.180
 1140POPC   C3B16809  42.672  12.369   7.837
 1140POPC   C4B16810  42.971  12.463   7.508
 1141POPC   NC316811   5.668   7.469   9.606
 1141POPC   PO416812   6.044   6.938   9.612
 1141POPC   GL116813   5.991   7.242   9.273
 1141POPC   GL216814   5.699   7.105   9.199
 1141POPC   C1A16815   5.816   7.553   8.950
 1141POPC   D2A16816   5.682   7.577   8.506
 1141POPC   C3A16817   5.915   7.438   8.131
 1141POPC   C4A16818   5.988   7.697   7.758
 1141POPC   C1B16819   5.654   7.102   8.762
 1141POPC   C2B16820   5.447   7.113   8.350
 1141POPC   C3B16821   5.614   6.910   7.973
 1141POPC   C4B16822   5.733   7.220   7.664
 1142POPC   NC316823  34.002  28.342   9.521
 1142POPC   PO416824  33.514  27.906   9.448
 1142POPC   GL116825  33.788  28.115   9.125
 1142POPC   GL216826  33.838  28.521   9.074
 1142POPC   C1A16827  33.648  28.145   8.715
 1142POPC   D2A16828  33.663  28.387   8.358
 1142POPC   C3A16829  33.664  28.090   8.038
 1142POPC   C4A16830  33.707  28.275   7.648
 1142POPC   C1B16831  34.081  28.800   8.785
 1142POPC   C2B16832  34.104  28.711   8.363
 1142POPC   C3B16833  33.949  28.657   7.951
 1142POPC   C4B16834  33.979  28.903   7.579
 1143POPC   NC316835  32.690  36.459   9.234
 1143POPC   PO416836  32.263  36.901   9.599
 1143POPC   GL116837  32.198  37.067   9.193
 1143POPC   GL216838  32.209  36.705   9.127
 1143POPC   C1A16839  32.311  37.075   8.755
 1143POPC   D2A16840  32.526  37.135   8.362
 1143POPC   C3A16841  32.361  37.040   7.947
 1143POPC   C4A16842  32.136  37.038   7.517
 1143POPC   C1B16843  32.212  36.472   8.757
 1143POPC   C2B16844  31.975  36.484   8.430
 1143POPC   C3B16845  32.080  36.474   8.003
 1143POPC   C4B16846  32.341  36.596   7.664
 1144POPC   NC316847   5.217  14.272   9.334
 1144POPC   PO416848   4.849  14.643   9.724
 1144POPC   GL116849   4.830  14.601   9.223
 1144POPC   GL216850   4.631  14.913   9.153
 1144POPC   C1A16851   5.006  14.386   8.770
 1144POPC   D2A16852   5.276  14.380   8.428
 1144POPC   C3A16853   5.100  14.270   8.057
 1144POPC   C4A16854   5.180  14.401   7.653
 1144POPC   C1B16855   4.698  14.779   8.753
 1144POPC   C2B16856   4.787  14.573   8.349
 1144POPC   C3B16857   4.925  14.747   7.973
 1144POPC   C4B16858   4.895  14.846   7.545
 1145POPC   NC316859  33.656   2.906   9.806
 1145POPC   PO416860  34.213   2.919   9.449
 1145POPC   GL116861  33.831   3.059   9.139
 1145POPC   GL216862  33.583   2.792   9.139
 1145POPC   C1A16863  33.523   3.081   8.731
 1145POPC   D2A16864  33.539   2.853   8.343
 1145POPC   C3A16865  33.509   3.098   7.956
 1145POPC   C4A16866  33.875   2.937   7.791
 1145POPC   C1B16867  33.832   2.671   8.744
 1145POPC   C2B16868  34.039   2.452   8.365
 1145POPC   C3B16869  34.178   2.516   7.907
 1145POPC   C4B16870  34.013   2.518   7.465
 1146POPC   NC316871  24.698  40.080   9.438
 1146POPC   PO416872  24.498  39.499   9.764
 1146POPC   GL116873  24.399  39.660   9.266
 1146POPC   GL216874  24.245  40.010   9.149
 1146POPC   C1A16875  24.441  39.738   8.776
 1146POPC   D2A16876  24.118  39.819   8.419
 1146POPC   C3A16877  24.340  39.855   8.008
 1146POPC   C4A16878  24.774  39.980   7.912
 1146POPC   C1B16879  24.280  40.249   8.742
 1146POPC   C2B16880  24.473  40.244   8.315
 1146POPC   C3B16881  24.406  40.382   7.864
 1146POPC   C4B16882  24.527  40.286   7.439
 1147POPC   NC316883  32.032  11.520   9.900
 1147POPC   PO416884  32.571  11.647   9.429
 1147POPC   GL116885  32.405  11.430   9.112
 1147POPC   GL216886  32.659  11.346   8.986
 1147POPC   C1A16887  32.179  11.215   8.763
 1147POPC   D2A16888  31.838  11.015   8.514
 1147POPC   C3A16889  31.999  11.058   8.116
 1147POPC   C4A16890  31.900  11.313   7.787
 1147POPC   C1B16891  32.642  10.963   8.789
 1147POPC   C2B16892  32.433  10.884   8.396
 1147POPC   C3B16893  32.552  10.818   7.989
 1147POPC   C4B16894  32.375  11.129   7.738
 1148POPC   NC316895  31.968  17.074   9.544
 1148POPC   PO416896  32.265  16.471   9.421
 1148POPC   GL116897  32.164  16.638   9.067
 1148POPC   GL216898  32.286  16.966   9.132
 1148POPC   C1A16899  32.284  16.582   8.642
 1148POPC   D2A16900  32.024  16.529   8.282
 1148POPC   C3A16901  32.211  16.494   7.890
 1148POPC   C4A16902  32.048  16.580   7.512
 1148POPC   C1B16903  32.133  17.071   8.714
 1148POPC   C2B16904  32.224  17.032   8.278
 1148POPC   C3B16905  32.131  17.039   7.840
 1148POPC   C4B16906  32.108  17.089   7.389
 1149POPC   NC316907  41.578   2.222   9.367
 1149POPC   PO416908  41.369   1.665   9.588
 1149POPC   GL116909  41.370   1.738   9.166
 1149POPC   GL216910  41.124   1.995   9.171
 1149POPC   C1A16911  41.553   1.883   8.764
 1149POPC   D2A16912  41.498   2.111   8.364
 1149POPC   C3A16913  41.783   2.249   8.036
 1149POPC   C4A16914  41.629   1.976   7.734
 1149POPC   C1B16915  41.066   2.110   8.721
 1149POPC   C2B16916  40.982   2.116   8.274
 1149POPC   C3B16917  41.260   2.289   7.934
 1149POPC   C4B16918  41.100   2.520   7.577
 1150POPC   NC316919  37.226  32.570   9.618
 1150POPC   PO416920  36.904  31.972   9.535
 1150POPC   GL116921  36.927  32.156   9.146
 1150POPC   GL216922  36.558  32.340   9.140
 1150POPC   C1A16923  37.182  32.109   8.724
 1150POPC   D2A16924  37.348  32.109   8.277
 1150POPC   C3A16925  37.053  32.344   7.988
 1150POPC   C4A16926  36.844  32.260   7.606
 1150POPC   C1B16927  36.661  32.172   8.716
 1150POPC   C2B16928  36.852  32.005   8.339
 1150POPC   C3B16929  36.691  31.923   7.955
 1150POPC   C4B16930  36.373  32.114   7.742
 1151POPC   NC316931  14.997  26.370   9.649
 1151POPC   PO416932  14.597  25.911   9.386
 1151POPC   GL116933  14.941  26.167   9.178
 1151POPC   GL216934  15.325  26.196   9.293
 1151POPC   C1A16935  15.006  26.077   8.753
 1151POPC   D2A16936  15.016  26.332   8.401
 1151POPC   C3A16937  14.958  26.195   8.000
 1151POPC   C4A16938  14.869  26.395   7.650
 1151POPC   C1B16939  15.506  26.135   8.890
 1151POPC   C2B16940  15.449  26.023   8.459
 1151POPC   C3B16941  15.476  26.280   8.124
 1151POPC   C4B16942  15.401  26.294   7.701
 1152POPC   NC316943   6.404  44.161   9.591
 1152POPC   PO416944   6.485  44.869   9.593
 1152POPC   GL116945   6.625  44.743   9.180
 1152POPC   GL216946   6.408  44.463   9.168
 1152POPC   C1A16947   6.768  44.878   8.733
 1152POPC   D2A16948   6.805  44.652   8.360
 1152POPC   C3A16949   6.707  44.872   7.989
 1152POPC   C4A16950   6.762  44.698   7.597
 1152POPC   C1B16951   6.596  44.383   8.789
 1152POPC   C2B16952   6.384  44.382   8.420
 1152POPC   C3B16953   6.514  44.305   8.033
 1152POPC   C4B16954   6.350  44.380   7.633
 1153POPC   NC316955  25.692   1.648   9.311
 1153POPC   PO416956  25.179   2.073   9.413
 1153POPC   GL116957  25.444   2.009   9.064
 1153POPC   GL216958  25.634   2.288   8.977
 1153POPC   C1A16959  25.396   1.695   8.730
 1153POPC   D2A16960  25.149   1.644   8.345
 1153POPC   C3A16961  25.384   1.670   7.954
 1153POPC   C4A16962  25.292   2.020   7.665
 1153POPC   C1B16963  25.450   2.176   8.572
 1153POPC   C2B16964  25.487   2.140   8.141
 1153POPC   C3B16965  25.719   2.312   7.806
 1153POPC   C4B16966  25.647   2.256   7.369
 1154POPC   NC316967  24.558  28.439   9.447
 1154POPC   PO416968  24.015  28.024   9.437
 1154POPC   GL116969  24.278  28.113   9.121
 1154POPC   GL216970  24.207  28.436   9.040
 1154POPC   C1A16971  24.587  28.188   8.816
 1154POPC   D2A16972  24.657  28.355   8.424
 1154POPC   C3A16973  24.498  28.150   8.100
 1154POPC   C4A16974  24.755  28.067   7.761
 1154POPC   C1B16975  24.352  28.653   8.719
 1154POPC   C2B16976  24.139  28.761   8.396
 1154POPC   C3B16977  24.143  28.547   8.022
 1154POPC   C4B16978  24.160  28.687   7.619
 1155POPC   NC316979  14.571  27.867   9.472
 1155POPC   PO416980  13.927  27.511   9.469
 1155POPC   GL116981  14.198  27.663   9.157
 1155POPC   GL216982  14.571  27.665   9.012
 1155POPC   C1A16983  14.146  27.523   8.761
 1155POPC   D2A16984  14.404  27.278   8.515
 1155POPC   C3A16985  14.393  27.475   8.136
 1155POPC   C4A16986  14.623  27.370   7.812
 1155POPC   C1B16987  14.556  27.797   8.610
 1155POPC   C2B16988  14.421  27.993   8.265
 1155POPC   C3B16989  14.610  27.874   7.872
 1155POPC   C4B16990  14.275  27.721   7.636
 1156POPC   NC316991  34.094  42.155   9.485
 1156POPC   PO416992  34.509  42.659   9.471
 1156POPC   GL116993  34.628  42.426   9.125
 1156POPC   GL216994  34.872  42.144   9.179
 1156POPC   C1A16995  34.423  42.294   8.742
 1156POPC   D2A16996  34.127  42.085   8.466
 1156POPC   C3A16997  34.367  41.974   8.136
 1156POPC   C4A16998  34.490  42.183   7.791
 1156POPC   C1B16999  34.958  42.295   8.770
 1156POPC   C2B17000  34.816  42.517   8.403
 1156POPC   C3B17001  34.923  42.397   7.997
 1156POPC   C4B17002  35.093  42.125   7.697
 1157POPC   NC317003   6.159  30.695   9.612
 1157POPC   PO417004   5.619  30.975   9.778
 1157POPC   GL117005   5.769  30.788   9.300
 1157POPC   GL217006   6.094  30.961   9.174
 1157POPC   C1A17007   5.697  30.544   8.852
 1157POPC   D2A17008   5.875  30.526   8.408
 1157POPC   C3A17009   5.691  30.510   7.993
 1157POPC   C4A17010   5.729  30.580   7.560
 1157POPC   C1B17011   5.839  31.026   8.811
 1157POPC   C2B17012   5.699  30.995   8.400
 1157POPC   C3B17013   5.891  30.980   8.029
 1157POPC   C4B17014   6.110  30.962   7.628
 1158POPC   NC317015  15.779  37.554   9.353
 1158POPC   PO417016  16.456  37.718   9.318
 1158POPC   GL117017  16.104  37.845   9.063
 1158POPC   GL217018  15.974  37.541   8.880
 1158POPC   C1A17019  16.044  37.994   8.640
 1158POPC   D2A17020  15.854  37.754   8.330
 1158POPC   C3A17021  16.035  37.773   7.957
 1158POPC   C4A17022  16.320  37.996   7.792
 1158POPC   C1B17023  15.616  37.377   8.641
 1158POPC   C2B17024  15.561  37.355   8.210
 1158POPC   C3B17025  15.899  37.300   7.933
 1158POPC   C4B17026  15.888  37.347   7.475
 1159POPC   NC317027  32.488  40.796   9.226
 1159POPC   PO417028  31.979  40.449   9.453
 1159POPC   GL117029  32.029  40.603   9.048
 1159POPC   GL217030  32.014  40.957   9.039
 1159POPC   C1A17031  32.072  40.613   8.596
 1159POPC   D2A17032  31.792  40.660   8.237
 1159POPC   C3A17033  32.055  40.714   7.892
 1159POPC   C4A17034  32.525  40.628   7.891
 1159POPC   C1B17035  32.250  41.108   8.715
 1159POPC   C2B17036  32.476  41.393   8.506
 1159POPC   C3B17037  32.625  41.304   8.091
 1159POPC   C4B17038  32.404  41.097   7.757
 1160POPC   NC317039  41.141  22.233   9.457
 1160POPC   PO417040  40.452  21.944   9.460
 1160POPC   GL117041  40.539  22.044   9.053
 1160POPC   GL217042  40.874  22.066   9.065
 1160POPC   C1A17043  40.617  22.132   8.630
 1160POPC   D2A17044  40.462  22.249   8.243
 1160POPC   C3A17045  40.706  22.108   7.927
 1160POPC   C4A17046  40.814  22.303   7.492
 1160POPC   C1B17047  41.112  21.982   8.736
 1160POPC   C2B17048  41.122  22.174   8.332
 1160POPC   C3B17049  41.161  21.892   7.999
 1160POPC   C4B17050  40.961  21.812   7.594
 1161POPC   NC317051  30.975  13.104   9.307
 1161POPC   PO417052  30.470  12.744   9.659
 1161POPC   GL117053  30.665  12.706   9.214
 1161POPC   GL217054  31.002  12.684   9.033
 1161POPC   C1A17055  30.604  12.806   8.750
 1161POPC   D2A17056  30.594  12.563   8.380
 1161POPC   C3A17057  30.665  12.789   7.996
 1161POPC   C4A17058  30.917  12.664   7.675
 1161POPC   C1B17059  31.069  12.572   8.629
 1161POPC   C2B17060  30.988  12.912   8.388
 1161POPC   C3B17061  31.131  13.030   8.019
 1161POPC   C4B17062  30.948  13.223   7.704
 1162POPC   NC317063  16.168   9.147   9.235
 1162POPC   PO417064  15.769   8.719   9.526
 1162POPC   GL117065  15.736   8.835   9.090
 1162POPC   GL217066  15.525   9.131   9.112
 1162POPC   C1A17067  15.971   8.812   8.682
 1162POPC   D2A17068  15.960   8.729   8.239
 1162POPC   C3A17069  16.064   9.059   7.959
 1162POPC   C4A17070  16.129   9.351   7.606
 1162POPC   C1B17071  15.524   9.075   8.652
 1162POPC   C2B17072  15.573   9.123   8.187
 1162POPC   C3B17073  15.623   8.956   7.754
 1162POPC   C4B17074  15.758   8.719   7.389
 1163POPC   NC317075  22.031  31.107   9.487
 1163POPC   PO417076  22.499  31.566   9.686
 1163POPC   GL117077  22.239  31.544   9.264
 1163POPC   GL217078  21.879  31.640   9.282
 1163POPC   C1A17079  22.198  31.396   8.801
 1163POPC   D2A17080  22.288  31.426   8.337
 1163POPC   C3A17081  22.056  31.232   8.014
 1163POPC   C4A17082  22.214  31.093   7.634
 1163POPC   C1B17083  21.810  31.740   8.851
 1163POPC   C2B17084  21.978  31.869   8.466
 1163POPC   C3B17085  21.965  31.757   8.038
 1163POPC   C4B17086  21.934  31.752   7.580
 1164POPC   NC317087  11.955  40.500   9.499
 1164POPC   PO417088  11.810  39.887   9.613
 1164POPC   GL117089  12.049  39.867   9.225
 1164POPC   GL217090  12.215  40.172   9.182
 1164POPC   C1A17091  12.242  39.781   8.815
 1164POPC   D2A17092  12.471  39.946   8.467
 1164POPC   C3A17093  12.214  39.912   8.104
 1164POPC   C4A17094  12.011  39.865   7.714
 1164POPC   C1B17095  12.166  40.293   8.749
 1164POPC   C2B17096  12.222  40.399   8.299
 1164POPC   C3B17097  12.135  40.336   7.833
 1164POPC   C4B17098  12.184  40.262   7.380
 1165POPC   NC317099  21.271  32.440   9.219
 1165POPC   PO417100  21.949  32.188   9.430
 1165POPC   GL117101  21.737  32.233   9.080
 1165POPC   GL217102  21.768  32.580   9.042
 1165POPC   C1A17103  21.607  32.194   8.662
 1165POPC   D2A17104  21.646  32.190   8.213
 1165POPC   C3A17105  21.231  32.273   8.024
 1165POPC   C4A17106  21.072  32.540   7.690
 1165POPC   C1B17107  21.652  32.717   8.625
 1165POPC   C2B17108  21.705  32.693   8.176
 1165POPC   C3B17109  21.640  32.481   7.778
 1165POPC   C4B17110  21.460  32.657   7.371
 1166POPC   NC317111  32.963  37.866   9.540
 1166POPC   PO417112  33.243  37.240   9.701
 1166POPC   GL117113  33.093  37.447   9.293
 1166POPC   GL217114  32.714  37.422   9.324
 1166POPC   C1A17115  33.159  37.544   8.826
 1166POPC   D2A17116  33.267  37.430   8.357
 1166POPC   C3A17117  33.110  37.688   8.003
 1166POPC   C4A17118  33.193  37.749   7.561
 1166POPC   C1B17119  32.638  37.453   8.883
 1166POPC   C2B17120  32.766  37.583   8.471
 1166POPC   C3B17121  32.585  37.562   8.077
 1166POPC   C4B17122  32.726  37.546   7.652
 1167POPC   NC317123  16.572   9.785   9.559
 1167POPC   PO417124  17.166   9.472   9.595
 1167POPC   GL117125  16.914   9.405   9.142
 1167POPC   GL217126  16.674   9.702   9.072
 1167POPC   C1A17127  16.758   9.485   8.644
 1167POPC   D2A17128  16.470   9.848   8.455
 1167POPC   C3A17129  16.494   9.943   7.996
 1167POPC   C4A17130  16.657   9.582   7.755
 1167POPC   C1B17131  16.883   9.971   8.724
 1167POPC   C2B17132  16.916  10.133   8.314
 1167POPC   C3B17133  17.029   9.997   7.915
 1167POPC   C4B17134  16.792  10.091   7.575
 1168POPC   NC317135  32.937  33.644   9.630
 1168POPC   PO417136  33.492  33.996   9.558
 1168POPC   GL117137  33.227  33.933   9.188
 1168POPC   GL217138  32.851  33.870   9.189
 1168POPC   C1A17139  33.236  33.844   8.760
 1168POPC   D2A17140  33.463  33.914   8.386
 1168POPC   C3A17141  33.298  33.801   8.003
 1168POPC   C4A17142  33.000  34.048   7.809
 1168POPC   C1B17143  32.783  33.634   8.824
 1168POPC   C2B17144  32.873  33.758   8.400
 1168POPC   C3B17145  32.679  33.705   8.019
 1168POPC   C4B17146  32.919  33.529   7.753
 1169POPC   NC317147  17.569  40.640   9.602
 1169POPC   PO417148  17.057  40.973   9.541
 1169POPC   GL117149  17.167  40.952   9.098
 1169POPC   GL217150  17.390  40.687   9.141
 1169POPC   C1A17151  17.152  40.992   8.612
 1169POPC   D2A17152  17.448  40.887   8.313
 1169POPC   C3A17153  17.549  40.526   7.964
 1169POPC   C4A17154  17.416  40.624   7.522
 1169POPC   C1B17155  17.575  40.752   8.776
 1169POPC   C2B17156  17.793  40.533   8.409
 1169POPC   C3B17157  18.038  40.614   8.074
 1169POPC   C4B17158  17.828  40.335   7.491
 1170POPC   NC317159  24.286  33.775   9.388
 1170POPC   PO417160  24.895  33.466   9.652
 1170POPC   GL117161  24.813  33.619   9.238
 1170POPC   GL217162  24.678  33.911   9.074
 1170POPC   C1A17163  24.952  33.579   8.815
 1170POPC   D2A17164  24.677  33.721   8.486
 1170POPC   C3A17165  24.805  33.988   8.142
 1170POPC   C4A17166  24.573  33.897   7.765
 1170POPC   C1B17167  24.361  34.018   8.792
 1170POPC   C2B17168  24.308  34.074   8.395
 1170POPC   C3B17169  24.194  33.781   8.114
 1170POPC   C4B17170  24.066  34.029   7.809
 1171POPC   NC317171  41.932  34.656   9.506
 1171POPC   PO417172  42.376  35.080   9.465
 1171POPC   GL117173  42.130  34.858   9.061
 1171POPC   GL217174  42.109  34.481   9.052
 1171POPC   C1A17175  42.184  34.704   8.589
 1171POPC   D2A17176  42.469  34.365   8.329
 1171POPC   C3A17177  42.599  34.547   7.917
 1171POPC   C4A17178  42.392  34.954   7.743
 1171POPC   C1B17179  42.075  34.211   8.687
 1171POPC   C2B17180  41.990  34.225   8.252
 1171POPC   C3B17181  42.152  34.337   7.850
 1171POPC   C4B17182  42.279  34.397   7.397
 1172POPC   NC317183   3.059  20.074   9.681
 1172POPC   PO417184   3.654  19.947   9.444
 1172POPC   GL117185   3.433  19.768   9.161
 1172POPC   GL217186   3.103  19.744   9.276
 1172POPC   C1A17187   3.519  19.778   8.754
 1172POPC   D2A17188   3.748  19.703   8.436
 1172POPC   C3A17189   3.509  19.713   8.122
 1172POPC   C4A17190   3.578  19.814   7.749
 1172POPC   C1B17191   3.032  19.889   8.848
 1172POPC   C2B17192   3.191  20.007   8.418
 1172POPC   C3B17193   3.154  20.063   7.950
 1172POPC   C4B17194   3.286  20.329   7.558
 1173POPC   NC317195  28.764   7.026   9.414
 1173POPC   PO417196  29.203   7.524   9.575
 1173POPC   GL117197  29.103   7.447   9.212
 1173POPC   GL217198  29.207   7.112   9.142
 1173POPC   C1A17199  29.020   7.719   8.899
 1173POPC   D2A17200  29.106   7.628   8.461
 1173POPC   C3A17201  28.950   7.713   8.073
 1173POPC   C4A17202  29.131   7.626   7.669
 1173POPC   C1B17203  28.950   7.231   8.768
 1173POPC   C2B17204  28.957   7.091   8.365
 1173POPC   C3B17205  29.094   7.194   7.973
 1173POPC   C4B17206  28.881   7.008   7.655
 1174POPC   NC317207  11.340  27.304   9.472
 1174POPC   PO417208  10.980  27.962   9.590
 1174POPC   GL117209  11.085  27.739   9.238
 1174POPC   GL217210  11.433  27.764   9.135
 1174POPC   C1A17211  11.047  27.676   8.810
 1174POPC   D2A17212  11.129  27.463   8.455
 1174POPC   C3A17213  11.268  27.710   8.154
 1174POPC   C4A17214  11.299  27.705   7.727
 1174POPC   C1B17215  11.517  27.456   8.802
 1174POPC   C2B17216  11.639  27.385   8.364
 1174POPC   C3B17217  11.716  27.519   7.936
 1174POPC   C4B17218  11.835  27.942   7.777
 1175POPC   NC317219  44.928  31.907   9.359
 1175POPC   PO417220  44.615  31.360   9.684
 1175POPC   GL117221  44.549  31.381   9.196
 1175POPC   GL217222  44.637  31.677   9.000
 1175POPC   C1A17223  44.357  31.172   8.817
 1175POPC   D2A17224  44.360  31.022   8.370
 1175POPC   C3A17225  44.616  31.295   8.139
 1175POPC   C4A17226  44.579  31.420   7.757
 1175POPC   C1B17227  44.806  31.869   8.622
 1175POPC   C2B17228  44.968  31.692   8.244
 1175POPC   C3B17229   0.020  31.673   7.795
 1175POPC   C4B17230   0.235  31.891   7.438
 1176POPC   NC317231  23.035  18.634   9.613
 1176POPC   PO417232  22.530  18.163   9.524
 1176POPC   GL117233  22.693  18.433   9.202
 1176POPC   GL217234  23.069  18.422   9.150
 1176POPC   C1A17235  22.755  18.387   8.751
 1176POPC   D2A17236  22.906  18.172   8.390
 1176POPC   C3A17237  22.753  18.254   8.009
 1176POPC   C4A17238  22.792  18.299   7.580
 1176POPC   C1B17239  23.178  18.677   8.802
 1176POPC   C2B17240  23.039  18.682   8.392
 1176POPC   C3B17241  23.145  18.592   7.971
 1176POPC   C4B17242  23.058  18.783   7.627
 1177POPC   NC317243  28.639  33.303   9.871
 1177POPC   PO417244  28.392  32.774   9.576
 1177POPC   GL117245  28.295  32.923   9.194
 1177POPC   GL217246  28.409  33.232   9.066
 1177POPC   C1A17247  28.217  32.891   8.753
 1177POPC   D2A17248  28.183  33.117   8.364
 1177POPC   C3A17249  28.254  32.921   8.007
 1177POPC   C4A17250  28.070  33.107   7.677
 1177POPC   C1B17251  28.579  33.293   8.666
 1177POPC   C2B17252  28.581  33.485   8.267
 1177POPC   C3B17253  28.442  33.405   7.843
 1177POPC   C4B17254  28.592  33.496   7.405
 1178POPC   NC317255  15.740   1.616   9.523
 1178POPC   PO417256  16.171   2.075   9.670
 1178POPC   GL117257  16.010   1.984   9.260
 1178POPC   GL217258  16.335   1.957   9.159
 1178POPC   C1A17259  15.979   2.017   8.760
 1178POPC   D2A17260  15.795   2.215   8.351
 1178POPC   C3A17261  15.777   2.059   7.880
 1178POPC   C4A17262  15.817   1.980   7.411
 1178POPC   C1B17263  16.496   2.149   8.774
 1178POPC   C2B17264  16.521   2.079   8.368
 1178POPC   C3B17265  16.216   2.246   8.074
 1178POPC   C4B17266  16.215   2.378   7.628
 1179POPC   NC317267  32.755  21.842   9.306
 1179POPC   PO417268  33.184  21.362   9.322
 1179POPC   GL117269  33.046  21.504   8.972
 1179POPC   GL217270  32.720  21.409   9.009
 1179POPC   C1A17271  32.986  21.789   8.647
 1179POPC   D2A17272  32.797  21.759   8.247
 1179POPC   C3A17273  33.075  21.446   8.014
 1179POPC   C4A17274  33.028  21.223   7.595
 1179POPC   C1B17275  32.706  21.053   8.763
 1179POPC   C2B17276  32.818  21.188   8.377
 1179POPC   C3B17277  32.801  21.010   7.997
 1179POPC   C4B17278  32.554  21.088   7.634
 1180POPC   NC317279   9.739  36.652   9.543
 1180POPC   PO417280   9.964  37.344   9.285
 1180POPC   GL117281   9.653  37.041   9.146
 1180POPC   GL217282   9.900  36.815   9.074
 1180POPC   C1A17283   9.504  36.843   8.739
 1180POPC   D2A17284   9.502  36.798   8.270
 1180POPC   C3A17285   9.608  37.120   7.927
 1180POPC   C4A17286   9.556  37.074   7.471
 1180POPC   C1B17287  10.045  36.967   8.667
 1180POPC   C2B17288  10.006  36.931   8.207
 1180POPC   C3B17289   9.811  36.639   7.881
 1180POPC   C4B17290  10.037  36.540   7.496
 1181POPC   NC317291  13.137  42.678   9.159
 1181POPC   PO417292  12.740  43.150   9.478
 1181POPC   GL117293  12.683  42.967   9.095
 1181POPC   GL217294  12.968  43.027   8.845
 1181POPC   C1A17295  12.503  42.971   8.691
 1181POPC   D2A17296  12.653  42.693   8.398
 1181POPC   C3A17297  12.627  42.787   7.970
 1181POPC   C4A17298  12.544  43.118   7.744
 1181POPC   C1B17299  13.068  43.221   8.455
 1181POPC   C2B17300  12.940  43.264   8.055
 1181POPC   C3B17301  13.054  43.012   7.703
 1181POPC   C4B17302  13.219  42.926   7.294
 1182POPC   NC317303  12.067  44.072   9.571
 1182POPC   PO417304  12.110  43.416   9.446
 1182POPC   GL117305  12.151  43.708   9.101
 1182POPC   GL217306  12.181  44.060   9.070
 1182POPC   C1A17307  12.378  43.814   8.693
 1182POPC   D2A17308  12.467  44.084   8.347
 1182POPC   C3A17309  12.180  43.953   8.039
 1182POPC   C4A17310  11.930  43.690   7.751
 1182POPC   C1B17311  11.844  43.962   8.800
 1182POPC   C2B17312  11.777  44.104   8.392
 1182POPC   C3B17313  11.706  44.097   7.979
 1182POPC   C4B17314  11.705  44.084   7.519
 1183POPC   NC317315  21.148  33.069   9.712
 1183POPC   PO417316  21.562  32.638   9.505
 1183POPC   GL117317  21.480  32.998   9.241
 1183POPC   GL217318  21.131  33.049   9.155
 1183POPC   C1A17319  21.510  33.188   8.818
 1183POPC   D2A17320  21.297  33.263   8.422
 1183POPC   C3A17321  21.603  33.187   8.124
 1183POPC   C4A17322  21.641  32.972   7.746
 1183POPC   C1B17323  21.064  32.885   8.724
 1183POPC   C2B17324  21.190  32.773   8.282
 1183POPC   C3B17325  21.148  33.040   7.921
 1183POPC   C4B17326  21.380  33.397   7.727
 1184POPC   NC317327  34.104  35.848   9.512
 1184POPC   PO417328  33.482  35.711   9.469
 1184POPC   GL117329  33.558  35.918   9.077
 1184POPC   GL217330  33.897  35.912   9.060
 1184POPC   C1A17331  33.698  35.988   8.607
 1184POPC   D2A17332  33.806  36.338   8.318
 1184POPC   C3A17333  33.734  36.381   7.867
 1184POPC   C4A17334  33.616  36.090   7.561
 1184POPC   C1B17335  34.111  35.684   8.716
 1184POPC   C2B17336  34.109  35.897   8.336
 1184POPC   C3B17337  33.878  35.921   8.011
 1184POPC   C4B17338  34.127  35.821   7.679
 1185POPC   NC317339   8.523  44.019   9.524
 1185POPC   PO417340   8.350  43.328   9.448
 1185POPC   GL117341   8.179  43.712   9.249
 1185POPC   GL217342   8.508  43.732   9.097
 1185POPC   C1A17343   8.146  44.009   8.864
 1185POPC   D2A17344   8.295  44.233   8.491
 1185POPC   C3A17345   8.016  44.227   8.133
 1185POPC   C4A17346   8.151  44.274   7.713
 1185POPC   C1B17347   8.250  43.496   8.794
 1185POPC   C2B17348   8.365  43.497   8.389
 1185POPC   C3B17349   8.202  43.568   8.011
 1185POPC   C4B17350   8.415  43.713   7.663
 1186POPC   NC317351  15.994  35.752   9.320
 1186POPC   PO417352  15.592  35.247   9.452
 1186POPC   GL117353  15.762  35.139   9.067
 1186POPC   GL217354  16.068  35.249   9.154
 1186POPC   C1A17355  15.861  35.351   8.664
 1186POPC   D2A17356  16.050  35.609   8.339
 1186POPC   C3A17357  15.874  35.516   7.930
 1186POPC   C4A17358  15.863  35.589   7.487
 1186POPC   C1B17359  16.330  35.236   8.803
 1186POPC   C2B17360  16.251  35.137   8.369
 1186POPC   C3B17361  16.350  35.342   8.002
 1186POPC   C4B17362  16.260  35.267   7.577
 1187POPC   NC317363  41.965   8.066   9.421
 1187POPC   PO417364  41.315   8.040   9.465
 1187POPC   GL117365  41.411   8.236   9.091
 1187POPC   GL217366  41.057   8.156   9.017
 1187POPC   C1A17367  41.680   8.350   8.704
 1187POPC   D2A17368  41.470   8.509   8.316
 1187POPC   C3A17369  41.690   8.474   7.920
 1187POPC   C4A17370  41.936   8.113   7.785
 1187POPC   C1B17371  41.274   8.087   8.627
 1187POPC   C2B17372  41.590   7.985   8.321
 1187POPC   C3B17373  41.460   7.960   7.933
 1187POPC   C4B17374  41.192   8.272   7.900
 1188POPC   NC317375  12.446   7.946   9.446
 1188POPC   PO417376  13.046   8.335   9.468
 1188POPC   GL117377  12.974   8.359   9.090
 1188POPC   GL217378  12.639   8.325   9.130
 1188POPC   C1A17379  12.878   8.390   8.692
 1188POPC   D2A17380  12.953   8.110   8.414
 1188POPC   C3A17381  12.845   8.257   8.047
 1188POPC   C4A17382  13.046   8.270   7.614
 1188POPC   C1B17383  12.613   7.976   8.816
 1188POPC   C2B17384  12.586   7.763   8.387
 1188POPC   C3B17385  12.596   7.827   7.953
 1188POPC   C4B17386  12.552   8.136   7.657
 1189POPC   NC317387  31.083  36.230   9.379
 1189POPC   PO417388  31.815  36.156   9.579
 1189POPC   GL117389  31.572  36.299   9.234
 1189POPC   GL217390  31.419  35.988   9.085
 1189POPC   C1A17391  31.459  36.456   8.827
 1189POPC   D2A17392  31.407  36.184   8.483
 1189POPC   C3A17393  31.609  36.313   8.146
 1189POPC   C4A17394  31.592  36.286   7.759
 1189POPC   C1B17395  31.414  35.739   8.733
 1189POPC   C2B17396  31.200  35.667   8.358
 1189POPC   C3B17397  31.346  35.857   7.976
 1189POPC   C4B17398  31.565  35.792   7.590
 1190POPC   NC317399  22.682   9.269   9.656
 1190POPC   PO417400  22.944   9.840   9.486
 1190POPC   GL117401  23.134   9.826   9.100
 1190POPC   GL217402  23.259   9.483   9.110
 1190POPC   C1A17403  23.164   9.725   8.656
 1190POPC   D2A17404  22.971   9.689   8.292
 1190POPC   C3A17405  23.255   9.671   8.005
 1190POPC   C4A17406  23.179   9.885   7.706
 1190POPC   C1B17407  22.876   9.401   8.909
 1190POPC   C2B17408  22.564   9.571   8.588
 1190POPC   C3B17409  22.524   9.501   8.123
 1190POPC   C4B17410  22.726   9.631   7.756
 1191POPC   NC317411  23.215   3.024   9.614
 1191POPC   PO417412  23.934   2.772   9.525
 1191POPC   GL117413  23.755   2.906   9.166
 1191POPC   GL217414  23.635   2.570   9.052
 1191POPC   C1A17415  23.897   2.876   8.759
 1191POPC   D2A17416  23.659   2.674   8.462
 1191POPC   C3A17417  23.857   2.779   8.110
 1191POPC   C4A17418  23.732   3.001   7.772
 1191POPC   C1B17419  23.959   2.366   8.753
 1191POPC   C2B17420  23.864   2.206   8.337
 1191POPC   C3B17421  23.966   2.315   7.921
 1191POPC   C4B17422  23.652   2.503   7.681
 1192POPC   NC317423   0.876  15.742   9.667
 1192POPC   PO417424   0.953  16.331   9.405
 1192POPC   GL117425   1.229  16.166   9.126
 1192POPC   GL217426   1.174  15.802   9.120
 1192POPC   C1A17427   1.166  16.184   8.708
 1192POPC   D2A17428   1.060  16.419   8.374
 1192POPC   C3A17429   1.262  16.186   8.065
 1192POPC   C4A17430   1.195  15.990   7.655
 1192POPC   C1B17431   1.338  15.671   8.692
 1192POPC   C2B17432   1.351  15.625   8.234
 1192POPC   C3B17433   1.017  15.505   7.963
 1192POPC   C4B17434   0.933  15.555   7.532
 1193POPC   NC317435  21.907  23.168   9.446
 1193POPC   PO417436  21.237  22.886   9.513
 1193POPC   GL117437  21.214  23.014   9.108
 1193POPC   GL217438  21.566  23.059   9.083
 1193POPC   C1A17439  21.288  22.873   8.684
 1193POPC   D2A17440  21.217  22.687   8.286
 1193POPC   C3A17441  21.382  22.931   7.965
 1193POPC   C4A17442  21.419  22.853   7.525
 1193POPC   C1B17443  21.884  23.170   8.783
 1193POPC   C2B17444  21.699  23.115   8.396
 1193POPC   C3B17445  21.658  23.368   8.042
 1193POPC   C4B17446  21.791  23.136   7.720
 1194POPC   NC317447  31.275   9.359   9.542
 1194POPC   PO417448  31.533  10.029   9.543
 1194POPC   GL117449  31.323   9.777   9.203
 1194POPC   GL217450  31.649   9.824   9.074
 1194POPC   C1A17451  31.325   9.583   8.747
 1194POPC   D2A17452  31.591   9.762   8.436
 1194POPC   C3A17453  31.529   9.710   8.045
 1194POPC   C4A17454  31.351   9.512   7.737
 1194POPC   C1B17455  31.893  10.061   8.743
 1194POPC   C2B17456  32.024   9.988   8.290
 1194POPC   C3B17457  31.771  10.157   7.934
 1194POPC   C4B17458  31.591  10.086   7.524
 1195POPC   NC317459  24.903   1.728   9.559
 1195POPC   PO417460  24.312   2.108   9.530
 1195POPC   GL117461  24.293   2.045   9.104
 1195POPC   GL217462  24.308   1.680   9.125
 1195POPC   C1A17463  24.471   2.138   8.688
 1195POPC   D2A17464  24.696   1.992   8.295
 1195POPC   C3A17465  24.488   2.165   7.926
 1195POPC   C4A17466  24.767   2.505   7.813
 1195POPC   C1B17467  24.525   1.615   8.732
 1195POPC   C2B17468  24.663   1.476   8.320
 1195POPC   C3B17469  24.473   1.633   7.913
 1195POPC   C4B17470  24.456   1.742   7.434
 1196POPC   NC317471  38.232  21.777   9.367
 1196POPC   PO417472  38.398  21.082   9.483
 1196POPC   GL117473  38.509  21.405   9.160
 1196POPC   GL217474  38.182  21.333   9.077
 1196POPC   C1A17475  38.411  21.626   8.748
 1196POPC   D2A17476  38.212  21.428   8.399
 1196POPC   C3A17477  38.466  21.494   8.046
 1196POPC   C4A17478  38.702  21.386   7.675
 1196POPC   C1B17479  38.416  21.095   8.772
 1196POPC   C2B17480  38.540  21.037   8.380
 1196POPC   C3B17481  38.598  20.994   7.979
 1196POPC   C4B17482  38.204  21.080   7.869
 1197POPC   NC317483  27.415  19.292   9.534
 1197POPC   PO417484  28.101  19.283   9.330
 1197POPC   GL117485  27.738  19.141   9.090
 1197POPC   GL217486  27.372  19.029   9.109
 1197POPC   C1A17487  27.620  19.126   8.672
 1197POPC   D2A17488  27.778  18.956   8.315
 1197POPC   C3A17489  27.651  19.186   7.996
 1197POPC   C4A17490  27.534  19.033   7.613
 1197POPC   C1B17491  27.171  18.813   8.782
 1197POPC   C2B17492  27.230  18.938   8.380
 1197POPC   C3B17493  27.213  18.802   7.999
 1197POPC   C4B17494  27.035  18.897   7.622
 1198POPC   NC317495  39.086  39.603   9.551
 1198POPC   PO417496  39.061  40.297   9.498
 1198POPC   GL117497  39.138  40.178   9.104
 1198POPC   GL217498  39.327  39.916   9.207
 1198POPC   C1A17499  38.973  40.101   8.699
 1198POPC   D2A17500  39.203  39.975   8.340
 1198POPC   C3A17501  39.226  40.237   8.022
 1198POPC   C4A17502  38.899  40.331   7.761
 1198POPC   C1B17503  39.417  39.844   8.780
 1198POPC   C2B17504  39.714  39.927   8.484
 1198POPC   C3B17505  39.658  39.929   8.071
 1198POPC   C4B17506  39.705  40.157   7.743
 1199POPC   NC317507  13.979  38.966   9.517
 1199POPC   PO417508  13.331  39.286   9.502
 1199POPC   GL117509  13.683  39.312   9.189
 1199POPC   GL217510  13.815  38.997   9.036
 1199POPC   C1A17511  13.776  39.424   8.762
 1199POPC   D2A17512  13.833  39.115   8.416
 1199POPC   C3A17513  13.731  39.268   7.992
 1199POPC   C4A17514  13.444  39.455   7.688
 1199POPC   C1B17515  13.431  38.984   8.750
 1199POPC   C2B17516  13.207  38.924   8.318
 1199POPC   C3B17517  13.344  38.950   7.876
 1199POPC   C4B17518  13.385  38.987   7.430
 1200POPC   NC317519  41.348  14.626   9.463
 1200POPC   PO417520  41.646  14.037   9.456
 1200POPC   GL117521  41.519  14.236   9.113
 1200POPC   GL217522  41.218  14.322   8.965
 1200POPC   C1A17523  41.743  14.261   8.746
 1200POPC   D2A17524  41.773  14.461   8.382
 1200POPC   C3A17525  41.836  14.237   8.011
 1200POPC   C4A17526  41.674  14.355   7.623
 1200POPC   C1B17527  41.427  14.667   8.812
 1200POPC   C2B17528  41.361  14.772   8.431
 1200POPC   C3B17529  41.426  14.607   8.034
 1200POPC   C4B17530  41.502  14.871   7.696
 1201POPC   NC317531  25.454  27.285   9.582
 1201POPC   PO417532  25.455  26.619   9.599
 1201POPC   GL117533  25.379  26.837   9.181
 1201POPC   GL217534  25.016  26.910   9.117
 1201POPC   C1A17535  25.421  26.794   8.699
 1201POPC   D2A17536  25.167  26.855   8.283
 1201POPC   C3A17537  25.394  26.824   7.854
 1201POPC   C4A17538  25.346  26.623   7.416
 1201POPC   C1B17539  25.053  27.146   8.721
 1201POPC   C2B17540  25.099  27.398   8.340
 1201POPC   C3B17541  25.041  27.271   7.910
 1201POPC   C4B17542  25.174  27.124   7.494
 1202POPC   NC317543  12.151  21.636   9.537
 1202POPC   PO417544  12.428  21.070   9.307
 1202POPC   GL117545  12.232  21.391   9.082
 1202POPC   GL217546  11.876  21.447   9.133
 1202POPC   C1A17547  12.124  21.323   8.664
 1202POPC   D2A17548  12.306  21.206   8.275
 1202POPC   C3A17549  12.314  21.504   7.929
 1202POPC   C4A17550  12.371  21.317   7.534
 1202POPC   C1B17551  11.799  21.715   8.758
 1202POPC   C2B17552  11.871  21.608   8.313
 1202POPC   C3B17553  11.820  21.695   7.879
 1202POPC   C4B17554  11.869  21.486   7.453
 1203POPC   NC317555   8.707  12.065   9.679
 1203POPC   PO417556   9.260  12.297   9.466
 1203POPC   GL117557   8.966  12.057   9.200
 1203POPC   GL217558   8.596  12.104   9.172
 1203POPC   C1A17559   9.081  12.005   8.789
 1203POPC   D2A17560   9.115  12.278   8.415
 1203POPC   C3A17561   9.079  12.068   8.014
 1203POPC   C4A17562   8.976  12.265   7.620
 1203POPC   C1B17563   8.587  11.841   8.810
 1203POPC   C2B17564   8.750  11.923   8.413
 1203POPC   C3B17565   8.597  11.888   8.036
 1203POPC   C4B17566   8.549  12.005   7.655
 1204POPC   NC317567  16.674  37.308   9.189
 1204POPC   PO417568  16.821  37.808   9.673
 1204POPC   GL117569  16.861  37.803   9.069
 1204POPC   GL217570  16.499  37.607   8.837
 1204POPC   C1A17571  16.730  37.944   8.596
 1204POPC   D2A17572  16.445  37.777   8.292
 1204POPC   C3A17573  16.723  37.710   7.931
 1204POPC   C4A17574  16.706  37.835   7.497
 1204POPC   C1B17575  16.672  37.350   8.524
 1204POPC   C2B17576  17.032  37.148   8.378
 1204POPC   C3B17577  17.052  37.289   7.977
 1204POPC   C4B17578  16.787  37.283   7.610
 1205POPC   NC317579  42.018  10.382   9.775
 1205POPC   PO417580  41.593  10.672   9.339
 1205POPC   GL117581  41.437  10.307   9.102
 1205POPC   GL217582  41.632  10.170   8.877
 1205POPC   C1A17583  41.172  10.348   8.736
 1205POPC   D2A17584  41.441  10.570   8.469
 1205POPC   C3A17585  41.430  10.414   8.086
 1205POPC   C4A17586  41.454  10.427   7.685
 1205POPC   C1B17587  41.854  10.572   8.784
 1205POPC   C2B17588  41.927  10.837   8.469
 1205POPC   C3B17589  41.736  10.831   8.078
 1205POPC   C4B17590  41.862  10.707   7.692
 1206POPC   NC317591   6.981   1.176   9.287
 1206POPC   PO417592   7.631   1.076   9.503
 1206POPC   GL117593   7.468   1.122   9.128
 1206POPC   GL217594   7.451   0.792   9.087
 1206POPC   C1A17595   7.409   1.310   8.740
 1206POPC   D2A17596   7.643   1.385   8.379
 1206POPC   C3A17597   7.585   1.153   7.998
 1206POPC   C4A17598   7.385   1.381   7.714
 1206POPC   C1B17599   7.215   0.843   8.713
 1206POPC   C2B17600   7.199   1.109   8.324
 1206POPC   C3B17601   7.094   0.984   7.909
 1206POPC   C4B17602   7.313   0.780   7.615
 1207POPC   NC317603  10.586   6.723   9.436
 1207POPC   PO417604  10.055   7.161   9.412
 1207POPC   GL117605  10.231   6.903   9.089
 1207POPC   GL217606  10.590   6.919   8.975
 1207POPC   C1A17607  10.268   6.669   8.683
 1207POPC   D2A17608  10.372   6.439   8.312
 1207POPC   C3A17609  10.357   6.668   7.924
 1207POPC   C4A17610  10.585   6.661   7.570
 1207POPC   C1B17611  10.737   6.506   8.797
 1207POPC   C2B17612  10.866   6.330   8.396
 1207POPC   C3B17613  10.797   6.361   7.967
 1207POPC   C4B17614  11.036   6.455   7.605
 1208POPC   NC317615   9.361   4.452   9.975
 1208POPC   PO417616   9.594   3.961   9.504
 1208POPC   GL117617   9.735   4.350   9.223
 1208POPC   GL217618  10.100   4.477   9.110
 1208POPC   C1A17619   9.669   4.555   8.832
 1208POPC   D2A17620   9.547   4.279   8.491
 1208POPC   C3A17621   9.603   4.404   8.083
 1208POPC   C4A17622   9.509   4.221   7.697
 1208POPC   C1B17623  10.029   4.227   8.724
 1208POPC   C2B17624  10.115   4.313   8.286
 1208POPC   C3B17625  10.035   4.218   7.856
 1208POPC   C4B17626  10.160   4.451   7.506
 1209POPC   NC317627  40.976  17.965   9.340
 1209POPC   PO417628  41.129  17.330   9.616
 1209POPC   GL117629  40.895  17.404   9.223
 1209POPC   GL217630  40.980  17.048   9.139
 1209POPC   C1A17631  40.730  17.618   8.818
 1209POPC   D2A17632  40.599  17.628   8.356
 1209POPC   C3A17633  40.941  17.713   8.095
 1209POPC   C4A17634  40.998  17.588   7.694
 1209POPC   C1B17635  40.830  17.118   8.722
 1209POPC   C2B17636  40.882  17.216   8.290
 1209POPC   C3B17637  40.669  17.260   7.903
 1209POPC   C4B17638  40.763  17.025   7.516
 1210POPC   NC317639  16.155  29.618   9.273
 1210POPC   PO417640  15.603  29.879   9.592
 1210POPC   GL117641  15.857  30.019   9.158
 1210POPC   GL217642  16.179  30.019   8.974
 1210POPC   C1A17643  15.791  30.248   8.754
 1210POPC   D2A17644  15.466  30.301   8.432
 1210POPC   C3A17645  15.596  30.107   8.052
 1210POPC   C4A17646  15.939  30.151   7.769
 1210POPC   C1B17647  16.025  29.785   8.610
 1210POPC   C2B17648  16.039  29.865   8.178
 1210POPC   C3B17649  16.261  29.746   7.795
 1210POPC   C4B17650  16.338  29.314   7.638
 1211POPC   NC317651  25.259  21.248   9.626
 1211POPC   PO417652  24.852  21.660   9.262
 1211POPC   GL117653  25.006  21.228   9.160
 1211POPC   GL217654  25.371  21.065   9.143
 1211POPC   C1A17655  25.112  21.236   8.735
 1211POPC   D2A17656  25.362  21.557   8.524
 1211POPC   C3A17657  25.358  21.501   8.090
 1211POPC   C4A17658  25.097  21.206   7.922
 1211POPC   C1B17659  25.621  21.126   8.761
 1211POPC   C2B17660  25.455  21.050   8.364
 1211POPC   C3B17661  25.627  21.028   7.987
 1211POPC   C4B17662  25.760  21.155   7.609
 1212POPC   NC317663  35.910   5.497   9.380
 1212POPC   PO417664  36.149   4.786   9.355
 1212POPC   GL117665  35.936   5.036   9.119
 1212POPC   GL217666  36.233   5.249   9.061
 1212POPC   C1A17667  35.825   5.076   8.709
 1212POPC   D2A17668  36.058   5.260   8.379
 1212POPC   C3A17669  35.855   5.095   7.995
 1212POPC   C4A17670  36.015   4.847   7.643
 1212POPC   C1B17671  36.361   4.947   8.742
 1212POPC   C2B17672  36.558   4.876   8.350
 1212POPC   C3B17673  36.360   5.077   8.008
 1212POPC   C4B17674  36.457   5.105   7.608
 1213POPC   NC317675  38.642   6.583   9.456
 1213POPC   PO417676  38.021   6.900   9.260
 1213POPC   GL117677  38.382   6.817   9.040
 1213POPC   GL217678  38.734   6.951   9.091
 1213POPC   C1A17679  38.308   6.675   8.639
 1213POPC   D2A17680  38.190   6.370   8.361
 1213POPC   C3A17681  38.319   6.514   7.973
 1213POPC   C4A17682  38.055   6.723   7.758
 1213POPC   C1B17683  38.797   6.578   8.797
 1213POPC   C2B17684  38.722   6.615   8.332
 1213POPC   C3B17685  38.812   6.652   7.888
 1213POPC   C4B17686  38.856   6.413   7.504
 1214POPC   NC317687  11.841  19.067   9.468
 1214POPC   PO417688  12.508  18.815   9.503
 1214POPC   GL117689  12.202  18.831   9.184
 1214POPC   GL217690  12.213  19.190   9.142
 1214POPC   C1A17691  11.898  18.942   8.817
 1214POPC   D2A17692  11.694  19.003   8.402
 1214POPC   C3A17693  11.968  19.008   8.015
 1214POPC   C4A17694  11.949  19.189   7.603
 1214POPC   C1B17695  12.233  19.400   8.777
 1214POPC   C2B17696  12.195  19.270   8.390
 1214POPC   C3B17697  12.456  19.316   8.025
 1214POPC   C4B17698  12.501  19.253   7.579
 1215POPC   NC317699  17.885   6.549   9.539
 1215POPC   PO417700  17.185   6.626   9.564
 1215POPC   GL117701  17.484   6.754   9.252
 1215POPC   GL217702  17.299   6.960   9.083
 1215POPC   C1A17703  17.670   6.678   8.826
 1215POPC   D2A17704  17.480   6.595   8.412
 1215POPC   C3A17705  17.569   6.447   8.020
 1215POPC   C4A17706  17.608   6.789   7.751
 1215POPC   C1B17707  17.165   6.827   8.737
 1215POPC   C2B17708  17.046   6.961   8.382
 1215POPC   C3B17709  17.201   6.933   8.004
 1215POPC   C4B17710  17.145   6.581   7.740
 1216POPC   NC317711  21.660  20.778   9.399
 1216POPC   PO417712  21.082  21.096   9.423
 1216POPC   GL117713  21.248  20.795   9.108
 1216POPC   GL217714  21.379  20.418   9.169
 1216POPC   C1A17715  21.388  20.684   8.699
 1216POPC   D2A17716  21.228  20.777   8.290
 1216POPC   C3A17717  21.456  20.690   7.899
 1216POPC   C4A17718  21.325  21.018   7.683
 1216POPC   C1B17719  21.609  20.230   8.803
 1216POPC   C2B17720  21.504  20.172   8.350
 1216POPC   C3B17721  21.726  20.247   7.968
 1216POPC   C4B17722  21.689  20.336   7.515
 1217POPC   NC317723  16.571  30.331   9.383
 1217POPC   PO417724  16.817  31.045   9.488
 1217POPC   GL117725  16.703  30.799   9.152
 1217POPC   GL217726  17.032  30.859   9.043
 1217POPC   C1A17727  16.725  30.621   8.728
 1217POPC   D2A17728  16.476  30.665   8.384
 1217POPC   C3A17729  16.609  30.854   8.058
 1217POPC   C4A17730  16.668  30.589   7.770
 1217POPC   C1B17731  17.199  30.819   8.645
 1217POPC   C2B17732  17.093  30.714   8.247
 1217POPC   C3B17733  17.141  30.533   7.885
 1217POPC   C4B17734  17.052  30.872   7.571
 1218POPC   NC317735  32.123   6.337   9.423
 1218POPC   PO417736  32.103   5.627   9.528
 1218POPC   GL117737  32.062   5.879   9.193
 1218POPC   GL217738  31.807   5.764   9.047
 1218POPC   C1A17739  32.272   5.944   8.793
 1218POPC   D2A17740  32.574   5.803   8.477
 1218POPC   C3A17741  32.569   6.046   8.106
 1218POPC   C4A17742  32.339   5.998   7.728
 1218POPC   C1B17743  31.899   5.634   8.617
 1218POPC   C2B17744  32.094   5.835   8.248
 1218POPC   C3B17745  31.883   5.825   7.836
 1218POPC   C4B17746  31.961   5.898   7.372
 1219POPC   NC317747  16.533  37.422   9.666
 1219POPC   PO417748  16.878  36.827   9.487
 1219POPC   GL117749  16.850  36.822   9.080
 1219POPC   GL217750  16.470  36.830   9.096
 1219POPC   C1A17751  16.715  36.852   8.660
 1219POPC   D2A17752  16.450  36.876   8.319
 1219POPC   C3A17753  16.740  36.877   7.991
 1219POPC   C4A17754  16.726  36.755   7.568
 1219POPC   C1B17755  16.224  37.068   8.760
 1219POPC   C2B17756  16.163  37.351   8.421
 1219POPC   C3B17757  16.409  37.312   8.048
 1219POPC   C4B17758  16.300  36.999   7.740
 1220POPC   NC317759  21.537  22.524   9.647
 1220POPC   PO417760  21.363  21.886   9.502
 1220POPC   GL117761  21.231  22.278   9.260
 1220POPC   GL217762  21.472  22.550   9.141
 1220POPC   C1A17763  21.162  22.313   8.811
 1220POPC   D2A17764  21.273  21.953   8.556
 1220POPC   C3A17765  21.284  22.172   8.183
 1220POPC   C4A17766  21.316  22.434   7.808
 1220POPC   C1B17767  21.663  22.197   8.905
 1220POPC   C2B17768  21.776  22.068   8.481
 1220POPC   C3B17769  21.786  22.140   8.033
 1220POPC   C4B17770  21.465  21.940   7.775
 1221POPC   NC317771  15.145  41.904   9.575
 1221POPC   PO417772  14.841  41.904   8.985
 1221POPC   GL117773  14.990  41.485   9.050
 1221POPC   GL217774  15.276  41.529   9.237
 1221POPC   C1A17775  14.960  41.174   8.731
 1221POPC   D2A17776  15.234  41.237   8.398
 1221POPC   C3A17777  15.080  41.519   8.109
 1221POPC   C4A17778  15.352  41.494   7.767
 1221POPC   C1B17779  15.398  41.597   8.783
 1221POPC   C2B17780  15.431  41.805   8.379
 1221POPC   C3B17781  15.263  41.974   7.989
 1221POPC   C4B17782  15.398  41.929   7.520
 1222POPC   NC317783  30.112   3.615   9.459
 1222POPC   PO417784  30.738   3.374   9.633
 1222POPC   GL117785  30.701   3.393   9.162
 1222POPC   GL217786  30.645   3.735   9.019
 1222POPC   C1A17787  30.587   3.382   8.691
 1222POPC   D2A17788  30.675   3.747   8.447
 1222POPC   C3A17789  30.846   3.666   8.075
 1222POPC   C4A17790  30.706   3.567   7.665
 1222POPC   C1B17791  30.991   3.958   8.849
 1222POPC   C2B17792  31.173   3.878   8.463
 1222POPC   C3B17793  31.341   3.816   8.068
 1222POPC   C4B17794  31.187   3.898   7.719
 1223POPC   NC317795  31.136  13.930   9.957
 1223POPC   PO417796  30.786  14.458   9.645
 1223POPC   GL117797  30.712  14.401   9.172
 1223POPC   GL217798  30.969  14.437   8.943
 1223POPC   C1A17799  30.581  14.198   8.740
 1223POPC   D2A17800  30.767  14.337   8.320
 1223POPC   C3A17801  30.610  14.269   7.874
 1223POPC   C4A17802  30.896  14.200   7.525
 1223POPC   C1B17803  30.605  14.714   8.776
 1223POPC   C2B17804  30.457  14.941   8.416
 1223POPC   C3B17805  30.456  14.712   8.077
 1223POPC   C4B17806  30.356  14.683   7.685
 1224POPC   NC317807  18.047  31.729   9.488
 1224POPC   PO417808  18.604  31.331   9.554
 1224POPC   GL117809  18.359  31.417   9.183
 1224POPC   GL217810  18.461  31.767   9.167
 1224POPC   C1A17811  18.100  31.517   8.778
 1224POPC   D2A17812  17.928  31.503   8.328
 1224POPC   C3A17813  18.244  31.543   7.982
 1224POPC   C4A17814  18.663  31.342   7.879
 1224POPC   C1B17815  18.614  31.623   8.782
 1224POPC   C2B17816  18.514  31.714   8.375
 1224POPC   C3B17817  18.681  31.860   7.997
 1224POPC   C4B17818  18.619  31.841   7.579
 1225POPC   NC317819  37.534   8.131   9.773
 1225POPC   PO417820  37.955   8.558   9.469
 1225POPC   GL117821  37.756   8.292   9.162
 1225POPC   GL217822  37.443   8.139   9.225
 1225POPC   C1A17823  37.805   8.122   8.765
 1225POPC   D2A17824  38.051   7.964   8.461
 1225POPC   C3A17825  37.850   8.016   8.068
 1225POPC   C4A17826  37.680   8.332   7.829
 1225POPC   C1B17827  37.307   8.100   8.793
 1225POPC   C2B17828  37.442   8.001   8.381
 1225POPC   C3B17829  37.345   7.883   7.958
 1225POPC   C4B17830  37.419   7.980   7.557
 1226POPC   NC317831   7.285  20.229   9.563
 1226POPC   PO417832   7.349  20.860   9.707
 1226POPC   GL117833   7.478  20.613   9.276
 1226POPC   GL217834   7.784  20.663   9.135
 1226POPC   C1A17835   7.374  20.706   8.777
 1226POPC   D2A17836   7.247  20.486   8.388
 1226POPC   C3A17837   7.134  20.643   8.021
 1226POPC   C4A17838   6.984  20.776   7.609
 1226POPC   C1B17839   7.635  20.288   8.855
 1226POPC   C2B17840   7.635  20.171   8.405
 1226POPC   C3B17841   7.387  20.131   8.008
 1226POPC   C4B17842   7.291  20.360   7.627
 1227POPC   NC317843  18.363  16.506   9.514
 1227POPC   PO417844  17.978  16.933   9.256
 1227POPC   GL117845  18.157  16.573   9.036
 1227POPC   GL217846  18.508  16.546   9.035
 1227POPC   C1A17847  18.229  16.546   8.596
 1227POPC   D2A17848  18.181  16.535   8.172
 1227POPC   C3A17849  18.239  16.868   7.913
 1227POPC   C4A17850  18.151  16.612   7.592
 1227POPC   C1B17851  18.570  16.909   8.744
 1227POPC   C2B17852  18.632  16.722   8.324
 1227POPC   C3B17853  18.645  16.553   7.878
 1227POPC   C4B17854  18.655  16.909   7.602
 1228POPC   NC317855   3.239  10.583   9.442
 1228POPC   PO417856   3.754  10.294   9.536
 1228POPC   GL117857   3.673  10.467   9.161
 1228POPC   GL217858   3.374  10.303   9.015
 1228POPC   C1A17859   3.875  10.629   8.793
 1228POPC   D2A17860   3.645  10.495   8.450
 1228POPC   C3A17861   3.773  10.564   8.051
 1228POPC   C4A17862   3.420  10.529   7.750
 1228POPC   C1B17863   3.382  10.741   8.854
 1228POPC   C2B17864   3.325  10.938   8.522
 1228POPC   C3B17865   3.256  10.753   8.184
 1228POPC   C4B17866   3.098  10.926   7.863
 1229POPC   NC317867   0.202  24.673   9.505
 1229POPC   PO417868   0.757  24.569   9.402
 1229POPC   GL117869   0.558  24.743   9.020
 1229POPC   GL217870   0.215  24.826   9.032
 1229POPC   C1A17871   0.507  24.532   8.570
 1229POPC   D2A17872   0.714  24.280   8.197
 1229POPC   C3A17873   0.907  24.486   7.830
 1229POPC   C4A17874   0.777  24.505   7.416
 1229POPC   C1B17875   0.305  25.050   8.659
 1229POPC   C2B17876   0.468  24.957   8.278
 1229POPC   C3B17877   0.416  24.630   7.971
 1229POPC   C4B17878   0.221  24.577   7.558
 1230POPC   NC317879  21.088  37.144   9.545
 1230POPC   PO417880  21.695  36.786   9.586
 1230POPC   GL117881  21.495  36.852   9.186
 1230POPC   GL217882  21.277  37.117   9.082
 1230POPC   C1A17883  21.641  36.923   8.768
 1230POPC   D2A17884  21.765  36.682   8.434
 1230POPC   C3A17885  21.738  36.826   8.018
 1230POPC   C4A17886  21.469  36.745   7.697
 1230POPC   C1B17887  21.152  36.852   8.712
 1230POPC   C2B17888  21.303  36.995   8.305
 1230POPC   C3B17889  21.071  37.075   7.916
 1230POPC   C4B17890  21.017  36.884   7.506
 1231POPC   NC317891  12.521  17.710   9.523
 1231POPC   PO417892  12.739  17.064   9.495
 1231POPC   GL117893  12.532  17.306   9.139
 1231POPC   GL217894  12.624  17.664   9.028
 1231POPC   C1A17895  12.671  17.255   8.701
 1231POPC   D2A17896  12.860  17.317   8.303
 1231POPC   C3A17897  12.750  17.139   7.919
 1231POPC   C4A17898  12.865  17.510   7.711
 1231POPC   C1B17899  12.790  17.963   8.720
 1231POPC   C2B17900  12.902  17.951   8.282
 1231POPC   C3B17901  13.050  17.971   7.853
 1231POPC   C4B17902  13.374  17.679   7.700
 1232POPC   NC317903  38.598  41.349   9.492
 1232POPC   PO417904  38.139  41.772   9.314
 1232POPC   GL117905  38.226  41.653   8.952
 1232POPC   GL217906  38.380  41.379   9.040
 1232POPC   C1A17907  38.290  41.902   8.624
 1232POPC   D2A17908  38.318  41.904   8.224
 1232POPC   C3A17909  38.399  41.604   8.008
 1232POPC   C4A17910  38.304  41.426   7.655
 1232POPC   C1B17911  38.683  41.136   8.876
 1232POPC   C2B17912  38.853  41.227   8.519
 1232POPC   C3B17913  38.891  41.087   8.170
 1232POPC   C4B17914  38.753  41.283   7.846
 1233POPC   NC317915  18.029  19.671   9.499
 1233POPC   PO417916  18.425  20.265   9.463
 1233POPC   GL117917  18.213  20.030   9.152
 1233POPC   GL217918  17.850  20.053   9.185
 1233POPC   C1A17919  18.384  19.953   8.743
 1233POPC   D2A17920  18.523  20.057   8.346
 1233POPC   C3A17921  18.366  19.778   8.062
 1233POPC   C4A17922  18.413  19.945   7.681
 1233POPC   C1B17923  17.911  19.762   8.821
 1233POPC   C2B17924  17.992  19.634   8.377
 1233POPC   C3B17925  17.879  19.707   7.908
 1233POPC   C4B17926  17.937  19.848   7.461
 1234POPC   NC317927  11.944  14.540   9.518
 1234POPC   PO417928  12.046  13.914   9.457
 1234POPC   GL117929  12.156  14.233   9.122
 1234POPC   GL217930  11.937  14.511   9.003
 1234POPC   C1A17931  12.276  14.217   8.694
 1234POPC   D2A17932  12.251  14.046   8.285
 1234POPC   C3A17933  12.201  14.318   7.946
 1234POPC   C4A17934  11.847  14.586   7.849
 1234POPC   C1B17935  12.350  14.688   8.866
 1234POPC   C2B17936  12.516  14.686   8.470
 1234POPC   C3B17937  12.409  14.787   8.060
 1234POPC   C4B17938  12.584  14.603   7.719
 1235POPC   NC317939  38.788  15.076   9.413
 1235POPC   PO417940  39.435  15.382   9.649
 1235POPC   GL117941  39.217  15.317   9.220
 1235POPC   GL217942  38.948  15.522   9.228
 1235POPC   C1A17943  39.174  15.031   8.814
 1235POPC   D2A17944  39.320  14.872   8.390
 1235POPC   C3A17945  39.162  14.991   7.990
 1235POPC   C4A17946  39.383  15.221   7.692
 1235POPC   C1B17947  38.816  15.393   8.833
 1235POPC   C2B17948  39.011  15.317   8.424
 1235POPC   C3B17949  39.071  15.496   8.030
 1235POPC   C4B17950  38.907  15.400   7.626
 1236POPC   NC317951  42.975  20.488   9.443
 1236POPC   PO417952  42.872  21.198   9.410
 1236POPC   GL117953  43.133  20.908   9.173
 1236POPC   GL217954  42.832  20.798   9.047
 1236POPC   C1A17955  43.264  20.601   8.839
 1236POPC   D2A17956  43.378  20.441   8.447
 1236POPC   C3A17957  43.210  20.662   8.088
 1236POPC   C4A17958  43.430  20.537   7.729
 1236POPC   C1B17959  42.760  20.517   8.726
 1236POPC   C2B17960  42.894  20.339   8.363
 1236POPC   C3B17961  42.772  20.369   7.955
 1236POPC   C4B17962  42.936  20.605   7.624
 1237POPC   NC317963   0.727  40.062   9.400
 1237POPC   PO417964   0.309  39.579   9.467
 1237POPC   GL117965   0.292  39.872   9.113
 1237POPC   GL217966   0.103  40.184   9.116
 1237POPC   C1A17967   0.518  39.963   8.748
 1237POPC   D2A17968   0.622  40.122   8.344
 1237POPC   C3A17969   0.540  39.810   8.015
 1237POPC   C4A17970   0.753  39.776   7.601
 1237POPC   C1B17971   0.114  40.301   8.719
 1237POPC   C2B17972   0.139  40.081   8.359
 1237POPC   C3B17973   0.258  40.243   7.934
 1237POPC   C4B17974   0.015  40.303   7.562
 1238POPC   NC317975  25.160  41.664   9.524
 1238POPC   PO417976  25.204  40.998   9.342
 1238POPC   GL117977  25.186  41.394   9.073
 1238POPC   GL217978  25.298  41.779   9.062
 1238POPC   C1A17979  25.263  41.498   8.639
 1238POPC   D2A17980  25.203  41.765   8.288
 1238POPC   C3A17981  25.170  41.423   8.001
 1238POPC   C4A17982  25.355  41.309   7.631
 1238POPC   C1B17983  25.699  41.715   8.806
 1238POPC   C2B17984  25.717  41.590   8.356
 1238POPC   C3B17985  25.597  41.689   7.912
 1238POPC   C4B17986  25.250  41.856   7.731
 1239POPC   NC317987  43.130  42.873   9.463
 1239POPC   PO417988  42.803  43.488   9.489
 1239POPC   GL117989  43.021  43.281   9.141
 1239POPC   GL217990  42.826  42.967   9.081
 1239POPC   C1A17991  43.290  43.237   8.760
 1239POPC   D2A17992  43.296  43.011   8.343
 1239POPC   C3A17993  43.196  43.214   7.991
 1239POPC   C4A17994  43.369  43.437   7.686
 1239POPC   C1B17995  42.949  42.867   8.691
 1239POPC   C2B17996  42.828  42.770   8.305
 1239POPC   C3B17997  42.983  42.749   7.903
 1239POPC   C4B17998  43.104  42.978   7.533
 1240POPC   NC317999   0.865  17.398   9.347
 1240POPC   PO418000   1.475  17.180   9.474
 1240POPC   GL118001   1.310  17.456   9.125
 1240POPC   GL218002   1.201  17.788   8.993
 1240POPC   C1A18003   1.226  17.341   8.700
 1240POPC   D2A18004   1.266  17.465   8.283
 1240POPC   C3A18005   1.357  17.218   7.966
 1240POPC   C4A18006   1.491  17.418   7.618
 1240POPC   C1B18007   0.851  17.729   8.739
 1240POPC   C2B18008   0.765  17.656   8.335
 1240POPC   C3B18009   0.919  17.647   7.915
 1240POPC   C4B18010   0.679  17.657   7.543
 1241POPC   NC318011  37.501   5.652   9.497
 1241POPC   PO418012  37.927   6.106   9.648
 1241POPC   GL118013  37.876   5.896   9.224
 1241POPC   GL218014  37.526   5.812   9.029
 1241POPC   C1A18015  37.944   5.661   8.832
 1241POPC   D2A18016  37.628   5.674   8.504
 1241POPC   C3A18017  37.706   5.808   8.072
 1241POPC   C4A18018  37.851   5.694   7.685
 1241POPC   C1B18019  37.299   6.039   8.729
 1241POPC   C2B18020  37.076   6.192   8.372
 1241POPC   C3B18021  37.258   6.063   8.012
 1241POPC   C4B18022  37.327   6.234   7.629
 1242POPC   NC318023   0.026  28.309   9.339
 1242POPC   PO418024  44.532  28.619   9.640
 1242POPC   GL118025  44.463  28.473   9.190
 1242POPC   GL218026  44.764  28.519   8.960
 1242POPC   C1A18027  44.341  28.390   8.732
 1242POPC   D2A18028  44.554  28.553   8.343
 1242POPC   C3A18029  44.511  28.383   7.933
 1242POPC   C4A18030  44.538  28.423   7.481
 1242POPC   C1B18031  44.838  28.141   8.702
 1242POPC   C2B18032  44.841  28.088   8.266
 1242POPC   C3B18033  44.928  28.079   7.837
 1242POPC   C4B18034  44.867  28.022   7.412
 1243POPC   NC318035  12.704  13.046   9.514
 1243POPC   PO418036  13.085  12.455   9.597
 1243POPC   GL118037  12.874  12.644   9.193
 1243POPC   GL218038  12.513  12.685   9.171
 1243POPC   C1A18039  13.043  12.827   8.775
 1243POPC   D2A18040  12.954  12.727   8.364
 1243POPC   C3A18041  13.105  12.908   7.985
 1243POPC   C4A18042  13.071  12.582   7.666
 1243POPC   C1B18043  12.591  13.061   8.882
 1243POPC   C2B18044  12.675  13.153   8.464
 1243POPC   C3B18045  12.605  12.970   8.075
 1243POPC   C4B18046  12.706  13.027   7.674
 1244POPC   NC318047  33.450  39.603   9.518
 1244POPC   PO418048  33.029  39.062   9.434
 1244POPC   GL118049  33.041  39.379   9.172
 1244POPC   GL218050  33.398  39.282   9.143
 1244POPC   C1A18051  32.781  39.327   8.799
 1244POPC   D2A18052  32.870  39.047   8.422
 1244POPC   C3A18053  32.817  39.221   8.053
 1244POPC   C4A18054  32.731  39.224   7.631
 1244POPC   C1B18055  33.244  39.143   8.760
 1244POPC   C2B18056  33.149  39.463   8.429
 1244POPC   C3B18057  33.256  39.490   7.991
 1244POPC   C4B18058  33.234  39.147   7.737
 1245POPC   NC318059  26.182  12.846   9.608
 1245POPC   PO418060  25.545  13.043   9.627
 1245POPC   GL118061  25.756  12.894   9.223
 1245POPC   GL218062  26.003  12.650   9.168
 1245POPC   C1A18063  26.000  13.005   8.818
 1245POPC   D2A18064  25.836  12.962   8.389
 1245POPC   C3A18065  26.005  13.131   8.002
 1245POPC   C4A18066  25.813  13.018   7.622
 1245POPC   C1B18067  26.159  12.513   8.734
 1245POPC   C2B18068  26.207  12.526   8.256
 1245POPC   C3B18069  26.303  12.688   7.836
 1245POPC   C4B18070  26.587  12.982   7.592
 1246POPC   NC318071  10.658  34.162   9.402
 1246POPC   PO418072  10.100  33.740   9.514
 1246POPC   GL118073  10.303  33.869   9.117
 1246POPC   GL218074  10.428  33.546   9.097
 1246POPC   C1A18075  10.641  34.005   8.768
 1246POPC   D2A18076  10.707  34.252   8.367
 1246POPC   C3A18077  10.359  34.144   8.107
 1246POPC   C4A18078  10.272  33.736   7.881
 1246POPC   C1B18079  10.867  33.565   8.963
 1246POPC   C2B18080  10.963  33.558   8.522
 1246POPC   C3B18081  10.712  33.733   8.170
 1246POPC   C4B18082  10.771  33.705   7.710
 1247POPC   NC318083  39.591   6.911   9.469
 1247POPC   PO418084  38.981   6.889   9.538
 1247POPC   GL118085  39.201   6.650   9.218
 1247POPC   GL218086  39.303   6.910   9.010
 1247POPC   C1A18087  39.319   6.397   8.847
 1247POPC   D2A18088  39.131   6.311   8.421
 1247POPC   C3A18089  39.265   6.359   7.968
 1247POPC   C4A18090  39.288   6.658   7.637
 1247POPC   C1B18091  39.179   6.811   8.564
 1247POPC   C2B18092  39.230   6.852   8.129
 1247POPC   C3B18093  39.461   7.109   7.818
 1247POPC   C4B18094  39.688   6.990   7.463
 1248POPC   NC318095  44.985   2.395   9.782
 1248POPC   PO418096   0.476   2.044   9.577
 1248POPC   GL118097   0.515   1.988   9.110
 1248POPC   GL218098   0.726   2.285   9.034
 1248POPC   C1A18099   0.165   1.958   8.801
 1248POPC   D2A18100  44.955   2.013   8.398
 1248POPC   C3A18101   0.115   1.794   8.040
 1248POPC   C4A18102   0.397   1.679   7.692
 1248POPC   C1B18103   0.462   2.349   8.693
 1248POPC   C2B18104   0.436   2.146   8.341
 1248POPC   C3B18105   0.533   2.086   7.937
 1248POPC   C4B18106   0.396   2.323   7.590
 1249POPC   NC318107  30.255   7.972   9.192
 1249POPC   PO418108  30.769   7.734   9.570
 1249POPC   GL118109  30.706   7.600   9.114
 1249POPC   GL218110  30.885   7.297   9.060
 1249POPC   C1A18111  30.626   7.465   8.650
 1249POPC   D2A18112  30.942   7.307   8.310
 1249POPC   C3A18113  30.865   7.455   7.899
 1249POPC   C4A18114  30.439   7.459   7.842
 1249POPC   C1B18115  30.844   7.021   8.744
 1249POPC   C2B18116  30.531   6.983   8.412
 1249POPC   C3B18117  30.632   6.980   7.980
 1249POPC   C4B18118  30.596   7.004   7.537
 1250POPC   NC318119  36.340  32.992   9.603
 1250POPC   PO418120  37.022  32.969   9.679
 1250POPC   GL118121  36.800  32.852   9.276
 1250POPC   GL218122  36.749  33.122   9.000
 1250POPC   C1A18123  36.913  32.600   8.902
 1250POPC   D2A18124  36.978  32.508   8.464
 1250POPC   C3A18125  36.865  32.814   8.131
 1250POPC   C4A18126  36.812  32.750   7.700
 1250POPC   C1B18127  36.958  33.010   8.615
 1250POPC   C2B18128  37.273  33.088   8.320
 1250POPC   C3B18129  37.164  33.233   7.923
 1250POPC   C4B18130  36.749  33.245   7.755
 1251POPC   NC318131   0.271  21.948   9.446
 1251POPC   PO418132   0.123  22.453   9.161
 1251POPC   GL118133   0.315  22.069   8.967
 1251POPC   GL218134   0.049  21.813   8.982
 1251POPC   C1A18135   0.456  21.884   8.592
 1251POPC   D2A18136   0.349  22.087   8.220
 1251POPC   C3A18137   0.667  22.179   7.914
 1251POPC   C4A18138   0.908  22.036   7.572
 1251POPC   C1B18139  44.941  22.105   8.617
 1251POPC   C2B18140  44.878  22.280   8.203
 1251POPC   C3B18141   0.145  22.375   7.838
 1251POPC   C4B18142   0.390  22.255   7.474
 1252POPC   NC318143  19.511  18.263   9.484
 1252POPC   PO418144  18.909  17.868   9.496
 1252POPC   GL118145  19.097  18.159   9.225
 1252POPC   GL218146  19.358  17.934   9.074
 1252POPC   C1A18147  19.046  18.457   8.872
 1252POPC   D2A18148  19.109  18.635   8.471
 1252POPC   C3A18149  19.208  18.370   8.127
 1252POPC   C4A18150  19.133  18.326   7.691
 1252POPC   C1B18151  18.987  17.930   8.807
 1252POPC   C2B18152  18.894  18.112   8.431
 1252POPC   C3B18153  18.909  17.951   8.017
 1252POPC   C4B18154  19.057  17.809   7.643
 1253POPC   NC318155  31.874   9.705   9.532
 1253POPC   PO418156  32.350  10.129   9.505
 1253POPC   GL118157  32.188   9.891   9.126
 1253POPC   GL218158  32.085   9.533   9.120
 1253POPC   C1A18159  32.320   9.756   8.697
 1253POPC   D2A18160  32.591   9.704   8.363
 1253POPC   C3A18161  32.411   9.778   7.986
 1253POPC   C4A18162  32.430   9.700   7.544
 1253POPC   C1B18163  31.878   9.519   8.767
 1253POPC   C2B18164  32.009   9.358   8.423
 1253POPC   C3B18165  32.004   9.500   8.059
 1253POPC   C4B18166  31.924   9.716   7.709
 1254POPC   NC318167  41.397  44.517   9.526
 1254POPC   PO418168  41.660   0.141   9.441
 1254POPC   GL118169  41.752  44.877   9.098
 1254POPC   GL218170  41.404  44.784   9.072
 1254POPC   C1A18171  41.691  44.743   8.652
 1254POPC   D2A18172  41.885  44.752   8.262
 1254POPC   C3A18173  41.661  44.693   7.859
 1254POPC   C4A18174  41.583  44.759   7.395
 1254POPC   C1B18175  41.380  44.373   8.839
 1254POPC   C2B18176  41.362  44.184   8.443
 1254POPC   C3B18177  41.292  44.278   8.022
 1254POPC   C4B18178  41.294  44.427   7.626
 1255POPC   NC318179   6.855  15.443   9.436
 1255POPC   PO418180   6.460  14.905   9.478
 1255POPC   GL118181   6.534  15.121   9.102
 1255POPC   GL218182   6.404  15.417   9.140
 1255POPC   C1A18183   6.552  15.212   8.646
 1255POPC   D2A18184   6.867  15.303   8.331
 1255POPC   C3A18185   6.767  15.220   7.887
 1255POPC   C4A18186   6.566  14.953   7.604
 1255POPC   C1B18187   6.107  15.422   8.837
 1255POPC   C2B18188   6.215  15.624   8.479
 1255POPC   C3B18189   6.405  15.492   8.146
 1255POPC   C4B18190   6.255  15.355   7.760
 1256POPC   NC318191  17.254   0.341   9.433
 1256POPC   PO418192  17.772   0.614   9.684
 1256POPC   GL118193  17.615   0.729   9.243
 1256POPC   GL218194  17.269   0.675   9.075
 1256POPC   C1A18195  17.679   0.697   8.788
 1256POPC   D2A18196  17.712   0.465   8.410
 1256POPC   C3A18197  17.492   0.653   8.083
 1256POPC   C4A18198  17.587   0.711   7.622
 1256POPC   C1B18199  17.227   0.520   8.643
 1256POPC   C2B18200  17.234   0.219   8.330
 1256POPC   C3B18201  17.288   0.207   7.903
 1256POPC   C4B18202  17.105   0.548   7.746
 1257POPC   NC318203  16.203   5.943   9.608
 1257POPC   PO418204  16.842   5.759   9.577
 1257POPC   GL118205  16.842   5.576   9.172
 1257POPC   GL218206  16.486   5.665   9.176
 1257POPC   C1A18207  17.037   5.708   8.765
 1257POPC   D2A18208  16.925   5.897   8.350
 1257POPC   C3A18209  16.852   5.677   7.935
 1257POPC   C4A18210  16.847   5.918   7.543
 1257POPC   C1B18211  16.537   5.493   8.739
 1257POPC   C2B18212  16.393   5.380   8.288
 1257POPC   C3B18213  16.382   5.463   7.820
 1257POPC   C4B18214  16.169   5.511   7.390
 1258POPC   NC318215   4.656  15.776   9.709
 1258POPC   PO418216   4.040  15.958   9.478
 1258POPC   GL118217   4.405  15.925   9.247
 1258POPC   GL218218   4.189  15.732   9.055
 1258POPC   C1A18219   4.637  15.854   8.853
 1258POPC   D2A18220   4.682  15.616   8.455
 1258POPC   C3A18221   4.665  15.844   8.052
 1258POPC   C4A18222   4.510  15.923   7.647
 1258POPC   C1B18223   4.200  15.711   8.623
 1258POPC   C2B18224   3.991  15.883   8.289
 1258POPC   C3B18225   4.122  15.799   7.951
 1258POPC   C4B18226   4.129  15.571   7.637
 1259POPC   NC318227   5.226  43.341   9.747
 1259POPC   PO418228   4.701  43.013   9.539
 1259POPC   GL118229   5.074  43.024   9.294
 1259POPC   GL218230   5.178  43.350   9.213
 1259POPC   C1A18231   5.266  42.966   8.876
 1259POPC   D2A18232   5.292  43.203   8.492
 1259POPC   C3A18233   5.036  43.070   8.150
 1259POPC   C4A18234   5.048  43.121   7.719
 1259POPC   C1B18235   4.910  43.316   8.832
 1259POPC   C2B18236   4.739  43.420   8.409
 1259POPC   C3B18237   4.689  43.411   7.953
 1259POPC   C4B18238   4.527  43.141   7.639
 1260POPC   NC318239   4.299   7.902   9.504
 1260POPC   PO418240   4.614   7.285   9.543
 1260POPC   GL118241   4.432   7.438   9.187
 1260POPC   GL218242   4.628   7.692   9.152
 1260POPC   C1A18243   4.314   7.509   8.768
 1260POPC   D2A18244   4.360   7.281   8.387
 1260POPC   C3A18245   4.047   7.288   8.063
 1260POPC   C4A18246   4.234   7.169   7.708
 1260POPC   C1B18247   4.792   7.677   8.778
 1260POPC   C2B18248   4.586   7.727   8.393
 1260POPC   C3B18249   4.426   7.669   7.990
 1260POPC   C4B18250   4.740   7.799   7.687
 1261POPC   NC318251  39.382  32.686   9.572
 1261POPC   PO418252  39.337  33.359   9.461
 1261POPC   GL118253  39.292  33.114   9.116
 1261POPC   GL218254  39.596  32.944   9.159
 1261POPC   C1A18255  39.147  33.255   8.687
 1261POPC   D2A18256  38.916  33.306   8.284
 1261POPC   C3A18257  39.036  33.078   7.955
 1261POPC   C4A18258  39.227  33.013   7.610
 1261POPC   C1B18259  39.646  33.075   8.730
 1261POPC   C2B18260  39.499  33.161   8.323
 1261POPC   C3B18261  39.535  32.903   7.986
 1261POPC   C4B18262  39.693  33.184   7.671
 1262POPC   NC318263   1.923   2.096   9.669
 1262POPC   PO418264   2.082   1.478   9.486
 1262POPC   GL118265   2.101   1.900   9.206
 1262POPC   GL218266   1.899   2.201   9.129
 1262POPC   C1A18267   2.221   2.020   8.760
 1262POPC   D2A18268   2.069   2.067   8.361
 1262POPC   C3A18269   2.174   1.817   7.975
 1262POPC   C4A18270   1.883   1.798   7.627
 1262POPC   C1B18271   1.898   2.436   8.731
 1262POPC   C2B18272   1.828   2.526   8.295
 1262POPC   C3B18273   1.790   2.199   7.960
 1262POPC   C4B18274   1.526   2.167   7.614
 1263POPC   NC318275  15.035  28.753   9.467
 1263POPC   PO418276  15.288  28.130   9.481
 1263POPC   GL118277  15.101  28.348   9.158
 1263POPC   GL218278  14.755  28.247   9.155
 1263POPC   C1A18279  15.053  28.593   8.781
 1263POPC   D2A18280  15.327  28.635   8.421
 1263POPC   C3A18281  15.111  28.587   8.027
 1263POPC   C4A18282  15.169  28.792   7.642
 1263POPC   C1B18283  14.963  28.073   8.754
 1263POPC   C2B18284  14.915  28.053   8.292
 1263POPC   C3B18285  15.064  28.105   7.866
 1263POPC   C4B18286  14.899  28.379   7.571
 1264POPC   NC318287  34.366  39.403   9.578
 1264POPC   PO418288  34.916  39.254   9.398
 1264POPC   GL118289  34.778  39.368   9.032
 1264POPC   GL218290  34.472  39.332   9.101
 1264POPC   C1A18291  34.625  39.246   8.630
 1264POPC   D2A18292  34.374  39.045   8.331
 1264POPC   C3A18293  34.548  39.070   7.947
 1264POPC   C4A18294  34.755  39.321   7.668
 1264POPC   C1B18295  34.142  39.404   8.853
 1264POPC   C2B18296  34.041  39.537   8.446
 1264POPC   C3B18297  34.241  39.476   8.022
 1264POPC   C4B18298  34.238  39.285   7.592
 1265POPC   NC318299  18.732  34.783   9.552
 1265POPC   PO418300  19.354  34.455   9.601
 1265POPC   GL118301  19.097  34.567   9.266
 1265POPC   GL218302  19.294  34.856   9.130
 1265POPC   C1A18303  18.853  34.712   8.885
 1265POPC   D2A18304  18.930  35.020   8.550
 1265POPC   C3A18305  18.942  34.858   8.122
 1265POPC   C4A18306  19.145  34.793   7.726
 1265POPC   C1B18307  19.342  34.494   8.839
 1265POPC   C2B18308  19.304  34.317   8.450
 1265POPC   C3B18309  19.321  34.437   8.042
 1265POPC   C4B18310  18.989  34.255   7.797
 1266POPC   NC318311   5.746  28.316   9.500
 1266POPC   PO418312   6.107  28.840   9.252
 1266POPC   GL118313   6.045  28.439   9.099
 1266POPC   GL218314   6.250  28.214   9.240
 1266POPC   C1A18315   5.792  28.177   8.829
 1266POPC   D2A18316   5.552  28.288   8.454
 1266POPC   C3A18317   5.699  28.126   8.045
 1266POPC   C4A18318   5.819  28.450   7.797
 1266POPC   C1B18319   6.287  28.006   8.824
 1266POPC   C2B18320   6.069  28.069   8.409
 1266POPC   C3B18321   6.259  28.131   7.984
 1266POPC   C4B18322   6.410  27.994   7.547
 1267POPC   NC318323  36.493  28.580   9.357
 1267POPC   PO418324  36.175  29.187   9.460
 1267POPC   GL118325  36.196  28.964   9.123
 1267POPC   GL218326  35.859  28.959   9.031
 1267POPC   C1A18327  36.397  29.070   8.764
 1267POPC   D2A18328  36.539  29.194   8.385
 1267POPC   C3A18329  36.481  28.966   8.005
 1267POPC   C4A18330  36.513  29.138   7.621
 1267POPC   C1B18331  35.903  29.120   8.635
 1267POPC   C2B18332  36.019  28.911   8.272
 1267POPC   C3B18333  35.888  28.728   7.914
 1267POPC   C4B18334  36.021  28.976   7.587
 1268POPC   NC318335  37.692  30.190   9.405
 1268POPC   PO418336  37.549  29.521   9.482
 1268POPC   GL118337  37.582  29.766   9.116
 1268POPC   GL218338  37.957  29.729   9.089
 1268POPC   C1A18339  37.647  29.948   8.693
 1268POPC   D2A18340  37.435  30.163   8.337
 1268POPC   C3A18341  37.590  30.199   7.900
 1268POPC   C4A18342  37.543  30.102   7.460
 1268POPC   C1B18343  38.173  29.904   8.700
 1268POPC   C2B18344  38.136  30.024   8.256
 1268POPC   C3B18345  37.959  29.832   7.891
 1268POPC   C4B18346  37.682  29.641   7.620
 1269POPC   NC318347  40.939  34.766   9.551
 1269POPC   PO418348  40.582  34.257   9.535
 1269POPC   GL118349  40.818  34.428   9.175
 1269POPC   GL218350  41.121  34.610   9.071
 1269POPC   C1A18351  40.682  34.528   8.773
 1269POPC   D2A18352  40.727  34.287   8.427
 1269POPC   C3A18353  40.710  34.496   8.032
 1269POPC   C4A18354  40.675  34.303   7.642
 1269POPC   C1B18355  41.157  34.516   8.589
 1269POPC   C2B18356  41.215  34.582   8.169
 1269POPC   C3B18357  41.143  34.515   7.759
 1269POPC   C4B18358  41.097  34.315   7.371
 1270POPC   NC318359  42.056  27.320   9.312
 1270POPC   PO418360  41.568  27.652   9.706
 1270POPC   GL118361  41.606  27.542   9.273
 1270POPC   GL218362  41.499  27.250   9.189
 1270POPC   C1A18363  41.754  27.697   8.843
 1270POPC   D2A18364  41.736  27.501   8.433
 1270POPC   C3A18365  41.659  27.741   8.057
 1270POPC   C4A18366  41.706  27.541   7.669
 1270POPC   C1B18367  41.279  27.525   8.835
 1270POPC   C2B18368  41.253  27.732   8.391
 1270POPC   C3B18369  41.191  27.570   7.931
 1270POPC   C4B18370  41.262  27.620   7.463
 1271POPC   NC318371   1.958  39.255   9.721
 1271POPC   PO418372   1.596  39.046   9.177
 1271POPC   GL118373   1.913  39.306   9.057
 1271POPC   GL218374   2.215  39.277   9.173
 1271POPC   C1A18375   2.031  39.406   8.672
 1271POPC   D2A18376   1.847  39.223   8.339
 1271POPC   C3A18377   1.980  39.401   8.016
 1271POPC   C4A18378   2.189  39.502   7.656
 1271POPC   C1B18379   2.388  39.042   8.767
 1271POPC   C2B18380   2.368  39.133   8.313
 1271POPC   C3B18381   2.295  39.036   7.855
 1271POPC   C4B18382   2.173  39.060   7.387
 1272POPC   NC318383  10.944  35.643   9.496
 1272POPC   PO418384  10.476  36.110   9.474
 1272POPC   GL118385  10.551  36.312   9.107
 1272POPC   GL218386  10.904  36.264   9.148
 1272POPC   C1A18387  10.369  36.185   8.721
 1272POPC   D2A18388  10.237  35.861   8.477
 1272POPC   C3A18389  10.405  36.025   8.126
 1272POPC   C4A18390  10.443  35.936   7.724
 1272POPC   C1B18391  10.828  35.954   8.870
 1272POPC   C2B18392  10.771  35.871   8.446
 1272POPC   C3B18393  10.914  35.972   8.036
 1272POPC   C4B18394  10.744  36.341   7.834
 1273POPC   NC318395  25.695   2.336   9.502
 1273POPC   PO418396  26.057   1.769   9.566
 1273POPC   GL118397  26.102   1.828   9.086
 1273POPC   GL218398  26.337   2.003   8.934
 1273POPC   C1A18399  25.886   1.938   8.690
 1273POPC   D2A18400  25.956   2.217   8.322
 1273POPC   C3A18401  26.060   1.974   7.971
 1273POPC   C4A18402  25.768   1.819   7.646
 1273POPC   C1B18403  26.371   1.967   8.508
 1273POPC   C2B18404  26.515   2.282   8.274
 1273POPC   C3B18405  26.310   2.460   7.982
 1273POPC   C4B18406  26.445   2.196   7.708
 1274POPC   NC318407  12.875  34.263   9.934
 1274POPC   PO418408  12.731  33.885   9.369
 1274POPC   GL118409  12.857  33.780   8.983
 1274POPC   GL218410  12.738  33.417   8.910
 1274POPC   C1A18411  12.929  33.969   8.609
 1274POPC   D2A18412  12.812  34.167   8.270
 1274POPC   C3A18413  12.824  33.936   7.950
 1274POPC   C4A18414  12.905  34.058   7.574
 1274POPC   C1B18415  13.111  33.455   8.677
 1274POPC   C2B18416  13.014  33.579   8.271
 1274POPC   C3B18417  12.751  33.428   7.975
 1274POPC   C4B18418  12.625  33.606   7.609
 1275POPC   NC318419  39.791  31.728   9.394
 1275POPC   PO418420  40.310  31.337   9.503
 1275POPC   GL118421  40.040  31.295   9.142
 1275POPC   GL218422  40.161  31.620   9.033
 1275POPC   C1A18423  39.766  31.413   8.760
 1275POPC   D2A18424  39.955  31.604   8.379
 1275POPC   C3A18425  39.780  31.770   7.970
 1275POPC   C4A18426  39.827  31.582   7.549
 1275POPC   C1B18427  40.434  31.840   8.752
 1275POPC   C2B18428  40.635  31.708   8.402
 1275POPC   C3B18429  40.410  31.473   8.113
 1275POPC   C4B18430  40.263  31.695   7.767
 1276POPC   NC318431  37.963   5.008   9.786
 1276POPC   PO418432  38.534   5.311   9.601
 1276POPC   GL118433  38.451   5.224   9.198
 1276POPC   GL218434  38.167   5.054   9.264
 1276POPC   C1A18435  38.630   5.088   8.815
 1276POPC   D2A18436  38.448   5.018   8.456
 1276POPC   C3A18437  38.669   5.133   8.082
 1276POPC   C4A18438  38.602   5.042   7.656
 1276POPC   C1B18439  38.089   5.170   8.835
 1276POPC   C2B18440  38.029   5.332   8.422
 1276POPC   C3B18441  38.134   5.121   8.037
 1276POPC   C4B18442  38.193   5.313   7.655
 1277POPC   NC318443  12.700   0.518   9.410
 1277POPC   PO418444  13.180  44.964   9.456
 1277POPC   GL118445  13.198   0.301   9.155
 1277POPC   GL218446  13.054   0.657   9.090
 1277POPC   C1A18447  13.173   0.341   8.723
 1277POPC   D2A18448  12.960   0.413   8.373
 1277POPC   C3A18449  12.913   0.154   8.032
 1277POPC   C4A18450  12.552   0.289   7.801
 1277POPC   C1B18451  12.810   0.760   8.718
 1277POPC   C2B18452  12.879   0.912   8.288
 1277POPC   C3B18453  12.909   0.725   7.886
 1277POPC   C4B18454  12.969   0.818   7.442
 1278POPC   NC318455  42.245  17.875   9.440
 1278POPC   PO418456  42.835  17.693   9.712
 1278POPC   GL118457  42.688  17.495   9.259
 1278POPC   GL218458  42.335  17.404   9.242
 1278POPC   C1A18459  42.575  17.345   8.815
 1278POPC   D2A18460  42.594  17.540   8.426
 1278POPC   C3A18461  42.397  17.426   8.032
 1278POPC   C4A18462  42.491  17.695   7.682
 1278POPC   C1B18463  42.213  17.685   8.823
 1278POPC   C2B18464  42.106  17.657   8.387
 1278POPC   C3B18465  42.036  17.816   7.990
 1278POPC   C4B18466  41.969  17.692   7.619
 1279POPC   NC318467  38.455   0.074   9.475
 1279POPC   PO418468  38.081   0.684   9.554
 1279POPC   GL118469  38.364   0.497   9.217
 1279POPC   GL218470  38.187   0.179   9.076
 1279POPC   C1A18471  38.514   0.437   8.793
 1279POPC   D2A18472  38.558   0.271   8.368
 1279POPC   C3A18473  38.697   0.483   8.037
 1279POPC   C4A18474  38.522   0.597   7.668
 1279POPC   C1B18475  38.231   0.016   8.661
 1279POPC   C2B18476  38.090   0.068   8.255
 1279POPC   C3B18477  38.338   0.131   7.911
 1279POPC   C4B18478  38.269   0.096   7.486
 1280POPC   NC318479  39.520   3.212   9.481
 1280POPC   PO418480  39.304   3.901   9.474
 1280POPC   GL118481  39.158   3.753   9.123
 1280POPC   GL218482  39.113   3.408   9.224
 1280POPC   C1A18483  39.281   3.840   8.722
 1280POPC   D2A18484  39.189   3.663   8.350
 1280POPC   C3A18485  39.511   3.807   8.118
 1280POPC   C4A18486  39.391   4.018   7.813
 1280POPC   C1B18487  39.124   3.329   8.798
 1280POPC   C2B18488  38.817   3.354   8.499
 1280POPC   C3B18489  38.843   3.341   8.063
 1280POPC   C4B18490  39.223   3.487   7.861
 1281POPC   NC318491  16.238  39.843   9.541
 1281POPC   PO418492  15.621  40.095   9.500
 1281POPC   GL118493  15.838  40.190   9.134
 1281POPC   GL218494  16.187  40.107   9.097
 1281POPC   C1A18495  15.685  40.099   8.745
 1281POPC   D2A18496  15.689  39.870   8.360
 1281POPC   C3A18497  15.733  40.092   7.976
 1281POPC   C4A18498  15.980  39.932   7.725
 1281POPC   C1B18499  16.195  40.028   8.664
 1281POPC   C2B18500  16.184  39.999   8.218
 1281POPC   C3B18501  16.182  40.360   7.924
 1281POPC   C4B18502  16.438  40.443   7.528
 1282POPC   NC318503  17.194  22.688   9.413
 1282POPC   PO418504  16.501  22.944   9.564
 1282POPC   GL118505  16.654  22.877   9.157
 1282POPC   GL218506  16.896  23.127   9.238
 1282POPC   C1A18507  16.655  22.842   8.691
 1282POPC   D2A18508  16.800  22.599   8.333
 1282POPC   C3A18509  16.725  22.780   7.952
 1282POPC   C4A18510  16.416  22.982   7.785
 1282POPC   C1B18511  16.935  23.268   8.825
 1282POPC   C2B18512  17.042  23.350   8.404
 1282POPC   C3B18513  17.128  23.103   8.030
 1282POPC   C4B18514  16.875  23.201   7.655
 1283POPC   NC318515  37.455   8.619   9.425
 1283POPC   PO418516  37.630   9.243   9.397
 1283POPC   GL118517  37.688   8.882   9.069
 1283POPC   GL218518  38.020   8.707   8.998
 1283POPC   C1A18519  37.521   8.568   8.769
 1283POPC   D2A18520  37.670   8.458   8.345
 1283POPC   C3A18521  37.550   8.783   8.024
 1283POPC   C4A18522  37.616   8.877   7.582
 1283POPC   C1B18523  37.904   8.847   8.593
 1283POPC   C2B18524  37.879   9.109   8.254
 1283POPC   C3B18525  37.871   9.241   7.851
 1283POPC   C4B18526  37.853   9.558   7.500
 1284POPC   NC318527  22.640  15.309   9.392
 1284POPC   PO418528  23.241  14.975   9.451
 1284POPC   GL118529  23.042  14.918   9.061
 1284POPC   GL218530  22.998  15.255   8.944
 1284POPC   C1A18531  23.137  14.901   8.613
 1284POPC   D2A18532  23.230  15.063   8.201
 1284POPC   C3A18533  22.996  14.779   7.944
 1284POPC   C4A18534  22.710  14.876   7.593
 1284POPC   C1B18535  22.645  15.167   8.711
 1284POPC   C2B18536  22.742  15.052   8.312
 1284POPC   C3B18537  22.730  15.236   7.946
 1284POPC   C4B18538  22.725  15.404   7.529
 1285POPC   NC318539  31.539  14.672   9.535
 1285POPC   PO418540  31.671  13.999   9.559
 1285POPC   GL118541  31.418  14.266   9.204
 1285POPC   GL218542  31.421  14.634   9.062
 1285POPC   C1A18543  31.461  14.237   8.739
 1285POPC   D2A18544  31.718  14.184   8.363
 1285POPC   C3A18545  31.500  14.300   7.982
 1285POPC   C4A18546  31.126  14.551   7.852
 1285POPC   C1B18547  31.661  14.751   8.741
 1285POPC   C2B18548  31.539  14.686   8.342
 1285POPC   C3B18549  31.744  14.746   7.976
 1285POPC   C4B18550  31.741  14.688   7.564
 1286POPC   NC318551   7.520  38.084   9.407
 1286POPC   PO418552   7.393  37.344   9.505
 1286POPC   GL118553   7.325  37.639   9.179
 1286POPC   GL218554   7.612  37.519   9.019
 1286POPC   C1A18555   7.401  37.947   8.802
 1286POPC   D2A18556   7.397  38.139   8.406
 1286POPC   C3A18557   7.618  37.863   8.129
 1286POPC   C4A18558   7.544  37.832   7.713
 1286POPC   C1B18559   7.238  37.466   8.712
 1286POPC   C2B18560   7.269  37.462   8.266
 1286POPC   C3B18561   7.379  37.368   7.852
 1286POPC   C4B18562   7.499  37.359   7.395
 1287POPC   NC318563  38.031  34.549   9.581
 1287POPC   PO418564  37.338  34.765   9.531
 1287POPC   GL118565  37.562  34.604   9.167
 1287POPC   GL218566  37.908  34.673   9.120
 1287POPC   C1A18567  37.571  34.276   8.831
 1287POPC   D2A18568  37.652  34.071   8.425
 1287POPC   C3A18569  37.727  34.306   8.044
 1287POPC   C4A18570  37.437  34.445   7.755
 1287POPC   C1B18571  38.077  34.360   8.844
 1287POPC   C2B18572  38.012  34.490   8.425
 1287POPC   C3B18573  38.029  34.732   8.018
 1287POPC   C4B18574  37.911  34.585   7.630
 1288POPC   NC318575  24.956  22.532   9.353
 1288POPC   PO418576  25.372  22.956   9.715
 1288POPC   GL118577  25.216  22.948   9.179
 1288POPC   GL218578  24.894  23.038   9.128
 1288POPC   C1A18579  25.142  22.737   8.724
 1288POPC   D2A18580  25.384  22.567   8.328
 1288POPC   C3A18581  25.252  22.696   7.878
 1288POPC   C4A18582  25.470  22.907   7.519
 1288POPC   C1B18583  25.108  23.243   8.748
 1288POPC   C2B18584  25.092  23.147   8.281
 1288POPC   C3B18585  25.227  23.249   7.849
 1288POPC   C4B18586  25.059  23.350   7.393
 1289POPC   NC318587   8.614  16.985   9.397
 1289POPC   PO418588   9.129  17.467   9.522
 1289POPC   GL118589   9.043  17.471   9.119
 1289POPC   GL218590   8.733  17.433   9.137
 1289POPC   C1A18591   9.080  17.715   8.744
 1289POPC   D2A18592   9.056  17.542   8.302
 1289POPC   C3A18593   9.076  17.834   7.953
 1289POPC   C4A18594   9.338  18.007   7.623
 1289POPC   C1B18595   8.769  17.305   8.697
 1289POPC   C2B18596   8.593  17.291   8.274
 1289POPC   C3B18597   8.679  17.495   7.895
 1289POPC   C4B18598   8.613  17.894   7.735
 1290POPC   NC318599   8.322  23.225   9.548
 1290POPC   PO418600   8.087  22.641   9.441
 1290POPC   GL118601   8.061  22.954   9.147
 1290POPC   GL218602   8.435  22.959   9.124
 1290POPC   C1A18603   7.819  22.863   8.773
 1290POPC   D2A18604   7.930  23.023   8.381
 1290POPC   C3A18605   8.046  22.728   8.090
 1290POPC   C4A18606   7.832  22.678   7.724
 1290POPC   C1B18607   8.330  22.871   8.707
 1290POPC   C2B18608   8.440  23.030   8.319
 1290POPC   C3B18609   8.266  23.198   7.956
 1290POPC   C4B18610   8.374  22.861   7.714
 1291POPC   NC318611   9.465  13.528   9.437
 1291POPC   PO418612  10.218  13.692   9.381
 1291POPC   GL118613   9.909  13.482   9.138
 1291POPC   GL218614  10.112  13.333   8.867
 1291POPC   C1A18615   9.592  13.355   8.836
 1291POPC   D2A18616   9.382  13.508   8.476
 1291POPC   C3A18617   9.596  13.553   8.086
 1291POPC   C4A18618   9.459  13.468   7.681
 1291POPC   C1B18619   9.924  13.606   8.546
 1291POPC   C2B18620   9.871  13.946   8.271
 1291POPC   C3B18621  10.015  13.852   7.896
 1291POPC   C4B18622   9.832  13.771   7.527
 1292POPC   NC318623  11.385  17.217   9.141
 1292POPC   PO418624  11.178  17.746   9.587
 1292POPC   GL118625  11.241  17.730   9.209
 1292POPC   GL218626  11.576  17.766   9.240
 1292POPC   C1A18627  11.207  17.742   8.803
 1292POPC   D2A18628  11.198  17.454   8.469
 1292POPC   C3A18629  11.091  17.619   8.084
 1292POPC   C4A18630  11.256  17.542   7.719
 1292POPC   C1B18631  11.751  17.856   8.867
 1292POPC   C2B18632  11.570  17.820   8.461
 1292POPC   C3B18633  11.601  17.750   8.035
 1292POPC   C4B18634  11.801  17.805   7.616
 1293POPC   NC318635   7.992  33.025   9.590
 1293POPC   PO418636   8.462  33.487   9.441
 1293POPC   GL118637   8.142  33.256   9.138
 1293POPC   GL218638   8.000  32.907   9.085
 1293POPC   C1A18639   8.163  33.195   8.686
 1293POPC   D2A18640   8.074  33.020   8.290
 1293POPC   C3A18641   8.145  33.243   7.914
 1293POPC   C4A18642   8.398  32.941   7.656
 1293POPC   C1B18643   7.731  32.893   8.685
 1293POPC   C2B18644   7.675  32.699   8.278
 1293POPC   C3B18645   7.888  32.756   7.851
 1293POPC   C4B18646   7.898  33.044   7.519
 1294POPC   NC318647  43.364  16.289   9.992
 1294POPC   PO418648  42.836  16.003   9.544
 1294POPC   GL118649  42.974  15.915   9.128
 1294POPC   GL218650  42.714  15.667   9.088
 1294POPC   C1A18651  43.046  16.119   8.723
 1294POPC   D2A18652  42.953  16.126   8.279
 1294POPC   C3A18653  43.270  15.909   8.033
 1294POPC   C4A18654  43.582  16.183   7.807
 1294POPC   C1B18655  42.700  15.735   8.631
 1294POPC   C2B18656  42.911  15.582   8.245
 1294POPC   C3B18657  42.972  15.471   7.802
 1294POPC   C4B18658  42.862  15.665   7.401
 1295POPC   NC318659  17.193   7.091   9.559
 1295POPC   PO418660  17.715   7.382   9.550
 1295POPC   GL118661  17.611   7.342   9.164
 1295POPC   GL218662  17.288   7.476   9.188
 1295POPC   C1A18663  17.672   7.194   8.778
 1295POPC   D2A18664  17.520   7.105   8.392
 1295POPC   C3A18665  17.709   7.218   8.038
 1295POPC   C4A18666  17.734   7.277   7.645
 1295POPC   C1B18667  17.183   7.335   8.746
 1295POPC   C2B18668  17.198   7.523   8.341
 1295POPC   C3B18669  17.275   7.437   7.931
 1295POPC   C4B18670  17.319   7.540   7.488
 1296POPC   NC318671  32.547  12.199   9.375
 1296POPC   PO418672  31.923  12.136   9.540
 1296POPC   GL118673  32.053  12.211   9.107
 1296POPC   GL218674  32.204  11.900   9.081
 1296POPC   C1A18675  32.217  12.240   8.658
 1296POPC   D2A18676  32.435  12.022   8.288
 1296POPC   C3A18677  32.365  12.224   7.879
 1296POPC   C4A18678  32.116  12.238   7.492
 1296POPC   C1B18679  32.320  11.701   8.680
 1296POPC   C2B18680  32.355  11.467   8.275
 1296POPC   C3B18681  32.208  11.703   7.916
 1296POPC   C4B18682  31.850  11.827   7.677
 1297POPC   NC318683  22.594   6.869   9.792
 1297POPC   PO418684  23.101   6.542   9.497
 1297POPC   GL118685  23.054   6.526   9.120
 1297POPC   GL218686  22.735   6.409   9.114
 1297POPC   C1A18687  23.151   6.756   8.783
 1297POPC   D2A18688  23.129   6.631   8.391
 1297POPC   C3A18689  22.909   6.842   8.076
 1297POPC   C4A18690  22.992   6.635   7.687
 1297POPC   C1B18691  22.693   6.587   8.681
 1297POPC   C2B18692  22.531   6.525   8.265
 1297POPC   C3B18693  22.510   6.538   7.799
 1297POPC   C4B18694  22.586   6.336   7.376
 1298POPC   NC318695  39.019   9.181   9.502
 1298POPC   PO418696  39.561   8.804   9.468
 1298POPC   GL118697  39.416   8.603   9.074
 1298POPC   GL218698  39.073   8.744   9.118
 1298POPC   C1A18699  39.318   8.701   8.630
 1298POPC   D2A18700  39.170   8.658   8.205
 1298POPC   C3A18701  39.400   8.934   7.916
 1298POPC   C4A18702  39.690   9.186   7.635
 1298POPC   C1B18703  38.900   8.969   8.759
 1298POPC   C2B18704  38.819   9.017   8.283
 1298POPC   C3B18705  38.954   9.216   7.868
 1298POPC   C4B18706  38.847   9.353   7.442
 1299POPC   NC318707  10.231  14.166   9.518
 1299POPC   PO418708   9.701  14.526   9.573
 1299POPC   GL118709   9.905  14.414   9.189
 1299POPC   GL218710   9.863  14.031   9.177
 1299POPC   C1A18711   9.655  14.495   8.816
 1299POPC   D2A18712   9.442  14.509   8.420
 1299POPC   C3A18713   9.656  14.412   8.043
 1299POPC   C4A18714   9.663  14.684   7.693
 1299POPC   C1B18715   9.986  14.101   8.751
 1299POPC   C2B18716  10.003  14.417   8.434
 1299POPC   C3B18717  10.171  14.357   8.033
 1299POPC   C4B18718   9.962  14.275   7.618
 1300POPC   NC318719  27.711  42.616   9.595
 1300POPC   PO418720  27.666  43.286   9.562
 1300POPC   GL118721  27.748  42.999   9.230
 1300POPC   GL218722  27.401  42.905   9.205
 1300POPC   C1A18723  27.833  42.950   8.786
 1300POPC   D2A18724  27.592  42.942   8.404
 1300POPC   C3A18725  27.793  42.920   8.030
 1300POPC   C4A18726  27.753  43.206   7.755
 1300POPC   C1B18727  27.312  43.149   8.838
 1300POPC   C2B18728  27.113  43.123   8.436
 1300POPC   C3B18729  27.279  43.072   8.016
 1300POPC   C4B18730  27.238  43.316   7.654
 1301POPC   NC318731   6.607  38.255   9.482
 1301POPC   PO418732   6.320  38.859   9.640
 1301POPC   GL118733   6.418  38.614   9.205
 1301POPC   GL218734   6.748  38.538   9.057
 1301POPC   C1A18735   6.418  38.221   8.858
 1301POPC   D2A18736   6.543  38.100   8.422
 1301POPC   C3A18737   6.419  38.330   8.042
 1301POPC   C4A18738   6.553  38.592   7.741
 1301POPC   C1B18739   6.623  38.643   8.600
 1301POPC   C2B18740   6.754  38.899   8.205
 1301POPC   C3B18741   6.891  38.957   7.765
 1301POPC   C4B18742   6.905  38.994   7.297
 1302POPC   NC318743  13.579  40.544   9.457
 1302POPC   PO418744  14.003  41.008   9.718
 1302POPC   GL118745  13.878  40.941   9.276
 1302POPC   GL218746  14.004  40.600   9.193
 1302POPC   C1A18747  13.882  41.032   8.816
 1302POPC   D2A18748  13.548  41.157   8.493
 1302POPC   C3A18749  13.532  40.941   8.070
 1302POPC   C4A18750  13.913  40.902   7.819
 1302POPC   C1B18751  13.714  40.540   8.832
 1302POPC   C2B18752  13.815  40.699   8.427
 1302POPC   C3B18753  13.735  40.481   8.080
 1302POPC   C4B18754  13.501  40.533   7.716
 1303POPC   NC318755  39.438  18.346   9.470
 1303POPC   PO418756  38.774  18.446   9.500
 1303POPC   GL118757  38.994  18.243   9.207
 1303POPC   GL218758  39.090  17.906   9.334
 1303POPC   C1A18759  39.307  18.245   8.858
 1303POPC   D2A18760  39.522  18.341   8.511
 1303POPC   C3A18761  39.203  18.289   8.205
 1303POPC   C4A18762  39.184  18.130   7.803
 1303POPC   C1B18763  38.980  17.867   8.884
 1303POPC   C2B18764  38.847  18.023   8.485
 1303POPC   C3B18765  38.892  17.831   8.099
 1303POPC   C4B18766  38.783  17.725   7.675
 1304POPC   NC318767   3.981  29.416   9.467
 1304POPC   PO418768   4.537  29.162   9.482
 1304POPC   GL118769   4.452  28.954   9.145
 1304POPC   GL218770   4.095  28.956   9.182
 1304POPC   C1A18771   4.520  29.072   8.747
 1304POPC   D2A18772   4.396  29.203   8.363
 1304POPC   C3A18773   4.644  29.146   8.012
 1304POPC   C4A18774   4.496  29.141   7.612
 1304POPC   C1B18775   3.902  28.917   8.780
 1304POPC   C2B18776   3.883  29.067   8.374
 1304POPC   C3B18777   3.875  29.024   7.937
 1304POPC   C4B18778   3.970  29.392   7.688
 1305POPC   NC318779  25.151   8.699   9.431
 1305POPC   PO418780  25.406   9.300   9.322
 1305POPC   GL118781  25.199   9.071   9.022
 1305POPC   GL218782  25.001   8.756   8.958
 1305POPC   C1A18783  25.183   9.093   8.613
 1305POPC   D2A18784  25.383   8.957   8.282
 1305POPC   C3A18785  25.302   9.258   7.980
 1305POPC   C4A18786  25.174   9.312   7.568
 1305POPC   C1B18787  25.314   8.607   8.686
 1305POPC   C2B18788  25.244   8.440   8.288
 1305POPC   C3B18789  25.440   8.557   7.901
 1305POPC   C4B18790  25.604   8.409   7.503
 1306POPC   NC318791  25.005   2.493   9.302
 1306POPC   PO418792  25.559   2.785   9.550
 1306POPC   GL118793  25.455   2.751   9.129
 1306POPC   GL218794  25.181   2.958   9.028
 1306POPC   C1A18795  25.433   2.663   8.698
 1306POPC   D2A18796  25.175   2.535   8.324
 1306POPC   C3A18797  25.274   2.549   7.895
 1306POPC   C4A18798  25.525   2.743   7.585
 1306POPC   C1B18799  24.909   2.799   8.703
 1306POPC   C2B18800  24.723   2.763   8.305
 1306POPC   C3B18801  24.875   2.989   7.966
 1306POPC   C4B18802  25.018   2.870   7.561
 1307POPC   NC318803   1.273  27.945   9.492
 1307POPC   PO418804   1.583  27.256   9.495
 1307POPC   GL118805   1.342  27.529   9.161
 1307POPC   GL218806   1.055  27.772   9.068
 1307POPC   C1A18807   1.321  27.590   8.699
 1307POPC   D2A18808   1.492  27.466   8.340
 1307POPC   C3A18809   1.291  27.638   8.015
 1307POPC   C4A18810   1.450  27.498   7.641
 1307POPC   C1B18811   0.878  27.366   8.846
 1307POPC   C2B18812   0.752  27.236   8.398
 1307POPC   C3B18813   0.846  27.374   7.949
 1307POPC   C4B18814   0.906  27.782   7.696
 1308POPC   NC318815  44.476  43.937   9.560
 1308POPC   PO418816   0.012  43.698   9.351
 1308POPC   GL118817  44.666  43.870   9.072
 1308POPC   GL218818  44.404  44.161   9.105
 1308POPC   C1A18819  44.516  43.764   8.674
 1308POPC   D2A18820  44.710  43.873   8.310
 1308POPC   C3A18821  44.528  43.746   7.929
 1308POPC   C4A18822  44.755  43.808   7.544
 1308POPC   C1B18823  44.500  44.270   8.673
 1308POPC   C2B18824  44.395  44.245   8.219
 1308POPC   C3B18825  44.494  44.226   7.765
 1308POPC   C4B18826  44.327  44.023   7.385
 1309POPC   NC318827  16.590   3.227   9.440
 1309POPC   PO418828  16.413   3.930   9.573
 1309POPC   GL118829  16.737   3.705   9.183
 1309POPC   GL218830  16.656   3.401   8.977
 1309POPC   C1A18831  16.976   3.650   8.708
 1309POPC   D2A18832  16.735   3.461   8.379
 1309POPC   C3A18833  16.711   3.607   7.940
 1309POPC   C4A18834  16.441   3.611   7.576
 1309POPC   C1B18835  16.532   3.089   8.670
 1309POPC   C2B18836  16.313   3.089   8.302
 1309POPC   C3B18837  16.409   3.207   7.881
 1309POPC   C4B18838  16.500   3.100   7.461
 1310POPC   NC318839  28.917  35.652   9.569
 1310POPC   PO418840  29.341  35.044   9.533
 1310POPC   GL118841  29.107  35.012   9.183
 1310POPC   GL218842  28.720  34.954   9.233
 1310POPC   C1A18843  29.263  35.239   8.808
 1310POPC   D2A18844  29.172  35.592   8.501
 1310POPC   C3A18845  29.225  35.669   8.066
 1310POPC   C4A18846  28.969  35.605   7.705
 1310POPC   C1B18847  28.817  34.945   8.783
 1310POPC   C2B18848  29.019  35.090   8.405
 1310POPC   C3B18849  28.989  35.202   8.026
 1310POPC   C4B18850  29.031  34.973   7.663
 1311POPC   NC318851  27.108   7.473   9.272
 1311POPC   PO418852  27.670   7.143   9.535
 1311POPC   GL118853  27.837   7.305   9.123
 1311POPC   GL218854  27.572   7.574   9.059
 1311POPC   C1A18855  27.784   7.356   8.658
 1311POPC   D2A18856  27.641   7.752   8.492
 1311POPC   C3A18857  27.616   7.730   8.069
 1311POPC   C4A18858  27.647   7.530   7.694
 1311POPC   C1B18859  27.271   7.477   8.676
 1311POPC   C2B18860  27.092   7.472   8.277
 1311POPC   C3B18861  27.172   7.474   7.881
 1311POPC   C4B18862  27.142   7.575   7.490
 1312POPC   NC318863  32.750  13.108   9.739
 1312POPC   PO418864  33.092  13.624   9.519
 1312POPC   GL118865  33.021  13.686   9.134
 1312POPC   GL218866  32.850  13.394   9.112
 1312POPC   C1A18867  33.206  13.572   8.758
 1312POPC   D2A18868  33.379  13.800   8.448
 1312POPC   C3A18869  33.268  13.835   8.010
 1312POPC   C4A18870  32.965  13.972   7.725
 1312POPC   C1B18871  32.707  13.551   8.718
 1312POPC   C2B18872  32.895  13.547   8.298
 1312POPC   C3B18873  32.896  13.464   7.844
 1312POPC   C4B18874  32.964  13.446   7.402
 1313POPC   NC318875  14.005  32.260   9.518
 1313POPC   PO418876  13.340  32.314   9.399
 1313POPC   GL118877  13.612  32.151   9.092
 1313POPC   GL218878  13.918  32.341   9.038
 1313POPC   C1A18879  13.542  32.207   8.654
 1313POPC   D2A18880  13.675  32.425   8.287
 1313POPC   C3A18881  13.394  32.598   7.958
 1313POPC   C4A18882  13.354  32.583   7.431
 1313POPC   C1B18883  14.061  32.186   8.683
 1313POPC   C2B18884  13.902  31.972   8.342
 1313POPC   C3B18885  13.730  32.018   7.944
 1313POPC   C4B18886  14.031  32.005   7.632
 1314POPC   NC318887  25.700  10.289   9.390
 1314POPC   PO418888  25.971  10.847   9.446
 1314POPC   GL118889  26.074  10.557   9.125
 1314POPC   GL218890  25.756  10.554   8.939
 1314POPC   C1A18891  26.160  10.386   8.713
 1314POPC   D2A18892  26.096  10.633   8.328
 1314POPC   C3A18893  26.032  10.486   7.905
 1314POPC   C4A18894  25.936  10.739   7.562
 1314POPC   C1B18895  25.706  10.116   8.748
 1314POPC   C2B18896  25.824   9.962   8.330
 1314POPC   C3B18897  25.789  10.029   7.902
 1314POPC   C4B18898  25.636  10.328   7.596
 1315POPC   NC318899  35.077  10.560   9.463
 1315POPC   PO418900  35.727  10.938   9.624
 1315POPC   GL118901  35.423  10.898   9.255
 1315POPC   GL218902  35.469  10.563   9.105
 1315POPC   C1A18903  35.236  10.890   8.808
 1315POPC   D2A18904  35.204  11.028   8.365
 1315POPC   C3A18905  35.395  10.791   7.989
 1315POPC   C4A18906  35.416  10.812   7.521
 1315POPC   C1B18907  35.291  10.298   8.730
 1315POPC   C2B18908  35.267  10.096   8.301
 1315POPC   C3B18909  35.338  10.221   7.884
 1315POPC   C4B18910  35.672  10.311   7.662
 1316POPC   NC318911  34.016   4.113   9.526
 1316POPC   PO418912  33.627   4.716   9.578
 1316POPC   GL118913  33.629   4.417   9.226
 1316POPC   GL218914  33.968   4.404   9.098
 1316POPC   C1A18915  33.566   4.459   8.772
 1316POPC   D2A18916  33.673   4.649   8.374
 1316POPC   C3A18917  33.616   4.429   7.974
 1316POPC   C4A18918  33.850   4.480   7.589
 1316POPC   C1B18919  34.001   4.011   8.844
 1316POPC   C2B18920  33.958   3.778   8.454
 1316POPC   C3B18921  33.873   3.891   8.046
 1316POPC   C4B18922  33.991   3.988   7.639
 1317POPC   NC318923  17.603  39.641   9.563
 1317POPC   PO418924  17.296  40.261   9.590
 1317POPC   GL118925  17.437  40.029   9.269
 1317POPC   GL218926  17.256  40.206   9.080
 1317POPC   C1A18927  17.532  39.771   8.901
 1317POPC   D2A18928  17.427  39.649   8.473
 1317POPC   C3A18929  17.766  39.618   8.184
 1317POPC   C4A18930  17.721  39.757   7.756
 1317POPC   C1B18931  17.575  40.258   8.794
 1317POPC   C2B18932  17.713  40.053   8.440
 1317POPC   C3B18933  17.491  40.042   8.097
 1317POPC   C4B18934  17.402  40.136   7.681
 1318POPC   NC318935  30.297  25.862   9.477
 1318POPC   PO418936  31.040  25.766   9.492
 1318POPC   GL118937  30.711  25.668   9.218
 1318POPC   GL218938  30.639  26.024   9.108
 1318POPC   C1A18939  30.727  25.641   8.780
 1318POPC   D2A18940  30.770  25.940   8.441
 1318POPC   C3A18941  30.569  25.866   8.042
 1318POPC   C4A18942  30.738  25.930   7.645
 1318POPC   C1B18943  30.489  26.361   8.792
 1318POPC   C2B18944  30.380  26.307   8.336
 1318POPC   C3B18945  30.577  26.377   7.892
 1318POPC   C4B18946  30.600  26.708   7.505
 1319POPC   NC318947  19.423  32.437   9.447
 1319POPC   PO418948  20.127  32.267   9.463
 1319POPC   GL118949  19.932  32.188   9.084
 1319POPC   GL218950  19.557  32.096   9.086
 1319POPC   C1A18951  20.052  32.144   8.650
 1319POPC   D2A18952  19.893  32.028   8.247
 1319POPC   C3A18953  20.058  32.304   7.948
 1319POPC   C4A18954  20.259  32.025   7.674
 1319POPC   C1B18955  19.587  32.426   8.775
 1319POPC   C2B18956  19.718  32.488   8.377
 1319POPC   C3B18957  19.546  32.326   8.010
 1319POPC   C4B18958  19.630  32.031   7.728
 1320POPC   NC318959  36.592  25.208   9.621
 1320POPC   PO418960  35.903  25.141   9.554
 1320POPC   GL118961  35.934  25.109   9.118
 1320POPC   GL218962  36.259  25.159   9.163
 1320POPC   C1A18963  36.070  25.422   8.744
 1320POPC   D2A18964  36.062  25.232   8.369
 1320POPC   C3A18965  35.887  25.368   8.010
 1320POPC   C4A18966  36.040  25.260   7.627
 1320POPC   C1B18967  36.237  24.933   8.763
 1320POPC   C2B18968  36.522  24.995   8.416
 1320POPC   C3B18969  36.426  25.131   8.009
 1320POPC   C4B18970  36.459  24.940   7.633
 1321POPC   NC318971   7.216  33.707   9.892
 1321POPC   PO418972   7.074  33.664   9.268
 1321POPC   GL118973   7.373  33.703   9.028
 1321POPC   GL218974   7.320  34.018   8.937
 1321POPC   C1A18975   7.370  33.674   8.584
 1321POPC   D2A18976   7.392  33.878   8.229
 1321POPC   C3A18977   7.719  33.749   7.967
 1321POPC   C4A18978   7.725  33.515   7.584
 1321POPC   C1B18979   7.487  34.239   8.668
 1321POPC   C2B18980   7.601  34.322   8.298
 1321POPC   C3B18981   7.308  34.332   7.989
 1321POPC   C4B18982   7.311  33.983   7.726
 1322POPC   NC318983  30.389  17.263   9.229
 1322POPC   PO418984  31.017  17.525   9.489
 1322POPC   GL118985  30.824  17.492   9.093
 1322POPC   GL218986  30.537  17.760   9.094
 1322POPC   C1A18987  31.006  17.352   8.679
 1322POPC   D2A18988  31.123  17.178   8.282
 1322POPC   C3A18989  31.035  17.434   7.911
 1322POPC   C4A18990  31.284  17.295   7.572
 1322POPC   C1B18991  30.538  17.541   8.684
 1322POPC   C2B18992  30.653  17.375   8.301
 1322POPC   C3B18993  30.473  17.365   7.934
 1322POPC   C4B18994  30.571  17.591   7.597
 1323POPC   NC318995   3.786   3.246   9.601
 1323POPC   PO418996   3.260   3.688   9.512
 1323POPC   GL118997   3.368   3.611   9.107
 1323POPC   GL218998   3.552   3.319   9.150
 1323POPC   C1A18999   3.268   3.406   8.723
 1323POPC   D2A19000   3.130   3.553   8.353
 1323POPC   C3A19001   3.269   3.296   8.048
 1323POPC   C4A19002   3.478   3.482   7.763
 1323POPC   C1B19003   3.761   3.556   8.792
 1323POPC   C2B19004   3.674   3.481   8.380
 1323POPC   C3B19005   3.903   3.553   8.030
 1323POPC   C4B19006   3.936   3.346   7.635
 1324POPC   NC319007  21.266  18.526   9.437
 1324POPC   PO419008  21.290  17.882   9.484
 1324POPC   GL119009  21.212  18.155   9.088
 1324POPC   GL219010  21.478  18.467   9.000
 1324POPC   C1A19011  21.238  18.212   8.639
 1324POPC   D2A19012  21.361  18.138   8.240
 1324POPC   C3A19013  21.077  18.206   7.938
 1324POPC   C4A19014  21.329  18.123   7.611
 1324POPC   C1B19015  21.453  18.709   8.632
 1324POPC   C2B19016  21.387  18.639   8.232
 1324POPC   C3B19017  21.442  18.558   7.844
 1324POPC   C4B19018  21.134  18.626   7.613
 1325POPC   NC319019  41.582  31.050   9.796
 1325POPC   PO419020  41.632  30.391   9.570
 1325POPC   GL119021  41.508  30.427   9.179
 1325POPC   GL219022  41.235  30.174   9.166
 1325POPC   C1A19023  41.699  30.664   8.832
 1325POPC   D2A19024  41.684  30.870   8.410
 1325POPC   C3A19025  41.599  30.678   7.991
 1325POPC   C4A19026  41.376  30.738   7.582
 1325POPC   C1B19027  41.383  30.252   8.727
 1325POPC   C2B19028  41.314  30.236   8.282
 1325POPC   C3B19029  41.187  30.370   7.879
 1325POPC   C4B19030  41.130  30.305   7.412
 1326POPC   NC319031  15.965   2.586   9.616
 1326POPC   PO419032  16.492   2.805   9.277
 1326POPC   GL119033  16.052   2.702   9.123
 1326POPC   GL219034  16.163   2.421   9.056
 1326POPC   C1A19035  15.808   2.567   8.724
 1326POPC   D2A19036  15.972   2.691   8.293
 1326POPC   C3A19037  15.697   2.840   7.986
 1326POPC   C4A19038  15.575   3.056   7.631
 1326POPC   C1B19039  16.309   2.624   8.680
 1326POPC   C2B19040  16.545   2.597   8.349
 1326POPC   C3B19041  16.384   2.716   7.963
 1326POPC   C4B19042  16.082   2.858   7.658
 1327POPC   NC319043  39.054  27.945   9.587
 1327POPC   PO419044  39.098  28.632   9.546
 1327POPC   GL119045  39.202  28.512   9.135
 1327POPC   GL219046  39.364  28.835   9.122
 1327POPC   C1A19047  39.122  28.369   8.702
 1327POPC   D2A19048  39.316  28.472   8.282
 1327POPC   C3A19049  39.032  28.445   7.946
 1327POPC   C4A19050  39.020  28.047   7.788
 1327POPC   C1B19051  39.501  28.703   8.720
 1327POPC   C2B19052  39.558  28.923   8.313
 1327POPC   C3B19053  39.593  28.728   7.915
 1327POPC   C4B19054  39.466  28.322   7.725
 1328POPC   NC319055  37.273   6.524   9.473
 1328POPC   PO419056  36.673   6.800   9.569
 1328POPC   GL119057  36.835   6.544   9.195
 1328POPC   GL219058  36.938   6.835   9.100
 1328POPC   C1A19059  37.137   6.516   8.786
 1328POPC   D2A19060  37.399   6.606   8.393
 1328POPC   C3A19061  37.208   6.585   7.994
 1328POPC   C4A19062  36.848   6.366   7.830
 1328POPC   C1B19063  36.744   6.936   8.689
 1328POPC   C2B19064  36.703   7.181   8.298
 1328POPC   C3B19065  36.832   6.931   7.956
 1328POPC   C4B19066  36.661   6.788   7.602
 1329POPC   NC319067  31.856  32.394   9.309
 1329POPC   PO419068  31.290  32.038   9.558
 1329POPC   GL119069  31.491  32.108   9.131
 1329POPC   GL219070  31.804  31.943   9.023
 1329POPC   C1A19071  31.482  32.286   8.759
 1329POPC   D2A19072  31.522  32.403   8.365
 1329POPC   C3A19073  31.333  32.198   8.063
 1329POPC   C4A19074  31.417  32.351   7.660
 1329POPC   C1B19075  31.905  32.052   8.598
 1329POPC   C2B19076  31.773  31.954   8.211
 1329POPC   C3B19077  31.762  31.947   7.767
 1329POPC   C4B19078  31.608  31.926   7.365
 1330POPC   NC319079   2.470  36.176   9.631
 1330POPC   PO419080   3.153  36.135   9.615
 1330POPC   GL119081   2.859  36.020   9.270
 1330POPC   GL219082   2.511  36.118   9.144
 1330POPC   C1A19083   2.909  36.055   8.829
 1330POPC   D2A19084   3.096  36.215   8.473
 1330POPC   C3A19085   3.013  35.984   8.143
 1330POPC   C4A19086   3.139  36.003   7.760
 1330POPC   C1B19087   2.513  36.384   8.771
 1330POPC   C2B19088   2.601  36.191   8.399
 1330POPC   C3B19089   2.457  36.172   8.013
 1330POPC   C4B19090   2.678  36.201   7.634
 1331POPC   NC319091   7.089  22.002   9.411
 1331POPC   PO419092   6.554  22.355   9.602
 1331POPC   GL119093   6.646  22.165   9.184
 1331POPC   GL219094   6.462  21.863   9.133
 1331POPC   C1A19095   6.752  22.023   8.747
 1331POPC   D2A19096   7.011  21.954   8.401
 1331POPC   C3A19097   6.841  22.039   8.013
 1331POPC   C4A19098   6.573  22.305   7.788
 1331POPC   C1B19099   6.426  21.642   8.728
 1331POPC   C2B19100   6.465  21.863   8.316
 1331POPC   C3B19101   6.380  21.824   7.843
 1331POPC   C4B19102   6.397  21.981   7.390
 1332POPC   NC319103   4.764  19.506   9.394
 1332POPC   PO419104   5.234  19.899   9.265
 1332POPC   GL119105   5.037  19.643   8.974
 1332POPC   GL219106   5.083  19.826   8.704
 1332POPC   C1A19107   4.727  19.478   8.663
 1332POPC   D2A19108   4.746  19.732   8.293
 1332POPC   C3A19109   5.057  19.795   8.001
 1332POPC   C4A19110   4.905  19.827   7.569
 1332POPC   C1B19111   5.450  20.135   8.716
 1332POPC   C2B19112   5.677  20.152   8.385
 1332POPC   C3B19113   5.505  20.072   8.012
 1332POPC   C4B19114   5.332  20.077   7.626
 1333POPC   NC319115  18.308  15.533   9.290
 1333POPC   PO419116  18.170  16.069   9.720
 1333POPC   GL119117  18.375  16.083   9.248
 1333POPC   GL219118  18.645  15.861   9.151
 1333POPC   C1A19119  18.369  16.093   8.767
 1333POPC   D2A19120  18.122  16.053   8.342
 1333POPC   C3A19121  18.265  16.123   7.880
 1333POPC   C4A19122  18.351  15.826   7.556
 1333POPC   C1B19123  18.587  15.613   8.741
 1333POPC   C2B19124  18.572  15.804   8.391
 1333POPC   C3B19125  18.626  16.188   8.238
 1333POPC   C4B19126  18.747  15.951   7.857
 1334POPC   NC319127   1.412   4.601   9.243
 1334POPC   PO419128   1.132   4.267   9.783
 1334POPC   GL119129   1.081   4.192   9.260
 1334POPC   GL219130   1.004   4.437   8.971
 1334POPC   C1A19131   1.321   4.072   8.852
 1334POPC   D2A19132   1.087   4.171   8.458
 1334POPC   C3A19133   1.283   4.008   8.119
 1334POPC   C4A19134   1.355   4.122   7.719
 1334POPC   C1B19135   1.319   4.586   8.631
 1334POPC   C2B19136   1.165   4.751   8.271
 1334POPC   C3B19137   1.126   4.510   7.949
 1334POPC   C4B19138   1.308   4.658   7.634
 1335POPC   NC319139  13.434   7.130   9.817
 1335POPC   PO419140  13.753   7.632   9.538
 1335POPC   GL119141  13.531   7.496   9.202
 1335POPC   GL219142  13.384   7.198   9.296
 1335POPC   C1A19143  13.645   7.545   8.766
 1335POPC   D2A19144  13.696   7.655   8.347
 1335POPC   C3A19145  13.660   7.375   7.997
 1335POPC   C4A19146  13.494   7.642   7.728
 1335POPC   C1B19147  13.233   7.257   8.852
 1335POPC   C2B19148  13.368   7.220   8.397
 1335POPC   C3B19149  13.176   7.206   7.968
 1335POPC   C4B19150  13.264   7.212   7.507
 1336POPC   NC319151  27.485  36.336   9.468
 1336POPC   PO419152  27.480  35.665   9.609
 1336POPC   GL119153  27.531  35.887   9.151
 1336POPC   GL219154  27.264  36.109   9.071
 1336POPC   C1A19155  27.719  36.207   8.809
 1336POPC   D2A19156  27.562  36.528   8.493
 1336POPC   C3A19157  27.538  36.384   8.033
 1336POPC   C4A19158  27.881  36.323   7.740
 1336POPC   C1B19159  27.304  35.944   8.690
 1336POPC   C2B19160  27.412  35.860   8.298
 1336POPC   C3B19161  27.208  35.977   7.943
 1336POPC   C4B19162  27.281  36.026   7.511
 1337POPC   NC319163  36.414  27.738   9.474
 1337POPC   PO419164  35.740  27.776   9.425
 1337POPC   GL119165  35.995  27.450   9.165
 1337POPC   GL219166  36.295  27.557   9.032
 1337POPC   C1A19167  36.040  27.166   8.776
 1337POPC   D2A19168  35.873  27.222   8.380
 1337POPC   C3A19169  36.143  27.239   8.029
 1337POPC   C4A19170  36.078  27.239   7.612
 1337POPC   C1B19171  36.151  27.641   8.652
 1337POPC   C2B19172  36.013  27.718   8.269
 1337POPC   C3B19173  36.222  27.986   8.059
 1337POPC   C4B19174  36.451  28.047   7.696
 1338POPC   NC319175  31.367  24.720   9.591
 1338POPC   PO419176  31.866  24.297   9.644
 1338POPC   GL119177  31.742  24.526   9.229
 1338POPC   GL219178  31.401  24.684   9.092
 1338POPC   C1A19179  31.567  24.245   8.895
 1338POPC   D2A19180  31.453  24.173   8.465
 1338POPC   C3A19181  31.557  24.390   8.075
 1338POPC   C4A19182  31.727  24.255   7.645
 1338POPC   C1B19183  31.525  24.703   8.670
 1338POPC   C2B19184  31.441  24.893   8.301
 1338POPC   C3B19185  31.249  24.795   7.923
 1338POPC   C4B19186  31.589  24.744   7.669
 1339POPC   NC319187  44.889  13.380   9.416
 1339POPC   PO419188  44.843  14.024   9.377
 1339POPC   GL119189  44.899  13.757   9.052
 1339POPC   GL219190  44.567  13.645   9.114
 1339POPC   C1A19191   0.014  13.675   8.631
 1339POPC   D2A19192  44.834  13.948   8.361
 1339POPC   C3A19193  44.587  13.862   8.001
 1339POPC   C4A19194  44.886  13.854   7.712
 1339POPC   C1B19195  44.545  13.490   8.736
 1339POPC   C2B19196  44.585  13.484   8.339
 1339POPC   C3B19197  44.921  13.454   8.057
 1339POPC   C4B19198  44.661  13.417   7.714
 1340POPC   NC319199  42.432  18.685   9.435
 1340POPC   PO419200  42.332  19.327   9.510
 1340POPC   GL119201  42.206  19.219   9.120
 1340POPC   GL219202  42.420  18.966   9.026
 1340POPC   C1A19203  42.310  19.338   8.695
 1340POPC   D2A19204  42.350  19.163   8.299
 1340POPC   C3A19205  42.321  19.374   7.922
 1340POPC   C4A19206  42.388  19.317   7.483
 1340POPC   C1B19207  42.218  18.765   8.718
 1340POPC   C2B19208  42.240  18.630   8.303
 1340POPC   C3B19209  42.250  18.836   7.908
 1340POPC   C4B19210  42.160  18.866   7.483
 1341POPC   NC319211  20.086  44.164   9.619
 1341POPC   PO419212  20.507  43.670   9.655
 1341POPC   GL119213  20.683  43.807   9.214
 1341POPC   GL219214  20.494  44.158   9.189
 1341POPC   C1A19215  20.848  43.627   8.778
 1341POPC   D2A19216  20.883  43.807   8.329
 1341POPC   C3A19217  20.575  43.762   7.961
 1341POPC   C4A19218  20.367  43.399   7.723
 1341POPC   C1B19219  20.293  44.085   8.751
 1341POPC   C2B19220  20.241  44.032   8.263
 1341POPC   C3B19221  20.288  44.274   7.858
 1341POPC   C4B19222  20.305  44.349   7.397
 1342POPC   NC319223  12.421  15.017   9.454
 1342POPC   PO419224  11.766  14.976   9.521
 1342POPC   GL119225  12.011  15.028   9.125
 1342POPC   GL219226  12.247  15.346   9.095
 1342POPC   C1A19227  11.999  14.999   8.667
 1342POPC   D2A19228  12.215  15.254   8.370
 1342POPC   C3A19229  12.232  15.259   7.944
 1342POPC   C4A19230  11.871  15.056   7.668
 1342POPC   C1B19231  11.906  15.476   8.824
 1342POPC   C2B19232  11.811  15.583   8.406
 1342POPC   C3B19233  11.770  15.440   7.994
 1342POPC   C4B19234  12.014  15.527   7.558
 1343POPC   NC319235  29.119  40.994   9.275
 1343POPC   PO419236  29.701  40.752   9.425
 1343POPC   GL119237  29.398  40.565   9.121
 1343POPC   GL219238  29.017  40.503   9.167
 1343POPC   C1A19239  29.274  40.416   8.730
 1343POPC   D2A19240  29.350  40.750   8.463
 1343POPC   C3A19241  29.323  40.679   8.056
 1343POPC   C4A19242  29.396  41.057   7.832
 1343POPC   C1B19243  28.872  40.709   8.754
 1343POPC   C2B19244  28.848  40.665   8.330
 1343POPC   C3B19245  28.921  40.997   8.071
 1343POPC   C4B19246  28.976  40.802   7.680
 1344POPC   NC319247  20.620   5.281   9.651
 1344POPC   PO419248  20.528   4.669   9.348
 1344POPC   GL119249  20.637   4.965   9.057
 1344POPC   GL219250  20.530   5.275   9.150
 1344POPC   C1A19251  20.559   5.121   8.644
 1344POPC   D2A19252  20.304   5.169   8.303
 1344POPC   C3A19253  20.503   5.114   7.915
 1344POPC   C4A19254  20.826   4.815   7.796
 1344POPC   C1B19255  20.866   5.456   8.873
 1344POPC   C2B19256  21.009   5.291   8.421
 1344POPC   C3B19257  20.938   5.436   7.967
 1344POPC   C4B19258  21.024   5.659   7.561
 1345POPC   NC319259  43.517  26.354   9.550
 1345POPC   PO419260  43.958  26.893   9.758
 1345POPC   GL119261  43.897  26.795   9.295
 1345POPC   GL219262  43.556  26.803   9.297
 1345POPC   C1A19263  44.075  26.887   8.862
 1345POPC   D2A19264  44.012  27.080   8.454
 1345POPC   C3A19265  44.209  27.030   8.039
 1345POPC   C4A19266  44.314  27.018   7.591
 1345POPC   C1B19267  43.625  26.603   8.897
 1345POPC   C2B19268  43.797  26.617   8.494
 1345POPC   C3B19269  43.700  26.848   8.124
 1345POPC   C4B19270  43.885  26.768   7.735
 1346POPC   NC319271  27.396  43.668   9.614
 1346POPC   PO419272  27.744  44.274   9.428
 1346POPC   GL119273  27.587  44.119   9.055
 1346POPC   GL219274  27.245  44.102   8.973
 1346POPC   C1A19275  27.577  43.971   8.596
 1346POPC   D2A19276  27.416  44.026   8.191
 1346POPC   C3A19277  27.678  44.167   7.861
 1346POPC   C4A19278  27.493  44.130   7.454
 1346POPC   C1B19279  27.431  43.644   8.949
 1346POPC   C2B19280  27.645  43.438   8.582
 1346POPC   C3B19281  27.573  43.506   8.131
 1346POPC   C4B19282  27.588  43.690   7.704
 1347POPC   NC319283   7.052   2.013   9.473
 1347POPC   PO419284   7.740   2.036   9.586
 1347POPC   GL119285   7.686   1.997   9.182
 1347POPC   GL219286   7.370   2.168   9.090
 1347POPC   C1A19287   7.569   1.785   8.801
 1347POPC   D2A19288   7.215   1.771   8.496
 1347POPC   C3A19289   7.364   1.749   8.076
 1347POPC   C4A19290   7.715   1.820   7.803
 1347POPC   C1B19291   6.979   2.319   8.876
 1347POPC   C2B19292   6.886   2.290   8.464
 1347POPC   C3B19293   7.234   2.253   8.228
 1347POPC   C4B19294   7.282   2.205   7.808
 1348POPC   NC319295  37.366  37.742   9.791
 1348POPC   PO419296  37.981  37.654   9.518
 1348POPC   GL119297  37.927  37.523   9.149
 1348POPC   GL219298  37.646  37.440   9.112
 1348POPC   C1A19299  37.833  37.846   8.824
 1348POPC   D2A19300  37.499  37.914   8.529
 1348POPC   C3A19301  37.698  37.980   8.147
 1348POPC   C4A19302  37.841  37.876   7.766
 1348POPC   C1B19303  37.599  37.413   8.709
 1348POPC   C2B19304  37.594  37.472   8.279
 1348POPC   C3B19305  37.625  37.445   7.858
 1348POPC   C4B19306  37.597  37.574   7.396
 1349POPC   NC319307  22.272  21.046   9.430
 1349POPC   PO419308  21.951  20.416   9.440
 1349POPC   GL119309  22.078  20.629   9.119
 1349POPC   GL219310  22.427  20.631   9.179
 1349POPC   C1A19311  21.921  20.635   8.712
 1349POPC   D2A19312  21.743  20.637   8.322
 1349POPC   C3A19313  22.038  20.655   7.990
 1349POPC   C4A19314  21.993  20.765   7.554
 1349POPC   C1B19315  22.377  20.863   8.781
 1349POPC   C2B19316  22.385  20.639   8.397
 1349POPC   C3B19317  22.643  20.572   8.063
 1349POPC   C4B19318  22.432  20.494   7.673
 1350POPC   NC319319  29.420  23.382   9.430
 1350POPC   PO419320  29.080  23.973   9.616
 1350POPC   GL119321  29.211  23.799   9.214
 1350POPC   GL219322  28.967  23.576   9.142
 1350POPC   C1A19323  29.305  23.607   8.779
 1350POPC   D2A19324  29.270  23.754   8.368
 1350POPC   C3A19325  29.547  23.659   8.040
 1350POPC   C4A19326  29.481  23.612   7.623
 1350POPC   C1B19327  28.820  23.408   8.743
 1350POPC   C2B19328  29.018  23.312   8.350
 1350POPC   C3B19329  29.043  23.537   7.958
 1350POPC   C4B19330  28.773  23.652   7.613
 1351POPC   NC319331  18.068  39.163   9.464
 1351POPC   PO419332  18.761  39.187   9.470
 1351POPC   GL119333  18.476  39.043   9.175
 1351POPC   GL219334  18.416  39.400   9.107
 1351POPC   C1A19335  18.208  38.989   8.811
 1351POPC   D2A19336  17.997  39.291   8.536
 1351POPC   C3A19337  18.202  39.255   8.143
 1351POPC   C4A19338  18.321  39.241   7.697
 1351POPC   C1B19339  18.643  39.379   8.712
 1351POPC   C2B19340  18.658  39.502   8.254
 1351POPC   C3B19341  18.708  39.538   7.790
 1351POPC   C4B19342  18.481  39.623   7.396
 1352POPC   NC319343   5.600  39.000   9.387
 1352POPC   PO419344   5.107  39.507   9.397
 1352POPC   GL119345   5.235  39.223   9.068
 1352POPC   GL219346   5.067  38.889   9.062
 1352POPC   C1A19347   5.009  39.285   8.693
 1352POPC   D2A19348   5.043  39.573   8.386
 1352POPC   C3A19349   5.105  39.445   7.996
 1352POPC   C4A19350   5.033  39.441   7.606
 1352POPC   C1B19351   5.298  38.875   8.659
 1352POPC   C2B19352   5.365  39.161   8.325
 1352POPC   C3B19353   5.330  38.995   7.915
 1352POPC   C4B19354   5.410  38.954   7.511
 1353POPC   NC319355  39.998  21.816   9.586
 1353POPC   PO419356  39.939  22.398   9.515
 1353POPC   GL119357  40.031  22.124   9.147
 1353POPC   GL219358  39.771  21.856   9.144
 1353POPC   C1A19359  40.129  22.230   8.699
 1353POPC   D2A19360  39.941  22.106   8.299
 1353POPC   C3A19361  40.053  22.250   7.913
 1353POPC   C4A19362  39.770  22.376   7.624
 1353POPC   C1B19363  39.696  21.917   8.725
 1353POPC   C2B19364  39.821  21.628   8.402
 1353POPC   C3B19365  39.772  21.679   7.988
 1353POPC   C4B19366  39.903  21.853   7.630
 1354POPC   NC319367  17.999  27.329   9.535
 1354POPC   PO419368  17.465  27.680   9.411
 1354POPC   GL119369  17.662  27.469   9.098
 1354POPC   GL219370  17.865  27.702   8.929
 1354POPC   C1A19371  17.628  27.235   8.727
 1354POPC   D2A19372  17.745  26.988   8.358
 1354POPC   C3A19373  17.693  27.170   7.965
 1354POPC   C4A19374  17.403  27.236   7.633
 1354POPC   C1B19375  17.445  27.826   8.738
 1354POPC   C2B19376  17.329  27.928   8.315
 1354POPC   C3B19377  17.410  27.659   7.948
 1354POPC   C4B19378  17.800  27.588   7.681
 1355POPC   NC319379  11.332  11.658   9.548
 1355POPC   PO419380  11.312  10.969   9.545
 1355POPC   GL119381  11.393  11.249   9.205
 1355POPC   GL219382  11.027  11.399   9.213
 1355POPC   C1A19383  11.498  11.340   8.762
 1355POPC   D2A19384  11.428  11.557   8.387
 1355POPC   C3A19385  11.389  11.315   8.006
 1355POPC   C4A19386  11.125  11.117   7.718
 1355POPC   C1B19387  11.046  11.096   8.866
 1355POPC   C2B19388  11.125  11.075   8.422
 1355POPC   C3B19389  10.859  10.869   8.105
 1355POPC   C4B19390  10.672  10.883   7.680
 1356POPC   NC319391  10.479  27.813   9.490
 1356POPC   PO419392  10.870  27.273   9.386
 1356POPC   GL119393  10.628  27.458   9.066
 1356POPC   GL219394  10.381  27.733   9.012
 1356POPC   C1A19395  10.631  27.429   8.629
 1356POPC   D2A19396  10.701  27.759   8.350
 1356POPC   C3A19397  10.531  27.802   7.961
 1356POPC   C4A19398  10.806  27.687   7.635
 1356POPC   C1B19399  10.244  27.814   8.611
 1356POPC   C2B19400  10.056  27.836   8.199
 1356POPC   C3B19401  10.074  27.606   7.805
 1356POPC   C4B19402  10.082  27.348   7.399
 1357POPC   NC319403  44.901  41.730   9.616
 1357POPC   PO419404   0.120  41.134   9.539
 1357POPC   GL119405  44.790  41.162   9.205
 1357POPC   GL219406  44.774  41.536   9.125
 1357POPC   C1A19407  44.589  41.224   8.773
 1357POPC   D2A19408  44.792  41.329   8.388
 1357POPC   C3A19409  44.749  41.372   7.960
 1357POPC   C4A19410   0.000  41.537   7.625
 1357POPC   C1B19411  44.769  41.732   8.680
 1357POPC   C2B19412  44.564  41.866   8.308
 1357POPC   C3B19413  44.761  41.921   7.907
 1357POPC   C4B19414  44.811  42.081   7.482
 1358POPC   NC319415  20.341  35.165   9.509
 1358POPC   PO419416  20.621  35.761   9.800
 1358POPC   GL119417  20.592  35.567   9.296
 1358POPC   GL219418  20.562  35.276   9.080
 1358POPC   C1A19419  20.601  35.684   8.817
 1358POPC   D2A19420  20.790  35.607   8.421
 1358POPC   C3A19421  20.567  35.540   8.043
 1358POPC   C4A19422  20.531  35.644   7.633
 1358POPC   C1B19423  20.478  35.112   8.710
 1358POPC   C2B19424  20.653  35.103   8.333
 1358POPC   C3B19425  20.554  35.017   7.926
 1358POPC   C4B19426  20.728  35.133   7.556
 1359POPC   NC319427  20.151  17.809   9.455
 1359POPC   PO419428  19.953  18.465   9.408
 1359POPC   GL119429  19.793  18.214   9.079
 1359POPC   GL219430  19.521  18.447   9.015
 1359POPC   C1A19431  19.930  18.111   8.685
 1359POPC   D2A19432  20.242  18.295   8.400
 1359POPC   C3A19433  20.083  18.298   7.975
 1359POPC   C4A19434  20.096  18.391   7.530
 1359POPC   C1B19435  19.435  18.229   8.626
 1359POPC   C2B19436  19.702  18.419   8.317
 1359POPC   C3B19437  19.637  18.507   7.896
 1359POPC   C4B19438  19.536  18.076   7.798
 1360POPC   NC319439  24.276  30.038   9.311
 1360POPC   PO419440  24.555  30.526   9.763
 1360POPC   GL119441  24.382  30.559   9.283
 1360POPC   GL219442  24.132  30.840   9.236
 1360POPC   C1A19443  24.337  30.433   8.797
 1360POPC   D2A19444  24.419  30.679   8.400
 1360POPC   C3A19445  24.479  30.514   7.987
 1360POPC   C4A19446  24.739  30.565   7.645
 1360POPC   C1B19447  24.331  30.942   8.832
 1360POPC   C2B19448  24.334  31.208   8.469
 1360POPC   C3B19449  24.469  31.083   8.080
 1360POPC   C4B19450  24.404  30.933   7.713
 1361POPC   NC319451  31.583  13.531   9.460
 1361POPC   PO419452  30.984  13.554   9.494
 1361POPC   GL119453  31.255  13.755   9.118
 1361POPC   GL219454  31.665  13.842   9.066
 1361POPC   C1A19455  31.384  13.670   8.677
 1361POPC   D2A19456  31.359  13.336   8.381
 1361POPC   C3A19457  31.284  13.525   7.959
 1361POPC   C4A19458  31.346  13.893   7.705
 1361POPC   C1B19459  31.819  13.460   8.866
 1361POPC   C2B19460  31.868  13.450   8.462
 1361POPC   C3B19461  31.725  13.692   8.155
 1361POPC   C4B19462  31.806  13.573   7.762
 1362POPC   NC319463   1.706  15.201   9.531
 1362POPC   PO419464   2.295  14.854   9.655
 1362POPC   GL119465   2.154  15.053   9.219
 1362POPC   GL219466   1.847  14.903   9.130
 1362POPC   C1A19467   1.991  15.315   8.845
 1362POPC   D2A19468   2.087  15.281   8.394
 1362POPC   C3A19469   1.849  15.520   8.080
 1362POPC   C4A19470   1.956  15.590   7.640
 1362POPC   C1B19471   1.948  14.852   8.677
 1362POPC   C2B19472   1.960  14.715   8.283
 1362POPC   C3B19473   1.739  14.746   7.981
 1362POPC   C4B19474   1.879  15.097   7.795
 1363POPC   NC319475   5.212  23.139   9.528
 1363POPC   PO419476   4.986  22.605   9.457
 1363POPC   GL119477   5.308  22.767   9.171
 1363POPC   GL219478   5.430  22.493   9.038
 1363POPC   C1A19479   5.452  23.016   8.814
 1363POPC   D2A19480   5.370  23.317   8.442
 1363POPC   C3A19481   5.288  23.123   8.021
 1363POPC   C4A19482   4.851  23.147   7.833
 1363POPC   C1B19483   5.150  22.537   8.713
 1363POPC   C2B19484   5.250  22.620   8.290
 1363POPC   C3B19485   5.054  22.648   7.903
 1363POPC   C4B19486   5.299  22.515   7.564
 1364POPC   NC319487   3.061   3.303   9.370
 1364POPC   PO419488   2.350   3.434   9.324
 1364POPC   GL119489   2.699   3.591   9.112
 1364POPC   GL219490   2.868   3.918   9.248
 1364POPC   C1A19491   2.739   3.433   8.677
 1364POPC   D2A19492   2.595   3.461   8.239
 1364POPC   C3A19493   2.824   3.487   7.848
 1364POPC   C4A19494   3.071   3.243   7.560
 1364POPC   C1B19495   2.981   3.861   8.811
 1364POPC   C2B19496   2.758   3.894   8.434
 1364POPC   C3B19497   2.976   3.920   8.022
 1364POPC   C4B19498   2.752   4.001   7.638
 1365POPC   NC319499  32.777  19.340   9.611
 1365POPC   PO419500  33.183  18.755   9.396
 1365POPC   GL119501  32.968  18.812   9.018
 1365POPC   GL219502  32.753  19.076   9.135
 1365POPC   C1A19503  33.017  19.058   8.640
 1365POPC   D2A19504  33.208  19.067   8.221
 1365POPC   C3A19505  33.012  18.833   7.880
 1365POPC   C4A19506  33.185  18.842   7.434
 1365POPC   C1B19507  32.607  19.342   8.805
 1365POPC   C2B19508  32.728  19.503   8.392
 1365POPC   C3B19509  32.840  19.353   7.986
 1365POPC   C4B19510  33.204  19.269   7.730
 1366POPC   NC319511  38.937  33.672   9.468
 1366POPC   PO419512  39.627  33.825   9.547
 1366POPC   GL119513  39.318  33.925   9.205
 1366POPC   GL219514  39.221  33.629   9.038
 1366POPC   C1A19515  39.121  34.089   8.809
 1366POPC   D2A19516  39.016  33.754   8.516
 1366POPC   C3A19517  39.062  33.789   8.053
 1366POPC   C4A19518  38.838  33.691   7.673
 1366POPC   C1B19519  39.526  33.769   8.748
 1366POPC   C2B19520  39.504  33.918   8.352
 1366POPC   C3B19521  39.541  33.604   8.033
 1366POPC   C4B19522  39.327  33.524   7.670
 1367POPC   NC319523  30.993  32.423   9.535
 1367POPC   PO419524  30.565  31.855   9.513
 1367POPC   GL119525  30.645  32.178   9.200
 1367POPC   GL219526  30.987  32.174   9.111
 1367POPC   C1A19527  30.608  32.377   8.783
 1367POPC   D2A19528  30.787  32.305   8.350
 1367POPC   C3A19529  30.498  32.310   7.989
 1367POPC   C4A19530  30.396  32.309   7.510
 1367POPC   C1B19531  30.987  32.007   8.740
 1367POPC   C2B19532  31.034  31.847   8.344
 1367POPC   C3B19533  30.815  31.893   7.979
 1367POPC   C4B19534  30.925  32.267   7.741
 1368POPC   NC319535  35.104   9.226   9.345
 1368POPC   PO419536  35.386   8.628   9.462
 1368POPC   GL119537  35.445   8.769   9.089
 1368POPC   GL219538  35.094   8.754   9.016
 1368POPC   C1A19539  35.530   8.992   8.706
 1368POPC   D2A19540  35.325   9.031   8.303
 1368POPC   C3A19541  35.555   9.016   7.954
 1368POPC   C4A19542  35.736   8.661   7.766
 1368POPC   C1B19543  34.989   9.027   8.704
 1368POPC   C2B19544  34.798   9.015   8.331
 1368POPC   C3B19545  34.961   8.900   7.955
 1368POPC   C4B19546  35.157   9.208   7.679
 1369POPC   NC319547  35.329   3.262   9.365
 1369POPC   PO419548  35.699   3.806   9.179
 1369POPC   GL119549  35.343   3.648   9.021
 1369POPC   GL219550  35.088   3.889   9.109
 1369POPC   C1A19551  35.324   3.446   8.607
 1369POPC   D2A19552  35.401   3.624   8.209
 1369POPC   C3A19553  35.307   3.399   7.833
 1369POPC   C4A19554  35.448   3.522   7.420
 1369POPC   C1B19555  34.917   3.720   8.727
 1369POPC   C2B19556  34.892   3.552   8.325
 1369POPC   C3B19557  34.944   3.767   7.968
 1369POPC   C4B19558  34.955   3.723   7.558
 1370POPC   NC319559  35.153   7.317   9.369
 1370POPC   PO419560  35.686   7.708   9.434
 1370POPC   GL119561  35.463   7.587   9.047
 1370POPC   GL219562  35.144   7.748   9.025
 1370POPC   C1A19563  35.413   7.460   8.616
 1370POPC   D2A19564  35.357   7.090   8.354
 1370POPC   C3A19565  35.477   7.110   7.950
 1370POPC   C4A19566  35.392   7.082   7.509
 1370POPC   C1B19567  34.924   7.667   8.623
 1370POPC   C2B19568  35.050   7.512   8.223
 1370POPC   C3B19569  35.089   7.419   7.786
 1370POPC   C4B19570  35.211   7.530   7.374
 1371POPC   NC319571  25.928  30.196   9.534
 1371POPC   PO419572  25.854  30.902   9.573
 1371POPC   GL119573  26.022  30.749   9.180
 1371POPC   GL219574  25.932  30.446   9.113
 1371POPC   C1A19575  26.028  30.779   8.725
 1371POPC   D2A19576  26.229  30.973   8.361
 1371POPC   C3A19577  26.047  30.731   8.033
 1371POPC   C4A19578  25.728  30.870   7.768
 1371POPC   C1B19579  25.907  30.204   8.768
 1371POPC   C2B19580  26.016  30.304   8.384
 1371POPC   C3B19581  26.003  30.186   8.004
 1371POPC   C4B19582  25.823  30.373   7.692
 1372POPC   NC319583  14.816  34.502   9.685
 1372POPC   PO419584  14.159  34.726   9.499
 1372POPC   GL119585  14.480  34.816   9.178
 1372POPC   GL219586  14.784  34.899   9.321
 1372POPC   C1A19587  14.418  34.835   8.738
 1372POPC   D2A19588  14.197  34.490   8.471
 1372POPC   C3A19589  14.217  34.606   8.036
 1372POPC   C4A19590  14.474  34.417   7.717
 1372POPC   C1B19591  14.859  34.563   8.942
 1372POPC   C2B19592  14.727  34.506   8.490
 1372POPC   C3B19593  14.878  34.511   8.044
 1372POPC   C4B19594  14.777  34.815   7.699
 1373POPC   NC319595  39.856   4.108   9.769
 1373POPC   PO419596  39.976   3.459   9.464
 1373POPC   GL119597  40.200   3.522   9.118
 1373POPC   GL219598  40.237   3.867   9.148
 1373POPC   C1A19599  40.026   3.424   8.722
 1373POPC   D2A19600  39.619   3.448   8.520
 1373POPC   C3A19601  39.694   3.323   8.101
 1373POPC   C4A19602  40.139   3.214   7.932
 1373POPC   C1B19603  40.195   3.921   8.717
 1373POPC   C2B19604  39.952   3.800   8.369
 1373POPC   C3B19605  40.007   3.720   7.946
 1373POPC   C4B19606  39.993   3.894   7.541
 1374POPC   NC319607  14.937  36.759   9.416
 1374POPC   PO419608  15.412  37.251   9.420
 1374POPC   GL119609  15.171  37.099   9.123
 1374POPC   GL219610  15.388  36.808   9.102
 1374POPC   C1A19611  14.951  37.052   8.747
 1374POPC   D2A19612  15.255  36.984   8.399
 1374POPC   C3A19613  15.157  37.113   7.997
 1374POPC   C4A19614  15.115  37.004   7.586
 1374POPC   C1B19615  15.228  36.630   8.756
 1374POPC   C2B19616  15.078  36.504   8.349
 1374POPC   C3B19617  15.127  36.613   7.954
 1374POPC   C4B19618  14.738  36.749   7.843
 1375POPC   NC319619  15.157  40.225   9.507
 1375POPC   PO419620  14.817  39.695   9.282
 1375POPC   GL119621  15.030  39.913   9.003
 1375POPC   GL219622  15.354  39.931   9.109
 1375POPC   C1A19623  15.035  40.148   8.629
 1375POPC   D2A19624  14.781  40.331   8.281
 1375POPC   C3A19625  14.845  40.176   7.867
 1375POPC   C4A19626  15.028  39.855   7.587
 1375POPC   C1B19627  15.431  39.662   8.788
 1375POPC   C2B19628  15.202  39.732   8.431
 1375POPC   C3B19629  15.257  39.943   8.049
 1375POPC   C4B19630  15.495  39.752   7.699
 1376POPC   NC319631   5.075  18.558   9.514
 1376POPC   PO419632   5.004  19.211   9.667
 1376POPC   GL119633   5.221  19.244   9.231
 1376POPC   GL219634   5.309  18.945   9.112
 1376POPC   C1A19635   5.204  19.222   8.715
 1376POPC   D2A19636   4.904  19.068   8.385
 1376POPC   C3A19637   4.894  19.309   8.000
 1376POPC   C4A19638   5.230  19.440   7.709
 1376POPC   C1B19639   5.198  18.651   8.761
 1376POPC   C2B19640   5.327  18.712   8.351
 1376POPC   C3B19641   5.330  19.049   8.077
 1376POPC   C4B19642   5.160  18.937   7.695
 1377POPC   NC319643   4.496   5.418   9.506
 1377POPC   PO419644   4.072   4.923   9.465
 1377POPC   GL119645   4.304   4.935   9.086
 1377POPC   GL219646   4.423   5.249   9.042
 1377POPC   C1A19647   4.246   4.970   8.656
 1377POPC   D2A19648   4.260   5.222   8.324
 1377POPC   C3A19649   4.331   4.987   7.968
 1377POPC   C4A19650   4.103   5.210   7.679
 1377POPC   C1B19651   4.676   5.225   8.673
 1377POPC   C2B19652   4.740   5.011   8.289
 1377POPC   C3B19653   4.792   5.179   7.865
 1377POPC   C4B19654   4.558   5.066   7.474
 1378POPC   NC319655  15.163  33.577   9.530
 1378POPC   PO419656  14.806  34.124   9.441
 1378POPC   GL119657  15.175  34.083   9.185
 1378POPC   GL219658  15.317  33.727   9.086
 1378POPC   C1A19659  15.104  34.046   8.769
 1378POPC   D2A19660  15.223  33.844   8.423
 1378POPC   C3A19661  15.164  34.060   8.046
 1378POPC   C4A19662  14.914  34.100   7.647
 1378POPC   C1B19663  15.079  33.450   8.813
 1378POPC   C2B19664  15.112  33.352   8.384
 1378POPC   C3B19665  15.179  33.539   7.966
 1378POPC   C4B19666  15.237  33.705   7.518
 1379POPC   NC319667  16.816  15.466   9.729
 1379POPC   PO419668  16.479  14.937   9.586
 1379POPC   GL119669  16.754  15.163   9.297
 1379POPC   GL219670  16.464  15.178   9.099
 1379POPC   C1A19671  16.911  15.247   8.867
 1379POPC   D2A19672  16.932  14.978   8.522
 1379POPC   C3A19673  16.941  15.046   8.087
 1379POPC   C4A19674  16.947  14.767   7.788
 1379POPC   C1B19675  16.444  15.263   8.656
 1379POPC   C2B19676  16.486  15.203   8.242
 1379POPC   C3B19677  16.574  15.395   7.854
 1379POPC   C4B19678  16.636  15.666   7.473
 1380POPC   NC319679  18.205  12.523   9.613
 1380POPC   PO419680  18.149  11.962   9.517
 1380POPC   GL119681  18.392  12.136   9.196
 1380POPC   GL219682  18.594  11.880   9.021
 1380POPC   C1A19683  18.343  12.267   8.772
 1380POPC   D2A19684  18.415  12.119   8.362
 1380POPC   C3A19685  18.087  12.097   8.107
 1380POPC   C4A19686  17.985  12.372   7.801
 1380POPC   C1B19687  18.829  12.096   8.676
 1380POPC   C2B19688  18.860  11.860   8.302
 1380POPC   C3B19689  18.559  11.839   7.967
 1380POPC   C4B19690  18.252  11.944   7.656
 1381POPC   NC319691  40.663  33.806   9.592
 1381POPC   PO419692  41.293  33.674   9.569
 1381POPC   GL119693  41.010  33.903   9.229
 1381POPC   GL219694  40.620  33.961   9.112
 1381POPC   C1A19695  41.063  34.096   8.852
 1381POPC   D2A19696  41.104  33.919   8.466
 1381POPC   C3A19697  41.009  34.080   8.056
 1381POPC   C4A19698  40.940  33.888   7.673
 1381POPC   C1B19699  40.698  33.735   8.740
 1381POPC   C2B19700  40.640  33.668   8.300
 1381POPC   C3B19701  40.493  33.842   7.903
 1381POPC   C4B19702  40.393  33.552   7.565
 1382POPC   NC319703  10.970  14.757   9.446
 1382POPC   PO419704  11.533  14.432   9.753
 1382POPC   GL119705  11.503  14.386   9.285
 1382POPC   GL219706  11.656  14.072   9.132
 1382POPC   C1A19707  11.415  14.592   8.893
 1382POPC   D2A19708  11.181  14.434   8.535
 1382POPC   C3A19709  11.312  14.530   8.103
 1382POPC   C4A19710  11.012  14.659   7.810
 1382POPC   C1B19711  11.576  14.094   8.663
 1382POPC   C2B19712  11.310  14.021   8.257
 1382POPC   C3B19713  11.207  14.087   7.834
 1382POPC   C4B19714  11.438  14.364   7.612
 1383POPC   NC319715  12.725   6.992   9.559
 1383POPC   PO419716  13.152   7.489   9.695
 1383POPC   GL119717  13.004   7.545   9.255
 1383POPC   GL219718  12.897   7.867   9.237
 1383POPC   C1A19719  12.791   7.510   8.828
 1383POPC   D2A19720  12.852   7.311   8.418
 1383POPC   C3A19721  12.644   7.322   8.015
 1383POPC   C4A19722  12.762   7.082   7.653
 1383POPC   C1B19723  13.152   7.897   8.878
 1383POPC   C2B19724  13.198   7.678   8.523
 1383POPC   C3B19725  13.071   7.687   8.109
 1383POPC   C4B19726  12.976   7.597   7.685
 1384POPC   NC319727  27.874  27.379   9.600
 1384POPC   PO419728  27.324  27.718   9.506
 1384POPC   GL119729  27.499  27.861   9.146
 1384POPC   GL219730  27.651  27.569   9.156
 1384POPC   C1A19731  27.427  27.705   8.709
 1384POPC   D2A19732  27.591  27.760   8.284
 1384POPC   C3A19733  27.439  27.828   7.836
 1384POPC   C4A19734  27.563  27.853   7.391
 1384POPC   C1B19735  27.759  27.310   8.811
 1384POPC   C2B19736  27.655  27.239   8.400
 1384POPC   C3B19737  27.785  27.385   8.002
 1384POPC   C4B19738  27.644  27.393   7.571
 1385POPC   NC319739  41.509   8.537   9.497
 1385POPC   PO419740  41.891   9.130   9.627
 1385POPC   GL119741  41.585   9.006   9.242
 1385POPC   GL219742  41.580   8.728   9.017
 1385POPC   C1A19743  41.387   9.123   8.809
 1385POPC   D2A19744  41.563   9.009   8.434
 1385POPC   C3A19745  41.436   8.975   8.026
 1385POPC   C4A19746  41.171   9.187   7.748
 1385POPC   C1B19747  41.945   8.789   8.719
 1385POPC   C2B19748  41.977   8.767   8.287
 1385POPC   C3B19749  41.953   9.109   7.997
 1385POPC   C4B19750  41.756   8.938   7.632
 1386POPC   NC319751   0.426  20.050   9.503
 1386POPC   PO419752   0.313  20.728   9.570
 1386POPC   GL119753   0.286  20.563   9.166
 1386POPC   GL219754   0.610  20.405   9.127
 1386POPC   C1A19755   0.207  20.729   8.748
 1386POPC   D2A19756   0.262  20.478   8.385
 1386POPC   C3A19757   0.253  20.680   7.985
 1386POPC   C4A19758   0.718  20.782   7.893
 1386POPC   C1B19759   0.708  20.528   8.683
 1386POPC   C2B19760   0.781  20.398   8.246
 1386POPC   C3B19761   0.531  20.276   7.862
 1386POPC   C4B19762   0.244  20.404   7.499
 1387POPC   NC319763  41.966   5.747   9.392
 1387POPC   PO419764  41.462   6.193   9.564
 1387POPC   GL119765  41.560   6.040   9.166
 1387POPC   GL219766  41.259   5.854   9.045
 1387POPC   C1A19767  41.791   5.944   8.777
 1387POPC   D2A19768  41.714   6.079   8.349
 1387POPC   C3A19769  41.615   5.871   7.966
 1387POPC   C4A19770  41.331   6.112   7.736
 1387POPC   C1B19771  41.336   5.758   8.645
 1387POPC   C2B19772  41.315   5.578   8.268
 1387POPC   C3B19773  41.108   5.697   7.918
 1387POPC   C4B19774  41.243   5.657   7.519
 1388POPC   NC319775  29.116  25.624   9.721
 1388POPC   PO419776  29.159  26.299   9.531
 1388POPC   GL119777  29.128  26.142   9.112
 1388POPC   GL219778  28.875  25.923   9.115
 1388POPC   C1A19779  29.174  26.050   8.685
 1388POPC   D2A19780  28.963  25.928   8.320
 1388POPC   C3A19781  29.222  26.065   8.033
 1388POPC   C4A19782  29.377  26.275   7.697
 1388POPC   C1B19783  28.652  25.972   8.740
 1388POPC   C2B19784  28.548  26.227   8.380
 1388POPC   C3B19785  28.545  25.983   8.030
 1388POPC   C4B19786  28.825  25.926   7.749
 1389POPC   NC319787  23.903   5.401   9.665
 1389POPC   PO419788  23.949   6.025   9.378
 1389POPC   GL119789  23.696   5.902   9.044
 1389POPC   GL219790  23.631   5.543   9.141
 1389POPC   C1A19791  23.798   5.953   8.594
 1389POPC   D2A19792  24.068   6.092   8.235
 1389POPC   C3A19793  23.835   5.955   7.866
 1389POPC   C4A19794  23.362   5.939   7.902
 1389POPC   C1B19795  23.454   5.521   8.698
 1389POPC   C2B19796  23.360   5.487   8.239
 1389POPC   C3B19797  23.682   5.469   7.904
 1389POPC   C4B19798  24.125   5.367   7.875
 1390POPC   NC319799  20.935  14.934   9.470
 1390POPC   PO419800  20.714  15.556   9.668
 1390POPC   GL119801  20.651  15.375   9.233
 1390POPC   GL219802  20.884  15.522   9.010
 1390POPC   C1A19803  20.701  15.043   8.878
 1390POPC   D2A19804  20.903  14.944   8.482
 1390POPC   C3A19805  20.638  15.016   8.120
 1390POPC   C4A19806  20.319  14.921   7.804
 1390POPC   C1B19807  20.670  15.422   8.567
 1390POPC   C2B19808  20.247  15.285   8.409
 1390POPC   C3B19809  20.190  15.378   7.988
 1390POPC   C4B19810  20.593  15.357   7.739
 1391POPC   NC319811  10.274  12.258   9.687
 1391POPC   PO419812  10.771  11.836   9.462
 1391POPC   GL119813  10.696  11.881   9.086
 1391POPC   GL219814  10.358  12.012   9.148
 1391POPC   C1A19815  10.573  11.820   8.690
 1391POPC   D2A19816  10.505  12.014   8.325
 1391POPC   C3A19817  10.678  12.050   7.957
 1391POPC   C4A19818  10.455  11.743   7.768
 1391POPC   C1B19819  10.293  12.255   8.752
 1391POPC   C2B19820  10.305  12.466   8.321
 1391POPC   C3B19821  10.232  12.382   7.878
 1391POPC   C4B19822  10.173  12.579   7.478
 1392POPC   NC319823  43.458  14.444   9.499
 1392POPC   PO419824  44.078  14.665   9.444
 1392POPC   GL119825  43.911  14.354   9.160
 1392POPC   GL219826  43.571  14.453   8.993
 1392POPC   C1A19827  44.059  14.308   8.741
 1392POPC   D2A19828  43.877  14.322   8.305
 1392POPC   C3A19829  44.145  14.381   7.921
 1392POPC   C4A19830  44.319  14.654   7.564
 1392POPC   C1B19831  43.622  14.045   8.774
 1392POPC   C2B19832  43.651  13.851   8.359
 1392POPC   C3B19833  43.660  14.004   7.939
 1392POPC   C4B19834  43.632  14.420   7.842
 1393POPC   NC319835   6.098  13.815   9.454
 1393POPC   PO419836   5.705  13.252   9.473
 1393POPC   GL119837   5.679  13.572   9.083
 1393POPC   GL219838   5.849  13.918   9.004
 1393POPC   C1A19839   5.675  13.591   8.625
 1393POPC   D2A19840   5.981  13.498   8.327
 1393POPC   C3A19841   5.872  13.737   7.989
 1393POPC   C4A19842   5.877  13.720   7.534
 1393POPC   C1B19843   5.493  14.044   8.740
 1393POPC   C2B19844   5.434  13.917   8.279
 1393POPC   C3B19845   5.578  14.168   7.930
 1393POPC   C4B19846   5.564  14.126   7.475
 1394POPC   NC319847  28.589  29.837   9.540
 1394POPC   PO419848  28.039  30.137   9.502
 1394POPC   GL119849  28.202  29.869   9.190
 1394POPC   GL219850  28.415  30.152   9.110
 1394POPC   C1A19851  28.403  29.764   8.780
 1394POPC   D2A19852  28.494  30.024   8.402
 1394POPC   C3A19853  28.421  29.843   7.990
 1394POPC   C4A19854  28.026  29.689   7.797
 1394POPC   C1B19855  28.084  30.360   8.857
 1394POPC   C2B19856  27.891  30.346   8.452
 1394POPC   C3B19857  28.190  30.329   8.113
 1394POPC   C4B19858  28.216  30.189   7.696
 1395POPC   NC319859  35.632   6.447   9.236
 1395POPC   PO419860  35.165   6.857   9.362
 1395POPC   GL119861  34.990   6.730   9.041
 1395POPC   GL219862  35.062   6.379   9.088
 1395POPC   C1A19863  35.221   6.700   8.675
 1395POPC   D2A19864  35.307   6.366   8.429
 1395POPC   C3A19865  35.424   6.598   8.130
 1395POPC   C4A19866  35.492   6.638   7.743
 1395POPC   C1B19867  34.820   6.409   8.688
 1395POPC   C2B19868  34.844   6.511   8.243
 1395POPC   C3B19869  35.060   6.332   7.864
 1395POPC   C4B19870  35.013   6.185   7.414
 1396POPC   NC319871  41.199  25.623   9.505
 1396POPC   PO419872  41.299  26.286   9.618
 1396POPC   GL119873  41.437  26.086   9.240
 1396POPC   GL219874  41.798  26.116   9.132
 1396POPC   C1A19875  41.456  26.044   8.783
 1396POPC   D2A19876  41.299  25.821   8.438
 1396POPC   C3A19877  41.504  25.826   8.038
 1396POPC   C4A19878  41.411  26.173   7.767
 1396POPC   C1B19879  41.974  26.242   8.740
 1396POPC   C2B19880  41.880  26.009   8.361
 1396POPC   C3B19881  41.925  26.134   7.914
 1396POPC   C4B19882  41.898  26.167   7.467
 1397POPC   NC319883  36.412  32.000   9.506
 1397POPC   PO419884  36.117  32.594   9.480
 1397POPC   GL119885  36.018  32.439   9.075
 1397POPC   GL219886  36.085  32.099   9.102
 1397POPC   C1A19887  36.169  32.322   8.659
 1397POPC   D2A19888  36.395  32.243   8.276
 1397POPC   C3A19889  36.275  32.545   7.996
 1397POPC   C4A19890  35.977  32.422   7.723
 1397POPC   C1B19891  35.796  31.978   8.775
 1397POPC   C2B19892  35.975  31.924   8.331
 1397POPC   C3B19893  35.832  31.975   7.923
 1397POPC   C4B19894  35.630  31.735   7.613
 1398POPC   NC319895  34.368  36.698   9.346
 1398POPC   PO419896  35.034  36.949   9.432
 1398POPC   GL119897  34.737  36.965   9.075
 1398POPC   GL219898  34.446  37.189   9.045
 1398POPC   C1A19899  34.613  36.824   8.660
 1398POPC   D2A19900  34.746  36.684   8.255
 1398POPC   C3A19901  34.591  36.884   7.889
 1398POPC   C4A19902  34.599  36.530   7.619
 1398POPC   C1B19903  34.185  37.102   8.693
 1398POPC   C2B19904  34.309  37.072   8.289
 1398POPC   C3B19905  34.102  37.227   7.917
 1398POPC   C4B19906  34.348  37.237   7.579
 1399POPC   NC319907  30.964  23.630   9.640
 1399POPC   PO419908  30.368  23.958   9.426
 1399POPC   GL119909  30.565  23.677   9.112
 1399POPC   GL219910  30.887  23.789   9.155
 1399POPC   C1A19911  30.651  23.697   8.654
 1399POPC   D2A19912  30.514  23.871   8.241
 1399POPC   C3A19913  30.545  23.602   7.864
 1399POPC   C4A19914  30.611  23.598   7.408
 1399POPC   C1B19915  31.117  23.925   8.814
 1399POPC   C2B19916  30.968  24.033   8.419
 1399POPC   C3B19917  30.989  23.822   8.030
 1399POPC   C4B19918  30.867  23.974   7.644
 1400POPC   NC319919  13.370  19.627   9.523
 1400POPC   PO419920  14.024  19.985   9.396
 1400POPC   GL119921  13.701  20.054   9.077
 1400POPC   GL219922  13.574  19.741   9.087
 1400POPC   C1A19923  13.597  19.994   8.645
 1400POPC   D2A19924  13.878  19.932   8.361
 1400POPC   C3A19925  13.812  19.669   8.072
 1400POPC   C4A19926  13.940  19.834   7.733
 1400POPC   C1B19927  13.248  19.652   8.805
 1400POPC   C2B19928  13.394  19.570   8.361
 1400POPC   C3B19929  13.367  19.536   7.871
 1400POPC   C4B19930  13.400  19.365   7.396
 1401POPC   NC319931  31.264  42.173   9.836
 1401POPC   PO419932  31.889  42.091   9.569
 1401POPC   GL119933  31.559  42.262   9.278
 1401POPC   GL219934  31.207  42.198   9.302
 1401POPC   C1A19935  31.497  42.323   8.826
 1401POPC   D2A19936  31.746  42.183   8.438
 1401POPC   C3A19937  31.573  42.218   8.057
 1401POPC   C4A19938  31.528  42.546   7.796
 1401POPC   C1B19939  31.006  42.427   8.952
 1401POPC   C2B19940  31.059  42.473   8.536
 1401POPC   C3B19941  31.111  42.506   8.091
 1401POPC   C4B19942  31.086  42.239   7.724
 1402POPC   NC319943   2.354  29.312   9.441
 1402POPC   PO419944   2.127  28.670   9.540
 1402POPC   GL119945   1.958  28.902   9.179
 1402POPC   GL219946   2.121  29.186   9.023
 1402POPC   C1A19947   1.825  28.892   8.747
 1402POPC   D2A19948   1.858  29.191   8.409
 1402POPC   C3A19949   2.027  28.937   8.095
 1402POPC   C4A19950   1.822  28.767   7.768
 1402POPC   C1B19951   2.388  29.391   8.732
 1402POPC   C2B19952   2.306  29.462   8.303
 1402POPC   C3B19953   2.082  29.404   7.906
 1402POPC   C4B19954   2.087  29.136   7.541
 1403POPC   NC319955   2.880  30.188   9.692
 1403POPC   PO419956   2.573  29.733   9.370
 1403POPC   GL119957   2.799  29.980   9.107
 1403POPC   GL219958   2.628  30.255   9.189
 1403POPC   C1A19959   2.849  29.931   8.668
 1403POPC   D2A19960   2.773  29.655   8.316
 1403POPC   C3A19961   3.055  29.560   7.986
 1403POPC   C4A19962   3.038  29.847   7.641
 1403POPC   C1B19963   2.440  30.234   8.775
 1403POPC   C2B19964   2.485  30.096   8.338
 1403POPC   C3B19965   2.643  30.096   7.910
 1403POPC   C4B19966   2.382  30.100   7.547
 1404POPC   NC319967  15.492  42.484   9.435
 1404POPC   PO419968  14.876  42.294   9.613
 1404POPC   GL119969  15.065  42.314   9.214
 1404POPC   GL219970  15.316  42.063   9.105
 1404POPC   C1A19971  15.159  42.496   8.814
 1404POPC   D2A19972  15.180  42.289   8.417
 1404POPC   C3A19973  15.201  42.538   8.051
 1404POPC   C4A19974  15.110  42.337   7.675
 1404POPC   C1B19975  15.585  42.166   8.722
 1404POPC   C2B19976  15.664  42.352   8.269
 1404POPC   C3B19977  15.605  42.294   7.807
 1404POPC   C4B19978  15.507  42.405   7.349
 1405POPC   NC319979  38.548  27.675   9.442
 1405POPC   PO419980  38.115  27.184   9.623
 1405POPC   GL119981  38.369  27.258   9.205
 1405POPC   GL219982  38.722  27.158   9.255
 1405POPC   C1A19983  38.292  27.622   8.874
 1405POPC   D2A19984  38.182  27.955   8.560
 1405POPC   C3A19985  38.358  27.767   8.173
 1405POPC   C4A19986  38.586  27.782   7.779
 1405POPC   C1B19987  38.740  27.336   8.824
 1405POPC   C2B19988  38.398  27.321   8.495
 1405POPC   C3B19989  38.291  27.265   8.085
 1405POPC   C4B19990  38.626  27.260   7.779
 1406POPC   NC319991  20.783  27.773   9.552
 1406POPC   PO419992  20.426  27.265   9.318
 1406POPC   GL119993  20.568  27.645   9.084
 1406POPC   GL219994  20.894  27.848   9.056
 1406POPC   C1A19995  20.417  27.817   8.697
 1406POPC   D2A19996  20.318  27.611   8.314
 1406POPC   C3A19997  20.638  27.525   8.067
 1406POPC   C4A19998  20.659  27.667   7.618
 1406POPC   C1B19999  20.937  27.585   8.697
 1406POPC   C2B20000  21.108  27.451   8.302
 1406POPC   C3B20001  21.101  27.616   7.891
 1406POPC   C4B20002  21.101  27.508   7.431
 1407POPC   NC320003  44.574  18.495   9.586
 1407POPC   PO420004  44.986  18.013   9.460
 1407POPC   GL120005   0.009  18.314   9.128
 1407POPC   GL220006  44.672  18.453   9.100
 1407POPC   C1A20007  44.966  18.283   8.677
 1407POPC   D2A20008  44.785  18.072   8.343
 1407POPC   C3A20009   0.016  18.143   7.977
 1407POPC   C4A20010   0.007  18.368   7.594
 1407POPC   C1B20011  44.638  18.682   8.760
 1407POPC   C2B20012  44.503  18.591   8.398
 1407POPC   C3B20013  44.402  18.295   8.098
 1407POPC   C4B20014  44.516  18.291   7.690
 1408POPC   NC320015   7.929  29.635   9.418
 1408POPC   PO420016   8.543  29.413   9.545
 1408POPC   GL120017   8.489  29.790   9.253
 1408POPC   GL220018   8.345  30.141   9.169
 1408POPC   C1A20019   8.506  29.823   8.804
 1408POPC   D2A20020   8.490  30.141   8.496
 1408POPC   C3A20021   8.452  30.002   8.091
 1408POPC   C4A20022   8.263  29.779   7.745
 1408POPC   C1B20023   8.055  30.078   8.783
 1408POPC   C2B20024   7.970  30.233   8.378
 1408POPC   C3B20025   7.936  30.094   7.971
 1408POPC   C4B20026   7.740  29.751   7.794
 1409POPC   NC320027  25.303  27.970   9.658
 1409POPC   PO420028  24.997  28.519   9.531
 1409POPC   GL120029  25.126  28.346   9.128
 1409POPC   GL220030  25.429  28.492   8.932
 1409POPC   C1A20031  25.075  28.221   8.700
 1409POPC   D2A20032  25.217  28.562   8.461
 1409POPC   C3A20033  25.056  28.578   8.075
 1409POPC   C4A20034  25.178  28.335   7.761
 1409POPC   C1B20035  25.573  28.194   8.645
 1409POPC   C2B20036  25.506  28.174   8.216
 1409POPC   C3B20037  25.666  28.367   7.865
 1409POPC   C4B20038  25.602  28.056   7.576
 1410POPC   NC320039  15.591  34.359   9.506
 1410POPC   PO420040  15.125  34.835   9.734
 1410POPC   GL120041  15.244  34.679   9.319
 1410POPC   GL220042  15.273  34.970   9.133
 1410POPC   C1A20043  15.382  34.503   8.896
 1410POPC   D2A20044  15.231  34.425   8.469
 1410POPC   C3A20045  15.413  34.601   8.131
 1410POPC   C4A20046  15.336  34.416   7.751
 1410POPC   C1B20047  14.920  35.059   8.869
 1410POPC   C2B20048  14.973  34.954   8.475
 1410POPC   C3B20049  15.036  35.011   8.078
 1410POPC   C4B20050  15.272  34.912   7.734
 1411POPC   NC320051  16.286  27.305   9.299
 1411POPC   PO420052  15.750  27.610   9.535
 1411POPC   GL120053  15.921  27.664   9.121
 1411POPC   GL220054  15.768  27.360   8.994
 1411POPC   C1A20055  16.172  27.630   8.705
 1411POPC   D2A20056  16.291  27.941   8.361
 1411POPC   C3A20057  16.168  27.824   7.934
 1411POPC   C4A20058  16.233  27.423   7.734
 1411POPC   C1B20059  15.641  27.684   8.670
 1411POPC   C2B20060  15.794  27.783   8.279
 1411POPC   C3B20061  15.719  27.574   7.894
 1411POPC   C4B20062  15.483  27.793   7.600
 1412POPC   NC320063  42.862  26.104   9.513
 1412POPC   PO420064  43.500  25.879   9.468
 1412POPC   GL120065  43.329  26.101   9.119
 1412POPC   GL220066  43.206  26.427   9.142
 1412POPC   C1A20067  43.269  26.051   8.684
 1412POPC   D2A20068  43.383  25.710   8.392
 1412POPC   C3A20069  43.209  25.882   8.045
 1412POPC   C4A20070  43.294  26.050   7.672
 1412POPC   C1B20071  42.940  26.425   8.784
 1412POPC   C2B20072  42.851  26.222   8.371
 1412POPC   C3B20073  42.882  26.287   7.910
 1412POPC   C4B20074  42.817  26.105   7.482
 1413POPC   NC320075  35.974  39.315   9.523
 1413POPC   PO420076  35.617  38.785   9.252
 1413POPC   GL120077  35.893  39.153   9.040
 1413POPC   GL220078  36.285  39.272   9.114
 1413POPC   C1A20079  36.064  39.470   8.719
 1413POPC   D2A20080  36.355  39.466   8.411
 1413POPC   C3A20081  36.136  39.413   8.042
 1413POPC   C4A20082  36.388  39.327   7.665
 1413POPC   C1B20083  36.308  39.008   8.755
 1413POPC   C2B20084  36.098  39.013   8.368
 1413POPC   C3B20085  36.317  38.943   8.016
 1413POPC   C4B20086  36.407  38.827   7.630
 1414POPC   NC320087  41.736  33.530   9.617
 1414POPC   PO420088  41.902  34.199   9.456
 1414POPC   GL120089  41.779  33.936   9.047
 1414POPC   GL220090  41.497  33.690   9.095
 1414POPC   C1A20091  41.604  33.794   8.613
 1414POPC   D2A20092  41.823  33.710   8.234
 1414POPC   C3A20093  41.769  33.929   7.886
 1414POPC   C4A20094  41.399  34.059   7.708
 1414POPC   C1B20095  41.174  33.512   8.850
 1414POPC   C2B20096  41.143  33.413   8.418
 1414POPC   C3B20097  41.318  33.662   8.076
 1414POPC   C4B20098  41.322  33.560   7.671
 1415POPC   NC320099  41.230   0.502   9.504
 1415POPC   PO420100  41.767   0.845   9.641
 1415POPC   GL120101  41.585   0.771   9.215
 1415POPC   GL220102  41.473   0.463   9.078
 1415POPC   C1A20103  41.646   0.800   8.752
 1415POPC   D2A20104  41.729   0.598   8.344
 1415POPC   C3A20105  41.528   0.612   7.948
 1415POPC   C4A20106  41.700   0.574   7.563
 1415POPC   C1B20107  41.617   0.249   8.762
 1415POPC   C2B20108  41.453   0.144   8.408
 1415POPC   C3B20109  41.605   0.140   8.061
 1415POPC   C4B20110  41.433   0.151   7.663
 1416POPC   NC320111  30.511  41.392   9.898
 1416POPC   PO420112  30.992  41.652   9.503
 1416POPC   GL120113  30.854  41.443   9.095
 1416POPC   GL220114  30.461  41.377   9.006
 1416POPC   C1A20115  30.770  41.605   8.680
 1416POPC   D2A20116  30.487  41.357   8.469
 1416POPC   C3A20117  30.602  41.466   8.080
 1416POPC   C4A20118  30.928  41.333   7.827
 1416POPC   C1B20119  30.308  41.766   8.781
 1416POPC   C2B20120  30.404  41.862   8.352
 1416POPC   C3B20121  30.227  41.828   7.961
 1416POPC   C4B20122  30.297  41.507   7.660
 1417POPC   NC320123  30.999  36.443   9.861
 1417POPC   PO420124  30.626  36.169   9.372
 1417POPC   GL120125  30.731  36.154   9.008
 1417POPC   GL220126  30.424  36.206   8.834
 1417POPC   C1A20127  30.956  36.067   8.682
 1417POPC   D2A20128  30.716  36.170   8.338
 1417POPC   C3A20129  30.835  35.904   8.062
 1417POPC   C4A20130  30.694  35.849   7.708
 1417POPC   C1B20131  30.747  36.539   8.691
 1417POPC   C2B20132  31.093  36.563   8.465
 1417POPC   C3B20133  31.115  36.336   8.089
 1417POPC   C4B20134  30.791  36.354   7.791
 1418POPC   NC320135   7.855  28.643   9.311
 1418POPC   PO420136   8.455  28.417   9.568
 1418POPC   GL120137   8.367  28.252   9.181
 1418POPC   GL220138   8.019  28.206   9.111
 1418POPC   C1A20139   8.355  28.439   8.782
 1418POPC   D2A20140   8.335  28.204   8.428
 1418POPC   C3A20141   8.279  28.411   8.064
 1418POPC   C4A20142   8.611  28.374   7.794
 1418POPC   C1B20143   7.864  28.282   8.715
 1418POPC   C2B20144   7.826  28.124   8.325
 1418POPC   C3B20145   7.869  28.188   7.864
 1418POPC   C4B20146   7.911  28.048   7.425
 1419POPC   NC320147  24.754  39.335   9.433
 1419POPC   PO420148  24.334  38.828   9.580
 1419POPC   GL120149  24.350  39.077   9.220
 1419POPC   GL220150  24.696  38.958   9.125
 1419POPC   C1A20151  24.317  38.981   8.770
 1419POPC   D2A20152  24.450  39.255   8.419
 1419POPC   C3A20153  24.488  39.130   7.985
 1419POPC   C4A20154  24.585  39.482   7.698
 1419POPC   C1B20155  24.813  39.226   8.775
 1419POPC   C2B20156  25.023  39.191   8.338
 1419POPC   C3B20157  24.989  39.190   7.875
 1419POPC   C4B20158  24.897  39.164   7.436
 1420POPC   NC320159  34.122  32.556   9.387
 1420POPC   PO420160  34.048  31.862   9.464
 1420POPC   GL120161  33.768  32.084   9.102
 1420POPC   GL220162  33.672  32.456   9.102
 1420POPC   C1A20163  33.780  32.182   8.650
 1420POPC   D2A20164  33.969  32.169   8.229
 1420POPC   C3A20165  33.674  32.070   7.903
 1420POPC   C4A20166  33.460  32.053   7.541
 1420POPC   C1B20167  33.875  32.701   8.785
 1420POPC   C2B20168  33.930  32.675   8.351
 1420POPC   C3B20169  33.799  32.573   7.951
 1420POPC   C4B20170  34.043  32.535   7.635
 1421POPC   NC320171  44.303  33.625   9.788
 1421POPC   PO420172  44.827  33.942   9.507
 1421POPC   GL120173  44.692  33.654   9.164
 1421POPC   GL220174  44.916  33.434   8.980
 1421POPC   C1A20175  44.512  33.640   8.743
 1421POPC   D2A20176  44.488  33.855   8.368
 1421POPC   C3A20177  44.350  33.590   8.059
 1421POPC   C4A20178  44.098  33.705   7.766
 1421POPC   C1B20179   0.034  33.525   8.582
 1421POPC   C2B20180  44.881  33.561   8.200
 1421POPC   C3B20181  44.764  33.833   7.894
 1421POPC   C4B20182  44.758  33.689   7.488
 1422POPC   NC320183  12.938  20.520   9.650
 1422POPC   PO420184  12.836  19.757   9.574
 1422POPC   GL120185  12.970  20.024   9.242
 1422POPC   GL220186  12.680  20.056   9.053
 1422POPC   C1A20187  13.118  20.151   8.821
 1422POPC   D2A20188  12.977  19.922   8.464
 1422POPC   C3A20189  13.234  19.988   8.129
 1422POPC   C4A20190  13.077  20.141   7.789
 1422POPC   C1B20191  12.681  19.677   8.832
 1422POPC   C2B20192  12.501  19.707   8.409
 1422POPC   C3B20193  12.639  19.895   8.046
 1422POPC   C4B20194  12.818  19.697   7.723
 1423POPC   NC320195  16.873  13.966   9.436
 1423POPC   PO420196  16.515  13.445   9.393
 1423POPC   GL120197  16.902  13.514   9.157
 1423POPC   GL220198  16.953  13.251   8.933
 1423POPC   C1A20199  16.863  13.763   8.775
 1423POPC   D2A20200  16.563  13.745   8.427
 1423POPC   C3A20201  16.761  13.609   8.059
 1423POPC   C4A20202  16.913  13.847   7.714
 1423POPC   C1B20203  16.532  13.313   8.739
 1423POPC   C2B20204  16.271  13.318   8.344
 1423POPC   C3B20205  16.398  13.296   7.893
 1423POPC   C4B20206  16.812  13.276   7.669
 1424POPC   NC320207  23.932  40.334   9.439
 1424POPC   PO420208  23.999  41.122   9.419
 1424POPC   GL120209  23.700  40.847   9.187
 1424POPC   GL220210  23.431  40.628   9.324
 1424POPC   C1A20211  23.745  40.845   8.776
 1424POPC   D2A20212  23.975  40.635   8.495
 1424POPC   C3A20213  23.810  40.757   8.115
 1424POPC   C4A20214  23.880  40.568   7.746
 1424POPC   C1B20215  23.459  40.454   8.896
 1424POPC   C2B20216  23.444  40.580   8.454
 1424POPC   C3B20217  23.419  40.443   8.019
 1424POPC   C4B20218  23.418  40.748   7.672
 1425POPC   NC320219  31.851  23.912   9.926
 1425POPC   PO420220  31.386  23.453   9.722
 1425POPC   GL120221  31.352  23.561   9.285
 1425POPC   GL220222  31.116  23.330   9.227
 1425POPC   C1A20223  31.532  23.604   8.857
 1425POPC   D2A20224  31.649  23.452   8.438
 1425POPC   C3A20225  31.577  23.824   8.119
 1425POPC   C4A20226  31.389  23.864   7.689
 1425POPC   C1B20227  31.062  23.389   8.814
 1425POPC   C2B20228  31.172  23.566   8.432
 1425POPC   C3B20229  31.315  23.419   8.007
 1425POPC   C4B20230  31.051  23.470   7.645
 1426POPC   NC320231   5.738  40.658   9.372
 1426POPC   PO420232   5.991  41.185   9.665
 1426POPC   GL120233   6.047  41.010   9.164
 1426POPC   GL220234   6.382  40.941   9.008
 1426POPC   C1A20235   5.839  40.841   8.741
 1426POPC   D2A20236   5.499  40.600   8.455
 1426POPC   C3A20237   5.597  40.577   7.991
 1426POPC   C4A20238   5.532  40.988   7.828
 1426POPC   C1B20239   6.283  40.592   8.713
 1426POPC   C2B20240   6.049  40.610   8.312
 1426POPC   C3B20241   6.045  40.806   7.911
 1426POPC   C4B20242   6.231  41.013   7.567
 1427POPC   NC320243   0.977   5.483   9.423
 1427POPC   PO420244   1.141   6.160   9.528
 1427POPC   GL120245   1.091   5.932   9.173
 1427POPC   GL220246   1.327   5.730   9.108
 1427POPC   C1A20247   0.953   5.782   8.755
 1427POPC   D2A20248   0.804   5.972   8.397
 1427POPC   C3A20249   0.921   5.776   8.002
 1427POPC   C4A20250   0.772   5.924   7.583
 1427POPC   C1B20251   1.475   5.739   8.722
 1427POPC   C2B20252   1.338   5.683   8.324
 1427POPC   C3B20253   1.416   5.922   8.001
 1427POPC   C4B20254   1.277   5.930   7.592
 1428POPC   NC320255   9.642  10.836   9.351
 1428POPC   PO420256   9.522  10.225   9.547
 1428POPC   GL120257   9.796  10.297   9.192
 1428POPC   GL220258  10.063  10.591   9.184
 1428POPC   C1A20259   9.646  10.453   8.771
 1428POPC   D2A20260   9.473  10.675   8.384
 1428POPC   C3A20261   9.624  10.656   7.948
 1428POPC   C4A20262   9.623  10.271   7.725
 1428POPC   C1B20263  10.164  10.335   8.847
 1428POPC   C2B20264   9.970  10.189   8.471
 1428POPC   C3B20265  10.014  10.388   8.109
 1428POPC   C4B20266  10.131  10.276   7.708
 1429POPC   NC320267   8.103   6.399   9.440
 1429POPC   PO420268   8.427   6.928   9.575
 1429POPC   GL120269   8.206   6.829   9.173
 1429POPC   GL220270   7.957   7.065   9.103
 1429POPC   C1A20271   8.082   6.564   8.788
 1429POPC   D2A20272   7.823   6.439   8.408
 1429POPC   C3A20273   8.075   6.504   8.018
 1429POPC   C4A20274   8.469   6.543   7.784
 1429POPC   C1B20275   8.178   7.091   8.721
 1429POPC   C2B20276   8.086   6.901   8.348
 1429POPC   C3B20277   8.183   7.014   7.925
 1429POPC   C4B20278   7.966   6.942   7.555
 1430POPC   NC320279  22.449  12.625   9.361
 1430POPC   PO420280  22.254  13.269   9.414
 1430POPC   GL120281  22.446  13.080   9.031
 1430POPC   GL220282  22.263  13.182   8.759
 1430POPC   C1A20283  22.520  12.764   8.668
 1430POPC   D2A20284  22.168  12.643   8.364
 1430POPC   C3A20285  22.328  12.644   7.924
 1430POPC   C4A20286  22.583  12.971   7.695
 1430POPC   C1B20287  21.853  12.997   8.784
 1430POPC   C2B20288  21.630  13.021   8.413
 1430POPC   C3B20289  21.830  13.098   7.997
 1430POPC   C4B20290  21.710  13.070   7.560
 1431POPC   NC320291  19.062  34.088   9.575
 1431POPC   PO420292  18.876  33.484   9.367
 1431POPC   GL120293  19.029  33.826   9.129
 1431POPC   GL220294  19.296  34.089   9.149
 1431POPC   C1A20295  18.929  33.915   8.732
 1431POPC   D2A20296  18.877  34.037   8.318
 1431POPC   C3A20297  18.852  33.683   8.061
 1431POPC   C4A20298  18.736  33.773   7.658
 1431POPC   C1B20299  19.442  33.958   8.795
 1431POPC   C2B20300  19.343  33.787   8.417
 1431POPC   C3B20301  19.311  33.931   8.036
 1431POPC   C4B20302  19.232  33.739   7.679
 1432POPC   NC320303   5.403  11.063   9.454
 1432POPC   PO420304   4.852  11.400   9.608
 1432POPC   GL120305   5.010  11.293   9.192
 1432POPC   GL220306   4.973  11.592   9.034
 1432POPC   C1A20307   5.191  11.125   8.767
 1432POPC   D2A20308   5.182  10.984   8.310
 1432POPC   C3A20309   5.419  11.090   7.933
 1432POPC   C4A20310   5.277  11.152   7.502
 1432POPC   C1B20311   5.291  11.638   8.705
 1432POPC   C2B20312   5.318  11.501   8.269
 1432POPC   C3B20313   5.023  11.407   7.924
 1432POPC   C4B20314   4.998  11.580   7.500
 1433POPC   NC320315  14.836   1.518   9.494
 1433POPC   PO420316  15.210   0.939   9.600
 1433POPC   GL120317  15.228   1.158   9.167
 1433POPC   GL220318  15.504   1.389   9.123
 1433POPC   C1A20319  15.460   1.036   8.756
 1433POPC   D2A20320  15.262   1.069   8.373
 1433POPC   C3A20321  15.279   0.823   8.039
 1433POPC   C4A20322  15.117   0.983   7.697
 1433POPC   C1B20323  15.284   1.519   8.733
 1433POPC   C2B20324  15.080   1.537   8.339
 1433POPC   C3B20325  15.308   1.403   7.977
 1433POPC   C4B20326  15.543   1.616   7.649
 1434POPC   NC320327  42.361   7.304   9.511
 1434POPC   PO420328  42.843   6.946   9.194
 1434POPC   GL120329  42.474   7.175   9.028
 1434POPC   GL220330  42.364   7.517   9.053
 1434POPC   C1A20331  42.130   7.224   8.724
 1434POPC   D2A20332  42.008   6.959   8.376
 1434POPC   C3A20333  42.107   7.200   8.024
 1434POPC   C4A20334  42.260   7.163   7.605
 1434POPC   C1B20335  42.317   7.759   8.714
 1434POPC   C2B20336  42.336   7.723   8.295
 1434POPC   C3B20337  42.415   7.598   7.885
 1434POPC   C4B20338  42.450   7.600   7.399
 1435POPC   NC320339  33.770  27.518   9.395
 1435POPC   PO420340  33.141  27.173   9.425
 1435POPC   GL120341  33.413  27.321   9.082
 1435POPC   GL220342  33.486  27.701   8.987
 1435POPC   C1A20343  33.661  27.338   8.696
 1435POPC   D2A20344  33.637  27.684   8.403
 1435POPC   C3A20345  33.576  27.561   7.989
 1435POPC   C4A20346  33.449  27.825   7.616
 1435POPC   C1B20347  33.955  27.740   8.821
 1435POPC   C2B20348  34.118  27.566   8.464
 1435POPC   C3B20349  34.059  27.704   8.079
 1435POPC   C4B20350  33.941  27.808   7.693
 1436POPC   NC320351   9.559  43.468   9.595
 1436POPC   PO420352   9.990  44.031   9.479
 1436POPC   GL120353   9.722  44.032   9.143
 1436POPC   GL220354   9.966  44.267   9.018
 1436POPC   C1A20355   9.645  43.749   8.765
 1436POPC   D2A20356   9.686  43.475   8.381
 1436POPC   C3A20357   9.562  43.671   7.991
 1436POPC   C4A20358   9.678  44.069   7.753
 1436POPC   C1B20359   9.690  44.283   8.693
 1436POPC   C2B20360   9.631  44.071   8.331
 1436POPC   C3B20361   9.297  44.137   8.112
 1436POPC   C4B20362   9.160  44.223   7.711
 1437POPC   NC320363  44.996   5.551   9.547
 1437POPC   PO420364  44.597   6.037   9.727
 1437POPC   GL120365  44.793   5.972   9.290
 1437POPC   GL220366   0.164   5.939   9.240
 1437POPC   C1A20367  44.638   5.741   8.895
 1437POPC   D2A20368  44.349   5.680   8.511
 1437POPC   C3A20369  44.501   5.642   8.061
 1437POPC   C4A20370  44.520   5.988   7.734
 1437POPC   C1B20371   0.014   6.107   8.837
 1437POPC   C2B20372  44.719   6.057   8.493
 1437POPC   C3B20373  44.864   5.999   8.096
 1437POPC   C4B20374   0.133   6.181   7.841
 1438POPC   NC320375  32.410  26.360   9.461
 1438POPC   PO420376  32.247  25.759   9.677
 1438POPC   GL120377  32.232  25.867   9.210
 1438POPC   GL220378  32.491  25.735   8.977
 1438POPC   C1A20379  32.081  25.924   8.764
 1438POPC   D2A20380  32.257  25.775   8.340
 1438POPC   C3A20381  32.186  25.947   7.930
 1438POPC   C4A20382  32.061  26.214   7.615
 1438POPC   C1B20383  32.574  26.049   8.656
 1438POPC   C2B20384  32.460  26.267   8.267
 1438POPC   C3B20385  32.535  26.332   7.828
 1438POPC   C4B20386  32.523  26.018   7.501
 1439POPC   NC320387   1.555  20.623   9.468
 1439POPC   PO420388   2.198  20.860   9.441
 1439POPC   GL120389   1.961  20.615   9.122
 1439POPC   GL220390   1.600  20.619   8.967
 1439POPC   C1A20391   2.004  20.438   8.706
 1439POPC   D2A20392   2.236  20.274   8.360
 1439POPC   C3A20393   2.033  20.448   8.013
 1439POPC   C4A20394   1.967  20.296   7.630
 1439POPC   C1B20395   1.573  20.846   8.570
 1439POPC   C2B20396   1.789  20.911   8.183
 1439POPC   C3B20397   1.693  20.895   7.757
 1439POPC   C4B20398   1.783  20.846   7.338
 1440POPC   NC320399  11.683  12.095   9.256
 1440POPC   PO420400  12.315  12.293   9.471
 1440POPC   GL120401  12.439  11.980   9.172
 1440POPC   GL220402  12.135  11.859   9.072
 1440POPC   C1A20403  12.497  11.973   8.732
 1440POPC   D2A20404  12.242  12.173   8.455
 1440POPC   C3A20405  12.363  12.074   8.065
 1440POPC   C4A20406  12.085  11.868   7.815
 1440POPC   C1B20407  11.887  11.794   8.684
 1440POPC   C2B20408  11.822  11.901   8.276
 1440POPC   C3B20409  11.578  11.781   7.954
 1440POPC   C4B20410  11.763  11.531   7.635
 1441POPC   NC320411  43.308  41.291   9.411
 1441POPC   PO420412  42.921  41.800   9.420
 1441POPC   GL120413  43.020  42.008   9.054
 1441POPC   GL220414  43.330  41.941   9.114
 1441POPC   C1A20415  42.953  41.810   8.674
 1441POPC   D2A20416  43.108  41.375   8.591
 1441POPC   C3A20417  43.077  41.367   8.138
 1441POPC   C4A20418  43.026  41.764   7.949
 1441POPC   C1B20419  43.441  41.714   8.783
 1441POPC   C2B20420  43.383  41.760   8.356
 1441POPC   C3B20421  43.514  41.571   7.999
 1441POPC   C4B20422  43.405  41.195   7.755
 1442POPC   NC320423   1.435  32.113   9.241
 1442POPC   PO420424   2.041  32.237   9.484
 1442POPC   GL120425   1.882  32.392   9.103
 1442POPC   GL220426   1.891  32.090   8.967
 1442POPC   C1A20427   2.044  32.488   8.672
 1442POPC   D2A20428   1.956  32.422   8.237
 1442POPC   C3A20429   2.177  32.549   7.865
 1442POPC   C4A20430   1.946  32.233   7.654
 1442POPC   C1B20431   1.608  32.095   8.609
 1442POPC   C2B20432   1.397  31.858   8.272
 1442POPC   C3B20433   1.491  31.966   7.832
 1442POPC   C4B20434   1.511  32.019   7.382
 1443POPC   NC320435  26.634   5.246   9.731
 1443POPC   PO420436  26.951   4.703   9.552
 1443POPC   GL120437  26.704   4.967   9.246
 1443POPC   GL220438  26.612   5.337   9.229
 1443POPC   C1A20439  26.622   4.969   8.808
 1443POPC   D2A20440  26.439   5.068   8.430
 1443POPC   C3A20441  26.705   5.022   8.120
 1443POPC   C4A20442  26.852   4.944   7.734
 1443POPC   C1B20443  26.902   5.378   8.913
 1443POPC   C2B20444  26.847   5.374   8.478
 1443POPC   C3B20445  26.762   5.543   8.077
 1443POPC   C4B20446  26.782   5.442   7.643
 1444POPC   NC320447  31.019  17.146   9.752
 1444POPC   PO420448  31.586  17.428   9.417
 1444POPC   GL120449  31.566  17.452   9.014
 1444POPC   GL220450  31.306  17.621   9.004
 1444POPC   C1A20451  31.528  17.355   8.611
 1444POPC   D2A20452  31.788  17.482   8.306
 1444POPC   C3A20453  31.541  17.560   7.954
 1444POPC   C4A20454  31.771  17.434   7.617
 1444POPC   C1B20455  31.240  17.867   8.686
 1444POPC   C2B20456  31.101  17.730   8.318
 1444POPC   C3B20457  31.168  17.924   7.944
 1444POPC   C4B20458  31.475  17.996   7.687
 1445POPC   NC320459  32.789  21.025   9.428
 1445POPC   PO420460  33.253  20.542   9.683
 1445POPC   GL120461  33.288  20.460   9.210
 1445POPC   GL220462  32.957  20.511   9.073
 1445POPC   C1A20463  33.315  20.711   8.793
 1445POPC   D2A20464  33.086  20.731   8.360
 1445POPC   C3A20465  33.302  20.767   7.906
 1445POPC   C4A20466  33.369  20.896   7.412
 1445POPC   C1B20467  32.711  20.519   8.686
 1445POPC   C2B20468  32.716  20.264   8.333
 1445POPC   C3B20469  32.831  20.479   7.986
 1445POPC   C4B20470  32.893  20.689   7.604
 1446POPC   NC320471  36.149  24.759   9.461
 1446POPC   PO420472  36.641  24.402   9.768
 1446POPC   GL120473  36.429  24.354   9.285
 1446POPC   GL220474  36.078  24.243   9.191
 1446POPC   C1A20475  36.438  24.475   8.818
 1446POPC   D2A20476  36.552  24.500   8.367
 1446POPC   C3A20477  36.332  24.504   7.983
 1446POPC   C4A20478  35.919  24.363   7.856
 1446POPC   C1B20479  35.974  24.300   8.729
 1446POPC   C2B20480  36.041  24.626   8.389
 1446POPC   C3B20481  35.971  24.863   8.004
 1446POPC   C4B20482  35.629  24.858   7.743
 1447POPC   NC320483  40.198  37.529   9.515
 1447POPC   PO420484  39.511  37.555   9.434
 1447POPC   GL120485  39.858  37.731   9.140
 1447POPC   GL220486  40.067  37.473   9.026
 1447POPC   C1A20487  40.075  37.898   8.742
 1447POPC   D2A20488  40.171  37.686   8.363
 1447POPC   C3A20489  40.190  37.645   7.926
 1447POPC   C4A20490  40.030  37.662   7.460
 1447POPC   C1B20491  39.788  37.457   8.640
 1447POPC   C2B20492  39.771  37.377   8.170
 1447POPC   C3B20493  39.871  37.272   7.735
 1447POPC   C4B20494  39.694  37.280   7.290
 1448POPC   NC320495  40.983   2.631   9.537
 1448POPC   PO420496  40.611   3.168   9.492
 1448POPC   GL120497  40.702   2.806   9.146
 1448POPC   GL220498  40.966   2.479   9.071
 1448POPC   C1A20499  40.975   2.869   8.767
 1448POPC   D2A20500  41.002   3.017   8.362
 1448POPC   C3A20501  40.642   3.037   8.082
 1448POPC   C4A20502  40.837   2.975   7.683
 1448POPC   C1B20503  40.675   2.457   8.763
 1448POPC   C2B20504  40.702   2.557   8.378
 1448POPC   C3B20505  40.828   2.562   8.006
 1448POPC   C4B20506  40.572   2.520   7.656
 1449POPC   NC320507   5.674  34.222   9.307
 1449POPC   PO420508   6.078  34.611   9.745
 1449POPC   GL120509   6.063  34.554   9.244
 1449POPC   GL220510   5.793  34.724   9.082
 1449POPC   C1A20511   6.004  34.401   8.757
 1449POPC   D2A20512   5.761  34.341   8.393
 1449POPC   C3A20513   5.956  34.338   7.998
 1449POPC   C4A20514   5.726  34.416   7.634
 1449POPC   C1B20515   5.562  34.665   8.752
 1449POPC   C2B20516   5.511  34.830   8.395
 1449POPC   C3B20517   5.559  34.681   8.041
 1449POPC   C4B20518   5.727  34.903   7.746
 1450POPC   NC320519   1.062  27.196   9.498
 1450POPC   PO420520   1.106  26.551   9.845
 1450POPC   GL120521   1.227  26.642   9.377
 1450POPC   GL220522   1.204  26.354   9.142
 1450POPC   C1A20523   1.449  26.792   8.972
 1450POPC   D2A20524   1.281  27.075   8.626
 1450POPC   C3A20525   1.255  27.043   8.150
 1450POPC   C4A20526   1.170  27.031   7.709
 1450POPC   C1B20527   1.236  26.421   8.685
 1450POPC   C2B20528   1.428  26.577   8.304
 1450POPC   C3B20529   1.258  26.521   7.877
 1450POPC   C4B20530   0.922  26.225   7.788
 1451POPC   NC320531   0.715  13.357   9.480
 1451POPC   PO420532   0.111  13.588   9.771
 1451POPC   GL120533   0.312  13.734   9.356
 1451POPC   GL220534   0.329  13.459   9.176
 1451POPC   C1A20535   0.427  13.883   8.898
 1451POPC   D2A20536   0.521  13.957   8.435
 1451POPC   C3A20537   0.362  13.744   8.026
 1451POPC   C4A20538   0.343  13.791   7.544
 1451POPC   C1B20539   0.421  13.384   8.782
 1451POPC   C2B20540   0.321  13.316   8.377
 1451POPC   C3B20541   0.537  13.256   8.012
 1451POPC   C4B20542   0.274  13.290   7.678
 1452POPC   NC320543  14.189  44.336   9.635
 1452POPC   PO420544  14.797  44.497   9.333
 1452POPC   GL120545  14.358  44.531   9.179
 1452POPC   GL220546  14.199  44.838   9.161
 1452POPC   C1A20547  14.272  44.492   8.763
 1452POPC   D2A20548  14.630  44.459   8.474
 1452POPC   C3A20549  14.609  44.241   8.075
 1452POPC   C4A20550  14.707  44.374   7.663
 1452POPC   C1B20551  14.153  44.983   8.737
 1452POPC   C2B20552  14.325  44.875   8.357
 1452POPC   C3B20553  14.584  44.761   8.031
 1452POPC   C4B20554  14.262  44.598   7.800
 1453POPC   NC320555  10.277  20.545   9.467
 1453POPC   PO420556  10.791  20.965   9.558
 1453POPC   GL120557  10.598  20.780   9.166
 1453POPC   GL220558  10.813  20.691   8.982
 1453POPC   C1A20559  10.337  20.542   8.795
 1453POPC   D2A20560  10.308  20.612   8.351
 1453POPC   C3A20561  10.268  20.366   7.995
 1453POPC   C4A20562  10.311  20.699   7.761
 1453POPC   C1B20563  10.783  20.626   8.548
 1453POPC   C2B20564  10.835  20.696   8.091
 1453POPC   C3B20565  10.751  20.434   7.745
 1453POPC   C4B20566  10.814  20.521   7.301
 1454POPC   NC320567  28.142  41.159   9.411
 1454POPC   PO420568  27.450  41.250   9.487
 1454POPC   GL120569  27.640  41.392   9.118
 1454POPC   GL220570  27.321  41.528   9.041
 1454POPC   C1A20571  27.713  41.400   8.660
 1454POPC   D2A20572  27.665  41.275   8.227
 1454POPC   C3A20573  27.601  41.590   7.906
 1454POPC   C4A20574  27.844  41.690   7.512
 1454POPC   C1B20575  27.211  41.270   8.700
 1454POPC   C2B20576  27.179  41.444   8.307
 1454POPC   C3B20577  27.196  41.187   7.973
 1454POPC   C4B20578  27.459  41.184   7.635
 1455POPC   NC320579  37.548  44.654   9.462
 1455POPC   PO420580  38.046  44.217   9.583
 1455POPC   GL120581  37.924  44.467   9.197
 1455POPC   GL220582  37.591  44.420   9.015
 1455POPC   C1A20583  37.814  44.862   8.909
 1455POPC   D2A20584  37.571  45.000   8.538
 1455POPC   C3A20585  37.657  44.810   8.132
 1455POPC   C4A20586  37.879  44.925   7.769
 1455POPC   C1B20587  37.296  44.431   8.688
 1455POPC   C2B20588  37.326  44.267   8.294
 1455POPC   C3B20589  37.651  44.276   8.031
 1455POPC   C4B20590  37.558  44.480   7.711
 1456POPC   NC320591  18.561  23.349   9.590
 1456POPC   PO420592  18.015  23.857   9.426
 1456POPC   GL120593  18.265  23.581   9.191
 1456POPC   GL220594  18.571  23.710   9.088
 1456POPC   C1A20595  18.244  23.468   8.745
 1456POPC   D2A20596  18.016  23.620   8.387
 1456POPC   C3A20597  18.108  23.446   7.992
 1456POPC   C4A20598  18.372  23.654   7.697
 1456POPC   C1B20599  18.669  23.748   8.643
 1456POPC   C2B20600  18.540  23.701   8.210
 1456POPC   C3B20601  18.638  24.016   7.899
 1456POPC   C4B20602  18.561  24.101   7.428
 1457POPC   NC320603  43.382   7.750   9.428
 1457POPC   PO420604  43.039   8.451   9.345
 1457POPC   GL120605  43.114   8.322   9.030
 1457POPC   GL220606  43.113   8.006   9.109
 1457POPC   C1A20607  43.046   8.410   8.659
 1457POPC   D2A20608  43.166   8.248   8.313
 1457POPC   C3A20609  42.893   8.338   8.000
 1457POPC   C4A20610  43.112   8.259   7.624
 1457POPC   C1B20611  43.078   7.884   8.691
 1457POPC   C2B20612  43.278   7.752   8.363
 1457POPC   C3B20613  43.253   7.874   7.943
 1457POPC   C4B20614  43.441   7.871   7.550
 1458POPC   NC320615   0.872  31.853   9.683
 1458POPC   PO420616   1.077  32.416   9.385
 1458POPC   GL120617   1.144  32.455   9.024
 1458POPC   GL220618   1.416  32.603   9.054
 1458POPC   C1A20619   1.095  32.271   8.660
 1458POPC   D2A20620   0.776  32.195   8.397
 1458POPC   C3A20621   1.002  32.115   8.042
 1458POPC   C4A20622   1.049  32.176   7.620
 1458POPC   C1B20623   1.221  32.786   8.675
 1458POPC   C2B20624   1.086  32.620   8.261
 1458POPC   C3B20625   1.317  32.511   7.875
 1458POPC   C4B20626   1.332  32.498   7.383
 1459POPC   NC320627   5.839  34.953   9.532
 1459POPC   PO420628   6.085  35.579   9.492
 1459POPC   GL120629   5.925  35.312   9.180
 1459POPC   GL220630   6.168  35.054   9.163
 1459POPC   C1A20631   5.756  35.161   8.799
 1459POPC   D2A20632   5.938  35.148   8.411
 1459POPC   C3A20633   5.702  35.281   8.100
 1459POPC   C4A20634   5.828  35.394   7.697
 1459POPC   C1B20635   6.197  34.866   8.765
 1459POPC   C2B20636   6.162  34.700   8.321
 1459POPC   C3B20637   6.157  35.007   7.955
 1459POPC   C4B20638   6.125  35.033   7.463
 1460POPC   NC320639  25.403  27.861   9.183
 1460POPC   PO420640  25.098  27.544   9.727
 1460POPC   GL120641  25.160  27.409   9.194
 1460POPC   GL220642  25.082  27.618   8.876
 1460POPC   C1A20643  25.509  27.351   8.809
 1460POPC   D2A20644  25.576  27.652   8.429
 1460POPC   C3A20645  25.519  27.465   7.986
 1460POPC   C4A20646  25.452  27.559   7.507
 1460POPC   C1B20647  24.808  27.786   8.552
 1460POPC   C2B20648  24.997  28.007   8.216
 1460POPC   C3B20649  25.196  27.838   7.852
 1460POPC   C4B20650  25.133  27.977   7.401
 1461POPC   NC320651  16.974  23.309   9.725
 1461POPC   PO420652  16.537  23.707   9.400
 1461POPC   GL120653  16.743  23.696   9.082
 1461POPC   GL220654  16.874  24.038   9.020
 1461POPC   C1A20655  16.557  23.592   8.706
 1461POPC   D2A20656  16.602  23.717   8.337
 1461POPC   C3A20657  16.621  23.394   8.069
 1461POPC   C4A20658  16.620  23.629   7.737
 1461POPC   C1B20659  17.038  23.799   8.683
 1461POPC   C2B20660  17.070  23.891   8.264
 1461POPC   C3B20661  17.090  23.602   7.946
 1461POPC   C4B20662  17.071  23.649   7.480
 1462POPC   NC320663  29.304  31.331   9.539
 1462POPC   PO420664  28.895  31.901   9.536
 1462POPC   GL120665  28.978  31.614   9.231
 1462POPC   GL220666  29.289  31.673   9.167
 1462POPC   C1A20667  28.939  31.607   8.787
 1462POPC   D2A20668  29.072  31.272   8.542
 1462POPC   C3A20669  29.102  31.324   8.112
 1462POPC   C4A20670  28.951  31.633   7.863
 1462POPC   C1B20671  29.477  31.546   8.775
 1462POPC   C2B20672  29.563  31.343   8.416
 1462POPC   C3B20673  29.595  31.322   7.980
 1462POPC   C4B20674  29.413  31.533   7.677
 1463POPC   NC320675  23.164  19.608   9.423
 1463POPC   PO420676  23.821  19.722   9.624
 1463POPC   GL120677  23.642  19.766   9.216
 1463POPC   GL220678  23.523  19.447   9.087
 1463POPC   C1A20679  23.415  20.047   8.946
 1463POPC   D2A20680  23.516  20.195   8.537
 1463POPC   C3A20681  23.393  19.920   8.183
 1463POPC   C4A20682  23.368  20.045   7.743
 1463POPC   C1B20683  23.594  19.647   8.689
 1463POPC   C2B20684  23.858  19.853   8.392
 1463POPC   C3B20685  23.919  19.674   8.001
 1463POPC   C4B20686  23.532  19.550   7.847
 1464POPC   NC320687  15.345  43.343   9.392
 1464POPC   PO420688  15.226  42.750   9.749
 1464POPC   GL120689  15.107  42.858   9.249
 1464POPC   GL220690  14.926  43.176   9.157
 1464POPC   C1A20691  15.301  43.010   8.777
 1464POPC   D2A20692  15.474  42.892   8.360
 1464POPC   C3A20693  15.322  43.068   7.954
 1464POPC   C4A20694  15.261  42.808   7.575
 1464POPC   C1B20695  14.827  42.902   8.808
 1464POPC   C2B20696  14.970  42.918   8.364
 1464POPC   C3B20697  14.838  42.907   7.915
 1464POPC   C4B20698  14.438  42.821   7.726
 1465POPC   NC320699  14.224  13.465   9.434
 1465POPC   PO420700  14.372  14.079   9.407
 1465POPC   GL120701  14.457  13.790   9.114
 1465POPC   GL220702  14.698  13.544   9.224
 1465POPC   C1A20703  14.317  13.662   8.747
 1465POPC   D2A20704  13.988  13.667   8.478
 1465POPC   C3A20705  14.092  13.432   8.131
 1465POPC   C4A20706  14.085  13.618   7.765
 1465POPC   C1B20707  14.813  13.514   8.780
 1465POPC   C2B20708  14.669  13.380   8.355
 1465POPC   C3B20709  14.569  13.493   7.937
 1465POPC   C4B20710  14.728  13.669   7.560
 1466POPC   NC320711  23.302  38.054   9.592
 1466POPC   PO420712  23.139  37.426   9.433
 1466POPC   GL120713  22.956  37.644   9.080
 1466POPC   GL220714  22.952  37.957   9.159
 1466POPC   C1A20715  22.786  37.643   8.619
 1466POPC   D2A20716  22.802  37.523   8.152
 1466POPC   C3A20717  23.174  37.552   7.980
 1466POPC   C4A20718  23.266  37.780   7.667
 1466POPC   C1B20719  23.118  38.038   8.710
 1466POPC   C2B20720  22.970  37.999   8.253
 1466POPC   C3B20721  22.865  38.059   7.803
 1466POPC   C4B20722  23.129  38.199   7.436
 1467POPC   NC320723  15.203  44.274   9.296
 1467POPC   PO420724  15.071  44.949   9.583
 1467POPC   GL120725  15.162  44.800   9.130
 1467POPC   GL220726  15.012  44.507   8.880
 1467POPC   C1A20727  15.319  44.864   8.695
 1467POPC   D2A20728  15.453  44.910   8.264
 1467POPC   C3A20729  15.136  44.818   7.940
 1467POPC   C4A20730  15.132   0.016   7.550
 1467POPC   C1B20731  15.422  44.375   8.685
 1467POPC   C2B20732  15.537  44.392   8.238
 1467POPC   C3B20733  15.274  44.322   7.868
 1467POPC   C4B20734  15.156  44.508   7.475
 1468POPC   NC320735   3.522   5.629   9.419
 1468POPC   PO420736   3.607   6.316   9.432
 1468POPC   GL120737   3.564   6.029   9.108
 1468POPC   GL220738   3.192   5.971   9.164
 1468POPC   C1A20739   3.718   5.719   8.775
 1468POPC   D2A20740   3.631   5.580   8.335
 1468POPC   C3A20741   3.720   5.955   8.064
 1468POPC   C4A20742   3.552   6.046   7.662
 1468POPC   C1B20743   3.252   6.025   8.710
 1468POPC   C2B20744   3.125   5.811   8.325
 1468POPC   C3B20745   3.314   5.676   7.939
 1468POPC   C4B20746   3.264   5.669   7.455
 1469POPC   NC320747  44.159  12.551   9.502
 1469POPC   PO420748  43.906  11.929   9.493
 1469POPC   GL120749  43.737  12.010   9.097
 1469POPC   GL220750  43.917  12.314   9.107
 1469POPC   C1A20751  43.683  11.793   8.737
 1469POPC   D2A20752  43.847  11.799   8.363
 1469POPC   C3A20753  43.643  12.012   8.029
 1469POPC   C4A20754  43.680  12.115   7.581
 1469POPC   C1B20755  44.175  12.015   8.833
 1469POPC   C2B20756  44.334  11.933   8.419
 1469POPC   C3B20757  44.158  12.049   8.019
 1469POPC   C4B20758  44.092  11.838   7.630
 1470POPC   NC320759  16.410  34.777   9.448
 1470POPC   PO420760  16.903  34.325   9.557
 1470POPC   GL120761  16.669  34.420   9.185
 1470POPC   GL220762  16.727  34.756   9.056
 1470POPC   C1A20763  16.529  34.239   8.808
 1470POPC   D2A20764  16.526  34.408   8.409
 1470POPC   C3A20765  16.486  34.229   8.054
 1470POPC   C4A20766  16.838  34.145   7.788
 1470POPC   C1B20767  16.586  34.840   8.639
 1470POPC   C2B20768  16.655  34.882   8.188
 1470POPC   C3B20769  16.636  34.647   7.809
 1470POPC   C4B20770  16.492  34.832   7.392
 1471POPC   NC320771  36.853  35.980   9.397
 1471POPC   PO420772  36.703  36.607   9.570
 1471POPC   GL120773  36.676  36.400   9.158
 1471POPC   GL220774  36.953  36.253   8.954
 1471POPC   C1A20775  36.506  36.314   8.756
 1471POPC   D2A20776  36.691  35.962   8.568
 1471POPC   C3A20777  36.816  36.077   8.183
 1471POPC   C4A20778  36.593  35.950   7.832
 1471POPC   C1B20779  37.127  35.835   8.814
 1471POPC   C2B20780  37.262  35.726   8.393
 1471POPC   C3B20781  37.135  35.747   7.951
 1471POPC   C4B20782  37.072  36.107   7.724
 1472POPC   NC320783  16.587  26.503   9.496
 1472POPC   PO420784  17.101  26.924   9.496
 1472POPC   GL120785  16.918  26.730   9.162
 1472POPC   GL220786  16.760  27.060   9.095
 1472POPC   C1A20787  16.661  26.660   8.777
 1472POPC   D2A20788  16.414  26.767   8.385
 1472POPC   C3A20789  16.499  26.552   8.000
 1472POPC   C4A20790  16.661  26.562   7.561
 1472POPC   C1B20791  16.655  27.204   8.667
 1472POPC   C2B20792  16.593  27.221   8.202
 1472POPC   C3B20793  16.617  27.073   7.770
 1472POPC   C4B20794  16.500  26.968   7.334
 1473POPC   NC320795  21.280  19.956   9.588
 1473POPC   PO420796  21.565  19.505   9.218
 1473POPC   GL120797  21.355  19.844   9.070
 1473POPC   GL220798  21.068  20.008   9.131
 1473POPC   C1A20799  21.362  19.792   8.663
 1473POPC   D2A20800  21.558  19.569   8.352
 1473POPC   C3A20801  21.368  19.551   7.969
 1473POPC   C4A20802  21.651  19.804   7.747
 1473POPC   C1B20803  21.106  20.225   8.763
 1473POPC   C2B20804  20.982  20.346   8.401
 1473POPC   C3B20805  21.108  20.335   8.034
 1473POPC   C4B20806  21.213  20.028   7.846
 1474POPC   NC320807  13.008  23.584   9.515
 1474POPC   PO420808  12.272  23.819   9.505
 1474POPC   GL120809  12.634  23.676   9.200
 1474POPC   GL220810  12.870  23.934   9.160
 1474POPC   C1A20811  12.958  23.547   8.842
 1474POPC   D2A20812  13.166  23.594   8.431
 1474POPC   C3A20813  12.935  23.550   8.015
 1474POPC   C4A20814  12.954  23.556   7.531
 1474POPC   C1B20815  12.678  23.976   8.762
 1474POPC   C2B20816  12.737  23.892   8.344
 1474POPC   C3B20817  12.510  23.938   7.989
 1474POPC   C4B20818  12.748  23.988   7.664
 1475POPC   NC320819  34.164  40.014   9.724
 1475POPC   PO420820  33.733  40.186   9.268
 1475POPC   GL120821  33.818  39.950   8.979
 1475POPC   GL220822  33.773  39.655   9.103
 1475POPC   C1A20823  33.870  40.030   8.582
 1475POPC   D2A20824  33.931  40.369   8.320
 1475POPC   C3A20825  33.643  40.340   8.020
 1475POPC   C4A20826  33.913  40.321   7.704
 1475POPC   C1B20827  33.572  39.585   8.713
 1475POPC   C2B20828  33.543  39.780   8.303
 1475POPC   C3B20829  33.884  39.890   8.054
 1475POPC   C4B20830  34.006  39.772   7.668
 1476POPC   NC320831  34.323  22.771   9.555
 1476POPC   PO420832  34.731  23.193   9.586
 1476POPC   GL120833  34.780  22.974   9.181
 1476POPC   GL220834  34.588  22.687   9.138
 1476POPC   C1A20835  34.677  22.980   8.736
 1476POPC   D2A20836  34.476  23.127   8.403
 1476POPC   C3A20837  34.712  23.121   8.056
 1476POPC   C4A20838  34.591  23.116   7.659
 1476POPC   C1B20839  34.259  22.659   8.815
 1476POPC   C2B20840  34.129  22.752   8.404
 1476POPC   C3B20841  34.226  22.923   8.003
 1476POPC   C4B20842  34.316  22.715   7.611
 1477POPC   NC320843  42.210  40.901   9.484
 1477POPC   PO420844  42.716  40.382   9.620
 1477POPC   GL120845  42.621  40.646   9.181
 1477POPC   GL220846  42.447  41.003   9.073
 1477POPC   C1A20847  42.323  40.589   8.789
 1477POPC   D2A20848  42.081  40.573   8.366
 1477POPC   C3A20849  42.420  40.513   8.034
 1477POPC   C4A20850  42.515  40.649   7.608
 1477POPC   C1B20851  42.259  41.116   8.685
 1477POPC   C2B20852  42.342  40.989   8.264
 1477POPC   C3B20853  42.239  41.067   7.851
 1477POPC   C4B20854  42.542  41.176   7.569
 1478POPC   NC320855  12.547  43.644   9.413
 1478POPC   PO420856  13.177  44.048   9.418
 1478POPC   GL120857  13.055  43.877   9.064
 1478POPC   GL220858  12.935  43.533   9.121
 1478POPC   C1A20859  12.896  43.961   8.666
 1478POPC   D2A20860  12.873  43.736   8.290
 1478POPC   C3A20861  13.026  43.987   7.952
 1478POPC   C4A20862  12.631  44.071   7.788
 1478POPC   C1B20863  12.728  43.458   8.752
 1478POPC   C2B20864  12.486  43.384   8.377
 1478POPC   C3B20865  12.506  43.574   7.974
 1478POPC   C4B20866  12.838  43.599   7.692
 1479POPC   NC320867  18.701  25.945   9.469
 1479POPC   PO420868  19.398  25.815   9.404
 1479POPC   GL120869  19.156  26.032   9.099
 1479POPC   GL220870  18.862  25.847   8.991
 1479POPC   C1A20871  19.101  26.177   8.678
 1479POPC   D2A20872  19.081  25.996   8.292
 1479POPC   C3A20873  18.905  26.181   7.941
 1479POPC   C4A20874  19.150  26.080   7.579
 1479POPC   C1B20875  18.678  25.836   8.564
 1479POPC   C2B20876  18.706  25.675   8.110
 1479POPC   C3B20877  18.760  25.758   7.654
 1479POPC   C4B20878  18.619  25.896   7.189
 1480POPC   NC320879  22.958  25.465   9.501
 1480POPC   PO420880  22.947  24.835   9.742
 1480POPC   GL120881  22.924  24.976   9.246
 1480POPC   GL220882  22.841  25.279   9.040
 1480POPC   C1A20883  23.145  24.960   8.808
 1480POPC   D2A20884  22.914  25.183   8.503
 1480POPC   C3A20885  22.964  25.152   8.067
 1480POPC   C4A20886  22.694  25.400   7.788
 1480POPC   C1B20887  23.190  25.509   8.790
 1480POPC   C2B20888  23.288  25.714   8.381
 1480POPC   C3B20889  23.205  25.603   7.947
 1480POPC   C4B20890  23.084  25.727   7.548
 1481POPC   NC320891  32.066   2.399   9.884
 1481POPC   PO420892  32.230   2.975   9.513
 1481POPC   GL120893  32.399   2.985   9.082
 1481POPC   GL220894  32.058   2.950   8.973
 1481POPC   C1A20895  32.416   2.706   8.699
 1481POPC   D2A20896  32.146   2.727   8.279
 1481POPC   C3A20897  32.264   2.479   7.879
 1481POPC   C4A20898  32.467   2.233   7.526
 1481POPC   C1B20899  32.212   3.162   8.610
 1481POPC   C2B20900  32.586   3.042   8.356
 1481POPC   C3B20901  32.515   2.913   7.968
 1481POPC   C4B20902  32.170   3.001   7.807
 1482POPC   NC320903  21.097   6.799   9.358
 1482POPC   PO420904  20.492   6.472   9.446
 1482POPC   GL120905  20.687   6.555   9.069
 1482POPC   GL220906  20.728   6.897   8.998
 1482POPC   C1A20907  20.584   6.525   8.619
 1482POPC   D2A20908  20.223   6.467   8.361
 1482POPC   C3A20909  20.231   6.612   7.915
 1482POPC   C4A20910  20.569   6.714   7.633
 1482POPC   C1B20911  20.383   6.974   8.702
 1482POPC   C2B20912  20.434   6.935   8.263
 1482POPC   C3B20913  20.407   7.129   7.856
 1482POPC   C4B20914  20.271   7.060   7.392
 1483POPC   NC320915   2.119  16.107   9.435
 1483POPC   PO420916   2.072  15.481   9.481
 1483POPC   GL120917   1.978  15.730   9.125
 1483POPC   GL220918   1.688  15.923   9.177
 1483POPC   C1A20919   2.093  15.804   8.702
 1483POPC   D2A20920   2.266  16.019   8.364
 1483POPC   C3A20921   2.164  15.934   7.948
 1483POPC   C4A20922   2.119  16.042   7.486
 1483POPC   C1B20923   1.670  16.083   8.748
 1483POPC   C2B20924   1.743  15.992   8.282
 1483POPC   C3B20925   1.687  16.018   7.807
 1483POPC   C4B20926   1.626  16.138   7.346
 1484POPC   NC320927   1.285  30.249   9.462
 1484POPC   PO420928   0.900  30.816   9.367
 1484POPC   GL120929   1.034  30.464   9.058
 1484POPC   GL220930   1.428  30.381   9.000
 1484POPC   C1A20931   1.059  30.486   8.603
 1484POPC   D2A20932   1.058  30.797   8.247
 1484POPC   C3A20933   0.869  30.631   7.850
 1484POPC   C4A20934   0.846  30.782   7.397
 1484POPC   C1B20935   1.491  30.735   8.756
 1484POPC   C2B20936   1.536  30.628   8.348
 1484POPC   C3B20937   1.407  30.617   7.930
 1484POPC   C4B20938   1.297  30.610   7.514
 1485POPC   NC320939  24.967   9.480   9.356
 1485POPC   PO420940  25.386   9.980   9.547
 1485POPC   GL120941  25.313   9.818   9.134
 1485POPC   GL220942  24.961   9.869   9.042
 1485POPC   C1A20943  25.251   9.572   8.755
 1485POPC   D2A20944  25.034   9.520   8.372
 1485POPC   C3A20945  25.204   9.786   8.077
 1485POPC   C4A20946  25.446   9.709   7.720
 1485POPC   C1B20947  25.073  10.041   8.643
 1485POPC   C2B20948  24.845  10.187   8.295
 1485POPC   C3B20949  24.897  10.151   7.858
 1485POPC   C4B20950  24.943   9.766   7.615
 1486POPC   NC320951  39.527   5.008   9.481
 1486POPC   PO420952  40.165   5.173   9.598
 1486POPC   GL120953  39.914   5.273   9.274
 1486POPC   GL220954  40.216   5.287   9.102
 1486POPC   C1A20955  39.750   5.292   8.857
 1486POPC   D2A20956  40.039   5.258   8.513
 1486POPC   C3A20957  39.901   5.066   8.135
 1486POPC   C4A20958  39.911   5.256   7.753
 1486POPC   C1B20959  40.561   5.183   8.851
 1486POPC   C2B20960  40.589   5.249   8.454
 1486POPC   C3B20961  40.395   5.152   8.113
 1486POPC   C4B20962  40.403   5.281   7.759
 1487POPC   NC320963  21.897  19.201   9.370
 1487POPC   PO420964  22.505  19.349   9.522
 1487POPC   GL120965  22.346  19.208   9.117
 1487POPC   GL220966  22.233  18.852   9.130
 1487POPC   C1A20967  22.231  19.149   8.684
 1487POPC   D2A20968  22.072  19.303   8.277
 1487POPC   C3A20969  22.259  19.091   7.913
 1487POPC   C4A20970  22.404  19.235   7.501
 1487POPC   C1B20971  21.957  18.722   8.779
 1487POPC   C2B20972  22.016  18.800   8.347
 1487POPC   C3B20973  21.891  18.743   7.934
 1487POPC   C4B20974  22.050  18.831   7.511
 1488POPC   NC320975   8.107   7.271   9.548
 1488POPC   PO420976   8.483   7.762   9.418
 1488POPC   GL120977   8.173   7.618   9.117
 1488POPC   GL220978   7.805   7.636   9.167
 1488POPC   C1A20979   8.169   7.613   8.682
 1488POPC   D2A20980   8.142   7.417   8.293
 1488POPC   C3A20981   8.114   7.662   7.939
 1488POPC   C4A20982   8.156   7.422   7.539
 1488POPC   C1B20983   7.742   7.369   8.773
 1488POPC   C2B20984   7.681   7.226   8.341
 1488POPC   C3B20985   7.747   7.309   7.868
 1488POPC   C4B20986   7.736   7.709   7.589
 1489POPC   NC320987  40.006  18.191   9.431
 1489POPC   PO420988  40.597  18.185   9.480
 1489POPC   GL120989  40.291  18.410   9.079
 1489POPC   GL220990  39.861  18.408   9.008
 1489POPC   C1A20991  40.168  18.370   8.620
 1489POPC   D2A20992  40.340  18.058   8.355
 1489POPC   C3A20993  40.177  18.076   7.949
 1489POPC   C4A20994  40.286  18.480   7.824
 1489POPC   C1B20995  39.794  17.992   8.794
 1489POPC   C2B20996  39.841  17.924   8.360
 1489POPC   C3B20997  39.690  18.217   8.027
 1489POPC   C4B20998  39.810  18.400   7.634
 1490POPC   NC320999  16.391   0.314   9.855
 1490POPC   PO421000  16.906   0.614   9.589
 1490POPC   GL121001  16.795   0.435   9.203
 1490POPC   GL221002  16.473   0.526   9.113
 1490POPC   C1A21003  16.775   0.276   8.782
 1490POPC   D2A21004  16.742   0.467   8.407
 1490POPC   C3A21005  16.781   0.288   8.042
 1490POPC   C4A21006  16.491   0.441   7.760
 1490POPC   C1B21007  16.353   0.662   8.682
 1490POPC   C2B21008  16.250   0.681   8.220
 1490POPC   C3B21009  16.285   0.904   7.798
 1490POPC   C4B21010  16.382   0.801   7.335
 1491POPC   NC321011  33.910  34.180   9.415
 1491POPC   PO421012  33.551  34.725   9.621
 1491POPC   GL121013  33.485  34.416   9.238
 1491POPC   GL221014  33.796  34.484   9.018
 1491POPC   C1A21015  33.338  34.340   8.780
 1491POPC   D2A21016  33.211  34.343   8.350
 1491POPC   C3A21017  33.523  34.523   8.143
 1491POPC   C4A21018  33.623  34.471   7.764
 1491POPC   C1B21019  34.122  34.722   8.766
 1491POPC   C2B21020  34.227  34.629   8.390
 1491POPC   C3B21021  34.063  34.534   8.021
 1491POPC   C4B21022  34.089  34.288   7.675
 1492POPC   NC321023  24.996  34.029   9.519
 1492POPC   PO421024  25.310  34.662   9.611
 1492POPC   GL121025  25.290  34.432   9.234
 1492POPC   GL221026  24.935  34.398   9.159
 1492POPC   C1A21027  25.426  34.445   8.808
 1492POPC   D2A21028  25.414  34.745   8.447
 1492POPC   C3A21029  25.519  34.626   8.009
 1492POPC   C4A21030  25.530  34.360   7.597
 1492POPC   C1B21031  24.982  34.700   8.828
 1492POPC   C2B21032  24.891  34.715   8.399
 1492POPC   C3B21033  24.925  34.519   8.013
 1492POPC   C4B21034  25.117  34.669   7.648
 1493POPC   NC321035  13.204  31.871   9.353
 1493POPC   PO421036  12.866  32.262   9.758
 1493POPC   GL121037  12.864  32.334   9.206
 1493POPC   GL221038  13.091  32.173   8.975
 1493POPC   C1A21039  12.807  32.518   8.759
 1493POPC   D2A21040  12.571  32.497   8.356
 1493POPC   C3A21041  12.853  32.422   8.007
 1493POPC   C4A21042  12.793  32.425   7.581
 1493POPC   C1B21043  13.047  32.084   8.555
 1493POPC   C2B21044  13.261  32.133   8.166
 1493POPC   C3B21045  13.268  32.174   7.719
 1493POPC   C4B21046  13.091  32.103   7.297
 1494POPC   NC321047  37.884  20.998   9.509
 1494POPC   PO421048  37.809  21.730   9.575
 1494POPC   GL121049  37.752  21.588   9.159
 1494POPC   GL221050  37.689  21.223   9.084
 1494POPC   C1A21051  37.843  21.591   8.729
 1494POPC   D2A21052  37.688  21.419   8.359
 1494POPC   C3A21053  37.909  21.549   7.999
 1494POPC   C4A21054  37.689  21.515   7.643
 1494POPC   C1B21055  37.911  21.058   8.729
 1494POPC   C2B21056  37.945  20.954   8.297
 1494POPC   C3B21057  37.696  21.076   7.911
 1494POPC   C4B21058  37.880  21.087   7.486
 1495POPC   NC321059   4.654  30.360   9.657
 1495POPC   PO421060   4.243  29.806   9.517
 1495POPC   GL121061   4.177  29.752   9.114
 1495POPC   GL221062   4.352  29.456   9.098
 1495POPC   C1A21063   4.250  29.897   8.703
 1495POPC   D2A21064   4.521  29.995   8.345
 1495POPC   C3A21065   4.347  30.082   7.942
 1495POPC   C4A21066   4.011  30.021   7.652
 1495POPC   C1B21067   4.101  29.394   8.747
 1495POPC   C2B21068   4.031  29.569   8.330
 1495POPC   C3B21069   4.329  29.570   7.992
 1495POPC   C4B21070   4.393  29.692   7.554
 1496POPC   NC321071  20.529  19.368   9.618
 1496POPC   PO421072  20.893  18.799   9.443
 1496POPC   GL121073  20.712  19.099   9.191
 1496POPC   GL221074  20.419  18.962   9.081
 1496POPC   C1A21075  20.638  19.317   8.780
 1496POPC   D2A21076  20.687  19.439   8.360
 1496POPC   C3A21077  20.424  19.264   8.036
 1496POPC   C4A21078  20.554  19.242   7.629
 1496POPC   C1B21079  20.736  18.830   8.745
 1496POPC   C2B21080  20.610  18.882   8.311
 1496POPC   C3B21081  20.788  18.865   7.893
 1496POPC   C4B21082  20.722  18.812   7.409
 1497POPC   NC321083  20.303  38.353   9.505
 1497POPC   PO421084  20.960  38.368   9.501
 1497POPC   GL121085  20.699  38.195   9.182
 1497POPC   GL221086  20.588  38.548   9.127
 1497POPC   C1A21087  20.670  38.261   8.728
 1497POPC   D2A21088  20.414  38.299   8.389
 1497POPC   C3A21089  20.652  38.308   8.041
 1497POPC   C4A21090  20.710  38.030   7.726
 1497POPC   C1B21091  20.259  38.587   8.793
 1497POPC   C2B21092  20.053  38.664   8.396
 1497POPC   C3B21093  20.162  38.558   7.984
 1497POPC   C4B21094  20.391  38.442   7.642
 1498POPC   NC321095  15.664   5.101   9.625
 1498POPC   PO421096  16.180   5.467   9.604
 1498POPC   GL121097  16.028   5.423   9.162
 1498POPC   GL221098  15.791   5.149   9.079
 1498POPC   C1A21099  16.018   5.392   8.685
 1498POPC   D2A21100  15.848   5.120   8.367
 1498POPC   C3A21101  15.999   5.154   7.956
 1498POPC   C4A21102  16.035   5.051   7.536
 1498POPC   C1B21103  15.457   5.137   8.717
 1498POPC   C2B21104  15.323   4.967   8.278
 1498POPC   C3B21105  15.553   4.899   7.854
 1498POPC   C4B21106  15.702   4.694   7.467
 1499POPC   NC321107  27.924  24.120   9.589
 1499POPC   PO421108  27.425  23.644   9.509
 1499POPC   GL121109  27.554  23.674   9.105
 1499POPC   GL221110  27.662  23.973   9.153
 1499POPC   C1A21111  27.687  23.510   8.704
 1499POPC   D2A21112  27.791  23.218   8.364
 1499POPC   C3A21113  27.782  23.467   7.978
 1499POPC   C4A21114  27.534  23.705   7.704
 1499POPC   C1B21115  27.876  24.043   8.789
 1499POPC   C2B21116  27.836  23.895   8.379
 1499POPC   C3B21117  27.712  24.085   8.018
 1499POPC   C4B21118  27.893  24.069   7.651
 1500POPC   NC321119  39.061   4.348   9.516
 1500POPC   PO421120  39.690   4.418   9.461
 1500POPC   GL121121  39.361   4.370   9.105
 1500POPC   GL221122  38.982   4.234   9.029
 1500POPC   C1A21123  39.321   4.379   8.657
 1500POPC   D2A21124  39.202   4.220   8.257
 1500POPC   C3A21125  39.377   4.508   7.937
 1500POPC   C4A21126  39.702   4.755   7.736
 1500POPC   C1B21127  38.854   4.602   8.750
 1500POPC   C2B21128  38.954   4.703   8.291
 1500POPC   C3B21129  38.870   4.446   7.882
 1500POPC   C4B21130  38.773   4.609   7.450
 1501POPC   NC321131  21.977   8.563   9.590
 1501POPC   PO421132  22.382   8.003   9.614
 1501POPC   GL121133  22.103   8.150   9.318
 1501POPC   GL221134  22.316   8.403   9.225
 1501POPC   C1A21135  21.955   8.174   8.892
 1501POPC   D2A21136  22.051   8.303   8.468
 1501POPC   C3A21137  22.020   8.046   8.053
 1501POPC   C4A21138  22.232   7.875   7.662
 1501POPC   C1B21139  22.462   8.583   8.838
 1501POPC   C2B21140  22.419   8.680   8.400
 1501POPC   C3B21141  22.173   8.548   8.040
 1501POPC   C4B21142  22.352   8.351   7.730
 1502POPC   NC321143  41.369  15.956   9.704
 1502POPC   PO421144  41.893  15.669   9.564
 1502POPC   GL121145  41.684  15.840   9.182
 1502POPC   GL221146  41.614  16.143   9.036
 1502POPC   C1A21147  41.528  15.725   8.744
 1502POPC   D2A21148  41.700  15.968   8.387
 1502POPC   C3A21149  41.707  15.818   7.947
 1502POPC   C4A21150  42.000  16.007   7.668
 1502POPC   C1B21151  41.295  16.186   8.718
 1502POPC   C2B21152  41.184  15.928   8.373
 1502POPC   C3B21153  41.186  15.837   7.936
 1502POPC   C4B21154  41.328  16.103   7.592
 1503POPC   NC321155  23.263  14.523   9.462
 1503POPC   PO421156  22.717  14.136   9.598
 1503POPC   GL121157  22.849  14.308   9.215
 1503POPC   GL221158  23.162  14.112   9.151
 1503POPC   C1A21159  22.715  14.329   8.783
 1503POPC   D2A21160  22.879  14.508   8.413
 1503POPC   C3A21161  22.817  14.253   8.092
 1503POPC   C4A21162  22.793  14.377   7.672
 1503POPC   C1B21163  23.245  14.370   8.785
 1503POPC   C2B21164  23.329  14.258   8.358
 1503POPC   C3B21165  23.297  14.365   7.926
 1503POPC   C4B21166  23.246  14.147   7.543
 1504POPC   NC321167  26.818  26.356   9.363
 1504POPC   PO421168  26.607  27.021   9.475
 1504POPC   GL121169  26.841  26.938   9.081
 1504POPC   GL221170  27.142  26.695   9.151
 1504POPC   C1A21171  26.705  26.994   8.628
 1504POPC   D2A21172  26.827  27.056   8.174
 1504POPC   C3A21173  26.578  26.848   7.917
 1504POPC   C4A21174  26.686  26.698   7.552
 1504POPC   C1B21175  27.024  26.592   8.722
 1504POPC   C2B21176  26.767  26.553   8.344
 1504POPC   C3B21177  26.970  26.494   7.955
 1504POPC   C4B21178  27.273  26.542   7.629
 1505POPC   NC321179  27.453   6.741   9.631
 1505POPC   PO421180  26.994   7.023   9.227
 1505POPC   GL121181  27.336   6.675   9.142
 1505POPC   GL221182  27.508   6.931   9.108
 1505POPC   C1A21183  27.651   6.574   8.788
 1505POPC   D2A21184  27.464   6.619   8.367
 1505POPC   C3A21185  27.643   6.580   7.967
 1505POPC   C4A21186  27.472   6.688   7.563
 1505POPC   C1B21187  27.387   6.995   8.697
 1505POPC   C2B21188  27.462   7.147   8.279
 1505POPC   C3B21189  27.543   7.080   7.852
 1505POPC   C4B21190  27.488   7.182   7.357
 1506POPC   NC321191  35.110  40.686   9.336
 1506POPC   PO421192  35.626  41.154   9.363
 1506POPC   GL121193  35.504  40.887   9.053
 1506POPC   GL221194  35.670  40.589   9.079
 1506POPC   C1A21195  35.326  40.806   8.652
 1506POPC   D2A21196  35.203  40.697   8.231
 1506POPC   C3A21197  35.236  40.968   7.851
 1506POPC   C4A21198  35.515  40.905   7.476
 1506POPC   C1B21199  35.643  40.420   8.686
 1506POPC   C2B21200  35.740  40.681   8.325
 1506POPC   C3B21201  35.610  40.633   7.915
 1506POPC   C4B21202  35.231  40.427   7.778
 1507POPC   NC321203   4.868   6.880   9.491
 1507POPC   PO421204   5.284   6.309   9.445
 1507POPC   GL121205   5.077   6.559   9.160
 1507POPC   GL221206   5.278   6.827   9.139
 1507POPC   C1A21207   4.816   6.538   8.789
 1507POPC   D2A21208   4.949   6.267   8.443
 1507POPC   C3A21209   5.344   6.382   8.207
 1507POPC   C4A21210   5.214   6.617   7.854
 1507POPC   C1B21211   5.158   6.943   8.766
 1507POPC   C2B21212   5.063   6.770   8.384
 1507POPC   C3B21213   4.930   6.974   8.043
 1507POPC   C4B21214   5.227   7.177   7.806
 1508POPC   NC321215  38.977  36.241   9.550
 1508POPC   PO421216  39.465  35.740   9.401
 1508POPC   GL121217  39.201  36.010   9.183
 1508POPC   GL221218  39.221  35.873   8.926
 1508POPC   C1A21219  39.062  36.330   8.863
 1508POPC   D2A21220  39.137  36.221   8.462
 1508POPC   C3A21221  39.197  36.461   8.102
 1508POPC   C4A21222  39.154  36.234   7.707
 1508POPC   C1B21223  39.558  35.754   8.785
 1508POPC   C2B21224  39.630  36.064   8.543
 1508POPC   C3B21225  39.512  36.038   8.122
 1508POPC   C4B21226  39.881  35.951   7.892
 1509POPC   NC321227  21.907  26.084   9.558
 1509POPC   PO421228  22.459  25.648   9.425
 1509POPC   GL121229  22.271  25.868   9.100
 1509POPC   GL221230  21.962  25.768   9.104
 1509POPC   C1A21231  22.362  26.084   8.719
 1509POPC   D2A21232  22.413  25.956   8.303
 1509POPC   C3A21233  22.271  26.171   7.938
 1509POPC   C4A21234  22.436  26.319   7.577
 1509POPC   C1B21235  21.826  26.061   8.822
 1509POPC   C2B21236  21.934  26.171   8.419
 1509POPC   C3B21237  21.798  26.374   8.066
 1509POPC   C4B21238  21.819  26.012   7.783
 1510POPC   NC321239   2.498  39.897   9.276
 1510POPC   PO421240   1.821  39.908   9.461
 1510POPC   GL121241   1.999  39.951   9.075
 1510POPC   GL221242   2.150  40.283   9.057
 1510POPC   C1A21243   2.197  39.905   8.679
 1510POPC   D2A21244   1.925  39.798   8.352
 1510POPC   C3A21245   2.066  39.891   7.955
 1510POPC   C4A21246   1.739  39.760   7.649
 1510POPC   C1B21247   1.852  40.280   8.686
 1510POPC   C2B21248   1.955  40.308   8.265
 1510POPC   C3B21249   1.799  40.301   7.844
 1510POPC   C4B21250   1.884  40.572   7.522
 1511POPC   NC321251  41.417   7.231   9.376
 1511POPC   PO421252  42.004   7.574   9.384
 1511POPC   GL121253  41.780   7.441   9.069
 1511POPC   GL221254  41.520   7.716   9.090
 1511POPC   C1A21255  41.544   7.333   8.706
 1511POPC   D2A21256  41.392   7.509   8.295
 1511POPC   C3A21257  41.419   7.438   7.853
 1511POPC   C4A21258  41.752   7.197   7.677
 1511POPC   C1B21259  41.805   7.835   8.761
 1511POPC   C2B21260  41.890   7.560   8.420
 1511POPC   C3B21261  41.867   7.649   8.011
 1511POPC   C4B21262  41.998   7.614   7.614
 1512POPC   NC321263  26.198  28.384   9.493
 1512POPC   PO421264  25.594  28.256   9.330
 1512POPC   GL121265  25.939  28.370   9.045
 1512POPC   GL221266  26.245  28.611   9.053
 1512POPC   C1A21267  26.050  28.409   8.634
 1512POPC   D2A21268  25.999  28.047   8.425
 1512POPC   C3A21269  26.100  28.165   8.071
 1512POPC   C4A21270  26.100  28.175   7.679
 1512POPC   C1B21271  26.307  28.887   8.704
 1512POPC   C2B21272  26.179  28.861   8.270
 1512POPC   C3B21273  26.141  28.646   7.865
 1512POPC   C4B21274  26.402  28.559   7.485
 1513POPC   NC321275   0.410   1.545   9.470
 1513POPC   PO421276   0.907   1.023   9.539
 1513POPC   GL121277   0.551   1.106   9.180
 1513POPC   GL221278   0.250   1.330   9.047
 1513POPC   C1A21279   0.545   1.085   8.707
 1513POPC   D2A21280   0.352   0.961   8.306
 1513POPC   C3A21281   0.402   1.244   7.945
 1513POPC   C4A21282   0.374   1.207   7.485
 1513POPC   C1B21283   0.481   1.580   8.744
 1513POPC   C2B21284   0.553   1.651   8.298
 1513POPC   C3B21285   0.840   1.661   7.950
 1513POPC   C4B21286   0.850   1.461   7.554
 1514POPC   NC321287  21.156  26.891   9.712
 1514POPC   PO421288  21.726  26.524   9.463
 1514POPC   GL121289  21.449  26.763   9.203
 1514POPC   GL221290  21.093  26.682   9.227
 1514POPC   C1A21291  21.515  26.919   8.775
 1514POPC   D2A21292  21.498  26.765   8.346
 1514POPC   C3A21293  21.302  27.023   8.064
 1514POPC   C4A21294  21.405  27.208   7.690
 1514POPC   C1B21295  21.163  26.564   8.802
 1514POPC   C2B21296  21.013  26.577   8.383
 1514POPC   C3B21297  21.231  26.491   8.011
 1514POPC   C4B21298  21.063  26.725   7.670
 1515POPC   NC321299  44.878  34.416   9.577
 1515POPC   PO421300  44.294  34.344   9.598
 1515POPC   GL121301  44.573  34.410   9.180
 1515POPC   GL221302  44.820  34.727   9.185
 1515POPC   C1A21303  44.639  34.201   8.766
 1515POPC   D2A21304  44.375  34.344   8.409
 1515POPC   C3A21305  44.539  34.308   8.014
 1515POPC   C4A21306  44.605  34.674   7.728
 1515POPC   C1B21307  44.962  35.030   8.870
 1515POPC   C2B21308   0.030  34.961   8.449
 1515POPC   C3B21309  44.933  34.962   8.002
 1515POPC   C4B21310  44.865  35.118   7.552
 1516POPC   NC321311  40.623  31.658   9.342
 1516POPC   PO421312  41.261  31.319   9.549
 1516POPC   GL121313  40.930  31.246   9.183
 1516POPC   GL221314  40.564  31.124   9.119
 1516POPC   C1A21315  40.990  31.355   8.747
 1516POPC   D2A21316  41.133  31.631   8.433
 1516POPC   C3A21317  40.953  31.421   8.063
 1516POPC   C4A21318  40.723  31.505   7.696
 1516POPC   C1B21319  40.471  31.268   8.691
 1516POPC   C2B21320  40.684  31.072   8.328
 1516POPC   C3B21321  40.621  31.039   7.888
 1516POPC   C4B21322  40.609  31.069   7.406
 1517POPC   NC321323  38.628  25.061   9.485
 1517POPC   PO421324  38.172  25.522   9.508
 1517POPC   GL121325  38.442  25.433   9.144
 1517POPC   GL221326  38.399  25.103   9.050
 1517POPC   C1A21327  38.569  25.382   8.676
 1517POPC   D2A21328  38.616  25.593   8.294
 1517POPC   C3A21329  38.483  25.322   8.011
 1517POPC   C4A21330  38.263  25.357   7.663
 1517POPC   C1B21331  38.619  24.870   8.740
 1517POPC   C2B21332  38.725  24.962   8.314
 1517POPC   C3B21333  38.811  24.936   7.868
 1517POPC   C4B21334  38.812  25.010   7.391
 1518POPC   NC321335  39.661  14.764   9.454
 1518POPC   PO421336  40.269  14.563   9.533
 1518POPC   GL121337  40.216  14.365   9.125
 1518POPC   GL221338  39.868  14.436   9.102
 1518POPC   C1A21339  40.154  14.311   8.680
 1518POPC   D2A21340  40.084  14.141   8.272
 1518POPC   C3A21341  40.101  14.499   8.012
 1518POPC   C4A21342  40.288  14.597   7.638
 1518POPC   C1B21343  39.681  14.144   8.793
 1518POPC   C2B21344  39.599  13.992   8.385
 1518POPC   C3B21345  39.708  13.941   7.960
 1518POPC   C4B21346  40.038  14.107   7.666
 1519POPC   NC321347  40.187  19.167   9.555
 1519POPC   PO421348  39.739  18.695   9.419
 1519POPC   GL121349  40.035  18.885   9.138
 1519POPC   GL221350  40.409  18.912   9.157
 1519POPC   C1A21351  39.971  18.863   8.713
 1519POPC   D2A21352  39.839  18.693   8.325
 1519POPC   C3A21353  39.826  18.985   8.013
 1519POPC   C4A21354  40.073  18.902   7.682
 1519POPC   C1B21355  40.308  19.251   8.859
 1519POPC   C2B21356  40.119  19.298   8.452
 1519POPC   C3B21357  40.325  19.146   8.087
 1519POPC   C4B21358  40.401  19.289   7.686
 1520POPC   NC321359   0.917   3.193   9.443
 1520POPC   PO421360   1.031   2.542   9.345
 1520POPC   GL121361   1.201   2.851   9.100
 1520POPC   GL221362   1.388   2.585   8.951
 1520POPC   C1A21363   1.193   3.025   8.722
 1520POPC   D2A21364   1.250   2.765   8.380
 1520POPC   C3A21365   1.036   2.859   8.021
 1520POPC   C4A21366   1.097   3.042   7.665
 1520POPC   C1B21367   1.176   2.335   8.661
 1520POPC   C2B21368   1.379   2.276   8.275
 1520POPC   C3B21369   1.429   2.550   7.930
 1520POPC   C4B21370   1.236   2.568   7.511
 1521POPC   NC321371  20.361  30.276   9.681
 1521POPC   PO421372  20.761  29.742   9.450
 1521POPC   GL121373  20.585  29.933   9.085
 1521POPC   GL221374  20.461  30.287   9.144
 1521POPC   C1A21375  20.804  29.924   8.697
 1521POPC   D2A21376  21.063  29.829   8.326
 1521POPC   C3A21377  20.786  29.876   7.951
 1521POPC   C4A21378  20.363  29.682   7.810
 1521POPC   C1B21379  20.260  30.280   8.721
 1521POPC   C2B21380  20.384  30.060   8.307
 1521POPC   C3B21381  20.379  30.191   7.856
 1521POPC   C4B21382  20.275  30.282   7.432
 1522POPC   NC321383  43.370  43.668   9.383
 1522POPC   PO421384  44.041  43.917   9.451
 1522POPC   GL121385  43.893  44.020   9.069
 1522POPC   GL221386  43.576  44.094   9.191
 1522POPC   C1A21387  44.043  44.048   8.646
 1522POPC   D2A21388  44.112  43.793   8.257
 1522POPC   C3A21389  44.032  44.001   7.843
 1522POPC   C4A21390  43.826  44.058   7.413
 1522POPC   C1B21391  43.436  44.049   8.785
 1522POPC   C2B21392  43.614  43.950   8.401
 1522POPC   C3B21393  43.605  43.742   8.042
 1522POPC   C4B21394  43.440  43.955   7.713
 1523POPC   NC321395  16.022  21.638   9.582
 1523POPC   PO421396  15.820  21.002   9.527
 1523POPC   GL121397  15.788  21.274   9.135
 1523POPC   GL221398  16.064  21.488   9.103
 1523POPC   C1A21399  15.943  21.237   8.681
 1523POPC   D2A21400  15.706  21.099   8.332
 1523POPC   C3A21401  15.963  21.160   7.995
 1523POPC   C4A21402  16.228  21.136   7.669
 1523POPC   C1B21403  16.324  21.678   8.808
 1523POPC   C2B21404  16.406  21.669   8.396
 1523POPC   C3B21405  16.283  21.862   8.027
 1523POPC   C4B21406  16.025  21.622   7.765
 1524POPC   NC321407  10.252  34.969   9.830
 1524POPC   PO421408  10.765  35.205   9.526
 1524POPC   GL121409  10.543  35.436   9.224
 1524POPC   GL221410  10.282  35.239   9.097
 1524POPC   C1A21411  10.542  35.553   8.791
 1524POPC   D2A21412  10.726  35.347   8.446
 1524POPC   C3A21413  10.588  35.549   8.080
 1524POPC   C4A21414  10.575  35.458   7.663
 1524POPC   C1B21415  10.372  35.092   8.713
 1524POPC   C2B21416  10.212  35.289   8.372
 1524POPC   C3B21417  10.244  35.196   7.961
 1524POPC   C4B21418  10.163  35.075   7.595
 1525POPC   NC321419  17.269  19.514   9.774
 1525POPC   PO421420  16.655  19.696   9.441
 1525POPC   GL121421  16.810  20.014   9.162
 1525POPC   GL221422  16.506  19.920   9.015
 1525POPC   C1A21423  16.805  20.175   8.722
 1525POPC   D2A21424  16.596  19.956   8.362
 1525POPC   C3A21425  16.635  20.101   7.940
 1525POPC   C4A21426  16.574  19.916   7.522
 1525POPC   C1B21427  16.639  19.589   8.726
 1525POPC   C2B21428  16.599  19.438   8.279
 1525POPC   C3B21429  16.739  19.612   7.889
 1525POPC   C4B21430  16.916  19.520   7.482
 1526POPC   NC321431  14.265  21.887   9.404
 1526POPC   PO421432  14.349  22.514   9.637
 1526POPC   GL121433  14.426  22.340   9.204
 1526POPC   GL221434  14.130  22.195   9.046
 1526POPC   C1A21435  14.506  22.334   8.746
 1526POPC   D2A21436  14.676  22.559   8.385
 1526POPC   C3A21437  14.607  22.335   8.002
 1526POPC   C4A21438  14.323  22.470   7.691
 1526POPC   C1B21439  13.979  22.281   8.639
 1526POPC   C2B21440  14.144  22.282   8.243
 1526POPC   C3B21441  14.074  22.057   7.883
 1526POPC   C4B21442  14.424  21.975   7.632
 1527POPC   NC321443  27.006  41.251   9.361
 1527POPC   PO421444  26.561  41.699   9.572
 1527POPC   GL121445  26.807  41.753   9.194
 1527POPC   GL221446  27.103  41.931   9.287
 1527POPC   C1A21447  26.809  41.589   8.771
 1527POPC   D2A21448  26.671  41.458   8.371
 1527POPC   C3A21449  26.807  41.522   7.918
 1527POPC   C4A21450  26.969  41.266   7.525
 1527POPC   C1B21451  27.139  41.967   8.820
 1527POPC   C2B21452  26.943  41.938   8.399
 1527POPC   C3B21453  27.174  41.913   8.014
 1527POPC   C4B21454  27.193  41.696   7.618
 1528POPC   NC321455  40.868  12.297   9.527
 1528POPC   PO421456  40.886  11.634   9.548
 1528POPC   GL121457  40.871  11.909   9.154
 1528POPC   GL221458  40.683  12.219   9.054
 1528POPC   C1A21459  41.000  12.017   8.721
 1528POPC   D2A21460  40.833  12.155   8.363
 1528POPC   C3A21461  40.959  12.017   8.004
 1528POPC   C4A21462  40.868  11.647   7.803
 1528POPC   C1B21463  40.450  12.382   8.663
 1528POPC   C2B21464  40.350  12.255   8.204
 1528POPC   C3B21465  40.481  12.105   7.777
 1528POPC   C4B21466  40.478  12.388   7.402
 1529POPC   NC321467  31.856  18.662   9.478
 1529POPC   PO421468  32.451  19.005   9.542
 1529POPC   GL121469  32.157  19.034   9.215
 1529POPC   GL221470  32.293  18.728   9.120
 1529POPC   C1A21471  32.087  19.068   8.764
 1529POPC   D2A21472  32.263  19.263   8.381
 1529POPC   C3A21473  32.023  19.208   8.016
 1529POPC   C4A21474  31.980  18.831   7.842
 1529POPC   C1B21475  32.535  18.830   8.734
 1529POPC   C2B21476  32.651  18.938   8.302
 1529POPC   C3B21477  32.489  18.984   7.885
 1529POPC   C4B21478  32.738  19.090   7.543
 1530POPC   NC321479   5.452   1.556   9.362
 1530POPC   PO421480   5.232   0.965   9.592
 1530POPC   GL121481   5.291   1.108   9.172
 1530POPC   GL221482   4.959   1.229   9.118
 1530POPC   C1A21483   5.362   1.352   8.758
 1530POPC   D2A21484   5.491   1.323   8.340
 1530POPC   C3A21485   5.198   1.312   7.983
 1530POPC   C4A21486   4.841   1.372   7.694
 1530POPC   C1B21487   5.049   0.940   8.740
 1530POPC   C2B21488   5.169   0.897   8.285
 1530POPC   C3B21489   4.891   0.893   7.912
 1530POPC   C4B21490   4.793   0.853   7.443
 1531POPC   NC321491   9.989  25.272   9.449
 1531POPC   PO421492   9.374  25.157   9.517
 1531POPC   GL121493   9.597  25.166   9.128
 1531POPC   GL221494   9.910  24.933   9.077
 1531POPC   C1A21495   9.791  25.409   8.777
 1531POPC   D2A21496   9.747  25.661   8.402
 1531POPC   C3A21497   9.744  25.426   8.015
 1531POPC   C4A21498  10.057  25.352   7.704
 1531POPC   C1B21499   9.646  24.918   8.699
 1531POPC   C2B21500   9.723  24.965   8.274
 1531POPC   C3B21501   9.829  24.911   7.866
 1531POPC   C4B21502   9.530  25.050   7.584
 1532POPC   NC321503  23.876   2.292   9.447
 1532POPC   PO421504  23.383   1.801   9.411
 1532POPC   GL121505  23.437   2.103   9.126
 1532POPC   GL221506  23.772   2.013   9.046
 1532POPC   C1A21507  23.462   2.150   8.680
 1532POPC   D2A21508  23.593   1.785   8.435
 1532POPC   C3A21509  23.506   1.863   8.011
 1532POPC   C4A21510  23.599   1.586   7.673
 1532POPC   C1B21511  24.026   1.832   8.722
 1532POPC   C2B21512  24.219   1.849   8.337
 1532POPC   C3B21513  24.005   1.804   7.982
 1532POPC   C4B21514  23.985   1.945   7.562
 1533POPC   NC321515  10.840  32.630   9.493
 1533POPC   PO421516  10.428  32.134   9.396
 1533POPC   GL121517  10.545  32.443   9.072
 1533POPC   GL221518  10.886  32.380   9.047
 1533POPC   C1A21519  10.659  32.459   8.593
 1533POPC   D2A21520  10.513  32.191   8.246
 1533POPC   C3A21521  10.512  32.376   7.825
 1533POPC   C4A21522  10.551  32.530   7.367
 1533POPC   C1B21523  10.815  32.033   8.794
 1533POPC   C2B21524  10.979  31.956   8.383
 1533POPC   C3B21525  10.865  31.954   7.963
 1533POPC   C4B21526  10.811  31.821   7.564
 1534POPC   NC321527  15.046  31.161   9.571
 1534POPC   PO421528  15.448  31.678   9.728
 1534POPC   GL121529  15.389  31.468   9.266
 1534POPC   GL221530  15.069  31.463   9.161
 1534POPC   C1A21531  15.464  31.305   8.768
 1534POPC   D2A21532  15.628  31.250   8.299
 1534POPC   C3A21533  15.558  31.647   8.071
 1534POPC   C4A21534  15.302  31.649   7.658
 1534POPC   C1B21535  15.011  31.580   8.754
 1534POPC   C2B21536  15.157  31.457   8.348
 1534POPC   C3B21537  15.212  31.230   7.957
 1534POPC   C4B21538  14.877  31.213   7.638
 1535POPC   NC321539   8.790   6.627   9.521
 1535POPC   PO421540   9.406   6.740   9.680
 1535POPC   GL121541   9.201   6.640   9.187
 1535POPC   GL221542   8.886   6.780   9.044
 1535POPC   C1A21543   9.068   6.390   8.777
 1535POPC   D2A21544   9.154   6.512   8.350
 1535POPC   C3A21545   8.851   6.689   8.139
 1535POPC   C4A21546   8.985   6.669   7.741
 1535POPC   C1B21547   8.852   6.950   8.618
 1535POPC   C2B21548   8.564   7.105   8.299
 1535POPC   C3B21549   8.702   7.100   7.873
 1535POPC   C4B21550   8.623   6.940   7.482
 1536POPC   NC321551  15.687  13.026   9.275
 1536POPC   PO421552  16.193  12.692   9.583
 1536POPC   GL121553  16.141  12.720   9.149
 1536POPC   GL221554  15.857  12.529   9.134
 1536POPC   C1A21555  16.092  13.015   8.769
 1536POPC   D2A21556  15.793  12.988   8.429
 1536POPC   C3A21557  15.976  13.042   8.038
 1536POPC   C4A21558  15.884  12.952   7.659
 1536POPC   C1B21559  15.821  12.574   8.737
 1536POPC   C2B21560  15.846  12.402   8.377
 1536POPC   C3B21561  15.809  12.549   7.986
 1536POPC   C4B21562  15.849  12.445   7.569
 1537POPC   NC321563  41.063  32.459   9.803
 1537POPC   PO421564  40.622  32.804   9.368
 1537POPC   GL121565  40.755  33.122   9.115
 1537POPC   GL221566  41.090  33.118   9.220
 1537POPC   C1A21567  40.710  33.217   8.685
 1537POPC   D2A21568  40.675  32.935   8.336
 1537POPC   C3A21569  40.547  33.165   7.985
 1537POPC   C4A21570  40.854  33.432   7.857
 1537POPC   C1B21571  41.161  32.983   8.771
 1537POPC   C2B21572  41.213  32.903   8.335
 1537POPC   C3B21573  41.010  32.901   7.911
 1537POPC   C4B21574  40.912  32.574   7.607
 1538POPC   NC321575  30.667  39.571   9.700
 1538POPC   PO421576  31.053  40.073   9.420
 1538POPC   GL121577  30.683  40.059   9.194
 1538POPC   GL221578  30.734  40.359   8.984
 1538POPC   C1A21579  30.542  39.897   8.799
 1538POPC   D2A21580  30.763  39.735   8.439
 1538POPC   C3A21581  30.590  39.957   8.097
 1538POPC   C4A21582  30.251  39.878   7.860
 1538POPC   C1B21583  30.979  40.164   8.668
 1538POPC   C2B21584  30.877  40.331   8.265
 1538POPC   C3B21585  30.875  40.286   7.804
 1538POPC   C4B21586  30.934  40.395   7.362
 1539POPC   NC321587  19.703  36.392   9.425
 1539POPC   PO421588  20.271  36.453   9.770
 1539POPC   GL121589  20.144  36.376   9.218
 1539POPC   GL221590  19.846  36.070   9.075
 1539POPC   C1A21591  19.947  36.476   8.796
 1539POPC   D2A21592  19.964  36.588   8.362
 1539POPC   C3A21593  19.738  36.287   8.089
 1539POPC   C4A21594  19.734  36.148   7.673
 1539POPC   C1B21595  19.584  35.839   8.770
 1539POPC   C2B21596  19.681  35.853   8.352
 1539POPC   C3B21597  19.497  35.804   7.969
 1539POPC   C4B21598  19.562  35.681   7.547
 1540POPC   NC321599   2.220   4.038   9.416
 1540POPC   PO421600   1.755   4.628   9.549
 1540POPC   GL121601   1.908   4.456   9.172
 1540POPC   GL221602   2.220   4.485   9.127
 1540POPC   C1A21603   1.916   4.205   8.788
 1540POPC   D2A21604   1.648   4.136   8.444
 1540POPC   C3A21605   1.828   4.098   8.020
 1540POPC   C4A21606   1.781   4.409   7.709
 1540POPC   C1B21607   2.189   4.640   8.696
 1540POPC   C2B21608   2.173   4.536   8.236
 1540POPC   C3B21609   2.277   4.443   7.801
 1540POPC   C4B21610   2.246   4.064   7.649
 1541POPC   NC321611   9.658   6.983   9.249
 1541POPC   PO421612   9.836   7.542   9.687
 1541POPC   GL121613   9.677   7.502   9.220
 1541POPC   GL221614   9.981   7.521   9.057
 1541POPC   C1A21615   9.630   7.386   8.717
 1541POPC   D2A21616   9.487   7.476   8.273
 1541POPC   C3A21617   9.647   7.383   7.873
 1541POPC   C4A21618   9.501   7.392   7.423
 1541POPC   C1B21619  10.093   7.681   8.660
 1541POPC   C2B21620  10.009   7.511   8.258
 1541POPC   C3B21621  10.079   7.657   7.834
 1541POPC   C4B21622   9.982   7.395   7.473
 1542POPC   NC321623   6.175   5.512   9.629
 1542POPC   PO421624   6.799   5.777   9.363
 1542POPC   GL121625   6.744   5.967   8.985
 1542POPC   GL221626   6.929   6.265   8.973
 1542POPC   C1A21627   6.570   5.771   8.621
 1542POPC   D2A21628   6.256   5.736   8.308
 1542POPC   C3A21629   6.353   5.637   7.889
 1542POPC   C4A21630   6.372   5.795   7.460
 1542POPC   C1B21631   6.781   6.322   8.581
 1542POPC   C2B21632   6.947   6.016   8.381
 1542POPC   C3B21633   6.792   5.734   8.121
 1542POPC   C4B21634   6.801   5.884   7.701
 1543POPC   NC321635  11.213  34.979   9.555
 1543POPC   PO421636  11.430  35.659   9.532
 1543POPC   GL121637  11.373  35.336   9.228
 1543POPC   GL221638  11.026  35.184   9.110
 1543POPC   C1A21639  11.448  35.146   8.845
 1543POPC   D2A21640  11.196  35.147   8.483
 1543POPC   C3A21641  11.314  35.045   8.030
 1543POPC   C4A21642  11.574  35.337   7.798
 1543POPC   C1B21643  11.073  35.514   8.843
 1543POPC   C2B21644  11.230  35.681   8.490
 1543POPC   C3B21645  11.098  35.500   8.127
 1543POPC   C4B21646  11.071  35.448   7.720
 1544POPC   NC321647  42.863  27.625   9.417
 1544POPC   PO421648  43.462  27.431   9.674
 1544POPC   GL121649  43.471  27.706   9.258
 1544POPC   GL221650  43.148  27.802   9.053
 1544POPC   C1A21651  43.543  27.677   8.791
 1544POPC   D2A21652  43.203  27.735   8.477
 1544POPC   C3A21653  43.320  27.772   8.059
 1544POPC   C4A21654  43.195  27.792   7.613
 1544POPC   C1B21655  43.137  27.373   8.853
 1544POPC   C2B21656  42.939  27.243   8.472
 1544POPC   C3B21657  42.971  27.397   8.050
 1544POPC   C4B21658  43.045  27.317   7.639
 1545POPC   NC321659   0.445  18.135   9.507
 1545POPC   PO421660   1.025  17.829   9.451
 1545POPC   GL121661   0.733  18.048   9.105
 1545POPC   GL221662   0.534  18.403   9.107
 1545POPC   C1A21663   0.428  18.040   8.758
 1545POPC   D2A21664   0.264  17.860   8.379
 1545POPC   C3A21665   0.490  17.948   8.000
 1545POPC   C4A21666   0.369  18.040   7.576
 1545POPC   C1B21667   0.387  18.571   8.722
 1545POPC   C2B21668   0.377  18.375   8.306
 1545POPC   C3B21669   0.444  18.446   7.869
 1545POPC   C4B21670   0.525  18.516   7.415
 1546POPC   NC321671   1.631  34.463   9.407
 1546POPC   PO421672   2.204  34.169   9.203
 1546POPC   GL121673   1.878  34.270   8.990
 1546POPC   GL221674   1.948  34.623   8.943
 1546POPC   C1A21675   1.801  34.271   8.592
 1546POPC   D2A21676   1.971  34.574   8.380
 1546POPC   C3A21677   2.339  34.546   8.170
 1546POPC   C4A21678   2.374  34.884   7.902
 1546POPC   C1B21679   1.686  34.896   8.657
 1546POPC   C2B21680   1.647  34.986   8.210
 1546POPC   C3B21681   1.879  34.739   7.907
 1546POPC   C4B21682   1.971  34.276   7.889
 1547POPC   NC321683  44.421   7.533   9.493
 1547POPC   PO421684  43.777   7.216   9.427
 1547POPC   GL121685  43.972   7.330   9.059
 1547POPC   GL221686  44.048   7.659   9.168
 1547POPC   C1A21687  43.761   7.347   8.654
 1547POPC   D2A21688  43.544   7.332   8.279
 1547POPC   C3A21689  43.771   7.164   7.972
 1547POPC   C4A21690  44.109   7.335   7.756
 1547POPC   C1B21691  44.022   7.781   8.740
 1547POPC   C2B21692  43.779   7.835   8.369
 1547POPC   C3B21693  43.754   7.698   7.950
 1547POPC   C4B21694  43.973   7.923   7.631
 1548POPC   NC321695  27.894  33.591   9.517
 1548POPC   PO421696  27.396  33.407   9.105
 1548POPC   GL121697  27.470  33.831   9.116
 1548POPC   GL221698  27.817  33.744   9.044
 1548POPC   C1A21699  27.340  34.048   8.744
 1548POPC   D2A21700  27.358  33.781   8.378
 1548POPC   C3A21701  27.248  33.872   7.969
 1548POPC   C4A21702  27.316  34.023   7.554
 1548POPC   C1B21703  27.836  33.882   8.633
 1548POPC   C2B21704  27.707  34.173   8.366
 1548POPC   C3B21705  27.730  34.013   7.995
 1548POPC   C4B21706  27.800  33.693   7.740
 1549POPC   NC321707  10.075  44.486   9.476
 1549POPC   PO421708   9.504  44.834   9.650
 1549POPC   GL121709   9.712  44.742   9.238
 1549POPC   GL221710   9.494  44.499   9.134
 1549POPC   C1A21711  10.006  44.731   8.846
 1549POPC   D2A21712   9.891  44.663   8.411
 1549POPC   C3A21713   9.958  44.410   8.054
 1549POPC   C4A21714   9.931  44.642   7.668
 1549POPC   C1B21715   9.496  44.753   8.753
 1549POPC   C2B21716   9.376  44.589   8.355
 1549POPC   C3B21717   9.477  44.579   7.914
 1549POPC   C4B21718   9.228  44.717   7.569
 1550POPC   NC321719  21.871  30.120   9.486
 1550POPC   PO421720  22.363  29.676   9.579
 1550POPC   GL121721  22.402  29.969   9.234
 1550POPC   GL221722  22.068  29.920   9.059
 1550POPC   C1A21723  22.455  30.107   8.796
 1550POPC   D2A21724  22.259  29.928   8.447
 1550POPC   C3A21725  22.456  29.882   8.051
 1550POPC   C4A21726  22.261  29.926   7.664
 1550POPC   C1B21727  21.840  30.211   8.794
 1550POPC   C2B21728  21.913  30.455   8.454
 1550POPC   C3B21729  21.999  30.261   8.088
 1550POPC   C4B21730  21.800  30.147   7.731
 1551POPC   NC321731  41.007  37.135   9.807
 1551POPC   PO421732  40.658  37.611   9.632
 1551POPC   GL121733  40.579  37.527   9.189
 1551POPC   GL221734  40.913  37.585   9.108
 1551POPC   C1A21735  40.541  37.687   8.763
 1551POPC   D2A21736  40.643  37.506   8.370
 1551POPC   C3A21737  40.718  37.700   7.969
 1551POPC   C4A21738  40.530  37.817   7.595
 1551POPC   C1B21739  41.056  37.546   8.662
 1551POPC   C2B21740  41.143  37.509   8.203
 1551POPC   C3B21741  41.253  37.748   7.810
 1551POPC   C4B21742  41.378  37.604   7.373
 1552POPC   NC321743   0.697  43.164   9.656
 1552POPC   PO421744   1.349  43.193   9.687
 1552POPC   GL121745   1.187  42.957   9.292
 1552POPC   GL221746   0.917  42.704   9.185
 1552POPC   C1A21747   1.318  42.954   8.841
 1552POPC   D2A21748   1.470  42.926   8.388
 1552POPC   C3A21749   1.285  43.129   7.993
 1552POPC   C4A21750   1.292  43.565   7.793
 1552POPC   C1B21751   0.986  42.593   8.724
 1552POPC   C2B21752   0.975  42.763   8.283
 1552POPC   C3B21753   0.871  42.848   7.849
 1552POPC   C4B21754   1.154  42.735   7.533
 1553POPC   NC321755  38.122  36.244   9.469
 1553POPC   PO421756  38.690  35.862   9.570
 1553POPC   GL121757  38.439  35.872   9.186
 1553POPC   GL221758  38.703  36.042   9.061
 1553POPC   C1A21759  38.442  35.779   8.720
 1553POPC   D2A21760  38.728  35.894   8.364
 1553POPC   C3A21761  38.493  35.980   8.016
 1553POPC   C4A21762  38.071  35.821   7.888
 1553POPC   C1B21763  38.586  36.273   8.693
 1553POPC   C2B21764  38.675  36.465   8.296
 1553POPC   C3B21765  38.720  36.444   7.849
 1553POPC   C4B21766  38.718  36.293   7.428
 1554POPC   NC321767  30.894  18.655   9.752
 1554POPC   PO421768  30.996  19.274   9.486
 1554POPC   GL121769  30.680  19.076   9.221
 1554POPC   GL221770  30.877  18.929   8.998
 1554POPC   C1A21771  30.422  19.003   8.807
 1554POPC   D2A21772  30.593  19.008   8.392
 1554POPC   C3A21773  30.314  18.969   8.025
 1554POPC   C4A21774  30.486  19.092   7.630
 1554POPC   C1B21775  31.076  19.006   8.637
 1554POPC   C2B21776  31.054  18.760   8.293
 1554POPC   C3B21777  30.810  18.821   7.961
 1554POPC   C4B21778  30.997  18.987   7.648
 1555POPC   NC321779  27.960  44.477   9.782
 1555POPC   PO421780  28.586  44.422   9.450
 1555POPC   GL121781  28.532  44.792   9.210
 1555POPC   GL221782  28.175  44.788   9.241
 1555POPC   C1A21783  28.610  44.904   8.769
 1555POPC   D2A21784  28.601   0.065   8.329
 1555POPC   C3A21785  28.543  44.710   8.051
 1555POPC   C4A21786  28.793  44.501   7.743
 1555POPC   C1B21787  28.033  44.734   8.801
 1555POPC   C2B21788  28.113  44.719   8.349
 1555POPC   C3B21789  27.902  44.669   7.937
 1555POPC   C4B21790  28.022  44.587   7.483
 1556POPC   NC321791  27.923  35.566   9.516
 1556POPC   PO421792  27.770  34.858   9.585
 1556POPC   GL121793  27.614  34.994   9.164
 1556POPC   GL221794  27.585  35.381   9.129
 1556POPC   C1A21795  27.531  35.051   8.709
 1556POPC   D2A21796  27.601  35.228   8.309
 1556POPC   C3A21797  27.617  35.038   7.897
 1556POPC   C4A21798  27.641  35.342   7.587
 1556POPC   C1B21799  27.698  35.593   8.695
 1556POPC   C2B21800  27.879  35.673   8.251
 1556POPC   C3B21801  27.693  35.836   7.841
 1556POPC   C4B21802  27.762  35.954   7.393
 1557POPC   NC321803   6.782  30.907   9.509
 1557POPC   PO421804   7.047  30.346   9.249
 1557POPC   GL121805   6.739  30.645   9.086
 1557POPC   GL221806   6.440  30.566   9.179
 1557POPC   C1A21807   6.648  30.934   8.736
 1557POPC   D2A21808   6.746  30.773   8.302
 1557POPC   C3A21809   6.750  30.833   7.816
 1557POPC   C4A21810   6.881  30.489   7.562
 1557POPC   C1B21811   6.207  30.627   8.810
 1557POPC   C2B21812   6.243  30.857   8.440
 1557POPC   C3B21813   6.306  30.725   8.030
 1557POPC   C4B21814   6.266  30.457   7.672
 1558POPC   NC321815  22.015   7.660   9.594
 1558POPC   PO421816  22.479   7.154   9.435
 1558POPC   GL121817  22.180   7.389   9.156
 1558POPC   GL221818  22.175   7.726   9.055
 1558POPC   C1A21819  22.011   7.334   8.751
 1558POPC   D2A21820  22.006   7.666   8.423
 1558POPC   C3A21821  22.227   7.511   8.030
 1558POPC   C4A21822  22.093   7.376   7.594
 1558POPC   C1B21823  22.464   7.551   8.701
 1558POPC   C2B21824  22.537   7.157   8.462
 1558POPC   C3B21825  22.420   7.000   8.064
 1558POPC   C4B21826  22.490   7.048   7.638
 1559POPC   NC321827  43.088  17.345   9.533
 1559POPC   PO421828  43.601  17.894   9.396
 1559POPC   GL121829  43.210  17.690   9.159
 1559POPC   GL221830  43.171  17.293   9.039
 1559POPC   C1A21831  42.976  17.664   8.764
 1559POPC   D2A21832  43.126  17.561   8.359
 1559POPC   C3A21833  42.911  17.466   8.027
 1559POPC   C4A21834  43.048  17.598   7.676
 1559POPC   C1B21835  42.935  17.024   8.702
 1559POPC   C2B21836  42.643  17.029   8.377
 1559POPC   C3B21837  42.679  17.003   7.953
 1559POPC   C4B21838  42.728  17.222   7.593
 1560POPC   NC321839   7.393  26.344   9.316
 1560POPC   PO421840   7.892  25.820   9.440
 1560POPC   GL121841   7.751  26.013   9.084
 1560POPC   GL221842   7.394  26.011   8.925
 1560POPC   C1A21843   7.814  25.852   8.687
 1560POPC   D2A21844   7.518  25.898   8.378
 1560POPC   C3A21845   7.713  26.124   8.060
 1560POPC   C4A21846   7.732  25.954   7.657
 1560POPC   C1B21847   7.059  25.840   8.658
 1560POPC   C2B21848   7.013  26.011   8.242
 1560POPC   C3B21849   7.227  26.055   7.824
 1560POPC   C4B21850   7.304  25.820   7.409
 1561POPC   NC321851  13.128   9.587   9.491
 1561POPC   PO421852  13.758   9.956   9.489
 1561POPC   GL121853  13.567   9.764   9.121
 1561POPC   GL221854  13.298   9.506   9.023
 1561POPC   C1A21855  13.809   9.599   8.783
 1561POPC   D2A21856  13.871   9.715   8.386
 1561POPC   C3A21857  13.896   9.479   8.048
 1561POPC   C4A21858  13.796   9.482   7.638
 1561POPC   C1B21859  13.331   9.704   8.633
 1561POPC   C2B21860  13.402   9.552   8.222
 1561POPC   C3B21861  13.454   9.758   7.872
 1561POPC   C4B21862  13.489   9.892   7.459
 1562POPC   NC321863  16.742  31.518   9.547
 1562POPC   PO421864  16.161  31.778   9.668
 1562POPC   GL121865  16.338  31.636   9.223
 1562POPC   GL221866  16.616  31.327   9.100
 1562POPC   C1A21867  16.412  31.628   8.774
 1562POPC   D2A21868  16.483  31.235   8.563
 1562POPC   C3A21869  16.468  31.335   8.143
 1562POPC   C4A21870  16.652  31.669   7.947
 1562POPC   C1B21871  16.960  31.278   8.781
 1562POPC   C2B21872  16.929  31.165   8.359
 1562POPC   C3B21873  16.983  31.220   7.947
 1562POPC   C4B21874  16.956  31.412   7.561
 1563POPC   NC321875  40.606  28.381   9.622
 1563POPC   PO421876  41.191  28.178   9.485
 1563POPC   GL121877  40.850  28.298   9.143
 1563POPC   GL221878  40.529  28.496   9.043
 1563POPC   C1A21879  40.908  28.426   8.712
 1563POPC   D2A21880  41.083  28.225   8.359
 1563POPC   C3A21881  40.951  28.412   7.970
 1563POPC   C4A21882  40.758  28.287   7.589
 1563POPC   C1B21883  40.548  28.830   8.690
 1563POPC   C2B21884  40.636  28.763   8.213
 1563POPC   C3B21885  40.541  28.713   7.760
 1563POPC   C4B21886  40.356  28.592   7.338
 1564POPC   NC321887  39.790  24.789   9.449
 1564POPC   PO421888  39.914  25.447   9.567
 1564POPC   GL121889  40.018  25.464   9.173
 1564POPC   GL221890  39.762  25.728   9.116
 1564POPC   C1A21891  40.119  25.192   8.816
 1564POPC   D2A21892  39.925  25.023   8.432
 1564POPC   C3A21893  40.022  25.189   8.029
 1564POPC   C4A21894  40.340  25.360   7.773
 1564POPC   C1B21895  39.651  25.445   8.726
 1564POPC   C2B21896  39.598  25.391   8.241
 1564POPC   C3B21897  39.747  25.608   7.855
 1564POPC   C4B21898  39.723  25.761   7.406
 1565POPC   NC321899  12.337  24.297   9.525
 1565POPC   PO421900  11.615  24.330   9.476
 1565POPC   GL121901  11.926  24.511   9.175
 1565POPC   GL221902  12.212  24.738   9.260
 1565POPC   C1A21903  12.046  24.360   8.778
 1565POPC   D2A21904  11.919  24.240   8.368
 1565POPC   C3A21905  12.145  24.327   8.014
 1565POPC   C4A21906  11.832  24.258   7.710
 1565POPC   C1B21907  12.198  24.842   8.826
 1565POPC   C2B21908  12.172  24.691   8.403
 1565POPC   C3B21909  11.966  24.802   8.040
 1565POPC   C4B21910  12.197  24.718   7.665
 1566POPC   NC321911  14.384  12.479   9.460
 1566POPC   PO421912  14.571  13.101   9.468
 1566POPC   GL121913  14.329  13.050   9.113
 1566POPC   GL221914  14.135  12.716   9.072
 1566POPC   C1A21915  14.378  13.161   8.704
 1566POPC   D2A21916  14.220  12.961   8.368
 1566POPC   C3A21917  14.397  12.976   7.964
 1566POPC   C4A21918  14.136  12.646   7.775
 1566POPC   C1B21919  14.488  12.671   8.770
 1566POPC   C2B21920  14.673  12.706   8.343
 1566POPC   C3B21921  14.635  12.514   7.932
 1566POPC   C4B21922  14.607  12.689   7.526
 1567POPC   NC321923  28.840  16.561  10.174
 1567POPC   PO421924  28.869  16.976   9.652
 1567POPC   GL121925  29.132  16.935   9.207
 1567POPC   GL221926  29.259  16.564   9.127
 1567POPC   C1A21927  29.124  16.824   8.722
 1567POPC   D2A21928  29.264  16.607   8.337
 1567POPC   C3A21929  29.063  16.807   7.957
 1567POPC   C4A21930  28.741  16.671   7.653
 1567POPC   C1B21931  29.591  16.452   8.798
 1567POPC   C2B21932  29.779  16.378   8.402
 1567POPC   C3B21933  29.604  16.316   8.001
 1567POPC   C4B21934  29.417  16.543   7.682
 1568POPC   NC321935  21.651  38.892   9.548
 1568POPC   PO421936  21.062  39.281   9.582
 1568POPC   GL121937  21.286  39.100   9.240
 1568POPC   GL221938  21.016  38.944   9.090
 1568POPC   C1A21939  21.458  39.021   8.814
 1568POPC   D2A21940  21.395  39.281   8.439
 1568POPC   C3A21941  21.539  39.174   8.027
 1568POPC   C4A21942  21.839  39.433   7.808
 1568POPC   C1B21943  21.015  39.273   8.791
 1568POPC   C2B21944  20.878  39.204   8.372
 1568POPC   C3B21945  21.006  39.384   8.011
 1568POPC   C4B21946  21.297  39.479   7.685
 1569POPC   NC321947   6.300   2.998   9.466
 1569POPC   PO421948   6.922   2.597   9.457
 1569POPC   GL121949   6.672   2.717   9.134
 1569POPC   GL221950   6.725   3.041   9.183
 1569POPC   C1A21951   6.608   2.678   8.711
 1569POPC   D2A21952   6.636   2.732   8.284
 1569POPC   C3A21953   6.812   2.464   7.979
 1569POPC   C4A21954   6.725   2.506   7.553
 1569POPC   C1B21955   6.446   3.182   8.861
 1569POPC   C2B21956   6.245   3.054   8.494
 1569POPC   C3B21957   6.370   3.111   8.058
 1569POPC   C4B21958   6.515   2.986   7.654
 1570POPC   NC321959  19.641  34.833   9.544
 1570POPC   PO421960  20.288  34.693   9.534
 1570POPC   GL121961  19.986  34.620   9.186
 1570POPC   GL221962  19.702  34.396   9.227
 1570POPC   C1A21963  19.743  34.811   8.838
 1570POPC   D2A21964  19.435  34.886   8.498
 1570POPC   C3A21965  19.641  34.887   8.102
 1570POPC   C4A21966  19.665  34.667   7.727
 1570POPC   C1B21967  19.820  34.310   8.799
 1570POPC   C2B21968  19.782  34.479   8.403
 1570POPC   C3B21969  19.824  34.279   8.023
 1570POPC   C4B21970  19.665  34.073   7.684
 1571POPC   NC321971  35.208   5.748   9.548
 1571POPC   PO421972  35.815   6.005   9.315
 1571POPC   GL121973  35.406   5.975   9.140
 1571POPC   GL221974  35.425   5.626   9.100
 1571POPC   C1A21975  35.196   5.994   8.757
 1571POPC   D2A21976  35.347   5.821   8.369
 1571POPC   C3A21977  35.517   6.071   8.030
 1571POPC   C4A21978  35.319   5.900   7.686
 1571POPC   C1B21979  35.639   5.559   8.737
 1571POPC   C2B21980  35.568   5.362   8.335
 1571POPC   C3B21981  35.602   5.546   7.932
 1571POPC   C4B21982  35.526   5.486   7.493
 1572POPC   NC321983   6.407  33.575   9.516
 1572POPC   PO421984   6.904  34.047   9.745
 1572POPC   GL121985   6.667  33.951   9.308
 1572POPC   GL221986   6.380  34.154   9.333
 1572POPC   C1A21987   6.617  33.688   8.852
 1572POPC   D2A21988   6.853  33.658   8.437
 1572POPC   C3A21989   6.675  33.574   7.993
 1572POPC   C4A21990   6.681  33.418   7.544
 1572POPC   C1B21991   6.345  34.096   8.924
 1572POPC   C2B21992   6.498  34.049   8.507
 1572POPC   C3B21993   6.448  34.279   8.146
 1572POPC   C4B21994   6.455  34.042   7.777
 1573POPC   NC321995  28.772  41.454   9.551
 1573POPC   PO421996  29.370  41.389   9.335
 1573POPC   GL121997  29.084  41.665   9.158
 1573POPC   GL221998  28.875  41.409   9.049
 1573POPC   C1A21999  29.118  41.694   8.703
 1573POPC   D2A22000  29.221  41.336   8.386
 1573POPC   C3A22001  29.205  41.528   7.988
 1573POPC   C4A22002  29.330  41.949   7.870
 1573POPC   C1B22003  28.757  41.290   8.647
 1573POPC   C2B22004  28.768  41.592   8.317
 1573POPC   C3B22005  28.634  41.421   7.974
 1573POPC   C4B22006  28.906  41.306   7.655
 1574POPC   NC322007  12.639  37.900   9.552
 1574POPC   PO422008  13.268  37.801   9.709
 1574POPC   GL122009  13.113  37.598   9.290
 1574POPC   GL222010  12.757  37.619   9.167
 1574POPC   C1A22011  13.114  37.623   8.814
 1574POPC   D2A22012  13.041  37.385   8.437
 1574POPC   C3A22013  13.215  37.497   8.092
 1574POPC   C4A22014  12.988  37.663   7.771
 1574POPC   C1B22015  12.592  37.847   8.819
 1574POPC   C2B22016  12.520  37.810   8.380
 1574POPC   C3B22017  12.583  37.966   7.959
 1574POPC   C4B22018  12.909  38.173   7.720
 1575POPC   NC322019  12.968  39.600   9.464
 1575POPC   PO422020  12.572  39.025   9.480
 1575POPC   GL122021  12.735  39.015   9.079
 1575POPC   GL222022  12.990  39.251   9.105
 1575POPC   C1A22023  12.836  39.124   8.640
 1575POPC   D2A22024  12.533  39.145   8.282
 1575POPC   C3A22025  12.751  39.044   7.914
 1575POPC   C4A22026  12.992  39.238   7.595
 1575POPC   C1B22027  13.257  39.496   8.842
 1575POPC   C2B22028  13.355  39.385   8.427
 1575POPC   C3B22029  13.123  39.388   8.063
 1575POPC   C4B22030  13.015  39.739   7.777
 1576POPC   NC322031  12.426  15.964   9.372
 1576POPC   PO422032  11.775  15.921   9.469
 1576POPC   GL122033  11.988  15.878   9.111
 1576POPC   GL222034  12.071  16.202   9.113
 1576POPC   C1A22035  11.898  16.001   8.689
 1576POPC   D2A22036  11.946  16.176   8.325
 1576POPC   C3A22037  12.113  15.864   8.038
 1576POPC   C4A22038  12.011  16.052   7.684
 1576POPC   C1B22039  12.374  16.126   8.729
 1576POPC   C2B22040  12.453  16.187   8.262
 1576POPC   C3B22041  12.532  16.181   7.785
 1576POPC   C4B22042  12.372  16.351   7.361
 1577POPC   NC322043   3.144  18.176   9.474
 1577POPC   PO422044   3.856  18.161   9.560
 1577POPC   GL122045   3.572  18.156   9.178
 1577POPC   GL222046   3.347  18.469   9.099
 1577POPC   C1A22047   3.423  18.036   8.760
 1577POPC   D2A22048   3.217  18.036   8.346
 1577POPC   C3A22049   3.513  18.031   7.975
 1577POPC   C4A22050   3.548  18.048   7.510
 1577POPC   C1B22051   3.125  18.458   8.684
 1577POPC   C2B22052   3.178  18.526   8.236
 1577POPC   C3B22053   3.419  18.512   7.863
 1577POPC   C4B22054   3.815  18.479   7.727
 1578POPC   NC322055  10.078  41.032   9.302
 1578POPC   PO422056  10.524  40.825   9.770
 1578POPC   GL122057  10.570  40.831   9.302
 1578POPC   GL222058  10.553  41.122   9.163
 1578POPC   C1A22059  10.557  40.728   8.830
 1578POPC   D2A22060  10.892  40.702   8.522
 1578POPC   C3A22061  10.899  40.802   8.083
 1578POPC   C4A22062  10.674  40.710   7.691
 1578POPC   C1B22063  10.403  41.233   8.763
 1578POPC   C2B22064  10.543  41.129   8.372
 1578POPC   C3B22065  10.402  40.821   8.112
 1578POPC   C4B22066  10.216  40.956   7.752
 1579POPC   NC322067  14.749  20.384   9.435
 1579POPC   PO422068  14.125  20.793   9.424
 1579POPC   GL122069  14.389  20.634   9.168
 1579POPC   GL222070  14.317  20.303   9.151
 1579POPC   C1A22071  14.491  20.612   8.768
 1579POPC   D2A22072  14.455  20.900   8.437
 1579POPC   C3A22073  14.429  20.686   8.079
 1579POPC   C4A22074  14.567  20.748   7.714
 1579POPC   C1B22075  14.104  20.206   8.767
 1579POPC   C2B22076  14.220  20.325   8.377
 1579POPC   C3B22077  14.096  20.277   7.965
 1579POPC   C4B22078  14.264  20.378   7.608
 1580POPC   NC322079  16.048  41.592   9.532
 1580POPC   PO422080  15.622  42.030   9.550
 1580POPC   GL122081  15.734  41.770   9.158
 1580POPC   GL222082  15.773  41.398   9.149
 1580POPC   C1A22083  15.882  41.724   8.727
 1580POPC   D2A22084  15.950  41.930   8.332
 1580POPC   C3A22085  15.751  41.810   7.956
 1580POPC   C4A22086  15.896  41.954   7.577
 1580POPC   C1B22087  15.733  41.206   8.743
 1580POPC   C2B22088  15.777  41.403   8.327
 1580POPC   C3B22089  16.151  41.517   8.091
 1580POPC   C4B22090  16.419  41.237   7.869
 1581POPC   NC322091   6.434   1.390   9.450
 1581POPC   PO422092   7.015   1.632   9.209
 1581POPC   GL122093   6.674   1.452   8.971
 1581POPC   GL222094   6.492   1.124   9.016
 1581POPC   C1A22095   6.801   1.226   8.624
 1581POPC   D2A22096   6.676   1.154   8.235
 1581POPC   C3A22097   6.919   1.438   8.008
 1581POPC   C4A22098   6.902   1.528   7.599
 1581POPC   C1B22099   6.459   0.847   8.656
 1581POPC   C2B22100   6.218   0.851   8.312
 1581POPC   C3B22101   6.182   1.139   8.057
 1581POPC   C4B22102   6.520   1.207   7.755
 1582POPC   NC322103  39.900   7.652   9.761
 1582POPC   PO422104  39.712   8.214   9.432
 1582POPC   GL122105  39.863   8.231   9.062
 1582POPC   GL222106  40.053   7.945   9.094
 1582POPC   C1A22107  40.170   8.327   8.781
 1582POPC   D2A22108  40.228   8.558   8.427
 1582POPC   C3A22109  40.001   8.315   8.144
 1582POPC   C4A22110  40.004   8.306   7.730
 1582POPC   C1B22111  40.141   7.820   8.700
 1582POPC   C2B22112  39.907   7.838   8.353
 1582POPC   C3B22113  39.981   7.823   7.922
 1582POPC   C4B22114  40.041   7.857   7.473
 1583POPC   NC322115  36.504  21.627   9.286
 1583POPC   PO422116  36.120  22.163   9.525
 1583POPC   GL122117  36.180  22.319   9.148
 1583POPC   GL222118  36.434  22.083   9.065
 1583POPC   C1A22119  36.014  22.249   8.744
 1583POPC   D2A22120  36.172  22.330   8.344
 1583POPC   C3A22121  35.989  22.106   8.038
 1583POPC   C4A22122  35.954  22.233   7.648
 1583POPC   C1B22123  36.274  21.807   8.723
 1583POPC   C2B22124  36.307  21.759   8.307
 1583POPC   C3B22125  36.506  22.007   8.030
 1583POPC   C4B22126  36.303  21.878   7.667
 1584POPC   NC322127  22.418  28.461   9.560
 1584POPC   PO422128  21.771  28.202   9.503
 1584POPC   GL122129  21.950  28.472   9.190
 1584POPC   GL222130  22.290  28.451   9.089
 1584POPC   C1A22131  21.932  28.485   8.736
 1584POPC   D2A22132  22.017  28.264   8.363
 1584POPC   C3A22133  21.789  28.439   8.022
 1584POPC   C4A22134  21.944  28.556   7.609
 1584POPC   C1B22135  22.395  28.717   8.791
 1584POPC   C2B22136  22.428  28.597   8.385
 1584POPC   C3B22137  22.296  28.583   7.979
 1584POPC   C4B22138  22.449  28.474   7.566
 1585POPC   NC322139   2.456  35.363   9.629
 1585POPC   PO422140   3.129  35.329   9.596
 1585POPC   GL122141   2.857  35.154   9.319
 1585POPC   GL222142   2.783  35.501   9.255
 1585POPC   C1A22143   2.561  35.073   8.978
 1585POPC   D2A22144   2.481  34.935   8.507
 1585POPC   C3A22145   2.620  35.215   8.184
 1585POPC   C4A22146   2.758  35.200   7.757
 1585POPC   C1B22147   2.639  35.575   8.888
 1585POPC   C2B22148   2.733  35.690   8.480
 1585POPC   C3B22149   2.573  35.697   8.076
 1585POPC   C4B22150   2.723  35.699   7.668
 1586POPC   NC322151  38.083  15.563   9.424
 1586POPC   PO422152  38.295  14.896   9.496
 1586POPC   GL122153  38.338  15.179   9.166
 1586POPC   GL222154  37.994  15.150   9.128
 1586POPC   C1A22155  38.284  15.342   8.749
 1586POPC   D2A22156  38.525  15.466   8.420
 1586POPC   C3A22157  38.597  15.272   8.050
 1586POPC   C4A22158  38.411  15.435   7.692
 1586POPC   C1B22159  38.131  14.846   8.815
 1586POPC   C2B22160  38.282  14.824   8.377
 1586POPC   C3B22161  38.178  14.968   7.973
 1586POPC   C4B22162  38.262  14.809   7.594
 1587POPC   NC322163  16.375  23.305   9.276
 1587POPC   PO422164  15.793  23.414   9.537
 1587POPC   GL122165  15.636  23.563   9.135
 1587POPC   GL222166  16.010  23.620   9.053
 1587POPC   C1A22167  15.672  23.726   8.696
 1587POPC   D2A22168  16.104  23.807   8.513
 1587POPC   C3A22169  16.172  23.819   8.084
 1587POPC   C4A22170  15.832  23.768   7.823
 1587POPC   C1B22171  16.101  23.324   8.701
 1587POPC   C2B22172  16.266  23.133   8.350
 1587POPC   C3B22173  16.090  23.314   7.983
 1587POPC   C4B22174  16.190  23.406   7.566
 1588POPC   NC322175   2.890  27.706   9.534
 1588POPC   PO422176   2.462  27.135   9.474
 1588POPC   GL122177   2.658  27.391   9.207
 1588POPC   GL222178   2.452  27.262   8.963
 1588POPC   C1A22179   2.675  27.700   8.871
 1588POPC   D2A22180   2.592  27.550   8.459
 1588POPC   C3A22181   2.689  27.775   8.085
 1588POPC   C4A22182   2.835  27.729   7.697
 1588POPC   C1B22183   2.875  27.236   8.768
 1588POPC   C2B22184   2.967  27.169   8.361
 1588POPC   C3B22185   2.695  27.265   8.034
 1588POPC   C4B22186   2.685  27.099   7.680
 1589POPC   NC322187  12.474  38.587   9.382
 1589POPC   PO422188  11.863  38.326   9.566
 1589POPC   GL122189  12.008  38.412   9.173
 1589POPC   GL222190  12.180  38.101   9.193
 1589POPC   C1A22191  12.093  38.487   8.743
 1589POPC   D2A22192  12.347  38.365   8.381
 1589POPC   C3A22193  12.184  38.674   8.092
 1589POPC   C4A22194  11.982  38.593   7.700
 1589POPC   C1B22195  12.057  37.990   8.758
 1589POPC   C2B22196  11.878  38.171   8.364
 1589POPC   C3B22197  12.067  38.143   7.933
 1589POPC   C4B22198  11.954  38.147   7.458
 1590POPC   NC322199  13.023  38.921   9.514
 1590POPC   PO422200  12.851  38.299   9.420
 1590POPC   GL122201  12.853  38.464   9.035
 1590POPC   GL222202  12.536  38.347   8.934
 1590POPC   C1A22203  12.972  38.212   8.679
 1590POPC   D2A22204  12.930  38.186   8.251
 1590POPC   C3A22205  13.141  38.508   8.008
 1590POPC   C4A22206  12.966  38.696   7.583
 1590POPC   C1B22207  12.541  38.723   8.701
 1590POPC   C2B22208  12.755  38.683   8.324
 1590POPC   C3B22209  12.631  38.520   7.944
 1590POPC   C4B22210  12.450  38.753   7.606
 1591POPC   NC322211   2.193  30.114   9.462
 1591POPC   PO422212   1.896  29.490   9.398
 1591POPC   GL122213   2.103  29.766   9.086
 1591POPC   GL222214   1.995  30.136   9.020
 1591POPC   C1A22215   2.138  29.833   8.645
 1591POPC   D2A22216   1.907  29.754   8.298
 1591POPC   C3A22217   2.145  29.898   8.007
 1591POPC   C4A22218   1.943  29.926   7.676
 1591POPC   C1B22219   1.913  30.421   8.719
 1591POPC   C2B22220   1.887  30.253   8.339
 1591POPC   C3B22221   1.655  30.183   7.999
 1591POPC   C4B22222   1.714  30.372   7.608
 1592POPC   NC322223  31.160   7.592   9.381
 1592POPC   PO422224  31.821   7.579   9.423
 1592POPC   GL122225  31.552   7.478   9.105
 1592POPC   GL222226  31.696   7.252   8.942
 1592POPC   C1A22227  31.251   7.383   8.746
 1592POPC   D2A22228  31.333   7.034   8.500
 1592POPC   C3A22229  31.423   7.153   8.068
 1592POPC   C4A22230  31.128   7.013   7.757
 1592POPC   C1B22231  31.698   7.594   8.642
 1592POPC   C2B22232  31.830   7.629   8.235
 1592POPC   C3B22233  31.578   7.714   7.900
 1592POPC   C4B22234  31.171   7.913   7.986
 1593POPC   NC322235   4.260  42.060   9.326
 1593POPC   PO422236   4.732  42.216   9.762
 1593POPC   GL122237   4.642  42.369   9.247
 1593POPC   GL222238   4.254  42.449   9.026
 1593POPC   C1A22239   4.645  42.320   8.758
 1593POPC   D2A22240   4.332  42.360   8.400
 1593POPC   C3A22241   4.496  42.475   7.995
 1593POPC   C4A22242   4.569  42.173   7.650
 1593POPC   C1B22243   3.990  42.130   8.711
 1593POPC   C2B22244   3.857  42.119   8.250
 1593POPC   C3B22245   4.088  42.215   7.842
 1593POPC   C4B22246   4.127  42.230   7.356
 1594POPC   NC322247   1.346  35.161   9.945
 1594POPC   PO422248   1.456  35.709   9.537
 1594POPC   GL122249   1.354  35.534   9.164
 1594POPC   GL222250   1.575  35.778   9.059
 1594POPC   C1A22251   1.176  35.257   8.812
 1594POPC   D2A22252   0.827  35.203   8.484
 1594POPC   C3A22253   0.953  35.155   8.041
 1594POPC   C4A22254   1.347  35.173   7.806
 1594POPC   C1B22255   1.366  35.764   8.679
 1594POPC   C2B22256   1.234  35.523   8.335
 1594POPC   C3B22257   1.172  35.656   7.913
 1594POPC   C4B22258   1.174  35.579   7.471
 1595POPC   NC322259  10.762   3.324   9.468
 1595POPC   PO422260  10.186   3.654   9.541
 1595POPC   GL122261  10.279   3.676   9.119
 1595POPC   GL222262  10.664   3.606   9.032
 1595POPC   C1A22263  10.289   3.490   8.718
 1595POPC   D2A22264  10.613   3.519   8.423
 1595POPC   C3A22265  10.430   3.424   8.057
 1595POPC   C4A22266  10.587   3.550   7.654
 1595POPC   C1B22267  10.782   3.216   8.780
 1595POPC   C2B22268  10.721   3.024   8.334
 1595POPC   C3B22269  10.837   3.162   7.887
 1595POPC   C4B22270  10.893   3.137   7.438
 1596POPC   NC322271  34.338  43.089   9.454
 1596POPC   PO422272  34.398  43.631   9.760
 1596POPC   GL122273  34.715  43.395   9.323
 1596POPC   GL222274  34.745  42.988   9.177
 1596POPC   C1A22275  34.766  43.294   8.811
 1596POPC   D2A22276  34.715  43.043   8.401
 1596POPC   C3A22277  34.648  43.222   7.987
 1596POPC   C4A22278  34.290  43.321   7.704
 1596POPC   C1B22279  34.502  42.819   8.809
 1596POPC   C2B22280  34.335  42.696   8.394
 1596POPC   C3B22281  34.484  42.689   7.943
 1596POPC   C4B22282  34.230  42.545   7.558
 1597POPC   NC322283   7.352  40.728   9.480
 1597POPC   PO422284   8.058  40.974   9.485
 1597POPC   GL122285   7.828  40.842   9.127
 1597POPC   GL222286   7.781  40.502   9.213
 1597POPC   C1A22287   7.692  40.944   8.673
 1597POPC   D2A22288   7.757  40.736   8.285
 1597POPC   C3A22289   7.734  40.975   7.899
 1597POPC   C4A22290   7.468  41.016   7.503
 1597POPC   C1B22291   7.596  40.463   8.805
 1597POPC   C2B22292   7.260  40.576   8.528
 1597POPC   C3B22293   7.274  40.664   8.105
 1597POPC   C4B22294   7.467  40.554   7.737
 1598POPC   NC322295   9.169  22.292   9.846
 1598POPC   PO422296   8.677  21.968   9.576
 1598POPC   GL122297   8.829  22.209   9.141
 1598POPC   GL222298   9.199  22.282   9.098
 1598POPC   C1A22299   8.703  22.369   8.776
 1598POPC   D2A22300   8.621  22.069   8.470
 1598POPC   C3A22301   8.905  22.200   8.154
 1598POPC   C4A22302   8.863  22.392   7.737
 1598POPC   C1B22303   9.078  21.968   8.758
 1598POPC   C2B22304   8.994  21.716   8.397
 1598POPC   C3B22305   8.693  21.729   8.080
 1598POPC   C4B22306   8.896  21.887   7.740
 1599POPC   NC322307  20.083   4.623   9.500
 1599POPC   PO422308  19.693   4.178   9.827
 1599POPC   GL122309  19.872   4.154   9.365
 1599POPC   GL222310  19.566   4.170   9.173
 1599POPC   C1A22311  19.995   4.000   8.934
 1599POPC   D2A22312  20.137   4.254   8.562
 1599POPC   C3A22313  20.118   4.205   8.111
 1599POPC   C4A22314  19.865   4.407   7.795
 1599POPC   C1B22315  19.665   4.359   8.754
 1599POPC   C2B22316  19.607   4.416   8.287
 1599POPC   C3B22317  19.362   4.346   7.893
 1599POPC   C4B22318  19.449   4.036   7.533
 1600POPC   NC322319   6.168  14.545   9.430
 1600POPC   PO422320   5.645  14.117   9.424
 1600POPC   GL122321   5.744  14.453   9.139
 1600POPC   GL222322   6.081  14.389   8.959
 1600POPC   C1A22323   5.658  14.576   8.727
 1600POPC   D2A22324   5.810  14.318   8.386
 1600POPC   C3A22325   5.914  14.602   8.062
 1600POPC   C4A22326   5.708  14.571   7.649
 1600POPC   C1B22327   6.332  14.065   8.728
 1600POPC   C2B22328   6.277  13.938   8.278
 1600POPC   C3B22329   6.095  14.164   7.918
 1600POPC   C4B22330   6.062  14.225   7.472
 1601POPC   NC322331  39.688  15.507   9.287
 1601POPC   PO422332  40.166  15.989   9.584
 1601POPC   GL122333  39.904  15.983   9.193
 1601POPC   GL222334  40.102  15.710   9.076
 1601POPC   C1A22335  39.677  16.248   8.844
 1601POPC   D2A22336  39.454  16.330   8.415
 1601POPC   C3A22337  39.662  16.318   7.984
 1601POPC   C4A22338  39.908  15.987   7.758
 1601POPC   C1B22339  39.871  15.809   8.681
 1601POPC   C2B22340  39.794  15.877   8.239
 1601POPC   C3B22341  39.632  15.598   7.921
 1601POPC   C4B22342  39.680  15.650   7.460
 1602POPC   NC322343  28.807  22.672   9.400
 1602POPC   PO422344  29.270  23.045   9.719
 1602POPC   GL122345  29.333  22.940   9.239
 1602POPC   GL222346  29.142  22.762   9.054
 1602POPC   C1A22347  29.402  23.099   8.789
 1602POPC   D2A22348  29.339  22.923   8.369
 1602POPC   C3A22349  29.410  23.159   8.003
 1602POPC   C4A22350  29.546  23.023   7.614
 1602POPC   C1B22351  28.910  22.894   8.711
 1602POPC   C2B22352  28.851  22.778   8.320
 1602POPC   C3B22353  28.940  22.936   7.940
 1602POPC   C4B22354  28.644  23.209   7.804
 1603POPC   NC322355  23.843  11.641   9.568
 1603POPC   PO422356  23.693  12.319   9.597
 1603POPC   GL122357  23.577  12.390   9.119
 1603POPC   GL222358  23.536  12.013   9.008
 1603POPC   C1A22359  23.506  12.367   8.643
 1603POPC   D2A22360  23.567  12.009   8.326
 1603POPC   C3A22361  23.478  12.138   7.907
 1603POPC   C4A22362  23.753  12.189   7.580
 1603POPC   C1B22363  23.910  11.919   8.702
 1603POPC   C2B22364  24.096  11.768   8.333
 1603POPC   C3B22365  23.932  11.846   7.937
 1603POPC   C4B22366  24.155  11.915   7.549
 1604POPC   NC322367  22.842  19.314   9.817
 1604POPC   PO422368  22.601  18.740   9.768
 1604POPC   GL122369  22.730  18.931   9.328
 1604POPC   GL222370  23.081  18.974   9.209
 1604POPC   C1A22371  22.699  18.907   8.855
 1604POPC   D2A22372  22.510  18.739   8.462
 1604POPC   C3A22373  22.689  18.824   8.046
 1604POPC   C4A22374  22.809  19.192   7.799
 1604POPC   C1B22375  23.160  19.203   8.804
 1604POPC   C2B22376  23.089  19.252   8.353
 1604POPC   C3B22377  23.286  19.114   7.973
 1604POPC   C4B22378  23.261  19.265   7.524
 1605POPC   NC322379  25.555   7.054   9.454
 1605POPC   PO422380  25.098   7.528   9.568
 1605POPC   GL122381  25.261   7.400   9.142
 1605POPC   GL222382  25.520   7.183   8.964
 1605POPC   C1A22383  25.356   7.601   8.722
 1605POPC   D2A22384  25.191   7.462   8.316
 1605POPC   C3A22385  25.413   7.469   7.962
 1605POPC   C4A22386  25.119   7.678   7.729
 1605POPC   C1B22387  25.106   7.152   8.723
 1605POPC   C2B22388  24.904   7.007   8.339
 1605POPC   C3B22389  25.000   7.122   7.924
 1605POPC   C4B22390  25.402   7.027   7.677
 1606POPC   NC322391  32.760  23.720   9.554
 1606POPC   PO422392  33.437  23.786   9.537
 1606POPC   GL122393  33.170  23.535   9.282
 1606POPC   GL222394  33.038  23.826   9.150
 1606POPC   C1A22395  33.045  23.427   8.847
 1606POPC   D2A22396  32.897  23.244   8.453
 1606POPC   C3A22397  33.077  23.309   8.059
 1606POPC   C4A22398  32.922  23.420   7.658
 1606POPC   C1B22399  32.857  23.887   8.768
 1606POPC   C2B22400  33.041  23.754   8.397
 1606POPC   C3B22401  32.928  23.804   7.987
 1606POPC   C4B22402  32.766  24.103   7.719
 1607POPC   NC322403  36.541  26.102   9.487
 1607POPC   PO422404  37.063  25.709   9.280
 1607POPC   GL122405  36.907  26.125   9.131
 1607POPC   GL222406  37.189  26.361   9.104
 1607POPC   C1A22407  36.747  26.300   8.743
 1607POPC   D2A22408  36.856  26.129   8.324
 1607POPC   C3A22409  36.839  26.237   7.884
 1607POPC   C4A22410  36.746  26.027   7.490
 1607POPC   C1B22411  37.233  26.084   8.731
 1607POPC   C2B22412  37.374  26.243   8.361
 1607POPC   C3B22413  37.369  26.216   7.935
 1607POPC   C4B22414  37.371  25.895   7.662
 1608POPC   NC322415  11.930  29.618   9.317
 1608POPC   PO422416  12.081  28.967   9.414
 1608POPC   GL122417  12.042  29.175   9.080
 1608POPC   GL222418  12.413  29.202   9.072
 1608POPC   C1A22419  12.052  29.387   8.707
 1608POPC   D2A22420  11.952  29.312   8.315
 1608POPC   C3A22421  12.323  29.245   8.085
 1608POPC   C4A22422  12.108  29.135   7.728
 1608POPC   C1B22423  12.286  28.856   8.781
 1608POPC   C2B22424  12.121  28.840   8.406
 1608POPC   C3B22425  12.223  28.723   8.018
 1608POPC   C4B22426  12.448  28.642   7.674
 1609POPC   NC322427  14.071  24.792   9.521
 1609POPC   PO422428  14.665  24.416   9.626
 1609POPC   GL122429  14.349  24.387   9.226
 1609POPC   GL222430  14.243  24.698   9.067
 1609POPC   C1A22431  14.488  24.301   8.744
 1609POPC   D2A22432  14.764  24.364   8.372
 1609POPC   C3A22433  14.602  24.573   7.985
 1609POPC   C4A22434  14.401  24.239   7.759
 1609POPC   C1B22435  14.304  24.759   8.664
 1609POPC   C2B22436  14.224  24.526   8.320
 1609POPC   C3B22437  14.045  24.605   7.934
 1609POPC   C4B22438  13.927  24.400   7.570
 1610POPC   NC322439  43.148  19.266   9.518
 1610POPC   PO422440  42.996  18.581   9.474
 1610POPC   GL122441  42.933  18.930   9.213
 1610POPC   GL222442  43.315  18.945   9.156
 1610POPC   C1A22443  42.810  19.245   8.906
 1610POPC   D2A22444  42.700  18.929   8.579
 1610POPC   C3A22445  42.807  18.975   8.149
 1610POPC   C4A22446  42.778  19.136   7.746
 1610POPC   C1B22447  43.189  18.957   8.740
 1610POPC   C2B22448  43.281  18.864   8.318
 1610POPC   C3B22449  43.271  18.994   7.879
 1610POPC   C4B22450  43.123  18.867   7.456
 1611POPC   NC322451  33.093  17.699   9.530
 1611POPC   PO422452  32.571  17.404   9.233
 1611POPC   GL122453  32.842  17.718   9.086
 1611POPC   GL222454  33.191  17.542   9.057
 1611POPC   C1A22455  32.882  17.858   8.695
 1611POPC   D2A22456  33.017  17.608   8.359
 1611POPC   C3A22457  32.776  17.663   7.996
 1611POPC   C4A22458  32.642  17.280   7.832
 1611POPC   C1B22459  33.089  17.222   8.757
 1611POPC   C2B22460  33.244  16.970   8.416
 1611POPC   C3B22461  33.367  17.016   8.011
 1611POPC   C4B22462  33.197  17.393   7.839
 1612POPC   NC322463  39.257  41.681   9.575
 1612POPC   PO422464  39.592  42.054   9.199
 1612POPC   GL122465  39.430  41.609   9.102
 1612POPC   GL222466  39.045  41.518   9.104
 1612POPC   C1A22467  39.367  41.369   8.734
 1612POPC   D2A22468  39.530  41.538   8.351
 1612POPC   C3A22469  39.202  41.496   8.110
 1612POPC   C4A22470  39.187  41.454   7.705
 1612POPC   C1B22471  38.745  41.648   8.794
 1612POPC   C2B22472  38.785  41.708   8.334
 1612POPC   C3B22473  38.850  41.817   7.869
 1612POPC   C4B22474  38.838  42.058   7.435
 1613POPC   NC322475  18.935   7.551   9.523
 1613POPC   PO422476  19.617   7.313   9.546
 1613POPC   GL122477  19.320   7.432   9.224
 1613POPC   GL222478  19.079   7.137   9.187
 1613POPC   C1A22479  19.111   7.525   8.841
 1613POPC   D2A22480  19.090   7.316   8.446
 1613POPC   C3A22481  19.125   7.600   8.075
 1613POPC   C4A22482  18.990   7.701   7.666
 1613POPC   C1B22483  18.798   7.066   8.822
 1613POPC   C2B22484  18.605   7.111   8.399
 1613POPC   C3B22485  18.888   7.047   8.062
 1613POPC   C4B22486  18.966   7.202   7.691
 1614POPC   NC322487  38.931  31.855   9.247
 1614POPC   PO422488  38.934  32.466   9.506
 1614POPC   GL122489  39.288  32.240   9.279
 1614POPC   GL222490  39.319  32.520   9.096
 1614POPC   C1A22491  39.398  32.105   8.818
 1614POPC   D2A22492  39.132  32.229   8.450
 1614POPC   C3A22493  39.189  32.066   8.032
 1614POPC   C4A22494  38.905  31.876   7.787
 1614POPC   C1B22495  39.160  32.744   8.775
 1614POPC   C2B22496  39.181  32.762   8.359
 1614POPC   C3B22497  39.023  32.556   8.036
 1614POPC   C4B22498  39.248  32.509   7.703
 1615POPC   NC322499   4.097   1.758   9.626
 1615POPC   PO422500   4.497   2.300   9.662
 1615POPC   GL122501   4.385   2.060   9.290
 1615POPC   GL222502   4.042   2.161   9.174
 1615POPC   C1A22503   4.634   1.934   8.882
 1615POPC   D2A22504   4.810   1.793   8.453
 1615POPC   C3A22505   4.687   1.983   8.041
 1615POPC   C4A22506   4.393   2.214   7.752
 1615POPC   C1B22507   4.054   2.272   8.696
 1615POPC   C2B22508   4.107   2.220   8.208
 1615POPC   C3B22509   4.060   1.843   7.922
 1615POPC   C4B22510   3.788   1.573   7.620
 1616POPC   NC322511  21.626  14.557   9.449
 1616POPC   PO422512  20.960  14.442   9.531
 1616POPC   GL122513  21.187  14.234   9.155
 1616POPC   GL222514  21.044  13.884   9.104
 1616POPC   C1A22515  21.446  14.370   8.783
 1616POPC   D2A22516  21.366  14.664   8.414
 1616POPC   C3A22517  21.291  14.511   8.004
 1616POPC   C4A22518  21.569  14.437   7.671
 1616POPC   C1B22519  21.270  13.894   8.722
 1616POPC   C2B22520  21.206  14.123   8.348
 1616POPC   C3B22521  21.037  14.081   7.918
 1616POPC   C4B22522  21.122  14.288   7.508
 1617POPC   NC322523  28.818   2.913   9.545
 1617POPC   PO422524  28.980   3.546   9.478
 1617POPC   GL122525  29.242   3.567   9.132
 1617POPC   GL222526  29.065   3.289   9.044
 1617POPC   C1A22527  29.433   3.430   8.720
 1617POPC   D2A22528  29.262   3.352   8.322
 1617POPC   C3A22529  29.422   3.536   7.929
 1617POPC   C4A22530  29.441   3.838   7.599
 1617POPC   C1B22531  28.933   3.577   8.740
 1617POPC   C2B22532  28.788   3.539   8.374
 1617POPC   C3B22533  28.901   3.435   7.975
 1617POPC   C4B22534  28.940   3.758   7.705
 1618POPC   NC322535  12.984  33.458   9.351
 1618POPC   PO422536  12.629  32.949   9.533
 1618POPC   GL122537  12.642  32.811   9.144
 1618POPC   GL222538  12.983  32.893   9.061
 1618POPC   C1A22539  12.570  32.969   8.725
 1618POPC   D2A22540  12.839  33.102   8.403
 1618POPC   C3A22541  12.679  32.933   8.045
 1618POPC   C4A22542  12.596  33.077   7.616
 1618POPC   C1B22543  13.247  32.926   8.663
 1618POPC   C2B22544  13.353  33.206   8.288
 1618POPC   C3B22545  13.217  33.259   7.872
 1618POPC   C4B22546  13.047  32.870   7.711
 1619POPC   NC322547  28.652  24.143   9.490
 1619POPC   PO422548  28.133  24.579   9.537
 1619POPC   GL122549  28.400  24.529   9.209
 1619POPC   GL222550  28.239  24.210   9.143
 1619POPC   C1A22551  28.478  24.792   8.836
 1619POPC   D2A22552  28.270  24.826   8.418
 1619POPC   C3A22553  28.508  24.778   8.041
 1619POPC   C4A22554  28.524  24.430   7.766
 1619POPC   C1B22555  28.438  24.301   8.736
 1619POPC   C2B22556  28.511  24.242   8.316
 1619POPC   C3B22557  28.271  24.019   8.034
 1619POPC   C4B22558  28.383  23.972   7.593
 1620POPC   NC322559  18.426   2.821   9.501
 1620POPC   PO422560  18.712   3.324   9.234
 1620POPC   GL122561  18.622   2.999   8.947
 1620POPC   GL222562  18.563   2.650   9.039
 1620POPC   C1A22563  18.276   2.997   8.675
 1620POPC   D2A22564  18.179   3.204   8.296
 1620POPC   C3A22565  18.421   3.041   7.990
 1620POPC   C4A22566  18.207   2.856   7.695
 1620POPC   C1B22567  18.311   2.510   8.695
 1620POPC   C2B22568  18.217   2.639   8.268
 1620POPC   C3B22569  18.371   2.428   7.902
 1620POPC   C4B22570  18.413   2.445   7.471
 1621POPC   NC322571  41.300  11.398   9.465
 1621POPC   PO422572  41.863  10.999   9.723
 1621POPC   GL122573  41.740  11.166   9.298
 1621POPC   GL222574  41.791  11.505   9.231
 1621POPC   C1A22575  41.640  11.197   8.825
 1621POPC   D2A22576  41.554  11.450   8.429
 1621POPC   C3A22577  41.418  11.242   8.032
 1621POPC   C4A22578  41.428  10.950   7.659
 1621POPC   C1B22579  42.025  11.580   8.857
 1621POPC   C2B22580  42.062  11.339   8.500
 1621POPC   C3B22581  41.936  11.473   8.100
 1621POPC   C4B22582  41.841  11.255   7.731
 1622POPC   NC322583  34.278  40.977   9.478
 1622POPC   PO422584  34.634  40.437   9.301
 1622POPC   GL122585  34.645  40.824   9.127
 1622POPC   GL222586  34.321  40.805   9.012
 1622POPC   C1A22587  34.832  40.890   8.740
 1622POPC   D2A22588  34.853  41.088   8.356
 1622POPC   C3A22589  34.749  40.810   8.042
 1622POPC   C4A22590  34.810  40.696   7.639
 1622POPC   C1B22591  34.368  41.105   8.681
 1622POPC   C2B22592  34.314  41.016   8.249
 1622POPC   C3B22593  34.322  40.977   7.801
 1622POPC   C4B22594  34.221  40.671   7.462
 1623POPC   NC322595  20.123  12.755   9.632
 1623POPC   PO422596  20.760  12.795   9.525
 1623POPC   GL122597  20.608  12.850   9.085
 1623POPC   GL222598  20.661  13.178   8.916
 1623POPC   C1A22599  20.771  12.707   8.698
 1623POPC   D2A22600  20.616  12.821   8.312
 1623POPC   C3A22601  20.847  12.780   7.969
 1623POPC   C4A22602  20.765  13.142   7.759
 1623POPC   C1B22603  20.314  12.984   8.688
 1623POPC   C2B22604  20.046  13.099   8.336
 1623POPC   C3B22605  20.259  13.046   7.925
 1623POPC   C4B22606  20.363  13.215   7.482
 1624POPC   NC322607   3.305  37.513   9.559
 1624POPC   PO422608   3.708  38.010   9.595
 1624POPC   GL122609   3.496  37.810   9.172
 1624POPC   GL222610   3.234  37.508   9.074
 1624POPC   C1A22611   3.655  37.514   8.819
 1624POPC   D2A22612   3.443  37.438   8.435
 1624POPC   C3A22613   3.602  37.797   8.210
 1624POPC   C4A22614   3.666  37.794   7.780
 1624POPC   C1B22615   3.200  37.786   8.722
 1624POPC   C2B22616   3.089  37.831   8.296
 1624POPC   C3B22617   3.200  37.567   7.934
 1624POPC   C4B22618   3.291  37.645   7.482
 1625POPC   NC322619  41.902   6.412   9.541
 1625POPC   PO422620  42.461   6.855   9.627
 1625POPC   GL122621  42.181   6.791   9.244
 1625POPC   GL222622  41.872   6.928   9.088
 1625POPC   C1A22623  42.284   6.748   8.792
 1625POPC   D2A22624  42.522   6.633   8.427
 1625POPC   C3A22625  42.388   6.777   8.026
 1625POPC   C4A22626  42.418   6.544   7.658
 1625POPC   C1B22627  41.857   6.488   8.899
 1625POPC   C2B22628  42.122   6.306   8.588
 1625POPC   C3B22629  42.095   6.402   8.162
 1625POPC   C4B22630  42.011   6.183   7.791
 1626POPC   NC322631  35.682  25.914   9.668
 1626POPC   PO422632  35.049  26.157   9.527
 1626POPC   GL122633  35.278  26.107   9.115
 1626POPC   GL222634  35.389  25.812   9.005
 1626POPC   C1A22635  35.077  26.018   8.672
 1626POPC   D2A22636  35.132  25.805   8.270
 1626POPC   C3A22637  35.080  26.108   7.964
 1626POPC   C4A22638  35.258  26.273   7.587
 1626POPC   C1B22639  35.295  25.552   8.686
 1626POPC   C2B22640  35.625  25.594   8.398
 1626POPC   C3B22641  35.646  25.892   8.079
 1626POPC   C4B22642  35.406  25.806   7.744
 1627POPC   NC322643  39.433  27.228   9.312
 1627POPC   PO422644  38.879  27.457   9.675
 1627POPC   GL122645  39.024  27.582   9.207
 1627POPC   GL222646  39.143  27.936   9.094
 1627POPC   C1A22647  39.242  27.530   8.773
 1627POPC   D2A22648  39.155  27.318   8.364
 1627POPC   C3A22649  38.993  27.552   8.013
 1627POPC   C4A22650  39.017  27.583   7.566
 1627POPC   C1B22651  39.524  28.109   8.919
 1627POPC   C2B22652  39.615  28.104   8.482
 1627POPC   C3B22653  39.744  28.038   8.046
 1627POPC   C4B22654  39.455  27.775   7.825
 1628POPC   NC322655  23.539  41.253   9.441
 1628POPC   PO422656  23.732  41.935   9.459
 1628POPC   GL122657  23.798  41.826   9.030
 1628POPC   GL222658  23.880  41.475   9.054
 1628POPC   C1A22659  23.735  41.805   8.560
 1628POPC   D2A22660  23.786  41.526   8.231
 1628POPC   C3A22661  23.632  41.686   7.840
 1628POPC   C4A22662  23.864  41.882   7.521
 1628POPC   C1B22663  23.593  41.331   8.740
 1628POPC   C2B22664  23.499  41.097   8.378
 1628POPC   C3B22665  23.490  41.173   7.957
 1628POPC   C4B22666  23.241  41.398   7.693
 1629POPC   NC322667   4.722  36.456   9.394
 1629POPC   PO422668   5.347  36.146   9.576
 1629POPC   GL122669   5.334  36.033   9.148
 1629POPC   GL222670   4.981  36.104   9.120
 1629POPC   C1A22671   5.267  36.040   8.700
 1629POPC   D2A22672   5.345  36.277   8.336
 1629POPC   C3A22673   5.261  36.026   7.994
 1629POPC   C4A22674   5.441  36.046   7.606
 1629POPC   C1B22675   4.795  36.218   8.734
 1629POPC   C2B22676   4.856  36.094   8.308
 1629POPC   C3B22677   4.830  36.246   7.883
 1629POPC   C4B22678   4.930  35.932   7.538
 1630POPC   NC322679   1.392  32.694   9.574
 1630POPC   PO422680   1.421  33.337   9.567
 1630POPC   GL122681   1.339  33.116   9.162
 1630POPC   GL222682   1.020  32.924   9.201
 1630POPC   C1A22683   1.430  33.259   8.727
 1630POPC   D2A22684   1.609  33.292   8.321
 1630POPC   C3A22685   1.369  33.010   8.034
 1630POPC   C4A22686   1.215  32.948   7.619
 1630POPC   C1B22687   0.914  33.170   8.832
 1630POPC   C2B22688   1.008  33.143   8.389
 1630POPC   C3B22689   0.857  33.008   8.006
 1630POPC   C4B22690   0.691  33.096   7.639
 1631POPC   NC322691  21.205  10.783   9.512
 1631POPC   PO422692  21.817  10.553   9.374
 1631POPC   GL122693  21.488  10.591   9.119
 1631POPC   GL222694  21.285  10.302   9.240
 1631POPC   C1A22695  21.470  10.748   8.693
 1631POPC   D2A22696  21.318  10.675   8.274
 1631POPC   C3A22697  21.522  10.327   8.028
 1631POPC   C4A22698  21.520  10.520   7.655
 1631POPC   C1B22699  21.217  10.320   8.777
 1631POPC   C2B22700  21.124  10.200   8.341
 1631POPC   C3B22701  21.042  10.369   7.909
 1631POPC   C4B22702  21.167  10.135   7.557
 1632POPC   NC322703  44.694   6.446   9.524
 1632POPC   PO422704  44.658   7.103   9.331
 1632POPC   GL122705  44.533   6.753   9.130
 1632POPC   GL222706  44.328   6.939   8.944
 1632POPC   C1A22707  44.744   6.543   8.772
 1632POPC   D2A22708   0.006   6.458   8.383
 1632POPC   C3A22709  44.786   6.507   7.988
 1632POPC   C4A22710  44.795   6.846   7.700
 1632POPC   C1B22711  44.228   6.541   8.738
 1632POPC   C2B22712  44.427   6.558   8.354
 1632POPC   C3B22713  44.377   6.806   7.993
 1632POPC   C4B22714  44.370   6.498   7.663
 1633POPC   NC322715  13.710  34.697   9.596
 1633POPC   PO422716  13.251  34.171   9.665
 1633POPC   GL122717  13.490  34.335   9.289
 1633POPC   GL222718  13.313  34.649   9.165
 1633POPC   C1A22719  13.770  34.458   8.948
 1633POPC   D2A22720  13.700  34.641   8.543
 1633POPC   C3A22721  13.671  34.589   8.107
 1633POPC   C4A22722  13.837  34.731   7.695
 1633POPC   C1B22723  13.298  34.394   8.753
 1633POPC   C2B22724  13.314  34.212   8.341
 1633POPC   C3B22725  13.221  34.306   7.921
 1633POPC   C4B22726  13.340  34.689   7.713
 1634POPC   NC322727  37.295  16.921   9.298
 1634POPC   PO422728  36.686  16.672   9.492
 1634POPC   GL122729  36.700  16.808   9.133
 1634POPC   GL222730  36.924  16.550   9.008
 1634POPC   C1A22731  36.795  17.053   8.821
 1634POPC   D2A22732  36.937  16.790   8.525
 1634POPC   C3A22733  36.742  16.947   8.174
 1634POPC   C4A22734  37.028  16.939   7.889
 1634POPC   C1B22735  36.712  16.325   8.661
 1634POPC   C2B22736  36.621  16.469   8.293
 1634POPC   C3B22737  36.776  16.493   7.885
 1634POPC   C4B22738  36.933  16.398   7.501
 1635POPC   NC322739  20.976  39.673   9.361
 1635POPC   PO422740  20.939  40.294   9.615
 1635POPC   GL122741  20.642  40.270   9.249
 1635POPC   GL222742  20.467  39.952   9.093
 1635POPC   C1A22743  20.579  40.361   8.824
 1635POPC   D2A22744  20.489  40.114   8.500
 1635POPC   C3A22745  20.702  40.212   8.172
 1635POPC   C4A22746  20.686  40.204   7.754
 1635POPC   C1B22747  20.852  39.910   8.791
 1635POPC   C2B22748  21.136  39.895   8.415
 1635POPC   C3B22749  21.035  39.884   7.963
 1635POPC   C4B22750  20.836  39.702   7.596
 1636POPC   NC322751  30.643  20.353   9.420
 1636POPC   PO422752  30.730  21.009   9.368
 1636POPC   GL122753  30.739  20.686   9.027
 1636POPC   GL222754  30.849  20.324   8.950
 1636POPC   C1A22755  30.642  20.731   8.616
 1636POPC   D2A22756  30.918  20.627   8.298
 1636POPC   C3A22757  30.978  20.823   7.934
 1636POPC   C4A22758  30.677  20.796   7.625
 1636POPC   C1B22759  30.444  20.290   8.748
 1636POPC   C2B22760  30.305  20.439   8.342
 1636POPC   C3B22761  30.582  20.391   7.998
 1636POPC   C4B22762  30.650  20.018   7.781
 1637POPC   NC322763   7.900  37.196   9.446
 1637POPC   PO422764   7.936  37.895   9.311
 1637POPC   GL122765   8.188  37.568   9.199
 1637POPC   GL222766   8.531  37.712   9.189
 1637POPC   C1A22767   8.070  37.377   8.836
 1637POPC   D2A22768   8.197  37.317   8.473
 1637POPC   C3A22769   7.821  37.383   8.193
 1637POPC   C4A22770   7.876  37.412   7.740
 1637POPC   C1B22771   8.396  37.773   8.746
 1637POPC   C2B22772   8.109  37.799   8.397
 1637POPC   C3B22773   8.137  37.814   7.954
 1637POPC   C4B22774   8.507  37.912   7.692
 1638POPC   NC322775  18.711  28.675   9.293
 1638POPC   PO422776  18.834  28.102   9.671
 1638POPC   GL122777  19.156  28.146   9.130
 1638POPC   GL222778  19.102  28.516   8.995
 1638POPC   C1A22779  19.097  28.160   8.650
 1638POPC   D2A22780  19.267  28.550   8.455
 1638POPC   C3A22781  19.153  28.574   8.028
 1638POPC   C4A22782  19.145  28.180   7.797
 1638POPC   C1B22783  18.763  28.619   8.646
 1638POPC   C2B22784  18.483  28.682   8.278
 1638POPC   C3B22785  18.686  28.793   7.888
 1638POPC   C4B22786  18.953  28.575   7.543
 1639POPC   NC322787  44.406   2.367   9.249
 1639POPC   PO422788  44.810   2.788   9.637
 1639POPC   GL122789  44.640   2.835   9.230
 1639POPC   GL222790  44.507   3.168   9.317
 1639POPC   C1A22791  44.674   2.722   8.776
 1639POPC   D2A22792  44.782   2.581   8.343
 1639POPC   C3A22793  44.655   2.670   7.926
 1639POPC   C4A22794  44.900   2.514   7.558
 1639POPC   C1B22795  44.479   3.177   8.868
 1639POPC   C2B22796  44.692   3.117   8.455
 1639POPC   C3B22797  44.680   3.214   8.017
 1639POPC   C4B22798  44.408   3.145   7.685
 1640POPC   NC322799  33.539  10.880   9.516
 1640POPC   PO422800  32.850  10.689   9.490
 1640POPC   GL122801  33.141  10.505   9.246
 1640POPC   GL222802  33.380  10.710   9.070
 1640POPC   C1A22803  32.998  10.394   8.864
 1640POPC   D2A22804  32.816  10.569   8.499
 1640POPC   C3A22805  32.947  10.479   8.097
 1640POPC   C4A22806  32.876  10.546   7.649
 1640POPC   C1B22807  33.167  10.856   8.722
 1640POPC   C2B22808  33.276  10.807   8.296
 1640POPC   C3B22809  33.299  10.750   7.844
 1640POPC   C4B22810  33.288  10.787   7.391
 1641POPC   NC322811   8.818  43.374   9.342
 1641POPC   PO422812   8.992  43.983   9.534
 1641POPC   GL122813   9.073  44.161   9.139
 1641POPC   GL222814   8.777  44.360   9.219
 1641POPC   C1A22815   9.214  44.065   8.707
 1641POPC   D2A22816   9.230  43.711   8.432
 1641POPC   C3A22817   9.020  43.737   8.042
 1641POPC   C4A22818   9.234  43.752   7.619
 1641POPC   C1B22819   8.656  44.155   8.852
 1641POPC   C2B22820   8.699  43.865   8.510
 1641POPC   C3B22821   8.543  43.983   8.096
 1641POPC   C4B22822   8.651  44.197   7.711
 1642POPC   NC322823  20.555  15.838   9.999
 1642POPC   PO422824  20.875  16.313   9.593
 1642POPC   GL122825  20.799  15.994   9.217
 1642POPC   GL222826  20.445  15.875   9.166
 1642POPC   C1A22827  20.712  15.900   8.739
 1642POPC   D2A22828  20.357  15.798   8.458
 1642POPC   C3A22829  20.619  15.747   8.111
 1642POPC   C4A22830  20.732  16.119   7.887
 1642POPC   C1B22831  20.383  16.246   8.834
 1642POPC   C2B22832  20.532  16.282   8.399
 1642POPC   C3B22833  20.281  16.323   8.014
 1642POPC   C4B22834  20.361  16.258   7.557
 1643POPC   NC322835  42.691  44.270   9.492
 1643POPC   PO422836  42.300  43.774   9.778
 1643POPC   GL122837  42.438  43.836   9.328
 1643POPC   GL222838  42.132  43.930   9.149
 1643POPC   C1A22839  42.566  43.796   8.871
 1643POPC   D2A22840  42.689  43.776   8.398
 1643POPC   C3A22841  42.572  43.679   7.955
 1643POPC   C4A22842  42.483  43.800   7.522
 1643POPC   C1B22843  42.099  43.806   8.708
 1643POPC   C2B22844  42.167  43.870   8.276
 1643POPC   C3B22845  42.073  43.848   7.832
 1643POPC   C4B22846  41.988  43.873   7.371
 1644POPC   NC322847  20.973   2.863   9.471
 1644POPC   PO422848  20.392   3.133   9.397
 1644POPC   GL122849  20.494   2.801   9.099
 1644POPC   GL222850  20.725   2.486   9.155
 1644POPC   C1A22851  20.369   2.810   8.679
 1644POPC   D2A22852  20.462   3.030   8.320
 1644POPC   C3A22853  20.467   2.817   7.972
 1644POPC   C4A22854  20.706   2.724   7.657
 1644POPC   C1B22855  20.523   2.328   8.772
 1644POPC   C2B22856  20.581   2.449   8.344
 1644POPC   C3B22857  20.583   2.303   7.941
 1644POPC   C4B22858  20.327   2.353   7.560
 1645POPC   NC322859  35.718  29.125   9.476
 1645POPC   PO422860  35.057  29.367   9.548
 1645POPC   GL122861  35.036  29.330   9.136
 1645POPC   GL222862  35.333  29.105   9.103
 1645POPC   C1A22863  35.132  29.508   8.751
 1645POPC   D2A22864  35.085  29.264   8.385
 1645POPC   C3A22865  35.137  29.399   7.965
 1645POPC   C4A22866  34.913  29.065   7.755
 1645POPC   C1B22867  35.445  28.853   8.734
 1645POPC   C2B22868  35.509  28.955   8.304
 1645POPC   C3B22869  35.601  29.161   7.916
 1645POPC   C4B22870  35.459  28.935   7.565
 1646POPC   NC322871  43.364  31.451   9.420
 1646POPC   PO422872  42.733  31.665   9.504
 1646POPC   GL122873  42.864  31.320   9.271
 1646POPC   GL222874  43.010  31.584   9.069
 1646POPC   C1A22875  43.059  31.125   8.904
 1646POPC   D2A22876  43.095  31.439   8.567
 1646POPC   C3A22877  43.060  31.282   8.150
 1646POPC   C4A22878  43.305  31.448   7.789
 1646POPC   C1B22879  42.821  31.850   8.803
 1646POPC   C2B22880  42.943  31.924   8.404
 1646POPC   C3B22881  42.901  31.754   8.005
 1646POPC   C4B22882  42.692  31.824   7.611
 1647POPC   NC322883  23.571  27.811   9.571
 1647POPC   PO422884  24.083  27.270   9.670
 1647POPC   GL122885  23.894  27.436   9.266
 1647POPC   GL222886  23.531  27.351   9.158
 1647POPC   C1A22887  23.847  27.605   8.841
 1647POPC   D2A22888  23.697  27.810   8.477
 1647POPC   C3A22889  23.745  27.601   8.089
 1647POPC   C4A22890  23.932  27.755   7.706
 1647POPC   C1B22891  23.262  27.400   8.772
 1647POPC   C2B22892  23.244  27.523   8.317
 1647POPC   C3B22893  23.314  27.380   7.899
 1647POPC   C4B22894  23.658  27.307   7.624
 1648POPC   NC322895  29.972   5.014   9.509
 1648POPC   PO422896  30.362   5.612   9.474
 1648POPC   GL122897  30.111   5.383   9.138
 1648POPC   GL222898  29.739   5.407   9.110
 1648POPC   C1A22899  29.978   5.052   8.831
 1648POPC   D2A22900  29.932   4.762   8.491
 1648POPC   C3A22901  29.664   4.847   8.138
 1648POPC   C4A22902  29.972   5.007   7.881
 1648POPC   C1B22903  29.778   5.539   8.712
 1648POPC   C2B22904  29.843   5.282   8.387
 1648POPC   C3B22905  29.694   5.382   8.049
 1648POPC   C4B22906  29.514   5.261   7.719
 1649POPC   NC322907   5.983  44.913   9.699
 1649POPC   PO422908   5.829  44.360   9.762
 1649POPC   GL122909   5.935  44.568   9.311
 1649POPC   GL222910   6.123  44.917   9.204
 1649POPC   C1A22911   5.822  44.591   8.846
 1649POPC   D2A22912   5.920  44.589   8.384
 1649POPC   C3A22913   5.590  44.624   8.032
 1649POPC   C4A22914   5.425  44.756   7.598
 1649POPC   C1B22915   6.275  44.798   8.786
 1649POPC   C2B22916   6.329  44.904   8.356
 1649POPC   C3B22917   6.208  44.724   7.984
 1649POPC   C4B22918   5.928  44.667   7.659
 1650POPC   NC322919   1.432  18.015   9.401
 1650POPC   PO422920   1.715  18.643   9.488
 1650POPC   GL122921   1.458  18.473   9.126
 1650POPC   GL222922   1.111  18.370   9.193
 1650POPC   C1A22923   1.327  18.231   8.765
 1650POPC   D2A22924   1.259  17.914   8.493
 1650POPC   C3A22925   1.212  18.033   8.075
 1650POPC   C4A22926   1.361  18.285   7.732
 1650POPC   C1B22927   0.910  18.500   8.811
 1650POPC   C2B22928   0.869  18.273   8.445
 1650POPC   C3B22929   0.925  18.449   8.040
 1650POPC   C4B22930   0.850  18.168   7.711
 1651POPC   NC322931  18.622  14.884   9.447
 1651POPC   PO422932  17.917  14.952   9.447
 1651POPC   GL122933  18.156  14.808   9.106
 1651POPC   GL222934  18.391  15.071   9.043
 1651POPC   C1A22935  18.217  14.747   8.670
 1651POPC   D2A22936  18.412  15.052   8.392
 1651POPC   C3A22937  18.390  14.963   7.960
 1651POPC   C4A22938  18.077  14.865   7.662
 1651POPC   C1B22939  18.080  15.246   8.761
 1651POPC   C2B22940  18.156  15.513   8.420
 1651POPC   C3B22941  18.394  15.488   8.037
 1651POPC   C4B22942  18.203  15.366   7.672
 1652POPC   NC322943   5.762  35.943   9.460
 1652POPC   PO422944   6.299  36.321   9.325
 1652POPC   GL122945   6.025  36.125   9.068
 1652POPC   GL222946   6.073  35.794   9.025
 1652POPC   C1A22947   5.749  36.195   8.735
 1652POPC   D2A22948   5.859  36.135   8.326
 1652POPC   C3A22949   5.709  36.330   7.961
 1652POPC   C4A22950   5.916  36.435   7.576
 1652POPC   C1B22951   5.652  35.685   8.839
 1652POPC   C2B22952   5.511  35.712   8.397
 1652POPC   C3B22953   5.692  35.786   8.004
 1652POPC   C4B22954   5.940  35.935   7.701
 1653POPC   NC322955  33.825   6.414   9.516
 1653POPC   PO422956  33.568   7.037   9.410
 1653POPC   GL122957  33.583   6.696   9.112
 1653POPC   GL222958  33.944   6.620   9.056
 1653POPC   C1A22959  33.656   6.745   8.652
 1653POPC   D2A22960  33.909   6.736   8.315
 1653POPC   C3A22961  33.691   6.853   7.964
 1653POPC   C4A22962  33.939   6.695   7.646
 1653POPC   C1B22963  33.796   6.298   8.812
 1653POPC   C2B22964  33.910   6.222   8.423
 1653POPC   C3B22965  33.738   6.337   8.027
 1653POPC   C4B22966  33.470   6.446   7.714
 1654POPC   NC322967  43.507  13.703   9.360
 1654POPC   PO422968  44.174  13.670   9.431
 1654POPC   GL122969  43.941  13.679   9.089
 1654POPC   GL222970  44.110  13.398   8.965
 1654POPC   C1A22971  43.643  13.533   8.753
 1654POPC   D2A22972  43.452  13.372   8.356
 1654POPC   C3A22973  43.685  13.490   7.969
 1654POPC   C4A22974  43.721  13.663   7.562
 1654POPC   C1B22975  44.116  13.741   8.635
 1654POPC   C2B22976  44.032  13.462   8.331
 1654POPC   C3B22977  44.206  13.396   7.934
 1654POPC   C4B22978  44.190  13.439   7.497
 1655POPC   NC322979   7.493  10.148   9.450
 1655POPC   PO422980   7.817   9.543   9.423
 1655POPC   GL122981   7.556   9.621   9.062
 1655POPC   GL222982   7.306   9.862   9.082
 1655POPC   C1A22983   7.494   9.735   8.632
 1655POPC   D2A22984   7.642   9.932   8.299
 1655POPC   C3A22985   7.378   9.805   7.957
 1655POPC   C4A22986   7.368   9.738   7.510
 1655POPC   C1B22987   7.044   9.948   8.727
 1655POPC   C2B22988   7.137  10.080   8.333
 1655POPC   C3B22989   6.944  10.054   7.927
 1655POPC   C4B22990   6.974  10.062   7.453
 1656POPC   NC322991  38.547  27.100   9.757
 1656POPC   PO422992  38.424  26.486   9.594
 1656POPC   GL122993  38.390  26.681   9.217
 1656POPC   GL222994  38.149  26.370   9.140
 1656POPC   C1A22995  38.587  26.848   8.834
 1656POPC   D2A22996  38.778  26.970   8.439
 1656POPC   C3A22997  38.578  26.851   8.094
 1656POPC   C4A22998  38.703  26.722   7.731
 1656POPC   C1B22999  38.090  26.678   8.827
 1656POPC   C2B23000  38.205  26.853   8.457
 1656POPC   C3B23001  38.101  26.693   8.063
 1656POPC   C4B23002  38.192  26.681   7.673
 1657POPC   NC323003  25.718  37.309   9.491
 1657POPC   PO423004  26.129  37.864   9.663
 1657POPC   GL123005  26.018  37.779   9.224
 1657POPC   GL223006  25.939  37.472   9.030
 1657POPC   C1A23007  25.865  38.003   8.843
 1657POPC   D2A23008  25.945  37.848   8.416
 1657POPC   C3A23009  25.792  37.944   7.985
 1657POPC   C4A23010  25.976  37.593   7.701
 1657POPC   C1B23011  26.296  37.558   8.767
 1657POPC   C2B23012  26.510  37.537   8.371
 1657POPC   C3B23013  26.409  37.436   7.959
 1657POPC   C4B23014  26.457  37.550   7.524
 1658POPC   NC323015  12.073  13.465   9.590
 1658POPC   PO423016  12.703  13.568   9.401
 1658POPC   GL123017  12.296  13.556   9.130
 1658POPC   GL223018  11.913  13.552   9.115
 1658POPC   C1A23019  12.157  13.298   8.737
 1658POPC   D2A23020  12.179  13.091   8.318
 1658POPC   C3A23021  12.040  13.395   7.981
 1658POPC   C4A23022  12.178  13.800   7.841
 1658POPC   C1B23023  12.009  13.782   8.730
 1658POPC   C2B23024  11.823  13.764   8.310
 1658POPC   C3B23025  11.722  14.017   7.930
 1658POPC   C4B23026  11.645  13.838   7.505
 1659POPC   NC323027  17.428  28.790   9.568
 1659POPC   PO423028  17.465  29.506   9.555
 1659POPC   GL123029  17.327  29.394   9.170
 1659POPC   GL223030  17.663  29.240   9.046
 1659POPC   C1A23031  17.303  29.440   8.712
 1659POPC   D2A23032  17.497  29.458   8.312
 1659POPC   C3A23033  17.227  29.522   7.972
 1659POPC   C4A23034  17.467  29.325   7.709
 1659POPC   C1B23035  17.312  28.973   8.914
 1659POPC   C2B23036  17.139  28.892   8.522
 1659POPC   C3B23037  17.239  29.018   8.110
 1659POPC   C4B23038  17.301  28.835   7.726
 1660POPC   NC323039  38.815  34.664   9.488
 1660POPC   PO423040  38.392  34.296   9.769
 1660POPC   GL123041  38.394  34.345   9.285
 1660POPC   GL223042  38.420  34.695   9.156
 1660POPC   C1A23043  38.591  34.321   8.851
 1660POPC   D2A23044  38.532  34.536   8.471
 1660POPC   C3A23045  38.374  34.386   8.081
 1660POPC   C4A23046  38.412  34.537   7.697
 1660POPC   C1B23047  38.238  34.840   8.753
 1660POPC   C2B23048  38.332  34.991   8.335
 1660POPC   C3B23049  38.551  34.930   7.976
 1660POPC   C4B23050  38.733  34.921   7.546
 1661POPC   NC323051  23.201   3.864   9.473
 1661POPC   PO423052  22.814   3.311   9.595
 1661POPC   GL123053  22.862   3.555   9.200
 1661POPC   GL223054  23.062   3.320   9.038
 1661POPC   C1A23055  22.814   3.768   8.772
 1661POPC   D2A23056  22.910   4.000   8.383
 1661POPC   C3A23057  22.808   3.795   7.990
 1661POPC   C4A23058  22.452   3.886   7.715
 1661POPC   C1B23059  23.287   3.536   8.720
 1661POPC   C2B23060  23.070   3.524   8.350
 1661POPC   C3B23061  22.927   3.295   8.019
 1661POPC   C4B23062  23.246   3.287   7.762
 1662POPC   NC323063  44.711  23.535   9.510
 1662POPC   PO423064  44.520  22.873   9.546
 1662POPC   GL123065  44.515  23.014   9.160
 1662POPC   GL223066  44.185  23.180   9.214
 1662POPC   C1A23067  44.660  22.944   8.712
 1662POPC   D2A23068  44.515  22.673   8.349
 1662POPC   C3A23069  44.748  22.703   7.927
 1662POPC   C4A23070   0.122  22.893   7.737
 1662POPC   C1B23071  44.171  23.019   8.797
 1662POPC   C2B23072  44.289  23.148   8.389
 1662POPC   C3B23073  44.341  23.007   7.979
 1662POPC   C4B23074  44.170  23.115   7.619
 1663POPC   NC323075  25.751   9.481   9.564
 1663POPC   PO423076  26.264   9.891   9.460
 1663POPC   GL123077  26.194   9.706   9.103
 1663POPC   GL223078  25.838   9.769   9.136
 1663POPC   C1A23079  26.157   9.837   8.692
 1663POPC   D2A23080  26.141   9.560   8.360
 1663POPC   C3A23081  26.258   9.775   8.000
 1663POPC   C4A23082  26.241  10.066   7.669
 1663POPC   C1B23083  25.770   9.510   8.774
 1663POPC   C2B23084  25.571   9.500   8.366
 1663POPC   C3B23085  25.794   9.462   8.001
 1663POPC   C4B23086  25.939   9.612   7.640
 1664POPC   NC323087  10.033  32.394   9.393
 1664POPC   PO423088   9.434  32.070   9.483
 1664POPC   GL123089   9.687  31.974   9.141
 1664POPC   GL223090  10.041  32.005   9.068
 1664POPC   C1A23091   9.650  32.126   8.742
 1664POPC   D2A23092   9.618  32.323   8.367
 1664POPC   C3A23093   9.586  32.061   8.046
 1664POPC   C4A23094   9.530  31.914   7.667
 1664POPC   C1B23095  10.169  32.276   8.726
 1664POPC   C2B23096  10.099  32.474   8.334
 1664POPC   C3B23097  10.003  32.323   7.909
 1664POPC   C4B23098  10.163  32.240   7.493
 1665POPC   NC323099   0.456   8.929   9.632
 1665POPC   PO423100   0.250   8.274   9.493
 1665POPC   GL123101   0.461   8.068   9.189
 1665POPC   GL223102   0.243   7.828   9.081
 1665POPC   C1A23103   0.501   8.115   8.750
 1665POPC   D2A23104   0.268   8.389   8.508
 1665POPC   C3A23105   0.367   8.341   8.078
 1665POPC   C4A23106   0.308   8.124   7.692
 1665POPC   C1B23107   0.038   7.810   8.711
 1665POPC   C2B23108   0.182   7.930   8.340
 1665POPC   C3B23109   0.412   7.776   8.046
 1665POPC   C4B23110   0.277   7.598   7.674
 1666POPC   NC323111  17.544  13.965   9.359
 1666POPC   PO423112  17.512  13.347   9.343
 1666POPC   GL123113  17.477  13.352   8.966
 1666POPC   GL223114  17.753  13.643   8.957
 1666POPC   C1A23115  17.611  13.325   8.572
 1666POPC   D2A23116  17.652  13.629   8.270
 1666POPC   C3A23117  17.674  13.346   7.916
 1666POPC   C4A23118  17.330  13.147   7.650
 1666POPC   C1B23119  17.380  13.783   8.708
 1666POPC   C2B23120  17.140  13.836   8.308
 1666POPC   C3B23121  17.389  13.877   7.903
 1666POPC   C4B23122  17.857  13.880   7.863
 1667POPC   NC323123  42.240  13.045   9.426
 1667POPC   PO423124  42.718  12.599   9.351
 1667POPC   GL123125  42.566  12.885   9.072
 1667POPC   GL223126  42.232  12.798   8.983
 1667POPC   C1A23127  42.542  13.030   8.670
 1667POPC   D2A23128  42.205  12.883   8.381
 1667POPC   C3A23129  42.067  13.164   8.040
 1667POPC   C4A23130  42.122  12.973   7.652
 1667POPC   C1B23131  42.505  12.521   8.706
 1667POPC   C2B23132  42.676  12.620   8.313
 1667POPC   C3B23133  42.527  12.860   7.944
 1667POPC   C4B23134  42.517  12.726   7.492
 1668POPC   NC323135   2.113  30.825   9.615
 1668POPC   PO423136   1.749  30.295   9.449
 1668POPC   GL123137   1.880  30.621   9.192
 1668POPC   GL223138   2.225  30.575   9.175
 1668POPC   C1A23139   1.913  30.987   8.917
 1668POPC   D2A23140   1.988  30.970   8.476
 1668POPC   C3A23141   1.905  30.797   8.046
 1668POPC   C4A23142   1.730  30.943   7.658
 1668POPC   C1B23143   2.335  30.727   8.783
 1668POPC   C2B23144   2.282  30.568   8.371
 1668POPC   C3B23145   2.217  30.397   7.961
 1668POPC   C4B23146   2.157  30.568   7.565
 1669POPC   NC323147  16.050  23.089   9.725
 1669POPC   PO423148  15.651  22.715   9.410
 1669POPC   GL123149  16.066  22.824   9.266
 1669POPC   GL223150  15.902  23.114   9.143
 1669POPC   C1A23151  16.167  22.824   8.828
 1669POPC   D2A23152  15.852  22.843   8.480
 1669POPC   C3A23153  16.003  22.777   8.065
 1669POPC   C4A23154  15.935  22.883   7.668
 1669POPC   C1B23155  15.615  23.204   8.789
 1669POPC   C2B23156  15.691  23.335   8.366
 1669POPC   C3B23157  15.613  23.126   8.009
 1669POPC   C4B23158  15.665  23.317   7.637
 1670POPC   NC323159  14.376  33.957   9.419
 1670POPC   PO423160  14.674  33.323   9.536
 1670POPC   GL123161  14.483  33.508   9.220
 1670POPC   GL223162  14.750  33.742   9.096
 1670POPC   C1A23163  14.308  33.619   8.820
 1670POPC   D2A23164  14.193  33.848   8.435
 1670POPC   C3A23165  14.301  34.086   8.099
 1670POPC   C4A23166  14.359  33.919   7.707
 1670POPC   C1B23167  14.595  34.050   8.769
 1670POPC   C2B23168  14.740  34.026   8.359
 1670POPC   C3B23169  14.739  33.781   8.023
 1670POPC   C4B23170  14.735  33.565   7.650
 1671POPC   NC323171  12.977  16.597   9.468
 1671POPC   PO423172  12.280  16.357   9.574
 1671POPC   GL123173  12.422  16.545   9.048
 1671POPC   GL223174  12.669  16.809   9.050
 1671POPC   C1A23175  12.570  16.569   8.626
 1671POPC   D2A23176  12.621  16.865   8.350
 1671POPC   C3A23177  12.634  16.633   8.036
 1671POPC   C4A23178  12.955  16.526   7.776
 1671POPC   C1B23179  12.994  16.835   8.711
 1671POPC   C2B23180  13.107  16.756   8.252
 1671POPC   C3B23181  13.237  16.936   7.859
 1671POPC   C4B23182  13.346  16.740   7.472
 1672POPC   NC323183  21.438  28.529   9.538
 1672POPC   PO423184  21.204  27.931   9.461
 1672POPC   GL123185  21.297  28.270   9.129
 1672POPC   GL223186  21.475  28.619   9.048
 1672POPC   C1A23187  21.478  28.214   8.723
 1672POPC   D2A23188  21.403  27.871   8.439
 1672POPC   C3A23189  21.397  28.032   8.028
 1672POPC   C4A23190  21.537  28.240   7.622
 1672POPC   C1B23191  21.104  28.588   8.781
 1672POPC   C2B23192  21.123  28.370   8.377
 1672POPC   C3B23193  21.249  28.513   7.966
 1672POPC   C4B23194  21.206  28.626   7.513
 1673POPC   NC323195  29.258  24.814   9.314
 1673POPC   PO423196  28.970  25.463   9.318
 1673POPC   GL123197  29.319  25.344   9.094
 1673POPC   GL223198  29.363  25.681   9.001
 1673POPC   C1A23199  29.394  25.085   8.702
 1673POPC   D2A23200  29.277  24.774   8.350
 1673POPC   C3A23201  28.995  24.992   8.053
 1673POPC   C4A23202  29.142  25.127   7.672
 1673POPC   C1B23203  29.063  25.535   8.658
 1673POPC   C2B23204  29.155  25.466   8.199
 1673POPC   C3B23205  29.219  25.617   7.763
 1673POPC   C4B23206  29.333  25.449   7.319
 1674POPC   NC323207  13.124  24.552   9.737
 1674POPC   PO423208  13.716  24.488   9.404
 1674POPC   GL123209  13.700  24.625   8.989
 1674POPC   GL223210  13.464  24.402   8.824
 1674POPC   C1A23211  13.782  24.658   8.549
 1674POPC   D2A23212  13.725  24.324   8.312
 1674POPC   C3A23213  13.543  24.413   7.955
 1674POPC   C4A23214  13.479  24.719   7.664
 1674POPC   C1B23215  13.224  24.052   8.728
 1674POPC   C2B23216  13.235  24.090   8.317
 1674POPC   C3B23217  13.174  24.010   7.924
 1674POPC   C4B23218  13.146  24.320   7.634
 1675POPC   NC323219  15.504  20.623   9.521
 1675POPC   PO423220  14.872  20.832   9.463
 1675POPC   GL123221  15.119  20.589   9.116
 1675POPC   GL223222  15.445  20.389   9.076
 1675POPC   C1A23223  15.050  20.384   8.717
 1675POPC   D2A23224  14.738  20.402   8.378
 1675POPC   C3A23225  14.880  20.399   7.962
 1675POPC   C4A23226  15.073  20.713   7.708
 1675POPC   C1B23227  15.497  20.676   8.726
 1675POPC   C2B23228  15.342  20.695   8.298
 1675POPC   C3B23229  15.401  20.432   7.953
 1675POPC   C4B23230  15.580  20.507   7.564
 1676POPC   NC323231  29.658  21.883   9.439
 1676POPC   PO423232  30.230  22.224   9.557
 1676POPC   GL123233  29.986  22.212   9.191
 1676POPC   GL223234  30.149  22.492   9.073
 1676POPC   C1A23235  29.675  22.139   8.841
 1676POPC   D2A23236  29.775  22.046   8.433
 1676POPC   C3A23237  29.575  22.144   8.061
 1676POPC   C4A23238  29.781  22.029   7.738
 1676POPC   C1B23239  30.079  22.405   8.673
 1676POPC   C2B23240  30.211  22.418   8.264
 1676POPC   C3B23241  30.140  22.394   7.827
 1676POPC   C4B23242  30.143  22.400   7.351
 1677POPC   NC323243  39.594   0.652   9.508
 1677POPC   PO423244  38.849   0.528   9.449
 1677POPC   GL123245  38.916   0.285   9.102
 1677POPC   GL223246  39.276   0.253   9.103
 1677POPC   C1A23247  39.013   0.418   8.673
 1677POPC   D2A23248  39.061   0.217   8.302
 1677POPC   C3A23249  39.171   0.386   7.920
 1677POPC   C4A23250  39.085   0.466   7.493
 1677POPC   C1B23251  39.514   0.308   8.714
 1677POPC   C2B23252  39.502   0.494   8.313
 1677POPC   C3B23253  39.545   0.719   7.947
 1677POPC   C4B23254  39.586   0.431   7.597
 1678POPC   NC323255  16.251  11.268   9.332
 1678POPC   PO423256  16.921  11.009   9.537
 1678POPC   GL123257  16.746  11.166   9.155
 1678POPC   GL223258  16.760  11.511   9.160
 1678POPC   C1A23259  16.874  11.230   8.713
 1678POPC   D2A23260  16.807  11.011   8.326
 1678POPC   C3A23261  16.908  11.201   7.924
 1678POPC   C4A23262  16.789  11.096   7.447
 1678POPC   C1B23263  16.556  11.628   8.754
 1678POPC   C2B23264  16.588  11.477   8.326
 1678POPC   C3B23265  16.415  11.231   8.020
 1678POPC   C4B23266  16.478  11.498   7.678
 1679POPC   NC323267  14.437  43.707   9.598
 1679POPC   PO423268  14.622  44.309   9.806
 1679POPC   GL123269  14.538  44.081   9.307
 1679POPC   GL223270  14.292  43.800   9.130
 1679POPC   C1A23271  14.604  44.093   8.846
 1679POPC   D2A23272  14.685  43.836   8.484
 1679POPC   C3A23273  14.424  43.724   8.171
 1679POPC   C4A23274  14.534  43.804   7.767
 1679POPC   C1B23275  14.070  44.003   8.809
 1679POPC   C2B23276  14.237  44.125   8.422
 1679POPC   C3B23277  14.114  44.151   8.017
 1679POPC   C4B23278  14.182  44.114   7.597
 1680POPC   NC323279  19.188   5.969   9.574
 1680POPC   PO423280  18.608   5.495   9.345
 1680POPC   GL123281  18.988   5.700   9.163
 1680POPC   GL223282  19.067   6.071   9.100
 1680POPC   C1A23283  19.324   5.690   8.843
 1680POPC   D2A23284  19.427   5.888   8.488
 1680POPC   C3A23285  19.227   5.674   8.172
 1680POPC   C4A23286  19.207   5.710   7.750
 1680POPC   C1B23287  19.209   6.311   8.756
 1680POPC   C2B23288  19.329   6.408   8.350
 1680POPC   C3B23289  19.385   6.213   7.942
 1680POPC   C4B23290  19.074   6.175   7.624
 1681POPC   NC323291  20.603  44.798   9.749
 1681POPC   PO423292  20.940   0.054   9.250
 1681POPC   GL123293  20.786  44.635   9.155
 1681POPC   GL223294  21.001  44.325   9.204
 1681POPC   C1A23295  20.845  44.644   8.722
 1681POPC   D2A23296  20.929  44.695   8.310
 1681POPC   C3A23297  20.568  44.726   8.061
 1681POPC   C4A23298  20.507  44.727   7.662
 1681POPC   C1B23299  20.836  44.136   8.816
 1681POPC   C2B23300  20.645  44.278   8.443
 1681POPC   C3B23301  20.746  44.241   8.053
 1681POPC   C4B23302  20.782  44.303   7.637
 1682POPC   NC323303  40.704  37.996   9.397
 1682POPC   PO423304  40.974  38.556   9.546
 1682POPC   GL123305  40.684  38.524   9.185
 1682POPC   GL223306  40.696  38.892   9.103
 1682POPC   C1A23307  40.601  38.243   8.780
 1682POPC   D2A23308  40.725  38.019   8.382
 1682POPC   C3A23309  40.563  38.195   7.976
 1682POPC   C4A23310  40.633  38.316   7.542
 1682POPC   C1B23311  40.514  38.755   8.734
 1682POPC   C2B23312  40.613  38.557   8.347
 1682POPC   C3B23313  40.655  38.722   7.928
 1682POPC   C4B23314  40.418  39.082   7.760
 1683POPC   NC323315  34.523  33.472   9.401
 1683POPC   PO423316  34.218  33.989   9.741
 1683POPC   GL123317  34.354  34.143   9.224
 1683POPC   GL223318  34.565  33.885   9.084
 1683POPC   C1A23319  34.241  34.217   8.777
 1683POPC   D2A23320  34.342  34.150   8.302
 1683POPC   C3A23321  34.345  33.780   8.030
 1683POPC   C4A23322  34.567  33.648   7.654
 1683POPC   C1B23323  34.789  33.653   8.753
 1683POPC   C2B23324  34.735  33.489   8.361
 1683POPC   C3B23325  34.944  33.623   8.002
 1683POPC   C4B23326  35.124  33.499   7.654
 1684POPC   NC323327  13.779  21.014   9.222
 1684POPC   PO423328  13.842  21.672   9.470
 1684POPC   GL123329  13.614  21.488   9.066
 1684POPC   GL223330  13.834  21.282   8.807
 1684POPC   C1A23331  13.523  21.606   8.608
 1684POPC   D2A23332  13.715  21.341   8.244
 1684POPC   C3A23333  13.907  21.537   7.878
 1684POPC   C4A23334  13.657  21.577   7.483
 1684POPC   C1B23335  13.441  21.077   8.670
 1684POPC   C2B23336  13.362  20.845   8.317
 1684POPC   C3B23337  13.550  20.773   7.927
 1684POPC   C4B23338  13.637  21.128   7.707
 1685POPC   NC323339  19.628  12.889   9.399
 1685POPC   PO423340  20.160  13.222   9.592
 1685POPC   GL123341  20.099  12.993   9.166
 1685POPC   GL223342  19.941  13.198   8.930
 1685POPC   C1A23343  19.865  12.728   8.798
 1685POPC   D2A23344  19.652  12.728   8.374
 1685POPC   C3A23345  19.862  12.697   7.949
 1685POPC   C4A23346  19.958  12.914   7.536
 1685POPC   C1B23347  19.606  13.254   8.692
 1685POPC   C2B23348  19.453  13.222   8.346
 1685POPC   C3B23349  19.557  13.100   7.986
 1685POPC   C4B23350  19.475  13.151   7.612
 1686POPC   NC323351   6.141  17.178   9.463
 1686POPC   PO423352   5.623  17.599   9.439
 1686POPC   GL123353   5.855  17.756   9.096
 1686POPC   GL223354   6.196  17.672   9.227
 1686POPC   C1A23355   5.841  17.532   8.682
 1686POPC   D2A23356   5.634  17.340   8.285
 1686POPC   C3A23357   5.659  17.430   7.833
 1686POPC   C4A23358   5.630  17.239   7.380
 1686POPC   C1B23359   6.346  17.607   8.816
 1686POPC   C2B23360   6.243  17.688   8.418
 1686POPC   C3B23361   6.109  17.452   8.094
 1686POPC   C4B23362   6.243  17.511   7.703
 1687POPC   NC323363  37.105  19.438   9.417
 1687POPC   PO423364  37.232  19.953   9.799
 1687POPC   GL123365  36.838  20.059   9.324
 1687POPC   GL223366  36.802  19.730   9.111
 1687POPC   C1A23367  36.585  20.164   8.922
 1687POPC   D2A23368  36.604  20.204   8.448
 1687POPC   C3A23369  36.555  19.938   8.089
 1687POPC   C4A23370  36.691  19.766   7.720
 1687POPC   C1B23371  36.990  19.907   8.697
 1687POPC   C2B23372  37.032  19.984   8.233
 1687POPC   C3B23373  37.192  19.826   7.810
 1687POPC   C4B23374  37.226  19.486   7.511
 1688POPC   NC323375  29.891  11.376   9.523
 1688POPC   PO423376  30.116  10.853   9.205
 1688POPC   GL123377  29.908  11.200   9.037
 1688POPC   GL223378  30.042  11.563   9.074
 1688POPC   C1A23379  30.016  11.257   8.632
 1688POPC   D2A23380  29.762  11.347   8.313
 1688POPC   C3A23381  29.761  11.147   7.927
 1688POPC   C4A23382  30.118  11.137   7.673
 1688POPC   C1B23383  29.765  11.689   8.743
 1688POPC   C2B23384  29.781  11.855   8.305
 1688POPC   C3B23385  29.890  11.652   7.913
 1688POPC   C4B23386  29.840  11.546   7.495
 1689POPC   NC323387  29.598   7.330   9.464
 1689POPC   PO423388  30.294   7.522   9.420
 1689POPC   GL123389  29.912   7.574   9.135
 1689POPC   GL223390  29.559   7.744   9.173
 1689POPC   C1A23391  29.911   7.285   8.790
 1689POPC   D2A23392  30.122   7.314   8.402
 1689POPC   C3A23393  29.936   7.253   8.020
 1689POPC   C4A23394  30.157   7.046   7.758
 1689POPC   C1B23395  29.446   7.459   8.821
 1689POPC   C2B23396  29.553   7.359   8.396
 1689POPC   C3B23397  29.508   7.521   7.981
 1689POPC   C4B23398  29.756   7.648   7.626
 1690POPC   NC323399  29.236  42.518   9.711
 1690POPC   PO423400  28.818  42.058   9.594
 1690POPC   GL123401  29.100  42.258   9.271
 1690POPC   GL223402  29.340  42.093   9.048
 1690POPC   C1A23403  29.114  42.503   8.863
 1690POPC   D2A23404  29.189  42.554   8.376
 1690POPC   C3A23405  29.048  42.386   7.983
 1690POPC   C4A23406  28.953  42.642   7.618
 1690POPC   C1B23407  29.548  42.286   8.678
 1690POPC   C2B23408  29.693  42.566   8.373
 1690POPC   C3B23409  29.605  42.617   7.947
 1690POPC   C4B23410  29.416  42.387   7.617
 1691POPC   NC323411  34.166   8.891   9.434
 1691POPC   PO423412  33.719   9.454   9.479
 1691POPC   GL123413  33.831   9.149   9.166
 1691POPC   GL223414  33.538   9.061   9.060
 1691POPC   C1A23415  33.944   9.128   8.720
 1691POPC   D2A23416  33.930   9.321   8.288
 1691POPC   C3A23417  33.984   9.027   7.888
 1691POPC   C4A23418  33.920   9.065   7.422
 1691POPC   C1B23419  33.457   9.254   8.657
 1691POPC   C2B23420  33.518   8.993   8.329
 1691POPC   C3B23421  33.529   8.785   7.965
 1691POPC   C4B23422  33.467   8.963   7.600
 1692POPC   NC323423   4.904  20.495   9.448
 1692POPC   PO423424   5.495  20.394   9.606
 1692POPC   GL123425   5.323  20.385   9.158
 1692POPC   GL223426   5.293  20.625   8.952
 1692POPC   C1A23427   4.960  20.296   8.799
 1692POPC   D2A23428   5.076  20.177   8.345
 1692POPC   C3A23429   4.802  20.214   7.971
 1692POPC   C4A23430   4.727  20.553   7.723
 1692POPC   C1B23431   5.042  20.760   8.629
 1692POPC   C2B23432   4.908  20.644   8.232
 1692POPC   C3B23433   5.214  20.502   7.917
 1692POPC   C4B23434   5.262  20.647   7.503
 1693POPC   NC323435  29.186  30.692   9.602
 1693POPC   PO423436  28.751  30.269   9.489
 1693POPC   GL123437  28.971  30.591   9.150
 1693POPC   GL223438  29.204  30.924   9.145
 1693POPC   C1A23439  28.936  30.790   8.716
 1693POPC   D2A23440  29.070  30.832   8.275
 1693POPC   C3A23441  29.102  30.491   7.969
 1693POPC   C4A23442  29.024  30.634   7.546
 1693POPC   C1B23443  29.437  30.951   8.735
 1693POPC   C2B23444  29.574  30.864   8.276
 1693POPC   C3B23445  29.385  30.884   7.847
 1693POPC   C4B23446  29.512  30.650   7.470
 1694POPC   NC323447   9.975  21.764   9.577
 1694POPC   PO423448   9.603  22.317   9.721
 1694POPC   GL123449   9.905  22.276   9.357
 1694POPC   GL223450   9.817  21.996   9.147
 1694POPC   C1A23451  10.073  22.374   8.932
 1694POPC   D2A23452  10.112  22.367   8.454
 1694POPC   C3A23453   9.864  22.063   8.223
 1694POPC   C4A23454   9.831  21.855   7.820
 1694POPC   C1B23455   9.662  21.917   8.717
 1694POPC   C2B23456   9.388  22.123   8.392
 1694POPC   C3B23457   9.345  22.013   7.978
 1694POPC   C4B23458   9.377  21.718   7.683
 1695POPC   NC323459   8.799  31.468   9.591
 1695POPC   PO423460   9.419  31.156   9.479
 1695POPC   GL123461   9.109  31.453   9.197
 1695POPC   GL223462   8.729  31.305   9.132
 1695POPC   C1A23463   9.000  31.702   8.845
 1695POPC   D2A23464   9.101  31.440   8.525
 1695POPC   C3A23465   8.844  31.289   8.231
 1695POPC   C4A23466   8.903  31.240   7.783
 1695POPC   C1B23467   8.553  31.455   8.771
 1695POPC   C2B23468   8.601  31.742   8.442
 1695POPC   C3B23469   8.753  31.735   8.027
 1695POPC   C4B23470   8.563  31.608   7.670
 1696POPC   NC323471  31.236  33.160   9.477
 1696POPC   PO423472  31.431  32.542   9.410
 1696POPC   GL123473  31.597  32.739   9.038
 1696POPC   GL223474  31.613  33.108   9.087
 1696POPC   C1A23475  31.516  32.830   8.620
 1696POPC   D2A23476  31.729  32.887   8.245
 1696POPC   C3A23477  31.628  32.779   7.852
 1696POPC   C4A23478  31.258  32.860   7.663
 1696POPC   C1B23479  31.230  33.188   8.815
 1696POPC   C2B23480  31.204  33.256   8.367
 1696POPC   C3B23481  31.421  33.234   7.978
 1696POPC   C4B23482  31.592  33.422   7.594
 1697POPC   NC323483  20.195  40.086   9.534
 1697POPC   PO423484  19.840  39.572   9.552
 1697POPC   GL123485  19.974  39.739   9.162
 1697POPC   GL223486  19.893  40.071   9.125
 1697POPC   C1A23487  20.142  39.771   8.719
 1697POPC   D2A23488  20.128  39.609   8.282
 1697POPC   C3A23489  20.000  39.890   7.927
 1697POPC   C4A23490  19.754  40.230   7.749
 1697POPC   C1B23491  20.082  40.270   8.776
 1697POPC   C2B23492  20.025  40.169   8.338
 1697POPC   C3B23493  20.222  40.356   7.943
 1697POPC   C4B23494  20.285  40.299   7.472
 1698POPC   NC323495  39.376  19.479   9.734
 1698POPC   PO423496  38.991  20.014   9.724
 1698POPC   GL123497  39.193  19.804   9.371
 1698POPC   GL223498  38.968  19.861   9.112
 1698POPC   C1A23499  39.420  19.685   8.980
 1698POPC   D2A23500  39.486  19.714   8.548
 1698POPC   C3A23501  39.170  19.636   8.244
 1698POPC   C4A23502  39.294  19.672   7.806
 1698POPC   C1B23503  39.143  20.102   8.752
 1698POPC   C2B23504  38.994  20.139   8.314
 1698POPC   C3B23505  39.190  20.160   7.915
 1698POPC   C4B23506  39.048  20.210   7.499
 1699POPC   NC323507  10.350   8.556   9.242
 1699POPC   PO423508  10.861   8.860   9.549
 1699POPC   GL123509  10.905   8.922   9.168
 1699POPC   GL223510  10.864   8.582   9.101
 1699POPC   C1A23511  10.781   9.215   8.885
 1699POPC   D2A23512  10.582   9.375   8.526
 1699POPC   C3A23513  10.322   9.098   8.254
 1699POPC   C4A23514  10.463   9.051   7.829
 1699POPC   C1B23515  10.888   8.725   8.700
 1699POPC   C2B23516  10.663   8.705   8.321
 1699POPC   C3B23517  10.644   8.459   7.944
 1699POPC   C4B23518  10.768   8.725   7.585
 1700POPC   NC323519  18.612  35.601   9.471
 1700POPC   PO423520  18.089  35.222   9.535
 1700POPC   GL123521  18.412  35.199   9.207
 1700POPC   GL223522  18.394  35.509   9.023
 1700POPC   C1A23523  18.470  35.070   8.788
 1700POPC   D2A23524  18.326  35.254   8.405
 1700POPC   C3A23525  18.418  35.090   8.015
 1700POPC   C4A23526  18.354  35.178   7.551
 1700POPC   C1B23527  18.007  35.466   8.764
 1700POPC   C2B23528  17.848  35.467   8.315
 1700POPC   C3B23529  17.993  35.341   7.887
 1700POPC   C4B23530  17.925  35.427   7.427
 1701POPC   NC323531  11.363  39.702   9.617
 1701POPC   PO423532  10.971  40.248   9.497
 1701POPC   GL123533  11.251  40.009   9.172
 1701POPC   GL223534  11.475  39.678   9.137
 1701POPC   C1A23535  11.243  39.940   8.733
 1701POPC   D2A23536  10.959  39.810   8.411
 1701POPC   C3A23537  11.067  39.896   7.966
 1701POPC   C4A23538  11.058  40.069   7.537
 1701POPC   C1B23539  11.734  39.761   8.818
 1701POPC   C2B23540  11.824  39.904   8.431
 1701POPC   C3B23541  11.606  39.921   8.045
 1701POPC   C4B23542  11.486  39.812   7.627
 1702POPC   NC323543  23.143   5.375   9.329
 1702POPC   PO423544  22.755   4.881   9.486
 1702POPC   GL123545  22.873   4.910   9.096
 1702POPC   GL223546  22.724   5.233   9.031
 1702POPC   C1A23547  22.665   4.855   8.678
 1702POPC   D2A23548  22.565   4.931   8.223
 1702POPC   C3A23549  22.778   4.781   7.866
 1702POPC   C4A23550  23.044   4.976   7.550
 1702POPC   C1B23551  23.053   5.190   8.717
 1702POPC   C2B23552  23.075   5.011   8.328
 1702POPC   C3B23553  22.942   5.244   7.987
 1702POPC   C4B23554  23.188   5.486   7.731
 1703POPC   NC323555  13.779  11.839   9.492
 1703POPC   PO423556  13.128  11.734   9.479
 1703POPC   GL123557  13.456  11.834   9.107
 1703POPC   GL223558  13.836  11.877   8.993
 1703POPC   C1A23559  13.460  12.126   8.743
 1703POPC   D2A23560  13.250  12.251   8.362
 1703POPC   C3A23561  13.393  12.059   7.956
 1703POPC   C4A23562  13.430  12.220   7.523
 1703POPC   C1B23563  13.958  12.308   8.766
 1703POPC   C2B23564  13.889  12.539   8.361
 1703POPC   C3B23565  13.873  12.261   7.994
 1703POPC   C4B23566  13.919  11.783   7.992
 1704POPC   NC323567  42.704   3.260   9.271
 1704POPC   PO423568  42.909   3.732   9.667
 1704POPC   GL123569  43.026   3.629   9.183
 1704POPC   GL223570  43.214   3.925   9.141
 1704POPC   C1A23571  43.138   3.284   8.776
 1704POPC   D2A23572  42.928   3.284   8.351
 1704POPC   C3A23573  43.192   3.304   7.963
 1704POPC   C4A23574  43.596   3.276   7.740
 1704POPC   C1B23575  43.090   3.759   8.702
 1704POPC   C2B23576  43.308   3.644   8.361
 1704POPC   C3B23577  43.078   3.793   8.040
 1704POPC   C4B23578  42.970   3.723   7.642
 1705POPC   NC323579  35.036  26.580   9.325
 1705POPC   PO423580  34.620  26.950   9.767
 1705POPC   GL123581  34.639  26.925   9.307
 1705POPC   GL223582  34.527  26.637   9.196
 1705POPC   C1A23583  34.597  26.958   8.823
 1705POPC   D2A23584  34.775  27.021   8.415
 1705POPC   C3A23585  34.573  26.934   8.028
 1705POPC   C4A23586  34.747  27.219   7.751
 1705POPC   C1B23587  34.384  26.481   8.838
 1705POPC   C2B23588  34.413  26.592   8.430
 1705POPC   C3B23589  34.355  26.460   8.039
 1705POPC   C4B23590  34.359  26.545   7.610
 1706POPC   NC323591  42.505  32.064   9.456
 1706POPC   PO423592  42.188  32.655   9.369
 1706POPC   GL123593  42.256  32.342   9.113
 1706POPC   GL223594  42.604  32.420   9.105
 1706POPC   C1A23595  42.402  32.136   8.743
 1706POPC   D2A23596  42.574  32.284   8.382
 1706POPC   C3A23597  42.468  32.001   8.102
 1706POPC   C4A23598  42.239  32.117   7.775
 1706POPC   C1B23599  42.540  32.683   8.761
 1706POPC   C2B23600  42.372  32.770   8.357
 1706POPC   C3B23601  42.330  32.602   7.953
 1706POPC   C4B23602  42.373  32.733   7.537
 1707POPC   NC323603  41.901  33.030   9.376
 1707POPC   PO423604  41.413  32.649   9.532
 1707POPC   GL123605  41.507  32.779   9.114
 1707POPC   GL223606  41.554  33.163   9.034
 1707POPC   C1A23607  41.653  32.803   8.695
 1707POPC   D2A23608  41.860  32.802   8.308
 1707POPC   C3A23609  41.552  32.810   7.975
 1707POPC   C4A23610  41.439  33.070   7.661
 1707POPC   C1B23611  41.662  33.298   8.612
 1707POPC   C2B23612  41.616  33.257   8.177
 1707POPC   C3B23613  41.795  33.419   7.787
 1707POPC   C4B23614  41.870  33.236   7.369
 1708POPC   NC323615  42.943   8.109   9.628
 1708POPC   PO423616  42.260   8.208   9.745
 1708POPC   GL123617  42.417   8.231   9.293
 1708POPC   GL223618  42.594   7.921   9.295
 1708POPC   C1A23619  42.198   8.246   8.807
 1708POPC   D2A23620  42.064   8.215   8.354
 1708POPC   C3A23621  42.382   8.146   8.029
 1708POPC   C4A23622  42.482   8.338   7.677
 1708POPC   C1B23623  42.671   8.105   8.890
 1708POPC   C2B23624  42.645   8.142   8.469
 1708POPC   C3B23625  42.803   7.856   8.172
 1708POPC   C4B23626  42.766   7.908   7.727
 1709POPC   NC323627  43.105  40.413   9.356
 1709POPC   PO423628  42.894  39.790   9.580
 1709POPC   GL123629  43.183  39.959   9.174
 1709POPC   GL223630  43.435  39.732   9.079
 1709POPC   C1A23631  43.471  40.143   8.783
 1709POPC   D2A23632  43.664  40.094   8.323
 1709POPC   C3A23633  43.300  40.162   7.995
 1709POPC   C4A23634  42.923  40.324   7.741
 1709POPC   C1B23635  43.176  39.720   8.743
 1709POPC   C2B23636  43.245  39.824   8.381
 1709POPC   C3B23637  43.311  39.646   8.027
 1709POPC   C4B23638  43.029  39.759   7.724
 1710POPC   NC323639   0.747  28.795   9.508
 1710POPC   PO423640   0.237  29.249   9.708
 1710POPC   GL123641   0.412  29.121   9.254
 1710POPC   GL223642   0.440  28.852   9.065
 1710POPC   C1A23643   0.391  29.270   8.786
 1710POPC   D2A23644   0.163  29.445   8.457
 1710POPC   C3A23645   0.414  29.525   8.119
 1710POPC   C4A23646   0.442  29.327   7.712
 1710POPC   C1B23647   0.601  28.821   8.669
 1710POPC   C2B23648   0.382  28.966   8.321
 1710POPC   C3B23649   0.479  28.862   7.915
 1710POPC   C4B23650   0.252  28.874   7.552
 1711POPC   NC323651  25.031  26.421   9.568
 1711POPC   PO423652  25.585  25.974   9.386
 1711POPC   GL123653  25.275  25.964   9.118
 1711POPC   GL223654  25.243  26.328   9.117
 1711POPC   C1A23655  25.298  25.955   8.681
 1711POPC   D2A23656  25.276  25.706   8.308
 1711POPC   C3A23657  24.981  25.864   7.981
 1711POPC   C4A23658  25.002  25.776   7.531
 1711POPC   C1B23659  25.054  26.423   8.738
 1711POPC   C2B23660  25.200  26.318   8.310
 1711POPC   C3B23661  25.230  26.324   7.872
 1711POPC   C4B23662  24.952  26.281   7.523
 1712POPC   NC323663   9.401  42.719   9.441
 1712POPC   PO423664   9.962  43.065   9.601
 1712POPC   GL123665   9.880  42.940   9.183
 1712POPC   GL223666   9.589  43.134   9.182
 1712POPC   C1A23667  10.084  43.016   8.761
 1712POPC   D2A23668   9.862  42.931   8.379
 1712POPC   C3A23669   9.980  42.986   7.985
 1712POPC   C4A23670   9.914  43.334   7.731
 1712POPC   C1B23671   9.580  43.151   8.763
 1712POPC   C2B23672   9.362  42.974   8.415
 1712POPC   C3B23673   9.490  43.142   8.038
 1712POPC   C4B23674   9.373  43.273   7.674
 1713POPC   NC323675   0.443  31.070   9.365
 1713POPC   PO423676   0.128  30.523   9.494
 1713POPC   GL123677   0.418  30.541   9.133
 1713POPC   GL223678   0.598  30.800   8.957
 1713POPC   C1A23679   0.359  30.438   8.706
 1713POPC   D2A23680   0.605  30.623   8.384
 1713POPC   C3A23681   0.376  30.801   8.078
 1713POPC   C4A23682   0.229  30.664   7.712
 1713POPC   C1B23683   0.405  31.023   8.628
 1713POPC   C2B23684   0.685  31.155   8.270
 1713POPC   C3B23685   0.660  31.085   7.799
 1713POPC   C4B23686   0.397  31.028   7.381
 1714POPC   NC323687  43.474  11.528   9.579
 1714POPC   PO423688  44.109  11.193   9.476
 1714POPC   GL123689  43.877  11.212   9.140
 1714POPC   GL223690  43.868  11.531   9.164
 1714POPC   C1A23691  43.669  11.260   8.751
 1714POPC   D2A23692  43.756  11.151   8.319
 1714POPC   C3A23693  43.548  11.458   8.103
 1714POPC   C4A23694  43.553  11.644   7.722
 1714POPC   C1B23695  44.127  11.507   8.801
 1714POPC   C2B23696  44.270  11.418   8.405
 1714POPC   C3B23697  44.099  11.513   8.032
 1714POPC   C4B23698  43.908  11.263   7.785
 1715POPC   NC323699  34.537   3.260   9.491
 1715POPC   PO423700  34.746   3.814   9.483
 1715POPC   GL123701  34.613   3.625   9.126
 1715POPC   GL223702  34.855   3.407   9.110
 1715POPC   C1A23703  34.383   3.646   8.749
 1715POPC   D2A23704  34.351   3.419   8.350
 1715POPC   C3A23705  34.420   3.644   7.965
 1715POPC   C4A23706  34.528   3.997   7.694
 1715POPC   C1B23707  34.692   3.244   8.684
 1715POPC   C2B23708  34.757   3.055   8.279
 1715POPC   C3B23709  34.801   3.276   7.892
 1715POPC   C4B23710  34.561   3.374   7.553
 1716POPC   NC323711  18.019   0.983   9.473
 1716POPC   PO423712  18.607   1.413   9.621
 1716POPC   GL123713  18.400   1.245   9.203
 1716POPC   GL223714  18.087   1.422   9.175
 1716POPC   C1A23715  18.241   1.249   8.713
 1716POPC   D2A23716  18.466   1.341   8.350
 1716POPC   C3A23717  18.346   1.070   8.028
 1716POPC   C4A23718  18.507   1.054   7.623
 1716POPC   C1B23719  18.341   1.691   8.884
 1716POPC   C2B23720  18.257   1.803   8.459
 1716POPC   C3B23721  18.090   1.591   8.089
 1716POPC   C4B23722  18.299   1.493   7.730
 1717POPC   NC323723  32.020  34.702   9.463
 1717POPC   PO423724  32.618  34.473   9.470
 1717POPC   GL123725  32.523  34.581   9.045
 1717POPC   GL223726  32.219  34.712   9.014
 1717POPC   C1A23727  32.424  34.518   8.613
 1717POPC   D2A23728  32.126  34.400   8.355
 1717POPC   C3A23729  32.277  34.543   7.995
 1717POPC   C4A23730  32.475  34.770   7.723
 1717POPC   C1B23731  32.090  34.969   8.678
 1717POPC   C2B23732  31.991  34.908   8.283
 1717POPC   C3B23733  32.129  35.057   7.913
 1717POPC   C4B23734  32.032  34.926   7.464
 1718POPC   NC323735  35.164  23.304   9.651
 1718POPC   PO423736  35.636  22.834   9.496
 1718POPC   GL123737  35.558  22.916   9.090
 1718POPC   GL223738  35.767  23.169   9.011
 1718POPC   C1A23739  35.178  22.853   8.815
 1718POPC   D2A23740  35.190  22.619   8.423
 1718POPC   C3A23741  35.295  22.897   8.100
 1718POPC   C4A23742  35.099  23.057   7.724
 1718POPC   C1B23743  35.567  23.132   8.617
 1718POPC   C2B23744  35.594  23.410   8.278
 1718POPC   C3B23745  35.552  23.289   7.856
 1718POPC   C4B23746  35.607  22.860   7.697
 1719POPC   NC323747  19.395  24.488   9.363
 1719POPC   PO423748  18.760  24.500   9.418
 1719POPC   GL123749  18.947  24.475   9.054
 1719POPC   GL223750  19.195  24.714   8.965
 1719POPC   C1A23751  18.718  24.399   8.701
 1719POPC   D2A23752  18.818  24.155   8.370
 1719POPC   C3A23753  18.905  24.427   8.069
 1719POPC   C4A23754  18.807  24.472   7.661
 1719POPC   C1B23755  19.271  24.489   8.618
 1719POPC   C2B23756  19.260  24.745   8.275
 1719POPC   C3B23757  19.324  24.657   7.864
 1719POPC   C4B23758  19.175  24.825   7.503
 1720POPC   NC323759   8.714  29.148   9.219
 1720POPC   PO423760   9.327  29.513   9.394
 1720POPC   GL123761   9.172  29.309   9.045
 1720POPC   GL223762   8.915  29.574   9.009
 1720POPC   C1A23763   9.085  29.002   8.688
 1720POPC   D2A23764   8.970  29.157   8.262
 1720POPC   C3A23765   8.667  29.028   7.956
 1720POPC   C4A23766   8.976  29.190   7.689
 1720POPC   C1B23767   8.703  29.369   8.656
 1720POPC   C2B23768   8.498  29.402   8.315
 1720POPC   C3B23769   8.672  29.540   7.950
 1720POPC   C4B23770   8.576  29.448   7.538
 1721POPC   NC323771  31.741  38.858   9.417
 1721POPC   PO423772  31.275  38.372   9.574
 1721POPC   GL123773  31.534  38.440   9.204
 1721POPC   GL223774  31.419  38.736   9.050
 1721POPC   C1A23775  31.593  38.329   8.758
 1721POPC   D2A23776  31.356  38.270   8.360
 1721POPC   C3A23777  31.516  38.376   7.947
 1721POPC   C4A23778  31.732  38.382   7.527
 1721POPC   C1B23779  31.106  38.866   8.771
 1721POPC   C2B23780  31.060  38.734   8.364
 1721POPC   C3B23781  31.201  38.822   7.951
 1721POPC   C4B23782  31.229  38.587   7.584
 1722POPC   NC323783  22.030  32.644   9.509
 1722POPC   PO423784  22.306  33.286   9.669
 1722POPC   GL123785  22.368  33.018   9.287
 1722POPC   GL223786  22.680  33.151   9.227
 1722POPC   C1A23787  22.247  32.876   8.838
 1722POPC   D2A23788  21.986  33.086   8.488
 1722POPC   C3A23789  22.125  33.136   8.060
 1722POPC   C4A23790  22.117  32.776   7.807
 1722POPC   C1B23791  22.472  33.341   8.885
 1722POPC   C2B23792  22.470  33.297   8.444
 1722POPC   C3B23793  22.509  33.535   8.076
 1722POPC   C4B23794  22.286  33.676   7.688
 1723POPC   NC323795   2.576   8.218   9.470
 1723POPC   PO423796   3.092   7.849   9.699
 1723POPC   GL123797   2.990   8.261   9.200
 1723POPC   GL223798   2.702   8.482   9.037
 1723POPC   C1A23799   2.907   8.184   8.702
 1723POPC   D2A23800   2.711   8.490   8.400
 1723POPC   C3A23801   2.827   8.353   7.988
 1723POPC   C4A23802   3.151   8.127   7.788
 1723POPC   C1B23803   2.403   8.248   8.734
 1723POPC   C2B23804   2.411   8.085   8.269
 1723POPC   C3B23805   2.299   7.945   7.821
 1723POPC   C4B23806   2.277   8.066   7.359
 1724POPC   NC323807  16.413  24.781   9.639
 1724POPC   PO423808  16.837  25.387   9.434
 1724POPC   GL123809  16.633  25.098   9.149
 1724POPC   GL223810  16.491  25.381   9.043
 1724POPC   C1A23811  16.658  25.050   8.711
 1724POPC   D2A23812  16.951  25.231   8.404
 1724POPC   C3A23813  16.842  25.091   8.026
 1724POPC   C4A23814  16.989  24.886   7.683
 1724POPC   C1B23815  16.770  25.575   8.756
 1724POPC   C2B23816  16.783  25.756   8.360
 1724POPC   C3B23817  16.616  25.632   7.946
 1724POPC   C4B23818  16.727  25.339   7.600
 1725POPC   NC323819  31.761   4.066   9.339
 1725POPC   PO423820  31.119   4.290   9.506
 1725POPC   GL123821  31.339   4.296   9.123
 1725POPC   GL223822  31.227   4.617   9.000
 1725POPC   C1A23823  31.486   4.158   8.737
 1725POPC   D2A23824  31.400   4.322   8.339
 1725POPC   C3A23825  31.482   4.290   7.915
 1725POPC   C4A23826  31.103   4.436   7.722
 1725POPC   C1B23827  31.633   4.650   8.764
 1725POPC   C2B23828  31.818   4.597   8.384
 1725POPC   C3B23829  31.694   4.763   8.025
 1725POPC   C4B23830  31.729   4.659   7.616
 1726POPC   NC323831   2.471  15.272   9.557
 1726POPC   PO423832   3.050  15.064   9.329
 1726POPC   GL123833   2.709  15.227   9.114
 1726POPC   GL223834   2.903  15.454   8.981
 1726POPC   C1A23835   2.464  15.145   8.768
 1726POPC   D2A23836   2.432  14.815   8.463
 1726POPC   C3A23837   2.342  14.988   8.044
 1726POPC   C4A23838   2.359  15.446   7.927
 1726POPC   C1B23839   2.978  15.087   8.677
 1726POPC   C2B23840   2.880  14.958   8.245
 1726POPC   C3B23841   2.799  15.177   7.894
 1726POPC   C4B23842   2.970  15.596   7.870
 1727POPC   NC323843  30.426  21.308   9.530
 1727POPC   PO423844  29.768  21.343   9.454
 1727POPC   GL123845  30.058  21.394   9.202
 1727POPC   GL223846  30.166  21.741   9.308
 1727POPC   C1A23847  30.194  21.269   8.823
 1727POPC   D2A23848  30.450  21.451   8.562
 1727POPC   C3A23849  30.356  21.425   8.148
 1727POPC   C4A23850  30.099  21.513   7.795
 1727POPC   C1B23851  29.998  21.751   8.863
 1727POPC   C2B23852  29.946  21.569   8.459
 1727POPC   C3B23853  29.718  21.643   8.097
 1727POPC   C4B23854  29.642  21.272   7.871
 1728POPC   NC323855   2.405  40.783   9.480
 1728POPC   PO423856   2.999  40.471   9.701
 1728POPC   GL123857   2.864  40.774   9.314
 1728POPC   GL223858   3.046  40.730   9.100
 1728POPC   C1A23859   2.598  40.779   8.880
 1728POPC   D2A23860   2.755  40.775   8.473
 1728POPC   C3A23861   2.566  40.838   8.091
 1728POPC   C4A23862   2.758  40.623   7.771
 1728POPC   C1B23863   3.248  40.848   8.746
 1728POPC   C2B23864   3.170  41.042   8.377
 1728POPC   C3B23865   3.089  40.923   7.997
 1728POPC   C4B23866   3.269  40.958   7.605
 1729POPC   NC323867  24.602  44.935   9.480
 1729POPC   PO423868  24.523  44.329   9.709
 1729POPC   GL123869  24.521  44.460   9.167
 1729POPC   GL223870  24.504  44.840   9.006
 1729POPC   C1A23871  24.256  44.479   8.753
 1729POPC   D2A23872  23.992  44.502   8.378
 1729POPC   C3A23873  24.143  44.858   8.161
 1729POPC   C4A23874  24.471  44.832   7.834
 1729POPC   C1B23875  24.734  44.651   8.736
 1729POPC   C2B23876  24.646  44.526   8.322
 1729POPC   C3B23877  24.911  44.776   8.057
 1729POPC   C4B23878  25.001  44.952   7.694
 1730POPC   NC323879  36.404  24.021   9.657
 1730POPC   PO423880  35.902  23.587   9.431
 1730POPC   GL123881  36.070  23.714   9.072
 1730POPC   GL223882  36.426  23.799   9.188
 1730POPC   C1A23883  35.909  23.796   8.650
 1730POPC   D2A23884  35.894  24.035   8.272
 1730POPC   C3A23885  35.847  23.729   7.930
 1730POPC   C4A23886  35.773  23.620   7.518
 1730POPC   C1B23887  36.388  23.972   8.783
 1730POPC   C2B23888  36.410  24.016   8.342
 1730POPC   C3B23889  36.281  23.994   7.917
 1730POPC   C4B23890  36.279  23.596   7.707
 1731POPC   NC323891  26.406  40.519   9.444
 1731POPC   PO423892  27.055  40.802   9.479
 1731POPC   GL123893  26.697  40.888   9.190
 1731POPC   GL223894  26.603  40.605   8.997
 1731POPC   C1A23895  26.663  41.082   8.778
 1731POPC   D2A23896  26.884  40.997   8.394
 1731POPC   C3A23897  26.663  41.041   8.003
 1731POPC   C4A23898  26.701  40.854   7.582
 1731POPC   C1B23899  26.375  40.355   8.733
 1731POPC   C2B23900  26.565  40.475   8.347
 1731POPC   C3B23901  26.477  40.524   7.903
 1731POPC   C4B23902  26.391  40.496   7.446
 1732POPC   NC323903  13.440  26.319   9.237
 1732POPC   PO423904  13.712  26.862   9.538
 1732POPC   GL123905  13.697  26.748   9.123
 1732POPC   GL223906  13.980  26.545   9.122
 1732POPC   C1A23907  13.424  26.777   8.742
 1732POPC   D2A23908  13.309  27.078   8.400
 1732POPC   C3A23909  13.538  26.949   8.046
 1732POPC   C4A23910  13.390  26.582   7.901
 1732POPC   C1B23911  13.855  26.421   8.716
 1732POPC   C2B23912  13.667  26.533   8.337
 1732POPC   C3B23913  13.924  26.621   7.954
 1732POPC   C4B23914  13.776  26.642   7.536
 1733POPC   NC323915  14.223  29.772   9.783
 1733POPC   PO423916  14.858  29.787   9.521
 1733POPC   GL123917  14.595  30.063   9.201
 1733POPC   GL223918  14.251  29.959   9.128
 1733POPC   C1A23919  14.539  29.929   8.729
 1733POPC   D2A23920  14.514  29.566   8.415
 1733POPC   C3A23921  14.586  29.672   7.954
 1733POPC   C4A23922  14.578  30.027   7.652
 1733POPC   C1B23923  13.992  29.977   8.771
 1733POPC   C2B23924  14.130  29.915   8.398
 1733POPC   C3B23925  14.204  30.032   7.999
 1733POPC   C4B23926  14.111  29.782   7.650
 1734POPC   NC323927  30.063  15.609   9.293
 1734POPC   PO423928  29.591  16.168   9.532
 1734POPC   GL123929  29.879  16.326   9.196
 1734POPC   GL223930  29.889  16.023   9.101
 1734POPC   C1A23931  30.180  16.240   8.788
 1734POPC   D2A23932  30.211  15.875   8.505
 1734POPC   C3A23933  30.082  16.047   8.114
 1734POPC   C4A23934  29.994  16.149   7.695
 1734POPC   C1B23935  29.720  15.953   8.687
 1734POPC   C2B23936  29.587  15.844   8.255
 1734POPC   C3B23937  29.630  15.827   7.792
 1734POPC   C4B23938  29.754  15.663   7.357
 1735POPC   NC323939  10.118  35.768   9.493
 1735POPC   PO423940   9.602  36.171   9.614
 1735POPC   GL123941   9.567  36.105   9.199
 1735POPC   GL223942   9.581  36.422   9.056
 1735POPC   C1A23943   9.661  35.974   8.764
 1735POPC   D2A23944   9.757  36.065   8.324
 1735POPC   C3A23945   9.591  35.889   7.944
 1735POPC   C4A23946   9.542  36.200   7.627
 1735POPC   C1B23947   9.891  36.455   8.689
 1735POPC   C2B23948  10.097  36.423   8.268
 1735POPC   C3B23949  10.009  36.173   7.861
 1735POPC   C4B23950  10.032  36.054   7.404
 1736POPC   NC323951  28.458  17.180   9.579
 1736POPC   PO423952  28.222  17.710   9.444
 1736POPC   GL123953  28.475  17.527   9.116
 1736POPC   GL223954  28.639  17.164   9.104
 1736POPC   C1A23955  28.502  17.435   8.686
 1736POPC   D2A23956  28.517  17.598   8.327
 1736POPC   C3A23957  28.215  17.519   8.057
 1736POPC   C4A23958  28.488  17.551   7.773
 1736POPC   C1B23959  28.618  16.952   8.678
 1736POPC   C2B23960  28.452  17.081   8.257
 1736POPC   C3B23961  28.412  17.047   7.810
 1736POPC   C4B23962  28.286  16.972   7.354
 1737POPC   NC323963  40.757  24.815   9.433
 1737POPC   PO423964  41.160  24.336   9.633
 1737POPC   GL123965  40.977  24.370   9.220
 1737POPC   GL223966  40.608  24.347   9.223
 1737POPC   C1A23967  40.997  24.636   8.861
 1737POPC   D2A23968  40.841  24.626   8.454
 1737POPC   C3A23969  40.992  24.635   8.051
 1737POPC   C4A23970  40.880  24.294   7.806
 1737POPC   C1B23971  40.472  24.525   8.816
 1737POPC   C2B23972  40.340  24.698   8.420
 1737POPC   C3B23973  40.492  24.547   8.029
 1737POPC   C4B23974  40.705  24.735   7.640
 1738POPC   NC323975  29.411  33.801   9.776
 1738POPC   PO423976  28.839  33.579   9.558
 1738POPC   GL123977  29.132  33.713   9.202
 1738POPC   GL223978  29.118  34.012   9.355
 1738POPC   C1A23979  29.369  33.743   8.729
 1738POPC   D2A23980  29.440  33.875   8.285
 1738POPC   C3A23981  29.646  33.586   8.025
 1738POPC   C4A23982  29.395  33.431   7.679
 1738POPC   C1B23983  29.154  34.142   8.921
 1738POPC   C2B23984  29.231  34.268   8.513
 1738POPC   C3B23985  29.126  34.288   8.084
 1738POPC   C4B23986  29.202  34.052   7.728
 1739POPC   NC323987   0.169  14.109   9.677
 1739POPC   PO423988   0.668  14.572   9.516
 1739POPC   GL123989   0.355  14.545   9.155
 1739POPC   GL223990   0.244  14.246   9.185
 1739POPC   C1A23991   0.500  14.478   8.729
 1739POPC   D2A23992   0.778  14.505   8.378
 1739POPC   C3A23993   0.596  14.322   8.073
 1739POPC   C4A23994   0.668  14.087   7.748
 1739POPC   C1B23995   0.047  14.219   8.779
 1739POPC   C2B23996   0.119  14.384   8.386
 1739POPC   C3B23997   0.109  14.191   8.005
 1739POPC   C4B23998   0.115  14.331   7.611
 1740POPC   NC323999  20.366  42.577   9.518
 1740POPC   PO424000  20.633  41.913   9.499
 1740POPC   GL124001  20.592  42.237   9.173
 1740POPC   GL224002  20.363  42.051   9.010
 1740POPC   C1A24003  20.653  42.430   8.746
 1740POPC   D2A24004  20.929  42.365   8.352
 1740POPC   C3A24005  20.931  42.596   7.926
 1740POPC   C4A24006  21.016  42.614   7.456
 1740POPC   C1B24007  20.706  41.895   8.752
 1740POPC   C2B24008  20.750  41.826   8.298
 1740POPC   C3B24009  20.669  42.124   7.945
 1740POPC   C4B24010  20.396  42.225   7.589
 1741POPC   NC324011  41.206  40.996   9.498
 1741POPC   PO424012  41.804  40.657   9.545
 1741POPC   GL124013  41.683  40.928   9.233
 1741POPC   GL224014  41.432  40.723   9.139
 1741POPC   C1A24015  41.694  41.007   8.783
 1741POPC   D2A24016  41.466  40.990   8.388
 1741POPC   C3A24017  41.769  40.933   8.045
 1741POPC   C4A24018  41.965  40.590   7.803
 1741POPC   C1B24019  41.530  40.502   8.804
 1741POPC   C2B24020  41.364  40.480   8.437
 1741POPC   C3B24021  41.503  40.510   8.094
 1741POPC   C4B24022  41.385  40.594   7.750
 1742POPC   NC324023   9.546  20.349   9.384
 1742POPC   PO424024   9.765  19.843   9.574
 1742POPC   GL124025   9.685  19.906   9.153
 1742POPC   GL224026   9.685  19.560   9.043
 1742POPC   C1A24027   9.692  20.239   8.776
 1742POPC   D2A24028   9.903  20.316   8.398
 1742POPC   C3A24029   9.882  20.031   8.065
 1742POPC   C4A24030   9.686  20.003   7.688
 1742POPC   C1B24031   9.557  19.443   8.626
 1742POPC   C2B24032   9.576  19.452   8.182
 1742POPC   C3B24033   9.847  19.546   7.867
 1742POPC   C4B24034   9.892  19.571   7.440
 1743POPC   NC324035  23.361  13.027   9.438
 1743POPC   PO424036  22.921  12.487   9.392
 1743POPC   GL124037  22.864  12.731   9.077
 1743POPC   GL224038  22.934  13.085   9.165
 1743POPC   C1A24039  23.012  12.557   8.731
 1743POPC   D2A24040  22.962  12.629   8.361
 1743POPC   C3A24041  22.781  12.889   8.160
 1743POPC   C4A24042  23.015  12.761   7.826
 1743POPC   C1B24043  22.955  13.075   8.716
 1743POPC   C2B24044  23.091  13.344   8.421
 1743POPC   C3B24045  23.178  13.232   8.038
 1743POPC   C4B24046  23.045  13.253   7.608
 1744POPC   NC324047  22.566  24.574   9.730
 1744POPC   PO424048  23.056  24.204   9.428
 1744POPC   GL124049  22.976  24.476   9.118
 1744POPC   GL224050  22.610  24.598   9.175
 1744POPC   C1A24051  23.180  24.445   8.712
 1744POPC   D2A24052  23.285  24.334   8.282
 1744POPC   C3A24053  22.990  24.569   7.969
 1744POPC   C4A24054  22.570  24.787   7.942
 1744POPC   C1B24055  22.711  24.707   8.741
 1744POPC   C2B24056  22.751  24.354   8.444
 1744POPC   C3B24057  22.873  24.072   8.121
 1744POPC   C4B24058  22.572  24.266   7.863
 1745POPC   NC324059   4.312  20.991   9.579
 1745POPC   PO424060   4.487  20.356   9.596
 1745POPC   GL124061   4.258  20.508   9.241
 1745POPC   GL224062   4.282  20.822   9.111
 1745POPC   C1A24063   4.256  20.402   8.815
 1745POPC   D2A24064   4.358  20.654   8.458
 1745POPC   C3A24065   4.101  20.552   8.101
 1745POPC   C4A24066   4.227  20.546   7.681
 1745POPC   C1B24067   4.609  20.916   8.850
 1745POPC   C2B24068   4.676  21.069   8.426
 1745POPC   C3B24069   4.515  20.912   8.039
 1745POPC   C4B24070   4.490  21.005   7.632
 1746POPC   NC324071   8.831  26.356   9.521
 1746POPC   PO424072   9.302  26.941   9.454
 1746POPC   GL124073   9.060  26.706   9.127
 1746POPC   GL224074   8.708  26.636   9.103
 1746POPC   C1A24075   8.884  26.881   8.703
 1746POPC   D2A24076   8.893  27.103   8.316
 1746POPC   C3A24077   8.964  26.892   7.909
 1746POPC   C4A24078   9.076  27.079   7.487
 1746POPC   C1B24079   8.603  26.458   8.702
 1746POPC   C2B24080   8.812  26.533   8.295
 1746POPC   C3B24081   8.718  26.446   7.861
 1746POPC   C4B24082   8.806  26.647   7.460
 1747POPC   NC324083  31.312  19.610   9.464
 1747POPC   PO424084  31.792  20.041   9.475
 1747POPC   GL124085  31.487  20.021   9.158
 1747POPC   GL224086  31.592  19.696   9.071
 1747POPC   C1A24087  31.293  20.044   8.747
 1747POPC   D2A24088  31.394  19.835   8.350
 1747POPC   C3A24089  31.489  20.041   7.946
 1747POPC   C4A24090  31.542  19.858   7.590
 1747POPC   C1B24091  31.765  19.454   8.767
 1747POPC   C2B24092  31.840  19.560   8.352
 1747POPC   C3B24093  31.603  19.510   7.989
 1747POPC   C4B24094  31.777  19.416   7.570
 1748POPC   NC324095  43.983  40.506   9.441
 1748POPC   PO424096  43.332  40.804   9.499
 1748POPC   GL124097  43.686  40.986   9.217
 1748POPC   GL224098  43.494  41.153   8.942
 1748POPC   C1A24099  43.970  40.978   8.827
 1748POPC   D2A24100  43.875  40.829   8.421
 1748POPC   C3A24101  44.158  40.779   8.046
 1748POPC   C4A24102  44.309  41.131   7.825
 1748POPC   C1B24103  43.536  40.691   8.814
 1748POPC   C2B24104  43.408  40.523   8.427
 1748POPC   C3B24105  43.666  40.544   8.071
 1748POPC   C4B24106  43.761  40.843   7.754
 1749POPC   NC324107  34.421  19.323   9.621
 1749POPC   PO424108  34.841  18.794   9.735
 1749POPC   GL124109  34.609  18.944   9.339
 1749POPC   GL224110  34.776  19.250   9.228
 1749POPC   C1A24111  34.551  18.899   8.852
 1749POPC   D2A24112  34.383  18.768   8.428
 1749POPC   C3A24113  34.449  18.937   8.030
 1749POPC   C4A24114  34.272  18.927   7.624
 1749POPC   C1B24115  34.540  19.407   8.880
 1749POPC   C2B24116  34.571  19.263   8.462
 1749POPC   C3B24117  34.471  19.434   8.057
 1749POPC   C4B24118  34.319  19.428   7.677
 1750POPC   NC324119  41.036  23.909   9.751
 1750POPC   PO424120  40.460  23.801   9.460
 1750POPC   GL124121  40.762  23.867   9.127
 1750POPC   GL224122  41.100  23.870   9.242
 1750POPC   C1A24123  40.755  24.099   8.729
 1750POPC   D2A24124  40.841  24.139   8.281
 1750POPC   C3A24125  40.613  23.874   7.963
 1750POPC   C4A24126  40.733  23.573   7.623
 1750POPC   C1B24127  41.187  23.778   8.801
 1750POPC   C2B24128  41.278  23.852   8.354
 1750POPC   C3B24129  41.124  23.849   7.905
 1750POPC   C4B24130  41.213  23.629   7.496
 1751POPC   NC324131  40.433  14.992   9.478
 1751POPC   PO424132  40.977  15.269   9.544
 1751POPC   GL124133  40.896  15.339   9.129
 1751POPC   GL224134  40.560  15.427   9.170
 1751POPC   C1A24135  40.944  15.548   8.737
 1751POPC   D2A24136  40.767  15.651   8.331
 1751POPC   C3A24137  40.934  15.399   8.057
 1751POPC   C4A24138  40.904  15.189   7.706
 1751POPC   C1B24139  40.558  15.205   8.777
 1751POPC   C2B24140  40.469  15.219   8.349
 1751POPC   C3B24141  40.459  14.960   8.001
 1751POPC   C4B24142  40.397  15.171   7.652
 1752POPC   NC324143   9.332  21.032   9.804
 1752POPC   PO424144   9.835  20.701   9.430
 1752POPC   GL124145   9.894  20.650   9.038
 1752POPC   GL224146   9.563  20.700   8.997
 1752POPC   C1A24147   9.889  20.813   8.613
 1752POPC   D2A24148   9.630  20.953   8.258
 1752POPC   C3A24149   9.815  20.812   7.881
 1752POPC   C4A24150   9.893  20.457   7.612
 1752POPC   C1B24151   9.363  20.808   8.677
 1752POPC   C2B24152   9.400  20.485   8.382
 1752POPC   C3B24153   9.531  20.396   7.999
 1752POPC   C4B24154   9.379  20.605   7.656
 1753POPC   NC324155  39.778  33.470   9.268
 1753POPC   PO424156  39.818  32.846   9.617
 1753POPC   GL124157  40.094  32.985   9.256
 1753POPC   GL224158  40.208  32.706   9.060
 1753POPC   C1A24159  40.171  33.169   8.830
 1753POPC   D2A24160  40.273  33.250   8.404
 1753POPC   C3A24161  40.046  33.059   8.045
 1753POPC   C4A24162  40.157  33.078   7.571
 1753POPC   C1B24163  40.265  32.700   8.594
 1753POPC   C2B24164  40.145  32.547   8.169
 1753POPC   C3B24165  39.913  32.654   7.765
 1753POPC   C4B24166  39.623  32.740   7.419
 1754POPC   NC324167  42.393  44.224  10.033
 1754POPC   PO424168  42.468  44.707   9.550
 1754POPC   GL124169  42.278  44.725   9.138
 1754POPC   GL224170  42.363  44.395   9.127
 1754POPC   C1A24171  42.209  44.762   8.683
 1754POPC   D2A24172  42.411  44.906   8.281
 1754POPC   C3A24173  42.245  44.706   7.911
 1754POPC   C4A24174  42.058  44.676   7.518
 1754POPC   C1B24175  42.350  44.258   8.744
 1754POPC   C2B24176  42.385  44.379   8.350
 1754POPC   C3B24177  42.453  44.181   7.978
 1754POPC   C4B24178  42.301  44.255   7.576
 1755POPC   NC324179   6.287   8.250   9.612
 1755POPC   PO424180   6.961   8.139   9.464
 1755POPC   GL124181   6.594   8.169   9.216
 1755POPC   GL224182   6.548   8.526   9.237
 1755POPC   C1A24183   6.576   7.977   8.820
 1755POPC   D2A24184   6.866   8.049   8.469
 1755POPC   C3A24185   6.754   8.266   8.087
 1755POPC   C4A24186   7.026   8.413   7.804
 1755POPC   C1B24187   6.752   8.471   8.840
 1755POPC   C2B24188   6.603   8.625   8.465
 1755POPC   C3B24189   6.368   8.609   8.094
 1755POPC   C4B24190   6.509   8.642   7.685
 1756POPC   NC324191  33.384  12.464   9.309
 1756POPC   PO424192  33.818  12.936   9.483
 1756POPC   GL124193  33.722  12.956   9.084
 1756POPC   GL224194  33.775  12.597   9.010
 1756POPC   C1A24195  33.847  12.962   8.661
 1756POPC   D2A24196  33.858  12.739   8.310
 1756POPC   C3A24197  33.834  13.020   7.969
 1756POPC   C4A24198  34.073  12.978   7.594
 1756POPC   C1B24199  33.398  12.733   8.730
 1756POPC   C2B24200  33.390  12.943   8.320
 1756POPC   C3B24201  33.471  12.673   7.948
 1756POPC   C4B24202  33.928  12.536   7.834
 1757POPC   NC324203  12.879  20.974   9.357
 1757POPC   PO424204  13.303  20.348   9.453
 1757POPC   GL124205  13.026  20.535   9.144
 1757POPC   GL224206  12.692  20.555   9.153
 1757POPC   C1A24207  13.032  20.684   8.734
 1757POPC   D2A24208  13.048  20.423   8.358
 1757POPC   C3A24209  13.072  20.625   7.968
 1757POPC   C4A24210  13.135  21.048   7.862
 1757POPC   C1B24211  12.541  20.451   8.748
 1757POPC   C2B24212  12.533  20.309   8.320
 1757POPC   C3B24213  12.585  20.518   7.928
 1757POPC   C4B24214  12.632  20.936   7.832
 1758POPC   NC324215  27.465  21.610   9.663
 1758POPC   PO424216  28.099  21.834   9.592
 1758POPC   GL124217  27.771  21.689   9.241
 1758POPC   GL224218  27.382  21.671   9.167
 1758POPC   C1A24219  27.663  21.338   8.926
 1758POPC   D2A24220  27.682  21.326   8.492
 1758POPC   C3A24221  27.581  21.055   8.175
 1758POPC   C4A24222  27.417  21.082   7.746
 1758POPC   C1B24223  27.421  21.776   8.739
 1758POPC   C2B24224  27.320  21.809   8.332
 1758POPC   C3B24225  27.465  21.536   8.057
 1758POPC   C4B24226  27.621  21.533   7.679
 1759POPC   NC324227  24.949   6.482   9.488
 1759POPC   PO424228  25.532   6.674   9.204
 1759POPC   GL124229  25.300   6.726   8.984
 1759POPC   GL224230  25.048   6.888   9.150
 1759POPC   C1A24231  25.368   6.757   8.562
 1759POPC   D2A24232  25.367   6.843   8.157
 1759POPC   C3A24233  25.519   6.540   7.877
 1759POPC   C4A24234  25.399   6.534   7.425
 1759POPC   C1B24235  24.886   6.656   8.753
 1759POPC   C2B24236  24.994   6.470   8.336
 1759POPC   C3B24237  25.015   6.537   7.896
 1759POPC   C4B24238  24.976   6.784   7.525
 1760POPC   NC324239  34.435  30.319   9.411
 1760POPC   PO424240  34.668  31.025   9.399
 1760POPC   GL124241  34.519  30.738   9.090
 1760POPC   GL224242  34.837  30.565   9.056
 1760POPC   C1A24243  34.595  30.671   8.630
 1760POPC   D2A24244  34.931  30.846   8.392
 1760POPC   C3A24245  34.812  30.800   7.985
 1760POPC   C4A24246  34.533  30.475   7.949
 1760POPC   C1B24247  34.974  30.313   8.666
 1760POPC   C2B24248  35.001  30.363   8.209
 1760POPC   C3B24249  34.996  30.369   7.751
 1760POPC   C4B24250  34.901  30.649   7.419
 1761POPC   NC324251  33.268   8.598   9.478
 1761POPC   PO424252  33.123   7.916   9.478
 1761POPC   GL124253  32.794   8.186   9.248
 1761POPC   GL224254  32.514   7.980   9.085
 1761POPC   C1A24255  32.779   8.410   8.832
 1761POPC   D2A24256  33.052   8.421   8.446
 1761POPC   C3A24257  33.029   8.242   8.023
 1761POPC   C4A24258  33.411   8.318   7.793
 1761POPC   C1B24259  32.888   7.922   8.825
 1761POPC   C2B24260  32.972   7.898   8.435
 1761POPC   C3B24261  32.723   7.786   8.101
 1761POPC   C4B24262  32.789   7.867   7.734
 1762POPC   NC324263  11.972  37.235   9.334
 1762POPC   PO424264  12.224  36.643   9.505
 1762POPC   GL124265  12.066  36.784   9.111
 1762POPC   GL224266  12.326  37.016   9.001
 1762POPC   C1A24267  11.883  36.999   8.743
 1762POPC   D2A24268  12.062  37.129   8.388
 1762POPC   C3A24269  11.918  37.068   8.003
 1762POPC   C4A24270  12.061  37.284   7.639
 1762POPC   C1B24271  12.298  36.677   8.662
 1762POPC   C2B24272  12.304  36.706   8.208
 1762POPC   C3B24273  12.384  36.814   7.772
 1762POPC   C4B24274  12.273  36.503   7.431
 1763POPC   NC324275   1.780  10.606   9.773
 1763POPC   PO424276   2.195  10.194   9.522
 1763POPC   GL124277   2.024  10.471   9.207
 1763POPC   GL224278   1.838  10.725   9.261
 1763POPC   C1A24279   2.175  10.716   8.853
 1763POPC   D2A24280   2.020  10.926   8.500
 1763POPC   C3A24281   1.964  10.818   8.082
 1763POPC   C4A24282   2.146  10.579   7.752
 1763POPC   C1B24283   1.670  10.660   8.831
 1763POPC   C2B24284   1.672  10.508   8.412
 1763POPC   C3B24285   1.882  10.306   8.100
 1763POPC   C4B24286   1.811  10.193   7.683
 1764POPC   NC324287  22.919  41.309   9.995
 1764POPC   PO424288  22.974  41.802   9.606
 1764POPC   GL124289  22.945  41.505   9.257
 1764POPC   GL224290  23.289  41.535   9.115
 1764POPC   C1A24291  22.922  41.324   8.836
 1764POPC   D2A24292  22.847  41.522   8.454
 1764POPC   C3A24293  22.897  41.344   8.050
 1764POPC   C4A24294  22.740  41.515   7.627
 1764POPC   C1B24295  23.255  41.717   8.711
 1764POPC   C2B24296  23.295  41.643   8.251
 1764POPC   C3B24297  23.149  41.866   7.888
 1764POPC   C4B24298  23.136  41.831   7.429
 1765POPC   NC324299  31.929  32.312   9.870
 1765POPC   PO424300  32.209  32.084   9.291
 1765POPC   GL124301  32.316  32.129   8.921
 1765POPC   GL224302  32.079  32.425   8.881
 1765POPC   C1A24303  32.409  32.269   8.526
 1765POPC   D2A24304  32.070  32.539   8.400
 1765POPC   C3A24305  31.898  32.401   8.028
 1765POPC   C4A24306  32.154  32.312   7.742
 1765POPC   C1B24307  32.424  32.685   8.835
 1765POPC   C2B24308  32.562  32.755   8.426
 1765POPC   C3B24309  32.550  32.460   8.063
 1765POPC   C4B24310  32.593  32.633   7.681
 1766POPC   NC324311  40.881   1.621   9.495
 1766POPC   PO424312  40.686   2.283   9.453
 1766POPC   GL124313  40.612   2.063   9.064
 1766POPC   GL224314  40.684   1.749   9.043
 1766POPC   C1A24315  40.553   1.979   8.624
 1766POPC   D2A24316  40.620   1.674   8.327
 1766POPC   C3A24317  40.526   1.916   7.984
 1766POPC   C4A24318  40.826   2.100   7.763
 1766POPC   C1B24319  41.047   1.606   8.797
 1766POPC   C2B24320  41.230   1.668   8.380
 1766POPC   C3B24321  41.194   1.776   7.927
 1766POPC   C4B24322  41.144   1.873   7.455
 1767POPC   NC324323  30.439  22.650   9.448
 1767POPC   PO424324  30.731  23.248   9.556
 1767POPC   GL124325  30.648  23.113   9.113
 1767POPC   GL224326  30.305  23.015   8.991
 1767POPC   C1A24327  30.636  23.181   8.650
 1767POPC   D2A24328  30.752  23.343   8.262
 1767POPC   C3A24329  30.538  23.109   7.955
 1767POPC   C4A24330  30.701  23.124   7.553
 1767POPC   C1B24331  30.511  22.697   8.755
 1767POPC   C2B24332  30.737  22.741   8.367
 1767POPC   C3B24333  30.629  22.596   7.998
 1767POPC   C4B24334  30.524  22.662   7.593
 1768POPC   NC324335  21.890  43.378   9.502
 1768POPC   PO424336  22.254  43.958   9.441
 1768POPC   GL124337  22.022  43.903   9.114
 1768POPC   GL224338  22.078  43.591   9.074
 1768POPC   C1A24339  22.186  43.989   8.712
 1768POPC   D2A24340  22.141  44.257   8.380
 1768POPC   C3A24341  22.151  43.976   8.063
 1768POPC   C4A24342  21.933  43.927   7.708
 1768POPC   C1B24343  21.870  43.577   8.693
 1768POPC   C2B24344  21.982  43.532   8.257
 1768POPC   C3B24345  21.893  43.432   7.828
 1768POPC   C4B24346  21.995  43.530   7.380
 1769POPC   NC324347  13.857  28.042   9.525
 1769POPC   PO424348  13.653  28.749   9.508
 1769POPC   GL124349  13.616  28.421   9.233
 1769POPC   GL224350  13.622  28.692   8.984
 1769POPC   C1A24351  13.806  28.262   8.855
 1769POPC   D2A24352  13.727  28.501   8.483
 1769POPC   C3A24353  13.797  28.303   8.115
 1769POPC   C4A24354  13.715  28.110   7.748
 1769POPC   C1B24355  13.290  28.444   8.783
 1769POPC   C2B24356  13.048  28.608   8.459
 1769POPC   C3B24357  13.205  28.701   8.080
 1769POPC   C4B24358  13.418  28.508   7.735
 1770POPC   NC324359  22.343  14.389   9.465
 1770POPC   PO424360  21.706  14.097   9.529
 1770POPC   GL124361  21.897  14.299   9.122
 1770POPC   GL224362  22.029  14.647   9.128
 1770POPC   C1A24363  22.137  14.348   8.729
 1770POPC   D2A24364  22.343  14.244   8.356
 1770POPC   C3A24365  22.077  14.309   8.004
 1770POPC   C4A24366  21.933  14.115   7.626
 1770POPC   C1B24367  22.426  14.732   8.898
 1770POPC   C2B24368  22.422  14.718   8.489
 1770POPC   C3B24369  22.496  14.673   8.061
 1770POPC   C4B24370  22.238  14.706   7.730
 1771POPC   NC324371   4.657  16.358   9.408
 1771POPC   PO424372   5.180  16.783   9.408
 1771POPC   GL124373   4.943  16.678   9.109
 1771POPC   GL224374   5.060  16.376   9.072
 1771POPC   C1A24375   4.984  16.752   8.704
 1771POPC   D2A24376   4.741  16.954   8.417
 1771POPC   C3A24377   4.963  16.851   8.083
 1771POPC   C4A24378   4.985  16.787   7.691
 1771POPC   C1B24379   4.951  16.225   8.693
 1771POPC   C2B24380   4.811  16.429   8.348
 1771POPC   C3B24381   4.842  16.362   7.971
 1771POPC   C4B24382   4.728  16.370   7.571
 1772POPC   NC324383  24.317  34.763   9.537
 1772POPC   PO424384  24.537  34.173   9.468
 1772POPC   GL124385  24.420  34.411   9.110
 1772POPC   GL224386  24.536  34.755   9.091
 1772POPC   C1A24387  24.536  34.467   8.674
 1772POPC   D2A24388  24.374  34.651   8.305
 1772POPC   C3A24389  24.431  34.346   7.978
 1772POPC   C4A24390  24.666  34.362   7.580
 1772POPC   C1B24391  24.514  34.974   8.708
 1772POPC   C2B24392  24.629  35.146   8.328
 1772POPC   C3B24393  24.698  34.986   7.934
 1772POPC   C4B24394  24.393  34.771   7.729
 1773POPC   NC324395  17.770  15.397   9.347
 1773POPC   PO424396  17.226  15.269   9.685
 1773POPC   GL124397  17.291  15.247   9.215
 1773POPC   GL224398  17.215  14.905   9.095
 1773POPC   C1A24399  17.368  15.467   8.768
 1773POPC   D2A24400  17.351  15.212   8.369
 1773POPC   C3A24401  17.331  15.345   7.937
 1773POPC   C4A24402  17.480  15.685   7.773
 1773POPC   C1B24403  17.586  15.018   8.795
 1773POPC   C2B24404  17.831  15.002   8.387
 1773POPC   C3B24405  17.845  15.199   7.986
 1773POPC   C4B24406  17.702  15.230   7.544
 1774POPC   NC324407  19.998  10.222   9.471
 1774POPC   PO424408  19.637   9.648   9.469
 1774POPC   GL124409  19.840   9.609   9.115
 1774POPC   GL224410  20.052   9.888   9.100
 1774POPC   C1A24411  19.689   9.759   8.750
 1774POPC   D2A24412  19.838   9.719   8.386
 1774POPC   C3A24413  19.652   9.870   8.060
 1774POPC   C4A24414  19.533   9.684   7.672
 1774POPC   C1B24415  20.251  10.023   8.730
 1774POPC   C2B24416  20.060  10.189   8.394
 1774POPC   C3B24417  20.119  10.106   7.993
 1774POPC   C4B24418  19.831  10.091   7.654
 1775POPC   NC324419   9.647  22.704   9.485
 1775POPC   PO424420   9.481  23.329   9.488
 1775POPC   GL124421   9.682  23.101   9.135
 1775POPC   GL224422   9.796  22.782   9.015
 1775POPC   C1A24423   9.802  23.203   8.719
 1775POPC   D2A24424   9.660  23.340   8.338
 1775POPC   C3A24425   9.778  23.222   7.959
 1775POPC   C4A24426   9.989  22.919   7.732
 1775POPC   C1B24427  10.126  22.821   8.708
 1775POPC   C2B24428  10.045  22.948   8.311
 1775POPC   C3B24429   9.695  22.732   8.109
 1775POPC   C4B24430   9.700  22.365   7.838
 1776POPC   NC324431  27.121  32.857   9.468
 1776POPC   PO424432  26.690  33.336   9.466
 1776POPC   GL124433  26.664  33.039   9.161
 1776POPC   GL224434  26.987  33.099   9.044
 1776POPC   C1A24435  26.615  32.985   8.712
 1776POPC   D2A24436  26.823  33.166   8.388
 1776POPC   C3A24437  26.671  32.982   8.032
 1776POPC   C4A24438  26.790  33.144   7.618
 1776POPC   C1B24439  27.077  32.762   8.747
 1776POPC   C2B24440  27.047  32.695   8.309
 1776POPC   C3B24441  27.178  32.982   8.019
 1776POPC   C4B24442  27.258  32.993   7.601
 1777POPC   NC324443   4.242  24.191   9.545
 1777POPC   PO424444   4.193  24.786   9.535
 1777POPC   GL124445   4.307  24.562   9.134
 1777POPC   GL224446   4.534  24.285   9.058
 1777POPC   C1A24447   4.248  24.581   8.666
 1777POPC   D2A24448   4.086  24.413   8.241
 1777POPC   C3A24449   4.131  24.702   7.890
 1777POPC   C4A24450   4.163  24.587   7.440
 1777POPC   C1B24451   4.562  24.183   8.605
 1777POPC   C2B24452   4.579  24.431   8.227
 1777POPC   C3B24453   4.512  24.379   7.770
 1777POPC   C4B24454   4.596  24.346   7.284
 1778POPC   NC324455  38.879  22.591   9.414
 1778POPC   PO424456  39.286  23.144   9.495
 1778POPC   GL124457  39.253  22.907   9.132
 1778POPC   GL224458  38.927  22.999   9.055
 1778POPC   C1A24459  39.452  22.975   8.725
 1778POPC   D2A24460  39.682  22.984   8.332
 1778POPC   C3A24461  39.469  23.214   8.015
 1778POPC   C4A24462  39.279  23.057   7.665
 1778POPC   C1B24463  38.957  22.885   8.615
 1778POPC   C2B24464  39.059  22.920   8.155
 1778POPC   C3B24465  38.919  22.730   7.746
 1778POPC   C4B24466  38.964  22.879   7.277
 1779POPC   NC324467  18.495  26.915   9.590
 1779POPC   PO424468  18.460  26.259   9.750
 1779POPC   GL124469  18.372  26.495   9.291
 1779POPC   GL224470  18.570  26.749   9.127
 1779POPC   C1A24471  18.133  26.662   8.880
 1779POPC   D2A24472  18.222  26.924   8.498
 1779POPC   C3A24473  18.172  26.801   8.062
 1779POPC   C4A24474  18.486  26.759   7.694
 1779POPC   C1B24475  18.602  27.054   8.813
 1779POPC   C2B24476  18.675  27.139   8.376
 1779POPC   C3B24477  18.747  27.300   7.987
 1779POPC   C4B24478  18.659  27.234   7.558
 1780POPC   NC324479   4.065   6.317   9.424
 1780POPC   PO424480   4.107   5.661   9.487
 1780POPC   GL124481   4.271   5.730   9.118
 1780POPC   GL224482   4.626   5.742   9.132
 1780POPC   C1A24483   4.317   5.606   8.698
 1780POPC   D2A24484   4.101   5.760   8.378
 1780POPC   C3A24485   4.163   5.638   7.974
 1780POPC   C4A24486   4.098   5.944   7.654
 1780POPC   C1B24487   4.481   6.095   8.840
 1780POPC   C2B24488   4.476   6.109   8.373
 1780POPC   C3B24489   4.528   6.034   7.919
 1780POPC   C4B24490   4.467   6.305   7.544
 1781POPC   NC324491   4.600   2.767   9.622
 1781POPC   PO424492   5.235   2.923   9.450
 1781POPC   GL124493   5.162   2.728   9.106
 1781POPC   GL224494   4.832   2.701   9.181
 1781POPC   C1A24495   5.246   2.764   8.669
 1781POPC   D2A24496   5.290   3.005   8.263
 1781POPC   C3A24497   5.158   2.733   7.925
 1781POPC   C4A24498   5.436   2.445   7.674
 1781POPC   C1B24499   4.726   2.842   8.792
 1781POPC   C2B24500   4.824   2.847   8.387
 1781POPC   C3B24501   4.751   3.027   8.005
 1781POPC   C4B24502   4.937   3.097   7.597
 1782POPC   NC324503  38.537  20.622   9.520
 1782POPC   PO424504  37.899  20.462   9.604
 1782POPC   GL124505  38.153  20.539   9.157
 1782POPC   GL224506  38.525  20.677   9.037
 1782POPC   C1A24507  38.218  20.576   8.679
 1782POPC   D2A24508  38.342  20.306   8.325
 1782POPC   C3A24509  38.330  20.559   7.950
 1782POPC   C4A24510  38.343  20.501   7.501
 1782POPC   C1B24511  38.716  20.448   8.670
 1782POPC   C2B24512  38.761  20.598   8.296
 1782POPC   C3B24513  38.871  20.558   7.931
 1782POPC   C4B24514  38.796  20.705   7.561
 1783POPC   NC324515  44.217   7.069   9.436
 1783POPC   PO424516  44.834   7.451   9.664
 1783POPC   GL124517  44.825   7.549   9.165
 1783POPC   GL224518  44.488   7.458   9.010
 1783POPC   C1A24519  44.859   7.305   8.733
 1783POPC   D2A24520  44.636   7.057   8.394
 1783POPC   C3A24521  44.562   7.292   8.002
 1783POPC   C4A24522  44.821   7.355   7.626
 1783POPC   C1B24523  44.287   7.341   8.650
 1783POPC   C2B24524  44.113   7.454   8.278
 1783POPC   C3B24525  44.265   7.780   8.039
 1783POPC   C4B24526  44.445   7.683   7.664
 1784POPC   NC324527  22.454   4.526   9.439
 1784POPC   PO424528  22.108   3.918   9.347
 1784POPC   GL124529  22.312   4.172   9.088
 1784POPC   GL224530  22.104   4.475   9.085
 1784POPC   C1A24531  22.334   4.134   8.650
 1784POPC   D2A24532  22.403   3.955   8.259
 1784POPC   C3A24533  22.069   4.017   7.993
 1784POPC   C4A24534  21.976   4.342   7.699
 1784POPC   C1B24535  21.869   4.487   8.727
 1784POPC   C2B24536  21.973   4.347   8.352
 1784POPC   C3B24537  22.295   4.477   8.104
 1784POPC   C4B24538  22.216   4.781   7.799
 1785POPC   NC324539  22.672  37.325   9.448
 1785POPC   PO424540  22.898  36.697   9.544
 1785POPC   GL124541  22.912  36.882   9.172
 1785POPC   GL224542  23.252  36.967   9.171
 1785POPC   C1A24543  23.018  36.747   8.722
 1785POPC   D2A24544  23.034  36.574   8.314
 1785POPC   C3A24545  22.746  36.671   7.967
 1785POPC   C4A24546  22.826  36.662   7.535
 1785POPC   C1B24547  23.044  37.229   8.831
 1785POPC   C2B24548  23.154  37.298   8.439
 1785POPC   C3B24549  23.049  37.057   8.099
 1785POPC   C4B24550  23.065  37.147   7.673
 1786POPC   NC324551  16.189  14.583   9.571
 1786POPC   PO424552  15.762  14.091   9.520
 1786POPC   GL124553  15.990  14.283   9.167
 1786POPC   GL224554  15.652  14.387   9.077
 1786POPC   C1A24555  16.265  14.318   8.771
 1786POPC   D2A24556  16.418  14.222   8.331
 1786POPC   C3A24557  16.251  14.368   7.922
 1786POPC   C4A24558  16.038  14.365   7.513
 1786POPC   C1B24559  15.798  14.518   8.696
 1786POPC   C2B24560  15.893  14.428   8.280
 1786POPC   C3B24561  15.823  14.648   7.877
 1786POPC   C4B24562  15.767  14.976   7.556
 1787POPC   NC324563   1.005   7.408   9.562
 1787POPC   PO424564   1.222   8.056   9.577
 1787POPC   GL124565   1.243   7.674   9.201
 1787POPC   GL224566   1.136   7.312   9.085
 1787POPC   C1A24567   1.339   7.603   8.732
 1787POPC   D2A24568   1.306   7.364   8.379
 1787POPC   C3A24569   1.514   7.508   8.031
 1787POPC   C4A24570   1.284   7.765   7.791
 1787POPC   C1B24571   0.915   7.254   8.727
 1787POPC   C2B24572   0.858   7.119   8.329
 1787POPC   C3B24573   1.087   7.213   7.934
 1787POPC   C4B24574   1.013   7.190   7.495
 1788POPC   NC324575  17.663  33.245   9.278
 1788POPC   PO424576  17.431  32.798   9.717
 1788POPC   GL124577  17.349  32.842   9.292
 1788POPC   GL224578  17.142  33.160   9.225
 1788POPC   C1A24579  17.512  32.704   8.875
 1788POPC   D2A24580  17.751  32.929   8.572
 1788POPC   C3A24581  17.625  32.872   8.163
 1788POPC   C4A24582  17.705  33.075   7.754
 1788POPC   C1B24583  17.224  33.122   8.768
 1788POPC   C2B24584  17.106  33.128   8.341
 1788POPC   C3B24585  17.299  33.221   7.980
 1788POPC   C4B24586  17.472  33.572   7.831
 1789POPC   NC324587  14.252   0.760   9.205
 1789POPC   PO424588  14.320   1.377   9.475
 1789POPC   GL124589  14.646   1.156   9.185
 1789POPC   GL224590  14.586   0.920   8.899
 1789POPC   C1A24591  14.839   1.321   8.805
 1789POPC   D2A24592  14.748   1.156   8.411
 1789POPC   C3A24593  14.651   1.404   8.065
 1789POPC   C4A24594  14.655   1.181   7.688
 1789POPC   C1B24595  14.326   1.221   8.738
 1789POPC   C2B24596  14.198   1.245   8.339
 1789POPC   C3B24597  14.212   1.171   7.932
 1789POPC   C4B24598  14.206   1.378   7.562
 1790POPC   NC324599   6.945  17.914   9.485
 1790POPC   PO424600   6.579  17.304   9.503
 1790POPC   GL124601   6.641  17.368   9.139
 1790POPC   GL224602   6.893  17.581   9.112
 1790POPC   C1A24603   6.722  17.233   8.758
 1790POPC   D2A24604   6.518  17.260   8.380
 1790POPC   C3A24605   6.618  17.588   8.089
 1790POPC   C4A24606   6.760  17.561   7.689
 1790POPC   C1B24607   6.985  17.934   8.806
 1790POPC   C2B24608   6.910  18.075   8.356
 1790POPC   C3B24609   6.952  17.995   7.886
 1790POPC   C4B24610   6.721  18.000   7.466
 1791POPC   NC324611  39.771   9.432   9.504
 1791POPC   PO424612  39.829  10.146   9.608
 1791POPC   GL124613  40.135  10.017   9.206
 1791POPC   GL224614  40.251   9.677   9.195
 1791POPC   C1A24615  39.981   9.769   8.793
 1791POPC   D2A24616  39.844   9.611   8.397
 1791POPC   C3A24617  40.006   9.818   8.030
 1791POPC   C4A24618  39.880   9.849   7.593
 1791POPC   C1B24619  40.363   9.417   8.840
 1791POPC   C2B24620  40.340   9.537   8.420
 1791POPC   C3B24621  40.454   9.551   8.011
 1791POPC   C4B24622  40.366   9.740   7.657
 1792POPC   NC324623  24.963  10.215   9.544
 1792POPC   PO424624  25.400  10.632   9.305
 1792POPC   GL124625  25.317  10.322   9.030
 1792POPC   GL224626  25.037  10.357   9.044
 1792POPC   C1A24627  25.353  10.497   8.605
 1792POPC   D2A24628  25.649  10.868   8.494
 1792POPC   C3A24629  25.745  10.898   8.046
 1792POPC   C4A24630  25.469  10.836   7.710
 1792POPC   C1B24631  24.846  10.579   8.737
 1792POPC   C2B24632  24.886  10.693   8.334
 1792POPC   C3B24633  25.146  10.575   7.990
 1792POPC   C4B24634  25.140  10.477   7.523
 1793POPC   NC324635  39.795  15.701   9.775
 1793POPC   PO424636  39.994  15.155   9.396
 1793POPC   GL124637  40.141  15.167   9.058
 1793POPC   GL224638  40.298  14.848   9.021
 1793POPC   C1A24639  40.074  15.334   8.683
 1793POPC   D2A24640  39.817  15.375   8.359
 1793POPC   C3A24641  40.053  15.310   8.018
 1793POPC   C4A24642  39.898  15.241   7.639
 1793POPC   C1B24643  39.993  14.802   8.744
 1793POPC   C2B24644  40.029  14.910   8.337
 1793POPC   C3B24645  39.707  14.937   8.035
 1793POPC   C4B24646  39.790  14.750   7.662
 1794POPC   NC324647  34.181  40.323   9.261
 1794POPC   PO424648  34.570  39.800   9.654
 1794POPC   GL124649  34.612  39.835   9.216
 1794POPC   GL224650  34.253  39.792   9.223
 1794POPC   C1A24651  34.808  40.004   8.799
 1794POPC   D2A24652  34.976  40.319   8.489
 1794POPC   C3A24653  34.815  40.288   8.060
 1794POPC   C4A24654  34.411  40.445   7.870
 1794POPC   C1B24655  34.313  39.870   8.781
 1794POPC   C2B24656  34.326  39.979   8.329
 1794POPC   C3B24657  34.444  39.939   7.895
 1794POPC   C4B24658  34.488  39.723   7.516
 1795POPC   NC324659  12.816  31.209   9.520
 1795POPC   PO424660  12.737  31.841   9.261
 1795POPC   GL124661  12.973  31.485   9.104
 1795POPC   GL224662  13.195  31.663   8.876
 1795POPC   C1A24663  13.003  31.166   8.787
 1795POPC   D2A24664  12.738  31.068   8.419
 1795POPC   C3A24665  12.705  31.339   8.066
 1795POPC   C4A24666  12.965  31.397   7.739
 1795POPC   C1B24667  12.813  31.616   8.626
 1795POPC   C2B24668  12.734  31.810   8.263
 1795POPC   C3B24669  12.890  31.883   7.888
 1795POPC   C4B24670  12.666  31.932   7.544
 1796POPC   NC324671  14.955  24.788   9.535
 1796POPC   PO424672  15.249  24.226   9.331
 1796POPC   GL124673  15.101  24.521   9.027
 1796POPC   GL224674  14.768  24.629   9.082
 1796POPC   C1A24675  15.226  24.461   8.592
 1796POPC   D2A24676  15.464  24.168   8.311
 1796POPC   C3A24677  15.559  24.258   7.868
 1796POPC   C4A24678  15.354  24.405   7.479
 1796POPC   C1B24679  14.812  24.787   8.670
 1796POPC   C2B24680  15.006  24.816   8.275
 1796POPC   C3B24681  15.109  24.612   7.886
 1796POPC   C4B24682  14.851  24.521   7.506
 1797POPC   NC324683  36.988   2.626   9.508
 1797POPC   PO424684  36.647   3.287   9.504
 1797POPC   GL124685  36.807   2.972   9.210
 1797POPC   GL224686  36.578   2.677   9.170
 1797POPC   C1A24687  36.975   2.802   8.842
 1797POPC   D2A24688  37.050   3.057   8.509
 1797POPC   C3A24689  37.022   2.823   8.133
 1797POPC   C4A24690  36.914   3.064   7.786
 1797POPC   C1B24691  36.604   2.448   8.809
 1797POPC   C2B24692  36.813   2.413   8.463
 1797POPC   C3B24693  36.637   2.395   8.103
 1797POPC   C4B24694  36.770   2.508   7.719
 1798POPC   NC324695  18.828  37.784   9.464
 1798POPC   PO424696  19.339  37.453   9.655
 1798POPC   GL124697  19.222  37.549   9.219
 1798POPC   GL224698  19.187  37.940   9.143
 1798POPC   C1A24699  19.185  37.537   8.772
 1798POPC   D2A24700  19.391  37.427   8.409
 1798POPC   C3A24701  19.196  37.194   8.088
 1798POPC   C4A24702  19.138  37.311   7.665
 1798POPC   C1B24703  18.855  37.936   8.815
 1798POPC   C2B24704  18.742  37.746   8.405
 1798POPC   C3B24705  18.831  37.604   7.963
 1798POPC   C4B24706  18.892  37.760   7.530
 1799POPC   NC324707   4.644  24.950   9.512
 1799POPC   PO424708   4.692  24.215   9.541
 1799POPC   GL124709   4.962  24.530   9.258
 1799POPC   GL224710   4.779  24.747   9.070
 1799POPC   C1A24711   5.247  24.639   8.862
 1799POPC   D2A24712   5.385  24.697   8.406
 1799POPC   C3A24713   5.336  24.444   7.995
 1799POPC   C4A24714   5.283  24.676   7.568
 1799POPC   C1B24715   4.776  24.651   8.665
 1799POPC   C2B24716   4.910  24.864   8.307
 1799POPC   C3B24717   4.906  24.669   7.932
 1799POPC   C4B24718   4.781  24.743   7.536
 1800POPC   NC324719  43.740  21.756   9.368
 1800POPC   PO424720  43.992  22.345   9.449
 1800POPC   GL124721  44.051  22.083   9.104
 1800POPC   GL224722  43.717  22.138   9.022
 1800POPC   C1A24723  44.007  21.872   8.694
 1800POPC   D2A24724  43.755  21.824   8.321
 1800POPC   C3A24725  43.957  22.059   8.030
 1800POPC   C4A24726  44.097  22.196   7.646
 1800POPC   C1B24727  43.605  22.251   8.617
 1800POPC   C2B24728  43.557  22.323   8.183
 1800POPC   C3B24729  43.586  22.308   7.718
 1800POPC   C4B24730  43.513  22.427   7.276
 1801POPC   NC324731  28.978  11.779   9.453
 1801POPC   PO424732  29.260  12.290   9.776
 1801POPC   GL124733  29.198  12.178   9.238
 1801POPC   GL224734  29.479  11.999   9.054
 1801POPC   C1A24735  29.038  11.963   8.812
 1801POPC   D2A24736  28.826  11.631   8.521
 1801POPC   C3A24737  28.940  11.681   8.081
 1801POPC   C4A24738  28.953  12.009   7.785
 1801POPC   C1B24739  29.380  12.387   8.796
 1801POPC   C2B24740  29.245  12.468   8.381
 1801POPC   C3B24741  29.334  12.166   8.058
 1801POPC   C4B24742  29.470  11.873   7.714
 1802POPC   NC324743   7.707   4.765   9.338
 1802POPC   PO424744   7.292   4.171   9.484
 1802POPC   GL124745   7.509   4.288   9.138
 1802POPC   GL224746   7.867   4.299   9.144
 1802POPC   C1A24747   7.598   4.074   8.759
 1802POPC   D2A24748   7.468   4.279   8.379
 1802POPC   C3A24749   7.397   4.093   7.974
 1802POPC   C4A24750   7.546   4.345   7.647
 1802POPC   C1B24751   7.780   4.552   8.753
 1802POPC   C2B24752   7.805   4.691   8.376
 1802POPC   C3B24753   7.615   4.709   8.009
 1802POPC   C4B24754   7.813   4.788   7.628
 1803POPC   NC324755  35.436  38.027   9.652
 1803POPC   PO424756  34.893  37.775   9.516
 1803POPC   GL124757  35.162  37.921   9.196
 1803POPC   GL224758  35.412  37.695   9.144
 1803POPC   C1A24759  35.155  37.897   8.727
 1803POPC   D2A24760  35.044  37.651   8.340
 1803POPC   C3A24761  35.312  37.708   7.968
 1803POPC   C4A24762  35.639  37.953   7.742
 1803POPC   C1B24763  35.565  37.515   8.753
 1803POPC   C2B24764  35.703  37.427   8.325
 1803POPC   C3B24765  35.588  37.261   7.924
 1803POPC   C4B24766  35.578  37.454   7.507
 1804POPC   NC324767  19.624   5.271   9.561
 1804POPC   PO424768  20.227   5.015   9.707
 1804POPC   GL124769  20.070   5.037   9.213
 1804POPC   GL224770  19.896   4.728   9.025
 1804POPC   C1A24771  20.039   5.126   8.744
 1804POPC   D2A24772  19.935   4.812   8.385
 1804POPC   C3A24773  19.974   4.986   7.959
 1804POPC   C4A24774  20.018   5.419   7.796
 1804POPC   C1B24775  19.568   4.909   8.736
 1804POPC   C2B24776  19.467   5.298   8.501
 1804POPC   C3B24777  19.555   5.288   8.060
 1804POPC   C4B24778  19.482   4.889   7.846
 1805POPC   NC324779  26.423   4.568   9.436
 1805POPC   PO424780  26.823   4.026   9.646
 1805POPC   GL124781  26.787   4.116   9.189
 1805POPC   GL224782  26.792   4.449   9.125
 1805POPC   C1A24783  26.731   4.117   8.689
 1805POPC   D2A24784  26.796   4.185   8.205
 1805POPC   C3A24785  26.833   3.988   7.780
 1805POPC   C4A24786  27.073   4.156   7.344
 1805POPC   C1B24787  26.948   4.580   8.775
 1805POPC   C2B24788  27.024   4.759   8.432
 1805POPC   C3B24789  27.159   4.542   8.101
 1805POPC   C4B24790  27.014   4.459   7.722
 1806POPC   NC324791  22.004   0.332   9.434
 1806POPC   PO424792  22.655   0.402   9.555
 1806POPC   GL124793  22.444   0.545   9.158
 1806POPC   GL224794  22.130   0.753   9.181
 1806POPC   C1A24795  22.265   0.455   8.743
 1806POPC   D2A24796  22.224   0.197   8.357
 1806POPC   C3A24797  22.116   0.476   8.027
 1806POPC   C4A24798  22.371   0.648   7.719
 1806POPC   C1B24799  21.795   0.693   8.832
 1806POPC   C2B24800  21.724   0.638   8.387
 1806POPC   C3B24801  21.742   0.888   8.000
 1806POPC   C4B24802  21.835   0.700   7.619
 1807POPC   NC324803  30.796  40.522   9.449
 1807POPC   PO424804  30.584  41.220   9.476
 1807POPC   GL124805  30.628  40.894   9.105
 1807POPC   GL224806  30.978  40.890   9.113
 1807POPC   C1A24807  30.623  40.730   8.622
 1807POPC   D2A24808  30.413  40.895   8.216
 1807POPC   C3A24809  30.497  41.057   7.813
 1807POPC   C4A24810  30.359  41.066   7.406
 1807POPC   C1B24811  30.922  41.116   8.728
 1807POPC   C2B24812  30.903  41.053   8.301
 1807POPC   C3B24813  30.878  40.773   7.984
 1807POPC   C4B24814  30.939  40.868   7.582
 1808POPC   NC324815  44.170   3.659   9.417
 1808POPC   PO424816  44.841   3.757   9.485
 1808POPC   GL124817  44.826   3.535   9.096
 1808POPC   GL224818  44.972   3.187   9.047
 1808POPC   C1A24819  44.585   3.637   8.731
 1808POPC   D2A24820  44.358   3.499   8.385
 1808POPC   C3A24821  44.428   3.762   8.073
 1808POPC   C4A24822  44.461   3.642   7.682
 1808POPC   C1B24823   0.062   3.402   8.657
 1808POPC   C2B24824  44.868   3.615   8.305
 1808POPC   C3B24825  44.947   3.651   7.881
 1808POPC   C4B24826   0.046   3.454   7.511
 1809POPC   NC324827  41.891  12.200   9.382
 1809POPC   PO424828  41.298  12.374   9.423
 1809POPC   GL124829  41.305  12.185   9.075
 1809POPC   GL224830  41.379  11.833   9.176
 1809POPC   C1A24831  41.416  12.362   8.680
 1809POPC   D2A24832  41.694  12.535   8.410
 1809POPC   C3A24833  41.730  12.247   8.101
 1809POPC   C4A24834  41.598  12.266   7.721
 1809POPC   C1B24835  41.597  11.876   8.780
 1809POPC   C2B24836  41.401  11.954   8.384
 1809POPC   C3B24837  41.394  11.752   8.019
 1809POPC   C4B24838  41.708  11.762   7.753
 1810POPC   NC324839   0.927   2.111   9.485
 1810POPC   PO424840   1.505   2.257   9.732
 1810POPC   GL124841   1.404   2.163   9.247
 1810POPC   GL224842   1.134   1.972   9.047
 1810POPC   C1A24843   1.559   2.038   8.786
 1810POPC   D2A24844   1.327   1.785   8.450
 1810POPC   C3A24845   1.336   1.846   7.975
 1810POPC   C4A24846   1.304   1.713   7.524
 1810POPC   C1B24847   0.849   1.938   8.684
 1810POPC   C2B24848   0.929   2.048   8.270
 1810POPC   C3B24849   1.010   2.247   7.872
 1810POPC   C4B24850   0.850   1.981   7.536
 1811POPC   NC324851  26.067  17.227   9.491
 1811POPC   PO424852  25.689  17.824   9.539
 1811POPC   GL124853  25.915  17.876   9.173
 1811POPC   GL224854  26.293  17.836   9.175
 1811POPC   C1A24855  25.880  17.651   8.799
 1811POPC   D2A24856  26.037  17.451   8.416
 1811POPC   C3A24857  25.754  17.454   8.055
 1811POPC   C4A24858  25.840  17.161   7.709
 1811POPC   C1B24859  26.361  17.865   8.722
 1811POPC   C2B24860  26.484  17.698   8.293
 1811POPC   C3B24861  26.316  17.410   7.957
 1811POPC   C4B24862  26.264  17.483   7.526
 1812POPC   NC324863  15.426  19.658   9.555
 1812POPC   PO424864  15.188  20.259   9.499
 1812POPC   GL124865  15.150  19.972   9.161
 1812POPC   GL224866  15.489  19.865   9.071
 1812POPC   C1A24867  15.083  19.865   8.716
 1812POPC   D2A24868  14.823  19.908   8.331
 1812POPC   C3A24869  15.039  19.877   7.958
 1812POPC   C4A24870  15.155  19.592   7.621
 1812POPC   C1B24871  15.596  19.787   8.625
 1812POPC   C2B24872  15.503  19.728   8.169
 1812POPC   C3B24873  15.631  19.577   7.750
 1812POPC   C4B24874  15.549  19.577   7.284
 1813POPC   NC324875  19.249  17.577   9.456
 1813POPC   PO424876  19.645  17.064   9.454
 1813POPC   GL124877  19.257  17.191   9.154
 1813POPC   GL224878  18.892  17.302   9.202
 1813POPC   C1A24879  19.281  17.492   8.777
 1813POPC   D2A24880  19.096  17.647   8.397
 1813POPC   C3A24881  19.324  17.591   8.032
 1813POPC   C4A24882  19.248  17.261   7.732
 1813POPC   C1B24883  18.778  17.433   8.785
 1813POPC   C2B24884  18.772  17.255   8.370
 1813POPC   C3B24885  18.806  17.433   7.954
 1813POPC   C4B24886  18.787  17.394   7.501
 1814POPC   NC324887  44.854   8.538   9.397
 1814POPC   PO424888  44.397   8.000   9.466
 1814POPC   GL124889  44.465   8.297   9.130
 1814POPC   GL224890  44.799   8.121   9.086
 1814POPC   C1A24891  44.604   8.403   8.685
 1814POPC   D2A24892  44.709   8.150   8.303
 1814POPC   C3A24893  44.895   8.339   7.928
 1814POPC   C4A24894  44.943   8.404   7.466
 1814POPC   C1B24895  44.529   7.897   8.765
 1814POPC   C2B24896  44.636   7.642   8.389
 1814POPC   C3B24897  44.856   7.739   7.984
 1814POPC   C4B24898  44.883   7.901   7.544
 1815POPC   NC324899   8.414  14.227   9.373
 1815POPC   PO424900   8.051  14.776   9.538
 1815POPC   GL124901   8.182  14.641   9.113
 1815POPC   GL224902   8.170  14.276   8.944
 1815POPC   C1A24903   8.352  14.682   8.704
 1815POPC   D2A24904   8.446  14.469   8.336
 1815POPC   C3A24905   8.352  14.665   7.939
 1815POPC   C4A24906   8.011  14.442   7.735
 1815POPC   C1B24907   8.577  14.131   8.726
 1815POPC   C2B24908   8.628  13.958   8.284
 1815POPC   C3B24909   8.397  14.124   7.925
 1815POPC   C4B24910   8.557  14.359   7.574
 1816POPC   NC324911  44.305  41.339   9.356
 1816POPC   PO424912  43.655  41.623   9.400
 1816POPC   GL124913  43.880  41.490   9.082
 1816POPC   GL224914  44.063  41.777   9.121
 1816POPC   C1A24915  43.837  41.436   8.657
 1816POPC   D2A24916  43.570  41.248   8.397
 1816POPC   C3A24917  43.868  41.223   8.088
 1816POPC   C4A24918  43.897  41.377   7.694
 1816POPC   C1B24919  44.279  41.660   8.741
 1816POPC   C2B24920  44.286  41.423   8.341
 1816POPC   C3B24921  44.306  41.629   7.925
 1816POPC   C4B24922  44.521  41.660   7.520
 1817POPC   NC324923  36.952  27.927   9.511
 1817POPC   PO424924  37.147  27.373   9.785
 1817POPC   GL124925  37.093  27.439   9.308
 1817POPC   GL224926  36.798  27.565   9.173
 1817POPC   C1A24927  37.094  27.257   8.857
 1817POPC   D2A24928  36.955  27.392   8.428
 1817POPC   C3A24929  36.998  27.456   7.984
 1817POPC   C4A24930  37.121  27.269   7.597
 1817POPC   C1B24931  36.749  27.713   8.755
 1817POPC   C2B24932  36.580  27.786   8.351
 1817POPC   C3B24933  36.518  27.599   7.933
 1817POPC   C4B24934  36.816  27.677   7.559
 1818POPC   NC324935  20.868  27.239   9.251
 1818POPC   PO424936  20.752  26.644   9.604
 1818POPC   GL124937  20.566  26.562   9.213
 1818POPC   GL224938  20.646  26.843   9.005
 1818POPC   C1A24939  20.296  26.500   8.848
 1818POPC   D2A24940  20.467  26.737   8.506
 1818POPC   C3A24941  20.423  26.642   8.075
 1818POPC   C4A24942  20.563  26.671   7.669
 1818POPC   C1B24943  20.906  27.011   8.641
 1818POPC   C2B24944  20.794  27.027   8.203
 1818POPC   C3B24945  20.874  27.172   7.801
 1818POPC   C4B24946  20.748  27.096   7.425
 1819POPC   NC324947  41.157   6.654   9.637
 1819POPC   PO424948  40.691   6.414   9.158
 1819POPC   GL124949  40.605   6.655   8.890
 1819POPC   GL224950  40.500   6.955   9.075
 1819POPC   C1A24951  40.656   6.540   8.469
 1819POPC   D2A24952  41.024   6.606   8.217
 1819POPC   C3A24953  40.947   6.664   7.808
 1819POPC   C4A24954  41.090   6.486   7.427
 1819POPC   C1B24955  40.349   6.970   8.613
 1819POPC   C2B24956  40.579   6.987   8.243
 1819POPC   C3B24957  40.533   7.026   7.835
 1819POPC   C4B24958  40.602   6.829   7.486
 1820POPC   NC324959  24.257  26.840   9.745
 1820POPC   PO424960  23.614  26.638   9.552
 1820POPC   GL124961  23.809  26.912   9.248
 1820POPC   GL224962  23.779  26.641   9.038
 1820POPC   C1A24963  23.748  27.085   8.795
 1820POPC   D2A24964  23.724  26.797   8.437
 1820POPC   C3A24965  23.615  26.964   8.014
 1820POPC   C4A24966  23.600  26.763   7.583
 1820POPC   C1B24967  24.122  26.743   8.771
 1820POPC   C2B24968  24.274  26.773   8.388
 1820POPC   C3B24969  24.060  26.722   8.046
 1820POPC   C4B24970  24.039  26.963   7.709
 1821POPC   NC324971   2.428  34.370   9.550
 1821POPC   PO424972   3.092  34.421   9.532
 1821POPC   GL124973   2.827  34.624   9.200
 1821POPC   GL224974   2.473  34.575   9.059
 1821POPC   C1A24975   2.872  34.734   8.769
 1821POPC   D2A24976   2.822  34.559   8.387
 1821POPC   C3A24977   2.851  34.773   8.036
 1821POPC   C4A24978   2.823  34.710   7.608
 1821POPC   C1B24979   2.418  34.356   8.642
 1821POPC   C2B24980   2.655  34.084   8.339
 1821POPC   C3B24981   2.728  34.263   7.943
 1821POPC   C4B24982   2.400  34.438   7.677
 1822POPC   NC324983   2.371  38.404   9.643
 1822POPC   PO424984   2.954  38.600   9.422
 1822POPC   GL124985   2.813  38.302   9.177
 1822POPC   GL224986   2.471  38.352   9.131
 1822POPC   C1A24987   2.937  38.220   8.763
 1822POPC   D2A24988   2.718  38.230   8.371
 1822POPC   C3A24989   2.889  38.450   8.046
 1822POPC   C4A24990   3.027  38.483   7.635
 1822POPC   C1B24991   2.561  38.570   8.760
 1822POPC   C2B24992   2.398  38.643   8.338
 1822POPC   C3B24993   2.420  38.540   7.900
 1822POPC   C4B24994   2.597  38.771   7.526
 1823POPC   NC324995  29.878   5.639   9.531
 1823POPC   PO424996  30.020   6.281   9.618
 1823POPC   GL124997  30.106   6.002   9.225
 1823POPC   GL224998  29.824   5.926   9.059
 1823POPC   C1A24999  30.227   5.772   8.814
 1823POPC   D2A25000  30.287   5.524   8.444
 1823POPC   C3A25001  30.104   5.695   8.064
 1823POPC   C4A25002  30.037   5.507   7.689
 1823POPC   C1B25003  29.670   6.050   8.672
 1823POPC   C2B25004  29.581   5.850   8.284
 1823POPC   C3B25005  29.483   5.787   7.847
 1823POPC   C4B25006  29.721   5.909   7.492
 1824POPC   NC325007  26.277   2.999   9.329
 1824POPC   PO425008  26.063   2.310   9.234
 1824POPC   GL125009  25.983   2.691   9.047
 1824POPC   GL225010  26.347   2.629   8.982
 1824POPC   C1A25011  25.866   2.928   8.655
 1824POPC   D2A25012  25.718   2.702   8.258
 1824POPC   C3A25013  25.933   2.778   7.864
 1824POPC   C4A25014  26.110   2.960   7.451
 1824POPC   C1B25015  26.220   2.553   8.593
 1824POPC   C2B25016  26.251   2.875   8.296
 1824POPC   C3B25017  26.389   2.976   7.899
 1824POPC   C4B25018  26.531   2.694   7.563
 1825POPC   NC325019  36.865  38.546   9.469
 1825POPC   PO425020  37.442  38.167   9.567
 1825POPC   GL125021  37.188  38.246   9.178
 1825POPC   GL225022  37.148  38.600   9.063
 1825POPC   C1A25023  37.011  38.166   8.764
 1825POPC   D2A25024  37.074  38.120   8.344
 1825POPC   C3A25025  36.873  38.221   7.952
 1825POPC   C4A25026  36.715  38.385   7.603
 1825POPC   C1B25027  36.852  38.640   8.722
 1825POPC   C2B25028  36.957  38.618   8.299
 1825POPC   C3B25029  36.826  38.767   7.926
 1825POPC   C4B25030  36.891  38.876   7.487
 1826POPC   NC325031  14.489  29.577   9.318
 1826POPC   PO425032  14.624  28.878   9.307
 1826POPC   GL125033  14.569  28.895   8.923
 1826POPC   GL225034  14.341  29.174   8.993
 1826POPC   C1A25035  14.792  29.044   8.573
 1826POPC   D2A25036  14.582  29.104   8.186
 1826POPC   C3A25037  14.614  28.858   7.817
 1826POPC   C4A25038  14.234  29.004   7.588
 1826POPC   C1B25039  14.128  29.487   8.780
 1826POPC   C2B25040  14.018  29.415   8.380
 1826POPC   C3B25041  14.151  29.377   7.987
 1826POPC   C4B25042  13.817  29.319   7.723
 1827POPC   NC325043  25.319  17.503   9.521
 1827POPC   PO425044  25.039  18.193   9.519
 1827POPC   GL125045  25.072  17.856   9.191
 1827POPC   GL225046  25.426  17.735   9.077
 1827POPC   C1A25047  25.033  17.612   8.802
 1827POPC   D2A25048  25.314  17.501   8.478
 1827POPC   C3A25049  25.181  17.521   8.064
 1827POPC   C4A25050  25.343  17.288   7.744
 1827POPC   C1B25051  25.460  17.959   8.669
 1827POPC   C2B25052  25.473  17.942   8.205
 1827POPC   C3B25053  25.504  17.821   7.774
 1827POPC   C4B25054  25.789  17.634   7.543
 1828POPC   NC325055  37.411  39.383   9.418
 1828POPC   PO425056  37.903  39.053   9.522
 1828POPC   GL125057  37.866  39.033   9.122
 1828POPC   GL225058  37.556  38.897   9.094
 1828POPC   C1A25059  37.708  39.329   8.837
 1828POPC   D2A25060  37.829  39.500   8.490
 1828POPC   C3A25061  37.607  39.365   8.147
 1828POPC   C4A25062  37.702  39.264   7.724
 1828POPC   C1B25063  37.709  38.833   8.680
 1828POPC   C2B25064  37.815  38.911   8.272
 1828POPC   C3B25065  37.567  38.800   7.925
 1828POPC   C4B25066  37.623  38.823   7.481
 1829POPC   NC325067  14.683  23.757   9.707
 1829POPC   PO425068  15.285  23.639   9.516
 1829POPC   GL125069  15.114  23.745   9.146
 1829POPC   GL225070  15.105  23.412   9.067
 1829POPC   C1A25071  15.196  23.940   8.735
 1829POPC   D2A25072  15.058  23.853   8.318
 1829POPC   C3A25073  15.362  23.648   8.030
 1829POPC   C4A25074  15.390  23.781   7.591
 1829POPC   C1B25075  15.147  23.430   8.612
 1829POPC   C2B25076  14.959  23.359   8.202
 1829POPC   C3B25077  14.876  23.599   7.816
 1829POPC   C4B25078  15.018  23.486   7.369
 1830POPC   NC325079  13.402  38.016   9.318
 1830POPC   PO425080  13.807  38.485   9.613
 1830POPC   GL125081  13.675  38.453   9.179
 1830POPC   GL225082  13.868  38.171   9.059
 1830POPC   C1A25083  13.799  38.578   8.749
 1830POPC   D2A25084  13.573  38.578   8.380
 1830POPC   C3A25085  13.709  38.512   7.969
 1830POPC   C4A25086  13.439  38.509   7.589
 1830POPC   C1B25087  13.540  38.143   8.707
 1830POPC   C2B25088  13.332  37.889   8.409
 1830POPC   C3B25089  13.328  37.994   7.973
 1830POPC   C4B25090  13.646  38.073   7.718
 1831POPC   NC325091  40.361  35.582   9.512
 1831POPC   PO425092  40.870  35.213   9.586
 1831POPC   GL125093  40.994  35.141   9.185
 1831POPC   GL225094  40.712  34.937   9.104
 1831POPC   C1A25095  40.857  35.430   8.864
 1831POPC   D2A25096  40.918  35.404   8.419
 1831POPC   C3A25097  40.612  35.532   8.107
 1831POPC   C4A25098  40.803  35.533   7.725
 1831POPC   C1B25099  40.961  34.955   8.720
 1831POPC   C2B25100  40.828  34.890   8.320
 1831POPC   C3B25101  40.684  35.034   7.914
 1831POPC   C4B25102  40.577  35.154   7.477
 1832POPC   NC325103  41.627  28.146   9.676
 1832POPC   PO425104  42.101  27.764   9.474
 1832POPC   GL125105  41.643  28.024   9.210
 1832POPC   GL225106  41.632  28.386   9.203
 1832POPC   C1A25107  41.410  28.092   8.804
 1832POPC   D2A25108  41.675  28.109   8.422
 1832POPC   C3A25109  41.489  28.292   8.050
 1832POPC   C4A25110  41.277  28.050   7.739
 1832POPC   C1B25111  41.799  28.440   8.796
 1832POPC   C2B25112  41.745  28.644   8.411
 1832POPC   C3B25113  41.768  28.754   8.015
 1832POPC   C4B25114  41.726  28.530   7.653
 1833POPC   NC325115  36.103  41.160   9.496
 1833POPC   PO425116  36.290  40.480   9.562
 1833POPC   GL125117  36.176  40.614   9.154
 1833POPC   GL225118  36.077  40.950   9.051
 1833POPC   C1A25119  36.121  40.572   8.718
 1833POPC   D2A25120  36.232  40.852   8.412
 1833POPC   C3A25121  36.187  40.674   8.025
 1833POPC   C4A25122  36.449  40.578   7.707
 1833POPC   C1B25123  35.831  41.046   8.704
 1833POPC   C2B25124  35.918  41.247   8.346
 1833POPC   C3B25125  35.870  41.066   7.968
 1833POPC   C4B25126  35.859  41.246   7.603
 1834POPC   NC325127  24.138  36.585   9.822
 1834POPC   PO425128  24.410  36.001   9.519
 1834POPC   GL125129  24.374  36.107   9.146
 1834POPC   GL225130  24.705  36.249   9.191
 1834POPC   C1A25131  24.328  35.952   8.766
 1834POPC   D2A25132  24.490  36.058   8.391
 1834POPC   C3A25133  24.305  35.984   7.998
 1834POPC   C4A25134  24.208  36.378   7.836
 1834POPC   C1B25135  24.792  36.377   8.806
 1834POPC   C2B25136  24.917  36.345   8.403
 1834POPC   C3B25137  24.735  36.407   8.032
 1834POPC   C4B25138  24.667  36.225   7.677
 1835POPC   NC325139   4.420  11.474   9.740
 1835POPC   PO425140   3.929  11.047   9.456
 1835POPC   GL125141   4.278  11.126   9.191
 1835POPC   GL225142   4.479  11.458   9.208
 1835POPC   C1A25143   4.161  11.236   8.783
 1835POPC   D2A25144   4.207  11.532   8.468
 1835POPC   C3A25145   4.044  11.374   8.095
 1835POPC   C4A25146   4.216  11.029   7.837
 1835POPC   C1B25147   4.664  11.227   8.824
 1835POPC   C2B25148   4.812  11.385   8.423
 1835POPC   C3B25149   4.539  11.476   8.041
 1835POPC   C4B25150   4.459  11.645   7.636
 1836POPC   NC325151   4.755  41.760   9.653
 1836POPC   PO425152   4.101  41.628   9.405
 1836POPC   GL125153   4.419  41.556   9.128
 1836POPC   GL225154   4.175  41.290   9.008
 1836POPC   C1A25155   4.562  41.799   8.762
 1836POPC   D2A25156   4.266  41.834   8.389
 1836POPC   C3A25157   4.372  41.717   7.954
 1836POPC   C4A25158   4.304  41.776   7.503
 1836POPC   C1B25159   4.317  41.371   8.649
 1836POPC   C2B25160   4.134  41.331   8.300
 1836POPC   C3B25161   4.001  41.324   7.916
 1836POPC   C4B25162   4.183  41.285   7.511
 1837POPC   NC325163  26.382  11.045   9.403
 1837POPC   PO425164  25.877  11.505   9.409
 1837POPC   GL125165  25.780  11.394   9.017
 1837POPC   GL225166  25.901  11.043   8.961
 1837POPC   C1A25167  26.060  11.441   8.690
 1837POPC   D2A25168  26.066  11.186   8.345
 1837POPC   C3A25169  25.903  11.399   7.991
 1837POPC   C4A25170  25.656  11.291   7.645
 1837POPC   C1B25171  26.304  10.903   8.736
 1837POPC   C2B25172  26.511  10.929   8.305
 1837POPC   C3B25173  26.244  10.977   7.906
 1837POPC   C4B25174  26.281  11.090   7.455
 1838POPC   NC325175   9.711   7.089   9.749
 1838POPC   PO425176   9.892   6.573   9.334
 1838POPC   GL125177   9.826   6.612   8.925
 1838POPC   GL225178   9.567   6.359   8.918
 1838POPC   C1A25179   9.844   6.937   8.560
 1838POPC   D2A25180   9.803   6.921   8.085
 1838POPC   C3A25181   9.880   6.474   7.892
 1838POPC   C4A25182  10.245   6.159   7.886
 1838POPC   C1B25183   9.400   6.746   8.716
 1838POPC   C2B25184   9.327   7.029   8.435
 1838POPC   C3B25185   9.262   7.002   8.022
 1838POPC   C4B25186   9.475   6.947   7.668
 1839POPC   NC325187  27.277  37.917   9.556
 1839POPC   PO425188  27.980  37.676   9.637
 1839POPC   GL125189  27.845  37.530   9.224
 1839POPC   GL225190  27.529  37.337   9.263
 1839POPC   C1A25191  27.854  37.657   8.801
 1839POPC   D2A25192  27.885  37.992   8.499
 1839POPC   C3A25193  27.606  37.963   8.110
 1839POPC   C4A25194  27.621  37.721   7.723
 1839POPC   C1B25195  27.320  37.491   8.889
 1839POPC   C2B25196  27.408  37.679   8.501
 1839POPC   C3B25197  27.355  37.501   8.090
 1839POPC   C4B25198  27.328  37.252   7.723
 1840POPC   NC325199  44.305  27.029   9.477
 1840POPC   PO425200  44.824  26.574   9.599
 1840POPC   GL125201  44.754  26.818   9.194
 1840POPC   GL225202  44.690  27.204   9.159
 1840POPC   C1A25203  44.573  26.731   8.772
 1840POPC   D2A25204  44.325  26.648   8.387
 1840POPC   C3A25205  44.574  26.670   8.004
 1840POPC   C4A25206  44.682  26.664   7.579
 1840POPC   C1B25207  44.464  27.232   8.748
 1840POPC   C2B25208  44.614  27.098   8.337
 1840POPC   C3B25209  44.740  27.141   7.890
 1840POPC   C4B25210  44.805  27.133   7.439
 1841POPC   NC325211  26.472  36.265   9.485
 1841POPC   PO425212  27.081  36.531   9.307
 1841POPC   GL125213  26.801  36.357   9.086
 1841POPC   GL225214  26.778  36.017   9.184
 1841POPC   C1A25215  26.915  36.287   8.691
 1841POPC   D2A25216  27.123  36.317   8.335
 1841POPC   C3A25217  26.848  36.395   8.016
 1841POPC   C4A25218  26.773  36.086   7.726
 1841POPC   C1B25219  26.811  35.808   8.807
 1841POPC   C2B25220  26.908  35.840   8.383
 1841POPC   C3B25221  26.788  35.648   8.028
 1841POPC   C4B25222  26.607  35.628   7.643
 1842POPC   NC325223  18.734  22.547   9.560
 1842POPC   PO425224  18.270  22.987   9.755
 1842POPC   GL125225  18.371  22.927   9.285
 1842POPC   GL225226  18.581  23.181   9.116
 1842POPC   C1A25227  18.247  22.947   8.812
 1842POPC   D2A25228  18.019  23.088   8.416
 1842POPC   C3A25229  18.183  22.862   8.068
 1842POPC   C4A25230  18.307  22.756   7.640
 1842POPC   C1B25231  18.717  23.253   8.744
 1842POPC   C2B25232  18.532  23.166   8.373
 1842POPC   C3B25233  18.560  23.225   7.963
 1842POPC   C4B25234  18.845  23.448   7.742
 1843POPC   NC325235  21.000  24.717   9.485
 1843POPC   PO425236  20.439  24.239   9.443
 1843POPC   GL125237  20.617  24.464   9.122
 1843POPC   GL225238  20.955  24.335   9.138
 1843POPC   C1A25239  20.438  24.601   8.708
 1843POPC   D2A25240  20.206  24.735   8.332
 1843POPC   C3A25241  20.362  24.609   7.948
 1843POPC   C4A25242  20.261  24.735   7.564
 1843POPC   C1B25243  20.944  24.601   8.745
 1843POPC   C2B25244  20.766  24.744   8.307
 1843POPC   C3B25245  20.869  24.665   7.870
 1843POPC   C4B25246  21.001  24.305   7.584
 1844POPC   NC325247  19.696  20.520   9.491
 1844POPC   PO425248  20.282  20.800   9.700
 1844POPC   GL125249  20.095  20.715   9.248
 1844POPC   GL225250  19.758  20.735   9.053
 1844POPC   C1A25251  20.156  20.663   8.788
 1844POPC   D2A25252  19.877  20.746   8.454
 1844POPC   C3A25253  20.126  20.728   8.094
 1844POPC   C4A25254  20.393  20.852   7.759
 1844POPC   C1B25255  19.542  20.457   8.762
 1844POPC   C2B25256  19.294  20.354   8.387
 1844POPC   C3B25257  19.399  20.474   7.959
 1844POPC   C4B25258  19.767  20.617   7.731
 1845POPC   NC325259  37.929  41.365   9.296
 1845POPC   PO425260  37.429  41.605   9.653
 1845POPC   GL125261  37.402  41.723   9.183
 1845POPC   GL225262  37.712  41.781   9.043
 1845POPC   C1A25263  37.402  41.437   8.788
 1845POPC   D2A25264  37.259  41.146   8.432
 1845POPC   C3A25265  37.436  41.241   8.011
 1845POPC   C4A25266  37.813  41.285   7.738
 1845POPC   C1B25267  37.844  41.627   8.616
 1845POPC   C2B25268  37.899  41.574   8.173
 1845POPC   C3B25269  37.977  41.843   7.821
 1845POPC   C4B25270  37.888  41.727   7.409
 1846POPC   NC325271  22.885  32.788   9.523
 1846POPC   PO425272  22.934  32.017   9.433
 1846POPC   GL125273  22.767  32.246   9.092
 1846POPC   GL225274  22.711  32.630   9.076
 1846POPC   C1A25275  23.081  32.391   8.796
 1846POPC   D2A25276  23.110  32.600   8.427
 1846POPC   C3A25277  23.083  32.313   8.066
 1846POPC   C4A25278  23.153  32.218   7.684
 1846POPC   C1B25279  22.587  32.494   8.668
 1846POPC   C2B25280  22.611  32.355   8.248
 1846POPC   C3B25281  22.583  32.555   7.859
 1846POPC   C4B25282  22.584  33.020   7.813
 1847POPC   NC325283   3.498  30.963   9.556
 1847POPC   PO425284   3.944  30.537   9.348
 1847POPC   GL125285   3.690  30.819   9.093
 1847POPC   GL225286   3.292  30.895   9.105
 1847POPC   C1A25287   3.830  30.832   8.690
 1847POPC   D2A25288   3.692  30.977   8.328
 1847POPC   C3A25289   3.599  30.737   8.004
 1847POPC   C4A25290   3.519  30.859   7.597
 1847POPC   C1B25291   3.316  30.808   8.677
 1847POPC   C2B25292   3.149  30.960   8.295
 1847POPC   C3B25293   3.106  30.779   7.907
 1847POPC   C4B25294   3.108  30.335   7.803
 1848POPC   NC325295  44.060  28.866   9.756
 1848POPC   PO425296  43.934  28.146   9.568
 1848POPC   GL125297  43.996  27.998   9.150
 1848POPC   GL225298  43.942  28.332   9.058
 1848POPC   C1A25299  43.905  28.003   8.680
 1848POPC   D2A25300  43.623  28.098   8.345
 1848POPC   C3A25301  43.863  28.293   8.024
 1848POPC   C4A25302  44.114  28.114   7.712
 1848POPC   C1B25303  43.787  28.494   8.665
 1848POPC   C2B25304  44.058  28.718   8.444
 1848POPC   C3B25305  44.135  28.745   8.052
 1848POPC   C4B25306  44.098  28.609   7.676
 1849POPC   NC325307   5.021  35.786   9.539
 1849POPC   PO425308   4.692  35.220   9.495
 1849POPC   GL125309   5.043  35.302   9.187
 1849POPC   GL225310   5.407  35.111   9.211
 1849POPC   C1A25311   5.071  35.568   8.788
 1849POPC   D2A25312   4.769  35.599   8.411
 1849POPC   C3A25313   4.929  35.507   7.987
 1849POPC   C4A25314   5.317  35.551   7.752
 1849POPC   C1B25315   5.235  35.066   8.780
 1849POPC   C2B25316   5.245  35.268   8.375
 1849POPC   C3B25317   5.251  35.091   7.964
 1849POPC   C4B25318   4.986  35.115   7.620
 1850POPC   NC325319   4.054  18.577   9.586
 1850POPC   PO425320   4.638  18.261   9.521
 1850POPC   GL125321   4.430  18.349   9.127
 1850POPC   GL225322   4.093  18.273   9.132
 1850POPC   C1A25323   4.300  18.324   8.673
 1850POPC   D2A25324   4.520  18.220   8.325
 1850POPC   C3A25325   4.533  18.510   8.010
 1850POPC   C4A25326   4.318  18.433   7.665
 1850POPC   C1B25327   3.810  18.469   8.835
 1850POPC   C2B25328   3.730  18.331   8.407
 1850POPC   C3B25329   4.052  18.250   8.101
 1850POPC   C4B25330   3.991  17.999   7.757
 1851POPC   NC325331  42.150  42.660   9.554
 1851POPC   PO425332  42.295  41.998   9.478
 1851POPC   GL125333  42.185  42.176   9.096
 1851POPC   GL225334  42.353  42.466   9.114
 1851POPC   C1A25335  42.453  42.134   8.712
 1851POPC   D2A25336  42.655  42.011   8.298
 1851POPC   C3A25337  42.412  42.117   7.913
 1851POPC   C4A25338  42.576  42.279   7.495
 1851POPC   C1B25339  42.499  42.650   8.763
 1851POPC   C2B25340  42.406  42.487   8.354
 1851POPC   C3B25341  42.466  42.615   7.968
 1851POPC   C4B25342  42.222  42.915   7.851
 1852POPC   NC325343  22.051  40.221   9.507
 1852POPC   PO425344  22.497  39.740   9.504
 1852POPC   GL125345  22.312  39.956   9.145
 1852POPC   GL225346  22.137  40.289   9.024
 1852POPC   C1A25347  22.025  39.833   8.844
 1852POPC   D2A25348  22.024  40.101   8.498
 1852POPC   C3A25349  22.018  39.828   8.131
 1852POPC   C4A25350  21.992  39.940   7.707
 1852POPC   C1B25351  22.440  40.364   8.741
 1852POPC   C2B25352  22.506  40.189   8.359
 1852POPC   C3B25353  22.302  40.263   7.977
 1852POPC   C4B25354  22.478  40.127   7.616
 1853POPC   NC325355  11.252   7.611   9.640
 1853POPC   PO425356  11.574   7.193   9.247
 1853POPC   GL125357  11.333   7.504   9.147
 1853POPC   GL225358  11.524   7.770   9.222
 1853POPC   C1A25359  11.159   7.739   8.828
 1853POPC   D2A25360  11.017   7.802   8.423
 1853POPC   C3A25361  11.026   7.449   8.165
 1853POPC   C4A25362  11.223   7.570   7.811
 1853POPC   C1B25363  11.671   7.678   8.772
 1853POPC   C2B25364  11.494   7.573   8.369
 1853POPC   C3B25365  11.662   7.396   7.984
 1853POPC   C4B25366  11.625   7.479   7.536
 1854POPC   NC325367  43.727   2.000   9.471
 1854POPC   PO425368  44.383   2.198   9.671
 1854POPC   GL125369  44.223   1.923   9.171
 1854POPC   GL225370  43.893   1.984   9.011
 1854POPC   C1A25371  44.242   1.886   8.691
 1854POPC   D2A25372  43.942   2.147   8.457
 1854POPC   C3A25373  43.955   1.982   8.043
 1854POPC   C4A25374  43.659   2.102   7.729
 1854POPC   C1B25375  43.752   1.725   8.675
 1854POPC   C2B25376  43.551   1.818   8.313
 1854POPC   C3B25377  43.567   1.631   7.915
 1854POPC   C4B25378  43.467   1.717   7.474
 1855POPC   NC325379   2.592  11.533   9.460
 1855POPC   PO425380   3.034  10.986   9.468
 1855POPC   GL125381   2.870  11.234   9.116
 1855POPC   GL225382   2.529  11.250   9.020
 1855POPC   C1A25383   2.909  11.402   8.686
 1855POPC   D2A25384   2.935  11.196   8.282
 1855POPC   C3A25385   3.047  11.457   7.931
 1855POPC   C4A25386   2.962  11.477   7.491
 1855POPC   C1B25387   2.559  10.997   8.652
 1855POPC   C2B25388   2.456  10.964   8.220
 1855POPC   C3B25389   2.589  11.185   7.857
 1855POPC   C4B25390   2.469  11.383   7.480
 1856POPC   NC325391   3.487  11.149   9.582
 1856POPC   PO425392   3.723  11.756   9.603
 1856POPC   GL125393   3.520  11.510   9.228
 1856POPC   GL225394   3.199  11.628   9.162
 1856POPC   C1A25395   3.638  11.201   8.848
 1856POPC   D2A25396   3.832  11.006   8.432
 1856POPC   C3A25397   3.638  11.047   8.000
 1856POPC   C4A25398   3.810  11.286   7.643
 1856POPC   C1B25399   3.365  11.633   8.756
 1856POPC   C2B25400   3.444  11.416   8.386
 1856POPC   C3B25401   3.558  11.540   8.008
 1856POPC   C4B25402   3.434  11.640   7.591
 1857POPC   NC325403  34.305  31.653   9.774
 1857POPC   PO425404  33.756  31.246   9.660
 1857POPC   GL125405  33.621  31.361   9.241
 1857POPC   GL225406  33.936  31.449   9.191
 1857POPC   C1A25407  33.703  31.248   8.790
 1857POPC   D2A25408  33.878  30.987   8.482
 1857POPC   C3A25409  33.882  31.194   8.099
 1857POPC   C4A25410  33.743  31.184   7.668
 1857POPC   C1B25411  33.986  31.692   8.825
 1857POPC   C2B25412  33.852  31.701   8.411
 1857POPC   C3B25413  33.994  31.682   8.013
 1857POPC   C4B25414  33.845  31.691   7.576
 1858POPC   NC325415   5.568   2.600   9.432
 1858POPC   PO425416   5.884   3.241   9.517
 1858POPC   GL125417   5.956   3.075   9.074
 1858POPC   GL225418   6.169   2.774   9.023
 1858POPC   C1A25419   5.770   2.880   8.679
 1858POPC   D2A25420   5.601   2.596   8.338
 1858POPC   C3A25421   5.686   2.821   7.982
 1858POPC   C4A25422   5.995   2.966   7.726
 1858POPC   C1B25423   6.120   2.503   8.691
 1858POPC   C2B25424   6.132   2.609   8.282
 1858POPC   C3B25425   6.300   2.598   7.915
 1858POPC   C4B25426   5.943   2.444   7.755
 1859POPC   NC325427  37.440  15.945   9.662
 1859POPC   PO425428  38.034  16.085   9.466
 1859POPC   GL125429  37.789  15.870   9.136
 1859POPC   GL225430  37.424  15.875   9.142
 1859POPC   C1A25431  37.690  15.987   8.697
 1859POPC   D2A25432  37.899  16.090   8.300
 1859POPC   C3A25433  37.760  15.899   7.928
 1859POPC   C4A25434  37.573  15.899   7.529
 1859POPC   C1B25435  37.294  15.694   8.723
 1859POPC   C2B25436  37.369  15.843   8.296
 1859POPC   C3B25437  37.343  15.597   7.907
 1859POPC   C4B25438  37.277  15.474   7.488
 1860POPC   NC325439  37.098  15.543   9.404
 1860POPC   PO425440  36.768  14.975   9.509
 1860POPC   GL125441  37.031  15.082   9.170
 1860POPC   GL225442  36.778  15.301   9.093
 1860POPC   C1A25443  37.121  15.189   8.725
 1860POPC   D2A25444  36.797  15.220   8.447
 1860POPC   C3A25445  36.785  15.145   8.019
 1860POPC   C4A25446  37.157  15.055   7.769
 1860POPC   C1B25447  36.808  15.602   8.789
 1860POPC   C2B25448  36.860  15.865   8.484
 1860POPC   C3B25449  36.908  15.625   8.145
 1860POPC   C4B25450  36.848  15.560   7.720
 1861POPC   NC325451   0.012  31.572   9.756
 1861POPC   PO425452   0.658  31.446   9.585
 1861POPC   GL125453   0.546  31.528   9.154
 1861POPC   GL225454   0.208  31.664   8.978
 1861POPC   C1A25455   0.721  31.402   8.764
 1861POPC   D2A25456   0.407  31.543   8.476
 1861POPC   C3A25457   0.438  31.529   8.043
 1861POPC   C4A25458   0.450  31.479   7.605
 1861POPC   C1B25459  44.969  31.381   8.678
 1861POPC   C2B25460   0.093  31.191   8.268
 1861POPC   C3B25461   0.106  31.167   7.823
 1861POPC   C4B25462  44.964  31.316   7.418
 1862POPC   NC325463  26.329  43.016   9.479
 1862POPC   PO425464  25.742  42.904   9.588
 1862POPC   GL125465  25.864  43.189   9.234
 1862POPC   GL225466  26.218  43.257   9.047
 1862POPC   C1A25467  25.814  43.057   8.820
 1862POPC   D2A25468  26.128  43.126   8.527
 1862POPC   C3A25469  25.959  42.952   8.192
 1862POPC   C4A25470  25.733  43.158   7.897
 1862POPC   C1B25471  26.377  43.596   8.755
 1862POPC   C2B25472  26.222  43.608   8.312
 1862POPC   C3B25473  26.272  43.291   7.970
 1862POPC   C4B25474  26.217  43.285   7.508
 1863POPC   NC325475  34.058   7.150   9.406
 1863POPC   PO425476  34.717   7.337   9.516
 1863POPC   GL125477  34.459   7.393   9.145
 1863POPC   GL225478  34.762   7.385   9.004
 1863POPC   C1A25479  34.364   7.592   8.721
 1863POPC   D2A25480  34.515   7.701   8.305
 1863POPC   C3A25481  34.589   7.399   7.916
 1863POPC   C4A25482  34.661   7.371   7.444
 1863POPC   C1B25483  34.981   7.164   8.714
 1863POPC   C2B25484  34.846   7.035   8.325
 1863POPC   C3B25485  35.031   6.888   7.953
 1863POPC   C4B25486  34.876   6.939   7.587
 1864POPC   NC325487  27.757  39.988   9.732
 1864POPC   PO425488  28.405  39.771   9.477
 1864POPC   GL125489  28.292  39.909   9.096
 1864POPC   GL225490  28.224  40.247   9.159
 1864POPC   C1A25491  28.349  40.084   8.681
 1864POPC   D2A25492  28.589  40.198   8.307
 1864POPC   C3A25493  28.434  39.922   7.978
 1864POPC   C4A25494  28.416  39.817   7.550
 1864POPC   C1B25495  27.920  40.423   8.842
 1864POPC   C2B25496  27.856  40.306   8.411
 1864POPC   C3B25497  28.152  40.384   8.067
 1864POPC   C4B25498  28.281  40.293   7.634
 1865POPC   NC325499  25.564  11.061   9.376
 1865POPC   PO425500  24.905  11.289   9.502
 1865POPC   GL125501  25.096  11.189   9.148
 1865POPC   GL225502  24.926  10.860   9.153
 1865POPC   C1A25503  25.312  11.370   8.786
 1865POPC   D2A25504  25.598  11.395   8.445
 1865POPC   C3A25505  25.385  11.254   8.082
 1865POPC   C4A25506  25.169  11.434   7.731
 1865POPC   C1B25507  24.767  11.083   8.777
 1865POPC   C2B25508  24.978  11.200   8.400
 1865POPC   C3B25509  24.920  11.050   7.971
 1865POPC   C4B25510  25.016  10.969   7.555
 1866POPC   NC325511  13.228   1.644   9.549
 1866POPC   PO425512  12.870   1.035   9.413
 1866POPC   GL125513  12.886   1.183   9.016
 1866POPC   GL225514  13.171   1.385   9.126
 1866POPC   C1A25515  12.681   1.259   8.602
 1866POPC   D2A25516  12.361   1.059   8.294
 1866POPC   C3A25517  12.528   1.068   7.846
 1866POPC   C4A25518  12.783   1.283   7.505
 1866POPC   C1B25519  13.104   1.559   8.772
 1866POPC   C2B25520  13.142   1.350   8.428
 1866POPC   C3B25521  12.886   1.403   8.081
 1866POPC   C4B25522  13.036   1.666   7.739
 1867POPC   NC325523  35.875  35.754   9.348
 1867POPC   PO425524  36.107  35.247   9.707
 1867POPC   GL125525  36.099  35.324   9.213
 1867POPC   GL225526  36.385  35.318   9.017
 1867POPC   C1A25527  35.945  35.193   8.769
 1867POPC   D2A25528  35.879  35.370   8.348
 1867POPC   C3A25529  35.921  35.221   7.902
 1867POPC   C4A25530  35.988  35.379   7.448
 1867POPC   C1B25531  36.376  35.401   8.597
 1867POPC   C2B25532  36.354  35.241   8.194
 1867POPC   C3B25533  36.351  35.483   7.831
 1867POPC   C4B25534  36.469  35.267   7.465
 1868POPC   NC325535   1.790  38.739   9.469
 1868POPC   PO425536   2.061  38.150   9.423
 1868POPC   GL125537   1.976  38.449   9.084
 1868POPC   GL225538   2.129  38.771   9.102
 1868POPC   C1A25539   2.082  38.401   8.658
 1868POPC   D2A25540   2.141  38.242   8.228
 1868POPC   C3A25541   1.832  38.187   7.985
 1868POPC   C4A25542   1.671  38.355   7.631
 1868POPC   C1B25543   1.938  38.874   8.680
 1868POPC   C2B25544   1.864  38.677   8.280
 1868POPC   C3B25545   1.881  38.752   7.861
 1868POPC   C4B25546   2.131  38.568   7.494
 1869POPC   NC325547  11.011  10.209   9.510
 1869POPC   PO425548  11.020   9.561   9.495
 1869POPC   GL125549  11.196   9.495   9.129
 1869POPC   GL225550  11.588   9.471   9.190
 1869POPC   C1A25551  10.969   9.684   8.791
 1869POPC   D2A25552  11.125   9.924   8.486
 1869POPC   C3A25553  11.225   9.770   8.101
 1869POPC   C4A25554  11.425  10.041   7.816
 1869POPC   C1B25555  11.510   9.741   8.818
 1869POPC   C2B25556  11.571   9.568   8.435
 1869POPC   C3B25557  11.719   9.620   8.038
 1869POPC   C4B25558  11.534   9.557   7.689
 1870POPC   NC325559  18.388   3.668   9.427
 1870POPC   PO425560  17.978   3.027   9.478
 1870POPC   GL125561  18.185   3.337   9.083
 1870POPC   GL225562  18.202   3.751   8.978
 1870POPC   C1A25563  18.413   3.471   8.662
 1870POPC   D2A25564  18.315   3.728   8.326
 1870POPC   C3A25565  18.483   3.571   7.965
 1870POPC   C4A25566  18.533   3.802   7.593
 1870POPC   C1B25567  17.936   3.882   8.665
 1870POPC   C2B25568  17.924   4.052   8.249
 1870POPC   C3B25569  17.978   3.774   7.874
 1870POPC   C4B25570  18.050   3.346   7.809
 1871POPC   NC325571  29.793  35.038   9.382
 1871POPC   PO425572  30.232  35.493   9.466
 1871POPC   GL125573  30.075  35.358   9.099
 1871POPC   GL225574  29.702  35.402   9.034
 1871POPC   C1A25575  30.041  35.203   8.713
 1871POPC   D2A25576  30.181  35.425   8.370
 1871POPC   C3A25577  29.939  35.441   8.036
 1871POPC   C4A25578  29.682  35.722   7.847
 1871POPC   C1B25579  29.670  35.509   8.581
 1871POPC   C2B25580  29.494  35.269   8.227
 1871POPC   C3B25581  29.437  35.283   7.774
 1871POPC   C4B25582  29.529  35.186   7.350
 1872POPC   NC325583  41.920  43.633   9.529
 1872POPC   PO425584  41.309  43.801   9.645
 1872POPC   GL125585  41.516  43.764   9.237
 1872POPC   GL225586  41.620  44.116   9.263
 1872POPC   C1A25587  41.622  43.893   8.814
 1872POPC   D2A25588  41.672  43.666   8.448
 1872POPC   C3A25589  41.636  43.901   8.105
 1872POPC   C4A25590  41.574  43.785   7.702
 1872POPC   C1B25591  41.877  44.344   8.947
 1872POPC   C2B25592  41.881  44.263   8.498
 1872POPC   C3B25593  41.956  44.298   8.053
 1872POPC   C4B25594  41.781  44.247   7.662
 1873POPC   NC325595  33.043  34.633   9.530
 1873POPC   PO425596  33.477  34.897   9.097
 1873POPC   GL125597  33.049  34.726   9.030
 1873POPC   GL225598  32.972  34.366   9.106
 1873POPC   C1A25599  32.930  34.648   8.629
 1873POPC   D2A25600  33.151  34.897   8.304
 1873POPC   C3A25601  33.210  34.809   7.868
 1873POPC   C4A25602  32.937  34.900   7.572
 1873POPC   C1B25603  32.793  34.159   8.745
 1873POPC   C2B25604  32.717  34.250   8.294
 1873POPC   C3B25605  32.821  34.496   7.945
 1873POPC   C4B25606  32.768  34.439   7.457
 1874POPC   NC325607  22.610  24.125   9.331
 1874POPC   PO425608  22.951  23.507   9.474
 1874POPC   GL125609  23.052  23.786   9.143
 1874POPC   GL225610  22.753  23.746   9.023
 1874POPC   C1A25611  23.281  23.932   8.767
 1874POPC   D2A25612  23.257  23.738   8.350
 1874POPC   C3A25613  23.369  23.869   7.931
 1874POPC   C4A25614  23.245  23.764   7.510
 1874POPC   C1B25615  22.790  23.841   8.609
 1874POPC   C2B25616  22.534  23.711   8.284
 1874POPC   C3B25617  22.538  23.773   7.868
 1874POPC   C4B25618  22.754  23.724   7.497
 1875POPC   NC325619   8.913  25.834   9.934
 1875POPC   PO425620   9.267  26.151   9.541
 1875POPC   GL125621   9.026  25.951   9.218
 1875POPC   GL225622   8.936  26.201   9.040
 1875POPC   C1A25623   8.916  25.780   8.796
 1875POPC   D2A25624   8.797  26.059   8.491
 1875POPC   C3A25625   8.698  25.988   8.088
 1875POPC   C4A25626   8.949  25.758   7.863
 1875POPC   C1B25627   9.131  26.410   8.713
 1875POPC   C2B25628   9.282  26.279   8.320
 1875POPC   C3B25629   9.225  26.321   7.879
 1875POPC   C4B25630   9.342  25.996   7.591
 1876POPC   NC325631   8.886  27.308   9.421
 1876POPC   PO425632   9.276  27.921   9.463
 1876POPC   GL125633   9.020  27.732   9.134
 1876POPC   GL225634   8.676  27.824   9.232
 1876POPC   C1A25635   9.013  27.481   8.733
 1876POPC   D2A25636   9.092  27.623   8.312
 1876POPC   C3A25637   9.138  27.371   7.948
 1876POPC   C4A25638   9.045  27.580   7.564
 1876POPC   C1B25639   8.676  27.995   8.825
 1876POPC   C2B25640   8.608  27.754   8.460
 1876POPC   C3B25641   8.672  27.651   8.030
 1876POPC   C4B25642   8.501  27.866   7.659
 1877POPC   NC325643   5.389   3.366   9.471
 1877POPC   PO425644   4.899   3.853   9.577
 1877POPC   GL125645   4.947   3.596   9.221
 1877POPC   GL225646   5.245   3.742   9.149
 1877POPC   C1A25647   5.091   3.410   8.792
 1877POPC   D2A25648   5.346   3.503   8.392
 1877POPC   C3A25649   5.084   3.420   8.019
 1877POPC   C4A25650   4.692   3.518   7.856
 1877POPC   C1B25651   5.294   3.886   8.742
 1877POPC   C2B25652   5.265   4.057   8.355
 1877POPC   C3B25653   5.390   3.833   7.997
 1877POPC   C4B25654   5.146   3.802   7.680
 1878POPC   NC325655  11.439  44.316   9.574
 1878POPC   PO425656  11.490  44.972   9.359
 1878POPC   GL125657  11.277  44.678   9.077
 1878POPC   GL225658  11.175  44.307   9.143
 1878POPC   C1A25659  11.395  44.690   8.632
 1878POPC   D2A25660  11.568  44.594   8.228
 1878POPC   C3A25661  11.326  44.826   7.899
 1878POPC   C4A25662  11.113  44.652   7.566
 1878POPC   C1B25663  11.387  44.193   8.766
 1878POPC   C2B25664  11.266  44.156   8.322
 1878POPC   C3B25665  11.259  44.299   7.898
 1878POPC   C4B25666  11.153  44.139   7.482
 1879POPC   NC325667  33.875  37.470   9.647
 1879POPC   PO425668  33.438  37.857   9.344
 1879POPC   GL125669  33.621  37.513   9.139
 1879POPC   GL225670  33.973  37.555   9.108
 1879POPC   C1A25671  33.667  37.519   8.692
 1879POPC   D2A25672  33.643  37.822   8.349
 1879POPC   C3A25673  33.665  37.581   7.975
 1879POPC   C4A25674  33.634  37.452   7.566
 1879POPC   C1B25675  33.971  37.905   8.751
 1879POPC   C2B25676  34.181  38.041   8.416
 1879POPC   C3B25677  34.058  37.913   8.033
 1879POPC   C4B25678  33.912  37.980   7.616
 1880POPC   NC325679  42.478   2.351   9.259
 1880POPC   PO425680  43.022   2.086   9.557
 1880POPC   GL125681  43.281   2.148   9.210
 1880POPC   GL225682  42.954   2.231   9.063
 1880POPC   C1A25683  43.353   2.034   8.777
 1880POPC   D2A25684  43.057   1.982   8.423
 1880POPC   C3A25685  43.207   2.037   7.999
 1880POPC   C4A25686  43.083   2.026   7.594
 1880POPC   C1B25687  43.005   2.410   8.679
 1880POPC   C2B25688  42.945   2.425   8.221
 1880POPC   C3B25689  42.801   2.410   7.773
 1880POPC   C4B25690  42.949   2.427   7.300
 1881POPC   NC325691  12.303   2.043   9.470
 1881POPC   PO425692  12.044   1.471   9.357
 1881POPC   GL125693  11.944   1.900   9.148
 1881POPC   GL225694  11.989   2.302   9.161
 1881POPC   C1A25695  12.103   1.923   8.766
 1881POPC   D2A25696  11.858   1.759   8.487
 1881POPC   C3A25697  11.912   1.854   8.093
 1881POPC   C4A25698  11.899   2.050   7.711
 1881POPC   C1B25699  11.802   2.340   8.767
 1881POPC   C2B25700  11.991   2.270   8.373
 1881POPC   C3B25701  12.043   2.462   7.991
 1881POPC   C4B25702  11.831   2.553   7.620
 1882POPC   NC325703  33.338  12.635   9.805
 1882POPC   PO425704  33.388  12.033   9.498
 1882POPC   GL125705  33.618  12.025   9.140
 1882POPC   GL225706  33.961  12.029   9.201
 1882POPC   C1A25707  33.670  12.189   8.726
 1882POPC   D2A25708  33.470  12.366   8.372
 1882POPC   C3A25709  33.646  12.179   8.044
 1882POPC   C4A25710  33.522  12.007   7.673
 1882POPC   C1B25711  34.037  11.837   8.804
 1882POPC   C2B25712  33.988  11.961   8.378
 1882POPC   C3B25713  34.077  11.777   7.989
 1882POPC   C4B25714  34.100  11.828   7.545
 1883POPC   NC325715   6.990   5.347   9.387
 1883POPC   PO425716   6.374   5.095   9.514
 1883POPC   GL125717   6.566   5.157   9.130
 1883POPC   GL225718   6.815   4.910   9.130
 1883POPC   C1A25719   6.740   5.278   8.725
 1883POPC   D2A25720   6.541   5.309   8.323
 1883POPC   C3A25721   6.704   5.264   7.899
 1883POPC   C4A25722   6.446   5.274   7.496
 1883POPC   C1B25723   6.850   4.763   8.713
 1883POPC   C2B25724   6.729   4.798   8.274
 1883POPC   C3B25725   6.729   4.755   7.822
 1883POPC   C4B25726   6.774   4.630   7.357
 1884POPC   NC325727  27.287  44.444   9.402
 1884POPC   PO425728  27.809  44.877   9.600
 1884POPC   GL125729  27.655  44.754   9.192
 1884POPC   GL225730  27.324  44.875   9.115
 1884POPC   C1A25731  27.549  44.537   8.787
 1884POPC   D2A25732  27.631  44.511   8.360
 1884POPC   C3A25733  27.366  44.521   8.002
 1884POPC   C4A25734  27.512  44.625   7.554
 1884POPC   C1B25735  27.611   0.042   8.767
 1884POPC   C2B25736  27.707   0.035   8.327
 1884POPC   C3B25737  27.528   0.015   7.935
 1884POPC   C4B25738  27.140  44.893   7.765
 1885POPC   NC325739   1.766  14.418   9.381
 1885POPC   PO425740   2.322  14.583   9.120
 1885POPC   GL125741   1.946  14.403   8.903
 1885POPC   GL225742   1.545  14.535   8.949
 1885POPC   C1A25743   2.114  14.289   8.503
 1885POPC   D2A25744   2.351  14.431   8.140
 1885POPC   C3A25745   2.023  14.300   7.931
 1885POPC   C4A25746   1.867  13.896   7.986
 1885POPC   C1B25747   1.577  14.515   8.543
 1885POPC   C2B25748   1.567  14.265   8.196
 1885POPC   C3B25749   1.529  14.336   7.763
 1885POPC   C4B25750   1.720  14.684   7.486
 1886POPC   NC325751   3.324  28.096   9.348
 1886POPC   PO425752   3.674  28.663   9.562
 1886POPC   GL125753   3.636  28.472   9.172
 1886POPC   GL225754   3.281  28.536   9.088
 1886POPC   C1A25755   3.756  28.420   8.765
 1886POPC   D2A25756   3.662  28.609   8.396
 1886POPC   C3A25757   3.834  28.497   8.013
 1886POPC   C4A25758   3.833  28.506   7.553
 1886POPC   C1B25759   3.262  28.273   8.713
 1886POPC   C2B25760   3.321  28.216   8.291
 1886POPC   C3B25761   3.225  28.016   7.925
 1886POPC   C4B25762   3.388  28.277   7.648
 1887POPC   NC325763   7.898  41.445   9.437
 1887POPC   PO425764   7.277  41.225   9.419
 1887POPC   GL125765   7.447  41.540   9.124
 1887POPC   GL225766   7.635  41.305   9.010
 1887POPC   C1A25767   7.517  41.689   8.707
 1887POPC   D2A25768   7.531  41.377   8.401
 1887POPC   C3A25769   7.728  41.471   8.053
 1887POPC   C4A25770   7.574  41.492   7.670
 1887POPC   C1B25771   7.204  41.246   8.777
 1887POPC   C2B25772   7.051  41.116   8.366
 1887POPC   C3B25773   7.272  41.159   7.980
 1887POPC   C4B25774   7.106  41.354   7.612
 1888POPC   NC325775  27.941  34.562   9.282
 1888POPC   PO425776  28.551  34.537   9.585
 1888POPC   GL125777  28.410  34.511   9.133
 1888POPC   GL225778  28.332  34.166   9.011
 1888POPC   C1A25779  28.330  34.801   8.753
 1888POPC   D2A25780  28.510  34.978   8.349
 1888POPC   C3A25781  28.354  34.813   7.954
 1888POPC   C4A25782  28.539  34.799   7.533
 1888POPC   C1B25783  28.148  34.328   8.662
 1888POPC   C2B25784  28.413  34.457   8.351
 1888POPC   C3B25785  28.555  34.251   8.003
 1888POPC   C4B25786  28.343  34.349   7.643
 1889POPC   NC325787  10.557  24.652   9.510
 1889POPC   PO425788  10.649  23.969   9.499
 1889POPC   GL125789  10.735  24.275   9.157
 1889POPC   GL225790  10.399  24.381   9.058
 1889POPC   C1A25791  10.661  24.280   8.671
 1889POPC   D2A25792  10.617  24.572   8.332
 1889POPC   C3A25793  10.728  24.545   7.863
 1889POPC   C4A25794  10.775  24.149   7.617
 1889POPC   C1B25795  10.129  24.562   8.726
 1889POPC   C2B25796  10.128  24.666   8.281
 1889POPC   C3B25797  10.201  24.538   7.861
 1889POPC   C4B25798  10.077  24.742   7.452
 1890POPC   NC325799   5.597   5.959   9.321
 1890POPC   PO425800   6.177   5.967   9.739
 1890POPC   GL125801   6.244   5.817   9.214
 1890POPC   GL225802   5.959   5.615   9.176
 1890POPC   C1A25803   5.983   5.826   8.734
 1890POPC   D2A25804   5.760   5.902   8.337
 1890POPC   C3A25805   5.993   6.008   7.956
 1890POPC   C4A25806   5.884   5.990   7.527
 1890POPC   C1B25807   6.231   5.406   8.827
 1890POPC   C2B25808   6.031   5.301   8.397
 1890POPC   C3B25809   5.861   5.483   8.021
 1890POPC   C4B25810   5.965   5.505   7.596
 1891POPC   NC325811   2.780  19.327   9.563
 1891POPC   PO425812   2.655  19.984   9.493
 1891POPC   GL125813   2.573  19.886   9.083
 1891POPC   GL225814   2.648  19.587   9.131
 1891POPC   C1A25815   2.603  20.051   8.646
 1891POPC   D2A25816   2.711  19.922   8.242
 1891POPC   C3A25817   2.563  20.165   7.878
 1891POPC   C4A25818   2.780  20.169   7.483
 1891POPC   C1B25819   2.651  19.534   8.708
 1891POPC   C2B25820   2.548  19.439   8.322
 1891POPC   C3B25821   2.440  19.426   7.913
 1891POPC   C4B25822   2.773  19.698   7.787
 1892POPC   NC325823  16.524   7.545   9.407
 1892POPC   PO425824  16.061   7.440   9.854
 1892POPC   GL125825  16.014   7.560   9.366
 1892POPC   GL225826  15.850   7.307   9.202
 1892POPC   C1A25827  15.962   7.629   8.849
 1892POPC   D2A25828  15.815   7.767   8.408
 1892POPC   C3A25829  15.931   7.548   8.033
 1892POPC   C4A25830  16.234   7.553   7.707
 1892POPC   C1B25831  15.675   7.204   8.822
 1892POPC   C2B25832  15.789   7.245   8.422
 1892POPC   C3B25833  15.842   7.029   8.067
 1892POPC   C4B25834  15.876   7.024   7.689
 1893POPC   NC325835  27.377   9.573   9.662
 1893POPC   PO425836  27.440   8.848   9.505
 1893POPC   GL125837  27.503   8.930   9.105
 1893POPC   GL225838  27.366   9.269   9.185
 1893POPC   C1A25839  27.738   8.901   8.709
 1893POPC   D2A25840  27.707   9.019   8.289
 1893POPC   C3A25841  27.778   8.760   7.949
 1893POPC   C4A25842  27.583   8.794   7.580
 1893POPC   C1B25843  27.148   9.081   8.809
 1893POPC   C2B25844  27.141   8.906   8.414
 1893POPC   C3B25845  27.287   8.962   7.993
 1893POPC   C4B25846  27.085   8.882   7.621
 1894POPC   NC325847  30.863   0.393   9.638
 1894POPC   PO425848  30.250   0.471   9.506
 1894POPC   GL125849  30.507   0.418   9.168
 1894POPC   GL225850  30.250   0.222   9.024
 1894POPC   C1A25851  30.624   0.377   8.714
 1894POPC   D2A25852  30.365   0.359   8.335
 1894POPC   C3A25853  30.650   0.354   8.000
 1894POPC   C4A25854  30.907   0.350   7.622
 1894POPC   C1B25855  30.215   0.657   8.792
 1894POPC   C2B25856  30.341   0.868   8.399
 1894POPC   C3B25857  30.283   0.856   7.956
 1894POPC   C4B25858  30.452   0.607   7.616
 1895POPC   NC325859  11.772  23.881   9.519
 1895POPC   PO425860  11.770  23.345   9.328
 1895POPC   GL125861  11.839  23.631   9.079
 1895POPC   GL225862  12.160  23.592   9.058
 1895POPC   C1A25863  11.915  23.871   8.739
 1895POPC   D2A25864  12.229  23.855   8.434
 1895POPC   C3A25865  11.997  23.851   8.030
 1895POPC   C4A25866  12.079  23.707   7.651
 1895POPC   C1B25867  12.461  23.367   8.839
 1895POPC   C2B25868  12.604  23.412   8.447
 1895POPC   C3B25869  12.336  23.470   8.117
 1895POPC   C4B25870  12.508  23.499   7.736
 1896POPC   NC325871  20.397   7.779   9.351
 1896POPC   PO425872  20.821   7.192   9.430
 1896POPC   GL125873  20.698   7.401   9.112
 1896POPC   GL225874  20.854   7.682   9.114
 1896POPC   C1A25875  20.620   7.424   8.702
 1896POPC   D2A25876  20.347   7.430   8.398
 1896POPC   C3A25877  20.464   7.712   8.107
 1896POPC   C4A25878  20.689   7.569   7.805
 1896POPC   C1B25879  21.065   7.651   8.718
 1896POPC   C2B25880  20.943   7.558   8.290
 1896POPC   C3B25881  21.180   7.590   7.893
 1896POPC   C4B25882  21.039   7.646   7.439
 1897POPC   NC325883   1.055  19.704   9.495
 1897POPC   PO425884   0.384  19.526   9.506
 1897POPC   GL125885   0.494  19.728   9.136
 1897POPC   GL225886   0.200  19.891   9.067
 1897POPC   C1A25887   0.531  20.046   8.758
 1897POPC   D2A25888   0.451  19.982   8.346
 1897POPC   C3A25889   0.767  19.900   8.115
 1897POPC   C4A25890   0.566  19.781   7.743
 1897POPC   C1B25891   0.323  19.568   8.713
 1897POPC   C2B25892   0.146  19.522   8.354
 1897POPC   C3B25893   0.095  19.676   8.006
 1897POPC   C4B25894   0.214  19.337   7.786
 1898POPC   NC325895   7.585  25.383   9.437
 1898POPC   PO425896   7.220  25.929   9.403
 1898POPC   GL125897   7.237  25.564   9.105
 1898POPC   GL225898   7.206  25.177   9.050
 1898POPC   C1A25899   7.420  25.483   8.704
 1898POPC   D2A25900   7.168  25.439   8.328
 1898POPC   C3A25901   7.403  25.602   7.970
 1898POPC   C4A25902   7.646  25.353   7.695
 1898POPC   C1B25903   7.540  24.985   8.779
 1898POPC   C2B25904   7.789  24.965   8.392
 1898POPC   C3B25905   7.589  24.940   8.004
 1898POPC   C4B25906   7.201  25.157   7.848
 1899POPC   NC325907  23.213   4.690   9.534
 1899POPC   PO425908  22.735   4.129   9.522
 1899POPC   GL125909  22.881   4.127   9.134
 1899POPC   GL225910  23.092   4.413   9.140
 1899POPC   C1A25911  22.778   4.335   8.752
 1899POPC   D2A25912  22.866   4.521   8.349
 1899POPC   C3A25913  22.761   4.295   7.993
 1899POPC   C4A25914  22.519   4.390   7.643
 1899POPC   C1B25915  23.184   4.642   8.771
 1899POPC   C2B25916  23.377   4.585   8.370
 1899POPC   C3B25917  23.224   4.567   7.971
 1899POPC   C4B25918  23.434   4.658   7.616
 1900POPC   NC325919  27.947   7.607   9.552
 1900POPC   PO425920  28.308   7.095   9.452
 1900POPC   GL125921  28.307   7.480   9.211
 1900POPC   GL225922  28.599   7.395   9.093
 1900POPC   C1A25923  28.045   7.727   8.882
 1900POPC   D2A25924  28.128   7.848   8.463
 1900POPC   C3A25925  28.079   7.488   8.223
 1900POPC   C4A25926  28.138   7.427   7.803
 1900POPC   C1B25927  28.345   7.329   8.730
 1900POPC   C2B25928  28.575   7.446   8.397
 1900POPC   C3B25929  28.599   7.343   8.013
 1900POPC   C4B25930  28.661   7.494   7.654
 1901POPC   NC325931  42.847  13.756   9.892
 1901POPC   PO425932  42.357  13.523   9.477
 1901POPC   GL125933  42.255  13.528   9.091
 1901POPC   GL225934  42.020  13.307   9.016
 1901POPC   C1A25935  42.282  13.827   8.791
 1901POPC   D2A25936  42.460  13.765   8.389
 1901POPC   C3A25937  42.175  13.730   8.059
 1901POPC   C4A25938  42.303  13.901   7.672
 1901POPC   C1B25939  42.147  13.362   8.570
 1901POPC   C2B25940  42.503  13.295   8.248
 1901POPC   C3B25941  42.502  13.374   7.834
 1901POPC   C4B25942  42.805  13.465   7.593
 1902POPC   NC325943  13.861   9.491   9.457
 1902POPC   PO425944  14.585   9.769   9.490
 1902POPC   GL125945  14.458   9.893   9.101
 1902POPC   GL225946  14.106   9.835   9.120
 1902POPC   C1A25947  14.390   9.556   8.802
 1902POPC   D2A25948  14.317   9.443   8.394
 1902POPC   C3A25949  14.348   9.746   8.097
 1902POPC   C4A25950  14.306   9.583   7.696
 1902POPC   C1B25951  14.157  10.017   8.698
 1902POPC   C2B25952  14.017  10.188   8.293
 1902POPC   C3B25953  13.938   9.982   7.901
 1902POPC   C4B25954  14.001   9.923   7.481
 1903POPC   NC325955  18.303   1.835   9.611
 1903POPC   PO425956  18.223   2.443   9.353
 1903POPC   GL125957  18.393   2.109   9.173
 1903POPC   GL225958  18.048   1.948   9.200
 1903POPC   C1A25959  18.610   2.103   8.773
 1903POPC   D2A25960  18.539   2.224   8.347
 1903POPC   C3A25961  18.482   1.929   8.014
 1903POPC   C4A25962  18.357   1.972   7.607
 1903POPC   C1B25963  18.036   2.107   8.798
 1903POPC   C2B25964  17.893   2.253   8.415
 1903POPC   C3B25965  17.987   2.105   8.022
 1903POPC   C4B25966  17.871   1.863   7.684
 1904POPC   NC325967   3.258  25.892   9.464
 1904POPC   PO425968   3.516  25.349   9.683
 1904POPC   GL125969   3.580  25.376   9.233
 1904POPC   GL225970   3.884  25.519   9.204
 1904POPC   C1A25971   3.643  25.234   8.778
 1904POPC   D2A25972   3.440  25.181   8.369
 1904POPC   C3A25973   3.577  25.131   7.940
 1904POPC   C4A25974   3.256  25.318   7.691
 1904POPC   C1B25975   3.651  25.745   8.876
 1904POPC   C2B25976   3.558  25.689   8.481
 1904POPC   C3B25977   3.785  25.538   8.167
 1904POPC   C4B25978   3.704  25.604   7.737
 1905POPC   NC325979  14.579  14.945   9.470
 1905POPC   PO425980  14.084  15.426   9.495
 1905POPC   GL125981  14.111  15.282   9.078
 1905POPC   GL225982  14.174  14.948   9.091
 1905POPC   C1A25983  14.264  15.240   8.648
 1905POPC   D2A25984  14.080  15.299   8.246
 1905POPC   C3A25985  14.365  15.380   7.896
 1905POPC   C4A25986  14.596  15.253   7.520
 1905POPC   C1B25987  14.029  14.755   8.724
 1905POPC   C2B25988  13.933  14.807   8.283
 1905POPC   C3B25989  14.037  14.944   7.846
 1905POPC   C4B25990  14.254  14.855   7.459
 1906POPC   NC325991   6.925  11.999   9.477
 1906POPC   PO425992   7.555  12.214   9.387
 1906POPC   GL125993   7.590  12.072   9.007
 1906POPC   GL225994   7.280  11.936   9.047
 1906POPC   C1A25995   7.654  12.176   8.607
 1906POPC   D2A25996   7.363  12.354   8.348
 1906POPC   C3A25997   7.388  12.254   7.940
 1906POPC   C4A25998   7.663  11.988   7.798
 1906POPC   C1B25999   7.151  11.917   8.626
 1906POPC   C2B26000   7.066  11.942   8.217
 1906POPC   C3B26001   7.175  11.781   7.865
 1906POPC   C4B26002   6.886  11.643   7.612
 1907POPC   NC326003  32.954  36.869   9.769
 1907POPC   PO426004  33.155  36.727   9.183
 1907POPC   GL126005  32.984  37.041   9.022
 1907POPC   GL226006  32.677  36.952   9.068
 1907POPC   C1A26007  32.968  37.115   8.629
 1907POPC   D2A26008  32.965  36.892   8.279
 1907POPC   C3A26009  32.901  37.172   7.993
 1907POPC   C4A26010  33.187  37.240   7.703
 1907POPC   C1B26011  32.649  36.711   8.644
 1907POPC   C2B26012  32.571  36.536   8.211
 1907POPC   C3B26013  32.805  36.673   7.845
 1907POPC   C4B26014  32.687  37.008   7.555
 1908POPC   NC326015  39.079  14.124   9.483
 1908POPC   PO426016  39.195  14.845   9.435
 1908POPC   GL126017  39.046  14.591   9.141
 1908POPC   GL226018  39.303  14.366   9.084
 1908POPC   C1A26019  38.975  14.540   8.708
 1908POPC   D2A26020  39.224  14.373   8.386
 1908POPC   C3A26021  39.071  14.462   7.976
 1908POPC   C4A26022  38.779  14.210   7.750
 1908POPC   C1B26023  39.501  14.622   8.792
 1908POPC   C2B26024  39.723  14.511   8.415
 1908POPC   C3B26025  39.588  14.435   8.016
 1908POPC   C4B26026  39.556  14.279   7.608
 1909POPC   NC326027  15.567  36.142   9.704
 1909POPC   PO426028  16.166  36.202   9.457
 1909POPC   GL126029  16.021  36.212   9.091
 1909POPC   GL226030  15.698  36.326   9.235
 1909POPC   C1A26031  16.011  36.001   8.695
 1909POPC   D2A26032  15.786  36.054   8.360
 1909POPC   C3A26033  15.967  36.032   7.977
 1909POPC   C4A26034  15.751  36.088   7.585
 1909POPC   C1B26035  15.649  36.356   8.791
 1909POPC   C2B26036  15.575  36.503   8.398
 1909POPC   C3B26037  15.583  36.371   7.985
 1909POPC   C4B26038  15.932  36.550   7.747
 1910POPC   NC326039  26.142  18.064   9.611
 1910POPC   PO426040  25.697  18.514   9.544
 1910POPC   GL126041  25.826  18.507   9.131
 1910POPC   GL226042  26.117  18.345   9.156
 1910POPC   C1A26043  25.980  18.693   8.716
 1910POPC   D2A26044  26.227  18.692   8.334
 1910POPC   C3A26045  25.988  18.407   8.073
 1910POPC   C4A26046  25.823  18.216   7.712
 1910POPC   C1B26047  25.935  18.176   8.756
 1910POPC   C2B26048  25.945  17.945   8.378
 1910POPC   C3B26049  26.065  17.856   7.974
 1910POPC   C4B26050  26.344  18.131   7.816
 1911POPC   NC326051  22.432   5.314   9.515
 1911POPC   PO426052  21.977   4.725   9.531
 1911POPC   GL126053  22.214   4.974   9.186
 1911POPC   GL226054  22.218   5.359   9.063
 1911POPC   C1A26055  22.033   4.993   8.780
 1911POPC   D2A26056  22.103   4.860   8.397
 1911POPC   C3A26057  22.015   5.168   8.095
 1911POPC   C4A26058  21.811   5.110   7.722
 1911POPC   C1B26059  22.420   5.332   8.612
 1911POPC   C2B26060  22.462   5.419   8.146
 1911POPC   C3B26061  22.497   5.184   7.747
 1911POPC   C4B26062  22.404   5.311   7.313
 1912POPC   NC326063  22.266  20.047   9.454
 1912POPC   PO426064  21.937  19.514   9.714
 1912POPC   GL126065  22.070  19.645   9.261
 1912POPC   GL226066  21.864  19.945   9.156
 1912POPC   C1A26067  22.246  19.647   8.854
 1912POPC   D2A26068  22.366  19.795   8.442
 1912POPC   C3A26069  22.021  19.779   8.117
 1912POPC   C4A26070  22.080  19.561   7.732
 1912POPC   C1B26071  22.124  20.163   8.828
 1912POPC   C2B26072  22.058  20.232   8.403
 1912POPC   C3B26073  22.301  20.186   8.048
 1912POPC   C4B26074  22.116  20.074   7.654
 1913POPC   NC326075   9.735  29.761   9.394
 1913POPC   PO426076  10.327  29.974   9.499
 1913POPC   GL126077  10.174  29.809   9.137
 1913POPC   GL226078   9.987  30.115   9.075
 1913POPC   C1A26079   9.945  29.776   8.728
 1913POPC   D2A26080  10.126  29.823   8.335
 1913POPC   C3A26081   9.819  29.819   8.088
 1913POPC   C4A26082   9.703  29.728   7.718
 1913POPC   C1B26083   9.591  30.181   8.846
 1913POPC   C2B26084   9.591  30.153   8.405
 1913POPC   C3B26085   9.444  30.143   7.977
 1913POPC   C4B26086   9.559  30.186   7.547
 1914POPC   NC326087  12.005  39.469   9.564
 1914POPC   PO426088  12.545  39.791   9.425
 1914POPC   GL126089  12.363  39.422   9.169
 1914POPC   GL226090  11.955  39.377   9.076
 1914POPC   C1A26091  12.314  39.261   8.740
 1914POPC   D2A26092  11.929  39.356   8.474
 1914POPC   C3A26093  12.036  39.422   8.030
 1914POPC   C4A26094  12.323  39.334   7.714
 1914POPC   C1B26095  11.899  38.957   8.891
 1914POPC   C2B26096  11.824  38.825   8.463
 1914POPC   C3B26097  11.742  38.943   8.042
 1914POPC   C4B26098  11.582  38.886   7.643
 1915POPC   NC326099   6.115   4.708   9.506
 1915POPC   PO426100   5.733   5.224   9.665
 1915POPC   GL126101   5.915   5.124   9.243
 1915POPC   GL226102   5.812   4.815   9.073
 1915POPC   C1A26103   5.754   5.231   8.810
 1915POPC   D2A26104   5.735   4.891   8.528
 1915POPC   C3A26105   5.655   4.998   8.112
 1915POPC   C4A26106   5.817   5.044   7.720
 1915POPC   C1B26107   6.181   4.895   8.823
 1915POPC   C2B26108   6.246   4.844   8.389
 1915POPC   C3B26109   6.258   5.034   7.981
 1915POPC   C4B26110   6.278   4.798   7.598
 1916POPC   NC326111  21.696  17.675   9.548
 1916POPC   PO426112  21.264  17.161   9.510
 1916POPC   GL126113  21.386  17.466   9.188
 1916POPC   GL226114  21.673  17.278   9.215
 1916POPC   C1A26115  21.402  17.723   8.794
 1916POPC   D2A26116  21.188  17.698   8.385
 1916POPC   C3A26117  21.343  17.647   7.986
 1916POPC   C4A26118  21.099  17.265   8.003
 1916POPC   C1B26119  21.621  17.206   8.794
 1916POPC   C2B26120  21.595  17.363   8.388
 1916POPC   C3B26121  21.606  17.178   8.011
 1916POPC   C4B26122  21.565  17.334   7.627
 1917POPC   NC326123   6.537   2.356   9.467
 1917POPC   PO426124   6.647   1.775   9.612
 1917POPC   GL126125   6.547   1.918   9.177
 1917POPC   GL226126   6.336   2.211   9.046
 1917POPC   C1A26127   6.690   1.918   8.748
 1917POPC   D2A26128   6.710   1.706   8.389
 1917POPC   C3A26129   6.878   1.937   8.068
 1917POPC   C4A26130   6.838   2.028   7.651
 1917POPC   C1B26131   6.200   1.981   8.707
 1917POPC   C2B26132   6.394   2.149   8.358
 1917POPC   C3B26133   6.421   2.114   7.952
 1917POPC   C4B26134   6.340   2.153   7.546
 1918POPC   NC326135  21.716  42.180   9.544
 1918POPC   PO426136  22.211  42.251   9.867
 1918POPC   GL126137  22.195  42.209   9.348
 1918POPC   GL226138  21.952  42.459   9.182
 1918POPC   C1A26139  22.320  42.127   8.912
 1918POPC   D2A26140  22.257  42.298   8.503
 1918POPC   C3A26141  22.244  42.108   8.100
 1918POPC   C4A26142  22.235  42.259   7.695
 1918POPC   C1B26143  21.978  42.640   8.767
 1918POPC   C2B26144  21.858  42.585   8.327
 1918POPC   C3B26145  21.838  42.534   7.893
 1918POPC   C4B26146  21.970  42.871   7.694
 1919POPC   NC326147   4.150  25.819   9.555
 1919POPC   PO426148   4.689  26.196   9.483
 1919POPC   GL126149   4.516  25.911   9.210
 1919POPC   GL226150   4.637  26.027   8.963
 1919POPC   C1A26151   4.160  25.841   8.918
 1919POPC   D2A26152   4.063  25.847   8.489
 1919POPC   C3A26153   4.403  25.904   8.216
 1919POPC   C4A26154   4.154  25.809   7.869
 1919POPC   C1B26155   4.402  26.199   8.672
 1919POPC   C2B26156   4.416  26.461   8.369
 1919POPC   C3B26157   4.191  26.339   8.042
 1919POPC   C4B26158   4.517  26.225   7.751
 1920POPC   NC326159  27.799  17.949   9.459
 1920POPC   PO426160  27.672  18.655   9.279
 1920POPC   GL126161  27.692  18.296   9.088
 1920POPC   GL226162  27.384  18.297   8.939
 1920POPC   C1A26163  27.781  18.120   8.677
 1920POPC   D2A26164  27.532  17.972   8.324
 1920POPC   C3A26165  27.694  18.036   7.915
 1920POPC   C4A26166  28.006  18.291   7.837
 1920POPC   C1B26167  27.605  18.588   8.635
 1920POPC   C2B26168  27.702  18.467   8.211
 1920POPC   C3B26169  27.583  18.545   7.776
 1920POPC   C4B26170  27.392  18.587   7.393
 1921POPC   NC326171  12.419   9.785   9.541
 1921POPC   PO426172  13.054  10.056   9.486
 1921POPC   GL126173  12.918   9.873   9.104
 1921POPC   GL226174  12.583   9.959   9.100
 1921POPC   C1A26175  12.831   9.843   8.656
 1921POPC   D2A26176  13.032   9.914   8.265
 1921POPC   C3A26177  12.966   9.626   7.908
 1921POPC   C4A26178  13.210   9.474   7.524
 1921POPC   C1B26179  12.504   9.528   8.914
 1921POPC   C2B26180  12.541   9.380   8.503
 1921POPC   C3B26181  12.571   9.714   8.217
 1921POPC   C4B26182  12.468   9.943   7.837
 1922POPC   NC326183  24.840  15.928   9.442
 1922POPC   PO426184  24.223  15.688   9.354
 1922POPC   GL126185  24.412  15.996   9.101
 1922POPC   GL226186  24.740  15.974   8.954
 1922POPC   C1A26187  24.326  16.094   8.681
 1922POPC   D2A26188  24.515  15.913   8.330
 1922POPC   C3A26189  24.285  15.901   7.957
 1922POPC   C4A26190  24.231  15.522   7.728
 1922POPC   C1B26191  24.831  16.261   8.639
 1922POPC   C2B26192  24.750  16.356   8.216
 1922POPC   C3B26193  24.754  16.080   7.858
 1922POPC   C4B26194  24.989  16.016   7.469
 1923POPC   NC326195  10.155   2.540   9.595
 1923POPC   PO426196   9.612   3.033   9.673
 1923POPC   GL126197   9.710   2.875   9.259
 1923POPC   GL226198  10.061   2.780   9.146
 1923POPC   C1A26199   9.611   2.638   8.882
 1923POPC   D2A26200   9.676   2.767   8.432
 1923POPC   C3A26201   9.506   2.505   8.094
 1923POPC   C4A26202   9.624   2.385   7.672
 1923POPC   C1B26203  10.081   2.511   8.733
 1923POPC   C2B26204  10.057   2.500   8.244
 1923POPC   C3B26205   9.896   2.780   7.919
 1923POPC   C4B26206  10.052   2.639   7.520
 1924POPC   NC326207  21.753  24.059   9.460
 1924POPC   PO426208  21.328  24.510   9.728
 1924POPC   GL126209  21.410  24.517   9.227
 1924POPC   GL226210  21.530  24.229   9.030
 1924POPC   C1A26211  21.453  24.670   8.782
 1924POPC   D2A26212  21.276  24.644   8.358
 1924POPC   C3A26213  21.235  24.345   8.039
 1924POPC   C4A26214  21.348  24.634   7.707
 1924POPC   C1B26215  21.800  24.292   8.668
 1924POPC   C2B26216  21.699  24.290   8.227
 1924POPC   C3B26217  21.677  24.256   7.758
 1924POPC   C4B26218  21.447  24.238   7.334
 1925POPC   NC326219  43.222  12.896   9.545
 1925POPC   PO426220  43.107  12.288   9.656
 1925POPC   GL126221  43.190  12.534   9.186
 1925POPC   GL226222  43.076  12.908   9.085
 1925POPC   C1A26223  43.025  12.583   8.719
 1925POPC   D2A26224  43.232  12.670   8.338
 1925POPC   C3A26225  43.017  12.748   7.950
 1925POPC   C4A26226  42.945  12.984   7.572
 1925POPC   C1B26227  43.230  13.105   8.739
 1925POPC   C2B26228  42.963  13.109   8.390
 1925POPC   C3B26229  43.007  13.262   8.014
 1925POPC   C4B26230  43.393  13.097   7.897
 1926POPC   NC326231   8.816  37.180   9.496
 1926POPC   PO426232   9.267  36.677   9.486
 1926POPC   GL126233   9.141  36.671   9.107
 1926POPC   GL226234   9.129  37.015   9.050
 1926POPC   C1A26235   8.947  36.575   8.748
 1926POPC   D2A26236   9.020  36.860   8.485
 1926POPC   C3A26237   9.017  36.696   8.130
 1926POPC   C4A26238   9.300  36.696   7.770
 1926POPC   C1B26239   8.709  37.005   8.865
 1926POPC   C2B26240   8.519  36.919   8.472
 1926POPC   C3B26241   8.672  37.065   8.106
 1926POPC   C4B26242   8.780  36.920   7.720
 1927POPC   NC326243  31.527  35.794   9.549
 1927POPC   PO426244  31.124  35.303   9.422
 1927POPC   GL126245  31.385  35.432   9.131
 1927POPC   GL226246  31.740  35.529   9.089
 1927POPC   C1A26247  31.400  35.220   8.759
 1927POPC   D2A26248  31.468  35.025   8.381
 1927POPC   C3A26249  31.257  35.230   8.032
 1927POPC   C4A26250  31.195  35.147   7.558
 1927POPC   C1B26251  31.840  35.423   8.622
 1927POPC   C2B26252  31.776  35.367   8.152
 1927POPC   C3B26253  31.660  35.129   7.756
 1927POPC   C4B26254  31.681  35.349   7.341
 1928POPC   NC326255  19.691   0.081   9.573
 1928POPC   PO426256  20.164  44.608   9.695
 1928POPC   GL126257  20.152  44.586   9.233
 1928POPC   GL226258  19.915  44.860   9.113
 1928POPC   C1A26259  20.331  44.605   8.789
 1928POPC   D2A26260  20.198  44.531   8.332
 1928POPC   C3A26261  20.016  44.693   7.898
 1928POPC   C4A26262  20.089  44.839   7.434
 1928POPC   C1B26263  19.820  44.604   8.719
 1928POPC   C2B26264  19.726  44.358   8.323
 1928POPC   C3B26265  19.537  44.507   7.935
 1928POPC   C4B26266  19.249  44.859   7.893
 1929POPC   NC326267   7.651  22.828   9.450
 1929POPC   PO426268   7.052  23.213   9.474
 1929POPC   GL126269   7.252  23.007   9.176
 1929POPC   GL226270   7.545  23.171   9.086
 1929POPC   C1A26271   7.266  22.816   8.796
 1929POPC   D2A26272   7.415  22.991   8.430
 1929POPC   C3A26273   7.467  22.746   8.078
 1929POPC   C4A26274   7.289  22.854   7.704
 1929POPC   C1B26275   7.700  23.363   8.708
 1929POPC   C2B26276   7.622  23.449   8.293
 1929POPC   C3B26277   7.741  23.164   7.923
 1929POPC   C4B26278   7.730  23.105   7.453
 1930POPC   NC326279  18.267  28.368   9.674
 1930POPC   PO426280  18.677  28.218   9.171
 1930POPC   GL126281  18.320  28.419   9.047
 1930POPC   GL226282  18.132  28.122   9.118
 1930POPC   C1A26283  18.145  28.487   8.644
 1930POPC   D2A26284  17.884  28.426   8.306
 1930POPC   C3A26285  18.159  28.391   7.962
 1930POPC   C4A26286  18.193  28.805   7.825
 1930POPC   C1B26287  18.295  28.006   8.693
 1930POPC   C2B26288  18.600  28.178   8.396
 1930POPC   C3B26289  18.670  28.294   7.973
 1930POPC   C4B26290  18.628  28.066   7.622
 1931POPC   NC326291  10.840  28.426   9.626
 1931POPC   PO426292  10.230  28.219   9.487
 1931POPC   GL126293  10.505  28.383   9.222
 1931POPC   GL226294  10.741  28.143   9.181
 1931POPC   C1A26295  10.488  28.497   8.809
 1931POPC   D2A26296  10.414  28.259   8.405
 1931POPC   C3A26297  10.647  28.457   8.078
 1931POPC   C4A26298  10.547  28.662   7.694
 1931POPC   C1B26299  10.728  28.054   8.765
 1931POPC   C2B26300  11.010  28.147   8.406
 1931POPC   C3B26301  10.985  28.090   7.946
 1931POPC   C4B26302  10.658  28.168   7.634
 1932POPC   NC326303  40.274   5.621   9.517
 1932POPC   PO426304  39.503   5.541   9.510
 1932POPC   GL126305  39.856   5.777   9.244
 1932POPC   GL226306  40.065   6.098   9.195
 1932POPC   C1A26307  40.084   5.704   8.853
 1932POPC   D2A26308  40.307   5.706   8.485
 1932POPC   C3A26309  40.099   5.567   8.115
 1932POPC   C4A26310  40.135   5.734   7.702
 1932POPC   C1B26311  39.756   6.103   8.834
 1932POPC   C2B26312  39.804   5.913   8.417
 1932POPC   C3B26313  40.104   6.076   8.122
 1932POPC   C4B26314  40.008   6.332   7.809
 1933POPC   NC326315  20.361  43.225   9.705
 1933POPC   PO426316  20.792  42.733   9.449
 1933POPC   GL126317  20.643  43.116   9.242
 1933POPC   GL226318  20.945  43.310   9.185
 1933POPC   C1A26319  20.535  43.198   8.796
 1933POPC   D2A26320  20.622  42.867   8.455
 1933POPC   C3A26321  20.528  42.968   8.014
 1933POPC   C4A26322  20.689  42.974   7.613
 1933POPC   C1B26323  21.005  43.023   8.816
 1933POPC   C2B26324  20.984  43.223   8.424
 1933POPC   C3B26325  21.036  43.117   7.989
 1933POPC   C4B26326  20.885  43.432   7.726
 1934POPC   NC326327   0.243  33.963   9.731
 1934POPC   PO426328   0.312  34.620   9.555
 1934POPC   GL126329   0.372  34.376   9.194
 1934POPC   GL226330   0.068  34.266   9.147
 1934POPC   C1A26331   0.554  34.361   8.769
 1934POPC   D2A26332   0.364  34.454   8.371
 1934POPC   C3A26333   0.549  34.346   8.003
 1934POPC   C4A26334   0.667  34.719   7.819
 1934POPC   C1B26335   0.058  34.525   8.782
 1934POPC   C2B26336  44.862  34.493   8.377
 1934POPC   C3B26337   0.032  34.428   7.964
 1934POPC   C4B26338   0.128  34.663   7.606
 1935POPC   NC326339  37.985  26.671   9.535
 1935POPC   PO426340  37.429  27.069   9.389
 1935POPC   GL126341  37.642  26.852   9.067
 1935POPC   GL226342  37.927  27.024   9.154
 1935POPC   C1A26343  37.629  26.768   8.607
 1935POPC   D2A26344  37.598  26.650   8.162
 1935POPC   C3A26345  37.445  26.945   7.857
 1935POPC   C4A26346  37.366  26.868   7.386
 1935POPC   C1B26347  37.926  27.179   8.721
 1935POPC   C2B26348  37.827  27.093   8.242
 1935POPC   C3B26349  37.906  27.116   7.781
 1935POPC   C4B26350  37.621  27.298   7.468
 1936POPC   NC326351   9.445  17.186   9.286
 1936POPC   PO426352   9.765  16.578   9.510
 1936POPC   GL126353   9.909  16.579   9.120
 1936POPC   GL226354   9.642  16.803   8.988
 1936POPC   C1A26355   9.963  16.482   8.689
 1936POPC   D2A26356   9.711  16.778   8.428
 1936POPC   C3A26357   9.861  16.950   8.055
 1936POPC   C4A26358   9.765  17.166   7.707
 1936POPC   C1B26359   9.442  16.491   8.764
 1936POPC   C2B26360   9.604  16.260   8.396
 1936POPC   C3B26361   9.890  16.412   8.099
 1936POPC   C4B26362   9.589  16.546   7.790
 1937POPC   NC326363  27.913  32.746   9.547
 1937POPC   PO426364  27.594  33.326   9.818
 1937POPC   GL126365  27.606  33.070   9.371
 1937POPC   GL226366  27.892  33.226   9.179
 1937POPC   C1A26367  27.697  32.881   8.877
 1937POPC   D2A26368  27.500  32.975   8.451
 1937POPC   C3A26369  27.726  32.953   8.060
 1937POPC   C4A26370  27.712  32.752   7.668
 1937POPC   C1B26371  27.930  33.343   8.732
 1937POPC   C2B26372  27.774  33.463   8.291
 1937POPC   C3B26373  27.473  33.380   7.927
 1937POPC   C4B26374  27.634  33.279   7.479
 1938POPC   NC326375  36.861  44.296   9.477
 1938POPC   PO426376  37.161  44.904   9.455
 1938POPC   GL126377  37.036  44.633   9.104
 1938POPC   GL226378  36.686  44.482   9.045
 1938POPC   C1A26379  36.897  44.755   8.686
 1938POPC   D2A26380  36.869  44.519   8.320
 1938POPC   C3A26381  37.151  44.746   8.091
 1938POPC   C4A26382  37.161  44.839   7.678
 1938POPC   C1B26383  36.424  44.561   8.687
 1938POPC   C2B26384  36.421  44.777   8.274
 1938POPC   C3B26385  36.640  44.772   7.871
 1938POPC   C4B26386  36.707  44.524   7.501
 1939POPC   NC326387  27.960  25.838   9.522
 1939POPC   PO426388  27.400  26.226   9.540
 1939POPC   GL126389  27.706  26.144   9.201
 1939POPC   GL226390  27.896  26.377   9.031
 1939POPC   C1A26391  27.755  25.906   8.837
 1939POPC   D2A26392  27.735  25.705   8.440
 1939POPC   C3A26393  27.540  25.944   8.163
 1939POPC   C4A26394  27.705  25.962   7.775
 1939POPC   C1B26395  27.496  26.382   8.785
 1939POPC   C2B26396  27.335  26.399   8.348
 1939POPC   C3B26397  27.595  26.434   8.005
 1939POPC   C4B26398  27.768  26.420   7.612
 1940POPC   NC326399  22.663  36.325   9.448
 1940POPC   PO426400  22.033  36.159   9.608
 1940POPC   GL126401  22.020  36.138   9.197
 1940POPC   GL226402  22.252  36.392   9.177
 1940POPC   C1A26403  22.257  35.991   8.840
 1940POPC   D2A26404  22.238  35.784   8.451
 1940POPC   C3A26405  22.219  35.990   8.058
 1940POPC   C4A26406  22.098  35.939   7.685
 1940POPC   C1B26407  22.042  36.476   8.816
 1940POPC   C2B26408  22.072  36.285   8.441
 1940POPC   C3B26409  21.852  36.331   8.058
 1940POPC   C4B26410  22.059  36.497   7.724
 1941POPC   NC326411   9.511  26.533   9.520
 1941POPC   PO426412  10.084  26.748   9.400
 1941POPC   GL126413   9.887  26.803   9.012
 1941POPC   GL226414   9.579  26.758   9.069
 1941POPC   C1A26415   9.830  26.949   8.596
 1941POPC   D2A26416  10.059  26.831   8.266
 1941POPC   C3A26417  10.040  27.071   7.921
 1941POPC   C4A26418   9.944  26.870   7.564
 1941POPC   C1B26419   9.365  26.926   8.783
 1941POPC   C2B26420   9.305  26.782   8.395
 1941POPC   C3B26421   9.588  26.661   8.106
 1941POPC   C4B26422   9.459  26.844   7.746
 1942POPC   NC326423  39.167  16.399   9.436
 1942POPC   PO426424  39.530  17.008   9.519
 1942POPC   GL126425  39.322  16.976   9.153
 1942POPC   GL226426  38.961  16.922   9.121
 1942POPC   C1A26427  39.316  17.039   8.733
 1942POPC   D2A26428  39.232  16.811   8.370
 1942POPC   C3A26429  39.471  16.796   8.020
 1942POPC   C4A26430  39.291  16.737   7.639
 1942POPC   C1B26431  38.823  16.830   8.670
 1942POPC   C2B26432  38.742  16.846   8.208
 1942POPC   C3B26433  38.793  16.763   7.732
 1942POPC   C4B26434  38.814  16.523   7.275
 1943POPC   NC326435  26.880  31.430   9.509
 1943POPC   PO426436  26.686  32.075   9.328
 1943POPC   GL126437  26.971  31.739   9.100
 1943POPC   GL226438  27.204  31.422   9.112
 1943POPC   C1A26439  26.820  31.406   8.782
 1943POPC   D2A26440  26.894  31.464   8.341
 1943POPC   C3A26441  26.557  31.318   8.053
 1943POPC   C4A26442  26.426  31.478   7.605
 1943POPC   C1B26443  27.312  31.472   8.660
 1943POPC   C2B26444  27.369  31.164   8.294
 1943POPC   C3B26445  27.055  31.174   7.950
 1943POPC   C4B26446  26.902  31.602   7.836
 1944POPC   NC326447  12.211  23.307   9.487
 1944POPC   PO426448  11.809  22.782   9.696
 1944POPC   GL126449  11.823  22.833   9.183
 1944POPC   GL226450  12.090  23.075   9.056
 1944POPC   C1A26451  12.007  22.744   8.714
 1944POPC   D2A26452  12.097  23.035   8.353
 1944POPC   C3A26453  11.887  22.808   8.068
 1944POPC   C4A26454  12.123  22.594   7.783
 1944POPC   C1B26455  11.846  23.277   8.715
 1944POPC   C2B26456  11.817  23.514   8.362
 1944POPC   C3B26457  11.854  23.344   7.963
 1944POPC   C4B26458  12.181  23.104   7.773
 1945POPC   NC326459  31.984  42.526   9.476
 1945POPC   PO426460  32.553  42.071   9.403
 1945POPC   GL126461  32.294  42.253   9.103
 1945POPC   GL226462  31.977  42.090   9.030
 1945POPC   C1A26463  32.431  42.321   8.666
 1945POPC   D2A26464  32.268  42.162   8.265
 1945POPC   C3A26465  32.519  42.094   7.911
 1945POPC   C4A26466  32.394  42.291   7.549
 1945POPC   C1B26467  31.967  42.488   8.783
 1945POPC   C2B26468  32.036  42.613   8.334
 1945POPC   C3B26469  32.025  42.526   7.847
 1945POPC   C4B26470  31.822  42.734   7.411
 1946POPC   NC326471  29.398  36.498   9.286
 1946POPC   PO426472  28.916  36.127   9.570
 1946POPC   GL126473  29.131  36.056   9.160
 1946POPC   GL226474  29.068  36.336   8.926
 1946POPC   C1A26475  29.372  35.983   8.746
 1946POPC   D2A26476  29.242  36.157   8.319
 1946POPC   C3A26477  28.943  36.087   7.999
 1946POPC   C4A26478  28.720  36.041   7.635
 1946POPC   C1B26479  29.414  36.507   8.645
 1946POPC   C2B26480  29.576  36.539   8.225
 1946POPC   C3B26481  29.391  36.349   7.849
 1946POPC   C4B26482  29.211  36.209   7.443
 1947POPC   NC326483  43.360   3.565   9.549
 1947POPC   PO426484  44.003   3.212   9.456
 1947POPC   GL126485  43.876   3.412   9.085
 1947POPC   GL226486  43.519   3.486   9.060
 1947POPC   C1A26487  43.990   3.575   8.715
 1947POPC   D2A26488  43.829   3.386   8.326
 1947POPC   C3A26489  44.063   3.427   7.936
 1947POPC   C4A26490  43.984   3.507   7.489
 1947POPC   C1B26491  43.572   3.853   8.774
 1947POPC   C2B26492  43.767   3.931   8.405
 1947POPC   C3B26493  43.696   3.765   8.014
 1947POPC   C4B26494  43.955   3.973   7.727
 1948POPC   NC326495  35.055  16.656   9.308
 1948POPC   PO426496  34.474  16.512   9.572
 1948POPC   GL126497  34.547  16.631   9.152
 1948POPC   GL226498  34.327  16.861   9.133
 1948POPC   C1A26499  34.560  16.725   8.693
 1948POPC   D2A26500  34.482  16.604   8.284
 1948POPC   C3A26501  34.757  16.800   7.998
 1948POPC   C4A26502  34.474  16.646   7.727
 1948POPC   C1B26503  34.299  17.149   8.842
 1948POPC   C2B26504  34.256  17.045   8.437
 1948POPC   C3B26505  34.334  17.078   8.008
 1948POPC   C4B26506  34.478  17.200   7.620
 1949POPC   NC326507   6.973  44.872   9.567
 1949POPC   PO426508   7.283  44.334   9.468
 1949POPC   GL126509   7.406  44.663   9.202
 1949POPC   GL226510   7.130  44.845   9.092
 1949POPC   C1A26511   7.632  44.893   8.878
 1949POPC   D2A26512   7.702   0.049   8.462
 1949POPC   C3A26513   7.720  44.718   8.144
 1949POPC   C4A26514   7.691  44.771   7.711
 1949POPC   C1B26515   7.133  44.524   8.783
 1949POPC   C2B26516   7.278  44.453   8.369
 1949POPC   C3B26517   7.180  44.624   7.975
 1949POPC   C4B26518   7.257  44.564   7.562
 1950POPC   NC326519  44.120  43.009   9.451
 1950POPC   PO426520  43.458  43.223   9.457
 1950POPC   GL126521  43.713  43.170   9.105
 1950POPC   GL226522  43.885  43.492   9.171
 1950POPC   C1A26523  43.980  43.035   8.742
 1950POPC   D2A26524  44.109  42.890   8.306
 1950POPC   C3A26525  43.727  42.785   8.104
 1950POPC   C4A26526  43.570  42.965   7.736
 1950POPC   C1B26527  43.692  43.579   8.764
 1950POPC   C2B26528  43.704  43.326   8.381
 1950POPC   C3B26529  43.870  43.298   7.972
 1950POPC   C4B26530  43.853  43.563   7.619
 1951POPC   NC326531  11.416  34.247   9.517
 1951POPC   PO426532  10.884  34.614   9.441
 1951POPC   GL126533  11.189  34.698   9.124
 1951POPC   GL226534  11.530  34.660   9.168
 1951POPC   C1A26535  11.302  34.687   8.706
 1951POPC   D2A26536  11.476  34.669   8.331
 1951POPC   C3A26537  11.179  34.464   8.059
 1951POPC   C4A26538  11.040  34.602   7.656
 1951POPC   C1B26539  11.601  34.298   8.828
 1951POPC   C2B26540  11.630  34.181   8.378
 1951POPC   C3B26541  11.646  34.378   7.924
 1951POPC   C4B26542  11.512  34.480   7.468
 1952POPC   NC326543  29.821  40.305   9.421
 1952POPC   PO426544  30.284  39.778   9.531
 1952POPC   GL126545  30.133  39.833   9.118
 1952POPC   GL226546  30.189  40.160   9.091
 1952POPC   C1A26547  29.996  39.936   8.688
 1952POPC   D2A26548  30.037  40.034   8.274
 1952POPC   C3A26549  29.747  39.837   7.976
 1952POPC   C4A26550  29.361  39.789   7.779
 1952POPC   C1B26551  30.273  40.374   8.736
 1952POPC   C2B26552  30.117  40.527   8.371
 1952POPC   C3B26553  30.320  40.399   8.011
 1952POPC   C4B26554  30.126  40.289   7.627
 1953POPC   NC326555   4.969   5.939   9.494
 1953POPC   PO426556   5.407   5.525   9.283
 1953POPC   GL126557   5.204   5.821   9.014
 1953POPC   GL226558   4.973   6.085   8.987
 1953POPC   C1A26559   5.371   6.063   8.660
 1953POPC   D2A26560   5.240   5.883   8.265
 1953POPC   C3A26561   5.494   5.866   7.883
 1953POPC   C4A26562   5.486   5.629   7.488
 1953POPC   C1B26563   4.815   5.763   8.652
 1953POPC   C2B26564   4.607   5.609   8.247
 1953POPC   C3B26565   4.909   5.686   7.904
 1953POPC   C4B26566   5.039   6.133   7.864
 1954POPC   NC326567  37.248  20.300   9.490
 1954POPC   PO426568  37.405  20.974   9.434
 1954POPC   GL126569  37.639  20.661   9.195
 1954POPC   GL226570  37.657  20.277   9.190
 1954POPC   C1A26571  37.718  20.576   8.774
 1954POPC   D2A26572  37.851  20.434   8.376
 1954POPC   C3A26573  37.631  20.586   8.058
 1954POPC   C4A26574  37.861  20.622   7.697
 1954POPC   C1B26575  37.500  20.124   8.783
 1954POPC   C2B26576  37.400  20.244   8.438
 1954POPC   C3B26577  37.527  20.082   8.093
 1954POPC   C4B26578  37.550  20.216   7.714
 1955POPC   NC326579  42.500  29.548   9.353
 1955POPC   PO426580  42.615  30.221   9.503
 1955POPC   GL126581  42.493  30.171   9.114
 1955POPC   GL226582  42.210  29.956   9.156
 1955POPC   C1A26583  42.431  29.998   8.705
 1955POPC   D2A26584  42.241  30.150   8.351
 1955POPC   C3A26585  42.437  30.007   8.022
 1955POPC   C4A26586  42.423  29.666   7.782
 1955POPC   C1B26587  41.959  30.185   8.811
 1955POPC   C2B26588  41.794  30.365   8.437
 1955POPC   C3B26589  41.789  30.200   8.068
 1955POPC   C4B26590  42.043  30.118   7.742
 1956POPC   NC326591  36.417  15.354   9.479
 1956POPC   PO426592  36.020  14.790   9.390
 1956POPC   GL126593  36.093  14.971   9.036
 1956POPC   GL226594  36.037  15.314   9.104
 1956POPC   C1A26595  36.030  14.992   8.608
 1956POPC   D2A26596  36.325  15.062   8.334
 1956POPC   C3A26597  36.278  15.126   7.943
 1956POPC   C4A26598  36.312  14.889   7.587
 1956POPC   C1B26599  36.388  15.319   8.783
 1956POPC   C2B26600  36.436  15.555   8.376
 1956POPC   C3B26601  36.388  15.625   7.929
 1956POPC   C4B26602  36.392  15.388   7.516
 1957POPC   NC326603  37.025  24.404  10.014
 1957POPC   PO426604  36.843  23.876   9.600
 1957POPC   GL126605  36.939  23.673   9.228
 1957POPC   GL226606  37.277  23.773   9.269
 1957POPC   C1A26607  36.760  23.588   8.808
 1957POPC   D2A26608  36.874  23.750   8.390
 1957POPC   C3A26609  36.684  23.709   8.011
 1957POPC   C4A26610  36.843  23.505   7.660
 1957POPC   C1B26611  37.220  23.835   8.805
 1957POPC   C2B26612  37.377  23.920   8.368
 1957POPC   C3B26613  37.161  23.867   7.950
 1957POPC   C4B26614  37.085  23.888   7.465
 1958POPC   NC326615  36.025  31.103   9.421
 1958POPC   PO426616  35.983  31.821   9.515
 1958POPC   GL126617  36.161  31.594   9.168
 1958POPC   GL226618  35.897  31.379   8.996
 1958POPC   C1A26619  36.190  31.676   8.716
 1958POPC   D2A26620  36.084  31.339   8.428
 1958POPC   C3A26621  35.963  31.466   8.011
 1958POPC   C4A26622  36.188  31.668   7.680
 1958POPC   C1B26623  36.356  31.221   8.854
 1958POPC   C2B26624  36.534  31.074   8.466
 1958POPC   C3B26625  36.321  31.038   8.035
 1958POPC   C4B26626  36.166  31.175   7.630
 1959POPC   NC326627  17.742  10.671   9.554
 1959POPC   PO426628  17.277  10.219   9.424
 1959POPC   GL126629  17.471  10.493   9.106
 1959POPC   GL226630  17.658  10.828   9.081
 1959POPC   C1A26631  17.582  10.511   8.678
 1959POPC   D2A26632  17.643  10.703   8.300
 1959POPC   C3A26633  17.443  10.488   7.978
 1959POPC   C4A26634  17.565  10.635   7.589
 1959POPC   C1B26635  17.870  10.958   8.694
 1959POPC   C2B26636  17.876  11.156   8.256
 1959POPC   C3B26637  17.935  10.863   7.858
 1959POPC   C4B26638  18.010  10.725   7.351
 1960POPC   NC326639  21.307  44.912   9.495
 1960POPC   PO426640  21.275  44.311   9.647
 1960POPC   GL126641  21.517  44.533   9.227
 1960POPC   GL226642  21.278  44.761   9.015
 1960POPC   C1A26643  21.701  44.668   8.795
 1960POPC   D2A26644  21.419  44.825   8.426
 1960POPC   C3A26645  21.519  44.786   7.941
 1960POPC   C4A26646  21.330   0.020   7.554
 1960POPC   C1B26647  21.275  44.385   8.774
 1960POPC   C2B26648  21.160  44.230   8.388
 1960POPC   C3B26649  21.222  44.386   8.010
 1960POPC   C4B26650  21.020  44.719   7.820
 1961POPC   NC326651  14.141  31.420   9.224
 1961POPC   PO426652  14.612  31.055   9.471
 1961POPC   GL126653  14.603  31.277   9.058
 1961POPC   GL226654  14.556  31.639   9.010
 1961POPC   C1A26655  14.505  31.290   8.623
 1961POPC   D2A26656  14.669  31.664   8.385
 1961POPC   C3A26657  14.751  31.564   7.980
 1961POPC   C4A26658  14.503  31.197   8.006
 1961POPC   C1B26659  14.228  31.707   8.648
 1961POPC   C2B26660  13.933  31.466   8.395
 1961POPC   C3B26661  13.892  31.531   7.964
 1961POPC   C4B26662  14.237  31.491   7.688
 1962POPC   NC326663  18.324  17.209   9.363
 1962POPC   PO426664  18.178  17.804   9.607
 1962POPC   GL126665  18.233  17.717   9.152
 1962POPC   GL226666  18.578  17.799   9.117
 1962POPC   C1A26667  18.279  17.442   8.735
 1962POPC   D2A26668  18.272  17.178   8.344
 1962POPC   C3A26669  18.292  17.381   7.915
 1962POPC   C4A26670  18.289  17.221   7.464
 1962POPC   C1B26671  18.475  17.924   8.711
 1962POPC   C2B26672  18.528  17.735   8.314
 1962POPC   C3B26673  18.408  17.903   7.910
 1962POPC   C4B26674  18.396  17.717   7.524
 1963POPC   NC326675  11.620  43.349   9.426
 1963POPC   PO426676  11.078  43.118   9.815
 1963POPC   GL126677  11.141  43.217   9.285
 1963POPC   GL226678  11.207  42.922   9.051
 1963POPC   C1A26679  11.093  43.332   8.795
 1963POPC   D2A26680  11.157  43.105   8.400
 1963POPC   C3A26681  11.133  43.296   7.973
 1963POPC   C4A26682  10.946  43.069   7.636
 1963POPC   C1B26683  11.527  42.962   8.755
 1963POPC   C2B26684  11.684  43.173   8.409
 1963POPC   C3B26685  11.611  43.070   7.992
 1963POPC   C4B26686  11.438  42.895   7.628
 1964POPC   NC326687   7.039  12.992   9.473
 1964POPC   PO426688   7.661  12.863   9.632
 1964POPC   GL126689   7.520  12.740   9.218
 1964POPC   GL226690   7.440  13.076   9.144
 1964POPC   C1A26691   7.315  12.644   8.791
 1964POPC   D2A26692   7.115  12.795   8.394
 1964POPC   C3A26693   7.314  12.770   7.995
 1964POPC   C4A26694   7.630  12.958   7.751
 1964POPC   C1B26695   7.220  13.169   8.740
 1964POPC   C2B26696   7.420  13.201   8.309
 1964POPC   C3B26697   7.267  13.291   7.897
 1964POPC   C4B26698   7.171  13.052   7.527
 1965POPC   NC326699  26.027   8.550   9.324
 1965POPC   PO426700  26.071   9.189   9.721
 1965POPC   GL126701  26.012   9.199   9.215
 1965POPC   GL226702  25.746   8.950   9.190
 1965POPC   C1A26703  26.169   8.979   8.797
 1965POPC   D2A26704  26.132   8.672   8.444
 1965POPC   C3A26705  26.267   8.878   8.070
 1965POPC   C4A26706  26.199   9.180   7.737
 1965POPC   C1B26707  25.663   9.002   8.755
 1965POPC   C2B26708  25.881   9.102   8.373
 1965POPC   C3B26709  25.781   8.943   7.969
 1965POPC   C4B26710  25.661   9.142   7.613
 1966POPC   NC326711  41.087  44.068   9.940
 1966POPC   PO426712  40.594  43.838   9.457
 1966POPC   GL126713  40.702  43.909   9.059
 1966POPC   GL226714  41.039  43.935   9.212
 1966POPC   C1A26715  40.655  43.844   8.609
 1966POPC   D2A26716  40.768  44.118   8.275
 1966POPC   C3A26717  40.458  44.058   7.998
 1966POPC   C4A26718  40.596  43.862   7.649
 1966POPC   C1B26719  41.128  43.896   8.796
 1966POPC   C2B26720  41.134  43.725   8.397
 1966POPC   C3B26721  40.987  43.740   7.977
 1966POPC   C4B26722  41.102  43.925   7.606
 1967POPC   NC326723  32.283  14.704   9.589
 1967POPC   PO426724  32.464  14.127   9.528
 1967POPC   GL126725  32.159  14.248   9.216
 1967POPC   GL226726  32.179  14.591   9.121
 1967POPC   C1A26727  32.016  14.229   8.788
 1967POPC   D2A26728  32.299  14.122   8.441
 1967POPC   C3A26729  32.107  14.037   8.072
 1967POPC   C4A26730  32.040  14.371   7.841
 1967POPC   C1B26731  32.188  14.712   8.721
 1967POPC   C2B26732  32.072  14.566   8.342
 1967POPC   C3B26733  32.260  14.806   8.052
 1967POPC   C4B26734  32.372  14.705   7.657
 1968POPC   NC326735  21.033  23.365   9.449
 1968POPC   PO426736  21.285  24.041   9.426
 1968POPC   GL126737  21.185  23.827   9.108
 1968POPC   GL226738  21.386  23.541   9.122
 1968POPC   C1A26739  21.365  23.841   8.699
 1968POPC   D2A26740  21.160  23.827   8.313
 1968POPC   C3A26741  21.452  23.847   7.992
 1968POPC   C4A26742  21.273  23.865   7.616
 1968POPC   C1B26743  21.110  23.387   8.764
 1968POPC   C2B26744  21.218  23.272   8.335
 1968POPC   C3B26745  21.098  23.442   7.938
 1968POPC   C4B26746  21.346  23.355   7.602
 1969POPC   NC326747  15.952  10.439   9.579
 1969POPC   PO426748  16.272  10.863   9.140
 1969POPC   GL126749  15.963  10.570   9.077
 1969POPC   GL226750  15.624  10.591   9.205
 1969POPC   C1A26751  15.906  10.571   8.669
 1969POPC   D2A26752  16.140  10.439   8.357
 1969POPC   C3A26753  16.083  10.720   8.021
 1969POPC   C4A26754  15.842  10.678   7.663
 1969POPC   C1B26755  15.503  10.349   8.863
 1969POPC   C2B26756  15.609  10.259   8.420
 1969POPC   C3B26757  15.542  10.491   8.049
 1969POPC   C4B26758  15.425  10.365   7.640
 1970POPC   NC326759   0.053  33.419   9.479
 1970POPC   PO426760   0.627  33.688   9.734
 1970POPC   GL126761   0.540  33.873   9.303
 1970POPC   GL226762   0.225  33.790   9.160
 1970POPC   C1A26763   0.637  33.854   8.845
 1970POPC   D2A26764   0.570  33.991   8.397
 1970POPC   C3A26765   0.777  33.841   8.006
 1970POPC   C4A26766   0.608  33.700   7.598
 1970POPC   C1B26767   0.151  34.005   8.742
 1970POPC   C2B26768   0.046  34.022   8.326
 1970POPC   C3B26769   0.263  33.906   7.966
 1970POPC   C4B26770   0.230  34.119   7.587
 1971POPC   NC326771  22.328  19.454   9.949
 1971POPC   PO426772  22.842  19.921   9.586
 1971POPC   GL126773  22.647  19.745   9.219
 1971POPC   GL226774  22.812  19.423   9.119
 1971POPC   C1A26775  22.794  19.893   8.836
 1971POPC   D2A26776  23.085  19.735   8.563
 1971POPC   C3A26777  22.887  19.826   8.170
 1971POPC   C4A26778  23.034  19.663   7.802
 1971POPC   C1B26779  22.686  19.405   8.706
 1971POPC   C2B26780  22.583  19.253   8.318
 1971POPC   C3B26781  22.493  19.525   8.016
 1971POPC   C4B26782  22.541  19.818   7.735
 1972POPC   NC326783  19.526  25.382   9.419
 1972POPC   PO426784  20.012  25.037   9.535
 1972POPC   GL126785  20.173  25.085   9.150
 1972POPC   GL226786  19.865  25.259   9.051
 1972POPC   C1A26787  20.204  25.060   8.726
 1972POPC   D2A26788  20.105  25.309   8.400
 1972POPC   C3A26789  20.151  25.139   8.004
 1972POPC   C4A26790  19.785  25.258   7.776
 1972POPC   C1B26791  19.536  25.443   8.767
 1972POPC   C2B26792  19.525  25.805   8.488
 1972POPC   C3B26793  19.464  25.762   8.039
 1972POPC   C4B26794  19.441  25.643   7.632
 1973POPC   NC326795  23.056  28.512   9.816
 1973POPC   PO426796  22.681  28.120   9.372
 1973POPC   GL126797  22.799  28.445   9.136
 1973POPC   GL226798  23.110  28.536   9.285
 1973POPC   C1A26799  22.734  28.331   8.711
 1973POPC   D2A26800  22.798  28.256   8.292
 1973POPC   C3A26801  22.807  28.586   8.033
 1973POPC   C4A26802  22.886  28.293   7.766
 1973POPC   C1B26803  23.244  28.385   8.856
 1973POPC   C2B26804  23.308  28.158   8.466
 1973POPC   C3B26805  23.315  28.222   8.024
 1973POPC   C4B26806  23.278  28.643   7.818
 1974POPC   NC326807   7.201   3.001   9.450
 1974POPC   PO426808   7.886   2.847   9.368
 1974POPC   GL126809   7.560   2.643   9.094
 1974POPC   GL226810   7.181   2.778   9.004
 1974POPC   C1A26811   7.437   2.493   8.670
 1974POPC   D2A26812   7.133   2.736   8.435
 1974POPC   C3A26813   7.268   2.710   8.015
 1974POPC   C4A26814   7.227   2.932   7.679
 1974POPC   C1B26815   7.468   3.010   8.741
 1974POPC   C2B26816   7.637   2.878   8.345
 1974POPC   C3B26817   7.648   3.083   7.924
 1974POPC   C4B26818   7.862   3.114   7.511
 1975POPC   NC326819   6.927  17.002   9.484
 1975POPC   PO426820   6.777  16.323   9.456
 1975POPC   GL126821   6.797  16.633   9.130
 1975POPC   GL226822   6.503  16.862   9.186
 1975POPC   C1A26823   6.652  16.707   8.707
 1975POPC   D2A26824   6.518  16.551   8.321
 1975POPC   C3A26825   6.751  16.668   7.976
 1975POPC   C4A26826   6.855  16.746   7.533
 1975POPC   C1B26827   6.255  17.057   8.843
 1975POPC   C2B26828   6.039  17.067   8.465
 1975POPC   C3B26829   6.248  16.921   8.117
 1975POPC   C4B26830   6.558  17.116   7.847
 1976POPC   NC326831  38.614  42.349   9.485
 1976POPC   PO426832  38.028  42.403   9.723
 1976POPC   GL126833  38.200  42.279   9.231
 1976POPC   GL226834  38.522  42.069   9.076
 1976POPC   C1A26835  38.245  42.440   8.807
 1976POPC   D2A26836  37.989  42.554   8.436
 1976POPC   C3A26837  38.226  42.363   8.077
 1976POPC   C4A26838  38.428  42.326   7.687
 1976POPC   C1B26839  38.746  42.131   8.663
 1976POPC   C2B26840  38.716  42.216   8.229
 1976POPC   C3B26841  38.919  42.315   7.860
 1976POPC   C4B26842  38.831  42.557   7.468
 1977POPC   NC326843   5.020  37.458   9.347
 1977POPC   PO426844   5.331  37.966   9.726
 1977POPC   GL126845   5.055  38.030   9.281
 1977POPC   GL226846   4.781  37.877   9.128
 1977POPC   C1A26847   5.130  37.937   8.755
 1977POPC   D2A26848   5.210  37.553   8.483
 1977POPC   C3A26849   5.353  37.666   8.072
 1977POPC   C4A26850   5.404  37.954   7.750
 1977POPC   C1B26851   4.748  37.573   8.762
 1977POPC   C2B26852   4.750  37.299   8.424
 1977POPC   C3B26853   4.766  37.488   8.047
 1977POPC   C4B26854   4.904  37.770   7.759
 1978POPC   NC326855  39.626  44.656   9.585
 1978POPC   PO426856  40.296  44.727   9.478
 1978POPC   GL126857  39.937  44.634   9.162
 1978POPC   GL226858  39.604  44.850   9.120
 1978POPC   C1A26859  39.983  44.381   8.765
 1978POPC   D2A26860  40.255  44.377   8.389
 1978POPC   C3A26861  40.011  44.314   8.013
 1978POPC   C4A26862  40.108  44.503   7.621
 1978POPC   C1B26863  39.753  44.845   8.724
 1978POPC   C2B26864  39.846  44.669   8.340
 1978POPC   C3B26865  40.064  44.841   8.008
 1978POPC   C4B26866  39.849  44.982   7.657
 1979POPC   NC326867   0.064  11.590   9.260
 1979POPC   PO426868   0.510  11.238   9.664
 1979POPC   GL126869   0.570  11.241   9.237
 1979POPC   GL226870   0.570  11.602   9.292
 1979POPC   C1A26871   0.321  11.139   8.866
 1979POPC   D2A26872   0.236  11.336   8.484
 1979POPC   C3A26873   0.546  11.105   8.272
 1979POPC   C4A26874   0.453  10.961   7.886
 1979POPC   C1B26875   0.539  11.619   8.838
 1979POPC   C2B26876   0.731  11.548   8.496
 1979POPC   C3B26877   0.757  11.526   8.075
 1979POPC   C4B26878   0.874  11.548   7.668
 1980POPC   NC326879  42.235  16.830   9.449
 1980POPC   PO426880  42.850  16.982   9.340
 1980POPC   GL126881  42.518  16.893   9.034
 1980POPC   GL226882  42.448  16.526   9.104
 1980POPC   C1A26883  42.299  16.754   8.651
 1980POPC   D2A26884  41.983  16.808   8.356
 1980POPC   C3A26885  42.142  16.886   7.953
 1980POPC   C4A26886  42.190  16.490   7.795
 1980POPC   C1B26887  42.735  16.522   8.760
 1980POPC   C2B26888  42.608  16.510   8.325
 1980POPC   C3B26889  42.709  16.507   7.914
 1980POPC   C4B26890  42.614  16.301   7.542
 1981POPC   NC326891  11.526  15.534   9.447
 1981POPC   PO426892  11.314  16.192   9.686
 1981POPC   GL126893  11.285  16.041   9.273
 1981POPC   GL226894  11.558  16.184   9.088
 1981POPC   C1A26895  10.996  15.979   8.913
 1981POPC   D2A26896  10.905  15.933   8.451
 1981POPC   C3A26897  11.135  16.108   8.091
 1981POPC   C4A26898  11.348  16.162   7.673
 1981POPC   C1B26899  11.480  15.805   8.857
 1981POPC   C2B26900  11.434  15.932   8.459
 1981POPC   C3B26901  11.605  15.923   8.046
 1981POPC   C4B26902  11.557  15.718   7.648
 1982POPC   NC326903  13.431  10.357   9.461
 1982POPC   PO426904  14.091  10.593   9.615
 1982POPC   GL126905  13.841  10.600   9.231
 1982POPC   GL226906  13.826  10.266   9.096
 1982POPC   C1A26907  13.807  10.669   8.784
 1982POPC   D2A26908  13.631  10.539   8.406
 1982POPC   C3A26909  13.789  10.660   7.997
 1982POPC   C4A26910  13.457  10.711   7.668
 1982POPC   C1B26911  13.656  10.101   8.709
 1982POPC   C2B26912  13.514  10.066   8.273
 1982POPC   C3B26913  13.512  10.256   7.866
 1982POPC   C4B26914  13.721  10.350   7.449
 1983POPC   NC326915  33.435  37.058   9.321
 1983POPC   PO426916  34.127  37.137   9.424
 1983POPC   GL126917  33.882  37.039   9.080
 1983POPC   GL226918  33.749  36.694   9.137
 1983POPC   C1A26919  33.592  37.029   8.714
 1983POPC   D2A26920  33.377  36.706   8.528
 1983POPC   C3A26921  33.407  36.706   8.077
 1983POPC   C4A26922  33.667  36.962   7.785
 1983POPC   C1B26923  33.926  36.637   8.730
 1983POPC   C2B26924  33.863  36.838   8.331
 1983POPC   C3B26925  34.084  36.720   8.010
 1983POPC   C4B26926  34.158  36.755   7.627
 1984POPC   NC326927  26.063   8.566   9.818
 1984POPC   PO426928  25.850   8.095   9.354
 1984POPC   GL126929  26.047   8.106   9.013
 1984POPC   GL226930  26.345   8.179   9.149
 1984POPC   C1A26931  26.013   8.138   8.584
 1984POPC   D2A26932  25.755   8.362   8.290
 1984POPC   C3A26933  25.847   8.173   7.917
 1984POPC   C4A26934  25.755   7.772   7.723
 1984POPC   C1B26935  26.400   8.417   8.787
 1984POPC   C2B26936  26.471   8.225   8.398
 1984POPC   C3B26937  26.380   8.034   8.014
 1984POPC   C4B26938  26.303   8.406   7.819
 1985POPC   NC326939   0.404   0.065   9.383
 1985POPC   PO426940   0.534  44.444   9.593
 1985POPC   GL126941   0.423  44.436   9.170
 1985POPC   GL226942   0.228  44.700   9.077
 1985POPC   C1A26943   0.521  44.374   8.746
 1985POPC   D2A26944   0.602  44.616   8.369
 1985POPC   C3A26945   0.316  44.552   8.109
 1985POPC   C4A26946   0.494  44.280   7.812
 1985POPC   C1B26947   0.186  44.753   8.645
 1985POPC   C2B26948  44.936  44.970   8.371
 1985POPC   C3B26949   0.072   0.071   7.978
 1985POPC   C4B26950   0.241  44.802   7.680
 1986POPC   NC326951   7.157  19.582   9.436
 1986POPC   PO426952   7.734  19.973   9.451
 1986POPC   GL126953   7.357  19.976   9.145
 1986POPC   GL226954   7.124  20.290   9.095
 1986POPC   C1A26955   7.394  19.834   8.748
 1986POPC   D2A26956   7.382  19.723   8.347
 1986POPC   C3A26957   7.602  19.449   8.155
 1986POPC   C4A26958   7.491  19.617   7.773
 1986POPC   C1B26959   7.023  20.185   8.710
 1986POPC   C2B26960   6.902  19.873   8.404
 1986POPC   C3B26961   7.031  19.766   7.956
 1986POPC   C4B26962   7.030  19.926   7.513
 1987POPC   NC326963  23.236  21.042   9.227
 1987POPC   PO426964  23.948  21.227   9.208
 1987POPC   GL126965  23.772  21.516   9.029
 1987POPC   GL226966  23.459  21.494   9.155
 1987POPC   C1A26967  23.813  21.694   8.635
 1987POPC   D2A26968  23.678  21.583   8.262
 1987POPC   C3A26969  23.937  21.320   8.085
 1987POPC   C4A26970  23.839  21.448   7.712
 1987POPC   C1B26971  23.361  21.466   8.720
 1987POPC   C2B26972  23.252  21.244   8.357
 1987POPC   C3B26973  23.397  21.269   7.920
 1987POPC   C4B26974  23.483  21.167   7.486
 1988POPC   NC326975  43.234  44.593   9.673
 1988POPC   PO426976  43.330   0.172   9.346
 1988POPC   GL126977  43.225  44.757   9.181
 1988POPC   GL226978  42.895  44.665   9.254
 1988POPC   C1A26979  43.213  44.510   8.824
 1988POPC   D2A26980  43.460  44.471   8.456
 1988POPC   C3A26981  43.252  44.687   8.150
 1988POPC   C4A26982  43.180  44.650   7.743
 1988POPC   C1B26983  42.707  44.681   8.852
 1988POPC   C2B26984  42.841  44.655   8.451
 1988POPC   C3B26985  42.754  44.586   8.047
 1988POPC   C4B26986  42.682  44.711   7.670
 1989POPC   NC326987  28.413  21.478   9.674
 1989POPC   PO426988  28.452  20.896   9.408
 1989POPC   GL126989  28.415  21.289   9.134
 1989POPC   GL226990  28.438  21.669   9.212
 1989POPC   C1A26991  28.155  21.309   8.748
 1989POPC   D2A26992  28.166  21.164   8.333
 1989POPC   C3A26993  27.968  21.381   8.017
 1989POPC   C4A26994  28.132  21.626   7.651
 1989POPC   C1B26995  28.474  21.693   8.791
 1989POPC   C2B26996  28.323  21.739   8.392
 1989POPC   C3B26997  28.440  21.556   8.036
 1989POPC   C4B26998  28.751  21.612   7.766
 1990POPC   NC326999   7.445  38.926   9.391
 1990POPC   PO427000   7.077  38.274   9.401
 1990POPC   GL127001   7.272  38.470   9.045
 1990POPC   GL227002   7.152  38.845   8.992
 1990POPC   C1A27003   7.598  38.514   8.730
 1990POPC   D2A27004   7.597  38.657   8.280
 1990POPC   C3A27005   7.528  38.343   7.940
 1990POPC   C4A27006   7.558  38.296   7.483
 1990POPC   C1B27007   7.138  38.735   8.568
 1990POPC   C2B27008   7.000  38.442   8.246
 1990POPC   C3B27009   7.027  38.403   7.781
 1990POPC   C4B27010   7.079  38.201   7.373
 1991POPC   NC327011  31.563   5.640   9.535
 1991POPC   PO427012  31.688   6.264   9.269
 1991POPC   GL127013  31.379   6.008   9.141
 1991POPC   GL227014  31.243   5.659   9.163
 1991POPC   C1A27015  31.490   6.002   8.689
 1991POPC   D2A27016  31.610   5.941   8.284
 1991POPC   C3A27017  31.682   6.262   7.975
 1991POPC   C4A27018  31.502   6.127   7.615
 1991POPC   C1B27019  31.431   5.523   8.825
 1991POPC   C2B27020  31.448   5.450   8.414
 1991POPC   C3B27021  31.370   5.589   8.011
 1991POPC   C4B27022  31.469   5.618   7.627
 1992POPC   NC327023  37.078   3.384   9.377
 1992POPC   PO427024  36.540   3.910   9.389
 1992POPC   GL127025  36.688   3.625   9.071
 1992POPC   GL227026  37.023   3.753   9.034
 1992POPC   C1A27027  36.824   3.568   8.613
 1992POPC   D2A27028  36.779   3.382   8.210
 1992POPC   C3A27029  36.721   3.660   7.856
 1992POPC   C4A27030  36.693   3.413   7.489
 1992POPC   C1B27031  37.315   3.712   8.725
 1992POPC   C2B27032  37.302   3.485   8.338
 1992POPC   C3B27033  37.200   3.544   7.917
 1992POPC   C4B27034  37.198   3.666   7.480
 1993POPC   NC327035  40.261  28.793   9.343
 1993POPC   PO427036  39.649  29.078   9.519
 1993POPC   GL127037  39.847  29.026   9.136
 1993POPC   GL227038  40.154  29.247   9.134
 1993POPC   C1A27039  39.919  28.987   8.706
 1993POPC   D2A27040  39.819  29.359   8.432
 1993POPC   C3A27041  39.846  29.226   8.009
 1993POPC   C4A27042  39.630  29.157   7.622
 1993POPC   C1B27043  40.274  29.355   8.720
 1993POPC   C2B27044  40.259  29.109   8.346
 1993POPC   C3B27045  40.369  29.156   7.958
 1993POPC   C4B27046  40.507  29.178   7.541
 1994POPC   NC327047  32.223  15.401   9.523
 1994POPC   PO427048  32.670  14.917   9.478
 1994POPC   GL127049  32.341  15.091   9.146
 1994POPC   GL227050  32.453  15.485   9.094
 1994POPC   C1A27051  32.348  15.196   8.691
 1994POPC   D2A27052  32.629  15.052   8.378
 1994POPC   C3A27053  32.566  15.232   7.965
 1994POPC   C4A27054  32.233  15.175   7.684
 1994POPC   C1B27055  32.148  15.668   8.800
 1994POPC   C2B27056  32.090  15.545   8.366
 1994POPC   C3B27057  32.162  15.604   7.922
 1994POPC   C4B27058  32.513  15.575   7.589
 1995POPC   NC327059  41.651  18.295   9.570
 1995POPC   PO427060  41.371  17.820   9.176
 1995POPC   GL127061  41.431  18.265   9.107
 1995POPC   GL227062  41.765  18.422   9.088
 1995POPC   C1A27063  41.528  18.193   8.666
 1995POPC   D2A27064  41.803  18.073   8.373
 1995POPC   C3A27065  41.600  18.116   8.019
 1995POPC   C4A27066  41.667  18.096   7.639
 1995POPC   C1B27067  41.710  18.649   8.711
 1995POPC   C2B27068  41.631  18.565   8.263
 1995POPC   C3B27069  41.732  18.628   7.807
 1995POPC   C4B27070  41.873  18.467   7.395
 1996POPC   NC327071  35.161  21.574   9.687
 1996POPC   PO427072  35.785  21.230   9.659
 1996POPC   GL127073  35.488  21.387   9.311
 1996POPC   GL227074  35.152  21.197   9.246
 1996POPC   C1A27075  35.321  21.548   8.894
 1996POPC   D2A27076  35.475  21.325   8.520
 1996POPC   C3A27077  35.431  21.476   8.096
 1996POPC   C4A27078  35.483  21.371   7.678
 1996POPC   C1B27079  35.064  21.111   8.775
 1996POPC   C2B27080  34.987  21.286   8.345
 1996POPC   C3B27081  35.013  21.230   7.861
 1996POPC   C4B27082  35.052  21.523   7.476
 1997POPC   NC327083   1.636  11.166   9.369
 1997POPC   PO427084   2.275  11.189   9.452
 1997POPC   GL127085   2.061  11.487   9.156
 1997POPC   GL227086   1.683  11.522   9.004
 1997POPC   C1A27087   2.100  11.359   8.744
 1997POPC   D2A27088   1.862  11.407   8.401
 1997POPC   C3A27089   2.088  11.317   8.033
 1997POPC   C4A27090   2.037  11.549   7.680
 1997POPC   C1B27091   1.516  11.151   8.754
 1997POPC   C2B27092   1.529  10.992   8.385
 1997POPC   C3B27093   1.574  11.196   8.021
 1997POPC   C4B27094   1.748  11.098   7.641
 1998POPC   NC327095   9.842  19.401   9.502
 1998POPC   PO427096   9.936  18.744   9.493
 1998POPC   GL127097   9.822  19.017   9.144
 1998POPC   GL227098  10.140  19.143   9.183
 1998POPC   C1A27099   9.648  18.930   8.715
 1998POPC   D2A27100   9.354  18.967   8.346
 1998POPC   C3A27101   9.517  18.938   7.946
 1998POPC   C4A27102   9.727  19.097   7.616
 1998POPC   C1B27103  10.089  19.360   8.803
 1998POPC   C2B27104   9.989  19.219   8.388
 1998POPC   C3B27105  10.122  19.132   7.967
 1998POPC   C4B27106  10.285  19.278   7.579
 1999POPC   NC327107  42.239   4.043   9.683
 1999POPC   PO427108  42.516   4.554   9.435
 1999POPC   GL127109  42.458   4.525   9.022
 1999POPC   GL227110  42.458   4.218   9.044
 1999POPC   C1A27111  42.311   4.339   8.595
 1999POPC   D2A27112  42.255   4.073   8.235
 1999POPC   C3A27113  42.239   4.360   7.907
 1999POPC   C4A27114  42.238   4.329   7.465
 1999POPC   C1B27115  42.704   4.055   8.751
 1999POPC   C2B27116  42.809   4.162   8.311
 1999POPC   C3B27117  42.681   4.129   7.868
 1999POPC   C4B27118  42.624   4.027   7.430
 2000POPC   NC327119   8.575   2.296   9.401
 2000POPC   PO427120   8.963   1.872   9.726
 2000POPC   GL127121   9.008   1.802   9.222
 2000POPC   GL227122   8.712   1.935   9.080
 2000POPC   C1A27123   9.087   1.740   8.754
 2000POPC   D2A27124   9.329   1.880   8.350
 2000POPC   C3A27125   9.133   1.670   7.983
 2000POPC   C4A27126   8.711   1.573   7.836
 2000POPC   C1B27127   8.785   2.161   8.689
 2000POPC   C2B27128   8.804   1.943   8.294
 2000POPC   C3B27129   8.811   2.073   7.880
 2000POPC   C4B27130   8.583   2.408   7.775
 2001POPC   NC327131  15.846   8.262   9.571
 2001POPC   PO427132  16.426   8.002   9.481
 2001POPC   GL127133  16.075   8.040   9.131
 2001POPC   GL227134  15.698   8.197   9.097
 2001POPC   C1A27135  16.147   8.082   8.665
 2001POPC   D2A27136  16.292   8.256   8.265
 2001POPC   C3A27137  16.091   8.036   7.907
 2001POPC   C4A27138  15.640   7.916   7.841
 2001POPC   C1B27139  15.713   8.336   8.687
 2001POPC   C2B27140  15.779   8.255   8.257
 2001POPC   C3B27141  15.750   8.440   7.837
 2001POPC   C4B27142  15.620   8.244   7.446
 2002POPC   NC327143  28.974  23.496   9.652
 2002POPC   PO427144  28.328  23.762   9.513
 2002POPC   GL127145  28.494  23.771   9.076
 2002POPC   GL227146  28.743  24.019   9.024
 2002POPC   C1A27147  28.339  23.812   8.638
 2002POPC   D2A27148  28.194  23.550   8.300
 2002POPC   C3A27149  28.278  23.552   7.843
 2002POPC   C4A27150  28.026  23.614   7.461
 2002POPC   C1B27151  28.857  23.910   8.646
 2002POPC   C2B27152  28.699  23.745   8.271
 2002POPC   C3B27153  28.788  24.020   7.940
 2002POPC   C4B27154  28.963  24.140   7.524
 2003POPC   NC327155  43.344  18.290   9.327
 2003POPC   PO427156  42.654  18.010   9.224
 2003POPC   GL127157  42.993  18.157   8.996
 2003POPC   GL227158  43.060  18.509   8.952
 2003POPC   C1A27159  43.167  18.111   8.601
 2003POPC   D2A27160  42.834  17.984   8.351
 2003POPC   C3A27161  42.871  18.004   7.942
 2003POPC   C4A27162  42.832  18.042   7.513
 2003POPC   C1B27163  43.457  18.523   8.718
 2003POPC   C2B27164  43.503  18.399   8.305
 2003POPC   C3B27165  43.491  18.536   7.904
 2003POPC   C4B27166  43.088  18.437   7.727
 2004POPC   NC327167   7.058   3.765   9.530
 2004POPC   PO427168   6.510   3.408   9.576
 2004POPC   GL127169   6.649   3.572   9.178
 2004POPC   GL227170   6.984   3.474   9.136
 2004POPC   C1A27171   6.597   3.665   8.732
 2004POPC   D2A27172   6.721   3.810   8.315
 2004POPC   C3A27173   6.524   3.612   7.923
 2004POPC   C4A27174   6.163   3.433   7.687
 2004POPC   C1B27175   6.984   3.243   8.782
 2004POPC   C2B27176   6.737   3.222   8.427
 2004POPC   C3B27177   6.896   3.114   8.038
 2004POPC   C4B27178   6.897   3.303   7.656
 2005POPC   NC327179  11.198  13.112   9.259
 2005POPC   PO427180  11.489  12.515   9.307
 2005POPC   GL127181  11.138  12.599   9.071
 2005POPC   GL227182  10.902  12.870   8.947
 2005POPC   C1A27183  11.201  12.609   8.632
 2005POPC   D2A27184  11.330  12.810   8.272
 2005POPC   C3A27185  11.159  12.725   7.887
 2005POPC   C4A27186  11.440  12.545   7.595
 2005POPC   C1B27187  11.180  13.125   8.636
 2005POPC   C2B27188  11.004  13.207   8.252
 2005POPC   C3B27189  10.790  13.137   7.924
 2005POPC   C4B27190  11.026  13.097   7.568
 2006POPC   NC327191   1.432   6.505   9.615
 2006POPC   PO427192   1.419   7.160   9.470
 2006POPC   GL127193   1.378   6.800   9.174
 2006POPC   GL227194   1.100   6.553   9.195
 2006POPC   C1A27195   1.451   6.612   8.778
 2006POPC   D2A27196   1.317   6.812   8.397
 2006POPC   C3A27197   1.443   6.625   8.032
 2006POPC   C4A27198   1.320   6.839   7.679
 2006POPC   C1B27199   1.034   6.301   8.825
 2006POPC   C2B27200   1.256   6.215   8.446
 2006POPC   C3B27201   1.061   6.258   8.052
 2006POPC   C4B27202   1.104   6.395   7.646
 2007POPC   NC327203  14.768  39.286   9.493
 2007POPC   PO427204  14.075  39.446   9.541
 2007POPC   GL127205  14.216  39.336   9.089
 2007POPC   GL227206  14.577  39.315   9.031
 2007POPC   C1A27207  14.274  39.402   8.613
 2007POPC   D2A27208  14.330  39.515   8.149
 2007POPC   C3A27209  14.183  39.308   7.730
 2007POPC   C4A27210  14.227  39.535   7.308
 2007POPC   C1B27211  14.671  39.063   8.702
 2007POPC   C2B27212  14.481  39.032   8.299
 2007POPC   C3B27213  14.648  39.158   7.925
 2007POPC   C4B27214  14.599  39.117   7.470
 2008POPC   NC327215  17.415  21.914   9.683
 2008POPC   PO427216  17.639  22.485   9.499
 2008POPC   GL127217  17.415  22.308   9.155
 2008POPC   GL227218  17.394  21.946   9.174
 2008POPC   C1A27219  17.464  22.365   8.737
 2008POPC   D2A27220  17.606  22.103   8.439
 2008POPC   C3A27221  17.462  22.231   8.087
 2008POPC   C4A27222  17.528  22.234   7.679
 2008POPC   C1B27223  17.263  21.895   8.762
 2008POPC   C2B27224  17.236  21.781   8.294
 2008POPC   C3B27225  17.338  21.803   7.833
 2008POPC   C4B27226  17.275  21.867   7.365
 2009POPC   NC327227  12.957  44.554   9.475
 2009POPC   PO427228  12.514  44.122   9.435
 2009POPC   GL127229  12.739  44.323   9.070
 2009POPC   GL227230  12.842  44.741   9.029
 2009POPC   C1A27231  12.584  44.484   8.694
 2009POPC   D2A27232  12.835  44.683   8.425
 2009POPC   C3A27233  12.801  44.420   8.122
 2009POPC   C4A27234  12.907  44.514   7.733
 2009POPC   C1B27235  12.712   0.086   8.736
 2009POPC   C2B27236  12.499   0.062   8.319
 2009POPC   C3B27237  12.542  44.804   7.931
 2009POPC   C4B27238  12.692  44.928   7.489
 2010POPC   NC327239  16.391  25.630   9.455
 2010POPC   PO427240  16.885  26.120   9.497
 2010POPC   GL127241  16.805  25.897   9.142
 2010POPC   GL227242  16.463  25.921   9.057
 2010POPC   C1A27243  16.787  26.140   8.746
 2010POPC   D2A27244  16.925  26.349   8.401
 2010POPC   C3A27245  16.947  26.119   8.037
 2010POPC   C4A27246  16.653  26.117   7.759
 2010POPC   C1B27247  16.352  25.936   8.621
 2010POPC   C2B27248  16.387  26.075   8.206
 2010POPC   C3B27249  16.216  25.908   7.804
 2010POPC   C4B27250  16.465  25.739   7.425
 2011POPC   NC327251  39.876  16.359   9.555
 2011POPC   PO427252  40.282  16.849   9.478
 2011POPC   GL127253  40.136  16.599   9.170
 2011POPC   GL227254  40.296  16.319   9.204
 2011POPC   C1A27255  40.005  16.666   8.772
 2011POPC   D2A27256  39.752  16.761   8.452
 2011POPC   C3A27257  39.977  16.837   8.073
 2011POPC   C4A27258  39.849  16.916   7.653
 2011POPC   C1B27259  40.213  16.186   8.791
 2011POPC   C2B27260  40.007  16.306   8.393
 2011POPC   C3B27261  40.180  16.367   7.963
 2011POPC   C4B27262  39.989  16.435   7.541
 2012POPC   NC327263  29.665  14.030   9.426
 2012POPC   PO427264  30.307  14.177   9.346
 2012POPC   GL127265  30.240  13.740   9.056
 2012POPC   GL227266  30.058  13.384   9.087
 2012POPC   C1A27267  30.102  13.622   8.632
 2012POPC   D2A27268  29.979  13.922   8.310
 2012POPC   C3A27269  29.832  13.869   7.894
 2012POPC   C4A27270  30.035  13.694   7.511
 2012POPC   C1B27271  30.129  13.096   8.703
 2012POPC   C2B27272  30.054  13.224   8.260
 2012POPC   C3B27273  29.871  13.360   7.861
 2012POPC   C4B27274  29.791  13.262   7.403
 2013POPC   NC327275  40.247  32.601   9.571
 2013POPC   PO427276  40.230  31.895   9.473
 2013POPC   GL127277  40.075  32.191   9.142
 2013POPC   GL227278  39.813  32.445   9.282
 2013POPC   C1A27279  40.075  32.203   8.647
 2013POPC   D2A27280  40.223  32.011   8.224
 2013POPC   C3A27281  40.074  32.168   7.820
 2013POPC   C4A27282  40.084  32.004   7.398
 2013POPC   C1B27283  39.759  32.567   8.844
 2013POPC   C2B27284  39.620  32.423   8.443
 2013POPC   C3B27285  39.622  32.325   8.018
 2013POPC   C4B27286  39.642  32.216   7.572
 2014POPC   NC327287   8.930  10.193   9.802
 2014POPC   PO427288   9.169  10.718   9.389
 2014POPC   GL127289   8.905  10.615   9.035
 2014POPC   GL227290   8.659  10.351   8.924
 2014POPC   C1A27291   9.066  10.507   8.660
 2014POPC   D2A27292   8.964  10.673   8.286
 2014POPC   C3A27293   9.174  10.427   8.024
 2014POPC   C4A27294   9.127  10.211   7.676
 2014POPC   C1B27295   8.564  10.638   8.615
 2014POPC   C2B27296   8.508  10.936   8.351
 2014POPC   C3B27297   8.722  11.029   8.005
 2014POPC   C4B27298   8.818  10.663   7.740
 2015POPC   NC327299  37.939  29.226   9.509
 2015POPC   PO427300  38.672  29.223   9.451
 2015POPC   GL127301  38.319  29.222   9.171
 2015POPC   GL227302  38.096  28.978   9.006
 2015POPC   C1A27303  38.293  29.400   8.785
 2015POPC   D2A27304  38.604  29.333   8.462
 2015POPC   C3A27305  38.348  29.354   8.097
 2015POPC   C4A27306  38.551  29.166   7.756
 2015POPC   C1B27307  38.424  28.908   8.739
 2015POPC   C2B27308  38.378  28.875   8.308
 2015POPC   C3B27309  38.582  28.708   7.983
 2015POPC   C4B27310  38.771  28.753   7.590
 2016POPC   NC327311  24.246   9.293   9.258
 2016POPC   PO427312  24.812   9.037   9.361
 2016POPC   GL127313  24.525   8.754   9.140
 2016POPC   GL227314  24.291   8.920   8.932
 2016POPC   C1A27315  24.530   8.561   8.697
 2016POPC   D2A27316  24.297   8.853   8.394
 2016POPC   C3A27317  24.444   8.857   7.972
 2016POPC   C4A27318  24.343   9.028   7.587
 2016POPC   C1B27319  24.678   9.057   8.691
 2016POPC   C2B27320  24.855   9.020   8.234
 2016POPC   C3B27321  24.745   9.270   7.840
 2016POPC   C4B27322  24.557   9.486   7.440
 2017POPC   NC327323  24.811  19.268   9.396
 2017POPC   PO427324  24.291  18.853   9.450
 2017POPC   GL127325  24.547  18.979   9.062
 2017POPC   GL227326  24.482  19.326   9.010
 2017POPC   C1A27327  24.562  19.063   8.582
 2017POPC   D2A27328  24.441  19.130   8.118
 2017POPC   C3A27329  24.589  18.830   7.795
 2017POPC   C4A27330  24.362  18.492   7.548
 2017POPC   C1B27331  24.691  19.553   8.674
 2017POPC   C2B27332  24.801  19.477   8.254
 2017POPC   C3B27333  24.896  19.298   7.861
 2017POPC   C4B27334  24.684  19.203   7.462
 2018POPC   NC327335  25.021  36.152   9.618
 2018POPC   PO427336  25.367  36.733   9.532
 2018POPC   GL127337  25.479  36.357   9.190
 2018POPC   GL227338  25.195  36.146   9.080
 2018POPC   C1A27339  25.566  36.149   8.739
 2018POPC   D2A27340  25.296  36.027   8.361
 2018POPC   C3A27341  25.482  35.989   7.978
 2018POPC   C4A27342  25.466  36.134   7.535
 2018POPC   C1B27343  25.179  35.752   8.778
 2018POPC   C2B27344  24.891  35.660   8.437
 2018POPC   C3B27345  24.844  35.890   8.079
 2018POPC   C4B27346  25.059  35.897   7.752
 2019POPC   NC327347   0.038  13.143   9.904
 2019POPC   PO427348  44.530  12.849   9.475
 2019POPC   GL127349  44.580  13.110   9.109
 2019POPC   GL227350  44.927  13.242   8.941
 2019POPC   C1A27351  44.551  12.972   8.710
 2019POPC   D2A27352  44.853  13.062   8.419
 2019POPC   C3A27353  44.636  13.023   8.042
 2019POPC   C4A27354  44.825  12.953   7.654
 2019POPC   C1B27355   0.108  12.881   8.828
 2019POPC   C2B27356  44.878  12.573   8.634
 2019POPC   C3B27357  44.849  12.585   8.199
 2019POPC   C4B27358  44.877  12.467   7.791
 2020POPC   NC327359  35.740  32.262   9.461
 2020POPC   PO427360  35.071  31.992   9.473
 2020POPC   GL127361  35.337  32.118   9.143
 2020POPC   GL227362  35.311  32.470   9.024
 2020POPC   C1A27363  35.281  32.084   8.715
 2020POPC   D2A27364  35.477  32.059   8.364
 2020POPC   C3A27365  35.151  32.165   8.155
 2020POPC   C4A27366  35.210  32.062   7.759
 2020POPC   C1B27367  35.653  32.470   8.709
 2020POPC   C2B27368  35.832  32.418   8.283
 2020POPC   C3B27369  35.543  32.410   7.959
 2020POPC   C4B27370  35.488  32.675   7.607
 2021POPC   NC327371  12.050  41.265   9.511
 2021POPC   PO427372  12.428  40.657   9.455
 2021POPC   GL127373  12.251  40.694   9.096
 2021POPC   GL227374  12.005  40.968   9.103
 2021POPC   C1A27375  12.268  40.801   8.685
 2021POPC   D2A27376  11.967  40.882   8.385
 2021POPC   C3A27377  12.163  40.817   7.997
 2021POPC   C4A27378  12.264  40.764   7.570
 2021POPC   C1B27379  11.768  40.688   8.849
 2021POPC   C2B27380  11.720  40.410   8.510
 2021POPC   C3B27381  11.737  40.492   8.099
 2021POPC   C4B27382  11.748  40.675   7.718
 2022POPC   NC327383  17.918  13.186   9.211
 2022POPC   PO427384  18.446  12.924   9.557
 2022POPC   GL127385  18.400  12.958   9.142
 2022POPC   GL227386  18.735  13.088   9.113
 2022POPC   C1A27387  18.247  12.772   8.753
 2022POPC   D2A27388  18.068  12.523   8.407
 2022POPC   C3A27389  18.257  12.717   8.065
 2022POPC   C4A27390  18.096  13.023   7.809
 2022POPC   C1B27391  18.780  12.797   8.753
 2022POPC   C2B27392  18.685  12.553   8.390
 2022POPC   C3B27393  18.782  12.764   8.000
 2022POPC   C4B27394  18.586  12.826   7.636
 2023POPC   NC327395  41.143  10.615   9.360
 2023POPC   PO427396  40.587  10.217   9.491
 2023POPC   GL127397  40.492  10.403   9.082
 2023POPC   GL227398  40.772  10.664   9.009
 2023POPC   C1A27399  40.504  10.488   8.630
 2023POPC   D2A27400  40.634  10.626   8.250
 2023POPC   C3A27401  40.948  10.342   8.197
 2023POPC   C4A27402  41.064  10.140   7.823
 2023POPC   C1B27403  40.987  10.823   8.604
 2023POPC   C2B27404  41.131  10.825   8.157
 2023POPC   C3B27405  41.011  10.651   7.770
 2023POPC   C4B27406  41.174  10.670   7.317
 2024POPC   NC327407   8.573  33.043   9.304
 2024POPC   PO427408   9.243  32.894   9.430
 2024POPC   GL127409   9.207  33.011   9.071
 2024POPC   GL227410   9.171  33.354   9.116
 2024POPC   C1A27411   9.039  32.982   8.683
 2024POPC   D2A27412   8.913  32.734   8.332
 2024POPC   C3A27413   9.083  32.960   8.006
 2024POPC   C4A27414   9.045  33.277   7.739
 2024POPC   C1B27415   8.813  33.434   8.847
 2024POPC   C2B27416   8.634  33.235   8.484
 2024POPC   C3B27417   8.629  33.179   8.051
 2024POPC   C4B27418   8.572  33.428   7.673
 2025POPC   NC327419  37.604  27.413   9.642
 2025POPC   PO427420  37.424  28.087   9.587
 2025POPC   GL127421  37.434  27.826   9.188
 2025POPC   GL227422  37.592  27.471   9.127
 2025POPC   C1A27423  37.306  27.687   8.768
 2025POPC   D2A27424  37.472  27.344   8.519
 2025POPC   C3A27425  37.479  27.428   8.086
 2025POPC   C4A27426  37.392  27.821   7.864
 2025POPC   C1B27427  37.801  27.675   8.790
 2025POPC   C2B27428  37.925  27.565   8.372
 2025POPC   C3B27429  37.904  27.644   7.945
 2025POPC   C4B27430  38.176  27.531   7.659
 2026POPC   NC327431  36.522  35.244   9.490
 2026POPC   PO427432  37.128  35.589   9.466
 2026POPC   GL127433  36.866  35.462   9.124
 2026POPC   GL227434  36.848  35.076   9.100
 2026POPC   C1A27435  36.885  35.404   8.657
 2026POPC   D2A27436  36.759  35.545   8.245
 2026POPC   C3A27437  36.801  35.261   7.886
 2026POPC   C4A27438  36.829  35.572   7.587
 2026POPC   C1B27439  37.269  35.202   8.934
 2026POPC   C2B27440  37.389  35.224   8.517
 2026POPC   C3B27441  37.231  35.286   8.143
 2026POPC   C4B27442  37.302  35.263   7.694
 2027POPC   NC327443  15.422  32.132   9.706
 2027POPC   PO427444  14.838  32.445   9.628
 2027POPC   GL127445  15.145  32.224   9.298
 2027POPC   GL227446  14.955  31.983   9.112
 2027POPC   C1A27447  15.331  32.267   8.846
 2027POPC   D2A27448  15.513  32.434   8.444
 2027POPC   C3A27449  15.361  32.486   8.035
 2027POPC   C4A27450  15.378  32.100   7.845
 2027POPC   C1B27451  14.854  32.429   8.957
 2027POPC   C2B27452  14.799  32.522   8.544
 2027POPC   C3B27453  14.670  32.561   8.134
 2027POPC   C4B27454  14.878  32.298   7.820
 2028POPC   NC327455  40.551  36.498   9.866
 2028POPC   PO427456  40.338  36.035   9.380
 2028POPC   GL127457  40.557  36.217   9.040
 2028POPC   GL227458  40.842  36.310   9.275
 2028POPC   C1A27459  40.585  36.160   8.572
 2028POPC   D2A27460  40.859  35.960   8.278
 2028POPC   C3A27461  40.837  36.037   7.848
 2028POPC   C4A27462  41.027  35.918   7.474
 2028POPC   C1B27463  40.983  36.414   8.826
 2028POPC   C2B27464  40.948  36.558   8.380
 2028POPC   C3B27465  41.129  36.459   7.960
 2028POPC   C4B27466  40.984  36.438   7.513
 2029POPC   NC327467  28.306   0.200   9.541
 2029POPC   PO427468  28.278   0.889   9.476
 2029POPC   GL127469  28.110   0.576   9.189
 2029POPC   GL227470  27.895   0.251   9.233
 2029POPC   C1A27471  28.232   0.677   8.758
 2029POPC   D2A27472  28.464   0.578   8.427
 2029POPC   C3A27473  28.336   0.678   8.038
 2029POPC   C4A27474  28.498   0.436   7.746
 2029POPC   C1B27475  28.210   0.187   8.909
 2029POPC   C2B27476  28.137   0.203   8.522
 2029POPC   C3B27477  28.140   0.199   8.089
 2029POPC   C4B27478  28.255  44.986   7.740
 2030POPC   NC327479  33.929  33.561   9.712
 2030POPC   PO427480  33.845  32.902   9.494
 2030POPC   GL127481  33.953  33.210   9.208
 2030POPC   GL227482  33.614  33.113   9.064
 2030POPC   C1A27483  34.014  33.205   8.766
 2030POPC   D2A27484  33.658  33.090   8.503
 2030POPC   C3A27485  33.791  33.094   8.069
 2030POPC   C4A27486  33.812  33.000   7.622
 2030POPC   C1B27487  33.369  32.814   8.855
 2030POPC   C2B27488  33.430  32.587   8.505
 2030POPC   C3B27489  33.406  32.799   8.169
 2030POPC   C4B27490  33.362  32.806   7.757
 2031POPC   NC327491  24.832  11.738   9.456
 2031POPC   PO427492  25.359  12.179   9.491
 2031POPC   GL127493  25.227  12.118   9.112
 2031POPC   GL227494  25.244  11.745   9.146
 2031POPC   C1A27495  25.312  12.268   8.706
 2031POPC   D2A27496  25.178  12.240   8.311
 2031POPC   C3A27497  25.407  12.254   7.945
 2031POPC   C4A27498  25.062  12.373   7.692
 2031POPC   C1B27499  25.069  11.819   8.721
 2031POPC   C2B27500  25.076  11.687   8.303
 2031POPC   C3B27501  25.000  11.908   7.946
 2031POPC   C4B27502  25.058  11.880   7.533
 2032POPC   NC327503  29.644  14.987   9.519
 2032POPC   PO427504  30.310  15.212   9.425
 2032POPC   GL127505  30.283  15.177   9.044
 2032POPC   GL227506  29.903  15.188   9.053
 2032POPC   C1A27507  30.246  15.361   8.672
 2032POPC   D2A27508  30.029  15.242   8.357
 2032POPC   C3A27509  29.971  15.546   8.071
 2032POPC   C4A27510  29.759  15.346   7.777
 2032POPC   C1B27511  29.705  15.428   8.693
 2032POPC   C2B27512  29.534  15.314   8.256
 2032POPC   C3B27513  29.335  15.114   7.870
 2032POPC   C4B27514  29.406  15.261   7.414
 2033POPC   NC327515  43.722   4.496   9.487
 2033POPC   PO427516  43.733   3.811   9.409
 2033POPC   GL127517  43.765   4.178   9.100
 2033POPC   GL227518  44.025   4.461   9.046
 2033POPC   C1A27519  43.678   4.380   8.703
 2033POPC   D2A27520  43.783   4.657   8.386
 2033POPC   C3A27521  43.601   4.481   8.049
 2033POPC   C4A27522  43.636   4.523   7.631
 2033POPC   C1B27523  44.165   4.178   8.729
 2033POPC   C2B27524  44.210   4.203   8.278
 2033POPC   C3B27525  44.091   4.471   7.941
 2033POPC   C4B27526  44.094   4.412   7.478
 2034POPC   NC327527  20.044  40.930   9.441
 2034POPC   PO427528  19.705  40.324   9.541
 2034POPC   GL127529  19.584  40.474   9.089
 2034POPC   GL227530  19.867  40.704   9.019
 2034POPC   C1A27531  19.669  40.476   8.615
 2034POPC   D2A27532  19.959  40.655   8.331
 2034POPC   C3A27533  19.797  40.696   7.955
 2034POPC   C4A27534  19.914  40.674   7.547
 2034POPC   C1B27535  19.810  40.983   8.679
 2034POPC   C2B27536  19.958  41.161   8.262
 2034POPC   C3B27537  19.928  41.156   7.795
 2034POPC   C4B27538  19.599  41.073   7.448
 2035POPC   NC327539   3.179   6.563   9.513
 2035POPC   PO427540   3.645   7.038   9.507
 2035POPC   GL127541   3.478   6.789   9.147
 2035POPC   GL227542   3.289   6.469   9.031
 2035POPC   C1A27543   3.671   6.771   8.754
 2035POPC   D2A27544   3.789   6.449   8.480
 2035POPC   C3A27545   3.569   6.546   8.128
 2035POPC   C4A27546   3.606   6.534   7.706
 2035POPC   C1B27547   3.086   6.770   8.777
 2035POPC   C2B27548   3.107   6.861   8.338
 2035POPC   C3B27549   3.123   6.701   7.925
 2035POPC   C4B27550   3.237   6.786   7.478
 2036POPC   NC327551  41.506  24.080   9.497
 2036POPC   PO427552  41.855  24.605   9.442
 2036POPC   GL127553  41.484  24.506   9.175
 2036POPC   GL227554  41.438  24.186   9.004
 2036POPC   C1A27555  41.524  24.661   8.758
 2036POPC   D2A27556  41.774  24.685   8.378
 2036POPC   C3A27557  41.627  24.714   7.969
 2036POPC   C4A27558  41.846  24.388   7.762
 2036POPC   C1B27559  41.232  24.273   8.614
 2036POPC   C2B27560  41.359  24.338   8.191
 2036POPC   C3B27561  41.357  24.317   7.721
 2036POPC   C4B27562  41.377  24.063   7.289
 2037POPC   NC327563  30.557   8.877   9.490
 2037POPC   PO427564  30.831   9.478   9.605
 2037POPC   GL127565  30.860   9.229   9.235
 2037POPC   GL227566  30.541   9.262   9.177
 2037POPC   C1A27567  30.753   8.923   8.881
 2037POPC   D2A27568  30.596   8.846   8.473
 2037POPC   C3A27569  30.905   8.878   8.131
 2037POPC   C4A27570  30.800   8.868   7.701
 2037POPC   C1B27571  30.369   9.262   8.788
 2037POPC   C2B27572  30.476   9.331   8.366
 2037POPC   C3B27573  30.421   9.084   8.014
 2037POPC   C4B27574  30.390   9.115   7.583
 2038POPC   NC327575  26.385   3.788   9.433
 2038POPC   PO427576  25.930   3.301   9.247
 2038POPC   GL127577  26.125   3.551   9.055
 2038POPC   GL227578  25.931   3.822   9.157
 2038POPC   C1A27579  26.192   3.648   8.646
 2038POPC   D2A27580  26.258   3.398   8.298
 2038POPC   C3A27581  25.881   3.237   8.116
 2038POPC   C4A27582  25.739   3.219   7.681
 2038POPC   C1B27583  25.640   3.784   8.801
 2038POPC   C2B27584  25.791   3.803   8.372
 2038POPC   C3B27585  26.064   3.783   8.029
 2038POPC   C4B27586  25.835   3.728   7.686
 2039POPC   NC327587  28.987  44.754   9.503
 2039POPC   PO427588  29.279  44.161   9.473
 2039POPC   GL127589  29.099  44.429   9.119
 2039POPC   GL227590  29.322  44.739   9.109
 2039POPC   C1A27591  29.076  44.627   8.657
 2039POPC   D2A27592  29.091  44.887   8.227
 2039POPC   C3A27593  29.247  44.761   7.793
 2039POPC   C4A27594  29.261  44.358   7.525
 2039POPC   C1B27595  29.517  44.433   8.830
 2039POPC   C2B27596  29.684  44.490   8.426
 2039POPC   C3B27597  29.558  44.425   8.008
 2039POPC   C4B27598  29.746  44.427   7.613
 2040POPC   NC327599  20.338  29.539   9.334
 2040POPC   PO427600  20.168  28.946   9.329
 2040POPC   GL127601  20.482  29.156   9.037
 2040POPC   GL227602  20.781  29.422   9.048
 2040POPC   C1A27603  20.435  29.248   8.606
 2040POPC   D2A27604  20.132  29.110   8.295
 2040POPC   C3A27605  20.236  29.154   7.900
 2040POPC   C4A27606  20.536  28.892   7.818
 2040POPC   C1B27607  20.934  29.095   8.754
 2040POPC   C2B27608  21.060  28.882   8.361
 2040POPC   C3B27609  21.023  28.966   7.935
 2040POPC   C4B27610  20.791  29.354   7.837
 2041POPC   NC327611   3.973  38.745   9.491
 2041POPC   PO427612   4.597  38.458   9.689
 2041POPC   GL127613   4.427  38.529   9.268
 2041POPC   GL227614   4.395  38.214   9.061
 2041POPC   C1A27615   4.454  38.733   8.858
 2041POPC   D2A27616   4.637  38.943   8.479
 2041POPC   C3A27617   4.341  38.882   8.114
 2041POPC   C4A27618   3.919  38.771   7.888
 2041POPC   C1B27619   4.193  38.298   8.657
 2041POPC   C2B27620   3.984  38.265   8.269
 2041POPC   C3B27621   4.259  38.407   7.947
 2041POPC   C4B27622   4.601  38.308   7.657
 2042POPC   NC327623  17.649  23.555   9.452
 2042POPC   PO427624  17.070  23.748   9.735
 2042POPC   GL127625  17.227  23.830   9.316
 2042POPC   GL227626  17.220  23.522   9.165
 2042POPC   C1A27627  17.464  23.967   8.914
 2042POPC   D2A27628  17.542  23.829   8.458
 2042POPC   C3A27629  17.514  24.104   8.074
 2042POPC   C4A27630  17.496  23.932   7.654
 2042POPC   C1B27631  17.427  23.434   8.782
 2042POPC   C2B27632  17.506  23.132   8.456
 2042POPC   C3B27633  17.612  23.332   8.091
 2042POPC   C4B27634  17.460  23.391   7.690
 2043POPC   NC327635  16.053  44.350   9.817
 2043POPC   PO427636  15.541  44.558   9.499
 2043POPC   GL127637  15.669  44.718   9.046
 2043POPC   GL227638  16.021  44.851   9.010
 2043POPC   C1A27639  15.809  44.699   8.580
 2043POPC   D2A27640  15.951  44.743   8.154
 2043POPC   C3A27641  15.638  44.707   7.806
 2043POPC   C4A27642  15.645  44.387   7.491
 2043POPC   C1B27643  16.216   0.149   8.663
 2043POPC   C2B27644  16.319   0.159   8.204
 2043POPC   C3B27645  16.368  44.929   7.793
 2043POPC   C4B27646  16.473  44.694   7.393
 2044POPC   NC327647  17.913  18.875   9.354
 2044POPC   PO427648  18.417  19.339   9.458
 2044POPC   GL127649  18.297  19.128   9.145
 2044POPC   GL227650  17.994  19.338   9.103
 2044POPC   C1A27651  18.420  18.913   8.784
 2044POPC   D2A27652  18.234  18.727   8.413
 2044POPC   C3A27653  18.386  18.813   7.992
 2044POPC   C4A27654  18.130  18.910   7.660
 2044POPC   C1B27655  18.310  19.441   8.763
 2044POPC   C2B27656  18.325  19.247   8.385
 2044POPC   C3B27657  18.156  19.278   8.021
 2044POPC   C4B27658  18.302  19.430   7.672
 2045POPC   NC327659  33.346   3.258   9.308
 2045POPC   PO427660  33.751   3.725   9.527
 2045POPC   GL127661  33.949   3.575   9.130
 2045POPC   GL227662  33.611   3.551   8.980
 2045POPC   C1A27663  33.979   3.336   8.722
 2045POPC   D2A27664  33.784   3.293   8.347
 2045POPC   C3A27665  33.969   3.396   8.008
 2045POPC   C4A27666  34.060   3.380   7.589
 2045POPC   C1B27667  33.461   3.953   8.816
 2045POPC   C2B27668  33.526   4.113   8.391
 2045POPC   C3B27669  33.379   3.955   7.992
 2045POPC   C4B27670  33.578   3.596   7.750
 2046POPC   NC327671  37.902   3.232   9.425
 2046POPC   PO427672  37.388   3.740   9.416
 2046POPC   GL127673  37.515   3.437   9.125
 2046POPC   GL227674  37.820   3.577   9.064
 2046POPC   C1A27675  37.607   3.282   8.716
 2046POPC   D2A27676  37.884   3.371   8.372
 2046POPC   C3A27677  37.701   3.414   7.976
 2046POPC   C4A27678  37.443   3.152   7.728
 2046POPC   C1B27679  37.816   3.776   8.684
 2046POPC   C2B27680  37.571   3.920   8.322
 2046POPC   C3B27681  37.582   3.894   7.881
 2046POPC   C4B27682  37.998   3.771   7.725
 2047POPC   NC327683  27.094  39.720   9.942
 2047POPC   PO427684  26.523  39.958   9.551
 2047POPC   GL127685  26.566  40.044   9.119
 2047POPC   GL227686  26.688  39.718   8.908
 2047POPC   C1A27687  26.863  40.192   8.819
 2047POPC   D2A27688  26.805  39.963   8.457
 2047POPC   C3A27689  26.725  40.100   8.060
 2047POPC   C4A27690  26.999  40.254   7.751
 2047POPC   C1B27691  27.136  39.658   8.727
 2047POPC   C2B27692  27.333  39.428   8.410
 2047POPC   C3B27693  27.162  39.367   7.990
 2047POPC   C4B27694  26.970  39.739   7.813
 2048POPC   NC327695  27.965  37.192   9.581
 2048POPC   PO427696  27.447  36.775   9.657
 2048POPC   GL127697  27.534  36.819   9.211
 2048POPC   GL227698  27.880  36.996   9.117
 2048POPC   C1A27699  27.482  37.010   8.806
 2048POPC   D2A27700  27.596  37.200   8.436
 2048POPC   C3A27701  27.598  36.894   8.127
 2048POPC   C4A27702  27.636  36.794   7.708
 2048POPC   C1B27703  28.062  37.180   8.711
 2048POPC   C2B27704  28.100  37.182   8.243
 2048POPC   C3B27705  27.810  37.282   7.904
 2048POPC   C4B27706  27.733  37.286   7.427
 2049POPC   NC327707   7.063  28.416   9.769
 2049POPC   PO427708   7.652  28.223   9.473
 2049POPC   GL127709   7.483  28.326   9.099
 2049POPC   GL227710   7.186  28.550   9.045
 2049POPC   C1A27711   7.358  28.171   8.728
 2049POPC   D2A27712   7.301  27.994   8.358
 2049POPC   C3A27713   7.395  28.245   8.050
 2049POPC   C4A27714   7.242  28.315   7.658
 2049POPC   C1B27715   7.540  28.689   8.726
 2049POPC   C2B27716   7.770  28.632   8.308
 2049POPC   C3B27717   7.507  28.729   7.962
 2049POPC   C4B27718   7.038  28.707   7.932
 2050POPC   NC327719  34.072  17.901   9.507
 2050POPC   PO427720  33.880  18.562   9.496
 2050POPC   GL127721  34.089  18.324   9.187
 2050POPC   GL227722  33.780  18.192   9.115
 2050POPC   C1A27723  34.251  18.436   8.779
 2050POPC   D2A27724  34.083  18.345   8.343
 2050POPC   C3A27725  33.724  18.355   8.069
 2050POPC   C4A27726  33.990  18.433   7.688
 2050POPC   C1B27727  33.867  18.083   8.733
 2050POPC   C2B27728  33.759  17.882   8.392
 2050POPC   C3B27729  33.813  17.857   7.994
 2050POPC   C4B27730  33.655  18.038   7.652
 2051POPC   NC327731  41.318  35.292   9.550
 2051POPC   PO427732  41.535  35.859   9.545
 2051POPC   GL127733  41.524  35.521   9.136
 2051POPC   GL227734  41.791  35.259   8.995
 2051POPC   C1A27735  41.345  35.293   8.750
 2051POPC   D2A27736  41.327  35.044   8.343
 2051POPC   C3A27737  41.180  35.287   7.988
 2051POPC   C4A27738  41.307  35.711   7.853
 2051POPC   C1B27739  41.800  35.162   8.518
 2051POPC   C2B27740  41.695  35.338   8.097
 2051POPC   C3B27741  41.923  35.224   7.719
 2051POPC   C4B27742  42.152  35.403   7.396
 2052POPC   NC327743  10.571  15.369   9.694
 2052POPC   PO427744  10.380  14.670   9.514
 2052POPC   GL127745  10.541  14.872   9.173
 2052POPC   GL227746  10.710  15.191   9.228
 2052POPC   C1A27747  10.404  15.118   8.843
 2052POPC   D2A27748  10.189  15.280   8.533
 2052POPC   C3A27749  10.342  15.239   8.115
 2052POPC   C4A27750  10.396  15.447   7.716
 2052POPC   C1B27751  10.907  15.065   8.836
 2052POPC   C2B27752  10.758  15.222   8.449
 2052POPC   C3B27753  10.902  15.153   8.053
 2052POPC   C4B27754  10.726  15.078   7.690
 2053POPC   NC327755   0.987  24.959   9.437
 2053POPC   PO427756   1.628  25.000   9.482
 2053POPC   GL127757   1.335  25.206   9.162
 2053POPC   GL227758   1.163  24.960   8.965
 2053POPC   C1A27759   1.227  25.432   8.801
 2053POPC   D2A27760   1.271  25.196   8.438
 2053POPC   C3A27761   1.344  25.440   8.062
 2053POPC   C4A27762   1.209  25.410   7.673
 2053POPC   C1B27763   0.904  24.822   8.665
 2053POPC   C2B27764   0.954  24.747   8.255
 2053POPC   C3B27765   1.200  24.916   7.897
 2053POPC   C4B27766   1.069  24.953   7.435
 2054POPC   NC327767  15.306  14.154   9.381
 2054POPC   PO427768  14.959  14.693   9.521
 2054POPC   GL127769  14.956  14.448   9.148
 2054POPC   GL227770  14.841  14.116   9.137
 2054POPC   C1A27771  15.160  14.332   8.776
 2054POPC   D2A27772  15.046  14.320   8.370
 2054POPC   C3A27773  15.390  14.303   8.110
 2054POPC   C4A27774  15.364  14.458   7.745
 2054POPC   C1B27775  14.739  14.008   8.722
 2054POPC   C2B27776  14.839  13.863   8.295
 2054POPC   C3B27777  14.959  14.044   7.898
 2054POPC   C4B27778  14.790  14.432   7.787
 2055POPC   NC327779  13.248  18.039   9.846
 2055POPC   PO427780  13.463  18.524   9.549
 2055POPC   GL127781  13.457  18.643   9.113
 2055POPC   GL227782  13.577  18.333   8.984
 2055POPC   C1A27783  13.485  18.703   8.644
 2055POPC   D2A27784  13.630  18.593   8.213
 2055POPC   C3A27785  13.599  18.490   7.778
 2055POPC   C4A27786  13.600  18.106   7.557
 2055POPC   C1B27787  13.651  18.204   8.545
 2055POPC   C2B27788  13.958  18.210   8.179
 2055POPC   C3B27789  14.089  18.217   7.744
 2055POPC   C4B27790  14.102  17.868   7.434
 2056POPC   NC327791  41.250  30.879   9.359
 2056POPC   PO427792  40.643  30.583   9.457
 2056POPC   GL127793  40.534  30.577   9.071
 2056POPC   GL227794  40.880  30.722   9.004
 2056POPC   C1A27795  40.472  30.737   8.675
 2056POPC   D2A27796  40.355  30.656   8.264
 2056POPC   C3A27797  40.738  30.548   8.061
 2056POPC   C4A27798  40.856  30.667   7.632
 2056POPC   C1B27799  41.203  30.848   8.709
 2056POPC   C2B27800  41.183  30.715   8.317
 2056POPC   C3B27801  41.102  30.910   7.981
 2056POPC   C4B27802  41.064  31.134   7.607
 2057POPC   NC327803  27.954  39.618   9.423
 2057POPC   PO427804  27.953  38.880   9.442
 2057POPC   GL127805  28.078  39.166   9.075
 2057POPC   GL227806  28.471  39.155   8.956
 2057POPC   C1A27807  28.179  39.506   8.766
 2057POPC   D2A27808  28.361  39.439   8.359
 2057POPC   C3A27809  28.165  39.177   8.052
 2057POPC   C4A27810  28.197  39.408   7.727
 2057POPC   C1B27811  28.280  38.978   8.591
 2057POPC   C2B27812  28.513  38.879   8.240
 2057POPC   C3B27813  28.709  39.209   8.013
 2057POPC   C4B27814  28.702  39.420   7.614
 2058POPC   NC327815   5.543  38.134   9.347
 2058POPC   PO427816   5.538  38.685   9.770
 2058POPC   GL127817   5.932  38.575   9.400
 2058POPC   GL227818   6.040  38.230   9.242
 2058POPC   C1A27819   6.062  38.566   8.885
 2058POPC   D2A27820   6.111  38.395   8.456
 2058POPC   C3A27821   5.943  38.525   8.052
 2058POPC   C4A27822   6.058  38.700   7.714
 2058POPC   C1B27823   5.802  38.145   8.795
 2058POPC   C2B27824   5.674  37.853   8.484
 2058POPC   C3B27825   5.738  38.063   8.104
 2058POPC   C4B27826   5.913  38.165   7.690
 2059POPC   NC327827   6.071  41.625   9.555
 2059POPC   PO427828   5.618  41.308   9.179
 2059POPC   GL127829   6.017  41.506   9.061
 2059POPC   GL227830   5.927  41.853   9.067
 2059POPC   C1A27831   6.183  41.299   8.697
 2059POPC   D2A27832   5.993  41.126   8.315
 2059POPC   C3A27833   5.941  41.319   7.912
 2059POPC   C4A27834   5.866  41.739   7.749
 2059POPC   C1B27835   5.960  41.750   8.614
 2059POPC   C2B27836   6.124  41.696   8.187
 2059POPC   C3B27837   6.348  41.924   7.849
 2059POPC   C4B27838   6.333  41.994   7.362
 2060POPC   NC327839   9.920  17.804   9.438
 2060POPC   PO427840   9.891  17.235   9.068
 2060POPC   GL127841   9.815  17.645   8.928
 2060POPC   GL227842   9.511  17.635   9.028
 2060POPC   C1A27843   9.575  17.858   8.571
 2060POPC   D2A27844   9.562  17.910   8.115
 2060POPC   C3A27845   9.872  17.635   7.917
 2060POPC   C4A27846  10.203  17.423   7.722
 2060POPC   C1B27847   9.416  17.348   8.641
 2060POPC   C2B27848   9.530  17.361   8.193
 2060POPC   C3B27849   9.353  17.432   7.767
 2060POPC   C4B27850   9.404  17.305   7.264
 2061POPC   NC327851  34.544  23.806   9.555
 2061POPC   PO427852  35.060  24.066   9.210
 2061POPC   GL127853  34.733  23.833   9.075
 2061POPC   GL227854  34.699  23.495   9.179
 2061POPC   C1A27855  34.458  23.990   8.766
 2061POPC   D2A27856  34.641  24.208   8.408
 2061POPC   C3A27857  34.461  24.038   8.035
 2061POPC   C4A27858  34.616  23.956   7.616
 2061POPC   C1B27859  34.501  23.488   8.753
 2061POPC   C2B27860  34.626  23.605   8.296
 2061POPC   C3B27861  34.390  23.535   7.882
 2061POPC   C4B27862  34.455  23.537   7.401
 2062POPC   NC327863  17.691  16.056   9.806
 2062POPC   PO427864  17.956  15.810   9.267
 2062POPC   GL127865  17.759  16.048   9.001
 2062POPC   GL227866  17.454  16.107   9.200
 2062POPC   C1A27867  17.710  15.860   8.596
 2062POPC   D2A27868  17.675  15.580   8.275
 2062POPC   C3A27869  17.942  15.728   7.975
 2062POPC   C4A27870  17.755  16.120   7.831
 2062POPC   C1B27871  17.252  15.984   8.773
 2062POPC   C2B27872  17.247  15.906   8.283
 2062POPC   C3B27873  17.057  15.952   7.836
 2062POPC   C4B27874  17.043  16.280   7.517
 2063POPC   NC327875  23.151  38.753   9.840
 2063POPC   PO427876  22.897  39.273   9.419
 2063POPC   GL127877  23.047  39.218   9.070
 2063POPC   GL227878  22.824  38.894   9.081
 2063POPC   C1A27879  23.172  39.409   8.722
 2063POPC   D2A27880  22.958  39.343   8.345
 2063POPC   C3A27881  23.168  39.415   7.975
 2063POPC   C4A27882  22.966  39.433   7.582
 2063POPC   C1B27883  22.954  38.898   8.665
 2063POPC   C2B27884  22.684  38.915   8.310
 2063POPC   C3B27885  22.789  39.030   7.898
 2063POPC   C4B27886  22.824  38.931   7.471
 2064POPC   NC327887  38.867  40.603   9.790
 2064POPC   PO427888  39.102  41.239   9.511
 2064POPC   GL127889  39.200  41.005   9.107
 2064POPC   GL227890  39.361  40.653   9.139
 2064POPC   C1A27891  39.098  40.821   8.693
 2064POPC   D2A27892  38.960  40.564   8.339
 2064POPC   C3A27893  39.162  40.731   7.972
 2064POPC   C4A27894  39.129  40.962   7.593
 2064POPC   C1B27895  39.424  40.403   8.730
 2064POPC   C2B27896  39.612  40.432   8.304
 2064POPC   C3B27897  39.635  40.622   7.887
 2064POPC   C4B27898  39.332  40.478   7.555
 2065POPC   NC327899  19.707   7.766   9.479
 2065POPC   PO427900  20.182   7.394   9.214
 2065POPC   GL127901  19.808   7.468   9.071
 2065POPC   GL227902  19.730   7.826   8.981
 2065POPC   C1A27903  19.555   7.315   8.770
 2065POPC   D2A27904  19.565   7.523   8.397
 2065POPC   C3A27905  19.511   7.280   8.041
 2065POPC   C4A27906  19.461   7.484   7.658
 2065POPC   C1B27907  20.127   7.843   8.747
 2065POPC   C2B27908  20.023   7.818   8.346
 2065POPC   C3B27909  19.988   7.505   8.045
 2065POPC   C4B27910  20.187   7.543   7.684
 2066POPC   NC327911  14.209  19.543   9.441
 2066POPC   PO427912  14.901  19.545   9.590
 2066POPC   GL127913  14.646  19.875   9.244
 2066POPC   GL227914  14.317  19.789   9.031
 2066POPC   C1A27915  14.624  20.087   8.795
 2066POPC   D2A27916  14.351  19.844   8.518
 2066POPC   C3A27917  14.326  19.831   8.104
 2066POPC   C4A27918  14.552  20.016   7.826
 2066POPC   C1B27919  13.982  19.613   8.786
 2066POPC   C2B27920  14.098  19.412   8.411
 2066POPC   C3B27921  14.206  19.352   7.993
 2066POPC   C4B27922  14.293  19.502   7.590
 2067POPC   NC327923   6.667   0.630   9.829
 2067POPC   PO427924   6.022   0.379   9.627
 2067POPC   GL127925   6.089   0.459   9.166
 2067POPC   GL227926   5.744   0.429   9.123
 2067POPC   C1A27927   5.999   0.630   8.725
 2067POPC   D2A27928   6.009   0.397   8.311
 2067POPC   C3A27929   5.871   0.593   7.939
 2067POPC   C4A27930   5.406   0.637   7.882
 2067POPC   C1B27931   5.873   0.130   8.774
 2067POPC   C2B27932   5.686   0.026   8.356
 2067POPC   C3B27933   5.819   0.086   7.918
 2067POPC   C4B27934   5.584   0.260   7.574
 2068POPC   NC327935  22.444   0.829   9.604
 2068POPC   PO427936  23.054   0.986   9.504
 2068POPC   GL127937  22.912   1.176   9.137
 2068POPC   GL227938  22.588   1.048   9.162
 2068POPC   C1A27939  23.066   1.187   8.720
 2068POPC   D2A27940  23.168   1.457   8.384
 2068POPC   C3A27941  22.979   1.420   7.965
 2068POPC   C4A27942  23.149   1.147   7.626
 2068POPC   C1B27943  22.658   0.867   8.766
 2068POPC   C2B27944  22.692   1.070   8.385
 2068POPC   C3B27945  22.795   0.919   8.004
 2068POPC   C4B27946  22.660   1.096   7.671
 2069POPC   NC327947  17.790  18.031   9.561
 2069POPC   PO427948  17.254  18.286   9.597
 2069POPC   GL127949  17.536  18.364   9.197
 2069POPC   GL227950  17.777  18.084   9.060
 2069POPC   C1A27951  17.574  18.396   8.716
 2069POPC   D2A27952  17.410  18.151   8.354
 2069POPC   C3A27953  17.362  18.341   7.957
 2069POPC   C4A27954  17.639  18.396   7.650
 2069POPC   C1B27955  17.950  17.829   8.702
 2069POPC   C2B27956  18.015  17.729   8.236
 2069POPC   C3B27957  17.893  17.982   7.850
 2069POPC   C4B27958  17.750  17.982   7.395
 2070POPC   NC327959  22.535   9.818   9.291
 2070POPC   PO427960  21.925   9.581   9.407
 2070POPC   GL127961  22.081   9.736   9.084
 2070POPC   GL227962  22.301   9.405   9.068
 2070POPC   C1A27963  22.194   9.978   8.724
 2070POPC   D2A27964  22.448  10.040   8.354
 2070POPC   C3A27965  22.185  10.139   8.027
 2070POPC   C4A27966  22.224   9.879   7.692
 2070POPC   C1B27967  22.077   9.458   8.692
 2070POPC   C2B27968  22.082   9.653   8.313
 2070POPC   C3B27969  22.036   9.434   7.931
 2070POPC   C4B27970  22.297   9.370   7.616
 2071POPC   NC327971  36.957  30.238   9.446
 2071POPC   PO427972  36.893  29.568   9.529
 2071POPC   GL127973  37.029  29.778   9.169
 2071POPC   GL227974  36.687  29.864   9.136
 2071POPC   C1A27975  37.122  29.920   8.737
 2071POPC   D2A27976  36.939  29.815   8.327
 2071POPC   C3A27977  37.113  30.002   7.957
 2071POPC   C4A27978  37.069  30.273   7.564
 2071POPC   C1B27979  36.651  30.132   8.808
 2071POPC   C2B27980  36.470  30.150   8.441
 2071POPC   C3B27981  36.615  30.143   8.050
 2071POPC   C4B27982  36.424  30.153   7.682
 2072POPC   NC327983  27.203  20.786   9.651
 2072POPC   PO427984  27.693  20.420   9.380
 2072POPC   GL127985  27.653  20.738   9.070
 2072POPC   GL227986  27.434  20.996   9.233
 2072POPC   C1A27987  27.837  20.848   8.647
 2072POPC   D2A27988  27.980  20.705   8.226
 2072POPC   C3A27989  27.645  20.624   7.927
 2072POPC   C4A27990  27.663  20.683   7.477
 2072POPC   C1B27991  27.271  20.953   8.817
 2072POPC   C2B27992  27.315  20.712   8.452
 2072POPC   C3B27993  27.135  20.788   8.061
 2072POPC   C4B27994  27.198  20.639   7.665
 2073POPC   NC327995  16.410  39.188   9.339
 2073POPC   PO427996  17.005  39.590   9.503
 2073POPC   GL127997  16.876  39.325   9.121
 2073POPC   GL227998  16.819  39.002   9.096
 2073POPC   C1A27999  16.859  39.323   8.684
 2073POPC   D2A28000  17.014  39.428   8.316
 2073POPC   C3A28001  16.875  39.190   8.049
 2073POPC   C4A28002  16.496  39.154   7.872
 2073POPC   C1B28003  16.650  38.861   8.751
 2073POPC   C2B28004  16.524  38.932   8.354
 2073POPC   C3B28005  16.676  38.712   8.021
 2073POPC   C4B28006  16.789  38.836   7.614
 2074POPC   NC328007  37.095  41.949   9.532
 2074POPC   PO428008  36.913  41.346   9.835
 2074POPC   GL128009  37.010  41.427   9.346
 2074POPC   GL228010  36.811  41.686   9.183
 2074POPC   C1A28011  36.915  41.323   8.855
 2074POPC   D2A28012  36.960  41.569   8.462
 2074POPC   C3A28013  36.908  41.334   8.054
 2074POPC   C4A28014  37.116  41.357   7.623
 2074POPC   C1B28015  36.582  41.755   8.793
 2074POPC   C2B28016  36.562  41.926   8.383
 2074POPC   C3B28017  36.843  41.862   8.050
 2074POPC   C4B28018  36.750  42.064   7.699
 2075POPC   NC328019  43.073  24.149   9.417
 2075POPC   PO428020  43.316  24.793   9.450
 2075POPC   GL128021  43.299  24.542   9.105
 2075POPC   GL228022  42.955  24.645   9.047
 2075POPC   C1A28023  43.203  24.265   8.761
 2075POPC   D2A28024  43.051  24.191   8.340
 2075POPC   C3A28025  43.232  24.505   8.044
 2075POPC   C4A28026  43.131  24.467   7.602
 2075POPC   C1B28027  42.745  24.877   8.683
 2075POPC   C2B28028  42.773  24.932   8.204
 2075POPC   C3B28029  42.985  24.924   7.845
 2075POPC   C4B28030  43.332  24.950   7.637
 2076POPC   NC328031  14.999  10.025   9.537
 2076POPC   PO428032  15.289   9.406   9.510
 2076POPC   GL128033  15.254   9.598   9.116
 2076POPC   GL228034  15.291   9.961   9.111
 2076POPC   C1A28035  14.896   9.730   8.859
 2076POPC   D2A28036  14.652   9.905   8.501
 2076POPC   C3A28037  14.860   9.851   8.114
 2076POPC   C4A28038  14.807   9.605   7.793
 2076POPC   C1B28039  15.478   9.853   8.723
 2076POPC   C2B28040  15.518   9.751   8.279
 2076POPC   C3B28041  15.397   9.901   7.866
 2076POPC   C4B28042  15.456   9.898   7.400
 2077POPC   NC328043  34.406  35.011   9.668
 2077POPC   PO428044  34.873  35.424   9.626
 2077POPC   GL128045  34.668  35.416   9.180
 2077POPC   GL228046  34.496  35.099   9.178
 2077POPC   C1A28047  34.690  35.644   8.720
 2077POPC   D2A28048  34.442  35.514   8.334
 2077POPC   C3A28049  34.553  35.611   7.891
 2077POPC   C4A28050  34.809  35.575   7.508
 2077POPC   C1B28051  34.498  35.167   8.746
 2077POPC   C2B28052  34.510  35.022   8.335
 2077POPC   C3B28053  34.248  35.015   7.984
 2077POPC   C4B28054  34.125  35.307   7.694
 2078POPC   NC328055  22.760  23.117   9.339
 2078POPC   PO428056  22.888  22.519   9.617
 2078POPC   GL128057  22.994  22.750   9.128
 2078POPC   GL228058  23.210  23.105   9.128
 2078POPC   C1A28059  22.924  22.920   8.694
 2078POPC   D2A28060  23.133  22.885   8.287
 2078POPC   C3A28061  22.840  22.984   7.972
 2078POPC   C4A28062  22.767  22.848   7.556
 2078POPC   C1B28063  23.086  23.408   8.780
 2078POPC   C2B28064  22.909  23.359   8.356
 2078POPC   C3B28065  22.966  23.511   7.919
 2078POPC   C4B28066  23.065  23.280   7.516
 2079POPC   NC328067  15.142  35.253   9.534
 2079POPC   PO428068  15.532  35.782   9.437
 2079POPC   GL128069  15.352  35.507   9.111
 2079POPC   GL228070  15.030  35.486   9.101
 2079POPC   C1A28071  15.363  35.268   8.718
 2079POPC   D2A28072  15.497  35.108   8.299
 2079POPC   C3A28073  15.377  35.359   7.914
 2079POPC   C4A28074  15.446  35.287   7.427
 2079POPC   C1B28075  15.036  35.681   8.731
 2079POPC   C2B28076  15.050  35.479   8.362
 2079POPC   C3B28077  14.814  35.464   8.039
 2079POPC   C4B28078  14.871  35.326   7.632
 2080POPC   NC328079  36.630  39.381   9.490
 2080POPC   PO428080  37.208  38.948   9.468
 2080POPC   GL128081  36.989  39.237   9.177
 2080POPC   GL228082  36.752  38.989   9.081
 2080POPC   C1A28083  36.773  39.396   8.780
 2080POPC   D2A28084  36.716  39.081   8.438
 2080POPC   C3A28085  36.727  39.261   8.043
 2080POPC   C4A28086  36.883  39.494   7.663
 2080POPC   C1B28087  37.162  39.036   8.764
 2080POPC   C2B28088  37.287  39.015   8.335
 2080POPC   C3B28089  37.201  39.144   7.900
 2080POPC   C4B28090  37.268  39.210   7.472
 2081POPC   NC328091  22.542  11.679   9.518
 2081POPC   PO428092  22.161  12.248   9.420
 2081POPC   GL128093  22.114  12.153   9.033
 2081POPC   GL228094  22.245  11.844   9.068
 2081POPC   C1A28095  22.136  12.141   8.605
 2081POPC   D2A28096  21.857  12.015   8.322
 2081POPC   C3A28097  21.988  12.095   7.918
 2081POPC   C4A28098  21.730  12.149   7.575
 2081POPC   C1B28099  22.593  11.699   8.856
 2081POPC   C2B28100  22.685  11.830   8.465
 2081POPC   C3B28101  22.500  11.920   8.102
 2081POPC   C4B28102  22.461  12.003   7.718
 2082POPC   NC328103  26.972  42.757   9.426
 2082POPC   PO428104  26.668  43.329   9.461
 2082POPC   GL128105  26.684  43.045   9.093
 2082POPC   GL228106  26.935  42.838   8.929
 2082POPC   C1A28107  26.630  43.151   8.662
 2082POPC   D2A28108  26.703  43.439   8.357
 2082POPC   C3A28109  26.791  43.247   7.979
 2082POPC   C4A28110  26.732  43.322   7.552
 2082POPC   C1B28111  26.551  42.664   8.766
 2082POPC   C2B28112  26.448  42.760   8.335
 2082POPC   C3B28113  26.574  42.784   7.905
 2082POPC   C4B28114  26.958  42.874   7.649
 2083POPC   NC328115  20.149  32.825   9.560
 2083POPC   PO428116  20.747  33.054   9.487
 2083POPC   GL128117  20.628  32.903   9.076
 2083POPC   GL228118  20.288  32.810   9.084
 2083POPC   C1A28119  20.504  32.962   8.637
 2083POPC   D2A28120  20.778  33.113   8.309
 2083POPC   C3A28121  20.588  33.232   7.921
 2083POPC   C4A28122  20.692  32.878   7.710
 2083POPC   C1B28123  20.059  32.669   8.737
 2083POPC   C2B28124  20.038  32.888   8.354
 2083POPC   C3B28125  20.229  32.842   7.958
 2083POPC   C4B28126  20.063  32.867   7.540
 2084POPC   NC328127   9.007  24.900   9.589
 2084POPC   PO428128   8.852  25.568   9.561
 2084POPC   GL128129   8.965  25.370   9.170
 2084POPC   GL228130   8.810  25.024   9.142
 2084POPC   C1A28131   9.279  25.441   8.825
 2084POPC   D2A28132   9.372  25.281   8.434
 2084POPC   C3A28133   9.070  25.313   8.123
 2084POPC   C4A28134   9.036  25.117   7.767
 2084POPC   C1B28135   9.052  25.003   8.770
 2084POPC   C2B28136   8.787  24.982   8.409
 2084POPC   C3B28137   8.589  25.004   8.026
 2084POPC   C4B28138   8.682  24.803   7.617
 2085POPC   NC328139   2.607  12.394   9.387
 2085POPC   PO428140   2.950  11.841   9.547
 2085POPC   GL128141   2.946  12.072   9.169
 2085POPC   GL228142   2.597  11.965   9.103
 2085POPC   C1A28143   2.965  11.980   8.727
 2085POPC   D2A28144   2.750  11.888   8.339
 2085POPC   C3A28145   2.927  11.977   7.923
 2085POPC   C4A28146   2.758  12.297   7.688
 2085POPC   C1B28147   2.481  11.699   8.761
 2085POPC   C2B28148   2.476  11.457   8.359
 2085POPC   C3B28149   2.467  11.684   7.939
 2085POPC   C4B28150   2.612  11.850   7.519
 2086POPC   NC328151  31.124   8.372   9.483
 2086POPC   PO428152  30.423   8.335   9.454
 2086POPC   GL128153  30.702   8.456   9.185
 2086POPC   GL228154  30.805   8.105   9.163
 2086POPC   C1A28155  30.632   8.437   8.776
 2086POPC   D2A28156  30.501   8.270   8.375
 2086POPC   C3A28157  30.521   8.558   8.056
 2086POPC   C4A28158  30.559   8.446   7.655
 2086POPC   C1B28159  30.769   7.952   8.725
 2086POPC   C2B28160  30.758   7.816   8.294
 2086POPC   C3B28161  30.617   7.976   7.915
 2086POPC   C4B28162  30.885   8.083   7.585
 2087POPC   NC328163  22.097   1.719   9.506
 2087POPC   PO428164  22.070   1.112   9.586
 2087POPC   GL128165  22.131   1.283   9.191
 2087POPC   GL228166  21.853   1.446   9.033
 2087POPC   C1A28167  22.196   1.072   8.807
 2087POPC   D2A28168  21.995   1.054   8.432
 2087POPC   C3A28169  22.261   1.024   8.073
 2087POPC   C4A28170  22.166   1.090   7.649
 2087POPC   C1B28171  22.094   1.530   8.630
 2087POPC   C2B28172  22.023   1.506   8.195
 2087POPC   C3B28173  21.916   1.511   7.781
 2087POPC   C4B28174  22.159   1.524   7.398
 2088POPC   NC328175  19.942   3.803   9.726
 2088POPC   PO428176  19.690   3.258   9.435
 2088POPC   GL128177  19.854   3.600   9.224
 2088POPC   GL228178  20.223   3.590   9.165
 2088POPC   C1A28179  19.755   3.589   8.785
 2088POPC   D2A28180  20.027   3.769   8.485
 2088POPC   C3A28181  19.954   3.708   8.077
 2088POPC   C4A28182  19.947   3.904   7.708
 2088POPC   C1B28183  20.184   3.309   8.773
 2088POPC   C2B28184  20.012   3.262   8.345
 2088POPC   C3B28185  20.220   3.303   7.923
 2088POPC   C4B28186  20.027   3.282   7.514
 2089POPC   NC328187  33.646  18.977   9.358
 2089POPC   PO428188  33.999  19.508   9.661
 2089POPC   GL128189  34.183  19.209   9.209
 2089POPC   GL228190  34.130  18.839   9.155
 2089POPC   C1A28191  34.116  19.123   8.737
 2089POPC   D2A28192  34.089  19.225   8.323
 2089POPC   C3A28193  33.715  19.238   8.145
 2089POPC   C4A28194  33.856  19.214   7.729
 2089POPC   C1B28195  33.815  18.660   8.836
 2089POPC   C2B28196  33.839  18.784   8.432
 2089POPC   C3B28197  33.950  18.806   8.026
 2089POPC   C4B28198  33.549  18.818   7.795
 2090POPC   NC328199  27.400  40.505   9.330
 2090POPC   PO428200  27.339  39.884   9.518
 2090POPC   GL128201  27.462  39.877   9.116
 2090POPC   GL228202  27.745  40.081   9.212
 2090POPC   C1A28203  27.405  40.103   8.685
 2090POPC   D2A28204  27.265  39.958   8.241
 2090POPC   C3A28205  27.443  39.966   7.808
 2090POPC   C4A28206  27.536  39.847   7.359
 2090POPC   C1B28207  27.869  39.912   8.821
 2090POPC   C2B28208  27.731  39.762   8.455
 2090POPC   C3B28209  27.956  39.676   8.103
 2090POPC   C4B28210  27.956  39.912   7.740
 2091POPC   NC328211  27.424  23.230   9.699
 2091POPC   PO428212  27.993  22.827   9.630
 2091POPC   GL128213  27.840  22.924   9.178
 2091POPC   GL228214  27.552  23.166   9.193
 2091POPC   C1A28215  27.955  22.831   8.708
 2091POPC   D2A28216  27.867  22.694   8.250
 2091POPC   C3A28217  27.747  22.956   7.900
 2091POPC   C4A28218  27.701  23.239   7.493
 2091POPC   C1B28219  27.472  23.033   8.757
 2091POPC   C2B28220  27.366  22.746   8.406
 2091POPC   C3B28221  27.266  22.741   7.975
 2091POPC   C4B28222  27.292  23.114   7.766
 2092POPC   NC328223  27.830   2.954   9.390
 2092POPC   PO428224  28.397   2.984   9.722
 2092POPC   GL128225  28.417   2.757   9.259
 2092POPC   GL228226  28.746   2.513   9.249
 2092POPC   C1A28227  28.254   2.815   8.794
 2092POPC   D2A28228  28.160   2.882   8.313
 2092POPC   C3A28229  28.172   2.731   7.846
 2092POPC   C4A28230  28.434   2.930   7.454
 2092POPC   C1B28231  28.744   2.651   8.855
 2092POPC   C2B28232  28.696   2.544   8.436
 2092POPC   C3B28233  28.435   2.387   8.115
 2092POPC   C4B28234  28.538   2.422   7.678
 2093POPC   NC328235   8.473  15.999   9.478
 2093POPC   PO428236   7.756  16.135   9.375
 2093POPC   GL128237   8.150  16.029   9.083
 2093POPC   GL228238   8.427  16.245   9.024
 2093POPC   C1A28239   8.361  15.647   8.878
 2093POPC   D2A28240   8.386  15.562   8.429
 2093POPC   C3A28241   8.172  15.844   8.139
 2093POPC   C4A28242   8.063  15.848   7.702
 2093POPC   C1B28243   8.409  16.064   8.604
 2093POPC   C2B28244   8.663  16.025   8.227
 2093POPC   C3B28245   8.523  16.067   7.795
 2093POPC   C4B28246   8.505  15.897   7.359
 2094POPC   NC328247  40.886   8.169   9.515
 2094POPC   PO428248  40.301   7.807   9.556
 2094POPC   GL128249  40.493   8.150   9.198
 2094POPC   GL228250  40.601   7.878   9.029
 2094POPC   C1A28251  40.668   8.341   8.756
 2094POPC   D2A28252  40.924   8.340   8.367
 2094POPC   C3A28253  40.699   8.313   7.996
 2094POPC   C4A28254  40.387   8.587   7.926
 2094POPC   C1B28255  40.656   7.868   8.597
 2094POPC   C2B28256  40.406   7.960   8.232
 2094POPC   C3B28257  40.450   7.947   7.768
 2094POPC   C4B28258  40.583   7.851   7.332
 2095POPC   NC328259  13.023  18.691   9.463
 2095POPC   PO428260  12.813  18.048   9.658
 2095POPC   GL128261  12.852  18.259   9.219
 2095POPC   GL228262  12.645  18.541   9.080
 2095POPC   C1A28263  13.087  18.407   8.840
 2095POPC   D2A28264  13.172  18.386   8.391
 2095POPC   C3A28265  12.867  18.418   8.073
 2095POPC   C4A28266  13.005  18.470   7.647
 2095POPC   C1B28267  12.639  18.446   8.613
 2095POPC   C2B28268  12.439  18.222   8.305
 2095POPC   C3B28269  12.549  18.033   7.919
 2095POPC   C4B28270  12.640  18.135   7.521
 2096POPC   NC328271   7.595  14.778   9.531
 2096POPC   PO428272   7.210  14.244   9.446
 2096POPC   GL128273   7.315  14.536   9.160
 2096POPC   GL228274   7.682  14.488   9.138
 2096POPC   C1A28275   7.305  14.555   8.738
 2096POPC   D2A28276   7.485  14.559   8.344
 2096POPC   C3A28277   7.364  14.400   7.933
 2096POPC   C4A28278   7.465  14.642   7.557
 2096POPC   C1B28279   7.690  14.240   8.808
 2096POPC   C2B28280   7.614  14.076   8.465
 2096POPC   C3B28281   7.801  14.193   8.122
 2096POPC   C4B28282   7.757  14.009   7.754
 2097POPC   NC328283  40.375  36.557   9.363
 2097POPC   PO428284  40.974  36.671   9.758
 2097POPC   GL128285  40.787  36.968   9.343
 2097POPC   GL228286  40.726  36.758   9.087
 2097POPC   C1A28287  40.743  37.180   8.844
 2097POPC   D2A28288  40.672  36.998   8.411
 2097POPC   C3A28289  40.779  37.183   8.016
 2097POPC   C4A28290  40.889  36.945   7.683
 2097POPC   C1B28291  40.506  36.636   8.721
 2097POPC   C2B28292  40.373  36.573   8.293
 2097POPC   C3B28293  40.630  36.545   7.912
 2097POPC   C4B28294  40.533  36.679   7.479
 2098POPC   NC328295  27.115   1.425   9.496
 2098POPC   PO428296  26.675   0.985   9.612
 2098POPC   GL128297  26.713   1.221   9.202
 2098POPC   GL228298  26.622   1.601   9.222
 2098POPC   C1A28299  26.986   1.402   8.850
 2098POPC   D2A28300  27.217   1.398   8.458
 2098POPC   C3A28301  26.958   1.236   8.140
 2098POPC   C4A28302  26.911   1.463   7.798
 2098POPC   C1B28303  26.456   1.468   8.823
 2098POPC   C2B28304  26.427   1.189   8.473
 2098POPC   C3B28305  26.454   1.270   8.045
 2098POPC   C4B28306  26.554   1.117   7.641
 2099POPC   NC328307  23.000  21.117   9.770
 2099POPC   PO428308  23.124  21.712   9.499
 2099POPC   GL128309  22.934  21.479   9.181
 2099POPC   GL228310  22.570  21.419   9.136
 2099POPC   C1A28311  22.911  21.673   8.798
 2099POPC   D2A28312  22.747  21.597   8.402
 2099POPC   C3A28313  22.959  21.513   8.039
 2099POPC   C4A28314  22.872  21.202   7.758
 2099POPC   C1B28315  22.749  21.200   8.749
 2099POPC   C2B28316  22.609  21.108   8.320
 2099POPC   C3B28317  22.416  21.010   7.941
 2099POPC   C4B28318  22.482  20.964   7.487
 2100POPC   NC328319   6.919  37.387   9.459
 2100POPC   PO428320   6.305  37.866   9.523
 2100POPC   GL128321   6.540  37.685   9.199
 2100POPC   GL228322   6.845  37.854   9.202
 2100POPC   C1A28323   6.623  37.648   8.755
 2100POPC   D2A28324   6.771  37.350   8.462
 2100POPC   C3A28325   6.782  37.486   8.055
 2100POPC   C4A28326   6.500  37.828   7.965
 2100POPC   C1B28327   6.908  38.073   8.809
 2100POPC   C2B28328   6.981  37.847   8.447
 2100POPC   C3B28329   7.006  37.965   8.055
 2100POPC   C4B28330   7.027  37.782   7.695
 2101POPC   NC328331  28.210  23.238   9.435
 2101POPC   PO428332  28.899  23.131   9.356
 2101POPC   GL128333  28.565  23.025   9.096
 2101POPC   GL228334  28.326  22.755   9.195
 2101POPC   C1A28335  28.397  23.114   8.702
 2101POPC   D2A28336  28.535  23.178   8.304
 2101POPC   C3A28337  28.197  23.100   8.053
 2101POPC   C4A28338  28.164  23.073   7.598
 2101POPC   C1B28339  28.474  22.609   8.795
 2101POPC   C2B28340  28.355  22.688   8.376
 2101POPC   C3B28341  28.464  22.698   7.942
 2101POPC   C4B28342  28.733  22.488   7.709
 2102POPC   NC328343  10.871  12.308   9.482
 2102POPC   PO428344  11.469  12.085   9.665
 2102POPC   GL128345  11.195  12.024   9.238
 2102POPC   GL228346  11.350  11.755   9.036
 2102POPC   C1A28347  11.105  12.135   8.837
 2102POPC   D2A28348  11.380  12.143   8.499
 2102POPC   C3A28349  11.121  12.311   8.177
 2102POPC   C4A28350  11.207  12.118   7.798
 2102POPC   C1B28351  11.053  11.634   8.751
 2102POPC   C2B28352  10.990  11.851   8.355
 2102POPC   C3B28353  11.026  11.667   7.944
 2102POPC   C4B28354  11.268  11.600   7.561
 2103POPC   NC328355  20.937  12.294   9.568
 2103POPC   PO428356  20.423  11.855   9.480
 2103POPC   GL128357  20.506  12.155   9.131
 2103POPC   GL228358  20.757  12.378   9.106
 2103POPC   C1A28359  20.690  12.173   8.665
 2103POPC   D2A28360  20.771  12.324   8.268
 2103POPC   C3A28361  20.951  11.954   8.058
 2103POPC   C4A28362  20.799  11.767   7.699
 2103POPC   C1B28363  20.323  12.487   8.819
 2103POPC   C2B28364  20.159  12.585   8.382
 2103POPC   C3B28365  20.372  12.518   7.974
 2103POPC   C4B28366  20.744  12.333   7.742
 2104POPC   NC328367  35.812  43.211   9.454
 2104POPC   PO428368  35.155  43.063   9.437
 2104POPC   GL128369  35.434  43.047   9.108
 2104POPC   GL228370  35.526  43.379   9.041
 2104POPC   C1A28371  35.547  42.985   8.680
 2104POPC   D2A28372  35.786  43.098   8.340
 2104POPC   C3A28373  35.634  42.966   7.962
 2104POPC   C4A28374  35.467  43.117   7.586
 2104POPC   C1B28375  35.251  43.388   8.722
 2104POPC   C2B28376  35.071  43.401   8.342
 2104POPC   C3B28377  35.197  43.358   7.949
 2104POPC   C4B28378  34.978  43.313   7.577
 2105POPC   NC328379  42.454  21.007   9.311
 2105POPC   PO428380  42.400  21.604   9.614
 2105POPC   GL128381  42.268  21.591   9.156
 2105POPC   GL228382  42.220  21.330   9.033
 2105POPC   C1A28383  42.419  21.626   8.667
 2105POPC   D2A28384  42.490  21.326   8.307
 2105POPC   C3A28385  42.274  21.360   7.911
 2105POPC   C4A28386  42.074  21.712   7.686
 2105POPC   C1B28387  41.975  21.406   8.718
 2105POPC   C2B28388  41.963  21.314   8.327
 2105POPC   C3B28389  42.128  20.942   8.187
 2105POPC   C4B28390  42.076  20.876   7.795
 2106POPC   NC328391  21.535   4.881   9.611
 2106POPC   PO428392  21.134   5.402   9.658
 2106POPC   GL128393  21.324   5.235   9.263
 2106POPC   GL228394  21.712   5.175   9.219
 2106POPC   C1A28395  21.358   5.296   8.823
 2106POPC   D2A28396  21.499   5.470   8.464
 2106POPC   C3A28397  21.481   5.273   8.085
 2106POPC   C4A28398  21.270   5.075   7.760
 2106POPC   C1B28399  21.568   4.842   8.940
 2106POPC   C2B28400  21.587   4.880   8.475
 2106POPC   C3B28401  21.735   4.712   8.072
 2106POPC   C4B28402  21.549   4.636   7.699
 2107POPC   NC328403  40.130  25.865   9.568
 2107POPC   PO428404  40.340  26.540   9.496
 2107POPC   GL128405  40.125  26.221   9.198
 2107POPC   GL228406  40.296  25.883   9.103
 2107POPC   C1A28407  39.989  26.238   8.785
 2107POPC   D2A28408  39.846  26.302   8.375
 2107POPC   C3A28409  39.977  26.175   8.020
 2107POPC   C4A28410  39.825  26.217   7.629
 2107POPC   C1B28411  40.090  25.734   8.745
 2107POPC   C2B28412  39.887  25.786   8.389
 2107POPC   C3B28413  40.167  25.708   8.089
 2107POPC   C4B28414  40.174  25.842   7.693
 2108POPC   NC328415  25.728  31.430   9.650
 2108POPC   PO428416  26.435  31.288   9.623
 2108POPC   GL128417  26.143  31.239   9.261
 2108POPC   GL228418  25.786  31.227   9.196
 2108POPC   C1A28419  26.159  31.271   8.805
 2108POPC   D2A28420  26.378  31.546   8.495
 2108POPC   C3A28421  26.172  31.639   8.087
 2108POPC   C4A28422  26.071  31.229   7.890
 2108POPC   C1B28423  25.738  31.567   8.930
 2108POPC   C2B28424  25.850  31.537   8.486
 2108POPC   C3B28425  25.682  31.517   8.049
 2108POPC   C4B28426  25.853  31.635   7.645
 2109POPC   NC328427  43.954  15.858   9.452
 2109POPC   PO428428  43.557  16.358   9.543
 2109POPC   GL128429  43.566  16.111   9.155
 2109POPC   GL228430  43.909  16.006   8.975
 2109POPC   C1A28431  43.538  16.248   8.735
 2109POPC   D2A28432  43.534  16.240   8.313
 2109POPC   C3A28433  43.947  16.089   8.132
 2109POPC   C4A28434  44.179  16.095   7.729
 2109POPC   C1B28435  43.735  15.770   8.604
 2109POPC   C2B28436  43.452  15.472   8.349
 2109POPC   C3B28437  43.478  15.464   7.905
 2109POPC   C4B28438  43.775  15.718   7.723
 2110POPC   NC328439  20.345   6.356   9.869
 2110POPC   PO428440  20.571   5.765   9.633
 2110POPC   GL128441  20.500   5.780   9.211
 2110POPC   GL228442  20.722   6.046   9.202
 2110POPC   C1A28443  20.342   5.600   8.810
 2110POPC   D2A28444  20.599   5.590   8.448
 2110POPC   C3A28445  20.428   5.602   8.067
 2110POPC   C4A28446  20.622   5.843   7.821
 2110POPC   C1B28447  20.595   6.043   8.778
 2110POPC   C2B28448  20.697   6.090   8.348
 2110POPC   C3B28449  20.638   6.334   8.012
 2110POPC   C4B28450  20.432   6.244   7.597
 2111POPC   NC328451  36.211   6.214   9.450
 2111POPC   PO428452  36.412   5.536   9.469
 2111POPC   GL128453  36.309   5.782   9.123
 2111POPC   GL228454  36.520   6.095   9.079
 2111POPC   C1A28455  36.166   5.627   8.726
 2111POPC   D2A28456  35.931   5.761   8.360
 2111POPC   C3A28457  36.099   5.609   7.983
 2111POPC   C4A28458  35.898   5.837   7.612
 2111POPC   C1B28459  36.233   6.128   8.727
 2111POPC   C2B28460  36.162   6.228   8.278
 2111POPC   C3B28461  36.307   6.054   7.878
 2111POPC   C4B28462  36.504   6.190   7.499
 2112POPC   NC328463  36.167  26.655   9.560
 2112POPC   PO428464  36.417  27.271   9.459
 2112POPC   GL128465  36.269  26.974   9.173
 2112POPC   GL228466  35.907  26.910   9.197
 2112POPC   C1A28467  36.389  26.762   8.792
 2112POPC   D2A28468  36.270  26.826   8.367
 2112POPC   C3A28469  36.530  26.593   8.082
 2112POPC   C4A28470  36.574  26.600   7.620
 2112POPC   C1B28471  35.950  26.544   8.884
 2112POPC   C2B28472  35.808  26.566   8.469
 2112POPC   C3B28473  35.838  26.794   8.101
 2112POPC   C4B28474  36.144  26.770   7.795
 2113POPC   NC328475  23.586  37.348   9.486
 2113POPC   PO428476  23.956  36.892   9.522
 2113POPC   GL128477  23.766  36.818   9.138
 2113POPC   GL228478  23.885  37.157   9.058
 2113POPC   C1A28479  23.915  36.764   8.682
 2113POPC   D2A28480  23.994  36.990   8.285
 2113POPC   C3A28481  24.002  36.883   7.813
 2113POPC   C4A28482  23.961  37.040   7.375
 2113POPC   C1B28483  23.537  37.101   8.775
 2113POPC   C2B28484  23.468  36.901   8.393
 2113POPC   C3B28485  23.549  37.105   7.995
 2113POPC   C4B28486  23.525  36.902   7.618
 2114POPC   NC328487   0.763  37.481   9.386
 2114POPC   PO428488   1.385  37.349   9.537
 2114POPC   GL128489   1.501  37.455   9.111
 2114POPC   GL228490   1.224  37.695   9.076
 2114POPC   C1A28491   1.568  37.583   8.691
 2114POPC   D2A28492   1.365  37.764   8.331
 2114POPC   C3A28493   1.392  37.625   7.899
 2114POPC   C4A28494   1.175  37.311   7.653
 2114POPC   C1B28495   0.973  37.814   8.702
 2114POPC   C2B28496   0.950  38.051   8.292
 2114POPC   C3B28497   0.899  37.842   7.866
 2114POPC   C4B28498   0.789  38.004   7.429
 2115POPC   NC328499  12.628  40.233   9.472
 2115POPC   PO428500  13.235  39.986   9.500
 2115POPC   GL128501  13.038  39.936   9.090
 2115POPC   GL228502  12.685  40.046   8.991
 2115POPC   C1A28503  13.071  39.953   8.653
 2115POPC   D2A28504  12.890  40.265   8.448
 2115POPC   C3A28505  12.785  40.143   8.055
 2115POPC   C4A28506  12.622  40.450   7.776
 2115POPC   C1B28507  12.728  39.612   8.823
 2115POPC   C2B28508  12.821  39.571   8.413
 2115POPC   C3B28509  12.609  39.606   8.032
 2115POPC   C4B28510  12.528  39.919   7.677
 2116POPC   NC328511  31.236  41.263   9.402
 2116POPC   PO428512  31.928  41.320   9.384
 2116POPC   GL128513  31.650  41.706   9.205
 2116POPC   GL228514  31.311  41.710   9.122
 2116POPC   C1A28515  31.636  41.814   8.753
 2116POPC   D2A28516  31.593  41.573   8.321
 2116POPC   C3A28517  31.744  41.727   7.940
 2116POPC   C4A28518  32.028  42.011   7.786
 2116POPC   C1B28519  31.260  41.486   8.722
 2116POPC   C2B28520  31.099  41.524   8.272
 2116POPC   C3B28521  31.219  41.767   7.862
 2116POPC   C4B28522  31.137  41.772   7.398
 2117POPC   NC328523   0.949  44.621   9.680
 2117POPC   PO428524   0.854   0.171   9.448
 2117POPC   GL128525   0.802  44.807   9.178
 2117POPC   GL228526   1.145  44.657   9.176
 2117POPC   C1A28527   0.908  44.733   8.738
 2117POPC   D2A28528   1.133  44.703   8.314
 2117POPC   C3A28529   1.028  44.674   7.856
 2117POPC   C4A28530   0.932  44.374   7.510
 2117POPC   C1B28531   1.428  44.688   8.767
 2117POPC   C2B28532   1.641  44.757   8.329
 2117POPC   C3B28533   1.539  44.871   7.880
 2117POPC   C4B28534   1.793  44.855   7.497
 2118POPC   NC328535  41.179  13.810   9.430
 2118POPC   PO428536  40.437  13.672   9.551
 2118POPC   GL128537  40.700  13.728   9.205
 2118POPC   GL228538  40.489  13.923   9.002
 2118POPC   C1A28539  40.904  13.500   8.844
 2118POPC   D2A28540  40.724  13.606   8.424
 2118POPC   C3A28541  40.936  13.537   8.018
 2118POPC   C4A28542  40.850  13.324   7.597
 2118POPC   C1B28543  40.890  14.000   8.746
 2118POPC   C2B28544  40.977  14.023   8.283
 2118POPC   C3B28545  40.624  13.951   8.009
 2118POPC   C4B28546  40.477  13.847   7.620
 2119POPC   NC328547  20.758  22.726   9.559
 2119POPC   PO428548  20.676  23.311   9.733
 2119POPC   GL128549  20.680  23.072   9.232
 2119POPC   GL228550  20.369  22.861   9.253
 2119POPC   C1A28551  20.607  23.129   8.784
 2119POPC   D2A28552  20.811  22.965   8.450
 2119POPC   C3A28553  20.660  23.024   8.048
 2119POPC   C4A28554  20.946  23.009   7.696
 2119POPC   C1B28555  20.444  22.638   8.869
 2119POPC   C2B28556  20.336  22.751   8.458
 2119POPC   C3B28557  20.343  22.552   8.085
 2119POPC   C4B28558  20.359  22.734   7.711
 2120POPC   NC328559  11.202   1.876   9.539
 2120POPC   PO428560  11.594   2.354   9.491
 2120POPC   GL128561  11.453   2.125   9.132
 2120POPC   GL228562  11.077   2.083   9.102
 2120POPC   C1A28563  11.421   1.880   8.736
 2120POPC   D2A28564  11.380   1.706   8.300
 2120POPC   C3A28565  11.424   1.964   7.929
 2120POPC   C4A28566  11.467   1.895   7.494
 2120POPC   C1B28567  10.924   1.732   8.821
 2120POPC   C2B28568  10.877   1.566   8.378
 2120POPC   C3B28569  10.957   1.737   7.979
 2120POPC   C4B28570  11.010   1.685   7.540
 2121POPC   NC328571   9.160  36.242   9.553
 2121POPC   PO428572   8.532  35.996   9.554
 2121POPC   GL128573   8.835  35.988   9.225
 2121POPC   GL228574   8.770  36.326   9.172
 2121POPC   C1A28575   9.172  36.144   8.896
 2121POPC   D2A28576   9.384  36.372   8.553
 2121POPC   C3A28577   9.299  36.273   8.116
 2121POPC   C4A28578   9.087  35.956   7.859
 2121POPC   C1B28579   8.694  36.098   8.758
 2121POPC   C2B28580   8.754  36.235   8.358
 2121POPC   C3B28581   8.609  36.147   7.964
 2121POPC   C4B28582   8.847  36.414   7.766
 2122POPC   NC328583  30.136  13.002   9.438
 2122POPC   PO428584  29.644  12.599   9.394
 2122POPC   GL128585  29.823  12.778   9.035
 2122POPC   GL228586  30.181  12.693   9.056
 2122POPC   C1A28587  29.682  12.778   8.612
 2122POPC   D2A28588  29.493  12.950   8.245
 2122POPC   C3A28589  29.782  12.857   7.910
 2122POPC   C4A28590  30.210  12.965   7.799
 2122POPC   C1B28591  30.156  12.566   8.674
 2122POPC   C2B28592  30.112  12.712   8.284
 2122POPC   C3B28593  30.254  12.483   7.960
 2122POPC   C4B28594  30.439  12.536   7.572
 2123POPC   NC328595  25.261  21.854   9.434
 2123POPC   PO428596  25.406  22.493   9.261
 2123POPC   GL128597  25.397  22.172   9.013
 2123POPC   GL228598  25.066  22.102   9.038
 2123POPC   C1A28599  25.585  22.117   8.626
 2123POPC   D2A28600  25.558  21.956   8.230
 2123POPC   C3A28601  25.533  22.241   7.867
 2123POPC   C4A28602  25.475  22.002   7.495
 2123POPC   C1B28603  25.079  21.976   8.615
 2123POPC   C2B28604  25.087  22.160   8.200
 2123POPC   C3B28605  25.011  22.190   7.770
 2123POPC   C4B28606  24.727  22.364   7.454
 2124POPC   NC328607   8.923   8.558   9.513
 2124POPC   PO428608   9.295   7.964   9.434
 2124POPC   GL128609   9.053   8.160   9.185
 2124POPC   GL228610   9.258   8.450   9.155
 2124POPC   C1A28611   9.108   8.079   8.786
 2124POPC   D2A28612   8.842   8.099   8.435
 2124POPC   C3A28613   9.010   7.893   8.084
 2124POPC   C4A28614   8.824   7.989   7.683
 2124POPC   C1B28615   9.042   8.566   8.786
 2124POPC   C2B28616   8.997   8.625   8.386
 2124POPC   C3B28617   8.960   8.405   8.015
 2124POPC   C4B28618   8.871   8.592   7.660
 2125POPC   NC328619  41.906   2.683   9.701
 2125POPC   PO428620  42.530   2.828   9.425
 2125POPC   GL128621  42.323   2.766   9.017
 2125POPC   GL228622  42.136   2.417   8.903
 2125POPC   C1A28623  42.358   2.736   8.588
 2125POPC   D2A28624  42.173   2.560   8.268
 2125POPC   C3A28625  42.416   2.747   7.957
 2125POPC   C4A28626  42.106   2.748   7.656
 2125POPC   C1B28627  42.498   2.251   8.612
 2125POPC   C2B28628  42.516   2.191   8.172
 2125POPC   C3B28629  42.305   2.286   7.809
 2125POPC   C4B28630  42.468   2.225   7.373
 2126POPC   NC328631  25.416  28.686   9.424
 2126POPC   PO428632  25.071  29.282   9.383
 2126POPC   GL128633  25.413  29.262   9.112
 2126POPC   GL228634  25.291  28.961   8.994
 2126POPC   C1A28635  25.497  29.283   8.665
 2126POPC   D2A28636  25.440  29.011   8.288
 2126POPC   C3A28637  25.427  29.222   7.891
 2126POPC   C4A28638  25.399  29.240   7.442
 2126POPC   C1B28639  25.006  29.193   8.745
 2126POPC   C2B28640  25.000  29.274   8.319
 2126POPC   C3B28641  24.927  29.100   7.939
 2126POPC   C4B28642  24.900  29.324   7.550
 2127POPC   NC328643   0.637  32.612   9.388
 2127POPC   PO428644   0.197  32.186   9.627
 2127POPC   GL128645   0.540  32.061   9.252
 2127POPC   GL228646   0.661  32.333   8.988
 2127POPC   C1A28647   0.610  31.899   8.791
 2127POPC   D2A28648   0.279  32.044   8.493
 2127POPC   C3A28649   0.315  32.031   8.053
 2127POPC   C4A28650   0.624  31.934   7.767
 2127POPC   C1B28651   0.251  32.437   8.842
 2127POPC   C2B28652   0.188  32.556   8.425
 2127POPC   C3B28653   0.488  32.511   8.113
 2127POPC   C4B28654   0.750  32.556   7.781
 2128POPC   NC328655  33.194   4.676   9.386
 2128POPC   PO428656  32.906   4.057   9.509
 2128POPC   GL128657  33.071   4.199   9.141
 2128POPC   GL228658  32.802   4.438   9.116
 2128POPC   C1A28659  33.069   4.365   8.708
 2128POPC   D2A28660  33.189   4.489   8.319
 2128POPC   C3A28661  33.045   4.341   7.922
 2128POPC   C4A28662  33.175   4.131   7.555
 2128POPC   C1B28663  32.733   4.759   8.787
 2128POPC   C2B28664  32.801   4.840   8.365
 2128POPC   C3B28665  32.717   4.742   7.946
 2128POPC   C4B28666  32.877   4.795   7.530
 2129POPC   NC328667   5.855  31.284   9.504
 2129POPC   PO428668   5.554  31.897   9.396
 2129POPC   GL128669   5.769  31.614   9.125
 2129POPC   GL228670   6.138  31.643   9.224
 2129POPC   C1A28671   5.674  31.511   8.707
 2129POPC   D2A28672   5.528  31.727   8.339
 2129POPC   C3A28673   5.651  31.430   8.081
 2129POPC   C4A28674   5.729  31.314   7.682
 2129POPC   C1B28675   6.190  31.389   8.848
 2129POPC   C2B28676   6.081  31.325   8.417
 2129POPC   C3B28677   6.198  31.387   7.982
 2129POPC   C4B28678   6.290  31.682   7.673
 2130POPC   NC328679  44.822   4.216   9.566
 2130POPC   PO428680  44.189   4.377   9.496
 2130POPC   GL128681  44.502   4.301   9.174
 2130POPC   GL228682  44.735   4.575   9.220
 2130POPC   C1A28683  44.685   4.126   8.787
 2130POPC   D2A28684   0.023   4.094   8.447
 2130POPC   C3A28685  44.819   4.122   8.030
 2130POPC   C4A28686  44.457   4.164   7.758
 2130POPC   C1B28687  44.539   4.646   8.805
 2130POPC   C2B28688  44.653   4.466   8.405
 2130POPC   C3B28689  44.730   4.629   8.018
 2130POPC   C4B28690  44.477   4.683   7.690
 2131POPC   NC328691  40.905  19.592   9.559
 2131POPC   PO428692  40.560  20.172   9.516
 2131POPC   GL128693  40.702  19.909   9.193
 2131POPC   GL228694  40.520  19.587   9.191
 2131POPC   C1A28695  40.944  19.929   8.829
 2131POPC   D2A28696  40.769  20.015   8.442
 2131POPC   C3A28697  41.001  19.763   8.147
 2131POPC   C4A28698  41.028  19.826   7.684
 2131POPC   C1B28699  40.449  19.751   8.756
 2131POPC   C2B28700  40.504  19.607   8.301
 2131POPC   C3B28701  40.550  19.743   7.854
 2131POPC   C4B28702  40.632  19.614   7.376
 2132POPC   NC328703  29.806  19.230   9.548
 2132POPC   PO428704  30.463  18.797   9.615
 2132POPC   GL128705  30.161  18.961   9.262
 2132POPC   GL228706  29.955  18.683   9.130
 2132POPC   C1A28707  29.951  19.166   8.864
 2132POPC   D2A28708  29.823  19.132   8.389
 2132POPC   C3A28709  29.925  19.324   7.951
 2132POPC   C4A28710  30.037  19.271   7.473
 2132POPC   C1B28711  29.749  18.716   8.713
 2132POPC   C2B28712  29.536  18.702   8.301
 2132POPC   C3B28713  29.774  18.800   7.948
 2132POPC   C4B28714  29.656  19.007   7.601
 2133POPC   NC328715  34.666  31.824   9.335
 2133POPC   PO428716  34.558  32.431   9.314
 2133POPC   GL128717  34.652  32.176   8.982
 2133POPC   GL228718  34.281  32.085   9.047
 2133POPC   C1A28719  34.773  32.267   8.567
 2133POPC   D2A28720  34.434  32.532   8.396
 2133POPC   C3A28721  34.376  32.413   8.025
 2133POPC   C4A28722  34.733  32.216   7.874
 2133POPC   C1B28723  34.306  32.042   8.607
 2133POPC   C2B28724  34.566  31.843   8.297
 2133POPC   C3B28725  34.471  31.783   7.861
 2133POPC   C4B28726  34.171  32.063   7.743
 2134POPC   NC328727   8.009  19.601   9.384
 2134POPC   PO428728   8.584  19.883   9.646
 2134POPC   GL128729   8.414  19.843   9.160
 2134POPC   GL228730   8.300  19.537   8.970
 2134POPC   C1A28731   8.456  19.979   8.700
 2134POPC   D2A28732   8.566  19.727   8.317
 2134POPC   C3A28733   8.308  19.697   7.939
 2134POPC   C4A28734   8.245  20.043   7.607
 2134POPC   C1B28735   7.965  19.780   8.755
 2134POPC   C2B28736   8.060  19.913   8.347
 2134POPC   C3B28737   7.854  19.891   7.967
 2134POPC   C4B28738   7.941  19.663   7.535
 2135POPC   NC328739   8.416  11.639   9.409
 2135POPC   PO428740   8.030  11.094   9.436
 2135POPC   GL128741   8.114  11.240   9.058
 2135POPC   GL228742   7.779  11.366   9.055
 2135POPC   C1A28743   8.442  11.264   8.736
 2135POPC   D2A28744   8.603  11.444   8.341
 2135POPC   C3A28745   8.391  11.426   7.942
 2135POPC   C4A28746   8.511  11.204   7.569
 2135POPC   C1B28747   7.791  11.214   8.635
 2135POPC   C2B28748   8.074  11.197   8.287
 2135POPC   C3B28749   8.223  10.941   7.928
 2135POPC   C4B28750   8.125  10.891   7.521
 2136POPC   NC328751  42.381  43.325   9.597
 2136POPC   PO428752  42.609  42.696   9.484
 2136POPC   GL128753  42.329  42.989   9.207
 2136POPC   GL228754  42.456  43.342   9.104
 2136POPC   C1A28755  42.159  43.045   8.804
 2136POPC   D2A28756  42.373  43.013   8.402
 2136POPC   C3A28757  42.245  43.353   8.161
 2136POPC   C4A28758  42.223  43.389   7.712
 2136POPC   C1B28759  42.694  43.318   8.732
 2136POPC   C2B28760  42.824  43.284   8.333
 2136POPC   C3B28761  42.672  43.149   7.947
 2136POPC   C4B28762  42.699  43.318   7.556
 2137POPC   NC328763  10.160   4.809   9.492
 2137POPC   PO428764  10.469   5.380   9.474
 2137POPC   GL128765  10.567   5.231   9.035
 2137POPC   GL228766  10.471   4.867   9.045
 2137POPC   C1A28767  10.639   5.057   8.614
 2137POPC   D2A28768  10.343   4.891   8.343
 2137POPC   C3A28769  10.363   5.119   7.984
 2137POPC   C4A28770  10.708   5.360   7.834
 2137POPC   C1B28771  10.462   4.538   8.724
 2137POPC   C2B28772  10.646   4.474   8.313
 2137POPC   C3B28773  10.752   4.790   7.966
 2137POPC   C4B28774  10.511   4.830   7.566
 2138POPC   NC328775  16.319  19.366   9.498
 2138POPC   PO428776  16.920  19.139   9.633
 2138POPC   GL128777  16.826  18.984   9.206
 2138POPC   GL228778  16.835  18.624   9.143
 2138POPC   C1A28779  16.923  19.007   8.732
 2138POPC   D2A28780  17.094  19.126   8.296
 2138POPC   C3A28781  16.818  19.104   7.917
 2138POPC   C4A28782  16.380  19.269   7.786
 2138POPC   C1B28783  17.058  18.501   8.754
 2138POPC   C2B28784  17.132  18.604   8.319
 2138POPC   C3B28785  16.876  18.566   7.929
 2138POPC   C4B28786  16.701  18.462   7.503
 2139POPC   NC328787  30.447   9.786   9.579
 2139POPC   PO428788  30.528  10.320   9.320
 2139POPC   GL128789  30.567  10.022   9.070
 2139POPC   GL228790  30.767   9.738   9.142
 2139POPC   C1A28791  30.813  10.029   8.698
 2139POPC   D2A28792  30.779   9.739   8.358
 2139POPC   C3A28793  30.777   9.848   7.937
 2139POPC   C4A28794  30.564  10.160   7.746
 2139POPC   C1B28795  30.837   9.447   8.778
 2139POPC   C2B28796  31.018   9.303   8.373
 2139POPC   C3B28797  30.876   9.345   7.920
 2139POPC   C4B28798  30.972   9.321   7.472
 2140POPC   NC328799  29.490  32.892   9.544
 2140POPC   PO428800  29.964  33.362   9.406
 2140POPC   GL128801  29.750  33.107   9.151
 2140POPC   GL228802  29.647  33.304   8.897
 2140POPC   C1A28803  29.779  32.795   8.823
 2140POPC   D2A28804  29.613  32.775   8.402
 2140POPC   C3A28805  29.908  32.696   8.078
 2140POPC   C4A28806  30.278  32.736   7.812
 2140POPC   C1B28807  30.124  33.185   8.777
 2140POPC   C2B28808  30.280  33.011   8.376
 2140POPC   C3B28809  30.075  33.166   8.013
 2140POPC   C4B28810  29.716  33.089   7.829
 2141POPC   NC328811  25.442  40.725   9.613
 2141POPC   PO428812  25.194  40.072   9.566
 2141POPC   GL128813  25.084  40.472   9.254
 2141POPC   GL228814  25.392  40.604   9.079
 2141POPC   C1A28815  24.978  40.747   8.835
 2141POPC   D2A28816  25.302  40.911   8.541
 2141POPC   C3A28817  25.168  40.936   8.124
 2141POPC   C4A28818  25.177  40.822   7.693
 2141POPC   C1B28819  25.344  40.415   8.694
 2141POPC   C2B28820  25.531  40.427   8.345
 2141POPC   C3B28821  25.492  40.574   7.996
 2141POPC   C4B28822  25.529  40.364   7.650
 2142POPC   NC328823   7.273  16.236   9.330
 2142POPC   PO428824   7.392  16.812   9.504
 2142POPC   GL128825   7.492  16.655   9.123
 2142POPC   GL228826   7.542  16.967   8.971
 2142POPC   C1A28827   7.366  16.496   8.726
 2142POPC   D2A28828   7.353  16.693   8.337
 2142POPC   C3A28829   7.275  16.466   7.963
 2142POPC   C4A28830   7.629  16.601   7.777
 2142POPC   C1B28831   7.128  16.934   8.784
 2142POPC   C2B28832   6.957  16.999   8.352
 2142POPC   C3B28833   7.157  16.966   7.929
 2142POPC   C4B28834   7.090  17.191   7.566
 2143POPC   NC328835  24.139  26.469   9.376
 2143POPC   PO428836  24.544  26.990   9.421
 2143POPC   GL128837  24.479  26.776   9.115
 2143POPC   GL228838  24.696  26.519   9.131
 2143POPC   C1A28839  24.627  26.891   8.731
 2143POPC   D2A28840  24.598  27.264   8.469
 2143POPC   C3A28841  24.576  27.075   8.080
 2143POPC   C4A28842  24.580  27.179   7.657
 2143POPC   C1B28843  24.515  26.392   8.738
 2143POPC   C2B28844  24.716  26.513   8.361
 2143POPC   C3B28845  24.696  26.369   7.969
 2143POPC   C4B28846  24.462  26.668   7.756
 2144POPC   NC328847  21.846  21.832   9.425
 2144POPC   PO428848  22.000  22.454   9.672
 2144POPC   GL128849  22.129  22.240   9.277
 2144POPC   GL228850  22.376  21.941   9.243
 2144POPC   C1A28851  22.167  22.363   8.867
 2144POPC   D2A28852  22.218  22.303   8.450
 2144POPC   C3A28853  22.203  22.497   8.073
 2144POPC   C4A28854  22.220  22.409   7.630
 2144POPC   C1B28855  22.518  21.989   8.779
 2144POPC   C2B28856  22.629  22.070   8.303
 2144POPC   C3B28857  22.318  22.011   7.999
 2144POPC   C4B28858  22.018  21.724   7.834
 2145POPC   NC328859  17.362  31.667   9.677
 2145POPC   PO428860  17.784  31.299   9.478
 2145POPC   GL128861  17.543  31.575   9.182
 2145POPC   GL228862  17.150  31.605   9.192
 2145POPC   C1A28863  17.481  31.614   8.720
 2145POPC   D2A28864  17.408  31.332   8.353
 2145POPC   C3A28865  17.524  31.465   7.935
 2145POPC   C4A28866  17.845  31.485   7.618
 2145POPC   C1B28867  16.989  31.777   8.784
 2145POPC   C2B28868  17.018  31.663   8.312
 2145POPC   C3B28869  17.161  31.822   7.893
 2145POPC   C4B28870  17.603  31.987   7.732
 2146POPC   NC328871  27.795  26.578   9.482
 2146POPC   PO428872  27.505  27.121   9.672
 2146POPC   GL128873  27.655  27.033   9.238
 2146POPC   GL228874  27.351  27.169   9.122
 2146POPC   C1A28875  27.899  26.835   8.844
 2146POPC   D2A28876  27.726  26.713   8.449
 2146POPC   C3A28877  27.847  26.877   8.065
 2146POPC   C4A28878  27.649  26.907   7.664
 2146POPC   C1B28879  27.403  26.936   8.785
 2146POPC   C2B28880  27.247  26.914   8.417
 2146POPC   C3B28881  27.309  26.875   8.031
 2146POPC   C4B28882  27.085  26.997   7.660
 2147POPC   NC328883  19.482  10.955   9.506
 2147POPC   PO428884  18.976  10.446   9.444
 2147POPC   GL128885  18.977  10.603   9.024
 2147POPC   GL228886  19.255  10.865   9.042
 2147POPC   C1A28887  18.874  10.418   8.613
 2147POPC   D2A28888  18.812  10.037   8.326
 2147POPC   C3A28889  18.816  10.266   7.940
 2147POPC   C4A28890  19.017  10.588   7.714
 2147POPC   C1B28891  19.362  10.656   8.649
 2147POPC   C2B28892  19.250  10.522   8.208
 2147POPC   C3B28893  19.336  10.220   7.864
 2147POPC   C4B28894  19.325  10.254   7.415
 2148POPC   NC328895   4.810   8.934   9.411
 2148POPC   PO428896   5.460   8.727   9.573
 2148POPC   GL128897   5.307   8.941   9.197
 2148POPC   GL228898   5.242   8.629   9.046
 2148POPC   C1A28899   5.035   9.060   8.806
 2148POPC   D2A28900   4.765   8.939   8.431
 2148POPC   C3A28901   5.024   8.967   8.034
 2148POPC   C4A28902   4.918   8.988   7.600
 2148POPC   C1B28903   5.252   8.583   8.590
 2148POPC   C2B28904   5.487   8.594   8.189
 2148POPC   C3B28905   5.457   8.666   7.738
 2148POPC   C4B28906   5.244   8.708   7.310
 2149POPC   NC328907  24.496  37.517   9.866
 2149POPC   PO428908  24.731  37.473   9.275
 2149POPC   GL128909  24.583  37.786   9.042
 2149POPC   GL228910  24.307  37.657   8.874
 2149POPC   C1A28911  24.620  38.021   8.676
 2149POPC   D2A28912  24.294  38.002   8.355
 2149POPC   C3A28913  24.307  37.875   7.946
 2149POPC   C4A28914  24.682  37.820   7.706
 2149POPC   C1B28915  24.652  37.529   8.606
 2149POPC   C2B28916  24.679  37.593   8.174
 2149POPC   C3B28917  24.695  37.303   7.842
 2149POPC   C4B28918  24.410  37.196   7.541
 2150POPC   NC328919  32.111  23.026   9.550
 2150POPC   PO428920  32.483  22.449   9.471
 2150POPC   GL128921  32.424  22.819   9.192
 2150POPC   GL228922  32.622  23.143   9.205
 2150POPC   C1A28923  32.237  22.999   8.823
 2150POPC   D2A28924  31.961  23.037   8.488
 2150POPC   C3A28925  32.116  23.003   8.077
 2150POPC   C4A28926  31.839  23.117   7.710
 2150POPC   C1B28927  32.554  23.389   8.812
 2150POPC   C2B28928  32.395  23.354   8.406
 2150POPC   C3B28929  32.566  23.255   8.024
 2150POPC   C4B28930  32.308  23.309   7.706
 2151POPC   NC328931  15.837  11.538   9.586
 2151POPC   PO428932  15.752  10.872   9.639
 2151POPC   GL128933  15.793  11.073   9.210
 2151POPC   GL228934  15.810  11.439   9.106
 2151POPC   C1A28935  15.702  11.055   8.765
 2151POPC   D2A28936  15.682  10.922   8.330
 2151POPC   C3A28937  15.897  11.196   8.071
 2151POPC   C4A28938  16.048  11.174   7.657
 2151POPC   C1B28939  16.041  11.682   8.853
 2151POPC   C2B28940  16.100  11.495   8.474
 2151POPC   C3B28941  16.152  11.662   8.081
 2151POPC   C4B28942  16.010  11.738   7.701
 2152POPC   NC328943  20.411  10.666   9.699
 2152POPC   PO428944  19.663  10.516   9.547
 2152POPC   GL128945  19.795  10.575   9.107
 2152POPC   GL228946  20.105  10.408   9.008
 2152POPC   C1A28947  19.889  10.640   8.642
 2152POPC   D2A28948  19.752  10.794   8.281
 2152POPC   C3A28949  19.755  10.454   8.054
 2152POPC   C4A28950  19.634  10.595   7.704
 2152POPC   C1B28951  20.386  10.515   8.636
 2152POPC   C2B28952  20.291  10.641   8.255
 2152POPC   C3B28953  20.134  10.768   7.912
 2152POPC   C4B28954  20.128  10.479   7.648
 2153POPC   NC328955  32.599  43.218   9.492
 2153POPC   PO428956  32.005  43.006   9.488
 2153POPC   GL128957  32.244  42.884   9.154
 2153POPC   GL228958  32.356  43.214   9.037
 2153POPC   C1A28959  32.345  42.821   8.728
 2153POPC   D2A28960  32.482  42.895   8.343
 2153POPC   C3A28961  32.240  42.968   8.024
 2153POPC   C4A28962  32.249  42.922   7.631
 2153POPC   C1B28963  32.277  43.328   8.594
 2153POPC   C2B28964  32.485  43.384   8.196
 2153POPC   C3B28965  32.364  43.402   7.757
 2153POPC   C4B28966  32.419  43.586   7.379
 2154POPC   NC328967   4.589  27.635   9.389
 2154POPC   PO428968   3.917  27.813   9.343
 2154POPC   GL128969   4.233  27.677   8.992
 2154POPC   GL228970   4.453  27.373   8.888
 2154POPC   C1A28971   4.101  27.647   8.574
 2154POPC   D2A28972   4.273  27.834   8.242
 2154POPC   C3A28973   4.204  27.704   7.815
 2154POPC   C4A28974   4.270  27.974   7.460
 2154POPC   C1B28975   4.131  27.147   8.637
 2154POPC   C2B28976   4.073  27.267   8.212
 2154POPC   C3B28977   4.297  27.214   7.848
 2154POPC   C4B28978   3.953  27.284   7.624
 2155POPC   NC328979   1.070  33.634   9.462
 2155POPC   PO428980   1.213  34.275   9.292
 2155POPC   GL128981   1.415  34.015   9.035
 2155POPC   GL228982   1.421  33.634   9.100
 2155POPC   C1A28983   1.336  34.065   8.611
 2155POPC   D2A28984   1.050  34.182   8.301
 2155POPC   C3A28985   1.261  33.983   7.986
 2155POPC   C4A28986   1.594  33.940   7.741
 2155POPC   C1B28987   1.103  33.646   8.775
 2155POPC   C2B28988   1.191  33.625   8.345
 2155POPC   C3B28989   1.360  33.504   7.936
 2155POPC   C4B28990   1.043  33.446   7.689
 2156POPC   NC328991  40.360  23.355   9.375
 2156POPC   PO428992  39.836  23.723   9.684
 2156POPC   GL128993  39.802  23.754   9.250
 2156POPC   GL228994  39.500  23.916   9.148
 2156POPC   C1A28995  39.945  23.574   8.882
 2156POPC   D2A28996  39.836  23.489   8.438
 2156POPC   C3A28997  40.175  23.660   8.163
 2156POPC   C4A28998  40.222  23.635   7.717
 2156POPC   C1B28999  39.647  23.929   8.696
 2156POPC   C2B29000  39.769  23.953   8.245
 2156POPC   C3B29001  39.761  23.854   7.805
 2156POPC   C4B29002  39.964  24.070   7.454
 2157POPC   NC329003  40.071  24.098   9.556
 2157POPC   PO429004  40.280  24.784   9.473
 2157POPC   GL129005  40.109  24.508   9.164
 2157POPC   GL229006  39.876  24.251   9.097
 2157POPC   C1A29007  39.942  24.619   8.764
 2157POPC   D2A29008  39.892  24.416   8.391
 2157POPC   C3A29009  39.982  24.652   8.037
 2157POPC   C4A29010  40.212  24.842   7.703
 2157POPC   C1B29011  40.149  24.103   8.779
 2157POPC   C2B29012  40.322  24.138   8.362
 2157POPC   C3B29013  40.171  24.156   7.935
 2157POPC   C4B29014  40.438  24.280   7.581
 2158POPC   NC329015  36.534  17.158   9.501
 2158POPC   PO429016  36.160  16.519   9.533
 2158POPC   GL129017  36.188  16.740   9.151
 2158POPC   GL229018  35.933  16.990   9.145
 2158POPC   C1A29019  36.372  16.711   8.725
 2158POPC   D2A29020  36.128  16.501   8.389
 2158POPC   C3A29021  36.261  16.639   7.983
 2158POPC   C4A29022  35.942  16.580   7.709
 2158POPC   C1B29023  35.885  16.843   8.725
 2158POPC   C2B29024  36.134  17.010   8.356
 2158POPC   C3B29025  35.967  17.062   7.945
 2158POPC   C4B29026  36.115  17.116   7.547
 2159POPC   NC329027  19.955  27.594   9.449
 2159POPC   PO429028  19.303  27.817   9.497
 2159POPC   GL129029  19.627  27.874   9.180
 2159POPC   GL229030  19.778  27.524   8.988
 2159POPC   C1A29031  19.949  27.979   8.885
 2159POPC   D2A29032  19.892  27.757   8.521
 2159POPC   C3A29033  19.939  27.923   8.094
 2159POPC   C4A29034  19.848  27.699   7.708
 2159POPC   C1B29035  20.081  27.264   8.703
 2159POPC   C2B29036  20.147  27.114   8.246
 2159POPC   C3B29037  20.214  27.368   7.841
 2159POPC   C4B29038  20.324  27.346   7.390
 2160POPC   NC329039  25.410  43.412   9.443
 2160POPC   PO429040  25.047  42.911   9.581
 2160POPC   GL129041  25.099  42.934   9.141
 2160POPC   GL229042  25.445  42.875   9.184
 2160POPC   C1A29043  25.312  43.205   8.805
 2160POPC   D2A29044  25.511  43.143   8.399
 2160POPC   C3A29045  25.206  43.211   8.070
 2160POPC   C4A29046  24.836  43.025   7.879
 2160POPC   C1B29047  25.432  42.707   8.787
 2160POPC   C2B29048  25.603  42.628   8.413
 2160POPC   C3B29049  25.448  42.744   8.048
 2160POPC   C4B29050  25.312  42.904   7.665
 2161POPC   NC329051  17.687  24.552   9.515
 2161POPC   PO429052  17.138  24.501   9.303
 2161POPC   GL129053  17.406  24.861   9.117
 2161POPC   GL229054  17.790  24.894   9.142
 2161POPC   C1A29055  17.298  24.868   8.685
 2161POPC   D2A29056  17.334  24.505   8.416
 2161POPC   C3A29057  17.433  24.638   8.017
 2161POPC   C4A29058  17.303  24.448   7.636
 2161POPC   C1B29059  17.687  24.521   8.855
 2161POPC   C2B29060  17.815  24.282   8.501
 2161POPC   C3B29061  17.922  24.450   8.113
 2161POPC   C4B29062  17.815  24.553   7.687
 2162POPC   NC329063  32.423  38.343   9.550
 2162POPC   PO429064  32.083  38.702   9.161
 2162POPC   GL129065  32.409  38.445   8.990
 2162POPC   GL229066  32.600  38.142   9.116
 2162POPC   C1A29067  32.289  38.409   8.569
 2162POPC   D2A29068  31.902  38.386   8.324
 2162POPC   C3A29069  32.032  38.525   7.919
 2162POPC   C4A29070  32.320  38.399   7.635
 2162POPC   C1B29071  32.477  37.946   8.722
 2162POPC   C2B29072  32.274  37.991   8.281
 2162POPC   C3B29073  32.385  37.960   7.852
 2162POPC   C4B29074  32.800  38.061   7.672
 2163POPC   NC329075  15.155  21.560   9.525
 2163POPC   PO429076  15.688  21.769   9.297
 2163POPC   GL129077  15.400  21.635   9.010
 2163POPC   GL229078  15.031  21.630   9.038
 2163POPC   C1A29079  15.315  21.642   8.577
 2163POPC   D2A29080  15.168  21.361   8.273
 2163POPC   C3A29081  15.270  21.278   7.856
 2163POPC   C4A29082  15.534  20.935   7.838
 2163POPC   C1B29083  14.810  21.500   8.693
 2163POPC   C2B29084  14.667  21.374   8.327
 2163POPC   C3B29085  14.798  21.082   8.019
 2163POPC   C4B29086  14.844  21.155   7.580
 2164POPC   NC329087  23.619  30.863   9.385
 2164POPC   PO429088  23.945  30.349   9.460
 2164POPC   GL129089  23.752  30.445   9.106
 2164POPC   GL229090  23.376  30.450   9.116
 2164POPC   C1A29091  23.887  30.692   8.785
 2164POPC   D2A29092  23.920  30.913   8.437
 2164POPC   C3A29093  24.036  30.764   8.050
 2164POPC   C4A29094  23.880  30.880   7.689
 2164POPC   C1B29095  23.395  30.600   8.671
 2164POPC   C2B29096  23.546  30.580   8.211
 2164POPC   C3B29097  23.390  30.653   7.763
 2164POPC   C4B29098  23.331  30.477   7.341
 2165POPC   NC329099  14.118  27.078   9.463
 2165POPC   PO429100  14.683  26.644   9.442
 2165POPC   GL129101  14.427  26.824   9.112
 2165POPC   GL229102  14.451  27.169   9.053
 2165POPC   C1A29103  14.438  26.766   8.657
 2165POPC   D2A29104  14.257  26.489   8.349
 2165POPC   C3A29105  14.458  26.481   7.954
 2165POPC   C4A29106  14.340  26.710   7.565
 2165POPC   C1B29107  14.036  27.021   8.830
 2165POPC   C2B29108  13.993  26.929   8.399
 2165POPC   C3B29109  14.279  26.973   8.053
 2165POPC   C4B29110  14.142  27.214   7.713
 2166POPC   NC329111   8.941  17.929   9.448
 2166POPC   PO429112   8.990  18.632   9.539
 2166POPC   GL129113   8.906  18.391   9.191
 2166POPC   GL229114   9.238  18.414   9.099
 2166POPC   C1A29115   8.863  18.212   8.783
 2166POPC   D2A29116   8.774  17.972   8.415
 2166POPC   C3A29117   8.766  18.237   8.084
 2166POPC   C4A29118   8.905  18.302   7.685
 2166POPC   C1B29119   9.156  18.654   8.732
 2166POPC   C2B29120   8.923  18.603   8.395
 2166POPC   C3B29121   9.084  18.657   7.999
 2166POPC   C4B29122   9.246  18.655   7.591
 2167POPC   NC329123   4.098  10.605   9.402
 2167POPC   PO429124   4.614  10.353   9.676
 2167POPC   GL129125   4.487  10.312   9.208
 2167POPC   GL229126   4.423  10.631   9.037
 2167POPC   C1A29127   4.325  10.178   8.800
 2167POPC   D2A29128   4.143  10.328   8.446
 2167POPC   C3A29129   4.307  10.248   8.069
 2167POPC   C4A29130   4.208  10.499   7.753
 2167POPC   C1B29131   4.352  10.764   8.642
 2167POPC   C2B29132   4.405  11.068   8.350
 2167POPC   C3B29133   4.722  11.006   8.080
 2167POPC   C4B29134   4.637  10.724   7.830
 2168POPC   NC329135  13.400   2.292   9.301
 2168POPC   PO429136  12.778   2.026   9.516
 2168POPC   GL129137  12.863   1.831   9.153
 2168POPC   GL229138  12.507   1.706   9.119
 2168POPC   C1A29139  13.014   2.050   8.779
 2168POPC   D2A29140  12.985   1.853   8.365
 2168POPC   C3A29141  13.174   2.061   8.053
 2168POPC   C4A29142  12.825   2.132   7.798
 2168POPC   C1B29143  12.594   1.765   8.699
 2168POPC   C2B29144  12.466   2.028   8.373
 2168POPC   C3B29145  12.362   2.036   7.956
 2168POPC   C4B29146  12.541   1.665   7.781
 2169POPC   NC329147   9.393  11.850   9.446
 2169POPC   PO429148  10.097  11.824   9.740
 2169POPC   GL129149   9.897  12.024   9.375
 2169POPC   GL229150   9.888  11.710   9.194
 2169POPC   C1A29151   9.756  12.205   8.957
 2169POPC   D2A29152   9.544  12.042   8.573
 2169POPC   C3A29153   9.598  12.163   8.119
 2169POPC   C4A29154   9.454  12.069   7.665
 2169POPC   C1B29155  10.031  11.817   8.788
 2169POPC   C2B29156  10.013  12.022   8.411
 2169POPC   C3B29157  10.066  11.928   8.035
 2169POPC   C4B29158   9.963  11.992   7.625
 2170POPC   NC329159   1.247  12.661   9.963
 2170POPC   PO429160   1.120  13.093   9.473
 2170POPC   GL129161   1.233  12.968   9.083
 2170POPC   GL229162   1.382  12.666   9.201
 2170POPC   C1A29163   1.119  13.135   8.675
 2170POPC   D2A29164   1.015  12.957   8.289
 2170POPC   C3A29165   1.006  13.112   7.861
 2170POPC   C4A29166   0.699  13.023   7.502
 2170POPC   C1B29167   1.422  12.594   8.751
 2170POPC   C2B29168   1.441  12.628   8.301
 2170POPC   C3B29169   1.176  12.569   7.958
 2170POPC   C4B29170   1.357  12.552   7.567
 2171POPC   NC329171  27.988  22.429   9.898
 2171POPC   PO429172  28.469  22.327   9.433
 2171POPC   GL129173  28.589  22.157   9.044
 2171POPC   GL229174  28.266  22.111   8.978
 2171POPC   C1A29175  28.565  22.159   8.580
 2171POPC   D2A29176  28.690  22.311   8.209
 2171POPC   C3A29177  28.499  22.057   7.908
 2171POPC   C4A29178  28.338  22.095   7.514
 2171POPC   C1B29179  28.065  22.307   8.644
 2171POPC   C2B29180  28.146  22.234   8.232
 2171POPC   C3B29181  28.049  22.395   7.827
 2171POPC   C4B29182  28.243  22.588   7.467
 2172POPC   NC329183   6.827  43.261   9.485
 2172POPC   PO429184   6.246  42.808   9.489
 2172POPC   GL129185   6.560  42.724   9.150
 2172POPC   GL229186   6.919  42.845   9.153
 2172POPC   C1A29187   6.641  42.879   8.726
 2172POPC   D2A29188   6.684  43.254   8.452
 2172POPC   C3A29189   6.690  43.120   8.021
 2172POPC   C4A29190   6.716  43.414   7.719
 2172POPC   C1B29191   7.072  43.110   8.799
 2172POPC   C2B29192   7.157  43.073   8.373
 2172POPC   C3B29193   7.127  43.383   8.044
 2172POPC   C4B29194   7.191  43.272   7.633
 2173POPC   NC329195  28.370  42.016   9.703
 2173POPC   PO429196  28.412  41.285   9.756
 2173POPC   GL129197  28.398  41.535   9.253
 2173POPC   GL229198  28.591  41.803   9.230
 2173POPC   C1A29199  28.191  41.494   8.847
 2173POPC   D2A29200  28.289  41.451   8.424
 2173POPC   C3A29201  28.076  41.680   8.106
 2173POPC   C4A29202  28.046  41.321   7.866
 2173POPC   C1B29203  28.605  41.765   8.783
 2173POPC   C2B29204  28.395  41.966   8.428
 2173POPC   C3B29205  28.509  41.944   7.982
 2173POPC   C4B29206  28.367  41.666   7.634
 2174POPC   NC329207  16.203  21.016   9.261
 2174POPC   PO429208  15.983  20.435   9.586
 2174POPC   GL129209  15.906  20.610   9.175
 2174POPC   GL229210  16.242  20.527   9.137
 2174POPC   C1A29211  16.009  20.719   8.727
 2174POPC   D2A29212  16.144  20.753   8.343
 2174POPC   C3A29213  15.845  20.647   8.119
 2174POPC   C4A29214  15.998  20.668   7.764
 2174POPC   C1B29215  16.316  20.314   8.803
 2174POPC   C2B29216  16.192  20.262   8.431
 2174POPC   C3B29217  16.162  20.256   8.046
 2174POPC   C4B29218  16.200  20.220   7.619
 2175POPC   NC329219  19.227  39.069   9.460
 2175POPC   PO429220  19.097  38.371   9.473
 2175POPC   GL129221  19.282  38.642   9.174
 2175POPC   GL229222  18.978  38.517   9.013
 2175POPC   C1A29223  19.259  38.794   8.735
 2175POPC   D2A29224  19.073  38.601   8.408
 2175POPC   C3A29225  19.173  38.581   7.976
 2175POPC   C4A29226  19.338  38.793   7.616
 2175POPC   C1B29227  19.278  38.271   8.774
 2175POPC   C2B29228  19.185  38.020   8.410
 2175POPC   C3B29229  19.012  38.086   8.005
 2175POPC   C4B29230  19.166  38.234   7.606
 2176POPC   NC329231  25.815  20.426   9.505
 2176POPC   PO429232  26.139  21.028   9.418
 2176POPC   GL129233  25.870  20.792   9.126
 2176POPC   GL229234  26.092  20.496   9.075
 2176POPC   C1A29235  25.809  20.622   8.698
 2176POPC   D2A29236  25.938  20.341   8.369
 2176POPC   C3A29237  25.972  20.573   7.996
 2176POPC   C4A29238  25.744  20.622   7.629
 2176POPC   C1B29239  26.428  20.511   8.771
 2176POPC   C2B29240  26.372  20.585   8.338
 2176POPC   C3B29241  26.470  20.365   7.945
 2176POPC   C4B29242  26.455  20.405   7.468
 2177POPC   NC329243  44.944  12.577   9.373
 2177POPC   PO429244  44.878  11.913   9.528
 2177POPC   GL129245  44.635  11.914   9.170
 2177POPC   GL229246  44.438  12.212   9.229
 2177POPC   C1A29247  44.695  12.098   8.780
 2177POPC   D2A29248  44.797  12.132   8.375
 2177POPC   C3A29249  44.654  12.050   7.992
 2177POPC   C4A29250  44.972  11.870   7.805
 2177POPC   C1B29251  44.400  12.487   8.858
 2177POPC   C2B29252  44.377  12.458   8.406
 2177POPC   C3B29253  44.392  12.547   7.962
 2177POPC   C4B29254  44.380  12.310   7.581
 2178POPC   NC329255  41.505  36.301   9.640
 2178POPC   PO429256  41.962  36.728   9.613
 2178POPC   GL129257  41.616  36.755   9.251
 2178POPC   GL229258  41.239  36.662   9.300
 2178POPC   C1A29259  41.641  36.846   8.771
 2178POPC   D2A29260  41.558  36.699   8.332
 2178POPC   C3A29261  41.728  36.940   7.952
 2178POPC   C4A29262  41.891  36.744   7.566
 2178POPC   C1B29263  41.164  36.898   8.917
 2178POPC   C2B29264  41.169  37.047   8.503
 2178POPC   C3B29265  41.215  36.962   8.086
 2178POPC   C4B29266  41.297  37.243   7.777
 2179POPC   NC329267   3.402  12.921   9.417
 2179POPC   PO429268   3.959  12.724   9.713
 2179POPC   GL129269   3.824  12.707   9.227
 2179POPC   GL229270   4.075  12.587   8.988
 2179POPC   C1A29271   3.595  12.782   8.816
 2179POPC   D2A29272   3.533  13.049   8.423
 2179POPC   C3A29273   3.217  12.936   8.122
 2179POPC   C4A29274   3.326  12.882   7.706
 2179POPC   C1B29275   3.974  12.514   8.560
 2179POPC   C2B29276   4.043  12.701   8.151
 2179POPC   C3B29277   3.785  12.658   7.787
 2179POPC   C4B29278   3.853  12.915   7.445
 2180POPC   NC329279  42.501  33.676   9.443
 2180POPC   PO429280  41.926  33.454   9.212
 2180POPC   GL129281  42.217  33.647   9.017
 2180POPC   GL229282  42.291  33.991   9.104
 2180POPC   C1A29283  42.118  33.715   8.638
 2180POPC   D2A29284  42.320  33.845   8.311
 2180POPC   C3A29285  42.241  33.655   7.925
 2180POPC   C4A29286  42.188  33.918   7.570
 2180POPC   C1B29287  42.596  33.919   8.752
 2180POPC   C2B29288  42.825  33.943   8.356
 2180POPC   C3B29289  42.649  33.978   7.939
 2180POPC   C4B29290  42.677  34.156   7.543
 2181POPC   NC329291  43.701  10.825   9.426
 2181POPC   PO429292  44.229  10.441   9.533
 2181POPC   GL129293  43.949  10.406   9.207
 2181POPC   GL229294  44.071  10.730   9.079
 2181POPC   C1A29295  43.761  10.371   8.801
 2181POPC   D2A29296  43.775  10.626   8.434
 2181POPC   C3A29297  43.585  10.410   8.092
 2181POPC   C4A29298  43.467  10.421   7.654
 2181POPC   C1B29299  44.084  10.983   8.694
 2181POPC   C2B29300  44.228  10.918   8.282
 2181POPC   C3B29301  43.971  10.748   7.971
 2181POPC   C4B29302  43.566  10.887   7.892
 2182POPC   NC329303   4.470  14.073   9.539
 2182POPC   PO429304   4.146  14.660   9.504
 2182POPC   GL129305   4.323  14.477   9.159
 2182POPC   GL229306   4.114  14.204   9.114
 2182POPC   C1A29307   4.505  14.307   8.783
 2182POPC   D2A29308   4.375  14.227   8.372
 2182POPC   C3A29309   4.599  14.191   8.037
 2182POPC   C4A29310   4.665  14.417   7.702
 2182POPC   C1B29311   4.018  14.422   8.683
 2182POPC   C2B29312   3.944  14.499   8.203
 2182POPC   C3B29313   4.139  14.396   7.775
 2182POPC   C4B29314   4.023  14.039   7.456
 2183POPC   NC329315  21.375  26.226   9.350
 2183POPC   PO429316  21.666  25.644   9.484
 2183POPC   GL129317  21.431  25.762   9.096
 2183POPC   GL229318  21.106  25.585   9.014
 2183POPC   C1A29319  21.240  26.009   8.757
 2183POPC   D2A29320  21.422  26.255   8.457
 2183POPC   C3A29321  21.432  25.989   8.116
 2183POPC   C4A29322  21.322  26.086   7.694
 2183POPC   C1B29323  20.962  25.570   8.602
 2183POPC   C2B29324  21.047  25.636   8.171
 2183POPC   C3B29325  20.880  25.826   7.800
 2183POPC   C4B29326  21.058  25.871   7.327
 2184POPC   NC329327  35.057  39.712   9.533
 2184POPC   PO429328  35.407  40.282   9.392
 2184POPC   GL129329  35.400  40.015   9.044
 2184POPC   GL229330  35.147  39.733   9.039
 2184POPC   C1A29331  35.357  39.998   8.605
 2184POPC   D2A29332  35.443  40.230   8.225
 2184POPC   C3A29333  35.495  39.965   7.871
 2184POPC   C4A29334  35.710  39.579   7.804
 2184POPC   C1B29335  35.073  39.570   8.609
 2184POPC   C2B29336  35.109  39.775   8.179
 2184POPC   C3B29337  35.005  39.753   7.717
 2184POPC   C4B29338  34.879  39.593   7.248
 2185POPC   NC329339  17.777  34.974   9.775
 2185POPC   PO429340  17.423  35.410   9.533
 2185POPC   GL129341  17.632  35.172   9.214
 2185POPC   GL229342  17.303  35.064   9.152
 2185POPC   C1A29343  17.623  35.060   8.745
 2185POPC   D2A29344  17.534  34.784   8.379
 2185POPC   C3A29345  17.611  34.983   8.008
 2185POPC   C4A29346  17.524  35.253   7.709
 2185POPC   C1B29347  17.290  35.457   8.890
 2185POPC   C2B29348  17.139  35.644   8.526
 2185POPC   C3B29349  17.329  35.609   8.120
 2185POPC   C4B29350  17.155  35.633   7.722
 2186POPC   NC329351  43.681   0.290   9.614
 2186POPC   PO429352  44.209   0.658   9.502
 2186POPC   GL129353  43.966   0.612   9.149
 2186POPC   GL229354  43.752   0.326   9.051
 2186POPC   C1A29355  44.109   0.506   8.714
 2186POPC   D2A29356  43.869   0.425   8.331
 2186POPC   C3A29357  44.067   0.212   7.963
 2186POPC   C4A29358  44.431   0.374   7.695
 2186POPC   C1B29359  43.656   0.729   8.773
 2186POPC   C2B29360  43.477   0.784   8.373
 2186POPC   C3B29361  43.567   0.626   7.966
 2186POPC   C4B29362  43.515   0.297   7.653
 2187POPC   NC329363   4.856  34.777   9.463
 2187POPC   PO429364   5.508  34.642   9.479
 2187POPC   GL129365   5.212  34.644   9.111
 2187POPC   GL229366   4.990  34.389   9.156
 2187POPC   C1A29367   4.895  34.664   8.727
 2187POPC   D2A29368   4.703  34.560   8.305
 2187POPC   C3A29369   4.988  34.657   7.943
 2187POPC   C4A29370   5.299  34.706   7.592
 2187POPC   C1B29371   5.247  34.256   8.766
 2187POPC   C2B29372   5.229  34.369   8.319
 2187POPC   C3B29373   5.292  34.266   7.876
 2187POPC   C4B29374   5.049  34.286   7.509
 2188POPC   NC329375   6.903  22.724   9.458
 2188POPC   PO429376   6.322  23.105   9.482
 2188POPC   GL129377   6.362  22.989   9.067
 2188POPC   GL229378   6.475  22.665   9.149
 2188POPC   C1A29379   6.478  22.929   8.631
 2188POPC   D2A29380   6.881  22.907   8.429
 2188POPC   C3A29381   6.772  23.078   8.045
 2188POPC   C4A29382   6.908  23.241   7.657
 2188POPC   C1B29383   6.705  22.521   8.802
 2188POPC   C2B29384   6.694  22.399   8.360
 2188POPC   C3B29385   6.949  22.569   7.994
 2188POPC   C4B29386   6.759  22.763   7.645
 2189POPC   NC329387   4.929  17.925   9.644
 2189POPC   PO429388   5.375  18.288   9.763
 2189POPC   GL129389   5.269  18.105   9.303
 2189POPC   GL229390   4.986  18.184   9.162
 2189POPC   C1A29391   5.450  18.083   8.862
 2189POPC   D2A29392   5.418  18.217   8.419
 2189POPC   C3A29393   5.506  18.242   7.964
 2189POPC   C4A29394   5.233  18.305   7.592
 2189POPC   C1B29395   4.804  18.181   8.770
 2189POPC   C2B29396   4.967  17.996   8.406
 2189POPC   C3B29397   4.994  18.195   8.042
 2189POPC   C4B29398   4.751  18.106   7.711
 2190POPC   NC329399  22.574  27.692   9.508
 2190POPC   PO429400  23.222  27.466   9.535
 2190POPC   GL129401  22.914  27.393   9.223
 2190POPC   GL229402  22.942  27.083   9.093
 2190POPC   C1A29403  22.720  27.575   8.849
 2190POPC   D2A29404  22.899  27.829   8.540
 2190POPC   C3A29405  22.815  27.757   8.089
 2190POPC   C4A29406  23.008  27.805   7.684
 2190POPC   C1B29407  22.817  27.109   8.648
 2190POPC   C2B29408  22.784  27.237   8.188
 2190POPC   C3B29409  22.846  27.318   7.731
 2190POPC   C4B29410  23.185  27.437   7.384
 2191POPC   NC329411  41.423  17.376   9.250
 2191POPC   PO429412  41.825  17.770   9.653
 2191POPC   GL129413  41.855  17.655   9.174
 2191POPC   GL229414  41.884  17.310   9.051
 2191POPC   C1A29415  41.705  17.634   8.689
 2191POPC   D2A29416  41.303  17.468   8.466
 2191POPC   C3A29417  41.333  17.329   8.023
 2191POPC   C4A29418  41.496  17.645   7.781
 2191POPC   C1B29419  42.045  17.207   8.688
 2191POPC   C2B29420  41.770  17.257   8.353
 2191POPC   C3B29421  41.877  17.332   7.989
 2191POPC   C4B29422  41.747  17.222   7.640
 2192POPC   NC329423  21.902  10.072   9.425
 2192POPC   PO429424  21.296   9.631   9.594
 2192POPC   GL129425  21.152   9.795   9.196
 2192POPC   GL229426  21.518   9.834   9.148
 2192POPC   C1A29427  21.162   9.817   8.738
 2192POPC   D2A29428  21.405   9.752   8.356
 2192POPC   C3A29429  21.269   9.868   7.981
 2192POPC   C4A29430  21.218   9.640   7.642
 2192POPC   C1B29431  21.666  10.068   8.796
 2192POPC   C2B29432  21.804  10.064   8.380
 2192POPC   C3B29433  21.765   9.860   7.970
 2192POPC   C4B29434  21.649   9.953   7.568
 2193POPC   NC329435   0.124  10.143   9.376
 2193POPC   PO429436   0.408   9.567   9.500
 2193POPC   GL129437   0.296   9.714   9.104
 2193POPC   GL229438   0.461  10.018   9.016
 2193POPC   C1A29439   0.432   9.647   8.664
 2193POPC   D2A29440   0.734   9.546   8.347
 2193POPC   C3A29441   0.468   9.682   8.041
 2193POPC   C4A29442   0.367   9.566   7.649
 2193POPC   C1B29443   0.312  10.264   8.715
 2193POPC   C2B29444   0.047  10.277   8.391
 2193POPC   C3B29445   0.190  10.148   8.002
 2193POPC   C4B29446   0.487  10.077   7.689
 2194POPC   NC329447  20.415  10.764   9.203
 2194POPC   PO429448  20.861  10.502   9.664
 2194POPC   GL129449  20.889  10.613   9.178
 2194POPC   GL229450  20.775  10.362   9.023
 2194POPC   C1A29451  20.931  10.757   8.730
 2194POPC   D2A29452  20.804  10.600   8.322
 2194POPC   C3A29453  20.674  10.843   7.957
 2194POPC   C4A29454  20.690  10.769   7.558
 2194POPC   C1B29455  20.745  10.164   8.664
 2194POPC   C2B29456  20.563  10.150   8.275
 2194POPC   C3B29457  20.545  10.357   7.878
 2194POPC   C4B29458  20.667  10.281   7.436
 2195POPC   NC329459   7.983  42.195   9.519
 2195POPC   PO429460   8.588  42.435   9.831
 2195POPC   GL129461   8.454  42.480   9.319
 2195POPC   GL229462   8.174  42.338   9.092
 2195POPC   C1A29463   8.486  42.575   8.810
 2195POPC   D2A29464   8.280  42.332   8.496
 2195POPC   C3A29465   8.209  42.472   8.078
 2195POPC   C4A29466   8.057  42.167   7.781
 2195POPC   C1B29467   7.878  42.487   8.770
 2195POPC   C2B29468   7.758  42.358   8.332
 2195POPC   C3B29469   7.719  42.514   7.915
 2195POPC   C4B29470   7.995  42.611   7.548
 2196POPC   NC329471   6.465  30.112   9.457
 2196POPC   PO429472   6.781  29.547   9.465
 2196POPC   GL129473   6.565  29.733   9.122
 2196POPC   GL229474   6.727  30.035   9.031
 2196POPC   C1A29475   6.435  29.818   8.688
 2196POPC   D2A29476   6.682  29.939   8.335
 2196POPC   C3A29477   6.393  29.923   7.995
 2196POPC   C4A29478   6.479  29.993   7.578
 2196POPC   C1B29479   6.599  30.322   8.721
 2196POPC   C2B29480   6.366  30.346   8.360
 2196POPC   C3B29481   6.648  30.358   8.007
 2196POPC   C4B29482   6.920  30.067   7.881
 2197POPC   NC329483   4.629  13.093   9.419
 2197POPC   PO429484   4.323  13.655   9.684
 2197POPC   GL129485   4.299  13.723   9.205
 2197POPC   GL229486   4.432  13.458   9.038
 2197POPC   C1A29487   4.205  13.865   8.754
 2197POPC   D2A29488   3.932  13.997   8.397
 2197POPC   C3A29489   4.137  13.949   7.992
 2197POPC   C4A29490   4.131  13.615   7.701
 2197POPC   C1B29491   4.301  13.369   8.606
 2197POPC   C2B29492   4.388  13.546   8.195
 2197POPC   C3B29493   4.609  13.409   7.828
 2197POPC   C4B29494   4.673  13.517   7.400
 2198POPC   NC329495  25.755   6.342   9.424
 2198POPC   PO429496  26.395   6.400   9.623
 2198POPC   GL129497  26.174   6.459   9.177
 2198POPC   GL229498  26.038   6.786   9.151
 2198POPC   C1A29499  25.953   6.446   8.740
 2198POPC   D2A29500  25.833   6.708   8.357
 2198POPC   C3A29501  26.020   6.653   7.968
 2198POPC   C4A29502  25.900   6.456   7.560
 2198POPC   C1B29503  25.946   6.980   8.769
 2198POPC   C2B29504  26.135   7.141   8.385
 2198POPC   C3B29505  26.309   7.097   7.950
 2198POPC   C4B29506  26.203   6.886   7.568
 2199POPC   NC329507  40.085  20.160   9.495
 2199POPC   PO429508  39.801  19.462   9.526
 2199POPC   GL129509  39.922  19.744   9.213
 2199POPC   GL229510  39.692  20.037   9.192
 2199POPC   C1A29511  39.942  19.696   8.787
 2199POPC   D2A29512  40.079  19.904   8.416
 2199POPC   C3A29513  40.049  19.658   8.026
 2199POPC   C4A29514  39.789  19.866   7.726
 2199POPC   C1B29515  39.692  20.158   8.759
 2199POPC   C2B29516  39.509  20.177   8.343
 2199POPC   C3B29517  39.699  20.311   7.975
 2199POPC   C4B29518  40.114  20.298   7.812
 2200POPC   NC329519  33.397  32.763   9.496
 2200POPC   PO429520  32.924  33.180   9.662
 2200POPC   GL129521  32.805  33.288   9.231
 2200POPC   GL229522  33.111  33.419   9.191
 2200POPC   C1A29523  32.767  33.074   8.819
 2200POPC   D2A29524  33.043  32.975   8.461
 2200POPC   C3A29525  32.905  32.851   8.059
 2200POPC   C4A29526  32.920  33.029   7.676
 2200POPC   C1B29527  33.206  33.317   8.800
 2200POPC   C2B29528  33.279  33.433   8.388
 2200POPC   C3B29529  33.294  33.268   7.994
 2200POPC   C4B29530  33.361  33.275   7.559
 2201POPC   NC329531  37.145   1.089   9.919
 2201POPC   PO429532  36.686   1.392   9.502
 2201POPC   GL129533  36.874   1.160   9.176
 2201POPC   GL229534  37.187   1.041   9.306
 2201POPC   C1A29535  37.121   1.334   8.817
 2201POPC   D2A29536  37.071   1.616   8.460
 2201POPC   C3A29537  36.888   1.443   8.109
 2201POPC   C4A29538  37.162   1.528   7.804
 2201POPC   C1B29539  37.132   0.819   8.878
 2201POPC   C2B29540  37.120   0.941   8.449
 2201POPC   C3B29541  37.232   1.041   8.040
 2201POPC   C4B29542  36.928   1.082   7.733
 2202POPC   NC329543   9.050  16.300   9.447
 2202POPC   PO429544   9.043  16.920   9.243
 2202POPC   GL129545   8.831  16.584   9.045
 2202POPC   GL229546   8.629  16.860   8.885
 2202POPC   C1A29547   8.736  16.447   8.624
 2202POPC   D2A29548   8.592  16.785   8.357
 2202POPC   C3A29549   8.812  16.874   7.986
 2202POPC   C4A29550   9.027  16.533   7.804
 2202POPC   C1B29551   9.038  16.857   8.621
 2202POPC   C2B29552   9.226  16.646   8.292
 2202POPC   C3B29553   9.338  16.934   7.977
 2202POPC   C4B29554   9.186  16.971   7.573
 2203POPC   NC329555  23.658   7.710   9.519
 2203POPC   PO429556  23.828   8.371   9.585
 2203POPC   GL129557  23.624   8.348   9.164
 2203POPC   GL229558  23.334   8.561   9.057
 2203POPC   C1A29559  23.477   8.152   8.772
 2203POPC   D2A29560  23.553   8.271   8.341
 2203POPC   C3A29561  23.874   8.029   8.133
 2203POPC   C4A29562  23.990   8.033   7.704
 2203POPC   C1B29563  23.578   8.654   8.717
 2203POPC   C2B29564  23.636   8.819   8.319
 2203POPC   C3B29565  23.518   8.614   7.954
 2203POPC   C4B29566  23.695   8.403   7.581
 2204POPC   NC329567   9.207  30.656   9.497
 2204POPC   PO429568   8.571  30.991   9.604
 2204POPC   GL129569   8.822  30.794   9.203
 2204POPC   GL229570   9.115  30.960   9.099
 2204POPC   C1A29571   9.039  30.532   8.821
 2204POPC   D2A29572   9.103  30.358   8.371
 2204POPC   C3A29573   8.816  30.397   8.011
 2204POPC   C4A29574   9.111  30.414   7.669
 2204POPC   C1B29575   8.857  31.017   8.737
 2204POPC   C2B29576   9.074  30.877   8.423
 2204POPC   C3B29577   9.100  30.819   8.030
 2204POPC   C4B29578   9.316  30.903   7.722
 2205POPC   NC329579  42.123  11.368   9.643
 2205POPC   PO429580  42.485  10.892   9.358
 2205POPC   GL129581  42.341  11.282   9.174
 2205POPC   GL229582  42.124  11.087   8.976
 2205POPC   C1A29583  42.544  11.567   8.841
 2205POPC   D2A29584  42.450  11.640   8.394
 2205POPC   C3A29585  42.616  11.429   8.058
 2205POPC   C4A29586  42.325  11.460   7.753
 2205POPC   C1B29587  42.492  11.073   8.726
 2205POPC   C2B29588  42.422  10.950   8.379
 2205POPC   C3B29589  42.203  11.058   8.062
 2205POPC   C4B29590  42.271  10.963   7.671
 2206POPC   NC329591  27.889  28.146   9.449
 2206POPC   PO429592  27.305  28.456   9.471
 2206POPC   GL129593  27.507  28.387   9.124
 2206POPC   GL229594  27.368  28.690   8.998
 2206POPC   C1A29595  27.584  28.187   8.747
 2206POPC   D2A29596  27.611  28.439   8.404
 2206POPC   C3A29597  27.615  28.232   8.085
 2206POPC   C4A29598  27.752  28.208   7.689
 2206POPC   C1B29599  27.176  28.472   8.660
 2206POPC   C2B29600  26.971  28.564   8.298
 2206POPC   C3B29601  27.140  28.826   8.001
 2206POPC   C4B29602  27.448  28.620   7.809
 2207POPC   NC329603   8.705  39.678   9.416
 2207POPC   PO429604   9.328  39.927   9.337
 2207POPC   GL129605   9.001  40.023   9.061
 2207POPC   GL229606   8.673  40.125   9.088
 2207POPC   C1A29607   9.064  40.233   8.691
 2207POPC   D2A29608   9.316  40.055   8.379
 2207POPC   C3A29609   9.119  40.058   8.009
 2207POPC   C4A29610   9.170  39.955   7.601
 2207POPC   C1B29611   8.514  40.186   8.690
 2207POPC   C2B29612   8.716  40.012   8.364
 2207POPC   C3B29613   8.642  39.843   7.996
 2207POPC   C4B29614   8.651  39.996   7.624
 2208POPC   NC329615  22.520  33.718   9.532
 2208POPC   PO429616  21.942  33.988   9.653
 2208POPC   GL129617  22.110  33.871   9.250
 2208POPC   GL229618  22.158  33.521   9.233
 2208POPC   C1A29619  22.226  33.956   8.813
 2208POPC   D2A29620  22.200  33.737   8.427
 2208POPC   C3A29621  22.243  34.012   8.057
 2208POPC   C4A29622  22.167  34.184   7.640
 2208POPC   C1B29623  21.978  33.474   8.824
 2208POPC   C2B29624  21.727  33.544   8.459
 2208POPC   C3B29625  21.873  33.622   8.021
 2208POPC   C4B29626  21.873  33.402   7.622
 2209POPC   NC329627  22.566  34.680   9.471
 2209POPC   PO429628  23.285  34.446   9.537
 2209POPC   GL129629  23.100  34.618   9.141
 2209POPC   GL229630  22.774  34.463   9.067
 2209POPC   C1A29631  22.950  34.787   8.727
 2209POPC   D2A29632  22.877  35.000   8.337
 2209POPC   C3A29633  22.937  34.765   7.953
 2209POPC   C4A29634  23.027  34.369   7.787
 2209POPC   C1B29635  22.496  34.435   8.738
 2209POPC   C2B29636  22.673  34.508   8.335
 2209POPC   C3B29637  22.515  34.462   7.935
 2209POPC   C4B29638  22.609  34.537   7.509
 2210POPC   NC329639  38.938  38.624   9.408
 2210POPC   PO429640  39.576  38.550   9.507
 2210POPC   GL129641  39.322  38.391   9.123
 2210POPC   GL229642  39.001  38.191   9.119
 2210POPC   C1A29643  39.087  38.582   8.760
 2210POPC   D2A29644  38.980  38.687   8.320
 2210POPC   C3A29645  39.324  38.623   8.008
 2210POPC   C4A29646  39.382  38.814   7.620
 2210POPC   C1B29647  39.088  38.092   8.705
 2210POPC   C2B29648  39.312  38.270   8.371
 2210POPC   C3B29649  39.392  38.128   7.958
 2210POPC   C4B29650  39.376  38.263   7.547
 2211POPC   NC329651   7.232   7.754   9.523
 2211POPC   PO429652   7.662   7.195   9.486
 2211POPC   GL129653   7.421   7.252   9.142
 2211POPC   GL229654   7.280   7.567   9.065
 2211POPC   C1A29655   7.277   7.170   8.753
 2211POPC   D2A29656   7.205   7.416   8.421
 2211POPC   C3A29657   7.259   7.208   8.025
 2211POPC   C4A29658   7.259   7.443   7.627
 2211POPC   C1B29659   7.493   7.814   8.771
 2211POPC   C2B29660   7.722   7.720   8.403
 2211POPC   C3B29661   7.454   7.685   8.041
 2211POPC   C4B29662   7.306   7.955   7.706
 2212POPC   NC329663  20.537  26.211   9.619
 2212POPC   PO429664  21.087  25.878   9.442
 2212POPC   GL129665  20.839  26.125   9.163
 2212POPC   GL229666  20.471  26.064   9.145
 2212POPC   C1A29667  20.764  26.278   8.748
 2212POPC   D2A29668  20.901  26.086   8.359
 2212POPC   C3A29669  20.783  26.295   7.986
 2212POPC   C4A29670  20.822  26.260   7.548
 2212POPC   C1B29671  20.348  26.007   8.756
 2212POPC   C2B29672  20.383  26.215   8.389
 2212POPC   C3B29673  20.349  26.063   7.996
 2212POPC   C4B29674  20.183  26.291   7.704
 2213POPC   NC329675  24.151  24.228   9.300
 2213POPC   PO429676  24.708  24.548   9.468
 2213POPC   GL129677  24.571  24.538   9.082
 2213POPC   GL229678  24.824  24.305   9.027
 2213POPC   C1A29679  24.297  24.564   8.731
 2213POPC   D2A29680  24.511  24.465   8.358
 2213POPC   C3A29681  24.238  24.657   8.068
 2213POPC   C4A29682  24.176  24.707   7.625
 2213POPC   C1B29683  24.933  24.148   8.643
 2213POPC   C2B29684  24.804  24.051   8.237
 2213POPC   C3B29685  24.946  24.258   7.932
 2213POPC   C4B29686  24.633  24.509   7.777
 2214POPC   NC329687  11.024  43.740   9.597
 2214POPC   PO429688  11.638  43.885   9.502
 2214POPC   GL129689  11.475  43.767   9.133
 2214POPC   GL229690  11.130  43.744   9.103
 2214POPC   C1A29691  11.567  43.518   8.794
 2214POPC   D2A29692  11.454  43.689   8.451
 2214POPC   C3A29693  11.566  43.578   8.085
 2214POPC   C4A29694  11.380  43.772   7.768
 2214POPC   C1B29695  11.024  43.850   8.687
 2214POPC   C2B29696  10.966  43.698   8.270
 2214POPC   C3B29697  10.916  43.921   7.889
 2214POPC   C4B29698  10.672  43.893   7.506
 2215POPC   NC329699  24.610  29.276   9.452
 2215POPC   PO429700  24.307  28.753   9.675
 2215POPC   GL129701  24.499  28.858   9.193
 2215POPC   GL229702  24.836  28.865   9.208
 2215POPC   C1A29703  24.510  29.127   8.806
 2215POPC   D2A29704  24.443  29.215   8.349
 2215POPC   C3A29705  24.195  29.074   8.000
 2215POPC   C4A29706  24.456  29.090   7.683
 2215POPC   C1B29707  24.860  28.677   8.833
 2215POPC   C2B29708  24.777  28.840   8.449
 2215POPC   C3B29709  24.582  28.764   8.097
 2215POPC   C4B29710  24.647  28.567   7.719
 2216POPC   NC329711  17.626  38.642   9.595
 2216POPC   PO429712  16.952  38.680   9.450
 2216POPC   GL129713  17.328  38.464   9.144
 2216POPC   GL229714  17.702  38.521   9.127
 2216POPC   C1A29715  17.533  38.434   8.678
 2216POPC   D2A29716  17.752  38.294   8.316
 2216POPC   C3A29717  17.494  38.442   7.981
 2216POPC   C4A29718  17.296  38.515   7.532
 2216POPC   C1B29719  17.704  38.881   8.871
 2216POPC   C2B29720  17.840  38.815   8.446
 2216POPC   C3B29721  17.860  38.814   8.010
 2216POPC   C4B29722  17.842  38.529   7.621
 2217POPC   NC329723  32.639  16.866   9.498
 2217POPC   PO429724  33.324  16.999   9.531
 2217POPC   GL129725  33.026  16.840   9.158
 2217POPC   GL229726  32.691  16.592   9.074
 2217POPC   C1A29727  33.102  16.635   8.774
 2217POPC   D2A29728  33.221  16.447   8.386
 2217POPC   C3A29729  33.098  16.577   7.976
 2217POPC   C4A29730  33.375  16.648   7.635
 2217POPC   C1B29731  32.655  16.938   8.759
 2217POPC   C2B29732  32.744  17.075   8.328
 2217POPC   C3B29733  32.625  16.794   7.985
 2217POPC   C4B29734  32.505  16.794   7.557
 2218POPC   NC329735  10.756   5.007   9.448
 2218POPC   PO429736  11.330   4.690   9.577
 2218POPC   GL129737  11.231   5.014   9.242
 2218POPC   GL229738  11.529   5.180   9.159
 2218POPC   C1A29739  11.102   5.233   8.832
 2218POPC   D2A29740  11.311   5.246   8.418
 2218POPC   C3A29741  11.133   5.142   8.012
 2218POPC   C4A29742  11.194   4.974   7.596
 2218POPC   C1B29743  11.475   4.878   8.811
 2218POPC   C2B29744  11.574   4.799   8.407
 2218POPC   C3B29745  11.608   4.987   8.020
 2218POPC   C4B29746  11.650   4.770   7.691
 2219POPC   NC329747  24.553   7.283   9.666
 2219POPC   PO429748  24.101   7.654   9.389
 2219POPC   GL129749  24.327   7.393   9.143
 2219POPC   GL229750  24.683   7.253   9.162
 2219POPC   C1A29751  24.316   7.488   8.722
 2219POPC   D2A29752  24.721   7.531   8.501
 2219POPC   C3A29753  24.675   7.587   8.059
 2219POPC   C4A29754  24.257   7.648   7.866
 2219POPC   C1B29755  24.599   7.074   8.743
 2219POPC   C2B29756  24.395   7.160   8.321
 2219POPC   C3B29757  24.448   7.162   7.852
 2219POPC   C4B29758  24.540   7.024   7.404
 2220POPC   NC329759  28.097  10.971   9.441
 2220POPC   PO429760  28.665  11.420   9.560
 2220POPC   GL129761  28.519  11.179   9.218
 2220POPC   GL229762  28.227  11.403   9.213
 2220POPC   C1A29763  28.297  11.033   8.829
 2220POPC   D2A29764  28.111  11.036   8.434
 2220POPC   C3A29765  28.324  11.133   8.055
 2220POPC   C4A29766  28.292  10.909   7.657
 2220POPC   C1B29767  28.425  11.529   8.834
 2220POPC   C2B29768  28.295  11.550   8.402
 2220POPC   C3B29769  28.434  11.644   7.975
 2220POPC   C4B29770  28.325  11.419   7.620
 2221POPC   NC329771  31.376  17.871   9.429
 2221POPC   PO429772  31.430  18.544   9.636
 2221POPC   GL129773  31.467  18.498   9.145
 2221POPC   GL229774  31.709  18.273   9.016
 2221POPC   C1A29775  31.200  18.486   8.748
 2221POPC   D2A29776  31.084  18.251   8.365
 2221POPC   C3A29777  31.376  18.388   8.061
 2221POPC   C4A29778  31.355  18.584   7.692
 2221POPC   C1B29779  31.629  18.303   8.541
 2221POPC   C2B29780  31.623  17.980   8.221
 2221POPC   C3B29781  31.923  17.879   7.865
 2221POPC   C4B29782  31.876  17.981   7.376
 2222POPC   NC329783  25.745  38.095   9.597
 2222POPC   PO429784  26.107  38.769   9.690
 2222POPC   GL129785  26.221  38.633   9.258
 2222POPC   GL229786  26.181  38.265   9.298
 2222POPC   C1A29787  26.115  38.495   8.838
 2222POPC   D2A29788  25.974  38.348   8.463
 2222POPC   C3A29789  25.733  38.479   8.121
 2222POPC   C4A29790  25.934  38.418   7.725
 2222POPC   C1B29791  26.369  38.035   8.929
 2222POPC   C2B29792  26.429  38.045   8.467
 2222POPC   C3B29793  26.240  38.170   8.072
 2222POPC   C4B29794  26.233  38.002   7.676
 2223POPC   NC329795   0.933  14.967   9.449
 2223POPC   PO429796   1.298  15.433   9.678
 2223POPC   GL129797   1.264  15.297   9.238
 2223POPC   GL229798   1.554  15.420   9.093
 2223POPC   C1A29799   1.004  15.285   8.847
 2223POPC   D2A29800   1.114  15.196   8.415
 2223POPC   C3A29801   0.826  15.022   8.115
 2223POPC   C4A29802   0.877  15.051   7.656
 2223POPC   C1B29803   1.500  15.098   8.780
 2223POPC   C2B29804   1.603  15.084   8.340
 2223POPC   C3B29805   1.387  15.148   7.939
 2223POPC   C4B29806   1.453  15.529   7.701
 2224POPC   NC329807   1.806  19.104   9.517
 2224POPC   PO429808   1.776  19.613   9.194
 2224POPC   GL129809   2.037  19.248   9.070
 2224POPC   GL229810   2.101  18.860   9.163
 2224POPC   C1A29811   1.935  19.105   8.693
 2224POPC   D2A29812   2.107  19.238   8.350
 2224POPC   C3A29813   1.927  19.399   8.031
 2224POPC   C4A29814   1.669  19.130   7.768
 2224POPC   C1B29815   2.115  18.629   8.783
 2224POPC   C2B29816   2.061  18.724   8.352
 2224POPC   C3B29817   2.114  18.935   7.944
 2224POPC   C4B29818   2.399  18.886   7.638
 2225POPC   NC329819   3.051  17.247   9.273
 2225POPC   PO429820   2.430  17.392   9.647
 2225POPC   GL129821   2.658  17.492   9.108
 2225POPC   GL229822   2.764  17.150   8.875
 2225POPC   C1A29823   2.460  17.645   8.745
 2225POPC   D2A29824   2.248  17.742   8.360
 2225POPC   C3A29825   2.313  17.386   8.185
 2225POPC   C4A29826   2.549  17.284   7.865
 2225POPC   C1B29827   2.752  17.318   8.481
 2225POPC   C2B29828   3.055  17.551   8.316
 2225POPC   C3B29829   3.219  17.567   7.913
 2225POPC   C4B29830   2.985  17.383   7.597
 2226POPC   NC329831  24.740  13.205   9.502
 2226POPC   PO429832  24.118  12.847   9.315
 2226POPC   GL129833  24.285  12.847   8.936
 2226POPC   GL229834  24.575  12.994   9.056
 2226POPC   C1A29835  24.539  12.586   8.648
 2226POPC   D2A29836  24.767  12.521   8.241
 2226POPC   C3A29837  24.511  12.619   7.946
 2226POPC   C4A29838  24.180  12.950   7.917
 2226POPC   C1B29839  24.720  13.128   8.658
 2226POPC   C2B29840  24.858  13.031   8.240
 2226POPC   C3B29841  24.728  13.035   7.799
 2226POPC   C4B29842  24.850  13.211   7.419
 2227POPC   NC329843  15.289  29.703   9.287
 2227POPC   PO429844  15.379  29.047   9.618
 2227POPC   GL129845  15.241  29.190   9.210
 2227POPC   GL229846  14.895  29.292   9.098
 2227POPC   C1A29847  15.285  29.058   8.802
 2227POPC   D2A29848  15.490  29.196   8.457
 2227POPC   C3A29849  15.319  29.058   8.088
 2227POPC   C4A29850  15.395  29.247   7.722
 2227POPC   C1B29851  14.993  29.520   8.684
 2227POPC   C2B29852  14.978  29.435   8.221
 2227POPC   C3B29853  14.904  29.260   7.805
 2227POPC   C4B29854  15.055  29.190   7.349
 2228POPC   NC329855   3.097  36.619   9.552
 2228POPC   PO429856   2.422  36.630   9.582
 2228POPC   GL129857   2.664  36.826   9.291
 2228POPC   GL229858   2.784  36.543   9.167
 2228POPC   C1A29859   2.648  36.957   8.870
 2228POPC   D2A29860   2.438  37.098   8.526
 2228POPC   C3A29861   2.612  37.023   8.133
 2228POPC   C4A29862   2.729  36.971   7.735
 2228POPC   C1B29863   2.990  36.599   8.792
 2228POPC   C2B29864   2.827  36.655   8.419
 2228POPC   C3B29865   2.849  36.497   8.027
 2228POPC   C4B29866   3.070  36.579   7.647
 2229POPC   NC329867  10.031  40.759   9.793
 2229POPC   PO429868   9.625  41.080   9.373
 2229POPC   GL129869   9.696  41.049   8.962
 2229POPC   GL229870   9.770  40.692   8.998
 2229POPC   C1A29871   9.564  40.923   8.561
 2229POPC   D2A29872   9.582  40.499   8.391
 2229POPC   C3A29873   9.367  40.513   7.986
 2229POPC   C4A29874   9.430  40.876   7.725
 2229POPC   C1B29875  10.056  40.805   8.640
 2229POPC   C2B29876   9.911  40.876   8.205
 2229POPC   C3B29877   9.871  40.601   7.920
 2229POPC   C4B29878  10.228  40.441   7.753
 2230POPC   NC329879  39.656   7.752   9.327
 2230POPC   PO429880  40.033   7.219   9.672
 2230POPC   GL129881  40.034   7.123   9.274
 2230POPC   GL229882  40.083   7.458   9.210
 2230POPC   C1A29883  39.936   7.100   8.867
 2230POPC   D2A29884  39.943   7.336   8.488
 2230POPC   C3A29885  40.112   7.195   8.127
 2230POPC   C4A29886  39.953   7.332   7.752
 2230POPC   C1B29887  40.390   7.419   8.888
 2230POPC   C2B29888  40.427   7.455   8.440
 2230POPC   C3B29889  40.555   7.505   8.013
 2230POPC   C4B29890  40.414   7.462   7.595
 2231POPC   NC329891  35.066  17.575   9.538
 2231POPC   PO429892  35.647  17.211   9.502
 2231POPC   GL129893  35.404  17.437   9.175
 2231POPC   GL229894  35.623  17.664   8.975
 2231POPC   C1A29895  35.155  17.495   8.844
 2231POPC   D2A29896  35.193  17.377   8.435
 2231POPC   C3A29897  35.174  17.703   8.152
 2231POPC   C4A29898  35.181  17.711   7.725
 2231POPC   C1B29899  35.707  17.316   8.770
 2231POPC   C2B29900  35.648  17.154   8.368
 2231POPC   C3B29901  35.527  17.356   8.020
 2231POPC   C4B29902  35.716  17.432   7.670
 2232POPC   NC329903  10.819  19.705   9.486
 2232POPC   PO429904  10.624  20.284   9.314
 2232POPC   GL129905  10.537  19.850   9.092
 2232POPC   GL229906  10.227  19.661   9.217
 2232POPC   C1A29907  10.479  19.705   8.658
 2232POPC   D2A29908  10.388  20.056   8.385
 2232POPC   C3A29909  10.660  20.003   8.028
 2232POPC   C4A29910  10.703  19.649   7.751
 2232POPC   C1B29911  10.065  19.896   8.848
 2232POPC   C2B29912   9.978  19.728   8.454
 2232POPC   C3B29913  10.275  19.628   8.114
 2232POPC   C4B29914  10.235  19.879   7.733
 2233POPC   NC329915  43.382  39.716   9.565
 2233POPC   PO429916  43.151  39.057   9.613
 2233POPC   GL129917  43.221  39.287   9.240
 2233POPC   GL229918  42.952  39.501   9.169
 2233POPC   C1A29919  43.111  39.226   8.783
 2233POPC   D2A29920  43.038  39.018   8.394
 2233POPC   C3A29921  43.008  39.230   8.001
 2233POPC   C4A29922  43.236  39.295   7.647
 2233POPC   C1B29923  42.692  39.570   8.793
 2233POPC   C2B29924  42.812  39.533   8.373
 2233POPC   C3B29925  42.608  39.518   7.956
 2233POPC   C4B29926  42.744  39.383   7.520
 2234POPC   NC329927  18.967  21.927   9.284
 2234POPC   PO429928  19.162  22.433   9.685
 2234POPC   GL129929  19.028  22.448   9.182
 2234POPC   GL229930  19.294  22.494   8.999
 2234POPC   C1A29931  18.914  22.279   8.733
 2234POPC   D2A29932  19.103  22.051   8.375
 2234POPC   C3A29933  18.945  22.118   7.957
 2234POPC   C4A29934  19.126  22.470   7.715
 2234POPC   C1B29935  19.521  22.270   8.690
 2234POPC   C2B29936  19.646  22.062   8.365
 2234POPC   C3B29937  19.465  22.146   8.029
 2234POPC   C4B29938  19.546  22.140   7.642
 2235POPC   NC329939  18.968  27.665   9.782
 2235POPC   PO429940  18.885  27.132   9.432
 2235POPC   GL129941  18.920  27.370   9.070
 2235POPC   GL229942  19.267  27.471   9.081
 2235POPC   C1A29943  18.946  27.621   8.698
 2235POPC   D2A29944  19.065  27.575   8.321
 2235POPC   C3A29945  18.856  27.817   8.044
 2235POPC   C4A29946  18.955  27.675   7.667
 2235POPC   C1B29947  19.422  27.772   8.736
 2235POPC   C2B29948  19.435  27.935   8.313
 2235POPC   C3B29949  19.387  27.744   7.924
 2235POPC   C4B29950  19.416  27.872   7.502
 2236POPC   NC329951   2.401   6.310   9.465
 2236POPC   PO429952   2.813   6.898   9.565
 2236POPC   GL129953   2.691   6.901   9.142
 2236POPC   GL229954   2.737   6.555   9.129
 2236POPC   C1A29955   2.555   6.790   8.722
 2236POPC   D2A29956   2.607   6.902   8.314
 2236POPC   C3A29957   2.633   6.601   7.986
 2236POPC   C4A29958   2.753   6.749   7.555
 2236POPC   C1B29959   2.808   6.319   8.769
 2236POPC   C2B29960   3.024   6.354   8.377
 2236POPC   C3B29961   3.209   6.201   8.009
 2236POPC   C4B29962   3.051   6.300   7.630
 2237POPC   NC329963  38.765   2.673   9.429
 2237POPC   PO429964  38.122   2.820   9.427
 2237POPC   GL129965  38.316   2.662   9.050
 2237POPC   GL229966  38.671   2.574   8.953
 2237POPC   C1A29967  38.289   2.480   8.642
 2237POPC   D2A29968  38.076   2.282   8.309
 2237POPC   C3A29969  38.185   2.528   7.944
 2237POPC   C4A29970  38.461   2.894   7.917
 2237POPC   C1B29971  38.668   2.934   8.740
 2237POPC   C2B29972  38.790   2.891   8.324
 2237POPC   C3B29973  38.950   2.591   8.124
 2237POPC   C4B29974  38.773   2.446   7.792
 2238POPC   NC329975  22.718  16.979   9.469
 2238POPC   PO429976  23.305  16.617   9.494
 2238POPC   GL129977  23.014  16.655   9.159
 2238POPC   GL229978  23.016  17.032   9.070
 2238POPC   C1A29979  23.082  16.651   8.716
 2238POPC   D2A29980  22.881  16.776   8.314
 2238POPC   C3A29981  22.912  16.572   7.904
 2238POPC   C4A29982  23.311  16.581   7.649
 2238POPC   C1B29983  22.670  16.990   8.754
 2238POPC   C2B29984  22.428  16.979   8.347
 2238POPC   C3B29985  22.515  16.959   7.874
 2238POPC   C4B29986  22.541  17.217   7.476
 2239POPC   NC329987  17.550   9.764   9.458
 2239POPC   PO429988  17.455   9.132   9.178
 2239POPC   GL129989  17.431   9.544   9.003
 2239POPC   GL229990  17.193   9.827   9.100
 2239POPC   C1A29991  17.782   9.663   8.741
 2239POPC   D2A29992  17.868   9.756   8.295
 2239POPC   C3A29993  17.574   9.513   8.059
 2239POPC   C4A29994  17.280   9.547   7.697
 2239POPC   C1B29995  17.407  10.032   8.744
 2239POPC   C2B29996  17.423  10.044   8.286
 2239POPC   C3B29997  17.560   9.985   7.852
 2239POPC   C4B29998  17.298  10.010   7.468
 2240POPC   NC329999  22.561  13.688   9.458
 2240POPC   PO430000  23.189  13.443   9.504
 2240POPC   GL130001  22.979  13.610   9.170
 2240POPC   GL230002  22.713  13.862   9.013
 2240POPC   C1A30003  23.134  13.686   8.817
 2240POPC   D2A30004  22.957  13.942   8.527
 2240POPC   C3A30005  23.042  13.771   8.141
 2240POPC   C4A30006  22.899  13.857   7.775
 2240POPC   C1B30007  22.667  13.493   8.767
 2240POPC   C2B30008  22.580  13.297   8.376
 2240POPC   C3B30009  22.690  13.404   7.941
 2240POPC   C4B30010  22.666  13.533   7.479
 2241POPC   NC330011  40.399  13.198   9.556
 2241POPC   PO430012  40.818  12.747   9.592
 2241POPC   GL130013  40.692  12.716   9.192
 2241POPC   GL230014  41.013  12.631   9.097
 2241POPC   C1A30015  40.646  12.928   8.797
 2241POPC   D2A30016  40.908  13.128   8.479
 2241POPC   C3A30017  40.793  13.040   8.042
 2241POPC   C4A30018  40.508  12.876   7.730
 2241POPC   C1B30019  40.943  12.525   8.715
 2241POPC   C2B30020  40.764  12.647   8.357
 2241POPC   C3B30021  40.740  12.504   7.964
 2241POPC   C4B30022  40.944  12.339   7.620
 2242POPC   NC330023  41.824  32.395   9.501
 2242POPC   PO430024  41.208  32.092   9.537
 2242POPC   GL130025  41.400  32.251   9.171
 2242POPC   GL230026  41.749  32.234   9.036
 2242POPC   C1A30027  41.332  32.399   8.746
 2242POPC   D2A30028  41.497  32.454   8.343
 2242POPC   C3A30029  41.221  32.422   8.005
 2242POPC   C4A30030  41.357  32.092   7.782
 2242POPC   C1B30031  41.983  32.424   8.684
 2242POPC   C2B30032  42.036  32.297   8.261
 2242POPC   C3B30033  41.835  32.412   7.873
 2242POPC   C4B30034  41.880  32.793   7.604
 2243POPC   NC330035  14.311  11.763   9.622
 2243POPC   PO430036  13.946  12.299   9.446
 2243POPC   GL130037  14.279  12.136   9.125
 2243POPC   GL230038  14.347  11.822   9.129
 2243POPC   C1A30039  14.513  12.166   8.734
 2243POPC   D2A30040  14.349  12.320   8.341
 2243POPC   C3A30041  14.353  12.091   7.958
 2243POPC   C4A30042  14.635  12.088   7.625
 2243POPC   C1B30043  14.597  11.662   8.801
 2243POPC   C2B30044  14.663  11.815   8.375
 2243POPC   C3B30045  14.692  11.694   7.960
 2243POPC   C4B30046  14.346  11.649   7.691
 2244POPC   NC330047  42.419   8.952   9.509
 2244POPC   PO430048  41.932   8.535   9.309
 2244POPC   GL130049  42.301   8.679   9.095
 2244POPC   GL230050  42.357   9.024   8.996
 2244POPC   C1A30051  42.564   8.615   8.765
 2244POPC   D2A30052  42.439   8.896   8.465
 2244POPC   C3A30053  42.451   8.645   8.124
 2244POPC   C4A30054  42.175   8.705   7.810
 2244POPC   C1B30055  42.454   9.342   8.693
 2244POPC   C2B30056  42.400   9.432   8.295
 2244POPC   C3B30057  42.490   9.148   8.002
 2244POPC   C4B30058  42.486   9.181   7.594
 2245POPC   NC330059   9.161  32.436   9.458
 2245POPC   PO430060   8.749  31.898   9.449
 2245POPC   GL130061   8.833  32.167   9.098
 2245POPC   GL230062   9.205  32.155   9.017
 2245POPC   C1A30063   8.851  32.185   8.641
 2245POPC   D2A30064   9.159  32.065   8.346
 2245POPC   C3A30065   9.089  32.075   7.891
 2245POPC   C4A30066   8.727  32.090   7.584
 2245POPC   C1B30067   9.280  32.527   8.737
 2245POPC   C2B30068   9.425  32.786   8.372
 2245POPC   C3B30069   9.329  32.530   7.981
 2245POPC   C4B30070   8.874  32.528   7.828
 2246POPC   NC330071  19.989   9.257   9.458
 2246POPC   PO430072  19.414   8.896   9.513
 2246POPC   GL130073  19.664   8.960   9.166
 2246POPC   GL230074  19.974   8.795   9.195
 2246POPC   C1A30075  19.847   9.172   8.796
 2246POPC   D2A30076  19.997   9.235   8.359
 2246POPC   C3A30077  19.659   9.332   8.058
 2246POPC   C4A30078  19.621   9.121   7.652
 2246POPC   C1B30079  20.231   8.804   8.815
 2246POPC   C2B30080  20.218   8.756   8.364
 2246POPC   C3B30081  19.904   8.822   8.021
 2246POPC   C4B30082  20.054   8.798   7.595
 2247POPC   NC330083   1.021  14.236   9.505
 2247POPC   PO430084   1.377  14.767   9.392
 2247POPC   GL130085   1.021  14.594   9.098
 2247POPC   GL230086   0.769  14.258   9.091
 2247POPC   C1A30087   1.108  14.742   8.674
 2247POPC   D2A30088   1.250  14.716   8.211
 2247POPC   C3A30089   0.992  14.582   7.859
 2247POPC   C4A30090   0.913  14.379   7.418
 2247POPC   C1B30091   1.019  14.200   8.759
 2247POPC   C2B30092   1.051  13.994   8.389
 2247POPC   C3B30093   1.110  14.123   8.008
 2247POPC   C4B30094   1.148  13.959   7.622
 2248POPC   NC330095  26.537   6.953   9.292
 2248POPC   PO430096  26.860   6.637   9.865
 2248POPC   GL130097  26.873   6.529   9.344
 2248POPC   GL230098  26.646   6.321   9.140
 2248POPC   C1A30099  26.998   6.490   8.824
 2248POPC   D2A30100  26.993   6.352   8.366
 2248POPC   C3A30101  27.091   6.628   8.002
 2248POPC   C4A30102  26.982   6.498   7.589
 2248POPC   C1B30103  26.478   6.463   8.715
 2248POPC   C2B30104  26.456   6.682   8.284
 2248POPC   C3B30105  26.579   6.670   7.835
 2248POPC   C4B30106  26.667   6.849   7.363
 2249POPC   NC330107  23.996  14.625   9.542
 2249POPC   PO430108  23.591  14.200   9.472
 2249POPC   GL130109  23.718  14.435   9.097
 2249POPC   GL230110  23.877  14.781   9.082
 2249POPC   C1A30111  23.754  14.370   8.659
 2249POPC   D2A30112  23.856  14.081   8.405
 2249POPC   C3A30113  23.947  14.256   8.047
 2249POPC   C4A30114  23.739  14.280   7.676
 2249POPC   C1B30115  23.617  14.834   8.731
 2249POPC   C2B30116  23.562  14.697   8.278
 2249POPC   C3B30117  23.534  14.836   7.824
 2249POPC   C4B30118  23.835  14.757   7.480
 2250POPC   NC330119   7.723  44.244   9.355
 2250POPC   PO430120   7.516  43.613   9.406
 2250POPC   GL130121   7.412  43.914   9.091
 2250POPC   GL230122   7.299  43.650   8.851
 2250POPC   C1A30123   7.498  44.132   8.722
 2250POPC   D2A30124   7.338  43.938   8.366
 2250POPC   C3A30125   7.351  44.124   7.952
 2250POPC   C4A30126   7.352  43.755   7.707
 2250POPC   C1B30127   7.753  43.678   8.795
 2250POPC   C2B30128   7.940  43.786   8.434
 2250POPC   C3B30129   7.745  43.811   8.054
 2250POPC   C4B30130   7.913  43.832   7.679
 2251POPC   NC330131  35.687  12.268   9.678
 2251POPC   PO430132  35.209  11.789   9.529
 2251POPC   GL130133  35.149  11.867   9.142
 2251POPC   GL230134  34.930  12.175   9.200
 2251POPC   C1A30135  35.378  11.865   8.741
 2251POPC   D2A30136  35.500  12.219   8.479
 2251POPC   C3A30137  35.408  12.156   8.058
 2251POPC   C4A30138  35.486  11.802   7.800
 2251POPC   C1B30139  35.072  12.262   8.804
 2251POPC   C2B30140  34.980  12.172   8.384
 2251POPC   C3B30141  34.892  12.282   7.963
 2251POPC   C4B30142  35.130  12.159   7.622
 2252POPC   NC330143   3.355  31.659   9.454
 2252POPC   PO430144   3.883  31.210   9.493
 2252POPC   GL130145   3.598  31.328   9.154
 2252POPC   GL230146   3.635  31.698   9.032
 2252POPC   C1A30147   3.619  31.298   8.723
 2252POPC   D2A30148   3.510  31.467   8.325
 2252POPC   C3A30149   3.588  31.265   7.924
 2252POPC   C4A30150   3.609  31.387   7.500
 2252POPC   C1B30151   3.305  31.758   8.726
 2252POPC   C2B30152   3.120  31.839   8.335
 2252POPC   C3B30153   3.195  31.929   7.911
 2252POPC   C4B30154   3.394  31.910   7.483
 2253POPC   NC330155  42.574  19.728   9.514
 2253POPC   PO430156  42.130  20.150   9.548
 2253POPC   GL130157  42.195  20.127   9.095
 2253POPC   GL230158  41.901  20.293   8.952
 2253POPC   C1A30159  42.418  19.897   8.753
 2253POPC   D2A30160  42.300  19.710   8.330
 2253POPC   C3A30161  42.416  19.903   7.926
 2253POPC   C4A30162  42.763  19.705   7.727
 2253POPC   C1B30163  41.954  20.019   8.606
 2253POPC   C2B30164  41.957  20.060   8.182
 2253POPC   C3B30165  41.965  20.140   7.778
 2253POPC   C4B30166  42.171  20.056   7.413
 2254POPC   NC330167  25.966  23.798   9.435
 2254POPC   PO430168  25.602  23.297   9.272
 2254POPC   GL130169  25.855  23.568   8.985
 2254POPC   GL230170  26.218  23.713   8.999
 2254POPC   C1A30171  25.881  23.775   8.605
 2254POPC   D2A30172  25.788  23.841   8.205
 2254POPC   C3A30173  25.779  23.473   7.981
 2254POPC   C4A30174  25.942  23.387   7.586
 2254POPC   C1B30175  26.324  24.020   8.669
 2254POPC   C2B30176  26.256  24.021   8.246
 2254POPC   C3B30177  26.173  23.795   7.868
 2254POPC   C4B30178  26.292  23.726   7.449
 2255POPC   NC330179  21.979  25.303   9.379
 2255POPC   PO430180  22.196  24.685   9.479
 2255POPC   GL130181  22.288  24.986   9.077
 2255POPC   GL230182  22.334  25.369   9.025
 2255POPC   C1A30183  22.385  25.106   8.621
 2255POPC   D2A30184  22.071  25.212   8.312
 2255POPC   C3A30185  22.161  25.141   7.871
 2255POPC   C4A30186  22.016  25.029   7.427
 2255POPC   C1B30187  22.159  25.613   8.655
 2255POPC   C2B30188  21.978  25.708   8.244
 2255POPC   C3B30189  22.219  25.666   7.883
 2255POPC   C4B30190  22.104  25.513   7.503
 2256POPC   NC330191  31.515  40.275   9.457
 2256POPC   PO430192  31.474  39.587   9.492
 2256POPC   GL130193  31.447  39.738   9.048
 2256POPC   GL230194  31.351  40.030   9.015
 2256POPC   C1A30195  31.454  39.797   8.577
 2256POPC   D2A30196  31.248  39.686   8.176
 2256POPC   C3A30197  31.500  39.758   7.792
 2256POPC   C4A30198  31.592  39.685   7.337
 2256POPC   C1B30199  31.678  40.248   8.737
 2256POPC   C2B30200  31.681  40.160   8.287
 2256POPC   C3B30201  31.341  40.178   8.012
 2256POPC   C4B30202  31.348  40.192   7.570
 2257POPC   NC330203  22.940  40.449   9.486
 2257POPC   PO430204  23.015  41.101   9.600
 2257POPC   GL130205  23.114  41.010   9.204
 2257POPC   GL230206  22.835  40.802   9.141
 2257POPC   C1A30207  23.221  40.910   8.793
 2257POPC   D2A30208  22.987  40.996   8.427
 2257POPC   C3A30209  23.083  40.830   8.064
 2257POPC   C4A30210  22.969  40.974   7.683
 2257POPC   C1B30211  22.637  40.868   8.765
 2257POPC   C2B30212  22.551  40.699   8.360
 2257POPC   C3B30213  22.552  40.860   7.982
 2257POPC   C4B30214  22.564  40.661   7.629
 2258POPC   NC330215  42.848  30.614   9.602
 2258POPC   PO430216  43.460  30.980   9.455
 2258POPC   GL130217  43.318  30.664   9.128
 2258POPC   GL230218  42.943  30.580   9.106
 2258POPC   C1A30219  43.196  30.682   8.693
 2258POPC   D2A30220  43.125  30.532   8.316
 2258POPC   C3A30221  43.350  30.740   8.010
 2258POPC   C4A30222  43.439  30.424   7.758
 2258POPC   C1B30223  42.788  30.376   8.710
 2258POPC   C2B30224  42.596  30.523   8.301
 2258POPC   C3B30225  42.821  30.702   7.961
 2258POPC   C4B30226  42.941  30.329   7.803
 2259POPC   NC330227   0.164  43.257   9.323
 2259POPC   PO430228  44.551  43.075   9.627
 2259POPC   GL130229  44.642  42.892   9.191
 2259POPC   GL230230   0.013  42.805   9.075
 2259POPC   C1A30231  44.628  42.704   8.757
 2259POPC   D2A30232  44.947  42.771   8.402
 2259POPC   C3A30233  44.722  42.886   8.014
 2259POPC   C4A30234  44.376  43.199   7.929
 2259POPC   C1B30235  44.855  43.158   8.777
 2259POPC   C2B30236  44.927  43.393   8.411
 2259POPC   C3B30237  45.000  43.563   8.015
 2259POPC   C4B30238  44.823  43.333   7.718
 2260POPC   NC330239  10.507  34.862   9.330
 2260POPC   PO430240  10.207  34.323   9.369
 2260POPC   GL130241  10.388  34.456   9.017
 2260POPC   GL230242  10.737  34.476   8.986
 2260POPC   C1A30243  10.431  34.583   8.608
 2260POPC   D2A30244  10.415  34.826   8.264
 2260POPC   C3A30245  10.593  34.576   7.926
 2260POPC   C4A30246  10.810  34.170   7.883
 2260POPC   C1B30247  10.833  34.854   8.753
 2260POPC   C2B30248  10.905  34.784   8.331
 2260POPC   C3B30249  10.801  35.069   8.006
 2260POPC   C4B30250  10.684  34.981   7.618
 2261POPC   NC330251  30.256  43.513   9.438
 2261POPC   PO430252  29.846  43.771   9.832
 2261POPC   GL130253  29.819  43.680   9.276
 2261POPC   GL230254  29.614  43.601   8.994
 2261POPC   C1A30255  30.048  43.741   8.803
 2261POPC   D2A30256  30.139  43.692   8.351
 2261POPC   C3A30257  30.211  43.980   8.027
 2261POPC   C4A30258  30.164  44.114   7.614
 2261POPC   C1B30259  29.575  43.936   8.702
 2261POPC   C2B30260  29.727  44.004   8.290
 2261POPC   C3B30261  29.735  43.945   7.875
 2261POPC   C4B30262  29.736  43.574   7.620
 2262POPC   NC330263  25.659  35.706   9.322
 2262POPC   PO430264  26.036  36.221   9.331
 2262POPC   GL130265  26.015  35.955   9.009
 2262POPC   GL230266  26.325  35.783   9.058
 2262POPC   C1A30267  26.040  36.012   8.555
 2262POPC   D2A30268  25.809  36.256   8.268
 2262POPC   C3A30269  25.938  36.173   7.874
 2262POPC   C4A30270  26.294  35.932   7.888
 2262POPC   C1B30271  26.440  36.156   8.814
 2262POPC   C2B30272  26.515  36.175   8.394
 2262POPC   C3B30273  26.328  36.403   8.120
 2262POPC   C4B30274  26.395  36.414   7.708
 2263POPC   NC330275   5.284   4.172   9.549
 2263POPC   PO430276   4.947   4.818   9.563
 2263POPC   GL130277   5.075   4.512   9.195
 2263POPC   GL230278   4.941   4.166   9.190
 2263POPC   C1A30279   5.035   4.338   8.739
 2263POPC   D2A30280   4.959   4.505   8.338
 2263POPC   C3A30281   5.095   4.321   7.931
 2263POPC   C4A30282   5.045   4.397   7.506
 2263POPC   C1B30283   4.724   3.950   8.883
 2263POPC   C2B30284   4.640   4.088   8.468
 2263POPC   C3B30285   4.829   3.930   8.102
 2263POPC   C4B30286   4.689   4.007   7.671
 2264POPC   NC330287  13.793  15.783   9.523
 2264POPC   PO430288  13.270  16.214   9.552
 2264POPC   GL130289  13.401  15.915   9.140
 2264POPC   GL230290  13.731  15.736   9.025
 2264POPC   C1A30291  13.354  15.795   8.683
 2264POPC   D2A30292  13.390  15.973   8.241
 2264POPC   C3A30293  13.513  15.876   7.810
 2264POPC   C4A30294  13.397  15.773   7.363
 2264POPC   C1B30295  13.948  15.687   8.626
 2264POPC   C2B30296  13.901  15.794   8.180
 2264POPC   C3B30297  13.985  15.720   7.765
 2264POPC   C4B30298  13.912  15.784   7.306
 2265POPC   NC330299   1.073  21.550   9.535
 2265POPC   PO430300   1.207  20.948   9.539
 2265POPC   GL130301   1.112  21.206   9.141
 2265POPC   GL230302   0.814  21.420   9.102
 2265POPC   C1A30303   1.325  21.343   8.729
 2265POPC   D2A30304   1.576  21.396   8.339
 2265POPC   C3A30305   1.430  21.588   7.950
 2265POPC   C4A30306   1.361  21.764   7.528
 2265POPC   C1B30307   0.832  21.470   8.653
 2265POPC   C2B30308   1.055  21.426   8.277
 2265POPC   C3B30309   0.940  21.591   7.877
 2265POPC   C4B30310   0.708  21.272   7.756
 2266POPC   NC330311  17.491  12.441   9.442
 2266POPC   PO430312  17.151  11.904   9.513
 2266POPC   GL130313  17.422  12.046   9.148
 2266POPC   GL230314  17.564  11.813   8.942
 2266POPC   C1A30315  17.668  12.304   8.827
 2266POPC   D2A30316  17.700  12.110   8.443
 2266POPC   C3A30317  17.562  12.211   8.033
 2266POPC   C4A30318  17.740  11.925   7.752
 2266POPC   C1B30319  17.153  11.649   8.834
 2266POPC   C2B30320  16.944  11.801   8.459
 2266POPC   C3B30321  17.067  11.702   8.048
 2266POPC   C4B30322  17.213  11.962   7.730
 2267POPC   NC330323  11.603  16.523   9.465
 2267POPC   PO430324  11.169  17.147   9.532
 2267POPC   GL130325  11.195  16.722   9.201
 2267POPC   GL230326  11.501  16.727   9.009
 2267POPC   C1A30327  11.233  16.405   8.774
 2267POPC   D2A30328  11.467  16.442   8.380
 2267POPC   C3A30329  11.221  16.608   8.017
 2267POPC   C4A30330  11.326  16.672   7.586
 2267POPC   C1B30331  11.676  16.868   8.636
 2267POPC   C2B30332  11.367  16.982   8.341
 2267POPC   C3B30333  11.396  17.089   7.919
 2267POPC   C4B30334  11.732  16.937   7.676
 2268POPC   NC330335  22.322  38.251   9.593
 2268POPC   PO430336  22.115  38.858   9.482
 2268POPC   GL130337  22.286  38.615   9.163
 2268POPC   GL230338  21.980  38.415   9.134
 2268POPC   C1A30339  22.435  38.704   8.743
 2268POPC   D2A30340  22.243  38.655   8.345
 2268POPC   C3A30341  22.192  38.359   8.045
 2268POPC   C4A30342  22.102  38.510   7.633
 2268POPC   C1B30343  22.028  38.328   8.676
 2268POPC   C2B30344  21.731  38.299   8.310
 2268POPC   C3B30345  21.710  38.258   7.853
 2268POPC   C4B30346  21.868  38.106   7.443
 2269POPC   NC330347  16.468  22.464   9.556
 2269POPC   PO430348  17.060  22.187   9.520
 2269POPC   GL130349  16.898  22.078   9.105
 2269POPC   GL230350  16.549  22.000   9.127
 2269POPC   C1A30351  16.761  21.919   8.685
 2269POPC   D2A30352  16.604  22.133   8.343
 2269POPC   C3A30353  16.932  22.151   8.055
 2269POPC   C4A30354  16.858  21.860   7.727
 2269POPC   C1B30355  16.431  22.333   8.809
 2269POPC   C2B30356  16.299  22.551   8.409
 2269POPC   C3B30357  16.358  22.411   7.961
 2269POPC   C4B30358  16.699  22.339   7.647
 2270POPC   NC330359  32.115  41.742   9.398
 2270POPC   PO430360  32.525  41.186   9.484
 2270POPC   GL130361  32.408  41.449   9.065
 2270POPC   GL230362  32.050  41.515   8.949
 2270POPC   C1A30363  32.359  41.833   8.770
 2270POPC   D2A30364  32.053  41.750   8.476
 2270POPC   C3A30365  32.213  41.625   8.115
 2270POPC   C4A30366  32.374  41.623   7.728
 2270POPC   C1B30367  31.774  41.310   8.722
 2270POPC   C2B30368  31.909  41.151   8.336
 2270POPC   C3B30369  31.933  41.235   7.908
 2270POPC   C4B30370  32.040  41.314   7.492
 2271POPC   NC330371  20.424  36.745   9.421
 2271POPC   PO430372  19.661  36.868   9.487
 2271POPC   GL130373  19.785  36.968   9.133
 2271POPC   GL230374  20.116  37.124   9.190
 2271POPC   C1A30375  19.647  37.205   8.795
 2271POPC   D2A30376  19.659  36.998   8.390
 2271POPC   C3A30377  19.684  37.207   7.981
 2271POPC   C4A30378  19.674  36.895   7.660
 2271POPC   C1B30379  20.135  36.948   8.781
 2271POPC   C2B30380  20.249  37.042   8.405
 2271POPC   C3B30381  20.128  36.926   8.002
 2271POPC   C4B30382  20.185  36.892   7.579
 2272POPC   NC330383  27.784  29.725   9.472
 2272POPC   PO430384  27.211  30.093   9.393
 2272POPC   GL130385  27.423  29.908   9.071
 2272POPC   GL230386  27.717  30.099   9.098
 2272POPC   C1A30387  27.459  30.045   8.637
 2272POPC   D2A30388  27.336  29.805   8.292
 2272POPC   C3A30389  27.286  29.922   7.877
 2272POPC   C4A30390  27.557  29.704   7.581
 2272POPC   C1B30391  27.907  29.851   8.763
 2272POPC   C2B30392  27.993  29.867   8.307
 2272POPC   C3B30393  27.760  30.077   7.962
 2272POPC   C4B30394  27.752  30.195   7.493
 2273POPC   NC330395  21.288  40.493   9.836
 2273POPC   PO430396  21.221  41.104   9.526
 2273POPC   GL130397  21.329  40.784   9.219
 2273POPC   GL230398  21.604  40.567   9.333
 2273POPC   C1A30399  21.305  40.800   8.767
 2273POPC   D2A30400  21.603  40.836   8.435
 2273POPC   C3A30401  21.435  40.769   8.025
 2273POPC   C4A30402  21.323  40.808   7.586
 2273POPC   C1B30403  21.729  40.565   8.903
 2273POPC   C2B30404  21.558  40.321   8.558
 2273POPC   C3B30405  21.667  40.204   8.150
 2273POPC   C4B30406  21.677  40.399   7.767
 2274POPC   NC330407  11.456  24.960   9.839
 2274POPC   PO430408  12.031  25.191   9.492
 2274POPC   GL130409  12.105  25.267   9.110
 2274POPC   GL230410  11.817  25.095   9.007
 2274POPC   C1A30411  12.187  25.417   8.720
 2274POPC   D2A30412  12.313  25.167   8.407
 2274POPC   C3A30413  12.236  25.236   8.026
 2274POPC   C4A30414  12.232  25.258   7.626
 2274POPC   C1B30415  11.812  25.073   8.563
 2274POPC   C2B30416  11.841  25.425   8.296
 2274POPC   C3B30417  11.807  25.436   7.858
 2274POPC   C4B30418  11.784  25.036   7.601
 2275POPC   NC330419  20.286  15.338   9.616
 2275POPC   PO430420  19.628  15.155   9.643
 2275POPC   GL130421  19.929  15.131   9.277
 2275POPC   GL230422  20.107  15.465   9.166
 2275POPC   C1A30423  19.924  14.944   8.854
 2275POPC   D2A30424  19.716  15.096   8.469
 2275POPC   C3A30425  19.849  14.928   8.073
 2275POPC   C4A30426  19.824  15.119   7.684
 2275POPC   C1B30427  19.808  15.451   8.848
 2275POPC   C2B30428  19.834  15.606   8.462
 2275POPC   C3B30429  19.688  15.467   8.075
 2275POPC   C4B30430  19.787  15.613   7.689
 2276POPC   NC330431  17.113  27.373   9.415
 2276POPC   PO430432  16.524  27.689   9.363
 2276POPC   GL130433  16.755  27.584   9.063
 2276POPC   GL230434  17.063  27.774   9.084
 2276POPC   C1A30435  16.716  27.724   8.664
 2276POPC   D2A30436  16.927  27.614   8.315
 2276POPC   C3A30437  16.642  27.702   8.036
 2276POPC   C4A30438  16.588  27.878   7.655
 2276POPC   C1B30439  17.141  27.426   8.766
 2276POPC   C2B30440  17.281  27.243   8.365
 2276POPC   C3B30441  17.072  27.216   8.007
 2276POPC   C4B30442  16.971  27.523   7.705
 2277POPC   NC330443   2.285   1.167   9.749
 2277POPC   PO430444   2.834   1.378   9.477
 2277POPC   GL130445   2.761   1.187   9.067
 2277POPC   GL230446   2.403   1.073   9.145
 2277POPC   C1A30447   2.920   1.214   8.619
 2277POPC   D2A30448   2.958   0.927   8.265
 2277POPC   C3A30449   2.803   1.041   7.859
 2277POPC   C4A30450   2.654   1.482   7.753
 2277POPC   C1B30451   2.463   1.009   8.676
 2277POPC   C2B30452   2.525   1.221   8.268
 2277POPC   C3B30453   2.298   1.127   7.889
 2277POPC   C4B30454   2.184   0.894   7.515
 2278POPC   NC330455  36.393   4.383   9.388
 2278POPC   PO430456  35.759   4.264   9.550
 2278POPC   GL130457  35.952   4.364   9.125
 2278POPC   GL230458  36.060   4.085   8.914
 2278POPC   C1A30459  35.974   4.573   8.727
 2278POPC   D2A30460  36.061   4.760   8.328
 2278POPC   C3A30461  36.318   4.555   7.989
 2278POPC   C4A30462  36.587   4.201   7.848
 2278POPC   C1B30463  36.480   4.042   8.718
 2278POPC   C2B30464  36.519   3.852   8.293
 2278POPC   C3B30465  36.232   3.842   7.922
 2278POPC   C4B30466  35.880   4.085   7.785
 2279POPC   NC330467  20.970  10.042   9.616
 2279POPC   PO430468  20.429  10.319   9.374
 2279POPC   GL130469  20.573   9.886   9.133
 2279POPC   GL230470  20.395   9.515   9.169
 2279POPC   C1A30471  20.670   9.679   8.713
 2279POPC   D2A30472  20.883   9.701   8.292
 2279POPC   C3A30473  20.777   9.903   7.876
 2279POPC   C4A30474  20.408   9.854   7.634
 2279POPC   C1B30475  20.193   9.531   8.745
 2279POPC   C2B30476  20.333   9.688   8.322
 2279POPC   C3B30477  20.103   9.606   7.961
 2279POPC   C4B30478  20.101   9.244   7.805
 2280POPC   NC330479  30.968   3.765   9.507
 2280POPC   PO430480  31.668   3.599   9.344
 2280POPC   GL130481  31.425   3.470   9.065
 2280POPC   GL230482  31.684   3.297   8.857
 2280POPC   C1A30483  31.151   3.447   8.753
 2280POPC   D2A30484  31.462   3.477   8.429
 2280POPC   C3A30485  31.391   3.301   8.082
 2280POPC   C4A30486  31.139   3.372   7.798
 2280POPC   C1B30487  31.791   3.724   8.729
 2280POPC   C2B30488  31.754   3.895   8.351
 2280POPC   C3B30489  31.818   3.620   8.015
 2280POPC   C4B30490  31.911   3.886   7.699
 2281POPC   NC330491   8.661  20.754   9.387
 2281POPC   PO430492   9.261  20.619   9.621
 2281POPC   GL130493   9.109  20.577   9.198
 2281POPC   GL230494   9.119  20.933   9.138
 2281POPC   C1A30495   9.103  20.377   8.782
 2281POPC   D2A30496   8.988  20.106   8.423
 2281POPC   C3A30497   9.024  20.347   8.040
 2281POPC   C4A30498   8.797  20.471   7.675
 2281POPC   C1B30499   8.855  20.967   8.772
 2281POPC   C2B30500   8.928  20.732   8.412
 2281POPC   C3B30501   9.143  20.842   8.055
 2281POPC   C4B30502   8.956  20.938   7.677
 2282POPC   NC330503  23.428  43.705   9.416
 2282POPC   PO430504  23.607  44.309   9.505
 2282POPC   GL130505  23.493  44.142   9.117
 2282POPC   GL230506  23.818  44.003   9.144
 2282POPC   C1A30507  23.513  43.848   8.751
 2282POPC   D2A30508  23.736  43.726   8.347
 2282POPC   C3A30509  23.527  43.907   7.966
 2282POPC   C4A30510  23.538  43.850   7.515
 2282POPC   C1B30511  23.952  44.087   8.734
 2282POPC   C2B30512  24.231  44.036   8.406
 2282POPC   C3B30513  24.059  44.053   8.012
 2282POPC   C4B30514  24.018  44.109   7.584
 2283POPC   NC330515  36.627   8.067   9.518
 2283POPC   PO430516  35.975   8.271   9.696
 2283POPC   GL130517  35.896   8.402   9.248
 2283POPC   GL230518  36.091   8.204   9.050
 2283POPC   C1A30519  35.863   8.583   8.818
 2283POPC   D2A30520  36.120   8.705   8.440
 2283POPC   C3A30521  36.080   8.453   8.064
 2283POPC   C4A30522  36.219   8.526   7.657
 2283POPC   C1B30523  36.184   7.988   8.691
 2283POPC   C2B30524  35.989   7.977   8.283
 2283POPC   C3B30525  36.161   7.855   7.877
 2283POPC   C4B30526  36.521   7.786   7.573
 2284POPC   NC330527  33.766  22.444   9.382
 2284POPC   PO430528  33.348  22.072   9.787
 2284POPC   GL130529  33.531  21.981   9.282
 2284POPC   GL230530  33.896  21.948   9.212
 2284POPC   C1A30531  33.571  22.101   8.813
 2284POPC   D2A30532  33.815  22.289   8.428
 2284POPC   C3A30533  33.847  22.060   8.059
 2284POPC   C4A30534  33.524  22.161   7.762
 2284POPC   C1B30535  34.075  22.154   8.829
 2284POPC   C2B30536  34.322  22.268   8.468
 2284POPC   C3B30537  34.216  22.411   8.032
 2284POPC   C4B30538  33.972  22.354   7.639
 2285POPC   NC330539  21.547  31.983   9.493
 2285POPC   PO430540  21.536  31.285   9.509
 2285POPC   GL130541  21.375  31.320   9.122
 2285POPC   GL230542  21.368  31.662   9.080
 2285POPC   C1A30543  21.501  31.275   8.744
 2285POPC   D2A30544  21.769  31.367   8.434
 2285POPC   C3A30545  21.535  31.244   8.059
 2285POPC   C4A30546  21.692  31.317   7.658
 2285POPC   C1B30547  21.317  31.766   8.657
 2285POPC   C2B30548  21.474  31.721   8.256
 2285POPC   C3B30549  21.492  31.818   7.844
 2285POPC   C4B30550  21.157  31.946   7.636
 2286POPC   NC330551  17.757  21.159   9.542
 2286POPC   PO430552  17.211  21.570   9.484
 2286POPC   GL130553  17.393  21.437   9.086
 2286POPC   GL230554  17.732  21.314   9.071
 2286POPC   C1A30555  17.519  21.457   8.642
 2286POPC   D2A30556  17.419  21.277   8.253
 2286POPC   C3A30557  17.700  21.506   7.985
 2286POPC   C4A30558  17.639  21.525   7.497
 2286POPC   C1B30559  18.047  21.052   8.875
 2286POPC   C2B30560  18.169  21.029   8.444
 2286POPC   C3B30561  17.895  20.880   8.116
 2286POPC   C4B30562  17.726  21.077   7.732
 2287POPC   NC330563  38.552  17.102   9.792
 2287POPC   PO430564  38.659  16.467   9.504
 2287POPC   GL130565  38.668  16.498   9.070
 2287POPC   GL230566  38.441  16.803   8.990
 2287POPC   C1A30567  38.490  16.347   8.704
 2287POPC   D2A30568  38.313  16.438   8.338
 2287POPC   C3A30569  38.558  16.415   8.032
 2287POPC   C4A30570  38.529  16.339   7.645
 2287POPC   C1B30571  38.156  16.856   8.614
 2287POPC   C2B30572  38.218  16.911   8.145
 2287POPC   C3B30573  38.250  16.893   7.677
 2287POPC   C4B30574  38.112  17.033   7.194
 2288POPC   NC330575  19.728  19.686   9.499
 2288POPC   PO430576  20.158  20.199   9.498
 2288POPC   GL130577  20.054  19.908   9.171
 2288POPC   GL230578  19.752  20.097   9.124
 2288POPC   C1A30579  19.820  19.680   8.827
 2288POPC   D2A30580  19.736  19.778   8.416
 2288POPC   C3A30581  19.539  19.528   8.159
 2288POPC   C4A30582  19.689  19.625   7.782
 2288POPC   C1B30583  19.966  20.169   8.705
 2288POPC   C2B30584  19.800  20.268   8.267
 2288POPC   C3B30585  19.795  20.115   7.819
 2288POPC   C4B30586  19.846  20.236   7.362
 2289POPC   NC330587  13.952  30.582   9.436
 2289POPC   PO430588  13.255  30.409   9.437
 2289POPC   GL130589  13.539  30.546   9.125
 2289POPC   GL230590  13.698  30.882   9.078
 2289POPC   C1A30591  13.826  30.483   8.790
 2289POPC   D2A30592  13.717  30.724   8.460
 2289POPC   C3A30593  13.763  30.630   8.057
 2289POPC   C4A30594  13.503  30.669   7.744
 2289POPC   C1B30595  13.970  31.062   8.724
 2289POPC   C2B30596  14.131  30.976   8.287
 2289POPC   C3B30597  14.027  31.034   7.838
 2289POPC   C4B30598  14.016  31.137   7.349
 2290POPC   NC330599  32.706  11.174   9.481
 2290POPC   PO430600  33.298  11.398   9.767
 2290POPC   GL130601  33.379  11.338   9.297
 2290POPC   GL230602  33.114  11.149   9.168
 2290POPC   C1A30603  33.543  11.152   8.869
 2290POPC   D2A30604  33.446  11.278   8.420
 2290POPC   C3A30605  33.335  11.234   7.983
 2290POPC   C4A30606  33.194  11.556   7.706
 2290POPC   C1B30607  33.090  11.368   8.761
 2290POPC   C2B30608  32.903  11.166   8.393
 2290POPC   C3B30609  32.813  11.261   7.986
 2290POPC   C4B30610  32.944  11.064   7.621
 2291POPC   NC330611   0.034  43.154   9.835
 2291POPC   PO430612   0.456  42.881   9.363
 2291POPC   GL130613   0.504  43.034   9.024
 2291POPC   GL230614   0.778  43.216   9.110
 2291POPC   C1A30615   0.334  43.045   8.634
 2291POPC   D2A30616   0.492  42.944   8.266
 2291POPC   C3A30617   0.197  43.070   8.025
 2291POPC   C4A30618   0.331  43.298   7.727
 2291POPC   C1B30619   0.848  43.090   8.672
 2291POPC   C2B30620   0.891  43.282   8.284
 2291POPC   C3B30621   0.821  43.358   7.857
 2291POPC   C4B30622   1.065  43.227   7.498
 2292POPC   NC330623  23.316  24.746   9.487
 2292POPC   PO430624  23.745  24.278   9.491
 2292POPC   GL130625  23.490  24.310   9.133
 2292POPC   GL230626  23.504  24.663   9.032
 2292POPC   C1A30627  23.679  24.286   8.738
 2292POPC   D2A30628  23.796  24.540   8.411
 2292POPC   C3A30629  23.763  24.293   8.066
 2292POPC   C4A30630  23.446  24.365   7.790
 2292POPC   C1B30631  23.687  24.953   8.728
 2292POPC   C2B30632  23.937  25.024   8.335
 2292POPC   C3B30633  23.765  24.817   7.962
 2292POPC   C4B30634  23.380  24.881   7.818
 2293POPC   NC330635  16.157  13.831   9.376
 2293POPC   PO430636  15.518  13.422   9.473
 2293POPC   GL130637  15.690  13.533   9.066
 2293POPC   GL230638  15.646  13.869   9.079
 2293POPC   C1A30639  15.812  13.495   8.609
 2293POPC   D2A30640  15.662  13.426   8.174
 2293POPC   C3A30641  15.976  13.578   7.905
 2293POPC   C4A30642  16.342  13.861   7.928
 2293POPC   C1B30643  15.864  14.002   8.728
 2293POPC   C2B30644  16.003  13.917   8.303
 2293POPC   C3B30645  15.831  14.079   7.896
 2293POPC   C4B30646  15.604  14.083   7.488
 2294POPC   NC330647  23.380  34.909   9.506
 2294POPC   PO430648  23.918  34.520   9.567
 2294POPC   GL130649  23.955  34.635   9.169
 2294POPC   GL230650  23.624  34.522   9.127
 2294POPC   C1A30651  24.075  34.736   8.767
 2294POPC   D2A30652  23.812  34.701   8.420
 2294POPC   C3A30653  23.960  34.708   8.006
 2294POPC   C4A30654  23.920  34.486   7.633
 2294POPC   C1B30655  23.417  34.540   8.729
 2294POPC   C2B30656  23.313  34.709   8.306
 2294POPC   C3B30657  23.460  34.651   7.868
 2294POPC   C4B30658  23.564  34.856   7.461
 2295POPC   NC330659  18.806  11.690   9.451
 2295POPC   PO430660  19.556  11.569   9.527
 2295POPC   GL130661  19.299  11.386   9.153
 2295POPC   GL230662  18.940  11.470   9.019
 2295POPC   C1A30663  19.260  11.267   8.700
 2295POPC   D2A30664  18.998  11.372   8.363
 2295POPC   C3A30665  19.222  11.353   7.993
 2295POPC   C4A30666  19.327  10.988   7.807
 2295POPC   C1B30667  18.799  11.062   8.798
 2295POPC   C2B30668  18.696  10.886   8.392
 2295POPC   C3B30669  18.831  11.005   7.987
 2295POPC   C4B30670  18.738  11.404   7.793
 2296POPC   NC330671  20.734  11.711   9.177
 2296POPC   PO430672  20.815  11.065   9.420
 2296POPC   GL130673  20.630  11.219   9.120
 2296POPC   GL230674  20.323  11.352   9.257
 2296POPC   C1A30675  20.765  11.249   8.726
 2296POPC   D2A30676  20.653  11.099   8.379
 2296POPC   C3A30677  20.750  11.360   8.023
 2296POPC   C4A30678  20.848  11.250   7.612
 2296POPC   C1B30679  20.213  11.308   8.824
 2296POPC   C2B30680  20.144  11.093   8.447
 2296POPC   C3B30681  20.255  11.235   8.063
 2296POPC   C4B30682  20.356  11.137   7.634
 2297POPC   NC330683   8.519  28.873   9.687
 2297POPC   PO430684   7.954  29.104   9.366
 2297POPC   GL130685   8.162  29.071   9.024
 2297POPC   GL230686   8.302  29.383   9.025
 2297POPC   C1A30687   8.044  28.959   8.618
 2297POPC   D2A30688   8.241  28.902   8.234
 2297POPC   C3A30689   8.026  28.859   7.838
 2297POPC   C4A30690   8.360  28.938   7.530
 2297POPC   C1B30691   8.065  29.557   8.695
 2297POPC   C2B30692   8.072  29.688   8.270
 2297POPC   C3B30693   8.127  29.355   7.971
 2297POPC   C4B30694   8.053  29.325   7.559
 2298POPC   NC330695   2.426  42.472   9.418
 2298POPC   PO430696   3.002  42.125   9.473
 2298POPC   GL130697   2.832  42.143   9.090
 2298POPC   GL230698   2.864  42.480   9.078
 2298POPC   C1A30699   3.039  42.161   8.683
 2298POPC   D2A30700   2.946  42.302   8.278
 2298POPC   C3A30701   2.672  42.252   7.941
 2298POPC   C4A30702   2.283  42.094   7.808
 2298POPC   C1B30703   2.623  42.446   8.680
 2298POPC   C2B30704   2.667  42.718   8.303
 2298POPC   C3B30705   2.485  42.734   7.891
 2298POPC   C4B30706   2.439  43.005   7.519
 2299POPC   NC330707   7.834   5.753   9.433
 2299POPC   PO430708   8.376   6.045   9.541
 2299POPC   GL130709   8.239   5.936   9.157
 2299POPC   GL230710   8.290   5.594   9.098
 2299POPC   C1A30711   7.952   6.025   8.824
 2299POPC   D2A30712   7.914   5.906   8.420
 2299POPC   C3A30713   8.208   6.022   8.131
 2299POPC   C4A30714   8.182   5.847   7.751
 2299POPC   C1B30715   8.190   5.531   8.674
 2299POPC   C2B30716   8.222   5.514   8.216
 2299POPC   C3B30717   8.496   5.470   7.881
 2299POPC   C4B30718   8.597   5.666   7.473
 2300POPC   NC330719  30.702   2.946   9.477
 2300POPC   PO430720  30.214   2.451   9.489
 2300POPC   GL130721  30.468   2.619   9.152
 2300POPC   GL230722  30.447   2.959   9.015
 2300POPC   C1A30723  30.535   2.550   8.719
 2300POPC   D2A30724  30.506   2.830   8.357
 2300POPC   C3A30725  30.618   2.636   7.938
 2300POPC   C4A30726  30.595   2.585   7.462
 2300POPC   C1B30727  30.853   2.970   8.756
 2300POPC   C2B30728  30.939   3.204   8.354
 2300POPC   C3B30729  30.678   3.178   7.999
 2300POPC   C4B30730  30.815   3.010   7.633
 2301POPC   NC330731  20.303  36.808  10.066
 2301POPC   PO430732  20.452  37.195   9.566
 2301POPC   GL130733  20.691  37.160   9.203
 2301POPC   GL230734  20.816  36.856   9.075
 2301POPC   C1A30735  20.614  37.197   8.780
 2301POPC   D2A30736  20.777  37.026   8.403
 2301POPC   C3A30737  20.585  37.198   8.060
 2301POPC   C4A30738  20.602  37.142   7.638
 2301POPC   C1B30739  20.570  36.675   8.715
 2301POPC   C2B30740  20.494  36.611   8.259
 2301POPC   C3B30741  20.621  36.663   7.826
 2301POPC   C4B30742  20.457  36.496   7.435
 2302POPC   NC330743   5.987  43.260   9.466
 2302POPC   PO430744   5.403  42.870   9.658
 2302POPC   GL130745   5.595  43.009   9.245
 2302POPC   GL230746   5.914  42.893   9.123
 2302POPC   C1A30747   5.693  43.241   8.830
 2302POPC   D2A30748   5.789  43.110   8.397
 2302POPC   C3A30749   5.558  43.231   8.040
 2302POPC   C4A30750   5.559  43.033   7.669
 2302POPC   C1B30751   6.141  42.933   8.739
 2302POPC   C2B30752   6.271  42.998   8.299
 2302POPC   C3B30753   6.170  43.126   7.888
 2302POPC   C4B30754   6.353  43.200   7.473
 2303POPC   NC330755  22.258  18.542   9.544
 2303POPC   PO430756  22.099  17.865   9.621
 2303POPC   GL130757  22.053  18.143   9.270
 2303POPC   GL230758  21.705  18.073   9.221
 2303POPC   C1A30759  22.249  18.319   8.881
 2303POPC   D2A30760  22.358  18.234   8.435
 2303POPC   C3A30761  22.289  18.457   8.056
 2303POPC   C4A30762  22.298  18.142   7.748
 2303POPC   C1B30763  21.764  18.131   8.782
 2303POPC   C2B30764  21.803  18.350   8.409
 2303POPC   C3B30765  21.818  18.217   7.991
 2303POPC   C4B30766  21.863  18.364   7.580
 2304POPC   NC330767  35.049   5.033   9.588
 2304POPC   PO430768  34.453   5.281   9.574
 2304POPC   GL130769  34.717   5.198   9.207
 2304POPC   GL230770  34.993   5.391   9.239
 2304POPC   C1A30771  34.765   5.111   8.762
 2304POPC   D2A30772  34.436   5.169   8.429
 2304POPC   C3A30773  34.498   4.965   8.059
 2304POPC   C4A30774  34.871   4.886   7.855
 2304POPC   C1B30775  34.983   5.550   8.853
 2304POPC   C2B30776  34.915   5.506   8.439
 2304POPC   C3B30777  34.716   5.463   8.055
 2304POPC   C4B30778  34.561   5.308   7.681
 2305POPC   NC330779  43.061  40.625   9.831
 2305POPC   PO430780  42.705  41.089   9.522
 2305POPC   GL130781  42.938  41.089   9.121
 2305POPC   GL230782  43.106  40.804   9.036
 2305POPC   C1A30783  42.774  40.966   8.701
 2305POPC   D2A30784  42.998  40.929   8.370
 2305POPC   C3A30785  42.774  40.963   7.970
 2305POPC   C4A30786  42.975  40.904   7.549
 2305POPC   C1B30787  42.958  40.486   8.717
 2305POPC   C2B30788  42.915  40.449   8.258
 2305POPC   C3B30789  43.190  40.684   7.977
 2305POPC   C4B30790  43.376  40.547   7.661
 2306POPC   NC330791  12.375  16.789   9.472
 2306POPC   PO430792  11.728  16.994   9.374
 2306POPC   GL130793  11.970  16.712   9.158
 2306POPC   GL230794  12.148  16.970   9.059
 2306POPC   C1A30795  12.034  16.519   8.730
 2306POPC   D2A30796  12.166  16.647   8.322
 2306POPC   C3A30797  11.822  16.775   8.142
 2306POPC   C4A30798  11.687  16.432   7.915
 2306POPC   C1B30799  12.242  16.989   8.687
 2306POPC   C2B30800  12.245  17.193   8.304
 2306POPC   C3B30801  12.251  16.986   7.909
 2306POPC   C4B30802  12.171  16.551   7.803
 2307POPC   NC330803  29.542  22.673   9.638
 2307POPC   PO430804  30.091  22.980   9.428
 2307POPC   GL130805  29.808  22.851   9.129
 2307POPC   GL230806  29.618  22.547   9.133
 2307POPC   C1A30807  29.873  22.898   8.719
 2307POPC   D2A30808  29.823  23.095   8.339
 2307POPC   C3A30809  30.104  22.891   8.075
 2307POPC   C4A30810  30.029  22.847   7.648
 2307POPC   C1B30811  29.464  22.574   8.720
 2307POPC   C2B30812  29.703  22.557   8.365
 2307POPC   C3B30813  29.658  22.679   7.985
 2307POPC   C4B30814  29.654  22.490   7.598
 2308POPC   NC330815  26.161  22.274   9.541
 2308POPC   PO430816  25.730  21.936   9.332
 2308POPC   GL130817  26.018  22.081   9.039
 2308POPC   GL230818  26.321  22.300   9.070
 2308POPC   C1A30819  26.080  22.300   8.635
 2308POPC   D2A30820  25.887  22.388   8.263
 2308POPC   C3A30821  25.997  22.054   7.993
 2308POPC   C4A30822  25.980  22.065   7.570
 2308POPC   C1B30823  26.418  21.928   8.772
 2308POPC   C2B30824  26.400  21.932   8.333
 2308POPC   C3B30825  26.464  22.238   8.007
 2308POPC   C4B30826  26.478  22.104   7.588
 2309POPC   NC330827   0.078  17.542   9.433
 2309POPC   PO430828  44.424  17.330   9.330
 2309POPC   GL130829  44.758  17.483   9.007
 2309POPC   GL230830  44.975  17.810   8.984
 2309POPC   C1A30831  44.744  17.607   8.559
 2309POPC   D2A30832  44.930  17.535   8.155
 2309POPC   C3A30833  44.618  17.298   7.925
 2309POPC   C4A30834  44.393  17.063   7.609
 2309POPC   C1B30835  44.568  18.006   8.858
 2309POPC   C2B30836  44.281  17.962   8.497
 2309POPC   C3B30837  44.403  17.762   8.128
 2309POPC   C4B30838  44.676  17.815   7.801
 2310POPC   NC330839  39.231  21.803   9.391
 2310POPC   PO430840  39.295  22.402   9.413
 2310POPC   GL130841  39.077  22.200   9.095
 2310POPC   GL230842  39.041  22.481   8.926
 2310POPC   C1A30843  39.130  21.970   8.690
 2310POPC   D2A30844  39.392  21.888   8.305
 2310POPC   C3A30845  39.476  22.100   7.926
 2310POPC   C4A30846  39.435  21.972   7.491
 2310POPC   C1B30847  39.396  22.423   8.696
 2310POPC   C2B30848  39.586  22.472   8.287
 2310POPC   C3B30849  39.426  22.633   7.916
 2310POPC   C4B30850  39.321  22.542   7.472
 2311POPC   NC330851  22.453  31.972   9.483
 2311POPC   PO430852  22.491  32.590   9.548
 2311POPC   GL130853  22.270  32.400   9.117
 2311POPC   GL230854  22.219  32.024   9.035
 2311POPC   C1A30855  22.087  32.385   8.694
 2311POPC   D2A30856  22.178  32.601   8.314
 2311POPC   C3A30857  22.112  32.289   7.966
 2311POPC   C4A30858  22.083  32.337   7.493
 2311POPC   C1B30859  22.462  31.983   8.676
 2311POPC   C2B30860  22.454  31.882   8.227
 2311POPC   C3B30861  22.551  32.044   7.825
 2311POPC   C4B30862  22.399  31.921   7.421
 2312POPC   NC330863   5.884   1.881   9.655
 2312POPC   PO430864   6.097   2.506   9.449
 2312POPC   GL130865   5.844   2.192   9.228
 2312POPC   GL230866   5.971   1.851   9.145
 2312POPC   C1A30867   5.697   2.199   8.811
 2312POPC   D2A30868   5.862   2.171   8.386
 2312POPC   C3A30869   5.639   2.096   8.027
 2312POPC   C4A30870   5.962   1.944   7.793
 2312POPC   C1B30871   5.785   1.682   8.753
 2312POPC   C2B30872   5.862   1.662   8.298
 2312POPC   C3B30873   5.637   1.581   7.907
 2312POPC   C4B30874   5.573   1.808   7.510
 2313POPC   NC330875  11.552  21.367   9.517
 2313POPC   PO430876  11.019  21.735   9.377
 2313POPC   GL130877  11.210  21.452   9.135
 2313POPC   GL230878  11.050  21.138   9.165
 2313POPC   C1A30879  11.466  21.333   8.828
 2313POPC   D2A30880  11.395  21.169   8.469
 2313POPC   C3A30881  11.458  21.376   8.097
 2313POPC   C4A30882  11.419  21.442   7.686
 2313POPC   C1B30883  10.946  21.134   8.728
 2313POPC   C2B30884  10.965  21.356   8.318
 2313POPC   C3B30885  11.012  21.223   7.905
 2313POPC   C4B30886  10.964  21.412   7.456
 2314POPC   NC330887  38.206  22.435   9.337
 2314POPC   PO430888  38.727  21.901   9.384
 2314POPC   GL130889  38.548  22.156   9.040
 2314POPC   GL230890  38.555  22.524   8.992
 2314POPC   C1A30891  38.361  22.156   8.615
 2314POPC   D2A30892  38.101  21.943   8.288
 2314POPC   C3A30893  38.344  21.974   7.893
 2314POPC   C4A30894  38.699  22.251   7.768
 2314POPC   C1B30895  38.285  22.686   8.668
 2314POPC   C2B30896  38.176  22.612   8.206
 2314POPC   C3B30897  38.296  22.582   7.749
 2314POPC   C4B30898  38.601  22.568   7.379
 2315POPC   NC330899  10.850   8.391   9.594
 2315POPC   PO430900  10.281   8.081   9.313
 2315POPC   GL130901  10.613   8.147   9.082
 2315POPC   GL230902  10.784   7.852   9.150
 2315POPC   C1A30903  10.503   8.315   8.650
 2315POPC   D2A30904  10.085   8.173   8.437
 2315POPC   C3A30905  10.116   8.175   7.976
 2315POPC   C4A30906  10.451   8.009   7.726
 2315POPC   C1B30907  10.594   7.819   8.710
 2315POPC   C2B30908  10.571   7.993   8.256
 2315POPC   C3B30909  10.897   7.963   7.935
 2315POPC   C4B30910  10.878   7.758   7.498
 2316POPC   NC330911  26.406  25.783   9.541
 2316POPC   PO430912  26.155  25.166   9.535
 2316POPC   GL130913  26.025  25.174   9.130
 2316POPC   GL230914  25.669  25.180   9.123
 2316POPC   C1A30915  25.982  25.197   8.703
 2316POPC   D2A30916  26.220  25.325   8.355
 2316POPC   C3A30917  26.280  25.101   7.990
 2316POPC   C4A30918  26.255  25.182   7.545
 2316POPC   C1B30919  25.613  25.547   8.851
 2316POPC   C2B30920  25.765  25.723   8.500
 2316POPC   C3B30921  25.787  25.570   8.109
 2316POPC   C4B30922  25.829  25.288   7.790
 2317POPC   NC330923  10.839  18.009   9.414
 2317POPC   PO430924  10.261  18.127   9.467
 2317POPC   GL130925  10.497  18.246   9.113
 2317POPC   GL230926  10.237  18.441   9.022
 2317POPC   C1A30927  10.757  18.041   8.798
 2317POPC   D2A30928  10.817  17.828   8.457
 2317POPC   C3A30929  10.719  18.069   8.107
 2317POPC   C4A30930  10.877  17.933   7.728
 2317POPC   C1B30931  10.431  18.388   8.629
 2317POPC   C2B30932  10.833  18.459   8.455
 2317POPC   C3B30933  10.674  18.616   8.118
 2317POPC   C4B30934  10.406  18.415   7.851
 2318POPC   NC330935  16.632   5.350   9.598
 2318POPC   PO430936  16.884   4.761   9.530
 2318POPC   GL130937  16.823   5.027   9.180
 2318POPC   GL230938  16.487   5.155   9.138
 2318POPC   C1A30939  16.884   5.088   8.746
 2318POPC   D2A30940  16.909   5.359   8.403
 2318POPC   C3A30941  16.822   5.150   8.051
 2318POPC   C4A30942  17.065   5.241   7.695
 2318POPC   C1B30943  16.368   5.001   8.724
 2318POPC   C2B30944  16.301   4.869   8.299
 2318POPC   C3B30945  16.256   4.722   7.891
 2318POPC   C4B30946  16.521   4.992   7.681
 2319POPC   NC330947   4.270   8.542   9.345
 2319POPC   PO430948   4.747   8.076   9.509
 2319POPC   GL130949   4.433   8.142   9.096
 2319POPC   GL230950   4.143   7.904   9.028
 2319POPC   C1A30951   4.475   8.131   8.684
 2319POPC   D2A30952   4.224   8.115   8.323
 2319POPC   C3A30953   4.481   8.213   7.989
 2319POPC   C4A30954   4.551   8.240   7.564
 2319POPC   C1B30955   3.971   8.260   8.784
 2319POPC   C2B30956   3.757   8.357   8.416
 2319POPC   C3B30957   3.901   8.398   8.024
 2319POPC   C4B30958   4.143   8.500   7.722
 2320POPC   NC330959  41.481  29.933   9.586
 2320POPC   PO430960  42.028  29.541   9.442
 2320POPC   GL130961  41.598  29.593   9.230
 2320POPC   GL230962  41.696  29.933   9.138
 2320POPC   C1A30963  41.355  29.726   8.847
 2320POPC   D2A30964  41.603  29.854   8.468
 2320POPC   C3A30965  41.449  29.804   8.049
 2320POPC   C4A30966  41.519  30.048   7.674
 2320POPC   C1B30967  41.902  29.639   8.825
 2320POPC   C2B30968  41.940  29.448   8.430
 2320POPC   C3B30969  41.987  29.714   8.093
 2320POPC   C4B30970  41.894  29.653   7.686
 2321POPC   NC330971  18.091  26.131   9.515
 2321POPC   PO430972  18.433  25.648   9.200
 2321POPC   GL130973  18.366  26.027   9.085
 2321POPC   GL230974  18.010  25.997   9.038
 2321POPC   C1A30975  18.460  26.288   8.767
 2321POPC   D2A30976  18.197  26.403   8.409
 2321POPC   C3A30977  18.424  26.359   8.021
 2321POPC   C4A30978  18.500  26.197   7.617
 2321POPC   C1B30979  18.168  25.875   8.637
 2321POPC   C2B30980  18.266  25.914   8.230
 2321POPC   C3B30981  18.088  25.917   7.840
 2321POPC   C4B30982  18.276  25.713   7.521
 2322POPC   NC330983  11.087   0.207   9.285
 2322POPC   PO430984  11.402   0.747   9.467
 2322POPC   GL130985  11.436   0.528   9.080
 2322POPC   GL230986  11.098   0.536   8.921
 2322POPC   C1A30987  11.541   0.305   8.703
 2322POPC   D2A30988  11.453   0.108   8.318
 2322POPC   C3A30989  11.198   0.313   8.022
 2322POPC   C4A30990  11.370   0.352   7.616
 2322POPC   C1B30991  11.051   0.139   8.656
 2322POPC   C2B30992  10.777   0.066   8.337
 2322POPC   C3B30993  10.818  44.957   7.935
 2322POPC   C4B30994  10.927   0.135   7.582
 2323POPC   NC330995  41.443  42.766   9.383
 2323POPC   PO430996  41.541  42.151   9.420
 2323POPC   GL130997  41.694  42.386   9.096
 2323POPC   GL230998  41.889  42.688   9.120
 2323POPC   C1A30999  41.512  42.365   8.704
 2323POPC   D2A31000  41.669  42.326   8.304
 2323POPC   C3A31001  41.366  42.380   7.963
 2323POPC   C4A31002  41.425  42.543   7.547
 2323POPC   C1B31003  41.988  42.578   8.695
 2323POPC   C2B31004  41.904  42.801   8.305
 2323POPC   C3B31005  41.835  42.598   7.920
 2323POPC   C4B31006  41.870  42.160   7.821
 2324POPC   NC331007   7.411  18.219   9.773
 2324POPC   PO431008   7.773  18.718   9.557
 2324POPC   GL131009   7.489  18.451   9.256
 2324POPC   GL231010   7.402  18.096   9.190
 2324POPC   C1A31011   7.315  18.416   8.834
 2324POPC   D2A31012   7.471  18.466   8.459
 2324POPC   C3A31013   7.274  18.350   8.103
 2324POPC   C4A31014   7.412  18.534   7.739
 2324POPC   C1B31015   7.484  17.908   8.725
 2324POPC   C2B31016   7.410  17.857   8.251
 2324POPC   C3B31017   7.556  18.010   7.815
 2324POPC   C4B31018   7.702  17.924   7.370
 2325POPC   NC331019  23.523   6.315   9.427
 2325POPC   PO431020  24.053   6.733   9.487
 2325POPC   GL131021  23.814   6.678   9.105
 2325POPC   GL231022  23.927   6.378   8.978
 2325POPC   C1A31023  23.635   6.843   8.695
 2325POPC   D2A31024  23.696   6.959   8.250
 2325POPC   C3A31025  23.409   6.801   7.974
 2325POPC   C4A31026  23.485   6.633   7.580
 2325POPC   C1B31027  23.513   6.351   8.745
 2325POPC   C2B31028  23.524   6.333   8.289
 2325POPC   C3B31029  23.774   6.452   7.962
 2325POPC   C4B31030  24.151   6.356   7.793
 2326POPC   NC331031   1.756   7.786   9.341
 2326POPC   PO431032   2.215   7.228   9.283
 2326POPC   GL131033   1.972   7.436   9.010
 2326POPC   GL231034   1.646   7.381   9.064
 2326POPC   C1A31035   1.847   7.529   8.602
 2326POPC   D2A31036   2.056   7.710   8.261
 2326POPC   C3A31037   2.048   7.469   7.931
 2326POPC   C4A31038   2.405   7.321   7.724
 2326POPC   C1B31039   1.566   7.115   8.736
 2326POPC   C2B31040   1.739   7.111   8.314
 2326POPC   C3B31041   1.710   7.066   7.894
 2326POPC   C4B31042   1.956   7.129   7.530
 2327POPC   NC331043  33.418  42.809   9.728
 2327POPC   PO431044  33.641  42.176   9.593
 2327POPC   GL131045  33.693  42.122   9.164
 2327POPC   GL231046  33.362  42.240   9.167
 2327POPC   C1A31047  33.896  42.357   8.831
 2327POPC   D2A31048  33.826  42.585   8.445
 2327POPC   C3A31049  34.040  42.426   8.072
 2327POPC   C4A31050  33.931  42.155   7.770
 2327POPC   C1B31051  33.398  42.472   8.817
 2327POPC   C2B31052  33.262  42.496   8.422
 2327POPC   C3B31053  33.522  42.387   8.069
 2327POPC   C4B31054  33.431  42.292   7.679
 2328POPC   NC331055  23.272  42.181   9.521
 2328POPC   PO431056  22.623  42.498   9.560
 2328POPC   GL131057  22.781  42.248   9.199
 2328POPC   GL231058  23.067  41.998   9.117
 2328POPC   C1A31059  22.954  42.357   8.785
 2328POPC   D2A31060  22.772  42.495   8.421
 2328POPC   C3A31061  22.948  42.309   8.083
 2328POPC   C4A31062  22.927  42.483   7.709
 2328POPC   C1B31063  22.775  41.857   8.843
 2328POPC   C2B31064  22.671  41.997   8.455
 2328POPC   C3B31065  22.653  41.810   8.061
 2328POPC   C4B31066  22.692  42.031   7.701
 2329POPC   NC331067  36.398  29.590   9.493
 2329POPC   PO431068  35.853  29.963   9.446
 2329POPC   GL131069  36.168  29.912   9.165
 2329POPC   GL231070  36.143  29.530   9.055
 2329POPC   C1A31071  36.122  30.105   8.801
 2329POPC   D2A31072  35.934  29.904   8.466
 2329POPC   C3A31073  36.096  30.039   8.089
 2329POPC   C4A31074  35.943  29.962   7.716
 2329POPC   C1B31075  36.393  29.671   8.710
 2329POPC   C2B31076  36.448  29.682   8.260
 2329POPC   C3B31077  36.274  29.550   7.891
 2329POPC   C4B31078  35.953  29.455   7.652
 2330POPC   NC331079  16.701  33.136   9.532
 2330POPC   PO431080  16.770  32.525   9.369
 2330POPC   GL131081  16.715  32.847   9.110
 2330POPC   GL231082  16.995  32.712   8.969
 2330POPC   C1A31083  16.506  33.182   8.867
 2330POPC   D2A31084  16.363  33.390   8.476
 2330POPC   C3A31085  16.468  33.123   8.102
 2330POPC   C4A31086  16.832  33.130   7.843
 2330POPC   C1B31087  16.861  32.772   8.622
 2330POPC   C2B31088  17.195  32.616   8.425
 2330POPC   C3B31089  17.125  32.715   8.027
 2330POPC   C4B31090  16.734  32.635   7.785
 2331POPC   NC331091   6.692  24.094   9.224
 2331POPC   PO431092   6.471  24.636   9.610
 2331POPC   GL131093   6.551  24.632   9.233
 2331POPC   GL231094   6.322  24.414   9.126
 2331POPC   C1A31095   6.614  24.703   8.832
 2331POPC   D2A31096   6.697  24.470   8.450
 2331POPC   C3A31097   6.692  24.686   8.070
 2331POPC   C4A31098   6.703  24.575   7.629
 2331POPC   C1B31099   6.253  24.342   8.711
 2331POPC   C2B31100   6.260  24.194   8.295
 2331POPC   C3B31101   6.309  24.406   7.919
 2331POPC   C4B31102   6.189  24.417   7.502
 2332POPC   NC331103  28.468  36.328   9.613
 2332POPC   PO431104  27.936  36.020   9.401
 2332POPC   GL131105  28.217  36.223   9.099
 2332POPC   GL231106  28.591  36.279   9.137
 2332POPC   C1A31107  28.233  36.204   8.646
 2332POPC   D2A31108  27.986  36.241   8.268
 2332POPC   C3A31109  28.193  35.989   7.960
 2332POPC   C4A31110  28.249  35.959   7.521
 2332POPC   C1B31111  28.625  36.525   8.781
 2332POPC   C2B31112  28.719  36.351   8.402
 2332POPC   C3B31113  28.515  36.381   8.019
 2332POPC   C4B31114  28.361  36.509   7.652
 2333POPC   NC331115  30.154  42.616   9.380
 2333POPC   PO431116  29.575  42.284   9.492
 2333POPC   GL131117  29.784  42.367   9.127
 2333POPC   GL231118  29.694  42.692   9.064
 2333POPC   C1A31119  30.061  42.228   8.797
 2333POPC   D2A31120  29.950  42.043   8.417
 2333POPC   C3A31121  29.788  42.152   8.043
 2333POPC   C4A31122  29.912  42.256   7.640
 2333POPC   C1B31123  30.023  42.731   8.747
 2333POPC   C2B31124  30.185  42.501   8.384
 2333POPC   C3B31125  30.121  42.596   7.962
 2333POPC   C4B31126  29.935  42.762   7.560
 2334POPC   NC331127  25.511  40.120   9.248
 2334POPC   PO431128  24.942  39.707   9.250
 2334POPC   GL131129  25.282  39.740   9.044
 2334POPC   GL231130  25.104  40.066   8.953
 2334POPC   C1A31131  25.403  39.842   8.632
 2334POPC   D2A31132  25.123  40.079   8.376
 2334POPC   C3A31133  25.303  40.090   8.018
 2334POPC   C4A31134  25.363  39.853   7.700
 2334POPC   C1B31135  24.803  40.289   8.734
 2334POPC   C2B31136  24.903  40.555   8.373
 2334POPC   C3B31137  24.950  40.461   7.978
 2334POPC   C4B31138  25.033  40.307   7.598
 2335POPC   NC331139  27.924   1.033   9.217
 2335POPC   PO431140  28.218   1.546   9.523
 2335POPC   GL131141  28.384   1.434   9.107
 2335POPC   GL231142  28.402   1.084   9.028
 2335POPC   C1A31143  28.186   1.373   8.679
 2335POPC   D2A31144  28.212   1.051   8.387
 2335POPC   C3A31145  28.409   1.184   8.043
 2335POPC   C4A31146  28.297   1.444   7.743
 2335POPC   C1B31147  28.655   1.085   8.662
 2335POPC   C2B31148  28.802   0.925   8.285
 2335POPC   C3B31149  28.896   1.088   7.926
 2335POPC   C4B31150  28.639   0.991   7.611
 2336POPC   NC331151  13.013  32.653   9.551
 2336POPC   PO431152  13.423  33.307   9.485
 2336POPC   GL131153  13.445  33.125   9.085
 2336POPC   GL231154  13.499  32.743   9.130
 2336POPC   C1A31155  13.621  33.303   8.712
 2336POPC   D2A31156  13.893  33.437   8.367
 2336POPC   C3A31157  13.755  33.276   7.972
 2336POPC   C4A31158  13.584  32.973   7.677
 2336POPC   C1B31159  13.716  32.705   8.738
 2336POPC   C2B31160  13.764  32.923   8.365
 2336POPC   C3B31161  13.901  32.781   7.995
 2336POPC   C4B31162  13.802  32.462   7.686
 2337POPC   NC331163   9.495  31.615   9.488
 2337POPC   PO431164  10.109  31.445   9.595
 2337POPC   GL131165  10.006  31.518   9.202
 2337POPC   GL231166   9.733  31.342   9.118
 2337POPC   C1A31167  10.028  31.582   8.754
 2337POPC   D2A31168   9.897  31.381   8.376
 2337POPC   C3A31169   9.837  31.603   7.993
 2337POPC   C4A31170  10.034  31.414   7.642
 2337POPC   C1B31171   9.513  31.607   8.836
 2337POPC   C2B31172   9.523  31.720   8.428
 2337POPC   C3B31173   9.276  31.627   8.075
 2337POPC   C4B31174   9.403  31.421   7.757
 2338POPC   NC331175  24.639  33.095   9.513
 2338POPC   PO431176  24.292  33.438   9.063
 2338POPC   GL131177  24.355  32.968   9.095
 2338POPC   GL231178  24.154  32.700   9.260
 2338POPC   C1A31179  24.517  32.730   8.745
 2338POPC   D2A31180  24.642  32.928   8.321
 2338POPC   C3A31181  24.726  32.823   7.871
 2338POPC   C4A31182  25.012  33.128   7.650
 2338POPC   C1B31183  23.990  32.726   8.828
 2338POPC   C2B31184  24.134  32.809   8.420
 2338POPC   C3B31185  24.161  33.125   8.108
 2338POPC   C4B31186  24.290  33.092   7.708
 2339POPC   NC331187  13.616  39.676   9.548
 2339POPC   PO431188  13.991  40.195   9.541
 2339POPC   GL131189  13.725  40.075   9.252
 2339POPC   GL231190  13.941  39.779   9.153
 2339POPC   C1A31191  13.536  39.985   8.881
 2339POPC   D2A31192  13.547  39.835   8.487
 2339POPC   C3A31193  13.347  40.094   8.195
 2339POPC   C4A31194  13.434  40.032   7.777
 2339POPC   C1B31195  14.053  40.123   8.874
 2339POPC   C2B31196  13.895  40.195   8.483
 2339POPC   C3B31197  13.870  39.989   8.083
 2339POPC   C4B31198  13.913  40.217   7.694
 2340POPC   NC331199   5.432  16.343   9.434
 2340POPC   PO431200   6.066  16.702   9.446
 2340POPC   GL131201   6.060  16.489   9.049
 2340POPC   GL231202   5.750  16.301   9.022
 2340POPC   C1A31203   6.092  16.552   8.618
 2340POPC   D2A31204   5.777  16.628   8.294
 2340POPC   C3A31205   5.880  16.655   7.872
 2340POPC   C4A31206   5.996  17.068   7.718
 2340POPC   C1B31207   5.473  16.577   8.742
 2340POPC   C2B31208   5.362  16.910   8.392
 2340POPC   C3B31209   5.459  16.915   7.917
 2340POPC   C4B31210   5.404  16.785   7.432
 2341POPC   NC331211  10.847  17.434   9.722
 2341POPC   PO431212  10.212  17.435   9.555
 2341POPC   GL131213  10.514  17.627   9.292
 2341POPC   GL231214  10.299  17.783   9.070
 2341POPC   C1A31215  10.752  17.521   8.903
 2341POPC   D2A31216  10.653  17.279   8.504
 2341POPC   C3A31217  10.893  17.155   8.134
 2341POPC   C4A31218  10.753  17.380   7.748
 2341POPC   C1B31219  10.338  17.709   8.623
 2341POPC   C2B31220  10.407  17.658   8.153
 2341POPC   C3B31221  10.364  17.892   7.744
 2341POPC   C4B31222  10.140  17.795   7.353
 2342POPC   NC331223  32.418   3.412   9.479
 2342POPC   PO431224  32.176   3.988   9.515
 2342POPC   GL131225  32.115   3.769   9.124
 2342POPC   GL231226  32.145   3.444   9.052
 2342POPC   C1A31227  32.298   3.832   8.725
 2342POPC   D2A31228  32.225   3.620   8.364
 2342POPC   C3A31229  32.335   3.785   7.976
 2342POPC   C4A31230  32.243   3.485   7.690
 2342POPC   C1B31231  32.578   3.430   8.833
 2342POPC   C2B31232  32.744   3.523   8.425
 2342POPC   C3B31233  32.672   3.404   7.993
 2342POPC   C4B31234  32.659   3.212   7.582
 2343POPC   NC331235   9.570  37.548   9.395
 2343POPC   PO431236   9.564  38.233   9.506
 2343POPC   GL131237   9.587  37.989   9.100
 2343POPC   GL231238   9.738  37.666   8.947
 2343POPC   C1A31239   9.705  38.085   8.684
 2343POPC   D2A31240   9.523  38.060   8.311
 2343POPC   C3A31241   9.573  37.678   8.098
 2343POPC   C4A31242   9.436  37.747   7.707
 2343POPC   C1B31243   9.383  37.670   8.710
 2343POPC   C2B31244   9.295  37.285   8.520
 2343POPC   C3B31245   9.150  37.199   8.122
 2343POPC   C4B31246   9.156  37.290   7.710
 2344POPC   NC331247  44.427  24.212   9.430
 2344POPC   PO431248  44.825  24.705   9.752
 2344POPC   GL131249  44.810  24.503   9.246
 2344POPC   GL231250  44.560  24.597   9.058
 2344POPC   C1A31251  44.776  24.291   8.749
 2344POPC   D2A31252  44.588  24.502   8.316
 2344POPC   C3A31253  44.722  24.284   7.899
 2344POPC   C4A31254  44.460  24.094   7.536
 2344POPC   C1B31255  44.839  24.778   8.734
 2344POPC   C2B31256   0.053  24.691   8.385
 2344POPC   C3B31257  44.935  24.794   7.999
 2344POPC   C4B31258  44.673  24.731   7.686
 2345POPC   NC331259  19.601  11.907   9.223
 2345POPC   PO431260  19.772  12.469   9.524
 2345POPC   GL131261  19.970  12.249   9.123
 2345POPC   GL231262  20.080  11.858   9.119
 2345POPC   C1A31263  19.859  12.224   8.664
 2345POPC   D2A31264  19.712  12.226   8.235
 2345POPC   C3A31265  19.985  12.209   7.881
 2345POPC   C4A31266  20.027  12.410   7.472
 2345POPC   C1B31267  20.254  11.919   8.747
 2345POPC   C2B31268  20.254  12.092   8.339
 2345POPC   C3B31269  20.435  11.994   7.972
 2345POPC   C4B31270  20.399  12.032   7.516
 2346POPC   NC331271  12.443  41.996   9.388
 2346POPC   PO431272  11.834  41.746   9.506
 2346POPC   GL131273  11.905  41.548   9.124
 2346POPC   GL231274  11.620  41.325   9.164
 2346POPC   C1A31275  12.217  41.616   8.788
 2346POPC   D2A31276  12.473  41.642   8.387
 2346POPC   C3A31277  12.256  41.832   8.023
 2346POPC   C4A31278  11.977  41.640   7.701
 2346POPC   C1B31279  11.754  41.262   8.738
 2346POPC   C2B31280  11.576  41.224   8.351
 2346POPC   C3B31281  11.782  41.158   7.980
 2346POPC   C4B31282  11.908  41.138   7.568
 2347POPC   NC331283  11.219  26.213   9.356
 2347POPC   PO431284  11.456  26.826   9.463
 2347POPC   GL131285  11.375  26.737   9.059
 2347POPC   GL231286  11.028  26.656   9.156
 2347POPC   C1A31287  11.312  27.010   8.677
 2347POPC   D2A31288  11.041  26.993   8.296
 2347POPC   C3A31289  11.291  27.202   7.984
 2347POPC   C4A31290  11.643  27.031   7.733
 2347POPC   C1B31291  10.998  26.632   8.704
 2347POPC   C2B31292  11.057  26.472   8.279
 2347POPC   C3B31293  11.256  26.686   7.916
 2347POPC   C4B31294  11.251  26.810   7.459
 2348POPC   NC331295   1.861  31.790   9.686
 2348POPC   PO431296   2.222  31.253   9.482
 2348POPC   GL131297   1.924  31.509   9.268
 2348POPC   GL231298   2.178  31.766   9.249
 2348POPC   C1A31299   1.745  31.619   8.866
 2348POPC   D2A31300   1.727  31.407   8.470
 2348POPC   C3A31301   1.779  31.554   8.043
 2348POPC   C4A31302   1.530  31.425   7.694
 2348POPC   C1B31303   2.252  31.476   8.881
 2348POPC   C2B31304   2.336  31.391   8.471
 2348POPC   C3B31305   2.219  31.217   8.100
 2348POPC   C4B31306   2.115  31.311   7.709
 2349POPC   NC331307  20.735  20.791   9.506
 2349POPC   PO431308  20.772  21.439   9.748
 2349POPC   GL131309  20.658  21.358   9.294
 2349POPC   GL231310  20.402  21.124   9.283
 2349POPC   C1A31311  20.721  21.505   8.854
 2349POPC   D2A31312  20.542  21.591   8.439
 2349POPC   C3A31313  20.705  21.618   8.012
 2349POPC   C4A31314  20.463  21.611   7.612
 2349POPC   C1B31315  20.533  21.015   8.891
 2349POPC   C2B31316  20.759  21.123   8.519
 2349POPC   C3B31317  20.830  21.077   8.116
 2349POPC   C4B31318  20.786  21.209   7.700
 2350POPC   NC331319   7.827  43.250   9.396
 2350POPC   PO431320   7.215  43.006   9.535
 2350POPC   GL131321   7.445  42.898   9.158
 2350POPC   GL231322   7.436  43.217   9.098
 2350POPC   C1A31323   7.422  42.733   8.730
 2350POPC   D2A31324   7.618  42.847   8.324
 2350POPC   C3A31325   7.377  42.887   7.932
 2350POPC   C4A31326   7.541  42.935   7.488
 2350POPC   C1B31327   7.587  43.211   8.703
 2350POPC   C2B31328   7.528  43.447   8.354
 2350POPC   C3B31329   7.630  43.337   7.928
 2350POPC   C4B31330   7.669  43.420   7.507
 2351POPC   NC331331   0.321  39.138   9.617
 2351POPC   PO431332   0.752  38.700   9.287
 2351POPC   GL131333   0.461  39.052   9.126
 2351POPC   GL231334   0.075  39.100   9.180
 2351POPC   C1A31335   0.387  39.412   8.840
 2351POPC   D2A31336   0.301  39.596   8.451
 2351POPC   C3A31337   0.383  39.316   8.129
 2351POPC   C4A31338   0.466  39.353   7.704
 2351POPC   C1B31339   0.031  38.998   8.748
 2351POPC   C2B31340   0.130  38.871   8.322
 2351POPC   C3B31341   0.122  38.955   7.869
 2351POPC   C4B31342   0.348  38.911   7.466
 2352POPC   NC331343  37.386  22.812   9.716
 2352POPC   PO431344  38.043  22.761   9.622
 2352POPC   GL131345  37.711  22.694   9.279
 2352POPC   GL231346  37.561  23.005   9.132
 2352POPC   C1A31347  37.773  22.718   8.784
 2352POPC   D2A31348  37.477  22.904   8.453
 2352POPC   C3A31349  37.680  22.973   8.048
 2352POPC   C4A31350  37.767  22.704   7.679
 2352POPC   C1B31351  37.268  23.214   8.822
 2352POPC   C2B31352  37.246  23.415   8.391
 2352POPC   C3B31353  37.262  23.362   7.931
 2352POPC   C4B31354  37.344  23.016   7.643
 2353POPC   NC331355  33.456  18.355   9.469
 2353POPC   PO431356  32.826  18.082   9.465
 2353POPC   GL131357  33.025  18.282   9.147
 2353POPC   GL231358  33.255  18.045   9.117
 2353POPC   C1A31359  33.213  18.419   8.752
 2353POPC   D2A31360  33.048  18.577   8.344
 2353POPC   C3A31361  33.134  18.348   7.930
 2353POPC   C4A31362  32.802  18.134   7.715
 2353POPC   C1B31363  33.382  17.916   8.745
 2353POPC   C2B31364  33.276  18.066   8.355
 2353POPC   C3B31365  33.295  17.865   7.979
 2353POPC   C4B31366  33.192  17.847   7.551
 2354POPC   NC331367  18.462  24.137   9.440
 2354POPC   PO431368  18.094  24.767   9.529
 2354POPC   GL131369  18.278  24.610   9.170
 2354POPC   GL231370  18.070  24.307   9.143
 2354POPC   C1A31371  18.203  24.574   8.722
 2354POPC   D2A31372  18.245  24.816   8.372
 2354POPC   C3A31373  18.429  24.629   8.045
 2354POPC   C4A31374  18.296  24.359   7.776
 2354POPC   C1B31375  18.272  24.066   8.784
 2354POPC   C2B31376  18.297  24.145   8.330
 2354POPC   C3B31377  18.052  23.963   7.992
 2354POPC   C4B31378  17.992  23.996   7.553
 2355POPC   NC331379   6.258  36.791   9.350
 2355POPC   PO431380   5.745  37.056   9.695
 2355POPC   GL131381   5.664  36.902   9.258
 2355POPC   GL231382   5.781  36.561   9.162
 2355POPC   C1A31383   5.695  36.912   8.796
 2355POPC   D2A31384   5.701  36.640   8.433
 2355POPC   C3A31385   5.532  36.800   8.066
 2355POPC   C4A31386   5.633  36.853   7.650
 2355POPC   C1B31387   6.085  36.578   8.776
 2355POPC   C2B31388   6.207  36.532   8.380
 2355POPC   C3B31389   6.042  36.734   8.027
 2355POPC   C4B31390   6.183  36.899   7.666
 2356POPC   NC331391  24.914   3.376   9.533
 2356POPC   PO431392  24.311   3.698   9.490
 2356POPC   GL131393  24.363   3.549   9.121
 2356POPC   GL231394  24.697   3.612   9.133
 2356POPC   C1A31395  24.231   3.690   8.749
 2356POPC   D2A31396  24.455   3.576   8.407
 2356POPC   C3A31397  24.361   3.714   8.027
 2356POPC   C4A31398  24.628   3.935   7.759
 2356POPC   C1B31399  24.782   3.288   8.851
 2356POPC   C2B31400  24.845   3.250   8.422
 2356POPC   C3B31401  24.867   3.508   8.056
 2356POPC   C4B31402  24.632   3.425   7.694
 2357POPC   NC331403  14.149   7.851   9.629
 2357POPC   PO431404  14.788   7.790   9.448
 2357POPC   GL131405  14.481   7.640   9.158
 2357POPC   GL231406  14.111   7.612   9.179
 2357POPC   C1A31407  14.483   7.445   8.761
 2357POPC   D2A31408  14.533   7.266   8.345
 2357POPC   C3A31409  14.526   7.495   7.972
 2357POPC   C4A31410  14.612   7.461   7.518
 2357POPC   C1B31411  14.107   7.798   8.797
 2357POPC   C2B31412  14.212   7.671   8.389
 2357POPC   C3B31413  14.058   7.685   7.995
 2357POPC   C4B31414  14.131   7.570   7.615
 2358POPC   NC331415   8.278  38.182   9.420
 2358POPC   PO431416   7.762  38.599   9.552
 2358POPC   GL131417   7.997  38.514   9.162
 2358POPC   GL231418   8.381  38.601   9.117
 2358POPC   C1A31419   8.094  38.278   8.772
 2358POPC   D2A31420   7.897  38.246   8.374
 2358POPC   C3A31421   8.057  38.421   8.020
 2358POPC   C4A31422   7.847  38.723   7.768
 2358POPC   C1B31423   8.618  38.299   8.812
 2358POPC   C2B31424   8.524  38.149   8.372
 2358POPC   C3B31425   8.567  38.334   7.949
 2358POPC   C4B31426   8.323  38.579   7.591
 2359POPC   NC331427  37.049  34.394   9.472
 2359POPC   PO431428  36.527  34.791   9.408
 2359POPC   GL131429  36.681  34.550   9.054
 2359POPC   GL231430  37.043  34.571   8.993
 2359POPC   C1A31431  36.698  34.385   8.618
 2359POPC   D2A31432  37.009  34.421   8.258
 2359POPC   C3A31433  36.909  34.372   7.797
 2359POPC   C4A31434  36.667  34.428   7.396
 2359POPC   C1B31435  37.363  34.733   8.704
 2359POPC   C2B31436  37.451  34.689   8.268
 2359POPC   C3B31437  37.164  34.825   7.944
 2359POPC   C4B31438  36.960  34.848   7.562
 2360POPC   NC331439  15.573  30.322   9.440
 2360POPC   PO431440  15.109  30.737   9.718
 2360POPC   GL131441  15.127  30.768   9.234
 2360POPC   GL231442  15.389  30.976   9.145
 2360POPC   C1A31443  15.289  30.610   8.805
 2360POPC   D2A31444  15.337  30.808   8.376
 2360POPC   C3A31445  15.243  30.510   8.025
 2360POPC   C4A31446  15.418  30.356   7.646
 2360POPC   C1B31447  15.018  31.052   8.825
 2360POPC   C2B31448  14.866  31.028   8.390
 2360POPC   C3B31449  14.869  30.846   7.993
 2360POPC   C4B31450  15.163  30.810   7.633
 2361POPC   NC331451  20.463  18.556   9.395
 2361POPC   PO431452  20.598  17.894   9.374
 2361POPC   GL131453  20.665  18.172   9.106
 2361POPC   GL231454  20.307  18.197   9.050
 2361POPC   C1A31455  20.700  18.327   8.706
 2361POPC   D2A31456  20.907  18.477   8.347
 2361POPC   C3A31457  20.603  18.407   8.034
 2361POPC   C4A31458  20.610  18.360   7.607
 2361POPC   C1B31459  20.376  17.884   8.724
 2361POPC   C2B31460  20.247  17.798   8.291
 2361POPC   C3B31461  20.410  17.938   7.892
 2361POPC   C4B31462  20.349  17.935   7.459
 2362POPC   NC331463   2.705  17.027   9.628
 2362POPC   PO431464   2.478  16.402   9.515
 2362POPC   GL131465   2.629  16.620   9.176
 2362POPC   GL231466   2.938  16.741   9.233
 2362POPC   C1A31467   2.618  16.641   8.750
 2362POPC   D2A31468   2.572  16.414   8.406
 2362POPC   C3A31469   2.721  16.520   8.020
 2362POPC   C4A31470   2.456  16.377   7.695
 2362POPC   C1B31471   3.112  16.720   8.823
 2362POPC   C2B31472   3.000  16.856   8.420
 2362POPC   C3B31473   2.977  17.099   8.053
 2362POPC   C4B31474   2.846  16.890   7.696
 2363POPC   NC331475  21.197  15.709   9.436
 2363POPC   PO431476  21.445  15.057   9.430
 2363POPC   GL131477  21.316  15.246   9.042
 2363POPC   GL231478  21.455  15.564   9.031
 2363POPC   C1A31479  21.178  15.404   8.618
 2363POPC   D2A31480  21.036  15.404   8.185
 2363POPC   C3A31481  21.164  15.012   8.042
 2363POPC   C4A31482  21.375  14.892   7.674
 2363POPC   C1B31483  21.687  15.377   8.686
 2363POPC   C2B31484  21.600  15.141   8.323
 2363POPC   C3B31485  21.554  15.306   7.908
 2363POPC   C4B31486  21.800  15.583   7.696
 2364POPC   NC331487  14.485  21.072   9.481
 2364POPC   PO431488  14.701  21.715   9.448
 2364POPC   GL131489  14.518  21.516   9.134
 2364POPC   GL231490  14.492  21.818   8.956
 2364POPC   C1A31491  14.352  21.278   8.803
 2364POPC   D2A31492  14.175  21.373   8.423
 2364POPC   C3A31493  14.287  21.198   8.034
 2364POPC   C4A31494  14.320  21.186   7.618
 2364POPC   C1B31495  14.430  21.847   8.542
 2364POPC   C2B31496  14.427  21.786   8.126
 2364POPC   C3B31497  14.617  21.540   7.824
 2364POPC   C4B31498  14.652  21.611   7.371
 2365POPC   NC331499  39.791  21.072   9.780
 2365POPC   PO431500  39.734  20.483   9.426
 2365POPC   GL131501  40.053  20.497   9.113
 2365POPC   GL231502  40.173  20.153   8.981
 2365POPC   C1A31503  40.056  20.723   8.747
 2365POPC   D2A31504  39.801  20.591   8.405
 2365POPC   C3A31505  39.805  20.820   8.034
 2365POPC   C4A31506  39.821  20.692   7.628
 2365POPC   C1B31507  40.346  20.337   8.585
 2365POPC   C2B31508  40.281  20.703   8.260
 2365POPC   C3B31509  40.295  20.806   7.811
 2365POPC   C4B31510  40.281  20.578   7.390
 2366POPC   NC331511  28.141  43.301   9.527
 2366POPC   PO431512  28.590  42.875   9.371
 2366POPC   GL131513  28.517  43.225   9.092
 2366POPC   GL231514  28.169  43.267   9.032
 2366POPC   C1A31515  28.516  43.074   8.679
 2366POPC   D2A31516  28.527  43.220   8.273
 2366POPC   C3A31517  28.310  42.884   8.027
 2366POPC   C4A31518  28.512  42.917   7.636
 2366POPC   C1B31519  28.158  43.446   8.650
 2366POPC   C2B31520  28.032  43.305   8.245
 2366POPC   C3B31521  28.241  43.349   7.841
 2366POPC   C4B31522  28.034  43.563   7.498
 2367POPC   NC331523   2.152  13.586   9.641
 2367POPC   PO431524   1.607  13.967   9.451
 2367POPC   GL131525   1.903  13.793   9.145
 2367POPC   GL231526   2.144  13.505   9.142
 2367POPC   C1A31527   2.200  13.870   8.804
 2367POPC   D2A31528   2.167  13.735   8.386
 2367POPC   C3A31529   1.860  13.460   8.257
 2367POPC   C4A31530   1.763  13.404   7.810
 2367POPC   C1B31531   2.140  13.322   8.748
 2367POPC   C2B31532   2.296  13.202   8.353
 2367POPC   C3B31533   2.292  13.430   7.953
 2367POPC   C4B31534   2.178  13.312   7.539
 2368POPC   NC331535  24.746  20.890   9.464
 2368POPC   PO431536  24.217  20.486   9.483
 2368POPC   GL131537  24.380  20.349   9.102
 2368POPC   GL231538  24.759  20.326   9.142
 2368POPC   C1A31539  24.268  20.645   8.783
 2368POPC   D2A31540  24.460  20.769   8.409
 2368POPC   C3A31541  24.356  20.560   8.055
 2368POPC   C4A31542  24.050  20.534   7.783
 2368POPC   C1B31543  24.804  20.660   8.798
 2368POPC   C2B31544  24.938  20.910   8.389
 2368POPC   C3B31545  24.776  20.825   7.959
 2368POPC   C4B31546  24.765  20.417   7.782
 2369POPC   NC331547  11.647  19.714   9.496
 2369POPC   PO431548  11.117  20.080   9.568
 2369POPC   GL131549  11.117  19.959   9.151
 2369POPC   GL231550  11.331  19.653   9.074
 2369POPC   C1A31551  10.964  19.817   8.769
 2369POPC   D2A31552  11.187  19.571   8.489
 2369POPC   C3A31553  11.143  19.704   8.065
 2369POPC   C4A31554  11.103  20.010   7.746
 2369POPC   C1B31555  11.495  19.937   8.747
 2369POPC   C2B31556  11.606  20.035   8.324
 2369POPC   C3B31557  11.613  19.882   7.923
 2369POPC   C4B31558  11.522  19.476   7.777
 2370POPC   NC331559   6.054   3.975   9.376
 2370POPC   PO431560   5.598   4.558   9.454
 2370POPC   GL131561   5.765   4.318   9.160
 2370POPC   GL231562   5.484   4.188   9.077
 2370POPC   C1A31563   6.036   4.400   8.805
 2370POPC   D2A31564   5.938   4.438   8.376
 2370POPC   C3A31565   5.959   4.618   7.978
 2370POPC   C4A31566   5.999   4.293   7.693
 2370POPC   C1B31567   5.523   4.457   8.714
 2370POPC   C2B31568   5.462   4.526   8.274
 2370POPC   C3B31569   5.597   4.276   7.985
 2370POPC   C4B31570   5.483   4.175   7.576
 2371POPC   NC331571  11.980  22.389   9.903
 2371POPC   PO431572  12.395  22.041   9.468
 2371POPC   GL131573  12.117  21.951   9.111
 2371POPC   GL231574  12.014  22.307   9.067
 2371POPC   C1A31575  12.185  22.030   8.646
 2371POPC   D2A31576  12.126  22.329   8.297
 2371POPC   C3A31577  12.309  22.138   7.930
 2371POPC   C4A31578  12.435  22.308   7.498
 2371POPC   C1B31579  11.734  22.298   8.706
 2371POPC   C2B31580  11.668  22.091   8.333
 2371POPC   C3B31581  11.769  22.197   7.907
 2371POPC   C4B31582  11.600  22.019   7.531
 2372POPC   NC331583  34.471  17.005   9.594
 2372POPC   PO431584  34.552  17.842   9.600
 2372POPC   GL131585  34.540  17.614   9.217
 2372POPC   GL231586  34.644  17.280   9.198
 2372POPC   C1A31587  34.619  17.564   8.772
 2372POPC   D2A31588  34.811  17.803   8.498
 2372POPC   C3A31589  34.658  17.706   8.115
 2372POPC   C4A31590  34.640  17.690   7.707
 2372POPC   C1B31591  34.834  17.117   8.801
 2372POPC   C2B31592  34.725  17.221   8.340
 2372POPC   C3B31593  34.909  17.294   7.905
 2372POPC   C4B31594  34.915  17.370   7.407
 2373POPC   NC331595   8.033  27.104   9.428
 2373POPC   PO431596   8.403  26.530   9.486
 2373POPC   GL131597   8.191  26.704   9.122
 2373POPC   GL231598   8.401  27.035   9.106
 2373POPC   C1A31599   7.894  26.885   8.775
 2373POPC   D2A31600   7.891  27.172   8.384
 2373POPC   C3A31601   7.933  26.965   7.969
 2373POPC   C4A31602   8.077  26.560   7.813
 2373POPC   C1B31603   8.387  26.905   8.708
 2373POPC   C2B31604   8.223  26.782   8.372
 2373POPC   C3B31605   8.459  26.834   8.071
 2373POPC   C4B31606   8.444  26.895   7.685
 2374POPC   NC331607   7.767  38.935   9.869
 2374POPC   PO431608   8.353  39.337   9.836
 2374POPC   GL131609   8.286  39.344   9.343
 2374POPC   GL231610   8.035  39.049   9.230
 2374POPC   C1A31611   8.430  39.276   8.887
 2374POPC   D2A31612   8.298  39.179   8.434
 2374POPC   C3A31613   8.238  39.501   8.090
 2374POPC   C4A31614   8.359  39.533   7.613
 2374POPC   C1B31615   8.037  38.842   8.786
 2374POPC   C2B31616   8.285  38.631   8.452
 2374POPC   C3B31617   8.457  38.808   8.075
 2374POPC   C4B31618   8.237  39.071   7.806
 2375POPC   NC331619  41.149  27.685   9.508
 2375POPC   PO431620  40.498  27.524   9.417
 2375POPC   GL131621  40.830  27.604   9.127
 2375POPC   GL231622  40.985  27.260   9.195
 2375POPC   C1A31623  40.900  27.884   8.762
 2375POPC   D2A31624  40.648  27.936   8.387
 2375POPC   C3A31625  40.812  27.914   7.977
 2375POPC   C4A31626  40.764  27.756   7.555
 2375POPC   C1B31627  40.811  27.264   8.761
 2375POPC   C2B31628  40.822  27.446   8.346
 2375POPC   C3B31629  40.685  27.406   7.933
 2375POPC   C4B31630  40.900  27.238   7.594
 2376POPC   NC331631   5.682  34.337   9.818
 2376POPC   PO431632   6.010  33.842   9.486
 2376POPC   GL131633   5.956  33.731   9.131
 2376POPC   GL231634   5.603  33.691   9.141
 2376POPC   C1A31635   6.092  33.662   8.742
 2376POPC   D2A31636   6.037  33.883   8.343
 2376POPC   C3A31637   6.105  33.697   7.929
 2376POPC   C4A31638   5.972  33.982   7.602
 2376POPC   C1B31639   5.665  33.929   8.747
 2376POPC   C2B31640   5.474  33.925   8.390
 2376POPC   C3B31641   5.636  33.940   8.022
 2376POPC   C4B31642   5.592  33.672   7.759
 2377POPC   NC331643  38.883   0.937   9.207
 2377POPC   PO431644  39.492   1.140   9.502
 2377POPC   GL131645  39.367   1.055   9.105
 2377POPC   GL231646  39.453   0.727   9.021
 2377POPC   C1A31647  39.258   1.324   8.748
 2377POPC   D2A31648  39.414   1.464   8.355
 2377POPC   C3A31649  39.084   1.538   8.057
 2377POPC   C4A31650  38.995   1.355   7.658
 2377POPC   C1B31651  39.322   0.838   8.622
 2377POPC   C2B31652  39.063   0.776   8.257
 2377POPC   C3B31653  39.042   0.871   7.821
 2377POPC   C4B31654  39.363   0.890   7.480
 2378POPC   NC331655   8.486  21.534   9.512
 2378POPC   PO431656   7.771  21.546   9.614
 2378POPC   GL131657   7.822  21.443   9.143
 2378POPC   GL231658   8.095  21.240   9.174
 2378POPC   C1A31659   8.056  21.467   8.704
 2378POPC   D2A31660   8.230  21.446   8.265
 2378POPC   C3A31661   7.968  21.370   7.894
 2378POPC   C4A31662   8.142  21.373   7.479
 2378POPC   C1B31663   8.323  21.034   8.837
 2378POPC   C2B31664   8.281  20.945   8.420
 2378POPC   C3B31665   8.067  20.890   8.049
 2378POPC   C4B31666   7.919  20.928   7.637
 2379POPC   NC331667  32.164  10.565   9.496
 2379POPC   PO431668  32.296  11.217   9.671
 2379POPC   GL131669  32.351  10.935   9.203
 2379POPC   GL231670  32.523  10.582   9.128
 2379POPC   C1A31671  32.160  10.713   8.793
 2379POPC   D2A31672  32.075  10.500   8.359
 2379POPC   C3A31673  32.087  10.613   7.886
 2379POPC   C4A31674  32.390  10.630   7.516
 2379POPC   C1B31675  32.410  10.275   8.803
 2379POPC   C2B31676  32.509  10.193   8.375
 2379POPC   C3B31677  32.498  10.293   7.950
 2379POPC   C4B31678  32.209  10.145   7.699
 2380POPC   NC331679  39.694  29.543   9.599
 2380POPC   PO431680  40.080  29.979   9.469
 2380POPC   GL131681  39.995  29.879   9.072
 2380POPC   GL231682  39.805  29.608   9.108
 2380POPC   C1A31683  39.996  29.818   8.662
 2380POPC   D2A31684  40.003  30.047   8.320
 2380POPC   C3A31685  40.112  29.733   8.037
 2380POPC   C4A31686  40.015  29.937   7.657
 2380POPC   C1B31687  39.506  29.721   8.813
 2380POPC   C2B31688  39.550  29.801   8.408
 2380POPC   C3B31689  39.612  29.857   8.018
 2380POPC   C4B31690  39.610  29.643   7.699
 2381POPC   NC331691  12.933  34.957   9.645
 2381POPC   PO431692  12.367  35.331   9.657
 2381POPC   GL131693  12.665  35.193   9.266
 2381POPC   GL231694  13.040  35.131   9.173
 2381POPC   C1A31695  12.695  35.244   8.807
 2381POPC   D2A31696  12.778  35.069   8.412
 2381POPC   C3A31697  12.867  35.317   8.053
 2381POPC   C4A31698  12.949  35.107   7.658
 2381POPC   C1B31699  13.173  35.446   8.859
 2381POPC   C2B31700  13.258  35.477   8.421
 2381POPC   C3B31701  13.356  35.609   8.004
 2381POPC   C4B31702  13.084  35.612   7.675
 2382POPC   NC331703  10.382  18.589   9.476
 2382POPC   PO431704  10.588  19.292   9.434
 2382POPC   GL131705  10.614  19.214   9.020
 2382POPC   GL231706  10.559  18.847   9.034
 2382POPC   C1A31707  10.553  19.203   8.592
 2382POPC   D2A31708  10.735  19.446   8.272
 2382POPC   C3A31709  10.637  19.186   7.975
 2382POPC   C4A31710  10.617  18.889   7.694
 2382POPC   C1B31711  10.194  18.859   8.752
 2382POPC   C2B31712  10.203  18.754   8.317
 2382POPC   C3B31713   9.969  18.649   7.946
 2382POPC   C4B31714  10.148  18.783   7.550
 2383POPC   NC331715   1.316   3.890   9.582
 2383POPC   PO431716   1.440   3.200   9.406
 2383POPC   GL131717   1.192   3.385   9.075
 2383POPC   GL231718   1.124   3.697   9.144
 2383POPC   C1A31719   1.268   3.534   8.661
 2383POPC   D2A31720   1.213   3.284   8.285
 2383POPC   C3A31721   0.945   3.403   7.981
 2383POPC   C4A31722   1.252   3.627   7.779
 2383POPC   C1B31723   0.867   3.853   8.811
 2383POPC   C2B31724   0.865   3.707   8.398
 2383POPC   C3B31725   0.805   3.895   8.022
 2383POPC   C4B31726   0.853   3.875   7.581
 2384POPC   NC331727  15.397  23.174   9.436
 2384POPC   PO431728  14.798  22.846   9.571
 2384POPC   GL131729  14.930  22.866   9.184
 2384POPC   GL231730  15.159  22.580   9.221
 2384POPC   C1A31731  15.156  22.963   8.817
 2384POPC   D2A31732  15.335  22.959   8.412
 2384POPC   C3A31733  15.094  22.895   8.042
 2384POPC   C4A31734  15.185  23.211   7.753
 2384POPC   C1B31735  15.003  22.485   8.804
 2384POPC   C2B31736  15.200  22.464   8.386
 2384POPC   C3B31737  15.518  22.609   8.044
 2384POPC   C4B31738  15.436  22.781   7.607
 2385POPC   NC331739  21.755  24.583   9.577
 2385POPC   PO431740  22.255  24.150   9.622
 2385POPC   GL131741  22.120  24.278   9.175
 2385POPC   GL231742  21.902  24.589   9.085
 2385POPC   C1A31743  22.285  24.450   8.796
 2385POPC   D2A31744  22.303  24.655   8.396
 2385POPC   C3A31745  22.141  24.460   8.054
 2385POPC   C4A31746  22.193  24.521   7.641
 2385POPC   C1B31747  21.934  24.840   8.712
 2385POPC   C2B31748  21.769  24.800   8.291
 2385POPC   C3B31749  21.804  24.774   7.841
 2385POPC   C4B31750  21.749  24.630   7.372
 2386POPC   NC331751  42.888   2.532   9.592
 2386POPC   PO431752  43.167   3.131   9.391
 2386POPC   GL131753  42.966   2.823   9.156
 2386POPC   GL231754  43.257   2.651   9.124
 2386POPC   C1A31755  42.832   2.872   8.750
 2386POPC   D2A31756  43.152   2.842   8.435
 2386POPC   C3A31757  42.920   2.880   8.030
 2386POPC   C4A31758  43.003   2.850   7.606
 2386POPC   C1B31759  43.525   2.517   8.779
 2386POPC   C2B31760  43.446   2.356   8.371
 2386POPC   C3B31761  43.375   2.631   8.029
 2386POPC   C4B31762  43.304   2.469   7.690
 2387POPC   NC331763  41.359  21.257   9.460
 2387POPC   PO431764  42.014  21.018   9.455
 2387POPC   GL131765  41.742  21.212   9.144
 2387POPC   GL231766  41.749  21.578   9.156
 2387POPC   C1A31767  41.539  21.172   8.755
 2387POPC   D2A31768  41.697  20.900   8.460
 2387POPC   C3A31769  41.590  21.030   8.083
 2387POPC   C4A31770  41.743  21.337   7.848
 2387POPC   C1B31771  41.578  21.740   8.767
 2387POPC   C2B31772  41.533  21.651   8.336
 2387POPC   C3B31773  41.659  21.829   7.955
 2387POPC   C4B31774  41.466  21.684   7.572
 2388POPC   NC331775  28.212  19.646   9.579
 2388POPC   PO431776  28.726  19.300   9.368
 2388POPC   GL131777  28.481  19.611   9.072
 2388POPC   GL231778  28.178  19.806   9.116
 2388POPC   C1A31779  28.375  19.827   8.653
 2388POPC   D2A31780  28.458  19.665   8.243
 2388POPC   C3A31781  28.281  19.864   7.916
 2388POPC   C4A31782  28.417  19.903   7.542
 2388POPC   C1B31783  27.927  19.601   8.789
 2388POPC   C2B31784  27.698  19.763   8.430
 2388POPC   C3B31785  27.791  19.720   7.983
 2388POPC   C4B31786  27.938  19.702   7.530
 2389POPC   NC331787  41.551   1.250   9.644
 2389POPC   PO431788  41.042   0.928   9.461
 2389POPC   GL131789  41.283   1.212   9.146
 2389POPC   GL231790  41.664   1.274   9.141
 2389POPC   C1A31791  41.418   1.262   8.683
 2389POPC   D2A31792  41.741   1.127   8.360
 2389POPC   C3A31793  41.524   1.105   7.985
 2389POPC   C4A31794  41.175   1.288   7.809
 2389POPC   C1B31795  41.883   1.458   8.766
 2389POPC   C2B31796  41.746   1.641   8.352
 2389POPC   C3B31797  41.817   1.504   7.918
 2389POPC   C4B31798  42.004   1.367   7.494
 2390POPC   NC331799  33.336  38.717   9.405
 2390POPC   PO431800  32.869  38.310   9.644
 2390POPC   GL131801  33.046  38.318   9.265
 2390POPC   GL231802  32.852  38.613   9.207
 2390POPC   C1A31803  33.033  38.155   8.851
 2390POPC   D2A31804  33.282  38.251   8.508
 2390POPC   C3A31805  33.157  38.246   8.073
 2390POPC   C4A31806  33.399  38.190   7.712
 2390POPC   C1B31807  32.971  38.674   8.792
 2390POPC   C2B31808  32.838  38.546   8.386
 2390POPC   C3B31809  32.983  38.732   7.991
 2390POPC   C4B31810  32.932  38.556   7.598
 2391POPC   NC331811  34.889  41.616   9.435
 2391POPC   PO431812  34.184  41.720   9.586
 2391POPC   GL131813  34.423  41.679   9.213
 2391POPC   GL231814  34.479  41.324   9.143
 2391POPC   C1A31815  34.400  41.741   8.776
 2391POPC   D2A31816  34.223  41.541   8.423
 2391POPC   C3A31817  34.507  41.465   8.092
 2391POPC   C4A31818  34.719  41.734   7.784
 2391POPC   C1B31819  34.793  41.399   8.805
 2391POPC   C2B31820  34.943  41.589   8.423
 2391POPC   C3B31821  35.045  41.423   8.023
 2391POPC   C4B31822  34.784  41.221   7.738
 2392POPC   NC331823  21.870   2.459   9.294
 2392POPC   PO431824  22.288   2.902   9.425
 2392POPC   GL131825  22.280   2.723   9.059
 2392POPC   GL231826  22.339   2.370   9.059
 2392POPC   C1A31827  22.263   2.901   8.658
 2392POPC   D2A31828  22.419   2.784   8.255
 2392POPC   C3A31829  22.165   2.954   7.927
 2392POPC   C4A31830  22.191   2.935   7.461
 2392POPC   C1B31831  22.060   2.417   8.689
 2392POPC   C2B31832  21.953   2.534   8.273
 2392POPC   C3B31833  22.171   2.407   7.910
 2392POPC   C4B31834  22.219   2.422   7.444
 2393POPC   NC331835  29.273   2.226   9.494
 2393POPC   PO431836  29.146   1.621   9.327
 2393POPC   GL131837  29.277   1.917   9.052
 2393POPC   GL231838  28.973   2.062   9.106
 2393POPC   C1A31839  29.182   1.917   8.615
 2393POPC   D2A31840  29.203   1.781   8.184
 2393POPC   C3A31841  29.332   2.042   7.848
 2393POPC   C4A31842  29.456   1.935   7.461
 2393POPC   C1B31843  28.731   2.142   8.774
 2393POPC   C2B31844  28.732   2.020   8.356
 2393POPC   C3B31845  28.835   2.089   7.941
 2393POPC   C4B31846  28.943   2.110   7.490
 2394POPC   NC331847  25.253  12.676   9.490
 2394POPC   PO431848  24.585  12.768   9.552
 2394POPC   GL131849  24.891  12.579   9.106
 2394POPC   GL231850  25.323  12.652   9.017
 2394POPC   C1A31851  25.030  12.709   8.638
 2394POPC   D2A31852  25.346  12.740   8.327
 2394POPC   C3A31853  25.192  12.803   7.914
 2394POPC   C4A31854  25.311  13.073   7.567
 2394POPC   C1B31855  25.659  12.628   8.755
 2394POPC   C2B31856  25.727  12.404   8.385
 2394POPC   C3B31857  25.748  12.639   7.980
 2394POPC   C4B31858  25.528  12.618   7.567
 2395POPC   NC331859  14.011   2.012   9.221
 2395POPC   PO431860  14.602   1.934   9.585
 2395POPC   GL131861  14.519   1.940   9.134
 2395POPC   GL231862  14.467   1.622   9.036
 2395POPC   C1A31863  14.478   2.179   8.726
 2395POPC   D2A31864  14.254   2.147   8.300
 2395POPC   C3A31865  14.424   1.920   7.924
 2395POPC   C4A31866  14.476   2.019   7.469
 2395POPC   C1B31867  14.361   1.703   8.597
 2395POPC   C2B31868  13.992   1.694   8.353
 2395POPC   C3B31869  13.936   1.617   7.946
 2395POPC   C4B31870  13.998   1.824   7.551
 2396POPC   NC331871  27.743  31.930   9.586
 2396POPC   PO431872  27.424  32.517   9.523
 2396POPC   GL131873  27.517  32.179   9.208
 2396POPC   GL231874  27.540  32.435   9.019
 2396POPC   C1A31875  27.600  31.982   8.785
 2396POPC   D2A31876  27.800  32.144   8.399
 2396POPC   C3A31877  27.673  32.014   8.016
 2396POPC   C4A31878  27.600  32.246   7.681
 2396POPC   C1B31879  27.466  32.476   8.591
 2396POPC   C2B31880  27.482  32.485   8.145
 2396POPC   C3B31881  27.215  32.529   7.806
 2396POPC   C4B31882  26.824  32.630   7.717
 2397POPC   NC331883   5.535  24.896   9.411
 2397POPC   PO431884   6.072  25.257   9.501
 2397POPC   GL131885   5.860  25.271   9.118
 2397POPC   GL231886   5.468  25.345   9.095
 2397POPC   C1A31887   5.844  25.451   8.703
 2397POPC   D2A31888   5.829  25.612   8.292
 2397POPC   C3A31889   5.884  25.342   7.950
 2397POPC   C4A31890   5.579  25.332   7.718
 2397POPC   C1B31891   5.586  25.015   8.771
 2397POPC   C2B31892   5.756  25.062   8.367
 2397POPC   C3B31893   5.623  24.880   7.971
 2397POPC   C4B31894   5.796  24.880   7.583
 2398POPC   NC331895   3.239  13.902   9.439
 2398POPC   PO431896   2.561  13.669   9.468
 2398POPC   GL131897   2.639  13.620   9.050
 2398POPC   GL231898   2.969  13.554   9.089
 2398POPC   C1A31899   2.682  13.338   8.711
 2398POPC   D2A31900   2.645  13.562   8.341
 2398POPC   C3A31901   2.812  13.544   7.953
 2398POPC   C4A31902   2.639  13.601   7.545
 2398POPC   C1B31903   3.024  13.770   8.709
 2398POPC   C2B31904   3.031  13.905   8.269
 2398POPC   C3B31905   3.192  13.890   7.850
 2398POPC   C4B31906   3.199  13.479   7.586
 2399POPC   NC331907  33.337  22.562   9.751
 2399POPC   PO431908  33.878  22.888   9.558
 2399POPC   GL131909  33.907  22.896   9.139
 2399POPC   GL231910  33.576  22.833   9.130
 2399POPC   C1A31911  33.885  23.080   8.729
 2399POPC   D2A31912  33.991  23.308   8.350
 2399POPC   C3A31913  33.758  23.176   8.011
 2399POPC   C4A31914  33.866  22.969   7.643
 2399POPC   C1B31915  33.594  22.619   8.756
 2399POPC   C2B31916  33.634  22.793   8.367
 2399POPC   C3B31917  33.738  22.624   7.992
 2399POPC   C4B31918  33.494  22.634   7.594
 2400POPC   NC331919  33.686  25.158   9.500
 2400POPC   PO431920  34.325  25.556   9.567
 2400POPC   GL131921  34.053  25.399   9.192
 2400POPC   GL231922  33.694  25.481   9.116
 2400POPC   C1A31923  34.048  25.570   8.743
 2400POPC   D2A31924  33.801  25.488   8.398
 2400POPC   C3A31925  33.934  25.088   8.216
 2400POPC   C4A31926  33.840  25.180   7.798
 2400POPC   C1B31927  33.779  25.122   8.808
 2400POPC   C2B31928  33.506  25.012   8.468
 2400POPC   C3B31929  33.441  25.217   8.112
 2400POPC   C4B31930  33.346  25.077   7.719
 2401POPC   NC331931   3.364  12.051   9.588
 2401POPC   PO431932   3.845  12.179   9.184
 2401POPC   GL131933   3.471  12.079   9.066
 2401POPC   GL231934   3.365  12.399   9.194
 2401POPC   C1A31935   3.462  12.106   8.629
 2401POPC   D2A31936   3.293  11.925   8.274
 2401POPC   C3A31937   3.557  12.023   7.921
 2401POPC   C4A31938   3.961  11.805   7.789
 2401POPC   C1B31939   3.150  12.467   8.819
 2401POPC   C2B31940   3.355  12.554   8.431
 2401POPC   C3B31941   3.250  12.423   8.050
 2401POPC   C4B31942   3.256  12.344   7.671
 2402POPC   NC331943   3.021  39.050   9.498
 2402POPC   PO431944   2.775  39.652   9.549
 2402POPC   GL131945   2.714  39.354   9.167
 2402POPC   GL231946   2.619  38.956   9.207
 2402POPC   C1A31947   2.541  39.499   8.732
 2402POPC   D2A31948   2.400  39.629   8.298
 2402POPC   C3A31949   2.628  39.429   7.965
 2402POPC   C4A31950   2.634  39.265   7.537
 2402POPC   C1B31951   2.899  38.995   8.827
 2402POPC   C2B31952   2.841  38.856   8.395
 2402POPC   C3B31953   2.795  38.946   7.965
 2402POPC   C4B31954   3.057  38.999   7.598
 2403POPC   NC331955  11.593  38.733   9.533
 2403POPC   PO431956  10.905  38.612   9.522
 2403POPC   GL131957  11.218  38.613   9.181
 2403POPC   GL231958  11.482  38.323   9.221
 2403POPC   C1A31959  11.189  38.847   8.776
 2403POPC   D2A31960  11.333  39.022   8.369
 2403POPC   C3A31961  11.197  38.838   7.976
 2403POPC   C4A31962  11.261  38.490   7.626
 2403POPC   C1B31963  11.587  38.498   8.819
 2403POPC   C2B31964  11.422  38.515   8.399
 2403POPC   C3B31965  11.595  38.443   8.012
 2403POPC   C4B31966  11.563  38.032   7.874
 2404POPC   NC331967  31.940  33.870   9.440
 2404POPC   PO431968  32.495  33.566   9.528
 2404POPC   GL131969  32.348  33.715   9.133
 2404POPC   GL231970  32.371  34.087   9.231
 2404POPC   C1A31971  31.982  33.663   8.830
 2404POPC   D2A31972  31.895  33.876   8.458
 2404POPC   C3A31973  32.146  33.577   8.190
 2404POPC   C4A31974  32.103  33.675   7.763
 2404POPC   C1B31975  32.213  34.126   8.842
 2404POPC   C2B31976  32.393  33.905   8.514
 2404POPC   C3B31977  32.310  34.027   8.096
 2404POPC   C4B31978  32.491  34.134   7.743
 2405POPC   NC331979  44.108   8.424   9.564
 2405POPC   PO431980  43.422   8.170   9.613
 2405POPC   GL131981  43.587   8.298   9.210
 2405POPC   GL231982  43.912   8.151   9.175
 2405POPC   C1A31983  43.546   8.175   8.739
 2405POPC   D2A31984  43.728   8.356   8.334
 2405POPC   C3A31985  43.641   8.209   7.902
 2405POPC   C4A31986  43.582   8.345   7.441
 2405POPC   C1B31987  44.076   8.283   8.782
 2405POPC   C2B31988  44.203   8.163   8.402
 2405POPC   C3B31989  44.160   8.306   7.995
 2405POPC   C4B31990  44.475   8.167   7.718
 2406POPC   NC331991  14.153  35.161   9.352
 2406POPC   PO431992  14.654  35.592   9.425
 2406POPC   GL131993  14.524  35.382   9.076
 2406POPC   GL231994  14.231  35.598   9.009
 2406POPC   C1A31995  14.598  35.395   8.651
 2406POPC   D2A31996  14.357  35.377   8.307
 2406POPC   C3A31997  14.453  35.099   7.987
 2406POPC   C4A31998  14.338  35.471   7.774
 2406POPC   C1B31999  14.048  35.280   8.722
 2406POPC   C2B32000  14.060  34.981   8.382
 2406POPC   C3B32001  13.934  35.123   7.989
 2406POPC   C4B32002  13.960  35.204   7.539
 2407POPC   NC332003  41.058   6.214   9.334
 2407POPC   PO432004  41.568   6.762   9.464
 2407POPC   GL132005  41.383   6.548   9.145
 2407POPC   GL232006  41.072   6.752   9.148
 2407POPC   C1A32007  41.401   6.301   8.746
 2407POPC   D2A32008  41.534   6.562   8.411
 2407POPC   C3A32009  41.610   6.477   7.984
 2407POPC   C4A32010  41.937   6.715   7.739
 2407POPC   C1B32011  41.102   6.724   8.720
 2407POPC   C2B32012  41.265   7.007   8.437
 2407POPC   C3B32013  41.528   6.989   8.091
 2407POPC   C4B32014  41.381   6.868   7.679
 2408POPC   NC332015   4.501  14.952   9.636
 2408POPC   PO432016   4.351  15.527   9.958
 2408POPC   GL132017   4.367  15.416   9.419
 2408POPC   GL232018   4.150  15.149   9.280
 2408POPC   C1A32019   4.471  15.347   8.921
 2408POPC   D2A32020   4.286  15.243   8.483
 2408POPC   C3A32021   4.433  15.386   8.063
 2408POPC   C4A32022   4.514  15.228   7.667
 2408POPC   C1B32023   4.193  14.898   8.870
 2408POPC   C2B32024   4.317  14.747   8.441
 2408POPC   C3B32025   4.390  14.811   8.015
 2408POPC   C4B32026   4.007  14.898   7.797
 2409POPC   NC332027   1.580   5.939   9.488
 2409POPC   PO432028   2.267   5.763   9.438
 2409POPC   GL132029   2.138   6.036   9.126
 2409POPC   GL232030   1.797   6.008   9.034
 2409POPC   C1A32031   2.328   6.066   8.736
 2409POPC   D2A32032   2.225   6.180   8.308
 2409POPC   C3A32033   2.238   5.873   7.959
 2409POPC   C4A32034   2.424   5.796   7.570
 2409POPC   C1B32035   1.992   5.652   8.806
 2409POPC   C2B32036   2.066   5.576   8.365
 2409POPC   C3B32037   1.808   5.589   8.002
 2409POPC   C4B32038   1.796   5.932   7.681
 2410POPC   NC332039  24.680  18.572   9.431
 2410POPC   PO432040  24.219  18.106   9.348
 2410POPC   GL132041  24.553  18.184   9.091
 2410POPC   GL232042  24.387  18.494   9.016
 2410POPC   C1A32043  24.472  18.078   8.661
 2410POPC   D2A32044  24.282  17.851   8.311
 2410POPC   C3A32045  24.340  18.094   7.937
 2410POPC   C4A32046  24.624  18.028   7.635
 2410POPC   C1B32047  24.695  18.563   8.725
 2410POPC   C2B32048  24.731  18.378   8.332
 2410POPC   C3B32049  24.925  18.483   7.987
 2410POPC   C4B32050  24.877  18.451   7.598
 2411POPC   NC332051  34.064   8.148   9.338
 2411POPC   PO432052  33.726   8.705   9.413
 2411POPC   GL132053  33.758   8.580   8.986
 2411POPC   GL232054  34.077   8.414   8.894
 2411POPC   C1A32055  33.528   8.331   8.657
 2411POPC   D2A32056  33.444   8.053   8.281
 2411POPC   C3A32057  33.779   8.009   7.979
 2411POPC   C4A32058  34.024   8.234   7.654
 2411POPC   C1B32059  33.921   7.965   8.740
 2411POPC   C2B32060  33.949   7.690   8.380
 2411POPC   C3B32061  34.133   7.642   7.969
 2411POPC   C4B32062  34.345   7.815   7.619
 2412POPC   NC332063   0.597  28.008   9.551
 2412POPC   PO432064   0.293  28.643   9.496
 2412POPC   GL132065   0.590  28.398   9.197
 2412POPC   GL232066   0.421  28.127   9.076
 2412POPC   C1A32067   0.764  28.330   8.763
 2412POPC   D2A32068   0.491  28.198   8.391
 2412POPC   C3A32069   0.701  28.175   8.000
 2412POPC   C4A32070   0.870  28.540   7.772
 2412POPC   C1B32071   0.267  28.451   8.785
 2412POPC   C2B32072   0.061  28.539   8.447
 2412POPC   C3B32073   0.078  28.540   8.038
 2412POPC   C4B32074   0.334  28.378   7.716
 2413POPC   NC332075  17.081  19.427   9.300
 2413POPC   PO432076  17.569  19.846   9.605
 2413POPC   GL132077  17.339  19.919   9.235
 2413POPC   GL232078  17.483  19.642   9.057
 2413POPC   C1A32079  17.470  20.117   8.839
 2413POPC   D2A32080  17.563  19.887   8.469
 2413POPC   C3A32081  17.431  19.921   8.052
 2413POPC   C4A32082  17.574  20.110   7.703
 2413POPC   C1B32083  17.138  19.751   8.738
 2413POPC   C2B32084  17.058  19.670   8.302
 2413POPC   C3B32085  17.213  19.468   7.903
 2413POPC   C4B32086  17.452  19.636   7.564
 2414POPC   NC332087  12.068  25.689   9.431
 2414POPC   PO432088  12.361  26.406   9.518
 2414POPC   GL132089  12.149  26.174   9.220
 2414POPC   GL232090  12.432  26.050   9.074
 2414POPC   C1A32091  11.999  26.247   8.795
 2414POPC   D2A32092  12.123  26.414   8.405
 2414POPC   C3A32093  12.021  26.142   8.056
 2414POPC   C4A32094  12.105  26.247   7.647
 2414POPC   C1B32095  12.466  25.952   8.634
 2414POPC   C2B32096  12.316  25.693   8.285
 2414POPC   C3B32097  12.323  25.725   7.847
 2414POPC   C4B32098  12.125  25.738   7.446
 2415POPC   NC332099  25.353  13.462   9.586
 2415POPC   PO432100  25.056  13.028   9.234
 2415POPC   GL132101  25.231  13.387   9.092
 2415POPC   GL232102  25.599  13.366   9.153
 2415POPC   C1A32103  25.412  13.640   8.754
 2415POPC   D2A32104  25.364  13.921   8.398
 2415POPC   C3A32105  25.294  13.687   8.055
 2415POPC   C4A32106  25.082  13.357   7.903
 2415POPC   C1B32107  25.504  13.123   8.766
 2415POPC   C2B32108  25.310  13.250   8.398
 2415POPC   C3B32109  25.516  13.170   8.027
 2415POPC   C4B32110  25.621  13.483   7.709
 2416POPC   NC332111  34.764  14.391   9.632
 2416POPC   PO432112  34.331  14.859   9.400
 2416POPC   GL132113  34.680  14.557   9.166
 2416POPC   GL232114  34.694  14.118   9.156
 2416POPC   C1A32115  34.914  14.411   8.827
 2416POPC   D2A32116  34.889  14.352   8.421
 2416POPC   C3A32117  35.178  14.513   8.156
 2416POPC   C4A32118  35.007  14.418   7.739
 2416POPC   C1B32119  34.483  14.103   8.764
 2416POPC   C2B32120  34.378  14.323   8.386
 2416POPC   C3B32121  34.563  14.310   7.987
 2416POPC   C4B32122  34.630  14.108   7.585
 2417POPC   NC332123  19.655   6.853   9.536
 2417POPC   PO432124  19.125   6.445   9.617
 2417POPC   GL132125  19.043   6.582   9.183
 2417POPC   GL232126  19.380   6.616   9.141
 2417POPC   C1A32127  18.749   6.538   8.834
 2417POPC   D2A32128  18.912   6.694   8.445
 2417POPC   C3A32129  18.906   6.475   8.050
 2417POPC   C4A32130  18.926   6.673   7.672
 2417POPC   C1B32131  19.288   6.859   8.790
 2417POPC   C2B32132  19.463   6.907   8.400
 2417POPC   C3B32133  19.327   6.789   7.995
 2417POPC   C4B32134  19.391   6.983   7.614
 2418POPC   NC332135  34.960  25.764   9.290
 2418POPC   PO432136  34.559  26.321   9.577
 2418POPC   GL132137  34.528  26.104   9.162
 2418POPC   GL232138  34.799  26.225   9.049
 2418POPC   C1A32139  34.548  25.972   8.706
 2418POPC   D2A32140  34.709  26.166   8.320
 2418POPC   C3A32141  34.575  26.034   7.899
 2418POPC   C4A32142  34.295  26.049   7.524
 2418POPC   C1B32143  34.871  26.499   8.685
 2418POPC   C2B32144  34.973  26.587   8.251
 2418POPC   C3B32145  34.820  26.520   7.840
 2418POPC   C4B32146  34.770  26.251   7.466
 2419POPC   NC332147  37.832  42.053   9.506
 2419POPC   PO432148  37.303  42.386   9.412
 2419POPC   GL132149  37.517  42.266   9.102
 2419POPC   GL232150  37.775  42.483   9.075
 2419POPC   C1A32151  37.419  42.474   8.708
 2419POPC   D2A32152  37.454  42.385   8.327
 2419POPC   C3A32153  37.294  42.613   8.012
 2419POPC   C4A32154  37.423  42.599   7.602
 2419POPC   C1B32155  37.837  42.151   8.732
 2419POPC   C2B32156  37.843  42.066   8.299
 2419POPC   C3B32157  37.748  42.321   7.922
 2419POPC   C4B32158  37.977  42.583   7.610
 2420POPC   NC332159   6.515  34.370   9.771
 2420POPC   PO432160   6.611  34.937   9.396
 2420POPC   GL132161   6.569  34.607   9.109
 2420POPC   GL232162   6.837  34.428   9.277
 2420POPC   C1A32163   6.567  34.532   8.657
 2420POPC   D2A32164   6.831  34.601   8.308
 2420POPC   C3A32165   6.607  34.778   7.976
 2420POPC   C4A32166   6.308  34.583   7.701
 2420POPC   C1B32167   6.851  34.182   8.892
 2420POPC   C2B32168   7.022  34.144   8.483
 2420POPC   C3B32169   6.902  34.041   8.072
 2420POPC   C4B32170   6.835  34.383   7.791
 2421POPC   NC332171  13.140  14.336   9.592
 2421POPC   PO432172  12.484  14.542   9.465
 2421POPC   GL132173  12.798  14.379   9.189
 2421POPC   GL232174  13.110  14.569   9.145
 2421POPC   C1A32175  12.769  14.327   8.766
 2421POPC   D2A32176  12.717  14.044   8.487
 2421POPC   C3A32177  12.704  14.252   8.118
 2421POPC   C4A32178  12.891  14.147   7.764
 2421POPC   C1B32179  12.885  14.794   8.883
 2421POPC   C2B32180  13.023  14.687   8.503
 2421POPC   C3B32181  12.925  14.715   8.110
 2421POPC   C4B32182  13.090  14.604   7.770
 2422POPC   NC332183   7.115  21.212   9.487
 2422POPC   PO432184   6.539  21.630   9.598
 2422POPC   GL132185   6.828  21.543   9.218
 2422POPC   GL232186   6.760  21.214   9.098
 2422POPC   C1A32187   6.939  21.556   8.758
 2422POPC   D2A32188   6.757  21.446   8.366
 2422POPC   C3A32189   6.911  21.538   7.928
 2422POPC   C4A32190   6.780  21.664   7.503
 2422POPC   C1B32191   6.533  21.118   8.732
 2422POPC   C2B32192   6.365  21.087   8.317
 2422POPC   C3B32193   6.415  21.312   7.945
 2422POPC   C4B32194   6.656  21.172   7.593
 2423POPC   NC332195  30.008   0.848   9.389
 2423POPC   PO432196  30.029   1.474   9.382
 2423POPC   GL132197  29.723   1.270   9.027
 2423POPC   GL232198  29.793   0.912   8.923
 2423POPC   C1A32199  29.610   1.170   8.556
 2423POPC   D2A32200  29.875   1.036   8.271
 2423POPC   C3A32201  29.733   0.897   7.938
 2423POPC   C4A32202  29.587   1.103   7.592
 2423POPC   C1B32203  30.110   1.183   8.729
 2423POPC   C2B32204  30.212   1.397   8.351
 2423POPC   C3B32205  30.294   1.389   7.902
 2423POPC   C4B32206  30.539   1.143   7.590
 2424POPC   NC332207   2.665  14.770   9.366
 2424POPC   PO432208   3.219  14.368   9.507
 2424POPC   GL132209   3.092  14.259   9.083
 2424POPC   GL232210   2.852  14.533   8.968
 2424POPC   C1A32211   3.095  14.268   8.634
 2424POPC   D2A32212   2.838  14.461   8.388
 2424POPC   C3A32213   2.834  14.295   8.004
 2424POPC   C4A32214   2.709  14.662   7.829
 2424POPC   C1B32215   2.661  14.117   8.839
 2424POPC   C2B32216   2.563  14.042   8.429
 2424POPC   C3B32217   2.454  13.937   7.999
 2424POPC   C4B32218   2.446  14.234   7.660
 2425POPC   NC332219  35.890  28.206   9.448
 2425POPC   PO432220  36.504  28.107   9.195
 2425POPC   GL132221  36.141  28.344   9.042
 2425POPC   GL232222  36.005  28.004   8.994
 2425POPC   C1A32223  36.097  28.635   8.723
 2425POPC   D2A32224  36.426  28.673   8.437
 2425POPC   C3A32225  36.320  28.480   8.067
 2425POPC   C4A32226  36.323  28.568   7.643
 2425POPC   C1B32227  36.164  28.150   8.568
 2425POPC   C2B32228  35.877  28.311   8.273
 2425POPC   C3B32229  35.666  28.029   7.996
 2425POPC   C4B32230  35.945  28.239   7.745
 2426POPC   NC332231  43.013  29.961   9.498
 2426POPC   PO432232  42.928  29.410   9.166
 2426POPC   GL132233  42.846  29.817   9.027
 2426POPC   GL232234  43.106  30.109   9.021
 2426POPC   C1A32235  42.914  29.870   8.611
 2426POPC   D2A32236  42.863  30.087   8.277
 2426POPC   C3A32237  42.903  29.811   7.955
 2426POPC   C4A32238  43.184  29.906   7.682
 2426POPC   C1B32239  43.338  30.169   8.605
 2426POPC   C2B32240  43.423  29.945   8.161
 2426POPC   C3B32241  43.501  29.557   7.831
 2426POPC   C4B32242  43.331  29.576   7.346
 2427POPC   NC332243   8.143  31.145   9.722
 2427POPC   PO432244   7.966  31.784   9.535
 2427POPC   GL132245   8.203  31.594   9.218
 2427POPC   GL232246   8.013  31.296   9.204
 2427POPC   C1A32247   8.075  31.655   8.792
 2427POPC   D2A32248   7.921  31.489   8.408
 2427POPC   C3A32249   8.182  31.534   8.022
 2427POPC   C4A32250   7.962  31.483   7.623
 2427POPC   C1B32251   8.129  31.146   8.775
 2427POPC   C2B32252   8.336  31.193   8.380
 2427POPC   C3B32253   8.167  31.030   7.971
 2427POPC   C4B32254   8.345  31.153   7.592
 2428POPC   NC332255  35.698  17.684   9.478
 2428POPC   PO432256  36.435  17.640   9.505
 2428POPC   GL132257  36.134  17.485   9.212
 2428POPC   GL232258  36.129  17.824   9.096
 2428POPC   C1A32259  36.225  17.288   8.808
 2428POPC   D2A32260  36.380  17.465   8.409
 2428POPC   C3A32261  36.052  17.548   8.094
 2428POPC   C4A32262  36.178  17.642   7.667
 2428POPC   C1B32263  36.014  17.760   8.663
 2428POPC   C2B32264  35.650  17.693   8.398
 2428POPC   C3B32265  35.636  17.852   7.966
 2428POPC   C4B32266  35.778  17.910   7.543
 2429POPC   NC332267  14.008  31.416   9.735
 2429POPC   PO432268  13.299  31.320   9.495
 2429POPC   GL132269  13.504  31.346   9.127
 2429POPC   GL232270  13.652  31.638   9.210
 2429POPC   C1A32271  13.488  31.264   8.674
 2429POPC   D2A32272  13.168  31.325   8.330
 2429POPC   C3A32273  13.311  31.105   7.961
 2429POPC   C4A32274  13.605  31.227   7.659
 2429POPC   C1B32275  13.704  31.733   8.778
 2429POPC   C2B32276  13.455  31.737   8.422
 2429POPC   C3B32277  13.368  31.647   7.996
 2429POPC   C4B32278  13.347  31.696   7.583
 2430POPC   NC332279  31.276  37.920   9.493
 2430POPC   PO432280  31.654  37.318   9.544
 2430POPC   GL132281  31.753  37.626   9.221
 2430POPC   GL232282  31.609  37.943   9.116
 2430POPC   C1A32283  31.621  37.576   8.775
 2430POPC   D2A32284  31.682  37.330   8.435
 2430POPC   C3A32285  31.439  37.366   8.077
 2430POPC   C4A32286  31.681  37.546   7.744
 2430POPC   C1B32287  31.257  37.938   8.811
 2430POPC   C2B32288  31.261  37.745   8.407
 2430POPC   C3B32289  31.369  37.867   8.004
 2430POPC   C4B32290  31.443  37.985   7.591
 2431POPC   NC332291   6.433  27.796   9.483
 2431POPC   PO432292   6.962  27.500   9.445
 2431POPC   GL132293   6.874  27.423   9.059
 2431POPC   GL232294   6.757  27.106   9.139
 2431POPC   C1A32295   6.683  27.667   8.739
 2431POPC   D2A32296   6.519  27.853   8.364
 2431POPC   C3A32297   6.610  27.721   7.945
 2431POPC   C4A32298   6.916  27.859   7.621
 2431POPC   C1B32299   6.519  27.153   8.750
 2431POPC   C2B32300   6.540  27.329   8.345
 2431POPC   C3B32301   6.470  27.212   7.940
 2431POPC   C4B32302   6.804  27.326   7.646
 2432POPC   NC332303  10.345  11.543   9.439
 2432POPC   PO432304  10.434  10.895   9.462
 2432POPC   GL132305  10.320  11.126   9.125
 2432POPC   GL232306   9.978  11.182   9.175
 2432POPC   C1A32307  10.551  11.301   8.779
 2432POPC   D2A32308  10.750  11.419   8.396
 2432POPC   C3A32309  10.658  11.320   7.997
 2432POPC   C4A32310  10.765  11.416   7.550
 2432POPC   C1B32311  10.024  11.320   8.756
 2432POPC   C2B32312  10.241  11.522   8.407
 2432POPC   C3B32313  10.130  11.427   8.015
 2432POPC   C4B32314  10.298  11.254   7.667
 2433POPC   NC332315  13.461  29.986   9.529
 2433POPC   PO432316  14.116  30.169   9.567
 2433POPC   GL132317  13.796  30.121   9.208
 2433POPC   GL232318  13.784  29.737   9.222
 2433POPC   C1A32319  13.496  30.090   8.837
 2433POPC   D2A32320  13.645  30.190   8.404
 2433POPC   C3A32321  13.460  30.202   7.998
 2433POPC   C4A32322  13.818  30.231   7.722
 2433POPC   C1B32323  13.615  29.579   8.866
 2433POPC   C2B32324  13.601  29.681   8.478
 2433POPC   C3B32325  13.764  29.764   8.088
 2433POPC   C4B32326  13.596  29.775   7.743
 2434POPC   NC332327   0.210  10.840   9.598
 2434POPC   PO432328   0.580  10.269   9.435
 2434POPC   GL132329   0.551  10.555   9.102
 2434POPC   GL232330   0.216  10.584   9.134
 2434POPC   C1A32331   0.565  10.715   8.657
 2434POPC   D2A32332   0.509  10.537   8.213
 2434POPC   C3A32333   0.802  10.545   7.836
 2434POPC   C4A32334   0.814  10.359   7.392
 2434POPC   C1B32335   0.059  10.715   8.740
 2434POPC   C2B32336   0.118  10.840   8.372
 2434POPC   C3B32337   0.046  10.641   8.022
 2434POPC   C4B32338   0.295  10.544   7.672
 2435POPC   NC332339  41.467  34.076   9.417
 2435POPC   PO432340  41.414  34.811   9.522
 2435POPC   GL132341  41.596  34.809   9.158
 2435POPC   GL232342  41.610  34.463   9.120
 2435POPC   C1A32343  41.531  34.809   8.756
 2435POPC   D2A32344  41.704  34.628   8.403
 2435POPC   C3A32345  41.874  34.852   8.092
 2435POPC   C4A32346  41.515  34.926   7.828
 2435POPC   C1B32347  41.564  34.271   8.731
 2435POPC   C2B32348  41.494  34.174   8.267
 2435POPC   C3B32349  41.649  34.433   7.903
 2435POPC   C4B32350  41.796  34.264   7.479
 2436POPC   NC332351  38.688  19.697   9.537
 2436POPC   PO432352  38.766  20.298   9.289
 2436POPC   GL132353  38.487  20.114   8.991
 2436POPC   GL232354  38.464  19.771   9.080
 2436POPC   C1A32355  38.447  19.853   8.578
 2436POPC   D2A32356  38.617  19.534   8.271
 2436POPC   C3A32357  38.768  19.805   7.946
 2436POPC   C4A32358  38.614  20.163   7.755
 2436POPC   C1B32359  38.186  19.497   8.852
 2436POPC   C2B32360  38.067  19.410   8.444
 2436POPC   C3B32361  38.146  19.587   8.047
 2436POPC   C4B32362  38.268  19.787   7.695
 2437POPC   NC332363   6.753  36.394   9.344
 2437POPC   PO432364   6.652  37.013   9.426
 2437POPC   GL132365   6.799  36.896   9.077
 2437POPC   GL232366   6.822  37.245   8.971
 2437POPC   C1A32367   6.618  36.661   8.755
 2437POPC   D2A32368   6.595  36.870   8.416
 2437POPC   C3A32369   6.595  36.690   8.040
 2437POPC   C4A32370   6.684  36.957   7.712
 2437POPC   C1B32371   6.386  37.163   8.804
 2437POPC   C2B32372   6.116  37.047   8.458
 2437POPC   C3B32373   6.341  37.156   8.079
 2437POPC   C4B32374   6.406  37.394   7.725
 2438POPC   NC332375  44.067  44.374   9.504
 2438POPC   PO432376  43.640  44.820   9.724
 2438POPC   GL132377  43.725  44.843   9.261
 2438POPC   GL232378  43.794  44.539   9.111
 2438POPC   C1A32379  43.604  44.868   8.781
 2438POPC   D2A32380  43.650  44.968   8.323
 2438POPC   C3A32381  43.699  44.759   7.907
 2438POPC   C4A32382  43.765  44.884   7.478
 2438POPC   C1B32383  44.080  44.563   8.775
 2438POPC   C2B32384  43.985  44.552   8.343
 2438POPC   C3B32385  44.195  44.626   7.955
 2438POPC   C4B32386  44.051  44.464   7.579
 2439POPC   NC332387  10.222  33.292   9.507
 2439POPC   PO432388  10.894  33.116   9.538
 2439POPC   GL132389  10.610  33.041   9.151
 2439POPC   GL232390  10.251  33.054   9.064
 2439POPC   C1A32391  10.556  33.237   8.703
 2439POPC   D2A32392  10.333  33.353   8.294
 2439POPC   C3A32393  10.618  33.255   7.961
 2439POPC   C4A32394  10.622  32.950   7.640
 2439POPC   C1B32395  10.294  32.782   8.767
 2439POPC   C2B32396  10.447  32.858   8.384
 2439POPC   C3B32397  10.320  32.815   8.022
 2439POPC   C4B32398  10.163  32.740   7.636
 2440POPC   NC332399   6.116  13.057   9.641
 2440POPC   PO432400   6.678  12.632   9.550
 2440POPC   GL132401   6.636  12.828   9.179
 2440POPC   GL232402   6.406  13.103   9.200
 2440POPC   C1A32403   6.767  12.784   8.762
 2440POPC   D2A32404   6.589  12.934   8.368
 2440POPC   C3A32405   6.835  12.986   8.010
 2440POPC   C4A32406   6.846  12.716   7.672
 2440POPC   C1B32407   6.267  12.881   8.829
 2440POPC   C2B32408   6.086  12.900   8.451
 2440POPC   C3B32409   6.123  13.056   8.074
 2440POPC   C4B32410   6.387  12.946   7.756
 2441POPC   NC332411  20.205  28.557   9.557
 2441POPC   PO432412  20.337  27.900   9.492
 2441POPC   GL132413  20.463  28.151   9.117
 2441POPC   GL232414  20.541  28.499   9.168
 2441POPC   C1A32415  20.731  28.221   8.726
 2441POPC   D2A32416  20.833  27.950   8.347
 2441POPC   C3A32417  20.557  28.020   8.010
 2441POPC   C4A32418  20.276  28.208   7.769
 2441POPC   C1B32419  20.576  28.729   8.788
 2441POPC   C2B32420  20.551  28.796   8.376
 2441POPC   C3B32421  20.703  28.508   8.123
 2441POPC   C4B32422  20.790  28.450   7.733
 2442POPC   NC332423   5.025  26.239   9.796
 2442POPC   PO432424   5.388  25.929   9.348
 2442POPC   GL132425   5.150  25.954   9.030
 2442POPC   GL232426   5.072  26.244   9.096
 2442POPC   C1A32427   4.994  25.896   8.629
 2442POPC   D2A32428   4.855  26.148   8.302
 2442POPC   C3A32429   5.078  26.058   7.934
 2442POPC   C4A32430   4.909  25.931   7.563
 2442POPC   C1B32431   5.316  26.309   8.700
 2442POPC   C2B32432   5.320  26.393   8.258
 2442POPC   C3B32433   5.461  26.562   7.855
 2442POPC   C4B32434   5.529  26.457   7.423
 2443POPC   NC332435  38.036   9.016   9.429
 2443POPC   PO432436  38.684   8.819   9.472
 2443POPC   GL132437  38.517   8.807   9.093
 2443POPC   GL232438  38.608   8.524   8.946
 2443POPC   C1A32439  38.392   8.948   8.700
 2443POPC   D2A32440  38.326   8.852   8.280
 2443POPC   C3A32441  38.418   9.090   7.925
 2443POPC   C4A32442  38.361   9.439   7.630
 2443POPC   C1B32443  38.699   8.567   8.515
 2443POPC   C2B32444  38.680   8.493   8.108
 2443POPC   C3B32445  38.842   8.726   7.758
 2443POPC   C4B32446  38.537   8.918   7.462
 2444POPC   NC332447  24.303   6.343   9.427
 2444POPC   PO432448  24.693   6.863   9.541
 2444POPC   GL132449  24.568   6.688   9.164
 2444POPC   GL232450  24.311   6.885   9.100
 2444POPC   C1A32451  24.423   6.450   8.800
 2444POPC   D2A32452  24.505   6.646   8.422
 2444POPC   C3A32453  24.542   6.391   8.099
 2444POPC   C4A32454  24.550   6.666   7.760
 2444POPC   C1B32455  24.133   6.864   8.721
 2444POPC   C2B32456  23.997   6.572   8.433
 2444POPC   C3B32457  24.148   6.782   8.073
 2444POPC   C4B32458  24.078   6.844   7.656
 2445POPC   NC332459  21.516   3.892   9.467
 2445POPC   PO432460  21.139   3.288   9.555
 2445POPC   GL132461  21.332   3.424   9.176
 2445POPC   GL232462  21.530   3.684   9.016
 2445POPC   C1A32463  21.185   3.428   8.751
 2445POPC   D2A32464  21.416   3.475   8.388
 2445POPC   C3A32465  21.296   3.290   8.015
 2445POPC   C4A32466  21.571   3.326   7.679
 2445POPC   C1B32467  21.342   3.913   8.683
 2445POPC   C2B32468  21.005   3.822   8.429
 2445POPC   C3B32469  21.033   3.871   7.993
 2445POPC   C4B32470  21.217   3.682   7.628
 2446POPC   NC332471  24.347   2.557   9.625
 2446POPC   PO432472  24.867   2.931   9.414
 2446POPC   GL132473  24.587   2.789   9.116
 2446POPC   GL232474  24.323   3.012   9.134
 2446POPC   C1A32475  24.386   2.676   8.718
 2446POPC   D2A32476  24.291   2.470   8.322
 2446POPC   C3A32477  24.333   2.718   7.952
 2446POPC   C4A32478  24.515   2.952   7.601
 2446POPC   C1B32479  24.300   3.186   8.724
 2446POPC   C2B32480  24.334   3.091   8.295
 2446POPC   C3B32481  24.165   3.238   7.901
 2446POPC   C4B32482  24.084   3.160   7.444
 2447POPC   NC332483   6.403  42.354   9.492
 2447POPC   PO432484   7.052  42.196   9.504
 2447POPC   GL132485   6.731  42.134   9.152
 2447POPC   GL232486   6.413  41.923   9.223
 2447POPC   C1A32487   6.483  42.342   8.821
 2447POPC   D2A32488   6.471  42.540   8.409
 2447POPC   C3A32489   6.740  42.582   8.057
 2447POPC   C4A32490   6.525  42.754   7.683
 2447POPC   C1B32491   6.450  41.817   8.803
 2447POPC   C2B32492   6.681  42.020   8.476
 2447POPC   C3B32493   6.863  42.041   8.097
 2447POPC   C4B32494   6.753  42.189   7.700
 2448POPC   NC332495   2.568  31.712   9.698
 2448POPC   PO432496   3.114  31.224   9.574
 2448POPC   GL132497   2.983  31.343   9.190
 2448POPC   GL232498   2.648  31.491   9.245
 2448POPC   C1A32499   3.115  31.286   8.759
 2448POPC   D2A32500   2.881  31.390   8.391
 2448POPC   C3A32501   3.092  31.412   7.995
 2448POPC   C4A32502   3.123  31.191   7.601
 2448POPC   C1B32503   2.737  31.651   8.830
 2448POPC   C2B32504   2.611  31.824   8.427
 2448POPC   C3B32505   2.568  31.609   8.024
 2448POPC   C4B32506   2.708  31.515   7.614
 2449POPC   NC332507  21.643  27.762   9.525
 2449POPC   PO432508  21.158  27.337   9.588
 2449POPC   GL132509  21.293  27.500   9.160
 2449POPC   GL232510  21.437  27.799   9.043
 2449POPC   C1A32511  21.428  27.421   8.724
 2449POPC   D2A32512  21.652  27.272   8.388
 2449POPC   C3A32513  21.578  27.520   8.053
 2449POPC   C4A32514  21.523  27.724   7.649
 2449POPC   C1B32515  21.807  27.838   8.836
 2449POPC   C2B32516  21.918  27.749   8.421
 2449POPC   C3B32517  21.915  27.886   7.993
 2449POPC   C4B32518  21.975  27.540   7.672
 2450POPC   NC332519  35.351  36.592   9.498
 2450POPC   PO432520  35.359  35.857   9.447
 2450POPC   GL132521  35.390  36.199   9.187
 2450POPC   GL232522  35.068  36.332   9.126
 2450POPC   C1A32523  35.486  36.374   8.789
 2450POPC   D2A32524  35.703  36.235   8.436
 2450POPC   C3A32525  35.464  36.188   8.070
 2450POPC   C4A32526  35.644  36.225   7.709
 2450POPC   C1B32527  35.129  35.965   8.830
 2450POPC   C2B32528  35.092  35.959   8.421
 2450POPC   C3B32529  35.025  35.713   8.091
 2450POPC   C4B32530  35.199  35.845   7.739
 2451POPC   NC332531  21.624   6.752   9.881
 2451POPC   PO432532  21.550   6.839   9.242
 2451POPC   GL132533  21.495   6.432   9.167
 2451POPC   GL232534  21.152   6.317   9.172
 2451POPC   C1A32535  21.484   6.269   8.782
 2451POPC   D2A32536  21.598   6.470   8.402
 2451POPC   C3A32537  21.404   6.388   8.007
 2451POPC   C4A32538  21.569   6.614   7.675
 2451POPC   C1B32539  21.087   6.562   8.764
 2451POPC   C2B32540  21.027   6.492   8.352
 2451POPC   C3B32541  20.898   6.777   8.055
 2451POPC   C4B32542  21.063   6.670   7.685
 2452POPC   NC332543   4.653  22.339   9.309
 2452POPC   PO432544   4.100  22.149   9.548
 2452POPC   GL132545   4.238  22.127   9.099
 2452POPC   GL232546   4.450  21.830   9.116
 2452POPC   C1A32547   4.352  22.369   8.681
 2452POPC   D2A32548   4.277  22.301   8.212
 2452POPC   C3A32549   4.250  22.387   7.745
 2452POPC   C4A32550   4.422  22.474   7.318
 2452POPC   C1B32551   4.329  21.871   8.659
 2452POPC   C2B32552   4.069  21.856   8.269
 2452POPC   C3B32553   4.278  21.859   7.873
 2452POPC   C4B32554   4.476  21.985   7.488
 2453POPC   NC332555  35.390  11.382   9.629
 2453POPC   PO432556  34.814  11.348   9.624
 2453POPC   GL132557  35.113  11.338   9.211
 2453POPC   GL232558  35.482  11.412   9.123
 2453POPC   C1A32559  35.147  11.397   8.752
 2453POPC   D2A32560  35.395  11.529   8.348
 2453POPC   C3A32561  35.303  11.326   7.955
 2453POPC   C4A32562  35.390  11.320   7.531
 2453POPC   C1B32563  35.629  11.212   8.696
 2453POPC   C2B32564  35.727  11.110   8.228
 2453POPC   C3B32565  35.827  11.021   7.764
 2453POPC   C4B32566  35.815  11.148   7.296
 2454POPC   NC332567  26.504  18.877   9.524
 2454POPC   PO432568  27.165  18.894   9.585
 2454POPC   GL132569  26.931  19.179   9.324
 2454POPC   GL232570  26.849  18.905   9.160
 2454POPC   C1A32571  26.945  19.312   8.867
 2454POPC   D2A32572  26.765  19.228   8.460
 2454POPC   C3A32573  26.961  19.301   8.055
 2454POPC   C4A32574  26.741  19.292   7.673
 2454POPC   C1B32575  26.654  18.840   8.798
 2454POPC   C2B32576  26.756  18.721   8.412
 2454POPC   C3B32577  26.685  18.856   8.018
 2454POPC   C4B32578  26.600  18.570   7.716
 2455POPC   NC332579   9.480  40.285   9.593
 2455POPC   PO432580  10.032  39.956   9.807
 2455POPC   GL132581   9.910  39.984   9.325
 2455POPC   GL232582  10.198  39.967   9.072
 2455POPC   C1A32583   9.763  40.163   8.886
 2455POPC   D2A32584   9.891  40.018   8.464
 2455POPC   C3A32585   9.714  40.127   8.057
 2455POPC   C4A32586   9.567  39.776   7.890
 2455POPC   C1B32587  10.250  40.306   8.750
 2455POPC   C2B32588  10.178  40.401   8.303
 2455POPC   C3B32589  10.207  40.031   8.047
 2455POPC   C4B32590  10.038  39.897   7.659
 2456POPC   NC332591  29.615  33.659   9.305
 2456POPC   PO432592  30.146  34.045   9.545
 2456POPC   GL132593  30.038  34.000   9.131
 2456POPC   GL232594  30.047  33.679   9.029
 2456POPC   C1A32595  30.124  34.115   8.702
 2456POPC   D2A32596  29.940  33.991   8.300
 2456POPC   C3A32597  30.066  34.153   7.958
 2456POPC   C4A32598  30.025  34.017   7.548
 2456POPC   C1B32599  29.919  33.630   8.638
 2456POPC   C2B32600  30.225  33.539   8.331
 2456POPC   C3B32601  30.181  33.644   7.898
 2456POPC   C4B32602  29.877  33.523   7.565
 2457POPC   NC332603  19.236  28.316   9.575
 2457POPC   PO432604  19.791  28.651   9.733
 2457POPC   GL132605  19.662  28.436   9.311
 2457POPC   GL232606  19.888  28.599   9.092
 2457POPC   C1A32607  19.556  28.307   8.856
 2457POPC   D2A32608  19.795  28.267   8.473
 2457POPC   C3A32609  19.647  28.383   8.063
 2457POPC   C4A32610  19.775  28.232   7.668
 2457POPC   C1B32611  20.169  28.425   8.804
 2457POPC   C2B32612  20.313  28.292   8.412
 2457POPC   C3B32613  20.159  28.580   8.116
 2457POPC   C4B32614  20.103  28.666   7.710
 2458POPC   NC332615  25.265  15.130   9.581
 2458POPC   PO432616  25.829  15.107   9.619
 2458POPC   GL132617  25.584  15.196   9.161
 2458POPC   GL232618  25.190  15.266   9.085
 2458POPC   C1A32619  25.526  15.313   8.682
 2458POPC   D2A32620  25.213  15.418   8.330
 2458POPC   C3A32621  25.214  15.284   7.877
 2458POPC   C4A32622  25.090  15.518   7.471
 2458POPC   C1B32623  25.106  15.020   8.693
 2458POPC   C2B32624  25.293  14.898   8.268
 2458POPC   C3B32625  25.198  14.751   7.847
 2458POPC   C4B32626  25.250  14.830   7.430
 2459POPC   NC332627  17.342  36.712   9.407
 2459POPC   PO432628  17.142  37.327   9.190
 2459POPC   GL132629  17.396  37.052   9.022
 2459POPC   GL232630  17.734  37.043   9.180
 2459POPC   C1A32631  17.253  36.772   8.731
 2459POPC   D2A32632  17.137  36.572   8.356
 2459POPC   C3A32633  17.256  36.803   8.052
 2459POPC   C4A32634  17.195  36.911   7.680
 2459POPC   C1B32635  17.791  36.875   8.767
 2459POPC   C2B32636  17.633  36.887   8.383
 2459POPC   C3B32637  17.779  36.796   7.983
 2459POPC   C4B32638  17.769  37.091   7.668
 2460POPC   NC332639  19.443  35.583   9.372
 2460POPC   PO432640  18.861  35.210   9.459
 2460POPC   GL132641  18.920  35.237   9.044
 2460POPC   GL232642  18.905  35.591   9.057
 2460POPC   C1A32643  19.251  35.380   8.749
 2460POPC   D2A32644  19.233  35.579   8.360
 2460POPC   C3A32645  19.282  35.275   8.059
 2460POPC   C4A32646  19.480  35.176   7.699
 2460POPC   C1B32647  18.743  35.510   8.634
 2460POPC   C2B32648  18.798  35.373   8.203
 2460POPC   C3B32649  18.836  35.233   7.766
 2460POPC   C4B32650  18.728  35.483   7.379
 2461POPC   NC332651  33.701  41.699   9.626
 2461POPC   PO432652  33.948  41.162   9.226
 2461POPC   GL132653  33.908  41.584   9.159
 2461POPC   GL232654  33.549  41.628   9.151
 2461POPC   C1A32655  33.871  41.752   8.771
 2461POPC   D2A32656  33.625  41.610   8.422
 2461POPC   C3A32657  33.895  41.772   8.107
 2461POPC   C4A32658  34.164  41.687   7.761
 2461POPC   C1B32659  33.391  41.903   8.814
 2461POPC   C2B32660  33.592  42.100   8.467
 2461POPC   C3B32661  33.420  41.898   8.052
 2461POPC   C4B32662  33.601  41.722   7.689
 2462POPC   NC332663  15.007   2.262   9.737
 2462POPC   PO432664  15.282   1.646   9.509
 2462POPC   GL132665  15.295   1.880   9.149
 2462POPC   GL232666  14.993   1.743   9.076
 2462POPC   C1A32667  15.413   2.008   8.726
 2462POPC   D2A32668  15.472   1.841   8.307
 2462POPC   C3A32669  15.239   1.922   7.935
 2462POPC   C4A32670  15.355   2.128   7.569
 2462POPC   C1B32671  14.858   1.831   8.700
 2462POPC   C2B32672  14.940   2.051   8.330
 2462POPC   C3B32673  14.917   2.345   7.976
 2462POPC   C4B32674  14.879   2.333   7.532
 2463POPC   NC332675   5.025  39.980   9.407
 2463POPC   PO432676   5.662  40.243   9.592
 2463POPC   GL132677   5.494  40.025   9.151
 2463POPC   GL232678   5.131  40.188   8.943
 2463POPC   C1A32679   5.337  39.785   8.775
 2463POPC   D2A32680   5.184  40.050   8.454
 2463POPC   C3A32681   5.117  39.956   8.053
 2463POPC   C4A32682   5.259  40.171   7.714
 2463POPC   C1B32683   4.767  39.990   8.793
 2463POPC   C2B32684   4.558  40.085   8.437
 2463POPC   C3B32685   4.694  40.207   8.041
 2463POPC   C4B32686   4.781  39.998   7.638
 2464POPC   NC332687  27.381  11.665   9.504
 2464POPC   PO432688  27.618  10.992   9.482
 2464POPC   GL132689  27.654  11.136   9.120
 2464POPC   GL232690  27.722  11.450   9.173
 2464POPC   C1A32691  27.469  11.152   8.724
 2464POPC   D2A32692  27.515  10.933   8.351
 2464POPC   C3A32693  27.482  11.205   7.987
 2464POPC   C4A32694  27.765  11.098   7.679
 2464POPC   C1B32695  27.921  11.397   8.776
 2464POPC   C2B32696  27.770  11.398   8.365
 2464POPC   C3B32697  27.938  11.472   7.981
 2464POPC   C4B32698  27.847  11.579   7.554
 2465POPC   NC332699  35.237  13.453   9.408
 2465POPC   PO432700  35.099  14.157   9.427
 2465POPC   GL132701  35.255  13.880   9.102
 2465POPC   GL232702  34.969  13.682   9.010
 2465POPC   C1A32703  35.467  13.564   8.802
 2465POPC   D2A32704  35.630  13.371   8.415
 2465POPC   C3A32705  35.607  13.678   8.074
 2465POPC   C4A32706  35.287  13.726   7.752
 2465POPC   C1B32707  35.018  13.449   8.611
 2465POPC   C2B32708  35.149  13.508   8.219
 2465POPC   C3B32709  35.161  13.252   7.867
 2465POPC   C4B32710  34.886  13.114   7.573
 2466POPC   NC332711   4.788   1.943   9.709
 2466POPC   PO432712   5.442   1.974   9.548
 2466POPC   GL132713   5.099   1.934   9.257
 2466POPC   GL232714   4.876   2.211   9.280
 2466POPC   C1A32715   5.160   1.845   8.828
 2466POPC   D2A32716   5.411   1.929   8.485
 2466POPC   C3A32717   5.242   1.772   8.169
 2466POPC   C4A32718   5.126   1.824   7.764
 2466POPC   C1B32719   4.990   2.327   8.862
 2466POPC   C2B32720   4.997   2.281   8.446
 2466POPC   C3B32721   5.141   2.253   8.060
 2466POPC   C4B32722   4.910   2.293   7.689
 2467POPC   NC332723  10.265   7.588   9.477
 2467POPC   PO432724  10.810   7.157   9.505
 2467POPC   GL132725  10.844   7.342   9.104
 2467POPC   GL232726  10.491   7.426   9.043
 2467POPC   C1A32727  10.819   7.358   8.647
 2467POPC   D2A32728  10.512   7.488   8.332
 2467POPC   C3A32729  10.591   7.549   7.914
 2467POPC   C4A32730  10.833   7.278   7.682
 2467POPC   C1B32731  10.280   7.211   8.699
 2467POPC   C2B32732  10.279   7.025   8.298
 2467POPC   C3B32733  10.242   7.176   7.901
 2467POPC   C4B32734  10.409   7.113   7.503
 2468POPC   NC332735  15.687  25.450   9.480
 2468POPC   PO432736  16.261  25.187   9.479
 2468POPC   GL132737  15.990  25.248   9.094
 2468POPC   GL232738  16.142  25.086   8.801
 2468POPC   C1A32739  15.724  25.314   8.689
 2468POPC   D2A32740  15.952  25.222   8.298
 2468POPC   C3A32741  15.862  25.382   7.911
 2468POPC   C4A32742  15.728  25.077   7.647
 2468POPC   C1B32743  16.241  25.450   8.635
 2468POPC   C2B32744  16.461  25.342   8.320
 2468POPC   C3B32745  16.340  25.185   7.932
 2468POPC   C4B32746  16.206  25.326   7.534
 2469POPC   NC332747  22.556  42.022   9.653
 2469POPC   PO432748  22.161  41.395   9.504
 2469POPC   GL132749  22.072  41.672   9.198
 2469POPC   GL232750  22.433  41.689   9.159
 2469POPC   C1A32751  22.029  41.702   8.764
 2469POPC   D2A32752  22.264  41.683   8.415
 2469POPC   C3A32753  22.009  41.644   8.083
 2469POPC   C4A32754  22.192  41.745   7.696
 2469POPC   C1B32755  22.422  41.369   8.802
 2469POPC   C2B32756  22.481  41.197   8.392
 2469POPC   C3B32757  22.396  41.348   8.000
 2469POPC   C4B32758  22.248  41.177   7.650
 2470POPC   NC332759  39.462  27.359   9.815
 2470POPC   PO432760  39.366  26.767   9.480
 2470POPC   GL132761  39.106  26.815   9.136
 2470POPC   GL232762  39.159  26.496   9.006
 2470POPC   C1A32763  39.213  26.964   8.729
 2470POPC   D2A32764  39.292  26.801   8.307
 2470POPC   C3A32765  39.079  26.999   7.963
 2470POPC   C4A32766  39.358  27.270   7.764
 2470POPC   C1B32767  38.960  26.523   8.609
 2470POPC   C2B32768  38.919  26.494   8.162
 2470POPC   C3B32769  39.189  26.508   7.833
 2470POPC   C4B32770  39.075  26.638   7.403
 2471POPC   NC332771   4.285  17.945   9.494
 2471POPC   PO432772   4.006  17.361   9.356
 2471POPC   GL132773   4.374  17.546   9.144
 2471POPC   GL232774   4.591  17.854   9.112
 2471POPC   C1A32775   4.605  17.482   8.787
 2471POPC   D2A32776   4.560  17.706   8.446
 2471POPC   C3A32777   4.523  17.381   8.139
 2471POPC   C4A32778   4.672  17.177   7.793
 2471POPC   C1B32779   4.191  17.849   8.798
 2471POPC   C2B32780   4.078  17.804   8.331
 2471POPC   C3B32781   4.409  17.863   7.980
 2471POPC   C4B32782   4.393  17.806   7.500
 2472POPC   NC332783  24.450  25.771   9.668
 2472POPC   PO432784  24.544  26.426   9.633
 2472POPC   GL132785  24.545  26.081   9.294
 2472POPC   GL232786  24.276  26.051   9.052
 2472POPC   C1A32787  24.788  25.989   8.923
 2472POPC   D2A32788  24.811  26.021   8.466
 2472POPC   C3A32789  24.482  25.902   8.143
 2472POPC   C4A32790  24.533  25.964   7.676
 2472POPC   C1B32791  23.988  26.255   8.759
 2472POPC   C2B32792  24.139  26.281   8.335
 2472POPC   C3B32793  24.116  26.227   7.890
 2472POPC   C4B32794  24.063  26.039   7.492
 2473POPC   NC332795  14.277  35.874   9.453
 2473POPC   PO432796  14.705  36.343   9.396
 2473POPC   GL132797  14.480  36.108   9.057
 2473POPC   GL232798  14.105  36.209   9.100
 2473POPC   C1A32799  14.557  35.952   8.632
 2473POPC   D2A32800  14.610  36.299   8.317
 2473POPC   C3A32801  14.640  36.240   7.875
 2473POPC   C4A32802  14.692  35.842   7.740
 2473POPC   C1B32803  14.051  35.974   8.709
 2473POPC   C2B32804  14.184  35.857   8.282
 2473POPC   C3B32805  14.150  36.058   7.893
 2473POPC   C4B32806  13.957  36.406   7.649
 2474POPC   NC332807  25.697   5.255   9.473
 2474POPC   PO432808  26.267   4.928   9.712
 2474POPC   GL132809  26.183   5.051   9.270
 2474POPC   GL232810  26.099   5.401   9.177
 2474POPC   C1A32811  26.112   5.022   8.816
 2474POPC   D2A32812  26.041   4.725   8.469
 2474POPC   C3A32813  26.178   4.854   8.057
 2474POPC   C4A32814  26.350   5.222   7.821
 2474POPC   C1B32815  25.903   5.484   8.750
 2474POPC   C2B32816  25.946   5.239   8.365
 2474POPC   C3B32817  25.861   5.270   7.952
 2474POPC   C4B32818  25.932   5.554   7.662
 2475POPC   NC332819  39.423  25.629   9.529
 2475POPC   PO432820  39.073  24.951   9.548
 2475POPC   GL132821  39.184  25.223   9.229
 2475POPC   GL232822  39.550  25.238   9.207
 2475POPC   C1A32823  39.064  25.227   8.803
 2475POPC   D2A32824  39.196  25.117   8.400
 2475POPC   C3A32825  39.071  25.394   8.082
 2475POPC   C4A32826  38.895  25.399   7.691
 2475POPC   C1B32827  39.539  24.948   8.853
 2475POPC   C2B32828  39.505  24.738   8.465
 2475POPC   C3B32829  39.520  24.888   8.040
 2475POPC   C4B32830  39.448  25.207   7.724
 2476POPC   NC332831  21.976   6.997   9.368
 2476POPC   PO432832  22.307   6.496   9.704
 2476POPC   GL132833  22.367   6.678   9.305
 2476POPC   GL232834  22.216   6.407   9.170
 2476POPC   C1A32835  22.308   6.859   8.853
 2476POPC   D2A32836  21.952   6.823   8.578
 2476POPC   C3A32837  22.032   6.668   8.166
 2476POPC   C4A32838  21.992   6.907   7.791
 2476POPC   C1B32839  21.987   6.248   8.836
 2476POPC   C2B32840  22.084   6.141   8.412
 2476POPC   C3B32841  21.886   6.194   8.042
 2476POPC   C4B32842  22.012   6.382   7.721
 2477POPC   NC332843  13.623   0.140   9.480
 2477POPC   PO432844  13.823   0.721   9.345
 2477POPC   GL132845  13.595   0.598   8.992
 2477POPC   GL232846  13.454   0.950   9.073
 2477POPC   C1A32847  13.648   0.169   8.752
 2477POPC   D2A32848  13.845   0.077   8.319
 2477POPC   C3A32849  13.817   0.372   7.951
 2477POPC   C4A32850  13.508   0.253   7.624
 2477POPC   C1B32851  13.326   0.885   8.658
 2477POPC   C2B32852  13.513   0.564   8.417
 2477POPC   C3B32853  13.335   0.487   8.036
 2477POPC   C4B32854  13.444   0.736   7.690
 2478POPC   NC332855  10.741  41.869   9.442
 2478POPC   PO432856  10.585  42.540   9.491
 2478POPC   GL132857  10.573  42.261   9.152
 2478POPC   GL232858  10.911  42.165   9.082
 2478POPC   C1A32859  10.283  42.225   8.810
 2478POPC   D2A32860  10.103  42.428   8.461
 2478POPC   C3A32861  10.137  42.282   8.047
 2478POPC   C4A32862  10.354  42.606   7.859
 2478POPC   C1B32863  10.788  42.248   8.696
 2478POPC   C2B32864  10.900  42.140   8.348
 2478POPC   C3B32865  10.664  42.204   8.018
 2478POPC   C4B32866  10.503  41.913   7.787
 2479POPC   NC332867  39.617  39.036   9.490
 2479POPC   PO432868  38.897  39.063   9.531
 2479POPC   GL132869  39.192  39.108   9.211
 2479POPC   GL232870  39.343  39.407   9.110
 2479POPC   C1A32871  39.204  39.066   8.762
 2479POPC   D2A32872  39.442  38.964   8.415
 2479POPC   C3A32873  39.237  39.112   8.044
 2479POPC   C4A32874  39.343  39.316   7.660
 2479POPC   C1B32875  39.033  39.541   8.864
 2479POPC   C2B32876  39.185  39.467   8.442
 2479POPC   C3B32877  39.077  39.596   8.017
 2479POPC   C4B32878  39.264  39.860   7.706
 2480POPC   NC332879  35.146   0.030   9.468
 2480POPC   PO432880  35.603   0.498   9.467
 2480POPC   GL132881  35.575   0.229   9.153
 2480POPC   GL232882  35.258   0.274   9.013
 2480POPC   C1A32883  35.684   0.136   8.754
 2480POPC   D2A32884  35.397   0.159   8.409
 2480POPC   C3A32885  35.385   0.365   7.995
 2480POPC   C4A32886  35.176   0.246   7.573
 2480POPC   C1B32887  35.479   0.585   8.736
 2480POPC   C2B32888  35.532   0.904   8.419
 2480POPC   C3B32889  35.329   0.891   8.035
 2480POPC   C4B32890  35.340   0.732   7.622
 2481POPC   NC332891  26.289  26.743   9.678
 2481POPC   PO432892  25.870  27.121   9.357
 2481POPC   GL132893  26.222  26.956   9.114
 2481POPC   GL232894  26.207  26.612   9.182
 2481POPC   C1A32895  26.190  27.134   8.703
 2481POPC   D2A32896  25.815  27.185   8.386
 2481POPC   C3A32897  25.952  27.176   7.944
 2481POPC   C4A32898  26.366  27.318   7.961
 2481POPC   C1B32899  26.152  26.612   8.710
 2481POPC   C2B32900  26.221  26.833   8.293
 2481POPC   C3B32901  26.070  26.677   7.894
 2481POPC   C4B32902  25.731  26.429   7.691
 2482POPC   NC332903  12.714  41.035   9.346
 2482POPC   PO432904  13.376  40.971   9.407
 2482POPC   GL132905  13.080  40.863   9.034
 2482POPC   GL232906  12.822  40.562   9.107
 2482POPC   C1A32907  12.827  40.775   8.630
 2482POPC   D2A32908  12.558  41.044   8.327
 2482POPC   C3A32909  12.635  40.978   7.879
 2482POPC   C4A32910  12.703  41.000   7.427
 2482POPC   C1B32911  13.195  40.404   8.868
 2482POPC   C2B32912  13.327  40.556   8.457
 2482POPC   C3B32913  13.121  40.549   8.064
 2482POPC   C4B32914  13.042  40.737   7.686
 2483POPC   NC332915   9.198   3.765   9.275
 2483POPC   PO432916   8.876   4.401   9.464
 2483POPC   GL132917   8.873   4.149   9.128
 2483POPC   GL232918   9.226   4.228   8.990
 2483POPC   C1A32919   8.790   4.284   8.737
 2483POPC   D2A32920   9.007   4.259   8.346
 2483POPC   C3A32921   8.731   4.464   8.116
 2483POPC   C4A32922   8.590   4.538   7.725
 2483POPC   C1B32923   9.191   4.606   8.684
 2483POPC   C2B32924   9.196   4.746   8.253
 2483POPC   C3B32925   9.149   4.543   7.848
 2483POPC   C4B32926   9.195   4.558   7.412
 2484POPC   NC332927  17.091  20.422   9.396
 2484POPC   PO432928  17.612  20.710   9.528
 2484POPC   GL132929  17.656  20.803   9.114
 2484POPC   GL232930  17.349  20.924   8.985
 2484POPC   C1A32931  17.695  20.734   8.662
 2484POPC   D2A32932  17.394  20.733   8.330
 2484POPC   C3A32933  17.582  20.451   8.083
 2484POPC   C4A32934  17.736  20.583   7.705
 2484POPC   C1B32935  17.187  20.532   8.757
 2484POPC   C2B32936  17.176  20.229   8.389
 2484POPC   C3B32937  17.105  20.325   7.962
 2484POPC   C4B32938  17.198  20.749   7.832
 2485POPC   NC332939  15.535   0.091   9.389
 2485POPC   PO432940  16.122   0.532   9.562
 2485POPC   GL132941  15.991   0.673   9.134
 2485POPC   GL232942  15.943   0.343   9.070
 2485POPC   C1A32943  15.844   0.661   8.676
 2485POPC   D2A32944  15.723   0.840   8.305
 2485POPC   C3A32945  15.749   0.620   7.900
 2485POPC   C4A32946  16.022   0.519   7.547
 2485POPC   C1B32947  15.711   0.178   8.707
 2485POPC   C2B32948  15.833   0.268   8.290
 2485POPC   C3B32949  15.907   0.146   7.870
 2485POPC   C4B32950  15.615   0.206   7.571
 2486POPC   NC332951  42.782   4.157   9.450
 2486POPC   PO432952  43.248   4.679   9.517
 2486POPC   GL132953  43.280   4.447   9.143
 2486POPC   GL232954  42.949   4.474   9.092
 2486POPC   C1A32955  43.195   4.238   8.737
 2486POPC   D2A32956  43.320   4.167   8.343
 2486POPC   C3A32957  43.151   4.281   7.934
 2486POPC   C4A32958  43.442   4.075   7.735
 2486POPC   C1B32959  42.791   4.535   8.650
 2486POPC   C2B32960  42.578   4.620   8.268
 2486POPC   C3B32961  42.713   4.653   7.878
 2486POPC   C4B32962  42.763   4.506   7.477
 2487POPC   NC332963  32.570  30.523   9.461
 2487POPC   PO432964  33.248  30.407   9.644
 2487POPC   GL132965  33.293  30.582   9.217
 2487POPC   GL232966  33.281  30.961   9.225
 2487POPC   C1A32967  33.096  30.623   8.770
 2487POPC   D2A32968  32.842  30.746   8.365
 2487POPC   C3A32969  32.978  30.729   7.918
 2487POPC   C4A32970  33.179  30.599   7.522
 2487POPC   C1B32971  33.219  31.124   8.819
 2487POPC   C2B32972  33.347  30.928   8.435
 2487POPC   C3B32973  33.407  31.020   8.040
 2487POPC   C4B32974  33.249  31.070   7.657
 2488POPC   NC332975  13.280  24.515   9.272
 2488POPC   PO432976  12.675  24.622   9.556
 2488POPC   GL132977  12.639  24.412   9.139
 2488POPC   GL232978  12.937  24.394   8.953
 2488POPC   C1A32979  12.536  24.478   8.701
 2488POPC   D2A32980  12.822  24.384   8.395
 2488POPC   C3A32981  12.656  24.422   8.004
 2488POPC   C4A32982  12.678  24.495   7.577
 2488POPC   C1B32983  13.082  24.705   8.683
 2488POPC   C2B32984  13.291  24.643   8.339
 2488POPC   C3B32985  13.084  24.706   7.973
 2488POPC   C4B32986  13.068  25.057   7.709
 2489POPC   NC332987   8.304  32.089   9.433
 2489POPC   PO432988   8.323  32.716   9.483
 2489POPC   GL132989   8.283  32.468   9.099
 2489POPC   GL232990   7.914  32.374   9.129
 2489POPC   C1A32991   8.342  32.107   8.779
 2489POPC   D2A32992   8.117  31.976   8.398
 2489POPC   C3A32993   8.337  32.024   8.023
 2489POPC   C4A32994   8.189  31.934   7.628
 2489POPC   C1B32995   8.003  32.476   8.675
 2489POPC   C2B32996   8.132  32.470   8.246
 2489POPC   C3B32997   7.889  32.261   7.945
 2489POPC   C4B32998   7.907  32.333   7.504
 2490POPC   NC332999   3.893  25.127   9.576
 2490POPC   PO433000   4.504  25.503   9.545
 2490POPC   GL133001   4.367  25.413   9.124
 2490POPC   GL233002   4.339  25.082   9.118
 2490POPC   C1A33003   4.121  25.377   8.706
 2490POPC   D2A33004   4.285  25.409   8.264
 2490POPC   C3A33005   4.095  25.267   7.871
 2490POPC   C4A33006   4.097  25.427   7.448
 2490POPC   C1B33007   4.533  25.085   8.716
 2490POPC   C2B33008   4.401  24.915   8.317
 2490POPC   C3B33009   4.551  25.027   7.932
 2490POPC   C4B33010   4.386  25.032   7.520
 2491POPC   NC333011  25.463  18.172   9.335
 2491POPC   PO433012  25.093  18.787   9.432
 2491POPC   GL133013  25.317  18.610   9.151
 2491POPC   GL233014  25.057  18.407   9.059
 2491POPC   C1A33015  25.482  18.479   8.752
 2491POPC   D2A33016  25.244  18.394   8.397
 2491POPC   C3A33017  25.449  18.425   8.011
 2491POPC   C4A33018  25.374  18.424   7.577
 2491POPC   C1B33019  24.975  18.121   8.752
 2491POPC   C2B33020  24.982  17.922   8.351
 2491POPC   C3B33021  25.064  18.017   7.894
 2491POPC   C4B33022  25.100  18.026   7.419
 2492POPC   NC333023  11.498  14.870   9.881
 2492POPC   PO433024  11.060  15.231   9.581
 2492POPC   GL133025  11.242  15.200   9.191
 2492POPC   GL233026  11.105  15.532   9.135
 2492POPC   C1A33027  11.453  15.154   8.782
 2492POPC   D2A33028  11.251  14.958   8.400
 2492POPC   C3A33029  11.394  15.059   7.944
 2492POPC   C4A33030  11.317  14.932   7.493
 2492POPC   C1B33031  11.099  15.517   8.700
 2492POPC   C2B33032  11.301  15.460   8.338
 2492POPC   C3B33033  11.200  15.592   7.974
 2492POPC   C4B33034  11.139  15.390   7.594
 2493POPC   NC333035  28.978   4.911   9.556
 2493POPC   PO433036  29.556   5.291   9.561
 2493POPC   GL133037  29.370   5.023   9.232
 2493POPC   GL233038  29.079   5.258   9.177
 2493POPC   C1A33039  29.142   4.834   8.842
 2493POPC   D2A33040  28.979   5.007   8.444
 2493POPC   C3A33041  29.141   4.864   8.048
 2493POPC   C4A33042  29.063   5.028   7.658
 2493POPC   C1B33043  29.330   5.299   8.807
 2493POPC   C2B33044  29.330   5.403   8.394
 2493POPC   C3B33045  29.133   5.395   8.029
 2493POPC   C4B33046  28.898   5.505   7.699
 2494POPC   NC333047  37.030  26.972   9.584
 2494POPC   PO433048  36.609  26.539   9.605
 2494POPC   GL133049  36.737  26.670   9.176
 2494POPC   GL233050  36.770  27.034   9.165
 2494POPC   C1A33051  36.903  26.795   8.745
 2494POPC   D2A33052  37.176  26.918   8.416
 2494POPC   C3A33053  37.085  26.628   8.122
 2494POPC   C4A33054  36.969  26.824   7.793
 2494POPC   C1B33055  36.585  27.228   8.810
 2494POPC   C2B33056  36.453  27.296   8.428
 2494POPC   C3B33057  36.643  27.100   8.091
 2494POPC   C4B33058  36.615  27.177   7.662
 2495POPC   NC333059   9.195   0.176   9.576
 2495POPC   PO433060   8.807   0.601   9.499
 2495POPC   GL133061   8.946   0.410   9.163
 2495POPC   GL233062   9.257   0.525   9.199
 2495POPC   C1A33063   8.866   0.559   8.751
 2495POPC   D2A33064   8.617   0.316   8.489
 2495POPC   C3A33065   8.856   0.389   8.136
 2495POPC   C4A33066   8.918   0.689   7.807
 2495POPC   C1B33067   9.360   0.390   8.800
 2495POPC   C2B33068   9.329   0.539   8.397
 2495POPC   C3B33069   9.335   0.432   7.957
 2495POPC   C4B33070   9.287   0.513   7.501
 2496POPC   NC333071   3.997  36.208   9.703
 2496POPC   PO433072   4.600  35.940   9.444
 2496POPC   GL133073   4.436  36.064   9.066
 2496POPC   GL233074   4.124  36.160   9.166
 2496POPC   C1A33075   4.373  35.943   8.621
 2496POPC   D2A33076   4.091  36.035   8.273
 2496POPC   C3A33077   4.317  36.149   7.950
 2496POPC   C4A33078   4.544  35.828   7.846
 2496POPC   C1B33079   3.913  36.169   8.771
 2496POPC   C2B33080   3.898  36.485   8.442
 2496POPC   C3B33081   3.867  36.417   8.008
 2496POPC   C4B33082   4.035  36.420   7.602
 2497POPC   NC333083   1.827   6.989   9.322
 2497POPC   PO433084   1.855   6.323   9.508
 2497POPC   GL133085   1.873   6.514   9.130
 2497POPC   GL233086   2.201   6.681   9.093
 2497POPC   C1A33087   1.948   6.422   8.712
 2497POPC   D2A33088   1.903   6.631   8.327
 2497POPC   C3A33089   1.972   6.431   7.936
 2497POPC   C4A33090   1.789   6.640   7.629
 2497POPC   C1B33091   2.066   6.960   8.714
 2497POPC   C2B33092   2.230   7.233   8.392
 2497POPC   C3B33093   2.190   6.970   8.023
 2497POPC   C4B33094   2.274   6.751   7.655
 2498POPC   NC333095   7.383  23.550   9.474
 2498POPC   PO433096   7.566  24.218   9.525
 2498POPC   GL133097   7.516  23.983   9.075
 2498POPC   GL233098   7.388  23.660   8.996
 2498POPC   C1A33099   7.595  23.902   8.611
 2498POPC   D2A33100   7.324  23.957   8.253
 2498POPC   C3A33101   7.523  23.836   7.891
 2498POPC   C4A33102   7.509  23.863   7.443
 2498POPC   C1B33103   7.190  23.349   8.756
 2498POPC   C2B33104   7.043  23.416   8.345
 2498POPC   C3B33105   7.246  23.268   8.016
 2498POPC   C4B33106   7.385  23.408   7.642
 2499POPC   NC333107   5.417  26.413   9.416
 2499POPC   PO433108   4.896  26.691   9.768
 2499POPC   GL133109   5.019  26.724   9.299
 2499POPC   GL233110   4.729  26.605   9.119
 2499POPC   C1A33111   5.092  26.870   8.820
 2499POPC   D2A33112   4.974  27.190   8.458
 2499POPC   C3A33113   4.916  27.058   7.998
 2499POPC   C4A33114   5.099  26.903   7.604
 2499POPC   C1B33115   4.829  26.449   8.717
 2499POPC   C2B33116   4.897  26.674   8.356
 2499POPC   C3B33117   4.936  26.545   7.949
 2499POPC   C4B33118   5.051  26.403   7.553
 2500POPC   NC333119  27.279   9.859   9.174
 2500POPC   PO433120  27.807   9.562   9.481
 2500POPC   GL133121  27.784   9.857   9.104
 2500POPC   GL233122  27.702   9.578   8.991
 2500POPC   C1A33123  27.646   9.906   8.639
 2500POPC   D2A33124  27.790   9.718   8.276
 2500POPC   C3A33125  27.752  10.056   7.984
 2500POPC   C4A33126  27.517   9.862   7.648
 2500POPC   C1B33127  27.545   9.382   8.683
 2500POPC   C2B33128  27.355   9.376   8.323
 2500POPC   C3B33129  27.547   9.414   7.920
 2500POPC   C4B33130  27.424   9.268   7.518
 2501POPC   NC333131  27.491  38.874   9.586
 2501POPC   PO433132  27.626  39.530   9.739
 2501POPC   GL133133  27.584  39.303   9.296
 2501POPC   GL233134  27.260  39.168   9.199
 2501POPC   C1A33135  27.642  39.390   8.843
 2501POPC   D2A33136  27.856  39.272   8.454
 2501POPC   C3A33137  27.661  39.247   8.052
 2501POPC   C4A33138  27.668  39.489   7.702
 2501POPC   C1B33139  27.301  38.995   8.772
 2501POPC   C2B33140  27.278  38.932   8.330
 2501POPC   C3B33141  27.355  38.862   7.922
 2501POPC   C4B33142  27.497  39.025   7.573
 2502POPC   NC333143  31.091  11.464   9.828
 2502POPC   PO433144  30.891  11.048   9.380
 2502POPC   GL133145  30.892  11.395   9.175
 2502POPC   GL233146  30.524  11.455   9.261
 2502POPC   C1A33147  30.953  11.236   8.755
 2502POPC   D2A33148  30.792  11.039   8.396
 2502POPC   C3A33149  30.983  11.227   8.048
 2502POPC   C4A33150  30.814  11.231   7.662
 2502POPC   C1B33151  30.482  11.484   8.806
 2502POPC   C2B33152  30.312  11.608   8.387
 2502POPC   C3B33153  30.385  11.401   8.012
 2502POPC   C4B33154  30.414  11.594   7.621
 2503POPC   NC333155   3.139  32.443   9.289
 2503POPC   PO433156   2.988  31.877   9.635
 2503POPC   GL133157   2.933  31.949   9.202
 2503POPC   GL233158   2.589  32.089   9.244
 2503POPC   C1A33159   2.919  32.122   8.757
 2503POPC   D2A33160   2.923  32.533   8.538
 2503POPC   C3A33161   2.966  32.455   8.090
 2503POPC   C4A33162   2.651  32.377   7.777
 2503POPC   C1B33163   2.406  32.118   8.821
 2503POPC   C2B33164   2.451  32.313   8.388
 2503POPC   C3B33165   2.307  32.070   8.025
 2503POPC   C4B33166   2.377  31.913   7.609
 2504POPC   NC333167   0.848  20.628   9.552
 2504POPC   PO433168   1.304  20.284   9.282
 2504POPC   GL133169   1.134  20.421   8.939
 2504POPC   GL233170   1.044  20.702   9.094
 2504POPC   C1A33171   1.241  20.448   8.502
 2504POPC   D2A33172   1.404  20.546   8.090
 2504POPC   C3A33173   1.096  20.388   7.792
 2504POPC   C4A33174   1.079  20.174   7.368
 2504POPC   C1B33175   1.071  20.902   8.723
 2504POPC   C2B33176   1.029  20.875   8.299
 2504POPC   C3B33177   1.209  21.031   7.943
 2504POPC   C4B33178   1.201  21.262   7.583
 2505POPC   NC333179   7.746   5.206   9.736
 2505POPC   PO433180   7.257   4.889   9.394
 2505POPC   GL133181   7.416   5.172   9.109
 2505POPC   GL233182   7.736   5.296   9.187
 2505POPC   C1A33183   7.482   5.052   8.691
 2505POPC   D2A33184   7.281   4.760   8.424
 2505POPC   C3A33185   7.149   4.956   8.048
 2505POPC   C4A33186   7.216   4.732   7.686
 2505POPC   C1B33187   7.683   5.544   8.822
 2505POPC   C2B33188   7.748   5.422   8.420
 2505POPC   C3B33189   7.658   5.540   8.010
 2505POPC   C4B33190   7.518   5.169   7.778
 2506POPC   NC333191  36.416  42.547   9.512
 2506POPC   PO433192  36.262  41.925   9.343
 2506POPC   GL133193  36.191  42.262   9.041
 2506POPC   GL233194  35.958  42.481   9.236
 2506POPC   C1A33195  36.093  42.241   8.568
 2506POPC   D2A33196  35.801  42.076   8.218
 2506POPC   C3A33197  36.052  42.107   7.806
 2506POPC   C4A33198  36.394  42.437   7.780
 2506POPC   C1B33199  35.868  42.623   8.827
 2506POPC   C2B33200  35.721  42.585   8.404
 2506POPC   C3B33201  35.917  42.540   8.020
 2506POPC   C4B33202  35.915  42.654   7.618
 2507POPC   NC333203  29.691  10.402   9.625
 2507POPC   PO433204  29.010  10.651   9.605
 2507POPC   GL133205  29.034  10.464   9.187
 2507POPC   GL233206  28.737  10.246   9.094
 2507POPC   C1A33207  29.215  10.630   8.799
 2507POPC   D2A33208  29.393  10.412   8.412
 2507POPC   C3A33209  29.198  10.520   8.012
 2507POPC   C4A33210  29.227  10.899   7.760
 2507POPC   C1B33211  28.904  10.264   8.680
 2507POPC   C2B33212  28.803  10.270   8.248
 2507POPC   C3B33213  28.875  10.069   7.847
 2507POPC   C4B33214  28.781  10.233   7.410
 2508POPC   NC333215  26.585  38.636   9.622
 2508POPC   PO433216  26.823  38.043   9.462
 2508POPC   GL133217  26.673  38.368   9.175
 2508POPC   GL233218  26.731  38.741   9.136
 2508POPC   C1A33219  26.712  38.371   8.748
 2508POPC   D2A33220  26.916  38.600   8.452
 2508POPC   C3A33221  26.876  38.364   8.086
 2508POPC   C4A33222  27.033  38.517   7.720
 2508POPC   C1B33223  26.488  38.818   8.748
 2508POPC   C2B33224  26.427  38.567   8.327
 2508POPC   C3B33225  26.482  38.574   7.842
 2508POPC   C4B33226  26.471  38.982   7.653
 2509POPC   NC333227  39.114   0.015   9.518
 2509POPC   PO433228  39.267  44.369   9.519
 2509POPC   GL133229  39.263  44.474   9.101
 2509POPC   GL233230  39.048  44.748   9.095
 2509POPC   C1A33231  39.450  44.416   8.669
 2509POPC   D2A33232  39.268  44.371   8.236
 2509POPC   C3A33233  39.524  44.538   7.898
 2509POPC   C4A33234  39.613  44.584   7.454
 2509POPC   C1B33235  39.236  44.891   8.751
 2509POPC   C2B33236  39.387  44.851   8.374
 2509POPC   C3B33237  39.513   0.031   8.043
 2509POPC   C4B33238  39.334  44.997   7.651
 2510POPC   NC333239   5.214   8.301   9.446
 2510POPC   PO433240   4.707   8.557   9.181
 2510POPC   GL133241   4.934   8.193   9.024
 2510POPC   GL233242   5.116   7.888   9.118
 2510POPC   C1A33243   5.002   8.116   8.631
 2510POPC   D2A33244   4.911   8.072   8.234
 2510POPC   C3A33245   4.970   8.459   8.092
 2510POPC   C4A33246   4.976   8.487   7.668
 2510POPC   C1B33247   5.447   7.950   8.793
 2510POPC   C2B33248   5.431   8.098   8.317
 2510POPC   C3B33249   5.271   8.111   7.867
 2510POPC   C4B33250   5.422   8.245   7.431
 2511POPC   NC333251  10.348  37.255   9.527
 2511POPC   PO433252  10.669  37.822   9.579
 2511POPC   GL133253  10.406  37.688   9.220
 2511POPC   GL233254  10.076  37.863   9.281
 2511POPC   C1A33255  10.518  37.558   8.778
 2511POPC   D2A33256  10.372  37.444   8.358
 2511POPC   C3A33257  10.581  37.689   8.020
 2511POPC   C4A33258  10.674  37.614   7.598
 2511POPC   C1B33259  10.152  37.904   8.826
 2511POPC   C2B33260  10.031  37.846   8.379
 2511POPC   C3B33261  10.077  37.647   7.980
 2511POPC   C4B33262  10.175  37.834   7.601
 2512POPC   NC333263  11.500  18.168   9.536
 2512POPC   PO433264  10.870  18.496   9.384
 2512POPC   GL133265  11.154  18.249   9.088
 2512POPC   GL233266  11.511  18.281   9.053
 2512POPC   C1A33267  11.235  18.206   8.636
 2512POPC   D2A33268  11.231  18.089   8.214
 2512POPC   C3A33269  11.117  18.378   7.966
 2512POPC   C4A33270  11.071  18.790   7.878
 2512POPC   C1B33271  11.729  18.329   8.674
 2512POPC   C2B33272  11.733  18.279   8.259
 2512POPC   C3B33273  11.666  18.240   7.862
 2512POPC   C4B33274  11.359  18.035   7.684
 2513POPC   NC333275   1.563  19.940   9.437
 2513POPC   PO433276   0.887  20.131   9.574
 2513POPC   GL133277   0.925  19.991   9.105
 2513POPC   GL233278   1.268  19.814   9.036
 2513POPC   C1A33279   1.017  20.005   8.653
 2513POPC   D2A33280   1.318  19.818   8.427
 2513POPC   C3A33281   1.258  20.021   8.097
 2513POPC   C4A33282   1.083  19.797   7.730
 2513POPC   C1B33283   1.322  19.430   8.770
 2513POPC   C2B33284   1.526  19.324   8.381
 2513POPC   C3B33285   1.455  19.556   7.997
 2513POPC   C4B33286   1.692  19.625   7.646
 2514POPC   NC333287   9.766   7.950   9.482
 2514POPC   PO433288  10.117   8.499   9.624
 2514POPC   GL133289   9.835   8.382   9.191
 2514POPC   GL233290   9.866   8.028   8.995
 2514POPC   C1A33291   9.561   8.360   8.768
 2514POPC   D2A33292   9.339   8.233   8.367
 2514POPC   C3A33293   9.502   8.375   7.985
 2514POPC   C4A33294   9.368   8.564   7.623
 2514POPC   C1B33295   9.620   7.880   8.615
 2514POPC   C2B33296   9.692   7.916   8.155
 2514POPC   C3B33297   9.654   7.931   7.704
 2514POPC   C4B33298  10.018   8.051   7.469
 2515POPC   NC333299  27.754  24.848   9.550
 2515POPC   PO433300  28.116  25.399   9.566
 2515POPC   GL133301  27.845  25.487   9.171
 2515POPC   GL233302  27.503  25.677   9.239
 2515POPC   C1A33303  27.582  25.397   8.805
 2515POPC   D2A33304  27.442  25.148   8.443
 2515POPC   C3A33305  27.730  25.058   8.099
 2515POPC   C4A33306  27.772  25.222   7.693
 2515POPC   C1B33307  27.260  25.823   8.847
 2515POPC   C2B33308  27.203  25.647   8.418
 2515POPC   C3B33309  27.420  25.469   8.038
 2515POPC   C4B33310  27.270  25.139   7.767
 2516POPC   NC333311  31.723   8.730   9.371
 2516POPC   PO433312  31.061   8.828   9.492
 2516POPC   GL133313  31.307   8.995   9.146
 2516POPC   GL233314  31.514   9.292   9.096
 2516POPC   C1A33315  31.216   8.951   8.713
 2516POPC   D2A33316  31.455   8.650   8.492
 2516POPC   C3A33317  31.411   8.697   8.051
 2516POPC   C4A33318  31.267   9.004   7.744
 2516POPC   C1B33319  31.693   9.062   8.776
 2516POPC   C2B33320  31.529   9.218   8.408
 2516POPC   C3B33321  31.633   9.170   8.030
 2516POPC   C4B33322  31.779   9.242   7.637
 2517POPC   NC333323  30.383  37.772   9.595
 2517POPC   PO433324  30.977  37.575   9.432
 2517POPC   GL133325  30.670  37.780   9.165
 2517POPC   GL233326  30.375  37.570   9.135
 2517POPC   C1A33327  30.633  37.820   8.726
 2517POPC   D2A33328  30.794  37.536   8.389
 2517POPC   C3A33329  30.834  37.760   7.974
 2517POPC   C4A33330  31.017  38.167   7.796
 2517POPC   C1B33331  30.493  37.269   8.814
 2517POPC   C2B33332  30.445  37.123   8.388
 2517POPC   C3B33333  30.604  37.269   7.978
 2517POPC   C4B33334  30.678  37.377   7.528
 2518POPC   NC333335  17.979  25.223   9.562
 2518POPC   PO433336  18.539  25.378   9.689
 2518POPC   GL133337  18.304  25.170   9.214
 2518POPC   GL233338  18.000  25.402   9.077
 2518POPC   C1A33339  18.302  25.076   8.814
 2518POPC   D2A33340  18.516  25.332   8.524
 2518POPC   C3A33341  18.465  25.194   8.122
 2518POPC   C4A33342  18.494  25.324   7.736
 2518POPC   C1B33343  17.778  25.171   8.739
 2518POPC   C2B33344  17.750  24.828   8.440
 2518POPC   C3B33345  17.864  24.955   8.026
 2518POPC   C4B33346  17.801  25.165   7.644
 2519POPC   NC333347  11.324  14.037   9.619
 2519POPC   PO433348  11.252  13.405   9.615
 2519POPC   GL133349  11.384  13.624   9.224
 2519POPC   GL233350  11.162  13.903   9.145
 2519POPC   C1A33351  11.521  13.581   8.781
 2519POPC   D2A33352  11.355  13.541   8.366
 2519POPC   C3A33353  11.512  13.542   7.928
 2519POPC   C4A33354  11.265  13.524   7.512
 2519POPC   C1B33355  11.103  13.891   8.708
 2519POPC   C2B33356  10.866  13.700   8.379
 2519POPC   C3B33357  10.999  13.634   7.957
 2519POPC   C4B33358  10.836  13.802   7.568
 2520POPC   NC333359  18.428  21.595   9.556
 2520POPC   PO433360  17.813  21.688   9.547
 2520POPC   GL133361  18.084  21.674   9.153
 2520POPC   GL233362  18.336  21.398   9.104
 2520POPC   C1A33363  18.054  21.536   8.706
 2520POPC   D2A33364  18.390  21.504   8.396
 2520POPC   C3A33365  18.344  21.713   7.985
 2520POPC   C4A33366  18.110  21.495   7.688
 2520POPC   C1B33367  18.596  21.212   8.784
 2520POPC   C2B33368  18.706  21.059   8.361
 2520POPC   C3B33369  18.521  21.227   7.977
 2520POPC   C4B33370  18.528  21.279   7.526
 2521POPC   NC333371  34.222  26.001   9.536
 2521POPC   PO433372  33.665  26.331   9.551
 2521POPC   GL133373  33.698  25.993   9.217
 2521POPC   GL233374  34.015  25.905   9.102
 2521POPC   C1A33375  33.613  25.869   8.782
 2521POPC   D2A33376  33.684  26.037   8.389
 2521POPC   C3A33377  33.619  25.834   8.033
 2521POPC   C4A33378  33.510  26.054   7.668
 2521POPC   C1B33379  34.063  26.113   8.723
 2521POPC   C2B33380  34.207  26.031   8.307
 2521POPC   C3B33381  34.138  25.750   7.973
 2521POPC   C4B33382  33.878  25.683   7.618
 2522POPC   NC333383   7.246   6.889   9.440
 2522POPC   PO433384   7.662   6.248   9.396
 2522POPC   GL133385   7.687   6.608   9.142
 2522POPC   GL233386   7.342   6.575   9.057
 2522POPC   C1A33387   7.660   6.840   8.744
 2522POPC   D2A33388   7.405   6.808   8.393
 2522POPC   C3A33389   7.656   6.819   8.050
 2522POPC   C4A33390   7.640   6.554   7.769
 2522POPC   C1B33391   7.037   6.729   8.757
 2522POPC   C2B33392   6.904   6.756   8.304
 2522POPC   C3B33393   7.160   6.723   7.899
 2522POPC   C4B33394   7.448   6.969   7.591
 2523POPC   NC333395  44.113  19.005   9.547
 2523POPC   PO433396  43.593  19.384   9.487
 2523POPC   GL133397  43.841  19.070   9.112
 2523POPC   GL233398  44.156  18.774   9.114
 2523POPC   C1A33399  43.686  19.013   8.648
 2523POPC   D2A33400  43.540  19.287   8.273
 2523POPC   C3A33401  43.910  19.417   8.085
 2523POPC   C4A33402  43.944  19.072   7.784
 2523POPC   C1B33403  44.179  18.900   8.712
 2523POPC   C2B33404  44.157  19.019   8.299
 2523POPC   C3B33405  44.328  18.799   7.965
 2523POPC   C4B33406  44.049  18.530   7.787
 2524POPC   NC333407  33.299  43.309   9.377
 2524POPC   PO433408  32.793  43.617   9.415
 2524POPC   GL133409  32.876  43.274   9.072
 2524POPC   GL233410  33.161  43.073   8.952
 2524POPC   C1A33411  32.767  43.184   8.653
 2524POPC   D2A33412  32.984  43.004   8.309
 2524POPC   C3A33413  32.746  43.063   7.910
 2524POPC   C4A33414  32.808  43.266   7.517
 2524POPC   C1B33415  33.462  42.942   8.631
 2524POPC   C2B33416  33.481  42.876   8.197
 2524POPC   C3B33417  33.151  42.698   7.941
 2524POPC   C4B33418  33.193  42.980   7.684
 2525POPC   NC333419  22.662  29.339   9.415
 2525POPC   PO433420  23.226  29.218   9.759
 2525POPC   GL133421  23.198  29.053   9.299
 2525POPC   GL233422  22.853  28.964   9.135
 2525POPC   C1A33423  23.249  28.917   8.847
 2525POPC   D2A33424  23.051  29.167   8.514
 2525POPC   C3A33425  23.074  29.034   8.093
 2525POPC   C4A33426  23.018  29.301   7.759
 2525POPC   C1B33427  22.613  29.176   8.799
 2525POPC   C2B33428  22.406  29.108   8.423
 2525POPC   C3B33429  22.553  29.069   8.017
 2525POPC   C4B33430  22.506  29.413   7.712
 2526POPC   NC333431  11.872  26.563   9.488
 2526POPC   PO433432  12.205  27.107   9.334
 2526POPC   GL133433  11.891  26.922   9.106
 2526POPC   GL233434  12.131  26.661   9.056
 2526POPC   C1A33435  11.764  26.760   8.693
 2526POPC   D2A33436  11.613  26.888   8.259
 2526POPC   C3A33437  11.903  26.657   7.984
 2526POPC   C4A33438  12.063  26.773   7.559
 2526POPC   C1B33439  12.400  26.820   8.732
 2526POPC   C2B33440  12.528  26.699   8.301
 2526POPC   C3B33441  12.430  26.578   7.887
 2526POPC   C4B33442  12.492  26.555   7.438
 2527POPC   NC333443  29.339  32.091   9.486
 2527POPC   PO433444  29.028  32.699   9.480
 2527POPC   GL133445  28.972  32.454   9.119
 2527POPC   GL233446  28.897  32.109   9.093
 2527POPC   C1A33447  28.965  32.404   8.686
 2527POPC   D2A33448  29.343  32.331   8.443
 2527POPC   C3A33449  29.326  32.492   8.069
 2527POPC   C4A33450  29.531  32.373   7.760
 2527POPC   C1B33451  29.246  32.001   8.806
 2527POPC   C2B33452  29.282  31.793   8.386
 2527POPC   C3B33453  29.346  31.949   7.984
 2527POPC   C4B33454  29.046  32.160   7.760
 2528POPC   NC333455   6.966  16.052   9.771
 2528POPC   PO433456   6.459  15.680   9.590
 2528POPC   GL133457   6.616  15.874   9.219
 2528POPC   GL233458   6.902  15.923   9.142
 2528POPC   C1A33459   6.648  15.707   8.769
 2528POPC   D2A33460   6.915  15.803   8.404
 2528POPC   C3A33461   6.850  15.706   7.990
 2528POPC   C4A33462   6.552  15.766   7.732
 2528POPC   C1B33463   6.885  16.218   8.798
 2528POPC   C2B33464   6.984  16.344   8.410
 2528POPC   C3B33465   6.867  16.190   8.059
 2528POPC   C4B33466   6.727  16.256   7.656
 2529POPC   NC333467  31.704  31.850   9.514
 2529POPC   PO433468  31.359  31.249   9.473
 2529POPC   GL133469  31.520  31.477   9.139
 2529POPC   GL233470  31.229  31.687   9.119
 2529POPC   C1A33471  31.464  31.248   8.730
 2529POPC   D2A33472  31.684  31.108   8.333
 2529POPC   C3A33473  31.494  31.181   7.931
 2529POPC   C4A33474  31.525  31.464   7.586
 2529POPC   C1B33475  31.443  31.767   8.719
 2529POPC   C2B33476  31.463  31.572   8.351
 2529POPC   C3B33477  31.383  31.682   8.007
 2529POPC   C4B33478  31.225  31.866   7.691
 2530POPC   NC333479  28.321  40.534   9.587
 2530POPC   PO433480  28.648  41.051   9.319
 2530POPC   GL133481  28.508  40.684   9.099
 2530POPC   GL233482  28.191  40.755   9.111
 2530POPC   C1A33483  28.385  40.608   8.635
 2530POPC   D2A33484  28.417  40.950   8.298
 2530POPC   C3A33485  28.502  40.738   7.915
 2530POPC   C4A33486  28.738  40.366   7.831
 2530POPC   C1B33487  28.085  41.000   8.727
 2530POPC   C2B33488  27.917  40.827   8.321
 2530POPC   C3B33489  27.788  40.868   7.899
 2530POPC   C4B33490  28.095  40.752   7.585
 2531POPC   NC333491  26.365  35.331   9.587
 2531POPC   PO433492  25.677  35.235   9.447
 2531POPC   GL133493  25.921  35.261   9.080
 2531POPC   GL233494  26.282  35.275   9.092
 2531POPC   C1A33495  25.943  35.533   8.736
 2531POPC   D2A33496  25.681  35.710   8.386
 2531POPC   C3A33497  25.833  35.638   7.976
 2531POPC   C4A33498  25.901  35.327   7.653
 2531POPC   C1B33499  26.253  35.097   8.676
 2531POPC   C2B33500  26.100  35.322   8.306
 2531POPC   C3B33501  26.284  35.425   7.950
 2531POPC   C4B33502  26.415  35.146   7.622
 2532POPC   NC333503  15.309  10.910   9.494
 2532POPC   PO433504  15.448  10.220   9.525
 2532POPC   GL133505  15.123  10.450   9.266
 2532POPC   GL233506  14.851  10.248   9.118
 2532POPC   C1A33507  15.053  10.685   8.891
 2532POPC   D2A33508  15.282  10.662   8.518
 2532POPC   C3A33509  15.018  10.756   8.181
 2532POPC   C4A33510  15.131  10.790   7.782
 2532POPC   C1B33511  15.048  10.198   8.702
 2532POPC   C2B33512  15.131  10.243   8.270
 2532POPC   C3B33513  14.961  10.303   7.881
 2532POPC   C4B33514  14.993  10.012   7.560
 2533POPC   NC333515  21.166  12.997   9.661
 2533POPC   PO433516  21.368  12.410   9.678
 2533POPC   GL133517  21.404  12.702   9.296
 2533POPC   GL233518  21.714  12.580   9.123
 2533POPC   C1A33519  21.338  12.848   8.837
 2533POPC   D2A33520  21.186  12.735   8.398
 2533POPC   C3A33521  21.380  12.851   8.012
 2533POPC   C4A33522  21.228  12.972   7.675
 2533POPC   C1B33523  21.684  12.463   8.673
 2533POPC   C2B33524  21.686  12.496   8.212
 2533POPC   C3B33525  21.817  12.609   7.782
 2533POPC   C4B33526  21.763  12.595   7.301
 2534POPC   NC333527  17.131   9.001   9.462
 2534POPC   PO433528  16.497   8.827   9.331
 2534POPC   GL133529  16.827   8.893   9.050
 2534POPC   GL233530  16.544   9.103   8.886
 2534POPC   C1A33531  16.944   8.969   8.615
 2534POPC   D2A33532  16.676   9.117   8.285
 2534POPC   C3A33533  16.952   9.232   7.960
 2534POPC   C4A33534  16.971   9.175   7.492
 2534POPC   C1B33535  16.515   8.670   8.705
 2534POPC   C2B33536  16.689   8.567   8.350
 2534POPC   C3B33537  16.450   8.730   8.048
 2534POPC   C4B33538  16.525   9.067   7.748
 2535POPC   NC333539  41.348  23.094   9.434
 2535POPC   PO433540  41.841  22.722   9.673
 2535POPC   GL133541  41.786  22.843   9.253
 2535POPC   GL233542  41.491  22.661   9.152
 2535POPC   C1A33543  41.830  22.974   8.827
 2535POPC   D2A33544  41.758  23.226   8.441
 2535POPC   C3A33545  41.572  23.003   8.092
 2535POPC   C4A33546  41.342  22.745   7.822
 2535POPC   C1B33547  41.361  22.810   8.746
 2535POPC   C2B33548  41.245  22.701   8.337
 2535POPC   C3B33549  41.017  23.035   8.105
 2535POPC   C4B33550  41.134  23.210   7.739
 2536POPC   NC333551  10.747  44.641   9.705
 2536POPC   PO433552  10.208  44.944   9.606
 2536POPC   GL133553  10.420  44.814   9.209
 2536POPC   GL233554  10.729  44.593   9.170
 2536POPC   C1A33555  10.507  44.933   8.771
 2536POPC   D2A33556  10.246   0.051   8.391
 2536POPC   C3A33557  10.318  44.803   7.999
 2536POPC   C4A33558  10.489  44.809   7.569
 2536POPC   C1B33559  10.914  44.552   8.727
 2536POPC   C2B33560  11.005  44.600   8.263
 2536POPC   C3B33561  10.762  44.448   7.872
 2536POPC   C4B33562  10.710  44.383   7.408
 2537POPC   NC333563   8.294   9.713   9.549
 2537POPC   PO433564   8.654  10.312   9.438
 2537POPC   GL133565   8.347  10.055   9.184
 2537POPC   GL233566   7.995   9.930   9.143
 2537POPC   C1A33567   8.419   9.876   8.772
 2537POPC   D2A33568   8.575   9.711   8.352
 2537POPC   C3A33569   8.363   9.811   7.935
 2537POPC   C4A33570   8.353   9.693   7.470
 2537POPC   C1B33571   7.966   9.664   8.740
 2537POPC   C2B33572   8.050   9.611   8.293
 2537POPC   C3B33573   7.870   9.696   7.863
 2537POPC   C4B33574   7.860   9.568   7.443
 2538POPC   NC333575  17.525  14.906   9.697
 2538POPC   PO433576  17.219  14.297   9.450
 2538POPC   GL133577  17.403  14.402   9.082
 2538POPC   GL233578  17.657  14.638   9.106
 2538POPC   C1A33579  17.295  14.282   8.686
 2538POPC   D2A33580  17.465  14.209   8.306
 2538POPC   C3A33581  17.253  14.372   8.002
 2538POPC   C4A33582  17.487  14.342   7.675
 2538POPC   C1B33583  17.729  14.548   8.669
 2538POPC   C2B33584  17.395  14.704   8.396
 2538POPC   C3B33585  17.447  14.850   7.993
 2538POPC   C4B33586  17.387  14.824   7.571
 2539POPC   NC333587  40.172  10.434   9.518
 2539POPC   PO433588  40.125  11.094   9.494
 2539POPC   GL133589  40.107  10.766   9.119
 2539POPC   GL233590  39.862  10.457   9.110
 2539POPC   C1A33591  40.089  10.780   8.649
 2539POPC   D2A33592  39.950  10.724   8.206
 2539POPC   C3A33593  40.274  10.697   7.864
 2539POPC   C4A33594  40.248  10.698   7.400
 2539POPC   C1B33595  40.054  10.273   8.732
 2539POPC   C2B33596  40.189  10.275   8.274
 2539POPC   C3B33597  39.932  10.314   7.877
 2539POPC   C4B33598  39.819  10.369   7.419
 2540POPC   NC333599  39.466   6.020   9.536
 2540POPC   PO433600  38.903   5.914   9.746
 2540POPC   GL133601  39.068   5.872   9.266
 2540POPC   GL233602  39.378   5.810   9.077
 2540POPC   C1A33603  38.990   6.003   8.827
 2540POPC   D2A33604  38.934   5.827   8.440
 2540POPC   C3A33605  39.270   5.874   8.177
 2540POPC   C4A33606  39.124   5.904   7.758
 2540POPC   C1B33607  39.406   5.649   8.658
 2540POPC   C2B33608  39.577   5.448   8.294
 2540POPC   C3B33609  39.641   5.658   7.906
 2540POPC   C4B33610  39.616   6.038   7.703
 2541POPC   NC333611   9.014  42.602   9.934
 2541POPC   PO433612   9.209  43.150   9.522
 2541POPC   GL133613   9.064  42.977   9.125
 2541POPC   GL233614   9.273  42.799   8.934
 2541POPC   C1A33615   9.066  43.238   8.744
 2541POPC   D2A33616   8.854  43.363   8.391
 2541POPC   C3A33617   8.962  43.208   8.022
 2541POPC   C4A33618   8.848  43.455   7.675
 2541POPC   C1B33619   8.931  42.751   8.613
 2541POPC   C2B33620   8.718  42.514   8.272
 2541POPC   C3B33621   8.632  42.651   7.831
 2541POPC   C4B33622   8.854  42.970   7.583
 2542POPC   NC333623  25.283  39.616   9.559
 2542POPC   PO433624  25.145  38.982   9.523
 2542POPC   GL133625  25.196  39.226   9.173
 2542POPC   GL233626  25.465  39.019   9.077
 2542POPC   C1A33627  25.309  39.348   8.751
 2542POPC   D2A33628  25.543  39.193   8.450
 2542POPC   C3A33629  25.450  39.515   8.148
 2542POPC   C4A33630  25.465  39.324   7.749
 2542POPC   C1B33631  25.174  38.859   8.775
 2542POPC   C2B33632  25.239  38.687   8.413
 2542POPC   C3B33633  25.330  38.850   8.057
 2542POPC   C4B33634  25.208  38.757   7.637
 2543POPC   NC333635  30.563  12.113   9.599
 2543POPC   PO433636  31.144  12.567   9.507
 2543POPC   GL133637  30.891  12.241   9.228
 2543POPC   GL233638  30.743  11.906   9.180
 2543POPC   C1A33639  30.710  12.250   8.797
 2543POPC   D2A33640  30.905  12.131   8.388
 2543POPC   C3A33641  30.716  12.260   7.986
 2543POPC   C4A33642  30.615  12.071   7.592
 2543POPC   C1B33643  30.927  11.758   8.811
 2543POPC   C2B33644  30.845  11.597   8.413
 2543POPC   C3B33645  30.752  11.751   8.032
 2543POPC   C4B33646  30.969  11.706   7.688
 2544POPC   NC333647  33.153  27.638   9.408
 2544POPC   PO433648  32.583  27.555   9.354
 2544POPC   GL133649  32.879  27.403   9.039
 2544POPC   GL233650  32.933  27.777   8.968
 2544POPC   C1A33651  33.159  27.458   8.679
 2544POPC   D2A33652  33.170  27.854   8.475
 2544POPC   C3A33653  33.121  27.787   8.035
 2544POPC   C4A33654  33.147  27.438   7.746
 2544POPC   C1B33655  32.695  27.623   8.582
 2544POPC   C2B33656  32.736  27.330   8.219
 2544POPC   C3B33657  32.667  27.293   7.753
 2544POPC   C4B33658  32.468  27.592   7.476
 2545POPC   NC333659  34.879  35.827   9.409
 2545POPC   PO433660  34.330  36.238   9.417
 2545POPC   GL133661  34.591  36.129   9.103
 2545POPC   GL233662  34.407  35.844   9.079
 2545POPC   C1A33663  34.708  36.219   8.677
 2545POPC   D2A33664  34.602  35.999   8.299
 2545POPC   C3A33665  34.754  36.111   7.907
 2545POPC   C4A33666  34.569  36.026   7.490
 2545POPC   C1B33667  34.207  36.186   8.763
 2545POPC   C2B33668  34.303  36.419   8.374
 2545POPC   C3B33669  34.265  36.259   7.928
 2545POPC   C4B33670  34.110  36.277   7.478
 2546POPC   NC333671  21.218  19.254   9.389
 2546POPC   PO433672  21.710  18.757   9.391
 2546POPC   GL133673  21.539  18.992   9.056
 2546POPC   GL233674  21.185  18.888   9.037
 2546POPC   C1A33675  21.705  19.168   8.663
 2546POPC   D2A33676  21.611  19.082   8.244
 2546POPC   C3A33677  21.735  19.210   7.830
 2546POPC   C4A33678  21.558  18.943   7.490
 2546POPC   C1B33679  21.159  19.192   8.717
 2546POPC   C2B33680  21.093  19.087   8.301
 2546POPC   C3B33681  21.252  19.049   7.894
 2546POPC   C4B33682  21.063  19.160   7.524
 2547POPC   NC333683  33.427   5.648   9.401
 2547POPC   PO433684  33.929   5.976   9.685
 2547POPC   GL133685  34.076   6.042   9.242
 2547POPC   GL233686  33.726   5.986   9.181
 2547POPC   C1A33687  34.099   5.875   8.793
 2547POPC   D2A33688  33.895   5.681   8.405
 2547POPC   C3A33689  33.998   5.906   8.036
 2547POPC   C4A33690  33.752   5.964   7.648
 2547POPC   C1B33691  33.586   5.835   8.771
 2547POPC   C2B33692  33.465   6.000   8.387
 2547POPC   C3B33693  33.473   5.888   8.034
 2547POPC   C4B33694  33.294   5.581   7.781
 2548POPC   NC333695  36.831   0.226   9.524
 2548POPC   PO433696  37.321   0.697   9.736
 2548POPC   GL133697  37.165   0.525   9.290
 2548POPC   GL233698  36.797   0.640   9.211
 2548POPC   C1A33699  37.007   0.274   8.871
 2548POPC   D2A33700  37.083   0.164   8.417
 2548POPC   C3A33701  37.191   0.517   8.121
 2548POPC   C4A33702  37.154   0.624   7.683
 2548POPC   C1B33703  36.617   0.572   8.794
 2548POPC   C2B33704  36.754   0.564   8.395
 2548POPC   C3B33705  36.722   0.631   7.954
 2548POPC   C4B33706  36.652   0.687   7.537
 2549POPC   NC333707   5.672  20.034   9.371
 2549POPC   PO433708   5.970  19.423   9.515
 2549POPC   GL133709   5.923  19.616   9.138
 2549POPC   GL233710   5.587  19.584   9.110
 2549POPC   C1A33711   5.967  19.853   8.757
 2549POPC   D2A33712   5.910  19.687   8.334
 2549POPC   C3A33713   6.015  19.991   8.040
 2549POPC   C4A33714   5.911  19.993   7.669
 2549POPC   C1B33715   5.527  19.618   8.671
 2549POPC   C2B33716   5.426  19.528   8.245
 2549POPC   C3B33717   5.672  19.610   7.873
 2549POPC   C4B33718   5.765  19.545   7.407
 2550POPC   NC333719  17.505   3.199   9.412
 2550POPC   PO433720  17.911   3.742   9.366
 2550POPC   GL133721  17.655   3.611   9.018
 2550POPC   GL233722  17.312   3.633   9.084
 2550POPC   C1A33723  17.481   3.707   8.587
 2550POPC   D2A33724  17.763   3.546   8.280
 2550POPC   C3A33725  17.554   3.383   7.943
 2550POPC   C4A33726  17.383   3.153   7.611
 2550POPC   C1B33727  17.349   3.253   8.751
 2550POPC   C2B33728  17.229   3.297   8.347
 2550POPC   C3B33729  17.177   3.687   8.130
 2550POPC   C4B33730  17.154   3.599   7.683
 2551POPC   NC333731  41.251   4.260   9.376
 2551POPC   PO433732  40.704   4.575   9.155
 2551POPC   GL133733  40.601   4.178   8.959
 2551POPC   GL233734  40.923   4.135   9.010
 2551POPC   C1A33735  40.665   3.993   8.531
 2551POPC   D2A33736  40.577   4.333   8.301
 2551POPC   C3A33737  40.586   4.353   7.897
 2551POPC   C4A33738  40.941   4.425   7.745
 2551POPC   C1B33739  41.085   3.876   8.786
 2551POPC   C2B33740  41.203   3.936   8.412
 2551POPC   C3B33741  40.976   4.022   8.069
 2551POPC   C4B33742  40.965   3.880   7.667
 2552POPC   NC333743   0.316   2.403   9.324
 2552POPC   PO433744   0.459   3.041   9.512
 2552POPC   GL133745   0.479   3.088   9.113
 2552POPC   GL233746   0.686   2.829   9.093
 2552POPC   C1A33747   0.354   2.970   8.699
 2552POPC   D2A33748   0.283   2.703   8.338
 2552POPC   C3A33749   0.157   2.842   7.882
 2552POPC   C4A33750   0.292   2.805   7.424
 2552POPC   C1B33751   0.824   2.694   8.730
 2552POPC   C2B33752   0.794   2.527   8.341
 2552POPC   C3B33753   0.605   2.586   7.977
 2552POPC   C4B33754   0.755   2.670   7.608
 2553POPC   NC333755  37.321  40.101   9.434
 2553POPC   PO433756  37.941  40.058   9.440
 2553POPC   GL133757  37.725  39.810   9.117
 2553POPC   GL233758  37.362  39.838   9.009
 2553POPC   C1A33759  37.758  39.956   8.694
 2553POPC   D2A33760  37.569  39.883   8.292
 2553POPC   C3A33761  37.878  39.781   7.987
 2553POPC   C4A33762  37.809  39.969   7.605
 2553POPC   C1B33763  37.278  39.579   8.638
 2553POPC   C2B33764  37.145  39.569   8.199
 2553POPC   C3B33765  37.390  39.659   7.796
 2553POPC   C4B33766  37.429  39.715   7.356
 2554POPC   NC333767  28.430  37.805   9.590
 2554POPC   PO433768  28.360  37.231   9.344
 2554POPC   GL133769  28.344  37.653   9.119
 2554POPC   GL233770  28.682  37.858   9.154
 2554POPC   C1A33771  28.359  37.985   8.765
 2554POPC   D2A33772  28.371  38.012   8.315
 2554POPC   C3A33773  28.080  37.747   8.086
 2554POPC   C4A33774  28.125  37.591   7.681
 2554POPC   C1B33775  28.701  37.586   8.790
 2554POPC   C2B33776  28.438  37.507   8.474
 2554POPC   C3B33777  28.507  37.468   8.048
 2554POPC   C4B33778  28.579  37.388   7.629
 2555POPC   NC333779  12.100  30.913   9.455
 2555POPC   PO433780  11.589  30.554   9.709
 2555POPC   GL133781  11.688  30.661   9.240
 2555POPC   GL233782  11.989  30.490   9.141
 2555POPC   C1A33783  11.852  30.861   8.818
 2555POPC   D2A33784  12.257  30.945   8.605
 2555POPC   C3A33785  12.296  30.994   8.167
 2555POPC   C4A33786  12.308  30.944   7.744
 2555POPC   C1B33787  11.715  30.398   8.728
 2555POPC   C2B33788  11.886  30.633   8.360
 2555POPC   C3B33789  12.026  30.584   7.970
 2555POPC   C4B33790  11.670  30.616   7.756
 2556POPC   NC333791  38.795  29.738   9.433
 2556POPC   PO433792  38.193  30.101   9.429
 2556POPC   GL133793  38.461  29.965   9.121
 2556POPC   GL233794  38.701  30.211   9.095
 2556POPC   C1A33795  38.662  29.746   8.781
 2556POPC   D2A33796  38.608  29.825   8.317
 2556POPC   C3A33797  38.715  29.633   7.900
 2556POPC   C4A33798  38.344  29.596   7.611
 2556POPC   C1B33799  38.603  30.237   8.664
 2556POPC   C2B33800  38.868  30.268   8.331
 2556POPC   C3B33801  38.734  30.143   7.930
 2556POPC   C4B33802  38.348  30.101   7.726
 2557POPC   NC333803  14.263  36.578   9.442
 2557POPC   PO433804  14.599  37.173   9.379
 2557POPC   GL133805  14.309  37.071   9.036
 2557POPC   GL233806  14.133  36.754   9.001
 2557POPC   C1A33807  14.411  36.989   8.641
 2557POPC   D2A33808  14.675  36.843   8.345
 2557POPC   C3A33809  14.665  37.198   8.089
 2557POPC   C4A33810  14.575  37.184   7.671
 2557POPC   C1B33811  14.278  36.464   8.701
 2557POPC   C2B33812  14.089  36.353   8.330
 2557POPC   C3B33813  14.272  36.577   8.014
 2557POPC   C4B33814  14.164  36.880   7.733
 2558POPC   NC333815  26.177  29.307   9.494
 2558POPC   PO433816  25.883  28.721   9.541
 2558POPC   GL133817  25.780  28.844   9.112
 2558POPC   GL233818  25.983  29.093   9.068
 2558POPC   C1A33819  25.796  28.876   8.649
 2558POPC   D2A33820  25.901  29.270   8.360
 2558POPC   C3A33821  25.926  29.133   7.922
 2558POPC   C4A33822  25.701  28.832   7.635
 2558POPC   C1B33823  26.176  29.401   8.814
 2558POPC   C2B33824  26.366  29.499   8.432
 2558POPC   C3B33825  26.399  29.327   8.065
 2558POPC   C4B33826  26.220  29.512   7.721
 2559POPC   NC333827  31.259  34.149   9.348
 2559POPC   PO433828  31.595  33.528   9.443
 2559POPC   GL133829  31.513  33.777   9.077
 2559POPC   GL233830  31.709  34.072   8.979
 2559POPC   C1A33831  31.471  33.637   8.665
 2559POPC   D2A33832  31.716  33.393   8.384
 2559POPC   C3A33833  31.661  33.686   8.031
 2559POPC   C4A33834  31.253  33.734   7.867
 2559POPC   C1B33835  31.400  34.176   8.664
 2559POPC   C2B33836  31.322  34.145   8.209
 2559POPC   C3B33837  31.443  34.186   7.773
 2559POPC   C4B33838  31.220  34.228   7.354
 2560POPC   NC333839  21.331  16.383   9.684
 2560POPC   PO433840  21.650  15.839   9.461
 2560POPC   GL133841  21.648  16.067   9.090
 2560POPC   GL233842  21.312  16.196   9.169
 2560POPC   C1A33843  21.717  15.928   8.638
 2560POPC   D2A33844  21.487  15.661   8.308
 2560POPC   C3A33845  21.317  15.771   7.906
 2560POPC   C4A33846  21.591  16.047   7.695
 2560POPC   C1B33847  21.219  15.929   8.779
 2560POPC   C2B33848  21.067  15.985   8.345
 2560POPC   C3B33849  21.217  16.266   8.002
 2560POPC   C4B33850  21.123  16.169   7.575
 2561POPC   NC333851  37.641  30.893   9.578
 2561POPC   PO433852  37.291  30.444   9.198
 2561POPC   GL133853  37.721  30.649   9.132
 2561POPC   GL233854  37.913  30.997   9.135
 2561POPC   C1A33855  37.629  30.792   8.740
 2561POPC   D2A33856  37.330  30.684   8.414
 2561POPC   C3A33857  37.504  30.698   8.000
 2561POPC   C4A33858  37.481  30.605   7.547
 2561POPC   C1B33859  38.125  30.816   8.772
 2561POPC   C2B33860  37.991  30.739   8.334
 2561POPC   C3B33861  37.934  30.965   7.942
 2561POPC   C4B33862  37.870  30.930   7.497
 2562POPC   NC333863  28.561  12.676   9.411
 2562POPC   PO433864  27.882  12.746   9.294
 2562POPC   GL133865  28.234  12.701   9.025
 2562POPC   GL233866  28.405  12.389   9.021
 2562POPC   C1A33867  28.519  12.804   8.696
 2562POPC   D2A33868  28.486  13.084   8.358
 2562POPC   C3A33869  28.514  12.899   7.960
 2562POPC   C4A33870  28.207  12.994   7.619
 2562POPC   C1B33871  28.172  12.382   8.635
 2562POPC   C2B33872  28.222  12.548   8.222
 2562POPC   C3B33873  28.087  12.523   7.803
 2562POPC   C4B33874  27.814  12.699   7.460
 2563POPC   NC333875  40.444  14.145   9.517
 2563POPC   PO433876  41.060  14.277   9.440
 2563POPC   GL133877  40.749  14.327   9.168
 2563POPC   GL233878  40.711  14.642   9.242
 2563POPC   C1A33879  40.636  14.451   8.779
 2563POPC   D2A33880  40.900  14.515   8.441
 2563POPC   C3A33881  40.654  14.469   8.047
 2563POPC   C4A33882  40.707  14.311   7.617
 2563POPC   C1B33883  40.946  14.857   8.908
 2563POPC   C2B33884  40.943  15.057   8.494
 2563POPC   C3B33885  40.968  14.895   8.111
 2563POPC   C4B33886  41.012  14.699   7.751
 2564POPC   NC333887   2.056  27.357   9.487
 2564POPC   PO433888   2.474  27.900   9.624
 2564POPC   GL133889   2.269  27.749   9.227
 2564POPC   GL233890   1.867  27.743   9.203
 2564POPC   C1A33891   2.176  27.667   8.794
 2564POPC   D2A33892   1.981  27.575   8.411
 2564POPC   C3A33893   2.236  27.564   8.053
 2564POPC   C4A33894   2.387  27.515   7.641
 2564POPC   C1B33895   1.710  27.890   8.791
 2564POPC   C2B33896   1.634  27.970   8.351
 2564POPC   C3B33897   1.779  27.774   7.961
 2564POPC   C4B33898   1.876  27.787   7.517
 2565POPC   NC333899   7.279  34.058   9.426
 2565POPC   PO433900   7.498  34.779   9.409
 2565POPC   GL133901   7.324  34.520   9.133
 2565POPC   GL233902   7.645  34.373   9.139
 2565POPC   C1A33903   7.115  34.606   8.756
 2565POPC   D2A33904   7.335  34.750   8.395
 2565POPC   C3A33905   7.144  34.898   8.022
 2565POPC   C4A33906   7.204  34.727   7.635
 2565POPC   C1B33907   7.694  34.674   8.791
 2565POPC   C2B33908   7.854  34.743   8.388
 2565POPC   C3B33909   7.656  34.682   7.951
 2565POPC   C4B33910   7.568  34.405   7.546
 2566POPC   NC333911  39.040  24.514   9.724
 2566POPC   PO433912  39.654  24.357   9.532
 2566POPC   GL133913  39.345  24.585   9.283
 2566POPC   GL233914  39.143  24.289   9.204
 2566POPC   C1A33915  39.082  24.719   8.917
 2566POPC   D2A33916  38.925  24.488   8.557
 2566POPC   C3A33917  39.086  24.597   8.155
 2566POPC   C4A33918  39.041  24.308   7.831
 2566POPC   C1B33919  39.436  24.366   8.834
 2566POPC   C2B33920  39.390  24.261   8.399
 2566POPC   C3B33921  39.551  24.356   7.971
 2566POPC   C4B33922  39.459  24.283   7.522
 2567POPC   NC333923  12.207   9.145   9.560
 2567POPC   PO433924  12.239   8.447   9.536
 2567POPC   GL133925  12.170   8.752   9.176
 2567POPC   GL233926  12.085   9.138   9.079
 2567POPC   C1A33927  12.218   8.708   8.745
 2567POPC   D2A33928  12.210   8.902   8.376
 2567POPC   C3A33929  12.218   8.736   7.982
 2567POPC   C4A33930  12.272   9.036   7.664
 2567POPC   C1B33931  11.810   9.059   8.750
 2567POPC   C2B33932  11.694   9.011   8.350
 2567POPC   C3B33933  11.842   9.129   7.954
 2567POPC   C4B33934  11.820   9.202   7.492
 2568POPC   NC333935   6.690  40.358   9.429
 2568POPC   PO433936   6.502  39.772   9.468
 2568POPC   GL133937   6.519  40.005   9.107
 2568POPC   GL233938   6.885  39.992   9.111
 2568POPC   C1A33939   6.361  40.073   8.696
 2568POPC   D2A33940   6.173  40.129   8.329
 2568POPC   C3A33941   6.386  40.159   7.969
 2568POPC   C4A33942   6.445  39.767   7.763
 2568POPC   C1B33943   6.792  39.774   8.709
 2568POPC   C2B33944   6.723  39.885   8.259
 2568POPC   C3B33945   6.928  39.881   7.833
 2568POPC   C4B33946   7.012  39.917   7.366
 2569POPC   NC333947   5.709   9.165   9.523
 2569POPC   PO433948   6.081   8.611   9.404
 2569POPC   GL133949   5.802   8.789   9.183
 2569POPC   GL233950   6.027   9.070   9.147
 2569POPC   C1A33951   5.712   8.908   8.771
 2569POPC   D2A33952   5.956   8.690   8.470
 2569POPC   C3A33953   5.924   8.857   8.045
 2569POPC   C4A33954   5.977   8.628   7.660
 2569POPC   C1B33955   6.134   9.342   8.791
 2569POPC   C2B33956   5.941   9.423   8.402
 2569POPC   C3B33957   6.025   9.426   7.972
 2569POPC   C4B33958   5.926   9.206   7.647
 2570POPC   NC333959  34.723  34.071   9.537
 2570POPC   PO433960  34.263  34.625   9.454
 2570POPC   GL133961  34.531  34.593   9.091
 2570POPC   GL233962  34.815  34.355   9.112
 2570POPC   C1A33963  34.659  34.681   8.690
 2570POPC   D2A33964  34.727  34.508   8.294
 2570POPC   C3A33965  34.741  34.785   7.948
 2570POPC   C4A33966  34.460  34.634   7.672
 2570POPC   C1B33967  34.741  34.168   8.712
 2570POPC   C2B33968  34.857  34.011   8.321
 2570POPC   C3B33969  34.736  34.126   7.902
 2570POPC   C4B33970  34.903  34.363   7.561
 2571POPC   NC333971  40.483  21.489   9.575
 2571POPC   PO433972  40.948  21.056   9.455
 2571POPC   GL133973  40.706  21.279   9.137
 2571POPC   GL233974  40.834  21.596   9.220
 2571POPC   C1A33975  40.646  21.549   8.748
 2571POPC   D2A33976  40.836  21.749   8.379
 2571POPC   C3A33977  40.728  21.589   7.997
 2571POPC   C4A33978  40.751  21.258   7.723
 2571POPC   C1B33979  41.132  21.481   8.872
 2571POPC   C2B33980  41.145  21.341   8.433
 2571POPC   C3B33981  41.218  21.380   7.974
 2571POPC   C4B33982  41.204  21.017   7.717
 2572POPC   NC333983  24.708  35.713   9.284
 2572POPC   PO433984  24.468  35.200   9.567
 2572POPC   GL133985  24.438  35.278   9.134
 2572POPC   GL233986  24.219  35.565   9.122
 2572POPC   C1A33987  24.513  35.478   8.716
 2572POPC   D2A33988  24.350  35.567   8.327
 2572POPC   C3A33989  24.538  35.501   7.952
 2572POPC   C4A33990  24.607  35.741   7.593
 2572POPC   C1B33991  24.059  35.264   8.769
 2572POPC   C2B33992  24.096  35.119   8.336
 2572POPC   C3B33993  24.145  35.184   7.880
 2572POPC   C4B33994  24.051  35.017   7.457
 2573POPC   NC333995  44.398  14.110   9.432
 2573POPC   PO433996  44.867  14.545   9.616
 2573POPC   GL133997  44.736  14.428   9.140
 2573POPC   GL233998  44.429  14.527   9.091
 2573POPC   C1A33999  44.545  14.076   8.798
 2573POPC   D2A34000  44.365  14.138   8.382
 2573POPC   C3A34001  44.635  14.391   8.134
 2573POPC   C4A34002  44.629  14.289   7.719
 2573POPC   C1B34003  44.580  14.565   8.668
 2573POPC   C2B34004  44.269  14.661   8.388
 2573POPC   C3B34005  44.333  14.837   8.024
 2573POPC   C4B34006  44.738  14.812   7.808
 2574POPC   NC334007  36.379  20.703   9.405
 2574POPC   PO434008  35.814  20.367   9.424
 2574POPC   GL134009  36.057  20.518   9.067
 2574POPC   GL234010  36.017  20.879   9.086
 2574POPC   C1A34011  36.196  20.436   8.630
 2574POPC   D2A34012  36.187  20.285   8.153
 2574POPC   C3A34013  36.380  20.464   7.785
 2574POPC   C4A34014  36.362  20.859   7.556
 2574POPC   C1B34015  35.838  20.854   8.686
 2574POPC   C2B34016  35.898  20.682   8.299
 2574POPC   C3B34017  35.958  20.734   7.897
 2574POPC   C4B34018  35.921  21.125   7.688
 2575POPC   NC334019  18.177   5.813   9.819
 2575POPC   PO434020  18.653   6.099   9.401
 2575POPC   GL134021  18.498   6.051   8.965
 2575POPC   GL234022  18.530   5.663   8.873
 2575POPC   C1A34023  18.136   5.906   8.682
 2575POPC   D2A34024  18.427   5.932   8.368
 2575POPC   C3A34025  18.250   5.898   8.007
 2575POPC   C4A34026  18.074   5.594   7.832
 2575POPC   C1B34027  18.873   5.876   8.688
 2575POPC   C2B34028  18.951   6.071   8.364
 2575POPC   C3B34029  18.806   5.954   8.003
 2575POPC   C4B34030  18.583   6.176   7.711
 2576POPC   NC334031  34.502   2.547   9.412
 2576POPC   PO434032  34.937   3.026   9.577
 2576POPC   GL134033  34.638   2.937   9.116
 2576POPC   GL234034  34.345   3.189   9.037
 2576POPC   C1A34035  34.718   2.689   8.682
 2576POPC   D2A34036  34.531   2.590   8.289
 2576POPC   C3A34037  34.680   2.672   7.877
 2576POPC   C4A34038  34.537   2.432   7.501
 2576POPC   C1B34039  34.274   2.925   8.692
 2576POPC   C2B34040  34.141   2.944   8.285
 2576POPC   C3B34041  34.347   3.065   7.946
 2576POPC   C4B34042  34.336   2.905   7.564
 2577POPC   NC334043  28.784  20.578   9.446
 2577POPC   PO434044  29.430  20.715   9.461
 2577POPC   GL134045  29.354  20.559   9.062
 2577POPC   GL234046  29.021  20.675   8.973
 2577POPC   C1A34047  29.326  20.366   8.649
 2577POPC   D2A34048  29.384  20.600   8.255
 2577POPC   C3A34049  29.468  20.381   7.878
 2577POPC   C4A34050  29.322  20.417   7.437
 2577POPC   C1B34051  28.813  20.460   8.611
 2577POPC   C2B34052  28.923  20.400   8.184
 2577POPC   C3B34053  28.961  20.561   7.786
 2577POPC   C4B34054  28.655  20.768   7.545
 2578POPC   NC334055  38.503  18.067   9.534
 2578POPC   PO434056  38.160  18.662   9.506
 2578POPC   GL134057  38.260  18.483   9.106
 2578POPC   GL234058  38.413  18.144   9.049
 2578POPC   C1A34059  38.201  18.473   8.645
 2578POPC   D2A34060  38.357  18.161   8.372
 2578POPC   C3A34061  38.218  18.213   7.958
 2578POPC   C4A34062  38.483  18.149   7.598
 2578POPC   C1B34063  38.699  18.392   8.816
 2578POPC   C2B34064  38.729  18.553   8.421
 2578POPC   C3B34065  38.723  18.350   8.025
 2578POPC   C4B34066  38.866  18.483   7.623
 2579POPC   NC334067  23.306  27.011   9.489
 2579POPC   PO434068  22.605  26.909   9.459
 2579POPC   GL134069  22.785  26.579   9.186
 2579POPC   GL234070  23.170  26.620   9.179
 2579POPC   C1A34071  22.914  26.503   8.749
 2579POPC   D2A34072  22.818  26.677   8.363
 2579POPC   C3A34073  22.745  26.440   7.996
 2579POPC   C4A34074  22.735  26.725   7.673
 2579POPC   C1B34075  23.290  26.868   8.804
 2579POPC   C2B34076  23.249  27.013   8.387
 2579POPC   C3B34077  23.111  26.886   7.993
 2579POPC   C4B34078  23.162  26.970   7.570
 2580POPC   NC334079  37.698  28.459   9.672
 2580POPC   PO434080  38.115  28.797   9.455
 2580POPC   GL134081  37.821  28.485   9.163
 2580POPC   GL234082  37.446  28.446   9.193
 2580POPC   C1A34083  37.641  28.182   8.800
 2580POPC   D2A34084  37.582  27.946   8.399
 2580POPC   C3A34085  37.752  28.152   8.039
 2580POPC   C4A34086  38.140  28.093   7.848
 2580POPC   C1B34087  37.268  28.543   8.782
 2580POPC   C2B34088  37.338  28.406   8.357
 2580POPC   C3B34089  37.286  28.386   7.941
 2580POPC   C4B34090  37.353  28.669   7.596
 2581POPC   NC334091  17.297   8.041   9.498
 2581POPC   PO434092  17.859   8.355   9.369
 2581POPC   GL134093  17.611   8.152   9.100
 2581POPC   GL234094  17.690   7.838   9.199
 2581POPC   C1A34095  17.471   8.218   8.698
 2581POPC   D2A34096  17.407   8.008   8.304
 2581POPC   C3A34097  17.632   8.224   7.982
 2581POPC   C4A34098  17.676   8.435   7.601
 2581POPC   C1B34099  17.517   7.705   8.776
 2581POPC   C2B34100  17.721   7.609   8.363
 2581POPC   C3B34101  17.675   7.737   7.891
 2581POPC   C4B34102  17.787   7.741   7.418
 2582POPC   NC334103  26.942  21.772   9.418
 2582POPC   PO434104  27.185  21.245   9.626
 2582POPC   GL134105  26.997  21.284   9.223
 2582POPC   GL234106  26.643  21.209   9.292
 2582POPC   C1A34107  27.056  21.420   8.801
 2582POPC   D2A34108  26.867  21.547   8.417
 2582POPC   C3A34109  27.000  21.319   8.043
 2582POPC   C4A34110  27.114  21.506   7.663
 2582POPC   C1B34111  26.540  21.422   8.901
 2582POPC   C2B34112  26.328  21.428   8.509
 2582POPC   C3B34113  26.484  21.451   8.107
 2582POPC   C4B34114  26.579  21.251   7.727
 2583POPC   NC334115  36.963  33.330   9.403
 2583POPC   PO434116  36.877  33.946   9.525
 2583POPC   GL134117  36.808  34.033   9.112
 2583POPC   GL234118  36.905  33.692   9.047
 2583POPC   C1A34119  37.089  34.078   8.760
 2583POPC   D2A34120  37.085  33.924   8.355
 2583POPC   C3A34121  36.688  34.018   8.135
 2583POPC   C4A34122  36.561  34.005   7.689
 2583POPC   C1B34123  36.974  33.514   8.653
 2583POPC   C2B34124  36.819  33.498   8.230
 2583POPC   C3B34125  36.950  33.702   7.845
 2583POPC   C4B34126  37.157  33.531   7.509
 2584POPC   NC334127  22.862  39.697   9.246
 2584POPC   PO434128  23.322  40.156   9.489
 2584POPC   GL134129  23.145  40.116   9.120
 2584POPC   GL234130  22.784  40.176   9.083
 2584POPC   C1A34131  23.242  40.026   8.703
 2584POPC   D2A34132  23.212  39.795   8.337
 2584POPC   C3A34133  23.281  39.949   7.917
 2584POPC   C4A34134  22.937  39.932   7.645
 2584POPC   C1B34135  22.953  40.458   8.783
 2584POPC   C2B34136  22.980  40.416   8.373
 2584POPC   C3B34137  22.813  40.378   7.990
 2584POPC   C4B34138  23.027  40.426   7.657
 2585POPC   NC334139  27.102  27.304   9.534
 2585POPC   PO434140  26.617  27.780   9.434
 2585POPC   GL134141  26.749  27.471   9.175
 2585POPC   GL234142  27.052  27.608   9.089
 2585POPC   C1A34143  26.577  27.522   8.780
 2585POPC   D2A34144  26.694  27.486   8.381
 2585POPC   C3A34145  26.893  27.718   8.067
 2585POPC   C4A34146  26.783  27.454   7.722
 2585POPC   C1B34147  27.065  27.337   8.741
 2585POPC   C2B34148  27.195  27.418   8.338
 2585POPC   C3B34149  27.262  27.376   7.919
 2585POPC   C4B34150  27.185  27.538   7.460
 2586POPC   NC334151   0.106   7.094   9.502
 2586POPC   PO434152   0.183   6.392   9.493
 2586POPC   GL134153   0.268   6.452   9.106
 2586POPC   GL234154   0.581   6.588   9.144
 2586POPC   C1A34155   0.232   6.729   8.760
 2586POPC   D2A34156   0.416   6.853   8.360
 2586POPC   C3A34157   0.260   6.698   7.970
 2586POPC   C4A34158   0.249   6.591   7.549
 2586POPC   C1B34159   0.759   6.755   8.784
 2586POPC   C2B34160   0.870   6.579   8.413
 2586POPC   C3B34161   0.919   6.730   8.013
 2586POPC   C4B34162   0.715   6.825   7.671
 2587POPC   NC334163  12.565  19.317   9.511
 2587POPC   PO434164  13.209  19.124   9.415
 2587POPC   GL134165  13.046  18.931   9.031
 2587POPC   GL234166  12.708  19.054   9.071
 2587POPC   C1A34167  12.928  18.868   8.630
 2587POPC   D2A34168  12.737  19.265   8.506
 2587POPC   C3A34169  12.922  19.479   8.172
 2587POPC   C4A34170  12.986  19.226   7.796
 2587POPC   C1B34171  12.428  18.920   8.734
 2587POPC   C2B34172  12.512  18.849   8.299
 2587POPC   C3B34173  12.667  18.854   7.909
 2587POPC   C4B34174  12.481  18.611   7.630
 2588POPC   NC334175  27.848   9.112   9.415
 2588POPC   PO434176  28.431   8.846   9.371
 2588POPC   GL134177  28.448   9.203   9.088
 2588POPC   GL234178  28.099   9.246   8.988
 2588POPC   C1A34179  28.515   9.380   8.666
 2588POPC   D2A34180  28.555   9.237   8.241
 2588POPC   C3A34181  28.694   8.829   8.133
 2588POPC   C4A34182  28.707   8.627   7.744
 2588POPC   C1B34183  28.266   8.912   8.682
 2588POPC   C2B34184  28.199   8.846   8.242
 2588POPC   C3B34185  28.248   8.856   7.780
 2588POPC   C4B34186  28.020   8.740   7.367
 2589POPC   NC334187   8.393   0.750   9.417
 2589POPC   PO434188   7.959   0.288   9.561
 2589POPC   GL134189   8.114   0.345   9.165
 2589POPC   GL234190   7.964   0.667   9.132
 2589POPC   C1A34191   8.128   0.216   8.728
 2589POPC   D2A34192   8.035   0.432   8.327
 2589POPC   C3A34193   7.954   0.164   7.966
 2589POPC   C4A34194   7.970   0.161   7.496
 2589POPC   C1B34195   8.258   0.717   8.756
 2589POPC   C2B34196   8.444   0.760   8.341
 2589POPC   C3B34197   8.405   0.580   7.930
 2589POPC   C4B34198   8.505   0.647   7.494
 2590POPC   NC334199  21.073  11.408   9.593
 2590POPC   PO434200  21.623  11.033   9.560
 2590POPC   GL134201  21.411  11.305   9.211
 2590POPC   GL234202  21.256  11.057   9.030
 2590POPC   C1A34203  21.220  11.500   8.780
 2590POPC   D2A34204  21.192  11.271   8.319
 2590POPC   C3A34205  21.230  11.503   7.865
 2590POPC   C4A34206  21.121  11.582   7.361
 2590POPC   C1B34207  21.625  11.237   8.700
 2590POPC   C2B34208  21.733  11.341   8.287
 2590POPC   C3B34209  21.581  11.059   7.964
 2590POPC   C4B34210  21.175  10.891   7.798
 2591POPC   NC334211  28.548  28.876   9.266
 2591POPC   PO434212  28.274  29.410   9.523
 2591POPC   GL134213  28.157  29.200   9.126
 2591POPC   GL234214  28.081  28.817   9.067
 2591POPC   C1A34215  28.154  29.149   8.671
 2591POPC   D2A34216  28.175  28.981   8.243
 2591POPC   C3A34217  28.328  29.338   8.002
 2591POPC   C4A34218  28.693  29.457   7.712
 2591POPC   C1B34219  28.290  28.632   8.691
 2591POPC   C2B34220  28.575  28.605   8.311
 2591POPC   C3B34221  28.486  28.633   7.864
 2591POPC   C4B34222  28.266  28.943   7.710
 2592POPC   NC334223  18.505  10.052   9.530
 2592POPC   PO434224  18.055   9.592   9.468
 2592POPC   GL134225  18.228   9.581   9.060
 2592POPC   GL234226  18.276   9.931   9.088
 2592POPC   C1A34227  18.270   9.718   8.607
 2592POPC   D2A34228  18.391   9.592   8.215
 2592POPC   C3A34229  18.119   9.573   7.874
 2592POPC   C4A34230  18.192   9.392   7.445
 2592POPC   C1B34231  18.464  10.167   8.777
 2592POPC   C2B34232  18.383  10.304   8.397
 2592POPC   C3B34233  18.305  10.073   8.058
 2592POPC   C4B34234  18.559   9.855   7.816
 2593POPC   NC334235  13.772  20.371   9.463
 2593POPC   PO434236  13.365  20.942   9.409
 2593POPC   GL134237  13.514  20.619   9.070
 2593POPC   GL234238  13.871  20.561   9.016
 2593POPC   C1A34239  13.501  20.489   8.654
 2593POPC   D2A34240  13.710  20.414   8.268
 2593POPC   C3A34241  13.580  20.268   7.825
 2593POPC   C4A34242  13.378  20.339   7.379
 2593POPC   C1B34243  13.992  20.730   8.638
 2593POPC   C2B34244  13.955  20.875   8.233
 2593POPC   C3B34245  14.032  20.800   7.791
 2593POPC   C4B34246  13.780  20.682   7.448
 2594POPC   NC334247   6.099  21.695   9.434
 2594POPC   PO434248   5.614  21.278   9.457
 2594POPC   GL134249   5.887  21.161   9.137
 2594POPC   GL234250   6.181  20.970   9.147
 2594POPC   C1A34251   6.012  21.354   8.755
 2594POPC   D2A34252   6.073  21.533   8.342
 2594POPC   C3A34253   5.746  21.428   8.050
 2594POPC   C4A34254   5.759  21.388   7.643
 2594POPC   C1B34255   6.085  20.871   8.701
 2594POPC   C2B34256   5.849  21.047   8.354
 2594POPC   C3B34257   6.011  20.994   7.907
 2594POPC   C4B34258   6.214  20.960   7.476
 2595POPC   NC334259  17.089  18.708   9.592
 2595POPC   PO434260  17.499  19.244   9.449
 2595POPC   GL134261  17.520  19.123   9.069
 2595POPC   GL234262  17.314  18.835   9.098
 2595POPC   C1A34263  17.700  19.306   8.682
 2595POPC   D2A34264  17.535  19.408   8.283
 2595POPC   C3A34265  17.664  19.229   7.892
 2595POPC   C4A34266  17.848  19.334   7.517
 2595POPC   C1B34267  17.419  18.879   8.644
 2595POPC   C2B34268  17.576  18.840   8.225
 2595POPC   C3B34269  17.292  18.865   7.880
 2595POPC   C4B34270  17.170  18.673   7.483
 2596POPC   NC334271   4.384  33.156   9.758
 2596POPC   PO434272   4.769  32.790   9.362
 2596POPC   GL134273   4.295  33.031   9.203
 2596POPC   GL234274   4.053  32.897   8.988
 2596POPC   C1A34275   4.216  33.340   8.839
 2596POPC   D2A34276   4.249  33.067   8.490
 2596POPC   C3A34277   4.133  33.223   8.125
 2596POPC   C4A34278   4.208  33.307   7.731
 2596POPC   C1B34279   4.497  32.743   8.797
 2596POPC   C2B34280   4.600  32.454   8.461
 2596POPC   C3B34281   4.378  32.500   8.093
 2596POPC   C4B34282   4.427  32.855   7.879
 2597POPC   NC334283  20.887  30.188   9.427
 2597POPC   PO434284  21.532  29.792   9.497
 2597POPC   GL134285  21.540  29.895   9.127
 2597POPC   GL234286  21.154  29.870   9.105
 2597POPC   C1A34287  21.718  29.714   8.732
 2597POPC   D2A34288  21.776  29.871   8.318
 2597POPC   C3A34289  21.486  29.831   7.990
 2597POPC   C4A34290  21.195  29.854   7.630
 2597POPC   C1B34291  21.319  30.051   8.728
 2597POPC   C2B34292  21.438  30.247   8.405
 2597POPC   C3B34293  21.199  30.244   8.068
 2597POPC   C4B34294  21.339  30.338   7.700
 2598POPC   NC334295  13.587  22.777   9.307
 2598POPC   PO434296  13.450  23.418   9.527
 2598POPC   GL134297  13.383  23.248   9.154
 2598POPC   GL234298  13.737  23.210   9.034
 2598POPC   C1A34299  13.323  23.195   8.727
 2598POPC   D2A34300  13.643  23.349   8.459
 2598POPC   C3A34301  13.658  23.178   8.063
 2598POPC   C4A34302  13.514  22.819   7.867
 2598POPC   C1B34303  13.719  22.889   8.682
 2598POPC   C2B34304  13.635  22.589   8.396
 2598POPC   C3B34305  13.667  22.365   8.056
 2598POPC   C4B34306  13.810  22.463   7.643
 2599POPC   NC334307  30.165   6.682   9.476
 2599POPC   PO434308  29.555   6.878   9.469
 2599POPC   GL134309  29.833   6.845   9.126
 2599POPC   GL234310  29.858   6.456   9.131
 2599POPC   C1A34311  29.955   6.781   8.701
 2599POPC   D2A34312  29.830   6.528   8.389
 2599POPC   C3A34313  29.831   6.723   8.007
 2599POPC   C4A34314  29.866   6.678   7.596
 2599POPC   C1B34315  30.098   6.291   8.785
 2599POPC   C2B34316  30.098   6.101   8.363
 2599POPC   C3B34317  29.981   6.209   7.896
 2599POPC   C4B34318  30.090   6.251   7.418
 2600POPC   NC334319  30.915  43.859   9.436
 2600POPC   PO434320  30.253  43.960   9.371
 2600POPC   GL134321  30.519  43.706   9.062
 2600POPC   GL234322  30.880  43.705   8.959
 2600POPC   C1A34323  30.521  43.542   8.644
 2600POPC   D2A34324  30.538  43.405   8.208
 2600POPC   C3A34325  30.677  43.765   7.940
 2600POPC   C4A34326  31.032  44.009   7.741
 2600POPC   C1B34327  30.648  44.044   8.713
 2600POPC   C2B34328  30.618  44.147   8.279
 2600POPC   C3B34329  30.594  44.293   7.843
 2600POPC   C4B34330  30.908  44.497   7.581
 2601POPC   NC334331  10.226   5.799   9.567
 2601POPC   PO434332  10.704   6.270   9.412
 2601POPC   GL134333  10.334   6.079   9.103
 2601POPC   GL234334  10.266   5.699   9.083
 2601POPC   C1A34335  10.311   5.959   8.622
 2601POPC   D2A34336  10.646   5.865   8.329
 2601POPC   C3A34337  10.677   5.874   7.873
 2601POPC   C4A34338  10.609   6.156   7.528
 2601POPC   C1B34339  10.163   5.437   8.767
 2601POPC   C2B34340  10.320   5.427   8.398
 2601POPC   C3B34341  10.258   5.645   8.060
 2601POPC   C4B34342  10.227   5.484   7.663
 2602POPC   NC334343  37.754  20.022   9.683
 2602POPC   PO434344  37.282  19.862   9.292
 2602POPC   GL134345  37.676  19.761   9.123
 2602POPC   GL234346  37.991  19.884   9.229
 2602POPC   C1A34347  37.708  19.646   8.735
 2602POPC   D2A34348  37.418  19.711   8.435
 2602POPC   C3A34349  37.603  19.569   8.059
 2602POPC   C4A34350  37.750  19.742   7.696
 2602POPC   C1B34351  38.011  20.073   8.801
 2602POPC   C2B34352  37.945  19.938   8.362
 2602POPC   C3B34353  38.010  20.152   7.934
 2602POPC   C4B34354  37.975  20.149   7.444
 2603POPC   NC334355   7.397   9.286   9.438
 2603POPC   PO434356   7.708   8.624   9.460
 2603POPC   GL134357   7.523   8.862   9.153
 2603POPC   GL234358   7.749   9.135   9.082
 2603POPC   C1A34359   7.400   8.800   8.746
 2603POPC   D2A34360   7.321   8.985   8.354
 2603POPC   C3A34361   7.605   8.912   8.021
 2603POPC   C4A34362   7.298   8.840   7.759
 2603POPC   C1B34363   7.660   9.245   8.653
 2603POPC   C2B34364   7.583   9.408   8.226
 2603POPC   C3B34365   7.509   9.341   7.786
 2603POPC   C4B34366   7.693   9.091   7.489
 2604POPC   NC334367  21.280  42.966   9.409
 2604POPC   PO434368  21.963  42.949   9.361
 2604POPC   GL134369  21.686  42.918   9.104
 2604POPC   GL234370  21.692  43.246   9.036
 2604POPC   C1A34371  21.517  42.862   8.727
 2604POPC   D2A34372  21.346  42.873   8.353
 2604POPC   C3A34373  21.600  43.038   8.042
 2604POPC   C4A34374  21.397  42.817   7.764
 2604POPC   C1B34375  21.386  43.350   8.781
 2604POPC   C2B34376  21.480  43.380   8.411
 2604POPC   C3B34377  21.274  43.542   8.129
 2604POPC   C4B34378  21.397  43.485   7.754
 2605POPC   NC334379  24.114  38.398   9.594
 2605POPC   PO434380  23.447  38.504   9.568
 2605POPC   GL134381  23.756  38.491   9.227
 2605POPC   GL234382  23.843  38.161   9.225
 2605POPC   C1A34383  23.891  38.620   8.822
 2605POPC   D2A34384  23.943  38.829   8.432
 2605POPC   C3A34385  23.784  38.612   8.109
 2605POPC   C4A34386  23.585  38.641   7.741
 2605POPC   C1B34387  23.646  38.123   8.831
 2605POPC   C2B34388  23.839  38.233   8.462
 2605POPC   C3B34389  23.852  38.105   8.073
 2605POPC   C4B34390  23.976  38.301   7.718
 2606POPC   NC334391  37.465  25.720   9.499
 2606POPC   PO434392  37.880  26.214   9.557
 2606POPC   GL134393  37.697  26.090   9.196
 2606POPC   GL234394  37.893  25.788   9.177
 2606POPC   C1A34395  37.708  26.272   8.796
 2606POPC   D2A34396  37.944  26.388   8.445
 2606POPC   C3A34397  37.896  26.213   8.063
 2606POPC   C4A34398  37.842  26.063   7.676
 2606POPC   C1B34399  37.612  25.719   8.835
 2606POPC   C2B34400  37.716  25.874   8.447
 2606POPC   C3B34401  37.691  25.729   8.060
 2606POPC   C4B34402  37.799  25.561   7.686
 2607POPC   NC334403  17.180  30.699   9.500
 2607POPC   PO434404  17.855  30.426   9.587
 2607POPC   GL134405  17.717  30.656   9.197
 2607POPC   GL234406  17.516  30.972   9.196
 2607POPC   C1A34407  17.637  30.559   8.773
 2607POPC   D2A34408  17.406  30.368   8.425
 2607POPC   C3A34409  17.620  30.393   8.018
 2607POPC   C4A34410  17.858  30.698   7.792
 2607POPC   C1B34411  17.615  31.090   8.770
 2607POPC   C2B34412  17.627  30.866   8.342
 2607POPC   C3B34413  17.436  30.947   7.941
 2607POPC   C4B34414  17.483  31.125   7.536
 2608POPC   NC334415   2.580  10.835   9.386
 2608POPC   PO434416   2.976  10.216   9.366
 2608POPC   GL134417   2.860  10.524   9.078
 2608POPC   GL234418   2.530  10.391   9.155
 2608POPC   C1A34419   2.946  10.581   8.636
 2608POPC   D2A34420   3.171  10.283   8.366
 2608POPC   C3A34421   2.964  10.355   7.988
 2608POPC   C4A34422   2.653  10.665   7.860
 2608POPC   C1B34423   2.495  10.340   8.734
 2608POPC   C2B34424   2.307  10.480   8.357
 2608POPC   C3B34425   2.379  10.223   8.005
 2608POPC   C4B34426   2.600  10.206   7.645
 2609POPC   NC334427   8.491  41.283   9.511
 2609POPC   PO434428   8.287  41.822   9.556
 2609POPC   GL134429   8.439  41.716   9.178
 2609POPC   GL234430   8.255  41.435   9.057
 2609POPC   C1A34431   8.299  41.881   8.773
 2609POPC   D2A34432   7.960  41.887   8.461
 2609POPC   C3A34433   8.151  41.769   8.087
 2609POPC   C4A34434   8.042  41.684   7.671
 2609POPC   C1B34435   8.001  41.398   8.674
 2609POPC   C2B34436   8.059  41.162   8.297
 2609POPC   C3B34437   8.200  41.263   7.887
 2609POPC   C4B34438   7.955  41.211   7.490
 2610POPC   NC334439   0.619   6.214   9.504
 2610POPC   PO434440   0.473   5.498   9.505
 2610POPC   GL134441   0.612   5.706   9.133
 2610POPC   GL234442   0.622   6.070   9.030
 2610POPC   C1A34443   0.370   5.732   8.769
 2610POPC   D2A34444   0.239   5.912   8.415
 2610POPC   C3A34445   0.434   5.845   8.038
 2610POPC   C4A34446   0.338   5.667   7.645
 2610POPC   C1B34447   0.498   6.292   8.672
 2610POPC   C2B34448   0.475   6.326   8.227
 2610POPC   C3B34449   0.614   6.339   7.814
 2610POPC   C4B34450   0.693   6.402   7.360
 2611POPC   NC334451   5.810  42.667   9.583
 2611POPC   PO434452   6.019  42.094   9.521
 2611POPC   GL134453   5.983  42.379   9.179
 2611POPC   GL234454   5.614  42.474   9.127
 2611POPC   C1A34455   5.976  42.280   8.756
 2611POPC   D2A34456   6.176  42.146   8.385
 2611POPC   C3A34457   5.948  42.206   7.994
 2611POPC   C4A34458   6.167  42.381   7.643
 2611POPC   C1B34459   5.681  42.701   8.727
 2611POPC   C2B34460   5.932  42.617   8.362
 2611POPC   C3B34461   5.851  42.716   7.946
 2611POPC   C4B34462   5.643  42.552   7.566
 2612POPC   NC334463   8.968  33.710   9.486
 2612POPC   PO434464   8.584  34.189   9.312
 2612POPC   GL134465   8.809  33.944   9.009
 2612POPC   GL234466   9.177  33.854   9.045
 2612POPC   C1A34467   8.879  33.855   8.577
 2612POPC   D2A34468   8.851  33.615   8.212
 2612POPC   C3A34469   8.942  33.777   7.838
 2612POPC   C4A34470   8.676  33.928   7.576
 2612POPC   C1B34471   9.232  34.176   8.763
 2612POPC   C2B34472   9.163  34.212   8.323
 2612POPC   C3B34473   9.372  33.873   8.103
 2612POPC   C4B34474   9.414  33.654   7.687
 2613POPC   NC334475  40.499  11.369   9.492
 2613POPC   PO434476  41.042  11.060   9.277
 2613POPC   GL134477  40.991  11.411   9.074
 2613POPC   GL234478  40.669  11.433   8.999
 2613POPC   C1A34479  41.186  11.560   8.752
 2613POPC   D2A34480  41.002  11.635   8.354
 2613POPC   C3A34481  40.889  11.265   8.167
 2613POPC   C4A34482  40.975  11.150   7.757
 2613POPC   C1B34483  40.536  11.048   8.751
 2613POPC   C2B34484  40.382  11.074   8.322
 2613POPC   C3B34485  40.430  11.428   8.032
 2613POPC   C4B34486  40.486  11.269   7.645
 2614POPC   NC334487  20.043  17.034   9.732
 2614POPC   PO434488  19.779  16.443   9.594
 2614POPC   GL134489  19.747  16.500   9.186
 2614POPC   GL234490  19.519  16.244   9.166
 2614POPC   C1A34491  19.969  16.600   8.809
 2614POPC   D2A34492  20.188  16.671   8.404
 2614POPC   C3A34493  20.009  16.829   8.018
 2614POPC   C4A34494  19.978  16.596   7.649
 2614POPC   C1B34495  19.464  16.366   8.736
 2614POPC   C2B34496  19.661  16.567   8.414
 2614POPC   C3B34497  19.755  16.396   8.071
 2614POPC   C4B34498  19.512  16.412   7.745
 2615POPC   NC334499  38.821  40.591   9.238
 2615POPC   PO434500  38.236  41.013   9.398
 2615POPC   GL134501  38.356  40.740   9.087
 2615POPC   GL234502  38.043  40.648   8.927
 2615POPC   C1A34503  38.476  40.709   8.658
 2615POPC   D2A34504  38.161  40.682   8.346
 2615POPC   C3A34505  38.462  40.612   8.066
 2615POPC   C4A34506  38.696  40.785   7.780
 2615POPC   C1B34507  38.121  41.076   8.744
 2615POPC   C2B34508  38.321  41.383   8.497
 2615POPC   C3B34509  38.372  41.123   8.149
 2615POPC   C4B34510  38.212  40.948   7.778
 2616POPC   NC334511  28.716   1.581   9.485
 2616POPC   PO434512  29.231   1.141   9.647
 2616POPC   GL134513  29.241   1.144   9.161
 2616POPC   GL234514  28.889   1.239   9.102
 2616POPC   C1A34515  29.224   1.389   8.759
 2616POPC   D2A34516  29.067   1.332   8.382
 2616POPC   C3A34517  29.358   1.278   8.048
 2616POPC   C4A34518  29.275   1.529   7.707
 2616POPC   C1B34519  28.756   1.586   8.788
 2616POPC   C2B34520  28.571   1.543   8.384
 2616POPC   C3B34521  28.766   1.580   7.990
 2616POPC   C4B34522  28.768   1.472   7.569
 2617POPC   NC334523  22.556   6.118   9.592
 2617POPC   PO434524  22.763   5.609   9.370
 2617POPC   GL134525  22.976   5.972   9.201
 2617POPC   GL234526  23.187   5.793   9.026
 2617POPC   C1A34527  23.016   6.179   8.763
 2617POPC   D2A34528  23.141   6.014   8.399
 2617POPC   C3A34529  22.965   6.262   8.067
 2617POPC   C4A34530  22.907   6.099   7.667
 2617POPC   C1B34531  22.827   5.697   8.757
 2617POPC   C2B34532  22.874   5.548   8.402
 2617POPC   C3B34533  22.880   5.747   8.043
 2617POPC   C4B34534  22.670   5.643   7.707
 2618POPC   NC334535  25.281  18.516   9.752
 2618POPC   PO434536  25.245  19.255   9.585
 2618POPC   GL134537  25.248  19.157   9.110
 2618POPC   GL234538  25.016  19.309   8.946
 2618POPC   C1A34539  25.122  18.848   8.758
 2618POPC   D2A34540  24.961  18.862   8.331
 2618POPC   C3A34541  25.218  18.896   7.957
 2618POPC   C4A34542  25.112  18.910   7.512
 2618POPC   C1B34543  25.175  19.292   8.544
 2618POPC   C2B34544  25.507  19.368   8.298
 2618POPC   C3B34545  25.488  19.321   7.846
 2618POPC   C4B34546  25.514  19.228   7.417
 2619POPC   NC334547  18.301  30.228   9.578
 2619POPC   PO434548  18.065  29.733   9.493
 2619POPC   GL134549  18.129  30.019   9.135
 2619POPC   GL234550  18.483  30.148   9.113
 2619POPC   C1A34551  18.162  29.950   8.688
 2619POPC   D2A34552  18.362  30.116   8.349
 2619POPC   C3A34553  18.073  30.070   8.016
 2619POPC   C4A34554  18.134  29.821   7.637
 2619POPC   C1B34555  18.650  29.937   8.784
 2619POPC   C2B34556  18.600  29.620   8.446
 2619POPC   C3B34557  18.467  29.694   8.033
 2619POPC   C4B34558  18.620  29.723   7.636
 2620POPC   NC334559   6.369   6.271   9.448
 2620POPC   PO434560   6.935   6.532   9.413
 2620POPC   GL134561   6.596   6.622   9.115
 2620POPC   GL234562   6.392   6.363   8.954
 2620POPC   C1A34563   6.538   6.774   8.695
 2620POPC   D2A34564   6.354   6.632   8.332
 2620POPC   C3A34565   6.519   6.702   7.959
 2620POPC   C4A34566   6.771   7.063   7.889
 2620POPC   C1B34567   6.282   6.193   8.565
 2620POPC   C2B34568   6.480   6.163   8.158
 2620POPC   C3B34569   6.853   6.311   7.989
 2620POPC   C4B34570   6.806   6.471   7.599
 2621POPC   NC334571  41.937  14.394   9.384
 2621POPC   PO434572  42.618  14.264   9.517
 2621POPC   GL134573  42.444  14.299   9.137
 2621POPC   GL234574  42.506  14.653   9.134
 2621POPC   C1A34575  42.263  14.371   8.746
 2621POPC   D2A34576  42.152  14.148   8.408
 2621POPC   C3A34577  42.351  14.255   8.051
 2621POPC   C4A34578  42.180  14.394   7.643
 2621POPC   C1B34579  42.438  14.855   8.734
 2621POPC   C2B34580  42.295  14.709   8.324
 2621POPC   C3B34581  42.429  14.758   7.885
 2621POPC   C4B34582  42.520  14.716   7.397
 2622POPC   NC334583  33.036  35.857   9.539
 2622POPC   PO434584  32.771  36.431   9.684
 2622POPC   GL134585  33.138  36.246   9.271
 2622POPC   GL234586  32.994  35.994   9.043
 2622POPC   C1A34587  33.322  36.265   8.799
 2622POPC   D2A34588  33.306  36.230   8.356
 2622POPC   C3A34589  32.969  36.117   8.108
 2622POPC   C4A34590  33.136  36.258   7.717
 2622POPC   C1B34591  32.771  35.681   8.779
 2622POPC   C2B34592  32.630  35.737   8.341
 2622POPC   C3B34593  32.759  35.678   7.900
 2622POPC   C4B34594  32.891  35.843   7.481
 2623POPC   NC334595  38.111  31.301   9.558
 2623POPC   PO434596  38.594  31.727   9.543
 2623POPC   GL134597  38.513  31.568   9.130
 2623POPC   GL234598  38.179  31.462   9.108
 2623POPC   C1A34599  38.728  31.599   8.701
 2623POPC   D2A34600  38.875  31.682   8.279
 2623POPC   C3A34601  38.596  31.496   7.947
 2623POPC   C4A34602  38.530  31.667   7.527
 2623POPC   C1B34603  37.999  31.327   8.739
 2623POPC   C2B34604  38.113  31.242   8.358
 2623POPC   C3B34605  38.060  31.463   7.991
 2623POPC   C4B34606  38.147  31.352   7.608
 2624POPC   NC334607  21.005   9.281   9.493
 2624POPC   PO434608  20.404   9.008   9.434
 2624POPC   GL134609  20.745   8.986   9.144
 2624POPC   GL234610  20.842   9.305   9.005
 2624POPC   C1A34611  20.906   8.836   8.764
 2624POPC   D2A34612  20.760   8.528   8.465
 2624POPC   C3A34613  20.779   8.711   8.075
 2624POPC   C4A34614  20.537   8.947   7.767
 2624POPC   C1B34615  20.547   9.178   8.676
 2624POPC   C2B34616  20.501   9.183   8.242
 2624POPC   C3B34617  20.594   9.433   7.905
 2624POPC   C4B34618  20.829   9.357   7.543
 2625POPC   NC334619  34.394   1.851  10.121
 2625POPC   PO434620  34.672   2.103   9.554
 2625POPC   GL134621  34.667   2.033   9.107
 2625POPC   GL234622  34.521   1.689   9.116
 2625POPC   C1A34623  34.864   2.179   8.703
 2625POPC   D2A34624  34.995   2.318   8.275
 2625POPC   C3A34625  34.830   2.172   7.866
 2625POPC   C4A34626  34.711   1.951   7.464
 2625POPC   C1B34627  34.582   1.753   8.681
 2625POPC   C2B34628  34.475   2.079   8.368
 2625POPC   C3B34629  34.404   1.933   7.966
 2625POPC   C4B34630  34.566   1.557   7.765
 2626POPC   NC334631   3.476  26.554   9.481
 2626POPC   PO434632   3.715  25.927   9.480
 2626POPC   GL134633   3.766  26.219   9.180
 2626POPC   GL234634   3.415  26.236   9.064
 2626POPC   C1A34635   3.821  26.210   8.751
 2626POPC   D2A34636   3.530  26.220   8.426
 2626POPC   C3A34637   3.664  26.023   8.080
 2626POPC   C4A34638   3.819  26.174   7.729
 2626POPC   C1B34639   3.190  25.986   8.727
 2626POPC   C2B34640   3.144  25.919   8.249
 2626POPC   C3B34641   3.243  25.812   7.812
 2626POPC   C4B34642   2.972  25.633   7.431
 2627POPC   NC334643   0.475  30.171   9.472
 2627POPC   PO434644   0.226  29.587   9.288
 2627POPC   GL134645   0.275  29.960   9.049
 2627POPC   GL234646   0.650  30.082   9.000
 2627POPC   C1A34647   0.315  29.928   8.630
 2627POPC   D2A34648   0.587  30.112   8.365
 2627POPC   C3A34649   0.283  30.308   8.128
 2627POPC   C4A34650   0.200  30.145   7.746
 2627POPC   C1B34651   0.749  29.723   8.725
 2627POPC   C2B34652   0.920  29.734   8.265
 2627POPC   C3B34653   0.772  29.733   7.794
 2627POPC   C4B34654   0.622  29.581   7.330
 2628POPC   NC334655  19.811  39.179   9.782
 2628POPC   PO434656  19.235  39.520   9.501
 2628POPC   GL134657  19.070  39.410   9.098
 2628POPC   GL234658  18.965  39.058   9.032
 2628POPC   C1A34659  19.265  39.299   8.714
 2628POPC   D2A34660  19.002  39.124   8.441
 2628POPC   C3A34661  19.178  39.058   8.107
 2628POPC   C4A34662  19.159  39.318   7.783
 2628POPC   C1B34663  18.705  38.846   8.755
 2628POPC   C2B34664  18.523  38.956   8.391
 2628POPC   C3B34665  18.678  39.050   8.008
 2628POPC   C4B34666  18.848  38.909   7.648
 2629POPC   NC334667  33.382  26.737   9.421
 2629POPC   PO434668  32.748  26.649   9.588
 2629POPC   GL134669  32.714  26.643   9.144
 2629POPC   GL234670  32.979  26.874   9.043
 2629POPC   C1A34671  32.807  26.511   8.699
 2629POPC   D2A34672  33.090  26.642   8.342
 2629POPC   C3A34673  33.034  26.526   7.888
 2629POPC   C4A34674  33.356  26.526   7.555
 2629POPC   C1B34675  33.315  26.945   8.728
 2629POPC   C2B34676  33.269  27.142   8.319
 2629POPC   C3B34677  33.066  27.014   7.985
 2629POPC   C4B34678  33.481  26.968   7.843
 2630POPC   NC334679  36.583   4.997   9.404
 2630POPC   PO434680  37.199   5.294   9.547
 2630POPC   GL134681  37.137   5.141   9.134
 2630POPC   GL234682  37.058   4.799   9.125
 2630POPC   C1A34683  36.876   5.093   8.740
 2630POPC   D2A34684  36.757   5.346   8.373
 2630POPC   C3A34685  36.854   5.143   7.962
 2630POPC   C4A34686  36.881   5.378   7.536
 2630POPC   C1B34687  37.298   4.792   8.791
 2630POPC   C2B34688  37.241   4.682   8.386
 2630POPC   C3B34689  37.338   4.879   7.998
 2630POPC   C4B34690  37.156   4.953   7.603
 2631POPC   NC334691  27.081  35.439   9.645
 2631POPC   PO434692  26.487  35.768   9.563
 2631POPC   GL134693  26.739  35.505   9.259
 2631POPC   GL234694  27.098  35.609   9.173
 2631POPC   C1A34695  26.727  35.314   8.866
 2631POPC   D2A34696  26.559  35.471   8.490
 2631POPC   C3A34697  26.610  35.160   8.198
 2631POPC   C4A34698  26.880  35.183   7.824
 2631POPC   C1B34699  27.204  35.453   8.767
 2631POPC   C2B34700  27.093  35.349   8.354
 2631POPC   C3B34701  27.293  35.462   7.971
 2631POPC   C4B34702  27.119  35.571   7.599
 2632POPC   NC334703  29.448  26.783   9.597
 2632POPC   PO434704  28.847  26.979   9.514
 2632POPC   GL134705  29.154  26.959   9.185
 2632POPC   GL234706  29.103  26.643   9.168
 2632POPC   C1A34707  29.096  26.911   8.724
 2632POPC   D2A34708  28.725  26.899   8.454
 2632POPC   C3A34709  28.921  27.009   8.047
 2632POPC   C4A34710  29.307  27.187   7.807
 2632POPC   C1B34711  28.874  26.459   8.804
 2632POPC   C2B34712  29.019  26.456   8.372
 2632POPC   C3B34713  28.952  26.487   7.936
 2632POPC   C4B34714  29.114  26.777   7.615
 2633POPC   NC334715  10.908  25.367   9.497
 2633POPC   PO434716  10.366  25.060   9.597
 2633POPC   GL134717  10.571  25.104   9.192
 2633POPC   GL234718  10.411  24.888   8.986
 2633POPC   C1A34719  10.551  25.353   8.792
 2633POPC   D2A34720  10.304  25.541   8.424
 2633POPC   C3A34721  10.482  25.514   8.001
 2633POPC   C4A34722  10.637  25.453   7.593
 2633POPC   C1B34723  10.157  25.066   8.615
 2633POPC   C2B34724  10.186  25.138   8.155
 2633POPC   C3B34725  10.405  25.001   7.781
 2633POPC   C4B34726  10.356  25.140   7.326
 2634POPC   NC334727  43.690  30.558   9.488
 2634POPC   PO434728  44.230  30.824   9.396
 2634POPC   GL134729  43.885  30.937   9.157
 2634POPC   GL234730  43.841  30.632   9.027
 2634POPC   C1A34731  43.605  30.993   8.788
 2634POPC   D2A34732  43.643  30.669   8.457
 2634POPC   C3A34733  43.881  30.848   8.142
 2634POPC   C4A34734  43.884  30.673   7.758
 2634POPC   C1B34735  44.089  30.730   8.705
 2634POPC   C2B34736  44.151  30.466   8.378
 2634POPC   C3B34737  44.320  30.591   8.022
 2634POPC   C4B34738  44.314  30.982   7.816
 2635POPC   NC334739  10.417  42.956   9.620
 2635POPC   PO434740  10.730  43.495   9.350
 2635POPC   GL134741  10.654  43.231   9.031
 2635POPC   GL234742  10.701  42.924   9.172
 2635POPC   C1A34743  10.604  43.195   8.583
 2635POPC   D2A34744  10.370  42.920   8.313
 2635POPC   C3A34745  10.487  43.102   7.930
 2635POPC   C4A34746  10.562  43.558   7.909
 2635POPC   C1B34747  10.776  42.758   8.760
 2635POPC   C2B34748  10.774  42.633   8.308
 2635POPC   C3B34749  10.894  42.623   7.852
 2635POPC   C4B34750  10.623  42.714   7.447
 2636POPC   NC334751  43.826  24.768   9.469
 2636POPC   PO434752  43.971  24.118   9.537
 2636POPC   GL134753  43.976  24.356   9.140
 2636POPC   GL234754  44.053  24.709   9.022
 2636POPC   C1A34755  43.711  24.428   8.762
 2636POPC   D2A34756  43.564  24.249   8.374
 2636POPC   C3A34757  43.753  24.407   8.017
 2636POPC   C4A34758  43.644  24.546   7.618
 2636POPC   C1B34759  44.243  24.445   8.708
 2636POPC   C2B34760  44.130  24.183   8.384
 2636POPC   C3B34761  44.235  24.197   7.993
 2636POPC   C4B34762  44.179  24.585   7.788
 2637POPC   NC334763  24.035  42.368   9.442
 2637POPC   PO434764  23.398  42.666   9.459
 2637POPC   GL134765  23.611  42.401   9.156
 2637POPC   GL234766  23.941  42.498   8.980
 2637POPC   C1A34767  23.492  42.200   8.803
 2637POPC   D2A34768  23.301  42.133   8.416
 2637POPC   C3A34769  23.589  42.137   8.073
 2637POPC   C4A34770  23.441  42.255   7.659
 2637POPC   C1B34771  24.039  42.182   8.713
 2637POPC   C2B34772  24.162  42.214   8.298
 2637POPC   C3B34773  24.076  42.413   7.903
 2637POPC   C4B34774  23.918  42.381   7.473
 2638POPC   NC334775   6.274  12.406   9.622
 2638POPC   PO434776   6.450  11.812   9.535
 2638POPC   GL134777   6.546  11.835   9.153
 2638POPC   GL234778   6.825  11.714   9.023
 2638POPC   C1A34779   6.430  11.984   8.789
 2638POPC   D2A34780   6.630  11.858   8.470
 2638POPC   C3A34781   6.551  12.089   8.109
 2638POPC   C4A34782   6.477  11.944   7.707
 2638POPC   C1B34783   6.856  12.213   8.895
 2638POPC   C2B34784   6.868  12.349   8.489
 2638POPC   C3B34785   6.919  12.431   8.072
 2638POPC   C4B34786   6.933  12.208   7.668
 2639POPC   NC334787   1.906  33.456   9.568
 2639POPC   PO434788   2.101  34.058   9.700
 2639POPC   GL134789   1.851  33.842   9.264
 2639POPC   GL234790   2.087  33.629   9.080
 2639POPC   C1A34791   1.756  33.779   8.744
 2639POPC   D2A34792   1.670  33.834   8.275
 2639POPC   C3A34793   1.880  33.580   7.929
 2639POPC   C4A34794   1.912  33.635   7.489
 2639POPC   C1B34795   2.274  33.840   8.696
 2639POPC   C2B34796   2.155  34.025   8.304
 2639POPC   C3B34797   2.335  33.912   7.909
 2639POPC   C4B34798   2.392  33.607   7.590
 2640POPC   NC334799  17.834  32.525   9.654
 2640POPC   PO434800  18.373  32.105   9.546
 2640POPC   GL134801  18.380  32.285   9.154
 2640POPC   GL234802  18.080  32.471   9.188
 2640POPC   C1A34803  18.292  32.063   8.753
 2640POPC   D2A34804  18.080  32.035   8.360
 2640POPC   C3A34805  18.260  32.120   7.961
 2640POPC   C4A34806  18.131  31.892   7.618
 2640POPC   C1B34807  18.160  32.592   8.732
 2640POPC   C2B34808  18.288  32.572   8.263
 2640POPC   C3B34809  18.268  32.601   7.766
 2640POPC   C4B34810  18.278  32.612   7.284
 2641POPC   NC334811   5.422  22.422   9.542
 2641POPC   PO434812   4.896  21.972   9.494
 2641POPC   GL134813   5.064  22.105   9.128
 2641POPC   GL234814   5.405  21.999   9.198
 2641POPC   C1A34815   4.827  22.119   8.725
 2641POPC   D2A34816   4.776  22.385   8.351
 2641POPC   C3A34817   4.711  22.216   7.937
 2641POPC   C4A34818   4.854  22.313   7.532
 2641POPC   C1B34819   5.374  22.070   8.737
 2641POPC   C2B34820   5.165  22.046   8.351
 2641POPC   C3B34821   5.237  22.170   7.958
 2641POPC   C4B34822   5.430  22.028   7.617
 2642POPC   NC334823  30.109  31.923   9.553
 2642POPC   PO434824  29.848  32.552   9.514
 2642POPC   GL134825  29.795  32.182   9.242
 2642POPC   GL234826  30.132  32.105   9.058
 2642POPC   C1A34827  29.673  32.282   8.853
 2642POPC   D2A34828  29.943  32.385   8.530
 2642POPC   C3A34829  29.779  32.231   8.179
 2642POPC   C4A34830  30.021  32.261   7.838
 2642POPC   C1B34831  30.339  31.957   8.649
 2642POPC   C2B34832  30.233  31.914   8.196
 2642POPC   C3B34833  30.336  31.836   7.755
 2642POPC   C4B34834  30.242  31.805   7.300
 2643POPC   NC334835  38.852  44.185   9.345
 2643POPC   PO434836  38.700  43.550   9.651
 2643POPC   GL134837  38.363  43.637   9.272
 2643POPC   GL234838  38.295  43.993   9.198
 2643POPC   C1A34839  38.375  43.622   8.788
 2643POPC   D2A34840  38.133  43.625   8.442
 2643POPC   C3A34841  38.339  43.668   8.026
 2643POPC   C4A34842  38.252  43.896   7.706
 2643POPC   C1B34843  38.463  44.112   8.791
 2643POPC   C2B34844  38.412  44.058   8.366
 2643POPC   C3B34845  38.647  44.137   8.003
 2643POPC   C4B34846  38.761  43.853   7.712
 2644POPC   NC334847   9.761  41.806   9.632
 2644POPC   PO434848  10.011  41.226   9.731
 2644POPC   GL134849   9.880  41.491   9.276
 2644POPC   GL234850   9.497  41.557   9.243
 2644POPC   C1A34851   9.817  41.530   8.817
 2644POPC   D2A34852   9.992  41.312   8.449
 2644POPC   C3A34853   9.892  41.385   8.000
 2644POPC   C4A34854   9.988  41.825   7.833
 2644POPC   C1B34855   9.314  41.370   8.867
 2644POPC   C2B34856   9.453  41.419   8.460
 2644POPC   C3B34857   9.463  41.642   8.098
 2644POPC   C4B34858   9.449  41.382   7.746
 2645POPC   NC334859  11.736   1.084   9.418
 2645POPC   PO434860  11.122   1.424   9.493
 2645POPC   GL134861  11.055   1.303   9.079
 2645POPC   GL234862  11.264   1.027   9.070
 2645POPC   C1A34863  11.259   1.355   8.674
 2645POPC   D2A34864  11.296   1.151   8.289
 2645POPC   C3A34865  11.290   1.338   7.918
 2645POPC   C4A34866  11.640   1.525   7.840
 2645POPC   C1B34867  11.405   0.844   8.687
 2645POPC   C2B34868  11.456   0.667   8.304
 2645POPC   C3B34869  11.327   0.798   7.886
 2645POPC   C4B34870  10.992   0.658   7.626
 2646POPC   NC334871   8.884   9.223   9.563
 2646POPC   PO434872   8.582   8.709   9.239
 2646POPC   GL134873   8.928   8.916   9.135
 2646POPC   GL234874   8.711   9.167   9.061
 2646POPC   C1A34875   9.191   9.050   8.806
 2646POPC   D2A34876   9.212   9.150   8.376
 2646POPC   C3A34877   9.148   8.910   7.990
 2646POPC   C4A34878   9.169   9.022   7.527
 2646POPC   C1B34879   8.695   8.965   8.651
 2646POPC   C2B34880   8.701   9.203   8.308
 2646POPC   C3B34881   8.506   9.335   7.972
 2646POPC   C4B34882   8.731   9.082   7.748
 2647POPC   NC334883  26.310  39.197   9.604
 2647POPC   PO434884  25.768  39.596   9.563
 2647POPC   GL134885  25.820  39.375   9.189
 2647POPC   GL234886  25.951  39.069   9.255
 2647POPC   C1A34887  25.806  39.517   8.769
 2647POPC   D2A34888  26.003  39.523   8.378
 2647POPC   C3A34889  25.881  39.265   8.069
 2647POPC   C4A34890  26.038  39.246   7.670
 2647POPC   C1B34891  25.921  38.992   8.818
 2647POPC   C2B34892  26.104  38.960   8.422
 2647POPC   C3B34893  26.086  38.825   7.997
 2647POPC   C4B34894  25.705  38.870   7.740
 2648POPC   NC334895  11.584  17.379   9.633
 2648POPC   PO434896  12.102  17.903   9.556
 2648POPC   GL134897  12.118  17.646   9.169
 2648POPC   GL234898  11.882  17.395   9.103
 2648POPC   C1A34899  12.230  17.503   8.740
 2648POPC   D2A34900  12.484  17.667   8.394
 2648POPC   C3A34901  12.411  17.533   7.967
 2648POPC   C4A34902  12.293  17.715   7.582
 2648POPC   C1B34903  11.754  17.379   8.654
 2648POPC   C2B34904  11.752  17.302   8.236
 2648POPC   C3B34905  11.932  17.376   7.840
 2648POPC   C4B34906  11.870  17.355   7.381
 2649POPC   NC334907  26.676  19.996   9.471
 2649POPC   PO434908  27.158  19.667   9.412
 2649POPC   GL134909  27.067  19.968   9.070
 2649POPC   GL234910  26.696  19.979   8.935
 2649POPC   C1A34911  27.119  19.964   8.614
 2649POPC   D2A34912  26.835  19.747   8.355
 2649POPC   C3A34913  26.686  19.882   7.969
 2649POPC   C4A34914  26.963  19.750   7.681
 2649POPC   C1B34915  26.470  19.628   8.687
 2649POPC   C2B34916  26.406  19.505   8.214
 2649POPC   C3B34917  26.328  19.564   7.745
 2649POPC   C4B34918  26.430  19.426   7.290
 2650POPC   NC334919   7.384  42.549   9.514
 2650POPC   PO434920   7.630  41.878   9.472
 2650POPC   GL134921   7.522  42.212   9.150
 2650POPC   GL234922   7.181  42.411   9.072
 2650POPC   C1A34923   7.444  42.207   8.706
 2650POPC   D2A34924   7.343  42.026   8.333
 2650POPC   C3A34925   7.627  41.973   7.993
 2650POPC   C4A34926   7.623  41.975   7.547
 2650POPC   C1B34927   6.975  42.456   8.676
 2650POPC   C2B34928   7.213  42.512   8.298
 2650POPC   C3B34929   7.236  42.349   7.892
 2650POPC   C4B34930   7.045  42.627   7.624
 2651POPC   NC334931  19.458  22.763   9.529
 2651POPC   PO434932  18.868  23.008   9.484
 2651POPC   GL134933  19.128  22.967   9.156
 2651POPC   GL234934  19.384  23.203   9.238
 2651POPC   C1A34935  18.998  22.831   8.761
 2651POPC   D2A34936  19.121  23.077   8.413
 2651POPC   C3A34937  19.016  22.927   8.021
 2651POPC   C4A34938  18.804  22.911   7.652
 2651POPC   C1B34939  19.582  23.261   8.827
 2651POPC   C2B34940  19.551  23.411   8.388
 2651POPC   C3B34941  19.520  23.095   8.054
 2651POPC   C4B34942  19.345  23.038   7.628
 2652POPC   NC334943  31.571  43.199   9.488
 2652POPC   PO434944  31.288  42.600   9.622
 2652POPC   GL134945  31.344  42.743   9.219
 2652POPC   GL234946  31.693  42.763   9.136
 2652POPC   C1A34947  31.327  42.830   8.781
 2652POPC   D2A34948  31.520  42.677   8.396
 2652POPC   C3A34949  31.420  42.964   8.058
 2652POPC   C4A34950  31.541  43.051   7.649
 2652POPC   C1B34951  31.854  42.987   8.768
 2652POPC   C2B34952  31.865  43.113   8.326
 2652POPC   C3B34953  31.879  43.318   7.901
 2652POPC   C4B34954  31.904  43.694   7.598
 2653POPC   NC334955  32.953  42.283   9.466
 2653POPC   PO434956  33.017  42.952   9.499
 2653POPC   GL134957  33.022  42.636   9.135
 2653POPC   GL234958  32.681  42.598   9.100
 2653POPC   C1A34959  32.951  42.227   8.816
 2653POPC   D2A34960  33.091  42.023   8.424
 2653POPC   C3A34961  33.027  42.200   8.014
 2653POPC   C4A34962  32.909  42.341   7.621
 2653POPC   C1B34963  32.838  42.687   8.680
 2653POPC   C2B34964  32.756  42.480   8.308
 2653POPC   C3B34965  32.582  42.595   7.915
 2653POPC   C4B34966  32.694  42.763   7.476
 2654POPC   NC334967  26.575  43.778   9.548
 2654POPC   PO434968  27.154  44.125   9.733
 2654POPC   GL134969  26.905  44.092   9.351
 2654POPC   GL234970  26.991  43.739   9.256
 2654POPC   C1A34971  26.675  44.024   8.927
 2654POPC   D2A34972  26.788  43.954   8.472
 2654POPC   C3A34973  26.600  43.852   8.059
 2654POPC   C4A34974  26.405  43.712   7.713
 2654POPC   C1B34975  26.926  43.553   8.842
 2654POPC   C2B34976  27.179  43.625   8.482
 2654POPC   C3B34977  27.087  43.648   8.058
 2654POPC   C4B34978  27.121  43.903   7.728
 2655POPC   NC334979  17.998  38.170   9.367
 2655POPC   PO434980  18.390  37.665   9.422
 2655POPC   GL134981  18.433  37.633   9.022
 2655POPC   GL234982  18.086  37.501   8.935
 2655POPC   C1A34983  18.321  37.929   8.734
 2655POPC   D2A34984  18.223  38.035   8.355
 2655POPC   C3A34985  18.502  38.034   8.030
 2655POPC   C4A34986  18.419  37.848   7.694
 2655POPC   C1B34987  18.331  37.450   8.555
 2655POPC   C2B34988  18.348  37.551   8.135
 2655POPC   C3B34989  18.112  37.466   7.808
 2655POPC   C4B34990  18.007  37.429   7.365
 2656POPC   NC334991  29.546  41.823   9.438
 2656POPC   PO434992  30.159  41.525   9.635
 2656POPC   GL134993  30.012  41.565   9.231
 2656POPC   GL234994  29.998  41.895   9.170
 2656POPC   C1A34995  29.966  41.390   8.837
 2656POPC   D2A34996  30.001  41.541   8.432
 2656POPC   C3A34997  30.110  41.293   8.098
 2656POPC   C4A34998  29.878  41.237   7.744
 2656POPC   C1B34999  29.700  41.816   8.805
 2656POPC   C2B35000  29.511  41.791   8.381
 2656POPC   C3B35001  29.707  41.628   8.026
 2656POPC   C4B35002  29.819  41.763   7.646
 2657POPC   NC335003  26.648  12.006   9.488
 2657POPC   PO435004  27.258  12.110   9.440
 2657POPC   GL135005  26.979  11.946   9.100
 2657POPC   GL235006  26.672  12.158   9.004
 2657POPC   C1A35007  27.103  12.084   8.688
 2657POPC   D2A35008  26.946  12.119   8.254
 2657POPC   C3A35009  27.150  12.238   7.877
 2657POPC   C4A35010  27.082  12.132   7.459
 2657POPC   C1B35011  26.580  11.964   8.605
 2657POPC   C2B35012  26.455  12.042   8.161
 2657POPC   C3B35013  26.625  12.267   7.782
 2657POPC   C4B35014  26.424  12.362   7.356
 2658POPC   NC335015  16.766  12.175   9.513
 2658POPC   PO435016  16.288  11.702   9.484
 2658POPC   GL135017  16.540  11.962   9.123
 2658POPC   GL235018  16.918  12.007   9.070
 2658POPC   C1A35019  16.634  12.149   8.701
 2658POPC   D2A35020  16.591  12.282   8.297
 2658POPC   C3A35021  16.603  11.923   7.997
 2658POPC   C4A35022  16.711  11.946   7.550
 2658POPC   C1B35023  17.177  12.178   8.713
 2658POPC   C2B35024  17.104  12.281   8.259
 2658POPC   C3B35025  16.858  12.348   7.859
 2658POPC   C4B35026  16.993  12.335   7.424
 2659POPC   NC335027  34.174  15.324   9.421
 2659POPC   PO435028  33.486  15.381   9.516
 2659POPC   GL135029  33.566  15.371   9.127
 2659POPC   GL235030  33.860  15.553   9.082
 2659POPC   C1A35031  33.752  15.122   8.800
 2659POPC   D2A35032  33.940  15.103   8.392
 2659POPC   C3A35033  33.691  14.901   8.113
 2659POPC   C4A35034  33.648  15.004   7.711
 2659POPC   C1B35035  34.079  15.504   8.688
 2659POPC   C2B35036  33.869  15.615   8.327
 2659POPC   C3B35037  33.835  15.411   7.947
 2659POPC   C4B35038  34.056  15.263   7.581
 2660POPC   NC335039  20.038  33.984   9.611
 2660POPC   PO435040  19.406  33.716   9.555
 2660POPC   GL135041  19.737  33.823   9.212
 2660POPC   GL235042  20.076  34.037   9.127
 2660POPC   C1A35043  19.883  33.708   8.801
 2660POPC   D2A35044  19.823  33.952   8.435
 2660POPC   C3A35045  19.784  33.752   8.066
 2660POPC   C4A35046  20.122  33.772   7.807
 2660POPC   C1B35047  20.283  34.061   8.730
 2660POPC   C2B35048  20.242  34.237   8.326
 2660POPC   C3B35049  20.338  34.230   7.890
 2660POPC   C4B35050  20.070  34.358   7.567
 2661POPC   NC335051  38.604  18.886   9.510
 2661POPC   PO435052  38.174  19.473   9.523
 2661POPC   GL135053  38.478  19.279   9.208
 2661POPC   GL235054  38.268  19.009   9.138
 2661POPC   C1A35055  38.682  19.337   8.757
 2661POPC   D2A35056  38.921  19.105   8.383
 2661POPC   C3A35057  38.751  18.886   8.032
 2661POPC   C4A35058  38.414  19.131   7.882
 2661POPC   C1B35059  38.475  18.880   8.795
 2661POPC   C2B35060  38.383  18.991   8.403
 2661POPC   C3B35061  38.279  18.685   8.137
 2661POPC   C4B35062  38.399  18.637   7.732
 2662POPC   NC335063   7.260  18.862   9.429
 2662POPC   PO435064   7.609  19.397   9.519
 2662POPC   GL135065   7.565  19.506   9.106
 2662POPC   GL235066   7.290  19.254   9.065
 2662POPC   C1A35067   7.618  19.379   8.680
 2662POPC   D2A35068   7.496  19.008   8.487
 2662POPC   C3A35069   7.571  18.871   8.112
 2662POPC   C4A35070   7.435  19.109   7.803
 2662POPC   C1B35071   7.116  18.899   8.799
 2662POPC   C2B35072   7.051  18.744   8.396
 2662POPC   C3B35073   7.073  18.801   7.980
 2662POPC   C4B35074   6.801  18.810   7.666
 2663POPC   NC335075  34.758  20.858   9.344
 2663POPC   PO435076  34.185  20.740   9.617
 2663POPC   GL135077  34.332  20.604   9.176
 2663POPC   GL235078  34.665  20.413   9.102
 2663POPC   C1A35079  34.327  20.475   8.731
 2663POPC   D2A35080  34.276  20.249   8.353
 2663POPC   C3A35081  34.324  20.582   8.065
 2663POPC   C4A35082  34.156  20.628   7.664
 2663POPC   C1B35083  34.816  20.661   8.703
 2663POPC   C2B35084  34.976  20.792   8.279
 2663POPC   C3B35085  35.039  20.710   7.850
 2663POPC   C4B35086  34.648  20.835   7.683
 2664POPC   NC335087   7.873   1.588   9.475
 2664POPC   PO435088   8.387   1.191   9.511
 2664POPC   GL135089   8.237   1.395   9.146
 2664POPC   GL235090   7.985   1.183   9.162
 2664POPC   C1A35091   8.042   1.538   8.733
 2664POPC   D2A35092   8.013   1.716   8.289
 2664POPC   C3A35093   8.017   1.424   7.950
 2664POPC   C4A35094   8.197   1.443   7.541
 2664POPC   C1B35095   7.857   1.049   8.793
 2664POPC   C2B35096   8.069   1.110   8.423
 2664POPC   C3B35097   8.019   0.895   8.073
 2664POPC   C4B35098   8.144   0.963   7.686
 2665POPC   NC335099  35.864  40.307   9.465
 2665POPC   PO435100  36.265  39.708   9.488
 2665POPC   GL135101  36.288  39.943   9.106
 2665POPC   GL235102  36.002  40.150   9.003
 2665POPC   C1A35103  36.421  39.915   8.675
 2665POPC   D2A35104  36.718  39.839   8.337
 2665POPC   C3A35105  36.529  39.718   7.980
 2665POPC   C4A35106  36.161  39.807   7.720
 2665POPC   C1B35107  35.888  39.959   8.619
 2665POPC   C2B35108  35.944  39.938   8.170
 2665POPC   C3B35109  35.922  40.251   7.830
 2665POPC   C4B35110  35.659  40.398   7.458
 2666POPC   NC335111  34.626   9.674   9.573
 2666POPC   PO435112  34.699  10.354   9.609
 2666POPC   GL135113  34.568  10.044   9.240
 2666POPC   GL235114  34.257  10.120   9.048
 2666POPC   C1A35115  34.582   9.645   8.931
 2666POPC   D2A35116  34.630   9.571   8.467
 2666POPC   C3A35117  34.458   9.778   8.092
 2666POPC   C4A35118  34.351   9.549   7.716
 2666POPC   C1B35119  34.584  10.105   8.735
 2666POPC   C2B35120  34.757  10.149   8.366
 2666POPC   C3B35121  34.843  10.131   7.949
 2666POPC   C4B35122  34.692   9.939   7.599
 2667POPC   NC335123   1.590  25.449   9.525
 2667POPC   PO435124   2.080  25.779   9.555
 2667POPC   GL135125   2.094  26.210   9.252
 2667POPC   GL235126   1.793  26.459   9.267
 2667POPC   C1A35127   2.296  26.235   8.820
 2667POPC   D2A35128   2.263  25.971   8.438
 2667POPC   C3A35129   2.205  26.166   8.024
 2667POPC   C4A35130   1.933  25.942   7.683
 2667POPC   C1B35131   1.719  26.310   8.844
 2667POPC   C2B35132   1.895  26.328   8.420
 2667POPC   C3B35133   1.695  26.255   8.005
 2667POPC   C4B35134   1.669  26.351   7.559
 2668POPC   NC335135  25.625  41.082   9.174
 2668POPC   PO435136  26.233  40.964   9.467
 2668POPC   GL135137  26.206  40.941   9.022
 2668POPC   GL235138  26.069  40.676   9.020
 2668POPC   C1A35139  26.260  40.825   8.569
 2668POPC   D2A35140  26.057  40.483   8.300
 2668POPC   C3A35141  25.974  40.635   7.884
 2668POPC   C4A35142  26.173  40.978   7.865
 2668POPC   C1B35143  25.784  40.697   8.695
 2668POPC   C2B35144  25.795  40.939   8.327
 2668POPC   C3B35145  25.658  41.073   7.954
 2668POPC   C4B35146  25.660  40.895   7.545
 2669POPC   NC335147  14.676  19.177   9.736
 2669POPC   PO435148  14.205  19.037   9.409
 2669POPC   GL135149  14.335  19.249   9.041
 2669POPC   GL235150  14.637  19.362   9.182
 2669POPC   C1A35151  14.440  19.085   8.641
 2669POPC   D2A35152  14.258  18.923   8.267
 2669POPC   C3A35153  14.456  18.937   7.849
 2669POPC   C4A35154  14.232  18.723   7.533
 2669POPC   C1B35155  14.675  19.541   8.759
 2669POPC   C2B35156  14.618  19.441   8.308
 2669POPC   C3B35157  14.699  19.495   7.875
 2669POPC   C4B35158  14.726  19.248   7.479
 2670POPC   NC335159   4.187  30.948   9.246
 2670POPC   PO435160   4.633  30.804   9.771
 2670POPC   GL135161   4.546  30.590   9.232
 2670POPC   GL235162   4.346  30.265   9.141
 2670POPC   C1A35163   4.537  30.716   8.745
 2670POPC   D2A35164   4.650  30.499   8.344
 2670POPC   C3A35165   4.503  30.617   7.932
 2670POPC   C4A35166   4.476  30.391   7.538
 2670POPC   C1B35167   4.125  30.404   8.722
 2670POPC   C2B35168   4.110  30.619   8.297
 2670POPC   C3B35169   4.024  30.480   7.874
 2670POPC   C4B35170   4.008  30.538   7.415
 2671POPC   NC335171  19.141   3.286   9.424
 2671POPC   PO435172  18.945   3.925   9.394
 2671POPC   GL135173  18.753   3.780   9.010
 2671POPC   GL235174  18.793   4.052   8.832
 2671POPC   C1A35175  18.912   3.512   8.649
 2671POPC   D2A35176  18.724   3.135   8.416
 2671POPC   C3A35177  18.905   3.216   8.008
 2671POPC   C4A35178  19.003   3.654   7.817
 2671POPC   C1B35179  19.262   3.912   8.830
 2671POPC   C2B35180  19.538   3.935   8.464
 2671POPC   C3B35181  19.461   3.853   8.019
 2671POPC   C4B35182  19.589   3.561   7.672
 2672POPC   NC335183  26.498  37.647   9.502
 2672POPC   PO435184  27.127  37.461   9.555
 2672POPC   GL135185  26.890  37.561   9.166
 2672POPC   GL235186  26.599  37.337   9.128
 2672POPC   C1A35187  26.828  37.758   8.735
 2672POPC   D2A35188  26.953  37.777   8.273
 2672POPC   C3A35189  26.655  37.909   7.972
 2672POPC   C4A35190  26.687  38.173   7.602
 2672POPC   C1B35191  26.732  37.251   8.749
 2672POPC   C2B35192  27.046  37.281   8.474
 2672POPC   C3B35193  26.898  37.270   8.073
 2672POPC   C4B35194  26.925  37.555   7.757
 2673POPC   NC335195  35.578  14.814   9.538
 2673POPC   PO435196  35.341  15.519   9.480
 2673POPC   GL135197  35.322  15.303   9.119
 2673POPC   GL235198  35.570  15.035   9.083
 2673POPC   C1A35199  35.086  15.244   8.752
 2673POPC   D2A35200  35.022  15.428   8.366
 2673POPC   C3A35201  34.972  15.275   7.973
 2673POPC   C4A35202  35.115  15.309   7.569
 2673POPC   C1B35203  35.578  15.181   8.671
 2673POPC   C2B35204  35.400  15.105   8.290
 2673POPC   C3B35205  35.496  15.320   7.928
 2673POPC   C4B35206  35.828  15.133   7.735
 2674POPC   NC335207  17.674  29.956   9.593
 2674POPC   PO435208  17.055  30.232   9.497
 2674POPC   GL135209  17.348  29.966   9.198
 2674POPC   GL235210  17.675  29.758   9.137
 2674POPC   C1A35211  17.327  29.976   8.765
 2674POPC   D2A35212  17.142  29.820   8.394
 2674POPC   C3A35213  17.249  30.043   8.058
 2674POPC   C4A35214  17.301  30.086   7.616
 2674POPC   C1B35215  17.741  29.689   8.717
 2674POPC   C2B35216  17.682  29.947   8.341
 2674POPC   C3B35217  17.659  29.806   7.898
 2674POPC   C4B35218  17.673  29.742   7.459
 2675POPC   NC335219  27.967   1.122   9.727
 2675POPC   PO435220  27.559   1.589   9.512
 2675POPC   GL135221  27.528   1.348   9.172
 2675POPC   GL235222  27.887   1.507   9.087
 2675POPC   C1A35223  27.342   1.027   8.837
 2675POPC   D2A35224  27.204   0.877   8.398
 2675POPC   C3A35225  27.381   0.992   7.986
 2675POPC   C4A35226  27.656   0.884   7.662
 2675POPC   C1B35227  27.668   1.390   8.709
 2675POPC   C2B35228  27.691   1.128   8.366
 2675POPC   C3B35229  27.888   1.218   7.963
 2675POPC   C4B35230  27.860   1.318   7.469
 2676POPC   NC335231  41.528  40.295   9.453
 2676POPC   PO435232  41.291  39.686   9.476
 2676POPC   GL135233  41.365  39.969   9.099
 2676POPC   GL235234  41.737  40.056   8.992
 2676POPC   C1A35235  41.400  40.013   8.642
 2676POPC   D2A35236  41.784  40.165   8.451
 2676POPC   C3A35237  41.744  40.082   8.048
 2676POPC   C4A35238  41.365  40.038   7.865
 2676POPC   C1B35239  41.811  39.706   8.661
 2676POPC   C2B35240  41.742  39.595   8.219
 2676POPC   C3B35241  41.762  39.654   7.748
 2676POPC   C4B35242  41.863  39.740   7.278
 2677POPC   NC335243  37.207  36.793   9.521
 2677POPC   PO435244  36.894  37.441   9.445
 2677POPC   GL135245  36.975  37.037   9.165
 2677POPC   GL235246  37.211  37.190   9.025
 2677POPC   C1A35247  37.219  36.708   8.837
 2677POPC   D2A35248  37.145  36.377   8.472
 2677POPC   C3A35249  37.033  36.539   8.026
 2677POPC   C4A35250  37.118  36.880   7.699
 2677POPC   C1B35251  36.757  37.307   8.830
 2677POPC   C2B35252  36.602  37.267   8.434
 2677POPC   C3B35253  36.842  37.201   8.078
 2677POPC   C4B35254  36.737  37.226   7.675
 2678POPC   NC335255   5.321  17.224   9.426
 2678POPC   PO435256   4.654  17.557   9.565
 2678POPC   GL135257   4.863  17.373   9.224
 2678POPC   GL235258   5.078  17.638   9.243
 2678POPC   C1A35259   5.062  17.243   8.810
 2678POPC   D2A35260   4.969  17.418   8.407
 2678POPC   C3A35261   5.163  17.311   8.058
 2678POPC   C4A35262   5.211  17.257   7.649
 2678POPC   C1B35263   5.056  17.747   8.849
 2678POPC   C2B35264   5.362  17.700   8.531
 2678POPC   C3B35265   5.333  17.781   8.086
 2678POPC   C4B35266   5.360  17.802   7.639
 2679POPC   NC335267  38.330  38.971   9.379
 2679POPC   PO435268  38.641  39.506   9.680
 2679POPC   GL135269  38.608  39.389   9.213
 2679POPC   GL235270  38.714  39.055   9.063
 2679POPC   C1A35271  38.261  39.363   8.866
 2679POPC   D2A35272  38.326  39.418   8.435
 2679POPC   C3A35273  38.104  39.318   8.109
 2679POPC   C4A35274  38.185  39.386   7.742
 2679POPC   C1B35275  38.714  39.199   8.679
 2679POPC   C2B35276  38.772  39.211   8.272
 2679POPC   C3B35277  38.756  39.184   7.866
 2679POPC   C4B35278  38.878  38.798   7.794
 2680POPC   NC335279   5.743   9.955   9.436
 2680POPC   PO435280   6.183   9.418   9.556
 2680POPC   GL135281   5.997   9.582   9.210
 2680POPC   GL235282   6.276   9.758   9.093
 2680POPC   C1A35283   5.738   9.667   8.824
 2680POPC   D2A35284   5.668   9.965   8.488
 2680POPC   C3A35285   5.636   9.769   8.105
 2680POPC   C4A35286   5.633   9.653   7.688
 2680POPC   C1B35287   6.079  10.043   8.848
 2680POPC   C2B35288   6.154  10.132   8.467
 2680POPC   C3B35289   6.150   9.852   8.220
 2680POPC   C4B35290   6.051   9.934   7.836
 2681POPC   NC335291   3.194   4.116   9.631
 2681POPC   PO435292   2.591   4.363   9.603
 2681POPC   GL135293   2.695   4.406   9.223
 2681POPC   GL235294   2.972   4.493   9.201
 2681POPC   C1A35295   2.562   4.193   8.850
 2681POPC   D2A35296   2.609   4.393   8.478
 2681POPC   C3A35297   2.653   4.293   8.082
 2681POPC   C4A35298   2.801   4.539   7.726
 2681POPC   C1B35299   3.041   4.360   8.797
 2681POPC   C2B35300   3.116   4.225   8.417
 2681POPC   C3B35301   3.148   4.410   8.059
 2681POPC   C4B35302   3.246   4.226   7.694
 2682POPC   NC335303   0.096   7.824   9.563
 2682POPC   PO435304   0.544   7.321   9.568
 2682POPC   GL135305   0.450   7.361   9.155
 2682POPC   GL235306   0.697   7.595   9.043
 2682POPC   C1A35307   0.382   7.225   8.737
 2682POPC   D2A35308   0.189   7.420   8.366
 2682POPC   C3A35309   0.067   7.172   8.041
 2682POPC   C4A35310   0.277   7.094   7.648
 2682POPC   C1B35311   0.611   7.651   8.575
 2682POPC   C2B35312   0.881   7.622   8.189
 2682POPC   C3B35313   0.794   7.602   7.731
 2682POPC   C4B35314   0.618   7.831   7.373
 2683POPC   NC335315  33.141   6.754   9.454
 2683POPC   PO435316  32.448   6.675   9.391
 2683POPC   GL135317  32.787   6.701   9.071
 2683POPC   GL235318  32.969   6.409   9.141
 2683POPC   C1A35319  33.151   6.714   8.749
 2683POPC   D2A35320  33.277   6.992   8.365
 2683POPC   C3A35321  33.139   6.787   7.964
 2683POPC   C4A35322  32.793   6.853   7.687
 2683POPC   C1B35323  32.698   6.249   8.841
 2683POPC   C2B35324  32.588   6.519   8.517
 2683POPC   C3B35325  32.664   6.562   8.082
 2683POPC   C4B35326  32.731   6.322   7.682
 2684POPC   NC335327   6.811  26.055   9.572
 2684POPC   PO435328   6.239  26.404   9.488
 2684POPC   GL135329   6.597  26.243   9.160
 2684POPC   GL235330   6.796  25.915   9.095
 2684POPC   C1A35331   6.745  26.239   8.701
 2684POPC   D2A35332   6.431  26.111   8.385
 2684POPC   C3A35333   6.562  26.030   7.997
 2684POPC   C4A35334   6.791  26.370   7.777
 2684POPC   C1B35335   6.484  25.800   8.786
 2684POPC   C2B35336   6.655  25.639   8.379
 2684POPC   C3B35337   6.870  25.627   7.942
 2684POPC   C4B35338   6.816  25.910   7.556
 2685POPC   NC335339  28.382  24.946   9.683
 2685POPC   PO435340  28.636  25.523   9.883
 2685POPC   GL135341  28.541  25.202   9.313
 2685POPC   GL235342  28.200  25.027   9.217
 2685POPC   C1A35343  28.543  25.301   8.837
 2685POPC   D2A35344  28.641  25.195   8.390
 2685POPC   C3A35345  28.695  25.425   7.981
 2685POPC   C4A35346  28.632  25.118   7.645
 2685POPC   C1B35347  28.038  25.114   8.808
 2685POPC   C2B35348  28.066  25.297   8.395
 2685POPC   C3B35349  28.223  25.223   7.987
 2685POPC   C4B35350  28.172  24.911   7.696
 2686POPC   NC335351  14.435  26.319   9.224
 2686POPC   PO435352  13.834  26.153   9.422
 2686POPC   GL135353  14.118  25.969   9.058
 2686POPC   GL235354  14.394  25.726   8.977
 2686POPC   C1A35355  14.231  26.035   8.604
 2686POPC   D2A35356  14.443  25.946   8.179
 2686POPC   C3A35357  14.138  25.843   7.834
 2686POPC   C4A35358  14.152  26.246   7.618
 2686POPC   C1B35359  14.639  25.712   8.602
 2686POPC   C2B35360  14.976  25.779   8.305
 2686POPC   C3B35361  14.899  25.714   7.853
 2686POPC   C4B35362  14.585  25.977   7.673
 2687POPC   NC335363  44.094   9.188   9.376
 2687POPC   PO435364  43.811   8.750   9.733
 2687POPC   GL135365  43.754   8.805   9.261
 2687POPC   GL235366  43.991   8.655   9.098
 2687POPC   C1A35367  43.805   9.027   8.808
 2687POPC   D2A35368  43.862   8.880   8.401
 2687POPC   C3A35369  43.603   9.055   8.053
 2687POPC   C4A35370  43.840   9.209   7.658
 2687POPC   C1B35371  44.249   8.771   8.731
 2687POPC   C2B35372  44.362   8.717   8.295
 2687POPC   C3B35373  44.099   8.867   7.964
 2687POPC   C4B35374  43.775   8.689   7.757
 2688POPC   NC335375  39.703  43.060   9.551
 2688POPC   PO435376  40.390  43.210   9.528
 2688POPC   GL135377  40.083  43.185   9.174
 2688POPC   GL235378  39.871  42.891   9.087
 2688POPC   C1A35379  39.958  43.224   8.725
 2688POPC   D2A35380  39.823  43.477   8.416
 2688POPC   C3A35381  39.942  43.275   8.048
 2688POPC   C4A35382  39.787  43.429   7.639
 2688POPC   C1B35383  39.687  42.771   8.680
 2688POPC   C2B35384  39.759  42.715   8.247
 2688POPC   C3B35385  40.065  42.710   7.936
 2688POPC   C4B35386  40.082  42.995   7.620
 2689POPC   NC335387  28.242  34.873   9.739
 2689POPC   PO435388  28.467  35.504   9.637
 2689POPC   GL135389  28.345  35.449   9.201
 2689POPC   GL235390  28.072  35.667   9.045
 2689POPC   C1A35391  28.487  35.339   8.769
 2689POPC   D2A35392  28.692  35.489   8.387
 2689POPC   C3A35393  28.539  35.589   7.997
 2689POPC   C4A35394  28.560  35.246   7.747
 2689POPC   C1B35395  28.005  35.225   8.894
 2689POPC   C2B35396  28.078  35.212   8.475
 2689POPC   C3B35397  28.086  35.234   8.038
 2689POPC   C4B35398  28.096  35.538   7.740
 2690POPC   NC335399  25.115  23.283   9.527
 2690POPC   PO435400  24.914  23.962   9.562
 2690POPC   GL135401  25.091  23.889   9.159
 2690POPC   GL235402  24.990  23.560   9.138
 2690POPC   C1A35403  25.352  23.717   8.811
 2690POPC   D2A35404  25.470  23.494   8.423
 2690POPC   C3A35405  25.324  23.737   8.063
 2690POPC   C4A35406  25.393  24.064   7.737
 2690POPC   C1B35407  24.801  23.679   8.777
 2690POPC   C2B35408  24.975  23.631   8.429
 2690POPC   C3B35409  24.831  23.553   8.035
 2690POPC   C4B35410  24.988  23.748   7.701
 2691POPC   NC335411  33.755  30.222   9.520
 2691POPC   PO435412  33.451  29.657   9.551
 2691POPC   GL135413  33.728  29.832   9.195
 2691POPC   GL235414  33.535  30.127   9.059
 2691POPC   C1A35415  33.990  29.854   8.774
 2691POPC   D2A35416  33.992  30.100   8.361
 2691POPC   C3A35417  33.770  29.944   7.945
 2691POPC   C4A35418  33.489  30.142   7.622
 2691POPC   C1B35419  33.491  29.748   8.778
 2691POPC   C2B35420  33.652  29.705   8.390
 2691POPC   C3B35421  33.524  29.488   8.059
 2691POPC   C4B35422  33.425  29.628   7.636
 2692POPC   NC335423   5.107  21.472   9.515
 2692POPC   PO435424   5.091  20.888   9.312
 2692POPC   GL135425   5.259  21.240   9.066
 2692POPC   GL235426   5.509  21.066   8.826
 2692POPC   C1A35427   5.043  21.647   8.808
 2692POPC   D2A35428   4.753  21.727   8.392
 2692POPC   C3A35429   4.919  21.754   7.953
 2692POPC   C4A35430   5.301  21.563   7.788
 2692POPC   C1B35431   5.206  21.235   8.574
 2692POPC   C2B35432   5.217  21.514   8.297
 2692POPC   C3B35433   4.990  21.261   8.060
 2692POPC   C4B35434   4.996  20.953   7.819
 2693POPC   NC335435  19.336  10.131   9.493
 2693POPC   PO435436  18.807   9.657   9.521
 2693POPC   GL135437  19.060   9.826   9.190
 2693POPC   GL235438  18.827  10.088   9.108
 2693POPC   C1A35439  19.146   9.900   8.719
 2693POPC   D2A35440  19.254   9.683   8.305
 2693POPC   C3A35441  19.067   9.799   7.888
 2693POPC   C4A35442  19.083   9.798   7.422
 2693POPC   C1B35443  18.695   9.704   8.871
 2693POPC   C2B35444  18.812   9.501   8.502
 2693POPC   C3B35445  18.863   9.384   8.086
 2693POPC   C4B35446  18.645   9.389   7.713
 2694POPC   NC335447  39.640  30.067   9.374
 2694POPC   PO435448  38.972  30.172   9.547
 2694POPC   GL135449  39.207  30.200   9.158
 2694POPC   GL235450  39.476  30.454   9.091
 2694POPC   C1A35451  39.097  30.041   8.764
 2694POPC   D2A35452  39.071  29.692   8.503
 2694POPC   C3A35453  39.114  29.857   8.133
 2694POPC   C4A35454  39.149  29.895   7.732
 2694POPC   C1B35455  39.579  30.236   8.716
 2694POPC   C2B35456  39.401  30.287   8.304
 2694POPC   C3B35457  39.643  30.346   7.932
 2694POPC   C4B35458  39.541  30.147   7.556
 2695POPC   NC335459  33.868  38.022   9.343
 2695POPC   PO435460  33.792  38.745   9.468
 2695POPC   GL135461  33.844  38.512   9.140
 2695POPC   GL235462  33.533  38.315   9.063
 2695POPC   C1A35463  33.972  38.411   8.757
 2695POPC   D2A35464  33.769  38.334   8.397
 2695POPC   C3A35465  34.033  38.430   8.090
 2695POPC   C4A35466  33.829  38.470   7.753
 2695POPC   C1B35467  33.506  38.656   8.763
 2695POPC   C2B35468  33.327  38.756   8.384
 2695POPC   C3B35469  33.513  38.803   7.988
 2695POPC   C4B35470  33.420  38.717   7.541
 2696POPC   NC335471  20.305  21.280   9.764
 2696POPC   PO435472  19.831  21.691   9.648
 2696POPC   GL135473  19.879  21.557   9.207
 2696POPC   GL235474  19.903  21.212   9.202
 2696POPC   C1A35475  19.668  21.396   8.785
 2696POPC   D2A35476  19.767  21.249   8.348
 2696POPC   C3A35477  19.567  21.274   7.930
 2696POPC   C4A35478  19.654  21.498   7.536
 2696POPC   C1B35479  20.175  21.372   8.839
 2696POPC   C2B35480  20.254  21.135   8.474
 2696POPC   C3B35481  20.342  21.251   8.077
 2696POPC   C4B35482  20.073  21.275   7.738
 2697POPC   NC335483  31.850  39.350   9.632
 2697POPC   PO435484  31.198  39.087   9.422
 2697POPC   GL135485  31.371  39.241   9.097
 2697POPC   GL235486  31.726  39.308   9.129
 2697POPC   C1A35487  31.224  39.365   8.703
 2697POPC   D2A35488  31.308  39.181   8.325
 2697POPC   C3A35489  31.631  39.330   8.057
 2697POPC   C4A35490  31.415  39.284   7.680
 2697POPC   C1B35491  31.685  39.103   8.737
 2697POPC   C2B35492  31.559  38.767   8.508
 2697POPC   C3B35493  31.685  38.826   8.129
 2697POPC   C4B35494  31.641  38.840   7.708
 2698POPC   NC335495   8.330  39.715  10.124
 2698POPC   PO435496   8.367  40.024   9.464
 2698POPC   GL135497   8.251  39.842   9.075
 2698POPC   GL235498   8.150  40.188   9.041
 2698POPC   C1A35499   8.292  39.708   8.617
 2698POPC   D2A35500   8.189  39.978   8.268
 2698POPC   C3A35501   8.190  39.953   7.829
 2698POPC   C4A35502   8.226  39.963   7.347
 2698POPC   C1B35503   7.950  40.096   8.695
 2698POPC   C2B35504   7.720  40.215   8.364
 2698POPC   C3B35505   7.881  40.345   7.972
 2698POPC   C4B35506   7.826  40.185   7.583
 2699POPC   NC335507  29.594   8.680   9.404
 2699POPC   PO435508  30.111   9.137   9.453
 2699POPC   GL135509  29.973   9.077   9.065
 2699POPC   GL235510  30.257   8.821   9.022
 2699POPC   C1A35511  29.640   9.181   8.727
 2699POPC   D2A35512  29.601   9.075   8.241
 2699POPC   C3A35513  29.892   9.162   7.852
 2699POPC   C4A35514  29.919   8.950   7.425
 2699POPC   C1B35515  30.074   8.918   8.583
 2699POPC   C2B35516  30.057   8.745   8.185
 2699POPC   C3B35517  29.823   8.643   7.828
 2699POPC   C4B35518  29.626   8.503   7.424
 2700POPC   NC335519  10.734  36.556   9.519
 2700POPC   PO435520  10.128  36.888   9.685
 2700POPC   GL135521  10.372  36.811   9.237
 2700POPC   GL235522  10.415  37.128   9.044
 2700POPC   C1A35523  10.479  36.687   8.761
 2700POPC   D2A35524  10.601  36.478   8.324
 2700POPC   C3A35525  10.400  36.715   7.940
 2700POPC   C4A35526  10.506  37.176   7.840
 2700POPC   C1B35527  10.771  37.110   8.745
 2700POPC   C2B35528  10.658  36.997   8.323
 2700POPC   C3B35529  10.897  36.826   7.992
 2700POPC   C4B35530  10.923  36.906   7.590
 2701POPC   NC335531  37.644  23.861   9.648
 2701POPC   PO435532  37.481  23.243   9.574
 2701POPC   GL135533  37.713  23.497   9.219
 2701POPC   GL235534  37.796  23.860   9.167
 2701POPC   C1A35535  37.648  23.563   8.774
 2701POPC   D2A35536  37.734  23.369   8.412
 2701POPC   C3A35537  37.693  23.599   8.086
 2701POPC   C4A35538  37.727  23.383   7.719
 2701POPC   C1B35539  37.759  24.076   8.764
 2701POPC   C2B35540  37.897  24.242   8.357
 2701POPC   C3B35541  37.664  24.147   7.974
 2701POPC   C4B35542  37.565  23.847   7.671
 2702POPC   NC335543  22.467  17.856   9.879
 2702POPC   PO435544  22.249  17.332   9.472
 2702POPC   GL135545  22.154  17.378   9.087
 2702POPC   GL235546  21.979  17.660   9.119
 2702POPC   C1A35547  22.350  17.395   8.707
 2702POPC   D2A35548  22.129  17.398   8.328
 2702POPC   C3A35549  22.306  17.747   8.104
 2702POPC   C4A35550  22.277  17.578   7.706
 2702POPC   C1B35551  21.897  17.643   8.718
 2702POPC   C2B35552  21.779  17.828   8.346
 2702POPC   C3B35553  21.836  17.639   7.965
 2702POPC   C4B35554  21.846  17.857   7.622
 2703POPC   NC335555  10.536  26.938   9.429
 2703POPC   PO435556  10.756  26.281   9.448
 2703POPC   GL135557  10.515  26.544   9.099
 2703POPC   GL235558  10.635  26.916   8.944
 2703POPC   C1A35559  10.265  26.667   8.713
 2703POPC   D2A35560  10.530  26.911   8.434
 2703POPC   C3A35561  10.488  26.837   7.965
 2703POPC   C4A35562  10.808  26.885   7.691
 2703POPC   C1B35563  10.239  27.172   8.841
 2703POPC   C2B35564  10.165  27.326   8.417
 2703POPC   C3B35565  10.503  27.325   8.134
 2703POPC   C4B35566  10.483  27.306   7.730
 2704POPC   NC335567  23.327   1.339   9.417
 2704POPC   PO435568  23.900   0.947   9.470
 2704POPC   GL135569  23.740   1.212   9.178
 2704POPC   GL235570  23.807   1.535   9.180
 2704POPC   C1A35571  23.549   1.367   8.778
 2704POPC   D2A35572  23.680   1.256   8.383
 2704POPC   C3A35573  23.409   1.118   8.073
 2704POPC   C4A35574  23.646   1.089   7.692
 2704POPC   C1B35575  24.070   1.320   8.822
 2704POPC   C2B35576  24.183   1.354   8.403
 2704POPC   C3B35577  24.046   1.272   7.995
 2704POPC   C4B35578  24.081   1.460   7.608
 2705POPC   NC335579  14.397  39.784   9.467
 2705POPC   PO435580  14.674  40.402   9.596
 2705POPC   GL135581  14.584  40.143   9.171
 2705POPC   GL235582  14.437  39.810   8.969
 2705POPC   C1A35583  14.555  40.230   8.740
 2705POPC   D2A35584  14.357  39.954   8.463
 2705POPC   C3A35585  14.390  40.035   8.050
 2705POPC   C4A35586  14.213  39.826   7.723
 2705POPC   C1B35587  14.734  39.648   8.660
 2705POPC   C2B35588  14.839  39.400   8.343
 2705POPC   C3B35589  14.814  39.659   8.014
 2705POPC   C4B35590  14.623  39.579   7.653
 2706POPC   NC335591  37.213  43.109   9.734
 2706POPC   PO435592  36.684  42.933   9.329
 2706POPC   GL135593  37.042  43.162   9.122
 2706POPC   GL235594  37.046  43.517   9.156
 2706POPC   C1A35595  37.210  43.054   8.712
 2706POPC   D2A35596  37.039  42.751   8.422
 2706POPC   C3A35597  36.759  42.905   8.081
 2706POPC   C4A35598  36.783  43.058   7.668
 2706POPC   C1B35599  36.986  43.543   8.714
 2706POPC   C2B35600  37.024  43.311   8.309
 2706POPC   C3B35601  36.993  43.467   7.897
 2706POPC   C4B35602  37.141  43.531   7.486
 2707POPC   NC335603  35.989   2.415   9.483
 2707POPC   PO435604  36.638   2.288   9.490
 2707POPC   GL135605  36.386   2.143   9.184
 2707POPC   GL235606  36.150   2.373   9.011
 2707POPC   C1A35607  36.366   1.980   8.785
 2707POPC   D2A35608  36.248   2.276   8.483
 2707POPC   C3A35609  36.178   2.105   8.099
 2707POPC   C4A35610  36.442   2.082   7.750
 2707POPC   C1B35611  35.861   2.036   8.830
 2707POPC   C2B35612  35.866   1.797   8.423
 2707POPC   C3B35613  35.758   1.848   7.954
 2707POPC   C4B35614  35.818   2.222   7.678
 2708POPC   NC335615  33.882  34.893   9.320
 2708POPC   PO435616  34.228  35.409   9.513
 2708POPC   GL135617  33.885  35.430   9.226
 2708POPC   GL235618  34.050  35.247   8.989
 2708POPC   C1A35619  33.651  35.488   8.820
 2708POPC   D2A35620  33.509  35.299   8.455
 2708POPC   C3A35621  33.799  35.417   8.123
 2708POPC   C4A35622  33.690  35.555   7.726
 2708POPC   C1B35623  34.028  35.194   8.544
 2708POPC   C2B35624  33.814  34.923   8.279
 2708POPC   C3B35625  33.708  34.976   7.857
 2708POPC   C4B35626  33.961  34.788   7.565
 2709POPC   NC335627  13.926  14.188   9.468
 2709POPC   PO435628  13.458  14.679   9.491
 2709POPC   GL135629  13.609  14.417   9.127
 2709POPC   GL235630  13.475  14.103   9.224
 2709POPC   C1A35631  13.557  14.546   8.670
 2709POPC   D2A35632  13.459  14.628   8.223
 2709POPC   C3A35633  13.799  14.428   7.936
 2709POPC   C4A35634  13.843  14.060   7.646
 2709POPC   C1B35635  13.241  14.180   8.832
 2709POPC   C2B35636  13.191  14.197   8.383
 2709POPC   C3B35637  13.359  14.185   7.972
 2709POPC   C4B35638  13.346  14.262   7.525
 2710POPC   NC335639  27.947   6.825   9.334
 2710POPC   PO435640  28.610   6.622   9.266
 2710POPC   GL135641  28.449   6.890   8.999
 2710POPC   GL235642  28.205   6.597   8.940
 2710POPC   C1A35643  28.518   6.868   8.573
 2710POPC   D2A35644  28.362   6.460   8.449
 2710POPC   C3A35645  28.535   6.401   8.069
 2710POPC   C4A35646  28.547   6.851   8.016
 2710POPC   C1B35647  28.021   6.913   8.690
 2710POPC   C2B35648  27.931   6.976   8.271
 2710POPC   C3B35649  28.050   6.892   7.864
 2710POPC   C4B35650  28.326   6.593   7.640
 2711POPC   NC335651  35.226  43.549   9.434
 2711POPC   PO435652  35.820  43.828   9.646
 2711POPC   GL135653  35.553  43.872   9.187
 2711POPC   GL235654  35.287  44.135   9.082
 2711POPC   C1A35655  35.603  43.845   8.729
 2711POPC   D2A35656  35.596  43.577   8.356
 2711POPC   C3A35657  35.501  43.780   7.969
 2711POPC   C4A35658  35.492  43.626   7.566
 2711POPC   C1B35659  35.095  43.860   8.805
 2711POPC   C2B35660  35.186  43.892   8.388
 2711POPC   C3B35661  34.991  43.845   8.002
 2711POPC   C4B35662  34.837  44.167   7.723
 2712POPC   NC335663  22.167  21.115  10.044
 2712POPC   PO435664  22.150  21.488   9.458
 2712POPC   GL135665  22.045  21.469   9.084
 2712POPC   GL235666  22.030  21.796   8.912
 2712POPC   C1A35667  21.928  21.141   8.816
 2712POPC   D2A35668  22.070  21.036   8.395
 2712POPC   C3A35669  21.895  21.164   8.008
 2712POPC   C4A35670  22.115  21.273   7.636
 2712POPC   C1B35671  22.297  21.499   8.653
 2712POPC   C2B35672  22.272  21.480   8.208
 2712POPC   C3B35673  22.497  21.542   7.839
 2712POPC   C4B35674  22.554  21.471   7.404
 2713POPC   NC335675  23.475  35.856   9.367
 2713POPC   PO435676  23.802  36.376   9.567
 2713POPC   GL135677  23.840  36.170   9.184
 2713POPC   GL235678  23.530  36.312   9.133
 2713POPC   C1A35679  23.891  36.250   8.748
 2713POPC   D2A35680  24.018  36.381   8.325
 2713POPC   C3A35681  23.786  36.121   8.037
 2713POPC   C4A35682  23.889  35.908   7.663
 2713POPC   C1B35683  23.469  36.553   8.805
 2713POPC   C2B35684  23.500  36.382   8.400
 2713POPC   C3B35685  23.478  36.545   7.994
 2713POPC   C4B35686  23.749  36.450   7.659
 2714POPC   NC335687   8.623  24.105   9.181
 2714POPC   PO435688   9.063  24.433   9.575
 2714POPC   GL135689   9.018  24.475   9.172
 2714POPC   GL235690   9.256  24.171   9.131
 2714POPC   C1A35691   8.749  24.613   8.817
 2714POPC   D2A35692   8.850  24.446   8.434
 2714POPC   C3A35693   8.875  24.562   8.022
 2714POPC   C4A35694   8.815  24.310   7.644
 2714POPC   C1B35695   9.281  24.016   8.709
 2714POPC   C2B35696   9.296  24.199   8.282
 2714POPC   C3B35697   9.284  24.261   7.828
 2714POPC   C4B35698   9.399  24.194   7.368
 2715POPC   NC335699  18.693   6.581   9.532
 2715POPC   PO435700  18.156   6.284   9.804
 2715POPC   GL135701  18.286   6.417   9.271
 2715POPC   GL235702  18.389   6.757   9.174
 2715POPC   C1A35703  18.133   6.407   8.798
 2715POPC   D2A35704  17.972   6.265   8.333
 2715POPC   C3A35705  18.214   6.401   7.964
 2715POPC   C4A35706  18.492   6.762   7.942
 2715POPC   C1B35707  18.304   6.917   8.790
 2715POPC   C2B35708  18.254   6.719   8.406
 2715POPC   C3B35709  17.955   6.789   8.115
 2715POPC   C4B35710  18.094   6.903   7.681
 2716POPC   NC335711  34.177  38.927   9.635
 2716POPC   PO435712  33.942  39.604   9.602
 2716POPC   GL135713  33.899  39.219   9.295
 2716POPC   GL235714  34.117  38.982   9.152
 2716POPC   C1A35715  33.743  39.107   8.831
 2716POPC   D2A35716  33.582  39.192   8.390
 2716POPC   C3A35717  33.746  39.379   8.071
 2716POPC   C4A35718  33.737  39.321   7.694
 2716POPC   C1B35719  34.180  38.872   8.768
 2716POPC   C2B35720  33.925  38.822   8.403
 2716POPC   C3B35721  34.003  38.955   7.965
 2716POPC   C4B35722  33.923  38.893   7.499
 2717POPC   NC335723   1.313  16.612   9.417
 2717POPC   PO435724   0.732  16.942   9.461
 2717POPC   GL135725   1.023  16.977   9.109
 2717POPC   GL235726   1.394  16.945   9.032
 2717POPC   C1A35727   1.036  16.828   8.705
 2717POPC   D2A35728   1.303  16.893   8.379
 2717POPC   C3A35729   1.111  16.759   7.991
 2717POPC   C4A35730   1.220  16.903   7.586
 2717POPC   C1B35731   1.507  16.581   8.790
 2717POPC   C2B35732   1.602  16.468   8.392
 2717POPC   C3B35733   1.625  16.688   8.018
 2717POPC   C4B35734   1.438  16.468   7.690
 2718POPC   NC335735  35.692  34.571   9.283
 2718POPC   PO435736  35.164  34.192   9.485
 2718POPC   GL135737  35.327  34.298   9.074
 2718POPC   GL235738  35.636  34.147   8.987
 2718POPC   C1A35739  35.135  34.481   8.709
 2718POPC   D2A35740  35.152  34.762   8.377
 2718POPC   C3A35741  35.163  34.521   7.994
 2718POPC   C4A35742  35.232  34.739   7.619
 2718POPC   C1B35743  35.634  34.464   8.657
 2718POPC   C2B35744  35.626  34.555   8.246
 2718POPC   C3B35745  35.644  34.499   7.829
 2718POPC   C4B35746  35.714  34.119   7.734
 2719POPC   NC335747  43.451   5.472   9.363
 2719POPC   PO435748  43.862   4.937   9.574
 2719POPC   GL135749  43.911   4.977   9.163
 2719POPC   GL235750  43.647   4.793   9.070
 2719POPC   C1A35751  44.076   4.873   8.763
 2719POPC   D2A35752  44.289   4.821   8.364
 2719POPC   C3A35753  44.092   5.007   8.026
 2719POPC   C4A35754  43.996   4.884   7.627
 2719POPC   C1B35755  43.604   5.123   8.763
 2719POPC   C2B35756  43.468   5.068   8.345
 2719POPC   C3B35757  43.574   4.977   7.942
 2719POPC   C4B35758  43.734   5.326   7.738
 2720POPC   NC335759  26.618  34.451   9.543
 2720POPC   PO435760  26.768  35.101   9.602
 2720POPC   GL135761  26.667  34.889   9.162
 2720POPC   GL235762  26.786  34.532   9.081
 2720POPC   C1A35763  26.739  34.835   8.671
 2720POPC   D2A35764  26.980  34.833   8.255
 2720POPC   C3A35765  26.675  34.724   7.926
 2720POPC   C4A35766  26.508  34.326   7.911
 2720POPC   C1B35767  26.759  34.294   8.684
 2720POPC   C2B35768  26.854  34.116   8.272
 2720POPC   C3B35769  27.053  34.358   7.958
 2720POPC   C4B35770  27.166  34.766   7.767
 2721POPC   NC335771  11.202  24.061   9.483
 2721POPC   PO435772  11.123  24.805   9.513
 2721POPC   GL135773  11.225  24.508   9.129
 2721POPC   GL235774  11.376  24.772   8.875
 2721POPC   C1A35775  11.533  24.313   8.807
 2721POPC   D2A35776  11.601  24.613   8.439
 2721POPC   C3A35777  11.444  24.354   8.122
 2721POPC   C4A35778  11.306  24.227   7.735
 2721POPC   C1B35779  11.115  24.537   8.595
 2721POPC   C2B35780  11.082  24.723   8.210
 2721POPC   C3B35781  11.212  24.720   7.808
 2721POPC   C4B35782  11.049  24.533   7.419
 2722POPC   NC335783  28.077  18.827   9.416
 2722POPC   PO435784  28.738  18.518   9.424
 2722POPC   GL135785  28.489  18.702   9.060
 2722POPC   GL235786  28.437  19.059   9.031
 2722POPC   C1A35787  28.588  18.814   8.618
 2722POPC   D2A35788  28.529  19.154   8.329
 2722POPC   C3A35789  28.411  18.945   7.970
 2722POPC   C4A35790  28.011  18.805   7.866
 2722POPC   C1B35791  28.141  19.121   8.688
 2722POPC   C2B35792  28.041  19.385   8.330
 2722POPC   C3B35793  28.145  19.367   7.901
 2722POPC   C4B35794  28.017  19.187   7.521
 2723POPC   NC335795   5.154  24.137   9.522
 2723POPC   PO435796   5.421  23.534   9.480
 2723POPC   GL135797   5.236  23.779   9.139
 2723POPC   GL235798   4.876  23.888   9.171
 2723POPC   C1A35799   5.219  23.753   8.684
 2723POPC   D2A35800   5.278  23.858   8.241
 2723POPC   C3A35801   5.110  23.609   7.883
 2723POPC   C4A35802   5.222  23.322   7.526
 2723POPC   C1B35803   5.013  24.194   8.860
 2723POPC   C2B35804   5.051  24.296   8.415
 2723POPC   C3B35805   4.922  24.130   8.003
 2723POPC   C4B35806   4.982  24.258   7.603
 2724POPC   NC335807  23.437  23.920   9.469
 2724POPC   PO435808  24.087  23.768   9.400
 2724POPC   GL135809  23.787  23.859   9.076
 2724POPC   GL235810  23.525  23.578   9.058
 2724POPC   C1A35811  23.784  23.796   8.628
 2724POPC   D2A35812  23.758  23.618   8.228
 2724POPC   C3A35813  23.886  23.796   7.848
 2724POPC   C4A35814  23.729  23.813   7.455
 2724POPC   C1B35815  23.831  23.317   8.825
 2724POPC   C2B35816  24.066  23.241   8.408
 2724POPC   C3B35817  23.988  23.269   7.929
 2724POPC   C4B35818  23.980  23.362   7.433
 2725POPC   NC335819   0.597  17.195   9.812
 2725POPC   PO435820   0.511  17.682   9.442
 2725POPC   GL135821   0.451  17.600   9.050
 2725POPC   GL235822   0.433  17.264   9.123
 2725POPC   C1A35823   0.224  17.454   8.695
 2725POPC   D2A35824   0.354  17.230   8.348
 2725POPC   C3A35825   0.432  17.445   7.984
 2725POPC   C4A35826   0.156  17.577   7.655
 2725POPC   C1B35827   0.709  17.235   8.724
 2725POPC   C2B35828   0.865  17.147   8.282
 2725POPC   C3B35829   0.826  17.158   7.822
 2725POPC   C4B35830   0.471  17.179   7.527
 2726POPC   NC335831  29.552   1.440   9.466
 2726POPC   PO435832  29.732   2.109   9.599
 2726POPC   GL135833  29.754   2.228   9.199
 2726POPC   GL235834  29.794   1.867   9.124
 2726POPC   C1A35835  29.618   2.226   8.781
 2726POPC   D2A35836  29.605   2.062   8.347
 2726POPC   C3A35837  29.819   2.062   7.942
 2726POPC   C4A35838  29.815   2.280   7.561
 2726POPC   C1B35839  29.643   1.685   8.719
 2726POPC   C2B35840  29.717   1.574   8.270
 2726POPC   C3B35841  29.785   1.535   7.831
 2726POPC   C4B35842  29.933   1.786   7.496
 2727POPC   NC335843  15.809  26.442   9.465
 2727POPC   PO435844  15.952  25.836   9.446
 2727POPC   GL135845  15.976  26.080   9.069
 2727POPC   GL235846  16.207  26.375   9.134
 2727POPC   C1A35847  15.867  25.823   8.697
 2727POPC   D2A35848  15.974  25.750   8.261
 2727POPC   C3A35849  15.718  25.875   7.875
 2727POPC   C4A35850  15.913  25.728   7.453
 2727POPC   C1B35851  16.206  26.416   8.710
 2727POPC   C2B35852  15.932  26.251   8.415
 2727POPC   C3B35853  15.967  26.325   7.991
 2727POPC   C4B35854  16.116  26.542   7.656
 2728POPC   NC335855  24.164  20.023   9.505
 2728POPC   PO435856  24.810  19.745   9.478
 2728POPC   GL135857  24.540  19.833   9.126
 2728POPC   GL235858  24.156  19.690   9.138
 2728POPC   C1A35859  24.657  20.049   8.733
 2728POPC   D2A35860  24.402  20.255   8.481
 2728POPC   C3A35861  24.219  20.078   8.122
 2728POPC   C4A35862  24.373  20.083   7.728
 2728POPC   C1B35863  24.228  19.785   8.720
 2728POPC   C2B35864  24.314  19.606   8.329
 2728POPC   C3B35865  24.440  19.603   7.895
 2728POPC   C4B35866  24.178  19.420   7.583
 2729POPC   NC335867  42.716  42.221   9.408
 2729POPC   PO435868  43.378  42.467   9.424
 2729POPC   GL135869  43.126  42.520   9.066
 2729POPC   GL235870  43.346  42.801   9.000
 2729POPC   C1A35871  42.933  42.353   8.668
 2729POPC   D2A35872  43.106  42.347   8.244
 2729POPC   C3A35873  42.921  42.238   7.855
 2729POPC   C4A35874  42.970  41.958   7.439
 2729POPC   C1B35875  43.420  42.590   8.596
 2729POPC   C2B35876  43.595  42.232   8.344
 2729POPC   C3B35877  43.451  42.098   7.946
 2729POPC   C4B35878  43.397  42.495   7.790
 2730POPC   NC335879  12.732   8.668   9.498
 2730POPC   PO435880  12.656   9.355   9.531
 2730POPC   GL135881  12.850   9.182   9.130
 2730POPC   GL235882  13.040   8.866   9.143
 2730POPC   C1A35883  12.690   8.899   8.768
 2730POPC   D2A35884  12.685   8.707   8.337
 2730POPC   C3A35885  12.620   9.057   8.076
 2730POPC   C4A35886  12.869   9.148   7.757
 2730POPC   C1B35887  13.185   8.799   8.697
 2730POPC   C2B35888  13.198   8.562   8.324
 2730POPC   C3B35889  13.067   8.700   7.941
 2730POPC   C4B35890  12.693   8.651   7.747
 2731POPC   NC335891  41.292  12.847   9.473
 2731POPC   PO435892  41.992  12.649   9.433
 2731POPC   GL135893  41.755  12.895   9.175
 2731POPC   GL235894  41.576  12.633   9.071
 2731POPC   C1A35895  41.827  12.935   8.727
 2731POPC   D2A35896  41.664  13.068   8.353
 2731POPC   C3A35897  41.713  12.806   7.980
 2731POPC   C4A35898  41.654  13.138   7.681
 2731POPC   C1B35899  41.326  12.883   8.775
 2731POPC   C2B35900  41.248  12.767   8.363
 2731POPC   C3B35901  41.249  12.466   8.061
 2731POPC   C4B35902  41.307  12.712   7.687
 2732POPC   NC335903  20.062  11.600   9.624
 2732POPC   PO435904  20.074  10.918   9.481
 2732POPC   GL135905  19.840  11.084   9.145
 2732POPC   GL235906  19.816  11.420   9.128
 2732POPC   C1A35907  19.721  11.100   8.717
 2732POPC   D2A35908  19.653  11.312   8.290
 2732POPC   C3A35909  19.795  11.195   7.847
 2732POPC   C4A35910  19.582  11.217   7.420
 2732POPC   C1B35911  19.794  11.604   8.712
 2732POPC   C2B35912  20.057  11.609   8.396
 2732POPC   C3B35913  19.953  11.714   8.023
 2732POPC   C4B35914  20.215  11.610   7.720
 2733POPC   NC335915  41.775  26.174   9.620
 2733POPC   PO435916  42.421  26.064   9.661
 2733POPC   GL135917  42.318  26.048   9.215
 2733POPC   GL235918  42.586  26.304   9.147
 2733POPC   C1A35919  42.068  25.772   8.878
 2733POPC   D2A35920  42.077  25.505   8.455
 2733POPC   C3A35921  42.016  25.639   8.011
 2733POPC   C4A35922  42.306  25.783   7.672
 2733POPC   C1B35923  42.612  26.023   8.814
 2733POPC   C2B35924  42.375  25.943   8.481
 2733POPC   C3B35925  42.423  26.056   8.081
 2733POPC   C4B35926  42.392  26.303   7.713
 2734POPC   NC335927  23.982  28.495   9.477
 2734POPC   PO435928  23.451  28.243   9.761
 2734POPC   GL135929  23.563  28.258   9.277
 2734POPC   GL235930  23.603  28.595   9.137
 2734POPC   C1A35931  23.779  28.192   8.845
 2734POPC   D2A35932  24.132  28.195   8.529
 2734POPC   C3A35933  23.970  28.081   8.114
 2734POPC   C4A35934  23.760  28.312   7.782
 2734POPC   C1B35935  23.693  28.682   8.686
 2734POPC   C2B35936  23.668  28.569   8.240
 2734POPC   C3B35937  23.739  28.847   7.871
 2734POPC   C4B35938  23.718  28.798   7.405
 2735POPC   NC335939  28.943  39.760   9.466
 2735POPC   PO435940  29.374  40.185   9.444
 2735POPC   GL135941  29.211  40.010   9.075
 2735POPC   GL235942  28.815  40.033   9.042
 2735POPC   C1A35943  29.473  39.945   8.711
 2735POPC   D2A35944  29.312  39.820   8.308
 2735POPC   C3A35945  29.142  40.170   8.106
 2735POPC   C4A35946  29.231  40.316   7.712
 2735POPC   C1B35947  28.727  39.622   8.824
 2735POPC   C2B35948  28.864  39.488   8.409
 2735POPC   C3B35949  28.897  39.689   8.026
 2735POPC   C4B35950  28.889  39.906   7.674
 2736POPC   NC335951  42.995   0.479   9.390
 2736POPC   PO435952  43.496   0.714   9.724
 2736POPC   GL135953  43.428   0.672   9.221
 2736POPC   GL235954  43.129   0.831   9.049
 2736POPC   C1A35955  43.281   0.417   8.779
 2736POPC   D2A35956  43.170   0.066   8.519
 2736POPC   C3A35957  43.237   0.202   8.090
 2736POPC   C4A35958  43.019   0.130   7.723
 2736POPC   C1B35959  42.839   0.676   8.746
 2736POPC   C2B35960  42.983   0.552   8.370
 2736POPC   C3B35961  43.039   0.689   7.975
 2736POPC   C4B35962  42.817   0.582   7.614
 2737POPC   NC335963  43.267  21.444   9.434
 2737POPC   PO435964  43.951  21.346   9.473
 2737POPC   GL135965  43.976  21.394   9.063
 2737POPC   GL235966  43.617  21.344   9.056
 2737POPC   C1A35967  43.925  21.352   8.634
 2737POPC   D2A35968  43.660  21.310   8.307
 2737POPC   C3A35969  43.806  21.406   7.925
 2737POPC   C4A35970  43.970  21.698   7.684
 2737POPC   C1B35971  43.501  21.068   8.738
 2737POPC   C2B35972  43.725  20.822   8.435
 2737POPC   C3B35973  43.681  20.898   7.986
 2737POPC   C4B35974  43.796  21.048   7.549
 2738POPC   NC335975   3.801  16.353   9.486
 2738POPC   PO435976   3.316  16.948   9.517
 2738POPC   GL135977   3.494  16.740   9.168
 2738POPC   GL235978   3.355  16.418   9.186
 2738POPC   C1A35979   3.596  16.836   8.714
 2738POPC   D2A35980   3.485  16.623   8.317
 2738POPC   C3A35981   3.261  16.694   7.962
 2738POPC   C4A35982   3.233  16.594   7.522
 2738POPC   C1B35983   3.494  16.337   8.766
 2738POPC   C2B35984   3.875  16.353   8.475
 2738POPC   C3B35985   3.945  16.584   8.059
 2738POPC   C4B35986   3.728  16.646   7.673
 2739POPC   NC335987  35.988   0.072   9.410
 2739POPC   PO435988  36.416  44.457   9.490
 2739POPC   GL135989  36.163  44.506   9.156
 2739POPC   GL235990  35.875  44.510   9.323
 2739POPC   C1A35991  35.980  44.741   8.840
 2739POPC   D2A35992  35.911  44.826   8.420
 2739POPC   C3A35993  36.007  44.527   8.094
 2739POPC   C4A35994  36.102  44.849   7.798
 2739POPC   C1B35995  35.706  44.328   8.940
 2739POPC   C2B35996  35.666  44.289   8.464
 2739POPC   C3B35997  35.544  44.301   8.014
 2739POPC   C4B35998  35.719  44.524   7.625
 2740POPC   NC335999  14.471  38.334   9.445
 2740POPC   PO436000  14.422  38.994   9.413
 2740POPC   GL136001  14.412  38.811   9.082
 2740POPC   GL236002  14.150  38.615   9.162
 2740POPC   C1A36003  14.200  38.883   8.700
 2740POPC   D2A36004  14.098  38.661   8.305
 2740POPC   C3A36005  14.281  38.784   7.890
 2740POPC   C4A36006  14.450  38.626   7.512
 2740POPC   C1B36007  14.274  38.385   8.798
 2740POPC   C2B36008  14.467  38.295   8.405
 2740POPC   C3B36009  14.316  38.270   7.980
 2740POPC   C4B36010  14.510  38.128   7.595
 2741POPC   NC336011  28.888   3.952   9.286
 2741POPC   PO436012  29.214   4.516   9.411
 2741POPC   GL136013  29.118   4.319   9.010
 2741POPC   GL236014  29.342   4.026   8.972
 2741POPC   C1A36015  29.024   4.080   8.596
 2741POPC   D2A36016  29.104   3.907   8.178
 2741POPC   C3A36017  28.927   4.221   7.889
 2741POPC   C4A36018  29.120   4.528   7.643
 2741POPC   C1B36019  29.491   4.340   8.672
 2741POPC   C2B36020  29.294   4.414   8.271
 2741POPC   C3B36021  29.443   4.240   7.900
 2741POPC   C4B36022  29.553   4.319   7.472
 2742POPC   NC336023  12.340  11.435   9.336
 2742POPC   PO436024  11.741  11.639   9.318
 2742POPC   GL136025  11.941  11.392   9.011
 2742POPC   GL236026  11.962  11.093   9.161
 2742POPC   C1A36027  12.269  11.449   8.677
 2742POPC   D2A36028  12.253  11.584   8.258
 2742POPC   C3A36029  11.897  11.377   8.108
 2742POPC   C4A36030  11.780  11.006   7.856
 2742POPC   C1B36031  12.045  10.948   8.768
 2742POPC   C2B36032  12.137  10.871   8.355
 2742POPC   C3B36033  12.337  11.051   8.047
 2742POPC   C4B36034  12.206  11.244   7.713
 2743POPC   NC336035   0.845  12.658   9.389
 2743POPC   PO436036   0.207  13.025   9.477
 2743POPC   GL136037   0.532  12.967   9.115
 2743POPC   GL236038   0.520  12.582   9.008
 2743POPC   C1A36039   0.623  12.948   8.647
 2743POPC   D2A36040   0.318  12.798   8.376
 2743POPC   C3A36041   0.166  12.926   8.021
 2743POPC   C4A36042   0.283  12.756   7.638
 2743POPC   C1B36043   0.874  12.508   8.712
 2743POPC   C2B36044   0.769  12.505   8.314
 2743POPC   C3B36045   0.661  12.752   7.993
 2743POPC   C4B36046   0.735  12.530   7.680
 2744POPC   NC336047  35.063  39.010   9.780
 2744POPC   PO436048  35.452  38.473   9.718
 2744POPC   GL136049  35.319  38.386   9.276
 2744POPC   GL236050  34.955  38.411   9.365
 2744POPC   C1A36051  35.389  38.389   8.780
 2744POPC   D2A36052  35.401  38.612   8.337
 2744POPC   C3A36053  35.440  38.489   7.884
 2744POPC   C4A36054  35.493  38.716   7.500
 2744POPC   C1B36055  34.895  38.297   8.946
 2744POPC   C2B36056  34.944  38.388   8.515
 2744POPC   C3B36057  35.074  38.223   8.132
 2744POPC   C4B36058  34.875  38.402   7.781
 2745POPC   NC336059  24.542  14.046   9.569
 2745POPC   PO436060  24.445  14.721   9.478
 2745POPC   GL136061  24.265  14.352   9.216
 2745POPC   GL236062  24.514  14.108   9.085
 2745POPC   C1A36063  24.227  14.430   8.805
 2745POPC   D2A36064  24.520  14.552   8.533
 2745POPC   C3A36065  24.417  14.497   8.131
 2745POPC   C4A36066  24.673  14.697   7.822
 2745POPC   C1B36067  24.606  14.052   8.684
 2745POPC   C2B36068  24.340  13.950   8.386
 2745POPC   C3B36069  24.352  13.943   7.975
 2745POPC   C4B36070  24.642  14.203   7.779
 2746POPC   NC336071   2.980  41.646   9.523
 2746POPC   PO436072   2.502  41.229   9.573
 2746POPC   GL136073   2.685  41.383   9.191
 2746POPC   GL236074   3.019  41.246   9.184
 2746POPC   C1A36075   2.894  41.677   8.853
 2746POPC   D2A36076   2.707  41.852   8.450
 2746POPC   C3A36077   2.910  41.820   8.051
 2746POPC   C4A36078   2.999  41.627   7.677
 2746POPC   C1B36079   2.870  41.178   8.780
 2746POPC   C2B36080   2.681  41.317   8.447
 2746POPC   C3B36081   2.780  41.323   8.059
 2746POPC   C4B36082   2.741  41.148   7.659
 2747POPC   NC336083  24.778  31.523   9.360
 2747POPC   PO436084  25.279  31.213   9.700
 2747POPC   GL136085  25.300  31.473   9.281
 2747POPC   GL236086  25.309  31.244   9.006
 2747POPC   C1A36087  25.158  31.673   8.841
 2747POPC   D2A36088  25.346  31.495   8.462
 2747POPC   C3A36089  25.240  31.742   8.116
 2747POPC   C4A36090  24.856  31.827   7.920
 2747POPC   C1B36091  25.643  31.107   8.716
 2747POPC   C2B36092  25.718  31.064   8.286
 2747POPC   C3B36093  25.363  31.101   8.029
 2747POPC   C4B36094  25.263  31.425   7.732
 2748POPC   NC336095   6.162  15.326   9.575
 2748POPC   PO436096   5.576  15.111   9.510
 2748POPC   GL136097   5.683  14.979   9.108
 2748POPC   GL236098   6.030  14.984   9.190
 2748POPC   C1A36099   5.645  15.166   8.693
 2748POPC   D2A36100   5.683  15.597   8.501
 2748POPC   C3A36101   5.859  15.578   8.087
 2748POPC   C4A36102   5.762  15.200   7.882
 2748POPC   C1B36103   6.113  14.900   8.785
 2748POPC   C2B36104   6.103  15.115   8.393
 2748POPC   C3B36105   6.328  14.947   8.059
 2748POPC   C4B36106   6.087  14.883   7.683
 2749POPC   NC336107  22.051  16.228   9.467
 2749POPC   PO436108  22.286  15.594   9.487
 2749POPC   GL136109  22.122  15.820   9.183
 2749POPC   GL236110  21.944  15.635   9.047
 2749POPC   C1A36111  22.178  16.082   8.832
 2749POPC   D2A36112  22.337  16.028   8.431
 2749POPC   C3A36113  22.006  16.106   8.143
 2749POPC   C4A36114  22.077  16.124   7.715
 2749POPC   C1B36115  22.158  15.584   8.699
 2749POPC   C2B36116  22.004  15.619   8.316
 2749POPC   C3B36117  22.219  15.677   7.959
 2749POPC   C4B36118  22.316  15.719   7.524
 2750POPC   NC336119  30.175  30.690   9.752
 2750POPC   PO436120  29.586  30.937   9.546
 2750POPC   GL136121  29.785  30.777   9.148
 2750POPC   GL236122  30.148  30.857   9.124
 2750POPC   C1A36123  29.863  30.653   8.687
 2750POPC   D2A36124  30.074  30.724   8.267
 2750POPC   C3A36125  30.040  30.469   7.857
 2750POPC   C4A36126  30.328  30.357   7.490
 2750POPC   C1B36127  30.338  30.885   8.705
 2750POPC   C2B36128  30.449  31.082   8.314
 2750POPC   C3B36129  30.301  30.985   7.893
 2750POPC   C4B36130  29.880  30.950   7.809
 2751POPC   NC336131  16.705   6.637   9.637
 2751POPC   PO436132  16.349   7.123   9.330
 2751POPC   GL136133  16.566   6.738   9.129
 2751POPC   GL236134  16.930   6.598   9.123
 2751POPC   C1A36135  16.658   6.606   8.681
 2751POPC   D2A36136  16.567   6.849   8.320
 2751POPC   C3A36137  16.729   6.765   7.931
 2751POPC   C4A36138  16.783   6.836   7.452
 2751POPC   C1B36139  17.098   6.331   8.723
 2751POPC   C2B36140  17.037   6.412   8.262
 2751POPC   C3B36141  16.783   6.244   7.935
 2751POPC   C4B36142  16.526   6.414   7.632
 2752POPC   NC336143  20.874   4.348   9.395
 2752POPC   PO436144  20.369   3.925   9.596
 2752POPC   GL136145  20.464   4.080   9.171
 2752POPC   GL236146  20.260   4.376   9.067
 2752POPC   C1A36147  20.640   4.228   8.760
 2752POPC   D2A36148  20.568   4.070   8.346
 2752POPC   C3A36149  20.629   4.262   7.942
 2752POPC   C4A36150  20.340   4.177   7.575
 2752POPC   C1B36151  20.325   4.682   8.722
 2752POPC   C2B36152  20.418   4.647   8.261
 2752POPC   C3B36153  20.327   4.645   7.805
 2752POPC   C4B36154  20.136   4.611   7.396
 2753POPC   NC336155   0.220  14.833   9.541
 2753POPC   PO436156   0.604  15.396   9.476
 2753POPC   GL136157   0.367  15.199   9.186
 2753POPC   GL236158   0.613  14.966   9.056
 2753POPC   C1A36159   0.464  15.417   8.812
 2753POPC   D2A36160   0.678  15.449   8.420
 2753POPC   C3A36161   0.519  15.465   8.036
 2753POPC   C4A36162   0.402  15.115   7.818
 2753POPC   C1B36163   0.633  14.969   8.615
 2753POPC   C2B36164   0.310  14.917   8.316
 2753POPC   C3B36165   0.211  14.685   7.972
 2753POPC   C4B36166   0.524  14.622   7.661
 2754POPC   NC336167  22.476  30.452   9.511
 2754POPC   PO436168  22.516  31.110   9.405
 2754POPC   GL136169  22.298  30.804   9.140
 2754POPC   GL236170  22.210  30.442   9.074
 2754POPC   C1A36171  21.953  30.838   8.851
 2754POPC   D2A36172  22.086  30.977   8.463
 2754POPC   C3A36173  22.184  30.745   8.106
 2754POPC   C4A36174  21.967  30.660   7.759
 2754POPC   C1B36175  22.356  30.586   8.670
 2754POPC   C2B36176  22.478  30.369   8.309
 2754POPC   C3B36177  22.430  30.362   7.855
 2754POPC   C4B36178  22.466  30.663   7.574
 2755POPC   NC336179  37.794   2.464   9.436
 2755POPC   PO436180  37.338   2.987   9.419
 2755POPC   GL136181  37.410   2.697   9.114
 2755POPC   GL236182  37.740   2.834   9.086
 2755POPC   C1A36183  37.463   2.802   8.668
 2755POPC   D2A36184  37.506   3.014   8.276
 2755POPC   C3A36185  37.516   2.734   7.969
 2755POPC   C4A36186  37.774   2.704   7.634
 2755POPC   C1B36187  37.989   2.928   8.742
 2755POPC   C2B36188  37.970   2.790   8.354
 2755POPC   C3B36189  37.964   2.991   8.006
 2755POPC   C4B36190  38.012   3.150   7.604
 2756POPC   NC336191  19.320  33.407   9.223
 2756POPC   PO436192  19.756  33.079   9.614
 2756POPC   GL136193  19.826  33.049   9.181
 2756POPC   GL236194  19.766  32.712   9.144
 2756POPC   C1A36195  20.044  33.194   8.797
 2756POPC   D2A36196  19.820  33.369   8.417
 2756POPC   C3A36197  19.856  33.253   7.966
 2756POPC   C4A36198  19.441  33.171   7.778
 2756POPC   C1B36199  19.618  32.931   8.706
 2756POPC   C2B36200  19.525  32.941   8.263
 2756POPC   C3B36201  19.726  32.770   7.922
 2756POPC   C4B36202  19.553  32.692   7.543
 2757POPC   NC336203  37.974  23.215   9.560
 2757POPC   PO436204  38.534  22.883   9.370
 2757POPC   GL136205  38.401  23.002   9.068
 2757POPC   GL236206  38.093  22.960   9.127
 2757POPC   C1A36207  38.531  23.170   8.731
 2757POPC   D2A36208  38.650  23.193   8.311
 2757POPC   C3A36209  38.527  22.970   7.986
 2757POPC   C4A36210  38.572  23.052   7.540
 2757POPC   C1B36211  38.004  23.183   8.799
 2757POPC   C2B36212  38.149  23.101   8.398
 2757POPC   C3B36213  38.148  23.327   8.059
 2757POPC   C4B36214  38.108  23.083   7.706
 2758POPC   NC336215  16.869  14.695   9.462
 2758POPC   PO436216  16.453  14.194   9.452
 2758POPC   GL136217  16.660  14.360   9.126
 2758POPC   GL236218  16.467  14.654   9.143
 2758POPC   C1A36219  16.785  14.300   8.698
 2758POPC   D2A36220  16.852  14.527   8.306
 2758POPC   C3A36221  16.752  14.304   7.938
 2758POPC   C4A36222  16.973  14.333   7.557
 2758POPC   C1B36223  16.533  14.757   8.735
 2758POPC   C2B36224  16.353  14.724   8.324
 2758POPC   C3B36225  16.463  14.824   7.897
 2758POPC   C4B36226  16.515  14.628   7.492
 2759POPC   NC336227  33.557  16.599   9.609
 2759POPC   PO436228  34.029  17.105   9.490
 2759POPC   GL136229  33.826  16.820   9.217
 2759POPC   GL236230  33.989  16.528   9.345
 2759POPC   C1A36231  33.596  16.893   8.800
 2759POPC   D2A36232  33.748  17.030   8.384
 2759POPC   C3A36233  33.976  16.746   8.113
 2759POPC   C4A36234  33.973  16.769   7.662
 2759POPC   C1B36235  33.739  16.418   8.945
 2759POPC   C2B36236  33.713  16.501   8.484
 2759POPC   C3B36237  33.601  16.422   8.025
 2759POPC   C4B36238  33.720  16.289   7.560
 2760POPC   NC336239   2.967  16.197   9.495
 2760POPC   PO436240   2.798  15.591   9.481
 2760POPC   GL136241   2.507  15.743   9.160
 2760POPC   GL236242   2.549  16.111   9.092
 2760POPC   C1A36243   2.621  15.780   8.708
 2760POPC   D2A36244   2.938  15.848   8.386
 2760POPC   C3A36245   2.679  16.005   8.058
 2760POPC   C4A36246   2.575  15.854   7.678
 2760POPC   C1B36247   2.949  16.191   8.841
 2760POPC   C2B36248   3.080  16.345   8.451
 2760POPC   C3B36249   3.132  16.217   8.051
 2760POPC   C4B36250   2.936  16.215   7.646
 2761POPC   NC336251  44.124  17.670   9.243
 2761POPC   PO436252  43.765  17.329   9.659
 2761POPC   GL136253  43.670  17.419   9.190
 2761POPC   GL236254  43.721  17.720   8.957
 2761POPC   C1A36255  43.882  17.242   8.795
 2761POPC   D2A36256  44.161  17.444   8.484
 2761POPC   C3A36257  44.047  17.395   8.036
 2761POPC   C4A36258  44.240  17.541   7.672
 2761POPC   C1B36259  43.485  17.554   8.706
 2761POPC   C2B36260  43.623  17.352   8.327
 2761POPC   C3B36261  43.484  17.461   7.944
 2761POPC   C4B36262  43.732  17.690   7.683
 2762POPC   NC336263   9.464  29.026   9.400
 2762POPC   PO436264  10.022  29.380   9.410
 2762POPC   GL136265   9.775  29.344   9.060
 2762POPC   GL236266   9.891  29.006   9.042
 2762POPC   C1A36267   9.857  29.296   8.610
 2762POPC   D2A36268   9.709  29.329   8.187
 2762POPC   C3A36269   9.919  29.250   7.814
 2762POPC   C4A36270   9.909  29.418   7.386
 2762POPC   C1B36271   9.607  28.845   8.720
 2762POPC   C2B36272   9.433  28.915   8.303
 2762POPC   C3B36273   9.442  28.983   7.853
 2762POPC   C4B36274   9.710  28.949   7.458
 2763POPC   NC336275   6.338  18.698   9.364
 2763POPC   PO436276   6.881  19.164   9.477
 2763POPC   GL136277   6.769  18.920   9.174
 2763POPC   GL236278   6.787  19.257   8.989
 2763POPC   C1A36279   6.591  18.861   8.785
 2763POPC   D2A36280   6.696  19.109   8.490
 2763POPC   C3A36281   6.645  18.998   8.124
 2763POPC   C4A36282   6.449  19.141   7.784
 2763POPC   C1B36283   7.088  19.394   8.631
 2763POPC   C2B36284   7.120  19.263   8.215
 2763POPC   C3B36285   6.950  19.285   7.814
 2763POPC   C4B36286   7.153  19.428   7.469
 2764POPC   NC336287   8.225  33.961   9.491
 2764POPC   PO436288   7.593  33.761   9.629
 2764POPC   GL136289   7.869  33.676   9.234
 2764POPC   GL236290   7.836  33.930   9.025
 2764POPC   C1A36291   8.223  33.673   8.850
 2764POPC   D2A36292   8.332  33.658   8.375
 2764POPC   C3A36293   8.241  33.772   7.906
 2764POPC   C4A36294   8.244  33.707   7.424
 2764POPC   C1B36295   7.873  33.924   8.576
 2764POPC   C2B36296   8.082  34.144   8.255
 2764POPC   C3B36297   7.916  34.219   7.869
 2764POPC   C4B36298   7.857  34.001   7.506
 2765POPC   NC336299   9.278  23.720   9.651
 2765POPC   PO436300   8.696  23.494   9.423
 2765POPC   GL136301   8.959  23.695   9.133
 2765POPC   GL236302   9.300  23.660   9.146
 2765POPC   C1A36303   8.908  23.682   8.710
 2765POPC   D2A36304   8.847  23.951   8.371
 2765POPC   C3A36305   8.988  23.877   7.956
 2765POPC   C4A36306   8.872  23.610   7.626
 2765POPC   C1B36307   9.359  23.478   8.759
 2765POPC   C2B36308   9.285  23.660   8.320
 2765POPC   C3B36309   9.329  23.495   7.864
 2765POPC   C4B36310   9.359  23.679   7.416
 2766POPC   NC336311  24.217  13.301   9.292
 2766POPC   PO436312  24.818  13.663   9.574
 2766POPC   GL136313  24.672  13.556   9.138
 2766POPC   GL236314  24.896  13.762   9.006
 2766POPC   C1A36315  24.443  13.566   8.724
 2766POPC   D2A36316  24.545  13.455   8.270
 2766POPC   C3A36317  24.375  13.438   7.848
 2766POPC   C4A36318  24.495  13.609   7.452
 2766POPC   C1B36319  24.936  13.616   8.586
 2766POPC   C2B36320  24.844  13.869   8.234
 2766POPC   C3B36321  24.814  13.751   7.820
 2766POPC   C4B36322  24.900  13.921   7.415
 2767POPC   NC336323  28.410   6.333   9.549
 2767POPC   PO436324  28.563   5.635   9.415
 2767POPC   GL136325  28.472   6.002   9.172
 2767POPC   GL236326  28.761   6.180   9.013
 2767POPC   C1A36327  28.298   6.053   8.782
 2767POPC   D2A36328  28.492   5.970   8.393
 2767POPC   C3A36329  28.214   5.972   8.058
 2767POPC   C4A36330  28.099   5.959   7.657
 2767POPC   C1B36331  28.730   5.742   8.800
 2767POPC   C2B36332  28.817   5.530   8.422
 2767POPC   C3B36333  28.579   5.604   8.063
 2767POPC   C4B36334  28.408   5.576   7.625
 2768POPC   NC336335   6.972   4.527   9.450
 2768POPC   PO436336   6.368   4.294   9.473
 2768POPC   GL136337   6.651   4.304   9.123
 2768POPC   GL236338   6.924   4.050   9.130
 2768POPC   C1A36339   6.555   4.334   8.715
 2768POPC   D2A36340   6.331   4.128   8.411
 2768POPC   C3A36341   6.404   4.410   8.084
 2768POPC   C4A36342   6.499   4.335   7.676
 2768POPC   C1B36343   7.103   4.299   8.795
 2768POPC   C2B36344   6.949   4.339   8.379
 2768POPC   C3B36345   6.876   4.193   7.986
 2768POPC   C4B36346   7.037   4.252   7.590
 2769POPC   NC336347   0.526  16.474   9.523
 2769POPC   PO436348   0.186  17.097   9.621
 2769POPC   GL136349   0.261  16.799   9.225
 2769POPC   GL236350   0.618  16.645   9.058
 2769POPC   C1A36351   0.291  16.931   8.786
 2769POPC   D2A36352   0.578  16.758   8.488
 2769POPC   C3A36353   0.491  16.827   8.062
 2769POPC   C4A36354   0.670  16.684   7.696
 2769POPC   C1B36355   0.296  16.419   8.832
 2769POPC   C2B36356   0.087  16.590   8.481
 2769POPC   C3B36357   0.073  16.479   8.091
 2769POPC   C4B36358   0.160  16.594   7.705
 2770POPC   NC336359   1.807   9.942   9.462
 2770POPC   PO436360   2.281   9.504   9.467
 2770POPC   GL136361   2.137   9.751   9.131
 2770POPC   GL236362   2.190  10.031   9.049
 2770POPC   C1A36363   1.785   9.785   8.821
 2770POPC   D2A36364   1.650   9.976   8.423
 2770POPC   C3A36365   1.744   9.806   8.032
 2770POPC   C4A36366   1.695   9.568   7.676
 2770POPC   C1B36367   1.993  10.239   8.722
 2770POPC   C2B36368   2.157   9.979   8.403
 2770POPC   C3B36369   2.262   9.712   8.065
 2770POPC   C4B36370   2.214   9.849   7.655
 2771POPC   NC336371  39.289  37.947   9.510
 2771POPC   PO436372  38.915  37.388   9.281
 2771POPC   GL136373  39.122  37.660   9.011
 2771POPC   GL236374  39.386  37.858   9.036
 2771POPC   C1A36375  39.284  37.607   8.602
 2771POPC   D2A36376  39.143  37.802   8.271
 2771POPC   C3A36377  39.223  37.591   7.913
 2771POPC   C4A36378  38.836  37.443   7.795
 2771POPC   C1B36379  39.596  38.023   8.717
 2771POPC   C2B36380  39.661  37.854   8.312
 2771POPC   C3B36381  39.713  37.771   7.849
 2771POPC   C4B36382  39.497  37.715   7.477
 2772POPC   NC336383  38.318  37.968   9.580
 2772POPC   PO436384  38.465  37.319   9.819
 2772POPC   GL136385  38.435  37.516   9.316
 2772POPC   GL236386  38.645  37.803   9.162
 2772POPC   C1A36387  38.301  37.590   8.848
 2772POPC   D2A36388  38.089  37.359   8.504
 2772POPC   C3A36389  38.080  37.578   8.114
 2772POPC   C4A36390  38.375  37.678   7.802
 2772POPC   C1B36391  38.749  37.726   8.679
 2772POPC   C2B36392  38.627  37.683   8.250
 2772POPC   C3B36393  38.800  37.933   7.909
 2772POPC   C4B36394  38.939  38.313   7.829
 2773POPC   NC336395  13.354  25.487   9.466
 2773POPC   PO436396  14.006  25.274   9.594
 2773POPC   GL136397  13.723  25.066   9.259
 2773POPC   GL236398  13.539  25.291   9.031
 2773POPC   C1A36399  13.923  25.051   8.833
 2773POPC   D2A36400  14.021  25.074   8.384
 2773POPC   C3A36401  13.679  24.945   8.112
 2773POPC   C4A36402  13.539  25.238   7.811
 2773POPC   C1B36403  13.448  25.056   8.644
 2773POPC   C2B36404  13.184  25.166   8.279
 2773POPC   C3B36405  13.177  25.542   7.999
 2773POPC   C4B36406  13.187  25.541   7.553
 2774POPC   NC336407  33.903  29.479   9.517
 2774POPC   PO436408  33.962  28.799   9.505
 2774POPC   GL136409  34.000  29.117   9.181
 2774POPC   GL236410  33.684  29.312   9.087
 2774POPC   C1A36411  34.132  29.336   8.826
 2774POPC   D2A36412  33.894  29.273   8.491
 2774POPC   C3A36413  34.009  29.170   8.081
 2774POPC   C4A36414  33.887  29.413   7.717
 2774POPC   C1B36415  33.606  28.968   8.779
 2774POPC   C2B36416  33.614  28.899   8.304
 2774POPC   C3B36417  33.562  29.013   7.860
 2774POPC   C4B36418  33.472  28.765   7.496
 2775POPC   NC336419  16.395  32.359   9.584
 2775POPC   PO436420  16.976  31.912   9.620
 2775POPC   GL136421  16.861  32.064   9.187
 2775POPC   GL236422  16.494  32.164   9.120
 2775POPC   C1A36423  16.803  32.269   8.754
 2775POPC   D2A36424  16.744  32.064   8.437
 2775POPC   C3A36425  16.863  32.259   8.135
 2775POPC   C4A36426  16.713  32.133   7.768
 2775POPC   C1B36427  16.390  32.557   8.814
 2775POPC   C2B36428  16.490  32.580   8.343
 2775POPC   C3B36429  16.241  32.605   7.959
 2775POPC   C4B36430  16.255  32.683   7.509
 2776POPC   NC336431  29.787   2.567   9.613
 2776POPC   PO436432  29.911   3.183   9.446
 2776POPC   GL136433  29.977   2.830   9.195
 2776POPC   GL236434  29.657   2.755   9.170
 2776POPC   C1A36435  30.022   2.577   8.819
 2776POPC   D2A36436  30.135   2.405   8.409
 2776POPC   C3A36437  30.057   2.718   8.082
 2776POPC   C4A36438  30.230   2.853   7.686
 2776POPC   C1B36439  29.548   2.751   8.763
 2776POPC   C2B36440  29.651   2.564   8.404
 2776POPC   C3B36441  29.580   2.511   7.989
 2776POPC   C4B36442  29.713   2.774   7.672
 2777POPC   NC336443  22.432  17.751   9.318
 2777POPC   PO436444  22.997  17.401   9.489
 2777POPC   GL136445  23.000  17.570   9.118
 2777POPC   GL236446  22.915  17.927   9.220
 2777POPC   C1A36447  22.949  17.442   8.702
 2777POPC   D2A36448  22.694  17.446   8.316
 2777POPC   C3A36449  22.875  17.316   7.935
 2777POPC   C4A36450  23.039  17.438   7.548
 2777POPC   C1B36451  23.095  17.951   8.808
 2777POPC   C2B36452  23.237  17.770   8.396
 2777POPC   C3B36453  23.094  17.793   7.972
 2777POPC   C4B36454  22.715  17.809   7.734
 2778POPC   NC336455  42.255  22.674   9.451
 2778POPC   PO436456  42.697  23.116   9.726
 2778POPC   GL136457  42.607  22.886   9.197
 2778POPC   GL236458  42.595  23.139   8.962
 2778POPC   C1A36459  42.421  22.703   8.778
 2778POPC   D2A36460  42.574  22.639   8.334
 2778POPC   C3A36461  42.468  22.862   7.941
 2778POPC   C4A36462  42.294  22.781   7.558
 2778POPC   C1B36463  42.266  23.164   8.676
 2778POPC   C2B36464  42.190  22.982   8.349
 2778POPC   C3B36465  42.060  23.182   7.990
 2778POPC   C4B36466  42.174  23.279   7.571
 2779POPC   NC336467  32.450  35.564   9.434
 2779POPC   PO436468  31.897  35.166   9.459
 2779POPC   GL136469  32.172  35.229   9.125
 2779POPC   GL236470  32.508  35.105   9.180
 2779POPC   C1A36471  32.324  35.440   8.770
 2779POPC   D2A36472  32.356  35.294   8.350
 2779POPC   C3A36473  32.258  35.557   8.025
 2779POPC   C4A36474  32.006  35.505   7.685
 2779POPC   C1B36475  32.587  34.997   8.741
 2779POPC   C2B36476  32.610  34.859   8.286
 2779POPC   C3B36477  32.739  35.139   7.983
 2779POPC   C4B36478  32.514  35.291   7.643
 2780POPC   NC336479  29.906  38.196   9.400
 2780POPC   PO436480  29.985  37.538   9.555
 2780POPC   GL136481  29.879  37.715   9.115
 2780POPC   GL236482  29.617  37.996   9.021
 2780POPC   C1A36483  30.136  37.645   8.699
 2780POPC   D2A36484  30.352  37.748   8.298
 2780POPC   C3A36485  30.283  37.661   7.870
 2780POPC   C4A36486  30.155  37.547   7.449
 2780POPC   C1B36487  29.781  37.961   8.582
 2780POPC   C2B36488  29.865  37.645   8.222
 2780POPC   C3B36489  29.755  37.703   7.773
 2780POPC   C4B36490  29.348  37.946   7.740
 2781POPC   NC336491  29.614  43.390   9.711
 2781POPC   PO436492  30.196  43.060   9.464
 2781POPC   GL136493  30.008  43.196   9.109
 2781POPC   GL236494  29.667  43.169   9.243
 2781POPC   C1A36495  30.130  43.220   8.660
 2781POPC   D2A36496  29.978  42.992   8.290
 2781POPC   C3A36497  30.208  43.106   7.932
 2781POPC   C4A36498  30.206  43.530   7.814
 2781POPC   C1B36499  29.633  43.129   8.787
 2781POPC   C2B36500  29.702  43.457   8.504
 2781POPC   C3B36501  29.781  43.446   8.103
 2781POPC   C4B36502  29.699  43.108   7.834
 2782POPC   NC336503  25.782  24.893   9.526
 2782POPC   PO436504  25.926  24.240   9.347
 2782POPC   GL136505  25.954  24.641   9.125
 2782POPC   GL236506  26.304  24.737   9.262
 2782POPC   C1A36507  25.758  24.693   8.711
 2782POPC   D2A36508  25.861  24.327   8.398
 2782POPC   C3A36509  25.882  24.246   7.915
 2782POPC   C4A36510  26.268  24.232   7.627
 2782POPC   C1B36511  26.360  24.697   8.822
 2782POPC   C2B36512  26.176  24.797   8.436
 2782POPC   C3B36513  26.178  24.609   8.073
 2782POPC   C4B36514  25.939  24.796   7.740
 2783POPC   NC336515  10.034  38.443   9.602
 2783POPC   PO436516   9.712  39.053   9.520
 2783POPC   GL136517   9.737  38.681   9.209
 2783POPC   GL236518   9.957  38.362   9.117
 2783POPC   C1A36519   9.606  38.550   8.797
 2783POPC   D2A36520   9.369  38.613   8.414
 2783POPC   C3A36521   9.530  38.569   8.015
 2783POPC   C4A36522   9.294  38.608   7.630
 2783POPC   C1B36523  10.144  38.400   8.718
 2783POPC   C2B36524   9.946  38.388   8.316
 2783POPC   C3B36525   9.880  38.129   7.952
 2783POPC   C4B36526   9.655  38.238   7.635
 2784POPC   NC336527  32.413   7.112   9.549
 2784POPC   PO436528  31.826   6.686   9.604
 2784POPC   GL136529  31.960   6.737   9.162
 2784POPC   GL236530  32.125   7.050   9.129
 2784POPC   C1A36531  32.137   6.496   8.789
 2784POPC   D2A36532  32.124   6.656   8.368
 2784POPC   C3A36533  32.177   6.386   8.043
 2784POPC   C4A36534  32.291   6.554   7.663
 2784POPC   C1B36535  32.404   6.933   8.804
 2784POPC   C2B36536  32.499   7.020   8.388
 2784POPC   C3B36537  32.347   6.970   7.981
 2784POPC   C4B36538  32.342   7.050   7.546
 2785POPC   NC336539   1.423  13.480   9.415
 2785POPC   PO436540   0.823  13.813   9.465
 2785POPC   GL136541   1.126  13.835   9.169
 2785POPC   GL236542   1.048  13.472   9.085
 2785POPC   C1A36543   1.376  13.818   8.795
 2785POPC   D2A36544   1.331  13.555   8.439
 2785POPC   C3A36545   1.388  13.681   8.007
 2785POPC   C4A36546   1.294  13.463   7.598
 2785POPC   C1B36547   0.872  13.659   8.755
 2785POPC   C2B36548   0.812  13.492   8.384
 2785POPC   C3B36549   0.878  13.659   8.004
 2785POPC   C4B36550   0.773  13.520   7.635
 2786POPC   NC336551   9.746  34.215   9.254
 2786POPC   PO436552   9.945  34.634   9.747
 2786POPC   GL136553   9.961  34.769   9.249
 2786POPC   GL236554   9.622  34.797   9.063
 2786POPC   C1A36555   9.995  34.777   8.748
 2786POPC   D2A36556  10.005  34.504   8.339
 2786POPC   C3A36557  10.070  34.697   7.925
 2786POPC   C4A36558   9.844  34.694   7.500
 2786POPC   C1B36559   9.550  34.568   8.692
 2786POPC   C2B36560   9.513  34.579   8.271
 2786POPC   C3B36561   9.648  34.421   7.916
 2786POPC   C4B36562   9.392  34.192   7.730
 2787POPC   NC336563  10.344  26.096   9.344
 2787POPC   PO436564  11.001  25.805   9.407
 2787POPC   GL136565  10.768  25.919   9.094
 2787POPC   GL236566  10.926  26.182   8.941
 2787POPC   C1A36567  10.536  25.854   8.742
 2787POPC   D2A36568  10.625  25.944   8.309
 2787POPC   C3A36569  10.314  26.004   8.014
 2787POPC   C4A36570  10.539  25.943   7.667
 2787POPC   C1B36571  10.617  26.330   8.647
 2787POPC   C2B36572  10.473  26.429   8.249
 2787POPC   C3B36573  10.733  26.386   7.858
 2787POPC   C4B36574  10.859  26.468   7.397
 2788POPC   NC336575   2.633  31.157   9.690
 2788POPC   PO436576   2.449  30.479   9.634
 2788POPC   GL136577   2.719  30.731   9.345
 2788POPC   GL236578   2.547  30.984   9.202
 2788POPC   C1A36579   2.850  30.644   8.896
 2788POPC   D2A36580   2.991  30.421   8.504
 2788POPC   C3A36581   2.740  30.529   8.150
 2788POPC   C4A36582   2.646  30.592   7.719
 2788POPC   C1B36583   2.642  31.129   8.803
 2788POPC   C2B36584   2.609  30.965   8.378
 2788POPC   C3B36585   2.690  31.081   7.935
 2788POPC   C4B36586   2.640  31.039   7.467
 2789POPC   NC336587  15.784  31.760   9.394
 2789POPC   PO436588  15.814  32.340   9.593
 2789POPC   GL136589  15.721  32.234   9.184
 2789POPC   GL236590  16.014  32.033   9.030
 2789POPC   C1A36591  15.842  32.455   8.820
 2789POPC   D2A36592  16.012  32.450   8.410
 2789POPC   C3A36593  15.836  32.223   8.076
 2789POPC   C4A36594  15.767  32.425   7.686
 2789POPC   C1B36595  16.279  32.096   8.636
 2789POPC   C2B36596  16.336  32.116   8.146
 2789POPC   C3B36597  16.214  32.154   7.693
 2789POPC   C4B36598  16.145  31.934   7.273
 2790POPC   NC336599   9.889  31.047   9.526
 2790POPC   PO436600   9.829  30.384   9.470
 2790POPC   GL136601   9.929  30.641   9.146
 2790POPC   GL236602   9.623  30.835   9.090
 2790POPC   C1A36603   9.919  30.541   8.725
 2790POPC   D2A36604   9.523  30.640   8.537
 2790POPC   C3A36605   9.555  30.627   8.107
 2790POPC   C4A36606   9.819  30.633   7.754
 2790POPC   C1B36607   9.454  31.107   8.730
 2790POPC   C2B36608   9.462  31.155   8.260
 2790POPC   C3B36609   9.742  31.099   7.921
 2790POPC   C4B36610   9.680  31.119   7.448
 2791POPC   NC336611  10.881  10.766   9.556
 2791POPC   PO436612  11.438  10.366   9.385
 2791POPC   GL136613  11.335  10.700   9.114
 2791POPC   GL236614  11.041  10.590   9.082
 2791POPC   C1A36615  11.514  10.832   8.742
 2791POPC   D2A36616  11.629  10.996   8.352
 2791POPC   C3A36617  11.355  10.808   8.034
 2791POPC   C4A36618  11.111  10.519   7.792
 2791POPC   C1B36619  11.272  10.357   8.742
 2791POPC   C2B36620  11.187  10.408   8.315
 2791POPC   C3B36621  10.886  10.186   8.092
 2791POPC   C4B36622  10.935   9.959   7.727
 2792POPC   NC336623  40.496   3.624   9.536
 2792POPC   PO436624  41.237   3.797   9.487
 2792POPC   GL136625  41.042   3.533   9.180
 2792POPC   GL236626  40.727   3.673   9.095
 2792POPC   C1A36627  41.069   3.377   8.746
 2792POPC   D2A36628  40.900   3.534   8.336
 2792POPC   C3A36629  41.058   3.340   7.963
 2792POPC   C4A36630  41.074   3.416   7.505
 2792POPC   C1B36631  40.547   3.515   8.733
 2792POPC   C2B36632  40.388   3.549   8.308
 2792POPC   C3B36633  40.490   3.867   7.997
 2792POPC   C4B36634  40.479   4.016   7.540
 2793POPC   NC336635  24.898   0.776   9.866
 2793POPC   PO436636  24.447   0.372   9.599
 2793POPC   GL136637  24.428   0.344   9.160
 2793POPC   GL236638  24.130   0.198   9.130
 2793POPC   C1A36639  24.678   0.254   8.757
 2793POPC   D2A36640  24.596   0.039   8.387
 2793POPC   C3A36641  24.737   0.257   8.038
 2793POPC   C4A36642  24.628   0.288   7.642
 2793POPC   C1B36643  24.184   0.144   8.716
 2793POPC   C2B36644  24.070   0.348   8.345
 2793POPC   C3B36645  24.203   0.317   7.916
 2793POPC   C4B36646  24.204   0.511   7.491
 2794POPC   NC336647  34.890   8.506   9.415
 2794POPC   PO436648  34.660   9.162   9.480
 2794POPC   GL136649  34.661   9.105   9.080
 2794POPC   GL236650  34.564   8.777   9.060
 2794POPC   C1A36651  34.455   9.140   8.696
 2794POPC   D2A36652  34.277   8.943   8.323
 2794POPC   C3A36653  34.485   9.087   7.925
 2794POPC   C4A36654  34.800   9.411   7.977
 2794POPC   C1B36655  34.676   8.606   8.669
 2794POPC   C2B36656  34.582   8.532   8.233
 2794POPC   C3B36657  34.260   8.602   7.941
 2794POPC   C4B36658  34.300   8.713   7.512
 2795POPC   NC336659  27.995  29.035   9.604
 2795POPC   PO436660  27.424  29.406   9.475
 2795POPC   GL136661  27.619  29.421   9.099
 2795POPC   GL236662  27.657  29.093   9.088
 2795POPC   C1A36663  27.512  29.510   8.693
 2795POPC   D2A36664  27.713  29.442   8.294
 2795POPC   C3A36665  27.402  29.403   7.980
 2795POPC   C4A36666  27.372  29.201   7.598
 2795POPC   C1B36667  27.738  28.853   8.686
 2795POPC   C2B36668  27.642  28.929   8.241
 2795POPC   C3B36669  27.816  29.122   7.875
 2795POPC   C4B36670  27.758  28.883   7.524
 2796POPC   NC336671  24.580  10.966   9.529
 2796POPC   PO436672  23.996  10.786   9.283
 2796POPC   GL136673  24.298  11.049   9.056
 2796POPC   GL236674  24.495  11.345   9.177
 2796POPC   C1A36675  24.279  11.216   8.638
 2796POPC   D2A36676  24.506  11.037   8.300
 2796POPC   C3A36677  24.391  11.023   7.901
 2796POPC   C4A36678  24.574  11.181   7.508
 2796POPC   C1B36679  24.620  11.579   8.809
 2796POPC   C2B36680  24.592  11.547   8.369
 2796POPC   C3B36681  24.675  11.489   7.948
 2796POPC   C4B36682  24.268  11.498   7.806
 2797POPC   NC336683  21.492  35.098   9.407
 2797POPC   PO436684  21.436  34.479   9.536
 2797POPC   GL136685  21.597  34.639   9.143
 2797POPC   GL236686  21.315  34.879   8.995
 2797POPC   C1A36687  21.459  34.441   8.741
 2797POPC   D2A36688  21.479  34.423   8.299
 2797POPC   C3A36689  21.155  34.258   8.063
 2797POPC   C4A36690  21.241  34.374   7.651
 2797POPC   C1B36691  21.644  35.013   8.731
 2797POPC   C2B36692  21.795  34.821   8.352
 2797POPC   C3B36693  21.583  34.808   7.931
 2797POPC   C4B36694  21.812  34.939   7.557
 2798POPC   NC336695  34.443  11.079   9.518
 2798POPC   PO436696  34.215  11.687   9.491
 2798POPC   GL136697  34.333  11.449   9.129
 2798POPC   GL236698  34.631  11.330   9.095
 2798POPC   C1A36699  34.425  11.540   8.678
 2798POPC   D2A36700  34.386  11.436   8.275
 2798POPC   C3A36701  34.674  11.413   7.982
 2798POPC   C4A36702  34.363  11.420   7.701
 2798POPC   C1B36703  34.527  11.038   8.734
 2798POPC   C2B36704  34.683  11.023   8.331
 2798POPC   C3B36705  34.605  10.912   7.898
 2798POPC   C4B36706  34.921  11.109   7.629
 2799POPC   NC336707  40.511  30.140   9.464
 2799POPC   PO436708  41.055  29.764   9.509
 2799POPC   GL136709  40.813  29.849   9.161
 2799POPC   GL236710  40.466  29.693   9.174
 2799POPC   C1A36711  40.929  30.019   8.764
 2799POPC   D2A36712  41.059  29.790   8.417
 2799POPC   C3A36713  40.891  30.008   8.092
 2799POPC   C4A36714  41.039  29.888   7.711
 2799POPC   C1B36715  40.430  30.010   8.833
 2799POPC   C2B36716  40.510  30.204   8.439
 2799POPC   C3B36717  40.397  30.161   7.997
 2799POPC   C4B36718  40.655  30.211   7.652
 2800POPC   NC336719  26.269  27.396   9.369
 2800POPC   PO436720  25.662  27.699   9.535
 2800POPC   GL136721  25.908  27.761   9.177
 2800POPC   GL236722  26.199  27.946   9.192
 2800POPC   C1A36723  25.988  27.626   8.774
 2800POPC   D2A36724  26.199  27.553   8.415
 2800POPC   C3A36725  25.988  27.658   8.110
 2800POPC   C4A36726  25.918  27.704   7.742
 2800POPC   C1B36727  26.366  28.012   8.772
 2800POPC   C2B36728  26.509  27.956   8.324
 2800POPC   C3B36729  26.431  27.825   7.869
 2800POPC   C4B36730  26.349  27.579   7.481
 2801POPC   NC336731  10.484  30.289   9.794
 2801POPC   PO436732  10.834  29.736   9.724
 2801POPC   GL136733  10.783  29.818   9.237
 2801POPC   GL236734  10.645  30.045   9.072
 2801POPC   C1A36735  10.847  29.731   8.750
 2801POPC   D2A36736  10.634  29.815   8.354
 2801POPC   C3A36737  10.489  30.072   8.003
 2801POPC   C4A36738  10.565  29.982   7.556
 2801POPC   C1B36739  10.396  30.044   8.734
 2801POPC   C2B36740  10.309  30.334   8.431
 2801POPC   C3B36741  10.008  30.347   8.138
 2801POPC   C4B36742  10.023  30.153   7.754
 2802POPC   NC336743  36.489   9.627   9.480
 2802POPC   PO436744  35.850   9.319   9.465
 2802POPC   GL136745  35.934   9.594   9.118
 2802POPC   GL236746  36.233   9.470   9.063
 2802POPC   C1A36747  36.038   9.812   8.734
 2802POPC   D2A36748  36.138   9.739   8.318
 2802POPC   C3A36749  36.206  10.097   8.075
 2802POPC   C4A36750  36.108  10.016   7.644
 2802POPC   C1B36751  36.425   9.436   8.656
 2802POPC   C2B36752  36.631   9.548   8.244
 2802POPC   C3B36753  36.440   9.661   7.864
 2802POPC   C4B36754  36.365   9.512   7.455
 2803POPC   NC336755  24.472  27.443   9.476
 2803POPC   PO436756  24.967  27.889   9.302
 2803POPC   GL136757  24.625  27.703   9.068
 2803POPC   GL236758  24.661  27.326   9.012
 2803POPC   C1A36759  24.332  27.737   8.751
 2803POPC   D2A36760  24.283  27.712   8.327
 2803POPC   C3A36761  24.634  27.623   8.048
 2803POPC   C4A36762  24.444  27.698   7.650
 2803POPC   C1B36763  24.238  27.237   8.838
 2803POPC   C2B36764  24.057  27.242   8.390
 2803POPC   C3B36765  24.178  27.372   7.943
 2803POPC   C4B36766  24.147  27.358   7.436
 2804POPC   NC336767  32.686   7.790   9.571
 2804POPC   PO436768  32.928   7.177   9.546
 2804POPC   GL136769  32.786   7.211   9.176
 2804POPC   GL236770  32.896   7.554   9.177
 2804POPC   C1A36771  32.869   7.119   8.751
 2804POPC   D2A36772  32.866   7.397   8.422
 2804POPC   C3A36773  32.826   7.232   8.043
 2804POPC   C4A36774  32.923   7.382   7.672
 2804POPC   C1B36775  33.172   7.508   8.831
 2804POPC   C2B36776  33.375   7.553   8.442
 2804POPC   C3B36777  33.199   7.631   8.069
 2804POPC   C4B36778  33.319   7.822   7.741
 2805POPC   NC336779   0.889  40.730   9.589
 2805POPC   PO436780   0.335  40.393   9.492
 2805POPC   GL136781   0.445  40.627   9.144
 2805POPC   GL236782   0.353  40.967   9.142
 2805POPC   C1A36783   0.377  40.749   8.700
 2805POPC   D2A36784   0.276  40.586   8.323
 2805POPC   C3A36785   0.543  40.764   8.044
 2805POPC   C4A36786   0.503  40.674   7.661
 2805POPC   C1B36787   0.123  41.184   8.789
 2805POPC   C2B36788   0.223  41.097   8.318
 2805POPC   C3B36789   0.293  41.182   7.867
 2805POPC   C4B36790   0.221  41.077   7.417
 2806POPC   NC336791  27.039  36.951   9.523
 2806POPC   PO436792  26.419  36.734   9.573
 2806POPC   GL136793  26.685  36.841   9.167
 2806POPC   GL236794  27.018  36.968   9.033
 2806POPC   C1A36795  26.572  36.753   8.723
 2806POPC   D2A36796  26.496  37.020   8.351
 2806POPC   C3A36797  26.434  36.887   7.956
 2806POPC   C4A36798  26.648  37.095   7.663
 2806POPC   C1B36799  27.069  36.771   8.639
 2806POPC   C2B36800  27.109  36.828   8.225
 2806POPC   C3B36801  27.078  36.827   7.806
 2806POPC   C4B36802  27.127  36.488   7.585
 2807POPC   NC336803  25.445  25.516   9.466
 2807POPC   PO436804  24.798  25.513   9.495
 2807POPC   GL136805  25.082  25.309   9.188
 2807POPC   GL236806  24.848  25.215   9.032
 2807POPC   C1A36807  25.287  25.112   8.804
 2807POPC   D2A36808  25.552  25.206   8.448
 2807POPC   C3A36809  25.420  25.160   8.043
 2807POPC   C4A36810  25.362  25.552   7.816
 2807POPC   C1B36811  24.987  25.541   8.754
 2807POPC   C2B36812  24.795  25.524   8.385
 2807POPC   C3B36813  24.943  25.329   8.044
 2807POPC   C4B36814  25.086  25.168   7.650
 2808POPC   NC336815  18.788  30.985   9.328
 2808POPC   PO436816  19.372  30.533   9.331
 2808POPC   GL136817  19.096  30.713   9.055
 2808POPC   GL236818  18.737  30.589   9.009
 2808POPC   C1A36819  19.087  30.776   8.633
 2808POPC   D2A36820  19.295  30.546   8.356
 2808POPC   C3A36821  19.283  30.657   7.935
 2808POPC   C4A36822  19.445  30.327   7.775
 2808POPC   C1B36823  18.579  30.814   8.684
 2808POPC   C2B36824  18.679  30.763   8.283
 2808POPC   C3B36825  18.682  30.805   7.904
 2808POPC   C4B36826  18.832  30.577   7.614
 2809POPC   NC336827  30.336   7.923   9.694
 2809POPC   PO436828  29.723   8.203   9.459
 2809POPC   GL136829  29.964   8.397   9.144
 2809POPC   GL236830  29.834   8.123   8.955
 2809POPC   C1A36831  30.131   8.430   8.704
 2809POPC   D2A36832  29.974   8.231   8.348
 2809POPC   C3A36833  30.143   8.255   7.950
 2809POPC   C4A36834  29.790   8.140   7.752
 2809POPC   C1B36835  29.904   7.793   8.668
 2809POPC   C2B36836  30.253   7.803   8.412
 2809POPC   C3B36837  30.075   7.761   8.025
 2809POPC   C4B36838  30.214   7.857   7.606
 2810POPC   NC336839  27.033  28.832   9.424
 2810POPC   PO436840  26.641  29.431   9.477
 2810POPC   GL136841  26.760  29.230   9.139
 2810POPC   GL236842  27.128  29.225   9.076
 2810POPC   C1A36843  26.739  29.354   8.727
 2810POPC   D2A36844  27.097  29.306   8.416
 2810POPC   C3A36845  26.909  29.277   8.003
 2810POPC   C4A36846  26.883  29.112   7.603
 2810POPC   C1B36847  26.961  28.916   8.756
 2810POPC   C2B36848  26.689  28.972   8.377
 2810POPC   C3B36849  26.608  28.846   7.963
 2810POPC   C4B36850  26.373  29.042   7.631
 2811POPC   NC336851   9.788  28.028   9.445
 2811POPC   PO436852   9.755  28.663   9.385
 2811POPC   GL136853  10.007  28.478   9.061
 2811POPC   GL236854  10.014  28.131   8.988
 2811POPC   C1A36855  10.015  28.521   8.635
 2811POPC   D2A36856   9.812  28.310   8.329
 2811POPC   C3A36857   9.746  28.609   8.025
 2811POPC   C4A36858  10.035  28.684   7.749
 2811POPC   C1B36859   9.581  28.327   8.815
 2811POPC   C2B36860   9.322  28.433   8.433
 2811POPC   C3B36861   9.373  28.281   7.999
 2811POPC   C4B36862   9.774  28.125   7.839
 2812POPC   NC336863  38.677  23.333   9.424
 2812POPC   PO436864  38.100  23.758   9.584
 2812POPC   GL136865  38.397  23.749   9.271
 2812POPC   GL236866  38.240  23.467   9.161
 2812POPC   C1A36867  38.606  23.894   8.894
 2812POPC   D2A36868  38.591  23.634   8.541
 2812POPC   C3A36869  38.559  23.676   8.109
 2812POPC   C4A36870  38.834  23.841   7.838
 2812POPC   C1B36871  38.138  23.704   8.813
 2812POPC   C2B36872  38.082  23.751   8.395
 2812POPC   C3B36873  38.118  23.897   7.985
 2812POPC   C4B36874  38.189  23.630   7.652
 2813POPC   NC336875  22.843   7.820   9.609
 2813POPC   PO436876  23.088   8.470   9.492
 2813POPC   GL136877  22.846   8.386   9.134
 2813POPC   GL236878  22.695   8.083   9.192
 2813POPC   C1A36879  22.917   8.292   8.737
 2813POPC   D2A36880  23.087   8.076   8.426
 2813POPC   C3A36881  22.994   8.251   8.062
 2813POPC   C4A36882  23.179   8.326   7.695
 2813POPC   C1B36883  22.457   8.073   8.813
 2813POPC   C2B36884  22.543   8.155   8.383
 2813POPC   C3B36885  22.603   7.906   8.030
 2813POPC   C4B36886  22.747   8.046   7.641
 2814POPC   NC336887  35.460  18.498   9.305
 2814POPC   PO436888  35.334  17.928   9.658
 2814POPC   GL136889  35.222  17.917   9.179
 2814POPC   GL236890  35.108  18.210   9.076
 2814POPC   C1A36891  35.282  17.956   8.674
 2814POPC   D2A36892  35.097  18.191   8.293
 2814POPC   C3A36893  35.315  18.252   7.881
 2814POPC   C4A36894  35.780  18.330   7.823
 2814POPC   C1B36895  35.201  18.474   8.702
 2814POPC   C2B36896  34.915  18.755   8.509
 2814POPC   C3B36897  34.871  18.666   8.110
 2814POPC   C4B36898  35.074  18.735   7.749
 2815POPC   NC336899  23.733  10.738   9.657
 2815POPC   PO436900  23.683  10.023   9.757
 2815POPC   GL136901  23.463  10.262   9.367
 2815POPC   GL236902  23.777  10.332   9.168
 2815POPC   C1A36903  23.379  10.534   8.944
 2815POPC   D2A36904  23.542  10.727   8.540
 2815POPC   C3A36905  23.467  10.597   8.114
 2815POPC   C4A36906  23.554  10.763   7.698
 2815POPC   C1B36907  23.912  10.408   8.733
 2815POPC   C2B36908  23.843  10.291   8.315
 2815POPC   C3B36909  24.053  10.153   7.929
 2815POPC   C4B36910  24.298  10.365   7.607
 2816POPC   NC336911  34.727  11.791   9.493
 2816POPC   PO436912  34.602  12.511   9.454
 2816POPC   GL136913  34.423  12.270   9.097
 2816POPC   GL236914  34.483  11.926   9.064
 2816POPC   C1A36915  34.550  12.248   8.651
 2816POPC   D2A36916  34.506  11.939   8.292
 2816POPC   C3A36917  34.570  11.888   7.830
 2816POPC   C4A36918  34.665  12.159   7.452
 2816POPC   C1B36919  34.820  11.820   8.780
 2816POPC   C2B36920  34.885  11.624   8.400
 2816POPC   C3B36921  35.037  11.783   8.048
 2816POPC   C4B36922  34.990  11.658   7.658
 2817POPC   NC336923  25.214   7.993   9.494
 2817POPC   PO436924  25.638   8.539   9.602
 2817POPC   GL136925  25.549   8.457   9.129
 2817POPC   GL236926  25.236   8.313   9.092
 2817POPC   C1A36927  25.533   8.128   8.739
 2817POPC   D2A36928  25.639   7.845   8.355
 2817POPC   C3A36929  25.379   8.004   8.023
 2817POPC   C4A36930  25.127   8.200   7.711
 2817POPC   C1B36931  24.945   8.219   8.748
 2817POPC   C2B36932  24.825   8.111   8.313
 2817POPC   C3B36933  24.775   8.450   8.003
 2817POPC   C4B36934  24.809   8.579   7.572
 2818POPC   NC336935   5.095  31.802   9.414
 2818POPC   PO436936   5.443  31.180   9.321
 2818POPC   GL136937   5.239  31.441   9.060
 2818POPC   GL236938   4.878  31.460   9.101
 2818POPC   C1A36939   5.155  31.566   8.656
 2818POPC   D2A36940   5.021  31.552   8.252
 2818POPC   C3A36941   5.179  31.405   7.858
 2818POPC   C4A36942   5.402  31.750   7.726
 2818POPC   C1B36943   4.652  31.695   8.780
 2818POPC   C2B36944   4.535  31.553   8.368
 2818POPC   C3B36945   4.657  31.520   7.918
 2818POPC   C4B36946   4.873  31.700   7.563
 2819POPC   NC336947  25.684  34.768   9.378
 2819POPC   PO436948  26.158  34.366   9.568
 2819POPC   GL136949  26.081  34.468   9.161
 2819POPC   GL236950  26.148  34.789   9.121
 2819POPC   C1A36951  26.245  34.448   8.740
 2819POPC   D2A36952  26.383  34.608   8.349
 2819POPC   C3A36953  26.046  34.447   8.080
 2819POPC   C4A36954  26.012  34.277   7.727
 2819POPC   C1B36955  25.838  34.804   8.769
 2819POPC   C2B36956  25.924  34.833   8.364
 2819POPC   C3B36957  26.134  34.927   7.985
 2819POPC   C4B36958  25.860  34.800   7.679
 2820POPC   NC336959  34.760  28.992   9.556
 2820POPC   PO436960  34.361  29.461   9.426
 2820POPC   GL136961  34.530  29.174   9.147
 2820POPC   GL236962  34.430  28.827   9.180
 2820POPC   C1A36963  34.674  29.199   8.753
 2820POPC   D2A36964  34.397  29.139   8.437
 2820POPC   C3A36965  34.550  29.325   8.094
 2820POPC   C4A36966  34.353  29.228   7.721
 2820POPC   C1B36967  34.578  28.695   8.750
 2820POPC   C2B36968  34.771  28.800   8.362
 2820POPC   C3B36969  34.484  28.812   8.016
 2820POPC   C4B36970  34.544  28.763   7.604
 2821POPC   NC336971  13.043  22.801   9.715
 2821POPC   PO436972  12.685  23.240   9.545
 2821POPC   GL136973  12.881  23.139   9.161
 2821POPC   GL236974  13.090  22.812   9.158
 2821POPC   C1A36975  12.848  23.025   8.725
 2821POPC   D2A36976  13.013  23.098   8.309
 2821POPC   C3A36977  12.663  23.098   8.018
 2821POPC   C4A36978  12.660  23.061   7.569
 2821POPC   C1B36979  13.244  22.659   8.736
 2821POPC   C2B36980  13.127  22.557   8.283
 2821POPC   C3B36981  13.005  22.763   7.883
 2821POPC   C4B36982  12.924  22.663   7.431
 2822POPC   NC336983  36.403  43.429   9.282
 2822POPC   PO436984  36.096  42.878   9.594
 2822POPC   GL136985  36.195  42.939   9.164
 2822POPC   GL236986  35.958  43.097   8.969
 2822POPC   C1A36987  36.363  42.796   8.766
 2822POPC   D2A36988  36.200  42.785   8.353
 2822POPC   C3A36989  36.240  42.935   7.911
 2822POPC   C4A36990  36.334  43.278   7.655
 2822POPC   C1B36991  36.192  43.282   8.626
 2822POPC   C2B36992  36.195  43.364   8.192
 2822POPC   C3B36993  35.886  43.432   7.866
 2822POPC   C4B36994  35.985  43.610   7.451
 2823POPC   NC336995  32.617  25.594   9.445
 2823POPC   PO436996  33.326  25.514   9.546
 2823POPC   GL136997  33.051  25.273   9.232
 2823POPC   GL236998  33.309  25.102   9.030
 2823POPC   C1A36999  32.831  25.206   8.813
 2823POPC   D2A37000  33.010  25.227   8.390
 2823POPC   C3A37001  32.828  25.127   7.972
 2823POPC   C4A37002  32.898  24.998   7.525
 2823POPC   C1B37003  33.369  25.426   8.720
 2823POPC   C2B37004  33.279  25.692   8.383
 2823POPC   C3B37005  33.109  25.568   7.998
 2823POPC   C4B37006  33.367  25.564   7.682
 2824POPC   NC337007  28.181  44.247   9.264
 2824POPC   PO437008  28.512  43.634   9.444
 2824POPC   GL137009  28.347  43.764   9.051
 2824POPC   GL237010  28.003  43.840   8.971
 2824POPC   C1A37011  28.389  43.932   8.632
 2824POPC   D2A37012  28.337  43.713   8.251
 2824POPC   C3A37013  28.034  43.792   7.958
 2824POPC   C4A37014  28.414  43.828   7.693
 2824POPC   C1B37015  27.984  44.237   8.673
 2824POPC   C2B37016  28.035  44.216   8.251
 2824POPC   C3B37017  28.204  44.270   7.860
 2824POPC   C4B37018  28.005  44.078   7.483
 2825POPC   NC337019  40.360  25.283   9.568
 2825POPC   PO437020  41.064  25.165   9.458
 2825POPC   GL137021  40.822  25.223   9.114
 2825POPC   GL237022  40.573  25.449   9.148
 2825POPC   C1A37023  40.638  25.020   8.767
 2825POPC   D2A37024  40.833  25.131   8.400
 2825POPC   C3A37025  40.636  25.037   8.045
 2825POPC   C4A37026  40.826  25.235   7.688
 2825POPC   C1B37027  40.545  25.526   8.756
 2825POPC   C2B37028  40.386  25.374   8.390
 2825POPC   C3B37029  40.672  25.554   8.086
 2825POPC   C4B37030  40.689  25.741   7.685
 2826POPC   NC337031  19.704  18.860   9.369
 2826POPC   PO437032  20.084  19.385   9.498
 2826POPC   GL137033  20.051  19.321   9.086
 2826POPC   GL237034  19.740  19.182   8.970
 2826POPC   C1A37035  20.142  19.289   8.647
 2826POPC   D2A37036  19.943  19.237   8.252
 2826POPC   C3A37037  20.022  18.843   8.046
 2826POPC   C4A37038  20.321  18.778   7.750
 2826POPC   C1B37039  19.499  18.911   8.683
 2826POPC   C2B37040  19.522  18.887   8.244
 2826POPC   C3B37041  19.603  19.113   7.884
 2826POPC   C4B37042  19.526  19.277   7.472
 2827POPC   NC337043   8.060  27.993   9.562
 2827POPC   PO437044   8.427  27.426   9.445
 2827POPC   GL137045   8.158  27.659   9.177
 2827POPC   GL237046   7.946  27.406   9.004
 2827POPC   C1A37047   8.182  27.873   8.789
 2827POPC   D2A37048   8.091  27.679   8.415
 2827POPC   C3A37049   8.199  27.852   8.071
 2827POPC   C4A37050   8.029  27.672   7.727
 2827POPC   C1B37051   8.343  27.401   8.765
 2827POPC   C2B37052   8.416  27.279   8.357
 2827POPC   C3B37053   8.298  27.317   7.960
 2827POPC   C4B37054   8.566  27.372   7.608
 2828POPC   NC337055  44.663  16.872   9.513
 2828POPC   PO437056  44.984  16.210   9.390
 2828POPC   GL137057  44.746  16.515   9.138
 2828POPC   GL237058  44.788  16.895   9.036
 2828POPC   C1A37059  44.639  16.537   8.703
 2828POPC   D2A37060  44.515  16.706   8.302
 2828POPC   C3A37061  44.667  16.707   7.859
 2828POPC   C4A37062  44.375  16.564   7.524
 2828POPC   C1B37063  44.813  17.086   8.649
 2828POPC   C2B37064  44.915  17.009   8.241
 2828POPC   C3B37065   0.087  17.085   7.876
 2828POPC   C4B37066  44.970  17.028   7.480
 2829POPC   NC337067   7.564  31.424   9.509
 2829POPC   PO437068   7.119  31.939   9.545
 2829POPC   GL137069   7.319  31.750   9.190
 2829POPC   GL237070   7.680  31.725   9.113
 2829POPC   C1A37071   7.288  31.710   8.755
 2829POPC   D2A37072   7.391  31.443   8.413
 2829POPC   C3A37073   7.263  31.629   8.039
 2829POPC   C4A37074   7.458  31.452   7.695
 2829POPC   C1B37075   7.638  31.328   8.858
 2829POPC   C2B37076   7.708  31.031   8.517
 2829POPC   C3B37077   7.657  31.144   8.080
 2829POPC   C4B37078   7.759  31.021   7.672
 2830POPC   NC337079  43.147  23.239   9.824
 2830POPC   PO437080  43.113  22.801   9.312
 2830POPC   GL137081  43.320  22.859   9.015
 2830POPC   GL237082  43.107  23.051   8.874
 2830POPC   C1A37083  43.418  22.737   8.631
 2830POPC   D2A37084  43.324  23.004   8.298
 2830POPC   C3A37085  43.394  22.744   7.973
 2830POPC   C4A37086  43.268  22.717   7.594
 2830POPC   C1B37087  42.963  23.255   8.602
 2830POPC   C2B37088  42.745  23.139   8.277
 2830POPC   C3B37089  42.952  23.057   7.888
 2830POPC   C4B37090  42.795  22.857   7.531
 2831POPC   NC337091  18.687  12.558   9.326
 2831POPC   PO437092  19.249  12.839   9.745
 2831POPC   GL137093  19.160  12.852   9.245
 2831POPC   GL237094  19.236  13.202   9.065
 2831POPC   C1A37095  19.326  12.801   8.790
 2831POPC   D2A37096  19.144  12.784   8.378
 2831POPC   C3A37097  19.291  12.665   7.963
 2831POPC   C4A37098  19.088  12.809   7.571
 2831POPC   C1B37099  19.022  13.238   8.646
 2831POPC   C2B37100  18.984  13.226   8.172
 2831POPC   C3B37101  18.987  13.287   7.722
 2831POPC   C4B37102  18.827  13.163   7.322
 2832POPC   NC337103  34.250  26.670   9.621
 2832POPC   PO437104  33.733  27.048   9.376
 2832POPC   GL137105  34.018  26.769   9.147
 2832POPC   GL237106  34.051  26.403   9.214
 2832POPC   C1A37107  33.968  26.759   8.709
 2832POPC   D2A37108  33.764  26.972   8.368
 2832POPC   C3A37109  33.941  26.743   8.085
 2832POPC   C4A37110  33.864  26.662   7.688
 2832POPC   C1B37111  33.675  26.391   8.902
 2832POPC   C2B37112  33.553  26.523   8.488
 2832POPC   C3B37113  33.549  26.413   8.047
 2832POPC   C4B37114  33.944  26.208   7.874
 2833POPC   NC337115  26.436  23.183   9.548
 2833POPC   PO437116  27.092  23.029   9.431
 2833POPC   GL137117  26.724  22.932   9.202
 2833POPC   GL237118  26.639  23.273   9.070
 2833POPC   C1A37119  26.565  22.877   8.775
 2833POPC   D2A37120  26.558  23.090   8.374
 2833POPC   C3A37121  26.375  22.824   8.079
 2833POPC   C4A37122  26.570  22.754   7.680
 2833POPC   C1B37123  26.974  23.180   8.687
 2833POPC   C2B37124  27.275  23.300   8.310
 2833POPC   C3B37125  27.098  23.539   7.919
 2833POPC   C4B37126  26.811  23.308   7.691
 2834POPC   NC337127  14.406  22.874   9.330
 2834POPC   PO437128  14.404  23.402   9.926
 2834POPC   GL137129  14.604  23.317   9.405
 2834POPC   GL237130  14.268  23.325   9.152
 2834POPC   C1A37131  14.682  23.236   8.872
 2834POPC   D2A37132  14.548  23.110   8.414
 2834POPC   C3A37133  14.556  22.918   7.988
 2834POPC   C4A37134  14.576  23.210   7.629
 2834POPC   C1B37135  14.168  23.123   8.754
 2834POPC   C2B37136  14.164  22.761   8.457
 2834POPC   C3B37137  14.023  22.750   8.033
 2834POPC   C4B37138  14.088  22.909   7.618
 2835POPC   NC337139  39.153  29.090   9.530
 2835POPC   PO437140  39.300  29.747   9.452
 2835POPC   GL137141  39.363  29.380   9.185
 2835POPC   GL237142  39.026  29.254   9.058
 2835POPC   C1A37143  39.461  29.212   8.792
 2835POPC   D2A37144  39.174  29.202   8.466
 2835POPC   C3A37145  39.355  29.391   8.101
 2835POPC   C4A37146  39.164  29.388   7.697
 2835POPC   C1B37147  38.948  28.861   8.813
 2835POPC   C2B37148  38.915  28.777   8.362
 2835POPC   C3B37149  39.105  28.945   7.953
 2835POPC   C4B37150  39.217  28.922   7.467
 2836POPC   NC337151  12.501  14.021   9.425
 2836POPC   PO437152  13.147  13.890   9.602
 2836POPC   GL137153  13.010  13.894   9.161
 2836POPC   GL237154  12.687  13.896   8.991
 2836POPC   C1A37155  13.079  13.691   8.753
 2836POPC   D2A37156  12.910  13.605   8.352
 2836POPC   C3A37157  13.078  13.755   8.031
 2836POPC   C4A37158  13.053  13.450   7.737
 2836POPC   C1B37159  12.558  13.605   8.716
 2836POPC   C2B37160  12.373  13.561   8.342
 2836POPC   C3B37161  12.570  13.465   7.976
 2836POPC   C4B37162  12.647  13.721   7.639
 2837POPC   NC337163  22.040  10.829   9.680
 2837POPC   PO437164  22.401  10.187   9.539
 2837POPC   GL137165  22.305  10.293   9.121
 2837POPC   GL237166  22.287  10.657   9.105
 2837POPC   C1A37167  22.505  10.421   8.693
 2837POPC   D2A37168  22.326  10.567   8.265
 2837POPC   C3A37169  22.392  10.558   7.783
 2837POPC   C4A37170  22.417  10.266   7.373
 2837POPC   C1B37171  22.000  10.493   8.750
 2837POPC   C2B37172  21.817  10.563   8.370
 2837POPC   C3B37173  21.912  10.650   7.970
 2837POPC   C4B37174  21.940  10.855   7.580
 2838POPC   NC337175  37.931  19.067   9.524
 2838POPC   PO437176  37.303  18.984   9.560
 2838POPC   GL137177  37.494  19.086   9.198
 2838POPC   GL237178  37.796  19.255   9.074
 2838POPC   C1A37179  37.434  19.014   8.783
 2838POPC   D2A37180  37.563  19.227   8.458
 2838POPC   C3A37181  37.355  19.118   8.103
 2838POPC   C4A37182  37.548  19.160   7.713
 2838POPC   C1B37183  37.943  18.940   8.746
 2838POPC   C2B37184  37.822  18.807   8.331
 2838POPC   C3B37185  37.920  19.123   8.044
 2838POPC   C4B37186  38.021  19.318   7.628
 2839POPC   NC337187  33.367   5.746   9.900
 2839POPC   PO437188  33.365   6.282   9.462
 2839POPC   GL137189  33.014   5.953   9.342
 2839POPC   GL237190  33.201   5.928   9.068
 2839POPC   C1A37191  32.762   5.745   8.958
 2839POPC   D2A37192  33.071   5.736   8.596
 2839POPC   C3A37193  32.994   5.777   8.147
 2839POPC   C4A37194  32.782   5.713   7.734
 2839POPC   C1B37195  33.237   6.215   8.775
 2839POPC   C2B37196  32.995   6.233   8.416
 2839POPC   C3B37197  33.106   6.267   8.024
 2839POPC   C4B37198  33.169   6.047   7.658
 2840POPC   NC337199  42.043  15.232   9.543
 2840POPC   PO437200  42.594  15.420   9.534
 2840POPC   GL137201  42.448  15.214   9.162
 2840POPC   GL237202  42.146  15.015   9.100
 2840POPC   C1A37203  42.354  15.370   8.754
 2840POPC   D2A37204  42.253  15.234   8.354
 2840POPC   C3A37205  42.530  15.262   8.006
 2840POPC   C4A37206  42.373  15.178   7.615
 2840POPC   C1B37207  41.926  14.804   8.757
 2840POPC   C2B37208  41.826  14.947   8.340
 2840POPC   C3B37209  41.924  14.741   7.944
 2840POPC   C4B37210  41.991  14.857   7.493
 2841POPC   NC337211  21.163  29.503   9.476
 2841POPC   PO437212  21.454  28.989   9.536
 2841POPC   GL137213  21.319  29.130   9.143
 2841POPC   GL237214  21.557  29.391   9.119
 2841POPC   C1A37215  21.444  29.019   8.734
 2841POPC   D2A37216  21.522  28.683   8.478
 2841POPC   C3A37217  21.526  28.925   8.129
 2841POPC   C4A37218  21.578  28.864   7.743
 2841POPC   C1B37219  21.255  29.505   8.767
 2841POPC   C2B37220  21.296  29.359   8.328
 2841POPC   C3B37221  21.335  29.364   7.866
 2841POPC   C4B37222  21.596  29.543   7.537
 2842POPC   NC337223   9.971  23.333   9.511
 2842POPC   PO437224   9.649  23.947   9.491
 2842POPC   GL137225   9.761  23.885   9.084
 2842POPC   GL237226   9.810  23.583   9.109
 2842POPC   C1A37227   9.741  23.764   8.638
 2842POPC   D2A37228   9.783  23.983   8.319
 2842POPC   C3A37229   9.619  23.903   7.948
 2842POPC   C4A37230   9.809  23.875   7.563
 2842POPC   C1B37231  10.142  23.538   8.847
 2842POPC   C2B37232  10.161  23.482   8.419
 2842POPC   C3B37233  10.070  23.634   8.026
 2842POPC   C4B37234  10.097  23.447   7.610
 2843POPC   NC337235  39.553  28.557   9.517
 2843POPC   PO437236  40.165  28.371   9.510
 2843POPC   GL137237  39.931  28.417   9.161
 2843POPC   GL237238  39.996  28.062   9.108
 2843POPC   C1A37239  39.967  28.413   8.731
 2843POPC   D2A37240  39.853  28.520   8.342
 2843POPC   C3A37241  40.109  28.683   8.067
 2843POPC   C4A37242  40.017  28.430   7.705
 2843POPC   C1B37243  40.365  28.076   8.836
 2843POPC   C2B37244  40.435  28.381   8.483
 2843POPC   C3B37245  40.431  28.276   8.024
 2843POPC   C4B37246  40.317  28.031   7.629
 2844POPC   NC337247  44.062  28.815   9.240
 2844POPC   PO437248  43.753  29.243   9.706
 2844POPC   GL137249  43.936  29.319   9.259
 2844POPC   GL237250  43.729  29.144   9.007
 2844POPC   C1A37251  44.135  29.389   8.812
 2844POPC   D2A37252  43.883  29.480   8.418
 2844POPC   C3A37253  43.825  29.170   8.096
 2844POPC   C4A37254  44.015  29.135   7.715
 2844POPC   C1B37255  43.640  28.992   8.573
 2844POPC   C2B37256  43.596  28.701   8.216
 2844POPC   C3B37257  43.610  28.758   7.773
 2844POPC   C4B37258  43.362  28.744   7.390
 2845POPC   NC337259  30.457   6.110   9.579
 2845POPC   PO437260  31.132   5.850   9.620
 2845POPC   GL137261  30.826   5.936   9.287
 2845POPC   GL237262  30.942   6.259   9.225
 2845POPC   C1A37263  30.558   6.143   8.922
 2845POPC   D2A37264  30.595   5.939   8.487
 2845POPC   C3A37265  30.512   6.047   8.050
 2845POPC   C4A37266  30.529   5.750   7.707
 2845POPC   C1B37267  31.007   5.962   8.815
 2845POPC   C2B37268  31.097   5.843   8.382
 2845POPC   C3B37269  31.049   5.978   7.937
 2845POPC   C4B37270  31.031   5.848   7.513
 2846POPC   NC337271  24.130  41.667   9.488
 2846POPC   PO437272  24.750  41.426   9.568
 2846POPC   GL137273  24.738  41.693   9.175
 2846POPC   GL237274  24.393  41.675   9.069
 2846POPC   C1A37275  24.744  41.561   8.715
 2846POPC   D2A37276  24.618  41.196   8.422
 2846POPC   C3A37277  24.534  41.365   8.015
 2846POPC   C4A37278  24.785  41.737   7.954
 2846POPC   C1B37279  24.216  41.656   8.689
 2846POPC   C2B37280  24.394  41.754   8.319
 2846POPC   C3B37281  24.174  41.782   7.972
 2846POPC   C4B37282  24.055  41.431   7.786
 2847POPC   NC337283   0.167  15.610   9.470
 2847POPC   PO437284   0.502  16.027   9.794
 2847POPC   GL137285   0.465  15.989   9.314
 2847POPC   GL237286   0.691  16.095   9.057
 2847POPC   C1A37287   0.253  15.888   8.885
 2847POPC   D2A37288   0.401  15.983   8.482
 2847POPC   C3A37289   0.174  15.843   8.140
 2847POPC   C4A37290   0.155  16.067   7.770
 2847POPC   C1B37291   0.819  15.807   8.747
 2847POPC   C2B37292   0.897  15.893   8.292
 2847POPC   C3B37293   0.699  15.929   7.853
 2847POPC   C4B37294   0.503  15.788   7.450
 2848POPC   NC337295  23.052  35.538   9.639
 2848POPC   PO437296  22.918  34.973   9.464
 2848POPC   GL137297  23.149  35.176   9.123
 2848POPC   GL237298  23.138  35.548   9.142
 2848POPC   C1A37299  22.925  35.308   8.746
 2848POPC   D2A37300  23.002  35.541   8.360
 2848POPC   C3A37301  22.828  35.364   7.985
 2848POPC   C4A37302  22.816  35.117   7.619
 2848POPC   C1B37303  23.369  35.562   8.775
 2848POPC   C2B37304  23.486  35.739   8.393
 2848POPC   C3B37305  23.365  35.618   7.986
 2848POPC   C4B37306  23.087  35.608   7.635
 2849POPC   NC337307  36.069   3.942   9.399
 2849POPC   PO437308  35.675   3.478   9.641
 2849POPC   GL137309  35.832   3.321   9.191
 2849POPC   GL237310  36.132   3.562   9.084
 2849POPC   C1A37311  35.838   3.341   8.703
 2849POPC   D2A37312  35.926   3.641   8.321
 2849POPC   C3A37313  35.820   3.530   7.868
 2849POPC   C4A37314  35.911   3.704   7.447
 2849POPC   C1B37315  36.307   3.555   8.692
 2849POPC   C2B37316  36.289   3.268   8.352
 2849POPC   C3B37317  36.330   3.340   7.913
 2849POPC   C4B37318  36.143   3.277   7.511
 2850POPC   NC337319  28.868  19.730   9.401
 2850POPC   PO437320  29.532  19.721   9.439
 2850POPC   GL137321  29.276  19.881   9.095
 2850POPC   GL237322  29.035  20.173   9.154
 2850POPC   C1A37323  29.306  19.847   8.658
 2850POPC   D2A37324  29.316  20.003   8.253
 2850POPC   C3A37325  29.276  19.670   7.980
 2850POPC   C4A37326  29.273  19.961   7.689
 2850POPC   C1B37327  28.831  19.989   8.819
 2850POPC   C2B37328  28.842  19.959   8.419
 2850POPC   C3B37329  28.810  19.951   7.969
 2850POPC   C4B37330  28.869  19.651   7.666
 2851POPC   NC337331  26.474   2.184   9.384
 2851POPC   PO437332  27.039   1.867   9.410
 2851POPC   GL137333  27.135   2.122   9.054
 2851POPC   GL237334  26.786   2.294   8.963
 2851POPC   C1A37335  27.268   1.900   8.651
 2851POPC   D2A37336  26.975   2.034   8.325
 2851POPC   C3A37337  27.007   1.983   7.897
 2851POPC   C4A37338  26.924   2.240   7.548
 2851POPC   C1B37339  26.786   1.862   8.783
 2851POPC   C2B37340  26.717   1.607   8.400
 2851POPC   C3B37341  26.551   1.781   8.007
 2851POPC   C4B37342  26.640   1.780   7.513
 2852POPC   NC337343  22.319  26.992   9.813
 2852POPC   PO437344  22.249  26.399   9.555
 2852POPC   GL137345  22.191  26.365   9.112
 2852POPC   GL237346  21.886  26.524   8.995
 2852POPC   C1A37347  22.397  26.595   8.757
 2852POPC   D2A37348  22.343  26.471   8.332
 2852POPC   C3A37349  22.288  26.700   7.936
 2852POPC   C4A37350  22.378  27.127   7.806
 2852POPC   C1B37351  21.910  26.628   8.602
 2852POPC   C2B37352  22.008  26.906   8.301
 2852POPC   C3B37353  21.865  27.096   7.938
 2852POPC   C4B37354  21.878  27.068   7.501
 2853POPC   NC337355  11.233   9.163   9.519
 2853POPC   PO437356  11.823   8.802   9.556
 2853POPC   GL137357  11.587   8.931   9.189
 2853POPC   GL237358  11.362   8.673   9.188
 2853POPC   C1A37359  11.294   9.101   8.837
 2853POPC   D2A37360  11.114   9.312   8.468
 2853POPC   C3A37361  11.331   9.256   8.079
 2853POPC   C4A37362  11.398   9.023   7.726
 2853POPC   C1B37363  11.432   8.631   8.722
 2853POPC   C2B37364  11.245   8.796   8.356
 2853POPC   C3B37365  11.087   8.715   7.987
 2853POPC   C4B37366  11.258   8.545   7.621
 2854POPC   NC337367  39.585  41.212   9.413
 2854POPC   PO437368  39.904  40.643   9.471
 2854POPC   GL137369  40.020  40.897   9.153
 2854POPC   GL237370  39.861  40.627   8.958
 2854POPC   C1A37371  40.195  40.946   8.757
 2854POPC   D2A37372  40.030  40.693   8.449
 2854POPC   C3A37373  39.966  40.959   8.126
 2854POPC   C4A37374  40.054  40.871   7.731
 2854POPC   C1B37375  39.612  40.907   8.732
 2854POPC   C2B37376  39.425  41.019   8.328
 2854POPC   C3B37377  39.524  41.131   7.909
 2854POPC   C4B37378  39.638  40.992   7.502
 2855POPC   NC337379  38.846   7.518   9.745
 2855POPC   PO437380  39.460   7.330   9.298
 2855POPC   GL137381  39.368   7.580   8.950
 2855POPC   GL237382  39.708   7.582   8.854
 2855POPC   C1A37383  39.031   7.806   8.761
 2855POPC   D2A37384  38.881   7.665   8.434
 2855POPC   C3A37385  39.095   7.730   8.088
 2855POPC   C4A37386  39.088   7.446   7.795
 2855POPC   C1B37387  39.482   7.211   8.650
 2855POPC   C2B37388  39.310   7.319   8.311
 2855POPC   C3B37389  39.581   7.533   8.085
 2855POPC   C4B37390  39.559   7.646   7.687
 2856POPC   NC337391  34.026  43.547  10.021
 2856POPC   PO437392  33.668  43.176   9.614
 2856POPC   GL137393  33.675  43.022   9.144
 2856POPC   GL237394  33.610  43.330   8.967
 2856POPC   C1A37395  33.974  43.003   8.738
 2856POPC   D2A37396  34.177  43.190   8.330
 2856POPC   C3A37397  34.039  42.945   7.966
 2856POPC   C4A37398  33.708  42.733   7.745
 2856POPC   C1B37399  33.327  43.428   8.628
 2856POPC   C2B37400  33.564  43.374   8.276
 2856POPC   C3B37401  33.614  43.235   7.866
 2856POPC   C4B37402  33.815  43.467   7.600
 2857POPC   NC337403  28.846  13.544   9.498
 2857POPC   PO437404  29.500  13.589   9.408
 2857POPC   GL137405  29.362  13.334   8.989
 2857POPC   GL237406  29.651  13.254   8.784
 2857POPC   C1A37407  29.238  13.344   8.497
 2857POPC   D2A37408  29.393  13.520   8.092
 2857POPC   C3A37409  29.066  13.549   7.746
 2857POPC   C4A37410  29.126  13.397   7.310
 2857POPC   C1B37411  29.596  13.693   8.612
 2857POPC   C2B37412  29.474  13.995   8.273
 2857POPC   C3B37413  29.295  13.999   7.856
 2857POPC   C4B37414  29.148  13.972   7.410
 2858POPC   NC337415  14.145   1.755   9.695
 2858POPC   PO437416  13.575   1.859   9.280
 2858POPC   GL137417  13.547   1.819   8.900
 2858POPC   GL237418  13.897   1.698   8.849
 2858POPC   C1A37419  13.478   1.749   8.458
 2858POPC   D2A37420  13.422   1.562   8.048
 2858POPC   C3A37421  13.526   1.850   7.739
 2858POPC   C4A37422  13.521   2.312   7.752
 2858POPC   C1B37423  13.814   2.112   8.594
 2858POPC   C2B37424  13.748   2.086   8.149
 2858POPC   C3B37425  14.020   2.228   7.826
 2858POPC   C4B37426  14.050   2.339   7.390
 2859POPC   NC337427   2.185  37.022   9.466
 2859POPC   PO437428   1.719  36.620   9.552
 2859POPC   GL137429   1.848  36.754   9.156
 2859POPC   GL237430   2.190  36.589   9.131
 2859POPC   C1A37431   1.769  37.107   8.841
 2859POPC   D2A37432   1.716  37.191   8.381
 2859POPC   C3A37433   1.931  36.881   8.122
 2859POPC   C4A37434   1.990  36.871   7.678
 2859POPC   C1B37435   2.121  36.726   8.704
 2859POPC   C2B37436   2.327  36.619   8.322
 2859POPC   C3B37437   2.373  36.645   7.892
 2859POPC   C4B37438   2.208  36.376   7.602
 2860POPC   NC337439  10.544  14.576   9.937
 2860POPC   PO437440  10.970  14.286   9.427
 2860POPC   GL137441  10.577  14.340   9.181
 2860POPC   GL237442  10.384  14.047   9.049
 2860POPC   C1A37443  10.314  14.529   8.836
 2860POPC   D2A37444  10.339  14.801   8.452
 2860POPC   C3A37445  10.533  14.749   8.049
 2860POPC   C4A37446  10.450  14.608   7.641
 2860POPC   C1B37447  10.666  14.147   8.726
 2860POPC   C2B37448  10.686  14.377   8.374
 2860POPC   C3B37449  10.726  14.242   7.978
 2860POPC   C4B37450  10.435  14.084   7.712
 2861POPC   NC337451  35.207  28.273   9.589
 2861POPC   PO437452  35.747  28.648   9.471
 2861POPC   GL137453  35.609  28.515   9.112
 2861POPC   GL237454  35.251  28.528   9.109
 2861POPC   C1A37455  35.677  28.328   8.742
 2861POPC   D2A37456  35.437  28.129   8.446
 2861POPC   C3A37457  35.364  28.449   8.155
 2861POPC   C4A37458  35.490  28.444   7.745
 2861POPC   C1B37459  35.083  28.427   8.675
 2861POPC   C2B37460  34.954  28.154   8.286
 2861POPC   C3B37461  35.128  28.070   7.870
 2861POPC   C4B37462  35.115  28.109   7.403
 2862POPC   NC337463  15.202   7.664   9.582
 2862POPC   PO437464  15.486   7.076   9.506
 2862POPC   GL137465  15.340   7.418   9.158
 2862POPC   GL237466  15.550   7.722   9.209
 2862POPC   C1A37467  14.992   7.619   8.855
 2862POPC   D2A37468  14.755   7.777   8.468
 2862POPC   C3A37469  14.978   7.721   8.102
 2862POPC   C4A37470  15.184   7.626   7.741
 2862POPC   C1B37471  15.478   7.781   8.799
 2862POPC   C2B37472  15.342   7.511   8.449
 2862POPC   C3B37473  15.429   7.310   8.038
 2862POPC   C4B37474  15.371   7.062   7.622
 2863POPC   NC337475   7.197  27.894   9.386
 2863POPC   PO437476   7.645  27.365   9.454
 2863POPC   GL137477   7.435  27.538   9.121
 2863POPC   GL237478   7.658  27.828   9.150
 2863POPC   C1A37479   7.197  27.639   8.725
 2863POPC   D2A37480   6.977  27.609   8.308
 2863POPC   C3A37481   7.215  27.495   7.943
 2863POPC   C4A37482   7.627  27.338   7.759
 2863POPC   C1B37483   7.690  27.778   8.733
 2863POPC   C2B37484   7.594  27.588   8.381
 2863POPC   C3B37485   7.654  27.751   8.047
 2863POPC   C4B37486   7.491  27.869   7.699
 2864POPC   NC337487  13.365  35.747   9.418
 2864POPC   PO437488  13.381  35.037   9.537
 2864POPC   GL137489  13.596  35.091   9.168
 2864POPC   GL237490  13.729  35.429   9.145
 2864POPC   C1A37491  13.433  35.015   8.766
 2864POPC   D2A37492  13.568  35.083   8.356
 2864POPC   C3A37493  13.326  35.089   8.029
 2864POPC   C4A37494  13.448  35.192   7.622
 2864POPC   C1B37495  13.649  35.644   8.750
 2864POPC   C2B37496  13.779  35.548   8.332
 2864POPC   C3B37497  13.866  35.620   7.908
 2864POPC   C4B37498  13.966  35.708   7.476
 2865POPC   NC337499  26.060  39.940   9.661
 2865POPC   PO437500  25.770  40.482   9.385
 2865POPC   GL137501  26.026  40.197   9.132
 2865POPC   GL237502  25.958  39.864   9.144
 2865POPC   C1A37503  25.864  40.183   8.688
 2865POPC   D2A37504  25.763  39.956   8.313
 2865POPC   C3A37505  25.825  40.158   7.991
 2865POPC   C4A37506  26.119  40.178   7.703
 2865POPC   C1B37507  26.224  39.845   8.770
 2865POPC   C2B37508  26.289  40.011   8.356
 2865POPC   C3B37509  26.238  39.783   7.989
 2865POPC   C4B37510  25.831  39.693   7.822
 2866POPC   NC337511  42.293   1.774   9.860
 2866POPC   PO437512  42.056   2.323   9.455
 2866POPC   GL137513  42.246   1.902   9.278
 2866POPC   GL237514  42.630   1.862   9.268
 2866POPC   C1A37515  42.210   1.861   8.828
 2866POPC   D2A37516  42.023   2.078   8.479
 2866POPC   C3A37517  42.137   1.875   8.103
 2866POPC   C4A37518  42.124   1.831   7.687
 2866POPC   C1B37519  42.727   1.826   8.826
 2866POPC   C2B37520  42.590   1.763   8.431
 2866POPC   C3B37521  42.616   1.643   8.041
 2866POPC   C4B37522  42.625   1.903   7.729
 2867POPC   NC337523  28.554   8.406   9.364
 2867POPC   PO437524  28.053   8.058   9.532
 2867POPC   GL137525  28.305   8.015   9.173
 2867POPC   GL237526  28.644   7.894   9.218
 2867POPC   C1A37527  28.311   8.237   8.769
 2867POPC   D2A37528  28.530   8.472   8.455
 2867POPC   C3A37529  28.361   8.378   8.036
 2867POPC   C4A37530  28.281   8.366   7.581
 2867POPC   C1B37531  28.549   7.797   8.775
 2867POPC   C2B37532  28.610   7.965   8.367
 2867POPC   C3B37533  28.429   7.853   7.966
 2867POPC   C4B37534  28.434   7.903   7.491
 2868POPC   NC337535   5.203  27.020   9.883
 2868POPC   PO437536   5.034  27.650   9.581
 2868POPC   GL137537   5.021  27.746   9.107
 2868POPC   GL237538   4.734  27.932   9.009
 2868POPC   C1A37539   5.147  27.697   8.642
 2868POPC   D2A37540   5.130  27.827   8.180
 2868POPC   C3A37541   5.114  27.491   7.828
 2868POPC   C4A37542   5.180  27.362   7.377
 2868POPC   C1B37543   4.636  27.740   8.593
 2868POPC   C2B37544   4.684  27.546   8.164
 2868POPC   C3B37545   4.704  27.802   7.776
 2868POPC   C4B37546   4.708  27.704   7.324
 2869POPC   NC337547   0.284  37.784  10.210
 2869POPC   PO437548   0.501  37.816   9.562
 2869POPC   GL137549   0.510  37.836   9.117
 2869POPC   GL237550   0.246  38.056   9.097
 2869POPC   C1A37551   0.531  37.571   8.737
 2869POPC   D2A37552   0.581  37.723   8.312
 2869POPC   C3A37553   0.438  37.566   7.931
 2869POPC   C4A37554   0.222  37.416   7.595
 2869POPC   C1B37555   0.304  38.031   8.652
 2869POPC   C2B37556   0.102  37.885   8.276
 2869POPC   C3B37557  44.990  37.847   7.871
 2869POPC   C4B37558  44.778  38.082   7.554
 2870POPC   NC337559  44.430  10.855   9.475
 2870POPC   PO437560  44.927  10.426   9.674
 2870POPC   GL137561  44.714  10.452   9.279
 2870POPC   GL237562  44.748  10.775   9.118
 2870POPC   C1A37563  44.786  10.313   8.846
 2870POPC   D2A37564  44.534  10.137   8.525
 2870POPC   C3A37565  44.642  10.139   8.070
 2870POPC   C4A37566  44.807  10.322   7.692
 2870POPC   C1B37567  44.482  10.687   8.760
 2870POPC   C2B37568  44.646  10.609   8.357
 2870POPC   C3B37569  44.494  10.636   7.942
 2870POPC   C4B37570  44.335  10.993   7.721
 2871POPC   NC337571  27.020  22.474   9.431
 2871POPC   PO437572  26.502  21.949   9.429
 2871POPC   GL137573  26.791  22.119   9.101
 2871POPC   GL237574  26.805  22.448   8.974
 2871POPC   C1A37575  26.929  21.949   8.724
 2871POPC   D2A37576  26.899  22.081   8.287
 2871POPC   C3A37577  26.810  21.835   7.923
 2871POPC   C4A37578  26.947  21.944   7.488
 2871POPC   C1B37579  26.607  22.400   8.570
 2871POPC   C2B37580  26.813  22.574   8.187
 2871POPC   C3B37581  26.919  22.367   7.784
 2871POPC   C4B37582  26.777  22.400   7.320
 2872POPC   NC337583   2.340  28.273   9.385
 2872POPC   PO437584   1.660  28.199   9.394
 2872POPC   GL137585   1.899  28.396   9.110
 2872POPC   GL237586   2.085  28.163   8.981
 2872POPC   C1A37587   1.761  28.393   8.683
 2872POPC   D2A37588   1.936  28.429   8.324
 2872POPC   C3A37589   1.704  28.327   7.996
 2872POPC   C4A37590   1.903  28.275   7.641
 2872POPC   C1B37591   2.423  28.125   8.748
 2872POPC   C2B37592   2.312  27.966   8.394
 2872POPC   C3B37593   2.177  28.072   8.044
 2872POPC   C4B37594   2.360  28.010   7.695
 2873POPC   NC337595  26.281  33.196   9.652
 2873POPC   PO437596  25.805  32.884   9.356
 2873POPC   GL137597  26.033  33.163   9.103
 2873POPC   GL237598  26.284  33.394   9.166
 2873POPC   C1A37599  25.935  33.150   8.682
 2873POPC   D2A37600  25.682  32.924   8.406
 2873POPC   C3A37601  25.966  32.781   8.139
 2873POPC   C4A37602  25.966  33.014   7.801
 2873POPC   C1B37603  26.380  33.421   8.738
 2873POPC   C2B37604  26.293  33.226   8.297
 2873POPC   C3B37605  26.369  33.327   7.842
 2873POPC   C4B37606  26.325  33.077   7.443
 2874POPC   NC337607  22.951  11.221   9.736
 2874POPC   PO437608  23.405  11.589   9.364
 2874POPC   GL137609  22.949  11.410   9.262
 2874POPC   GL237610  23.092  11.503   8.953
 2874POPC   C1A37611  22.719  11.192   8.929
 2874POPC   D2A37612  22.835  11.356   8.519
 2874POPC   C3A37613  22.596  11.373   8.156
 2874POPC   C4A37614  22.745  11.580   7.796
 2874POPC   C1B37615  23.252  11.132   8.706
 2874POPC   C2B37616  23.152  11.005   8.313
 2874POPC   C3B37617  23.103  11.275   7.974
 2874POPC   C4B37618  23.351  11.237   7.602
 2875POPC   NC337619  35.841   0.438   9.857
 2875POPC   PO437620  36.411   0.442   9.493
 2875POPC   GL137621  36.319   0.319   9.111
 2875POPC   GL237622  36.432  44.956   9.123
 2875POPC   C1A37623  36.069   0.471   8.770
 2875POPC   D2A37624  35.813   0.462   8.382
 2875POPC   C3A37625  35.887   0.241   8.051
 2875POPC   C4A37626  35.804   0.502   7.689
 2875POPC   C1B37627  36.489   0.084   8.690
 2875POPC   C2B37628  36.309   0.312   8.351
 2875POPC   C3B37629  36.229   0.613   8.031
 2875POPC   C4B37630  36.294   0.329   7.715
 2876POPC   NC337631  15.657  22.213   9.439
 2876POPC   PO437632  16.320  22.015   9.573
 2876POPC   GL137633  16.111  22.289   9.221
 2876POPC   GL237634  16.036  22.005   9.040
 2876POPC   C1A37635  15.909  22.383   8.771
 2876POPC   D2A37636  16.078  22.099   8.446
 2876POPC   C3A37637  15.886  22.184   8.050
 2876POPC   C4A37638  15.832  22.360   7.674
 2876POPC   C1B37639  15.833  21.739   8.698
 2876POPC   C2B37640  15.882  21.612   8.288
 2876POPC   C3B37641  15.568  21.669   7.995
 2876POPC   C4B37642  15.392  21.852   7.630
 2877POPC   NC337643  39.561  12.906  10.023
 2877POPC   PO437644  39.946  13.234   9.635
 2877POPC   GL137645  40.050  13.050   9.200
 2877POPC   GL237646  39.724  13.103   9.083
 2877POPC   C1A37647  40.134  12.833   8.760
 2877POPC   D2A37648  40.286  12.756   8.308
 2877POPC   C3A37649  40.039  12.773   7.916
 2877POPC   C4A37650  40.112  12.771   7.435
 2877POPC   C1B37651  39.918  13.292   8.752
 2877POPC   C2B37652  39.918  13.098   8.361
 2877POPC   C3B37653  39.781  13.248   7.999
 2877POPC   C4B37654  39.740  13.071   7.607
 2878POPC   NC337655  14.791  32.876   9.486
 2878POPC   PO437656  15.492  33.196   9.538
 2878POPC   GL137657  15.445  33.034   9.132
 2878POPC   GL237658  15.286  32.702   9.152
 2878POPC   C1A37659  15.514  32.881   8.714
 2878POPC   D2A37660  15.209  32.827   8.393
 2878POPC   C3A37661  15.285  33.012   8.055
 2878POPC   C4A37662  15.451  32.894   7.708
 2878POPC   C1B37663  14.995  32.920   8.840
 2878POPC   C2B37664  14.742  33.005   8.426
 2878POPC   C3B37665  14.794  33.163   8.011
 2878POPC   C4B37666  14.937  32.799   7.765
 2879POPC   NC337667  10.712  23.681   9.852
 2879POPC   PO437668  11.337  23.632   9.624
 2879POPC   GL137669  11.345  23.680   9.194
 2879POPC   GL237670  10.995  23.704   9.190
 2879POPC   C1A37671  11.427  23.622   8.752
 2879POPC   D2A37672  11.519  23.937   8.440
 2879POPC   C3A37673  11.479  23.817   8.039
 2879POPC   C4A37674  11.579  23.820   7.623
 2879POPC   C1B37675  11.084  24.014   8.856
 2879POPC   C2B37676  11.035  24.049   8.441
 2879POPC   C3B37677  10.984  24.028   8.061
 2879POPC   C4B37678  11.059  23.745   7.732
 2880POPC   NC337679   5.083  38.380   9.728
 2880POPC   PO437680   5.469  38.591   9.218
 2880POPC   GL137681   5.217  38.392   8.944
 2880POPC   GL237682   4.856  38.405   9.001
 2880POPC   C1A37683   5.029  38.424   8.532
 2880POPC   D2A37684   5.044  38.699   8.221
 2880POPC   C3A37685   5.422  38.530   8.102
 2880POPC   C4A37686   5.500  38.485   7.707
 2880POPC   C1B37687   4.668  38.091   8.663
 2880POPC   C2B37688   4.908  37.947   8.286
 2880POPC   C3B37689   5.026  38.229   7.938
 2880POPC   C4B37690   5.060  38.184   7.451
 2881POPC   NC337691  42.107  30.380   9.485
 2881POPC   PO437692  42.487  30.906   9.633
 2881POPC   GL137693  42.459  30.677   9.245
 2881POPC   GL237694  42.574  30.948   9.061
 2881POPC   C1A37695  42.323  30.547   8.813
 2881POPC   D2A37696  42.166  30.751   8.462
 2881POPC   C3A37697  42.133  30.591   8.045
 2881POPC   C4A37698  42.437  30.437   7.762
 2881POPC   C1B37699  42.693  30.895   8.628
 2881POPC   C2B37700  42.534  31.048   8.229
 2881POPC   C3B37701  42.438  30.970   7.798
 2881POPC   C4B37702  42.658  30.976   7.383
 2882POPC   NC337703   3.961  13.440   9.479
 2882POPC   PO437704   3.255  13.370   9.451
 2882POPC   GL137705   3.542  13.518   9.187
 2882POPC   GL237706   3.701  13.217   9.073
 2882POPC   C1A37707   3.701  13.684   8.808
 2882POPC   D2A37708   3.480  13.741   8.437
 2882POPC   C3A37709   3.697  13.716   8.048
 2882POPC   C4A37710   3.636  13.759   7.624
 2882POPC   C1B37711   3.304  13.295   8.805
 2882POPC   C2B37712   3.110  13.369   8.413
 2882POPC   C3B37713   3.297  13.424   8.065
 2882POPC   C4B37714   3.652  13.242   7.848
 2883POPC   NC337715   3.190  40.291   9.307
 2883POPC   PO437716   3.722  39.966   9.489
 2883POPC   GL137717   3.694  40.080   9.087
 2883POPC   GL237718   3.383  39.923   9.031
 2883POPC   C1A37719   3.742  39.911   8.670
 2883POPC   D2A37720   3.626  40.154   8.279
 2883POPC   C3A37721   3.735  40.050   7.881
 2883POPC   C4A37722   3.533  40.198   7.501
 2883POPC   C1B37723   3.253  40.003   8.635
 2883POPC   C2B37724   3.334  39.734   8.348
 2883POPC   C3B37725   3.298  39.829   7.933
 2883POPC   C4B37726   3.563  39.666   7.598
 2884POPC   NC337727  39.091  26.310   9.502
 2884POPC   PO437728  39.704  26.077   9.520
 2884POPC   GL137729  39.581  26.225   9.134
 2884POPC   GL237730  39.299  25.997   9.140
 2884POPC   C1A37731  39.504  26.088   8.698
 2884POPC   D2A37732  39.336  26.274   8.330
 2884POPC   C3A37733  39.462  26.064   7.960
 2884POPC   C4A37734  39.290  25.717   7.715
 2884POPC   C1B37735  38.980  26.048   8.815
 2884POPC   C2B37736  38.796  26.054   8.414
 2884POPC   C3B37737  38.932  26.002   7.988
 2884POPC   C4B37738  38.832  26.220   7.614
 2885POPC   NC337739  34.411  13.794   9.638
 2885POPC   PO437740  34.731  13.272   9.711
 2885POPC   GL137741  34.513  13.498   9.241
 2885POPC   GL237742  34.319  13.764   9.133
 2885POPC   C1A37743  34.551  13.592   8.730
 2885POPC   D2A37744  34.751  13.840   8.358
 2885POPC   C3A37745  34.757  13.661   7.916
 2885POPC   C4A37746  34.466  13.340   7.735
 2885POPC   C1B37747  34.067  13.765   8.746
 2885POPC   C2B37748  34.240  13.832   8.354
 2885POPC   C3B37749  34.277  13.865   7.904
 2885POPC   C4B37750  34.215  13.860   7.459
 2886POPC   NC337751   7.614  11.764   9.421
 2886POPC   PO437752   8.256  12.060   9.556
 2886POPC   GL137753   8.064  12.106   9.206
 2886POPC   GL237754   8.024  11.800   9.125
 2886POPC   C1A37755   8.164  12.186   8.799
 2886POPC   D2A37756   8.091  12.414   8.439
 2886POPC   C3A37757   8.287  12.303   8.083
 2886POPC   C4A37758   8.109  12.224   7.719
 2886POPC   C1B37759   8.098  11.653   8.744
 2886POPC   C2B37760   8.239  11.850   8.411
 2886POPC   C3B37761   8.069  11.828   8.053
 2886POPC   C4B37762   8.087  11.723   7.645
 2887POPC   NC337763  23.322  43.154   9.382
 2887POPC   PO437764  23.878  43.541   9.389
 2887POPC   GL137765  23.790  43.285   9.056
 2887POPC   GL237766  23.695  42.936   9.114
 2887POPC   C1A37767  23.543  43.313   8.693
 2887POPC   D2A37768  23.462  43.127   8.308
 2887POPC   C3A37769  23.810  43.204   8.056
 2887POPC   C4A37770  23.882  43.596   7.832
 2887POPC   C1B37771  23.713  42.826   8.685
 2887POPC   C2B37772  23.946  42.751   8.327
 2887POPC   C3B37773  23.656  42.656   8.043
 2887POPC   C4B37774  23.633  42.809   7.680
 2888POPC   NC337775  37.829  24.843   9.613
 2888POPC   PO437776  37.328  25.280   9.576
 2888POPC   GL137777  37.596  25.318   9.211
 2888POPC   GL237778  37.925  25.195   9.210
 2888POPC   C1A37779  37.612  25.152   8.805
 2888POPC   D2A37780  37.584  25.363   8.432
 2888POPC   C3A37781  37.384  25.144   8.113
 2888POPC   C4A37782  37.340  25.427   7.837
 2888POPC   C1B37783  38.048  25.437   8.825
 2888POPC   C2B37784  38.104  25.463   8.389
 2888POPC   C3B37785  37.945  25.222   8.060
 2888POPC   C4B37786  37.726  25.054   7.712
 2889POPC   NC337787  24.002   0.485   9.521
 2889POPC   PO437788  23.349   0.133   9.654
 2889POPC   GL137789  23.566   0.380   9.286
 2889POPC   GL237790  23.484   0.743   9.228
 2889POPC   C1A37791  23.701   0.376   8.840
 2889POPC   D2A37792  23.394   0.288   8.505
 2889POPC   C3A37793  23.617   0.263   8.124
 2889POPC   C4A37794  23.793   0.062   7.792
 2889POPC   C1B37795  23.717   0.876   8.823
 2889POPC   C2B37796  23.635   0.734   8.439
 2889POPC   C3B37797  23.774   0.766   8.070
 2889POPC   C4B37798  23.776   0.594   7.722
 2890POPC   NC337799   3.204  40.913   9.652
 2890POPC   PO437800   3.819  40.692   9.442
 2890POPC   GL137801   3.564  40.628   9.117
 2890POPC   GL237802   3.462  40.975   9.198
 2890POPC   C1A37803   3.549  40.436   8.705
 2890POPC   D2A37804   3.233  40.506   8.345
 2890POPC   C3A37805   3.403  40.504   7.916
 2890POPC   C4A37806   3.833  40.520   7.790
 2890POPC   C1B37807   3.715  41.051   8.835
 2890POPC   C2B37808   3.659  41.162   8.420
 2890POPC   C3B37809   3.600  40.987   8.028
 2890POPC   C4B37810   3.781  40.981   7.638
 2891POPC   NC337811  44.508  14.842   9.518
 2891POPC   PO437812  44.956  15.224   9.554
 2891POPC   GL137813  44.699  15.215   9.199
 2891POPC   GL237814  44.883  14.904   9.136
 2891POPC   C1A37815  44.535  15.085   8.785
 2891POPC   D2A37816  44.707  15.005   8.373
 2891POPC   C3A37817  44.535  15.278   8.070
 2891POPC   C4A37818  44.709  15.300   7.662
 2891POPC   C1B37819   0.079  15.072   8.775
 2891POPC   C2B37820   0.130  15.379   8.444
 2891POPC   C3B37821   0.025  15.348   8.057
 2891POPC   C4B37822   0.145  15.548   7.687
 2892POPC   NC337823   8.551   4.038   9.559
 2892POPC   PO437824   8.140   4.627   9.464
 2892POPC   GL137825   8.387   4.357   9.164
 2892POPC   GL237826   8.316   3.982   9.141
 2892POPC   C1A37827   8.179   4.232   8.755
 2892POPC   D2A37828   7.972   4.122   8.400
 2892POPC   C3A37829   7.879   4.277   8.038
 2892POPC   C4A37830   8.060   4.318   7.647
 2892POPC   C1B37831   8.522   3.834   8.788
 2892POPC   C2B37832   8.502   4.081   8.397
 2892POPC   C3B37833   8.376   4.113   7.993
 2892POPC   C4B37834   8.337   3.807   7.666
 2893POPC   NC337835  44.160  39.745   9.492
 2893POPC   PO437836  43.579  40.183   9.455
 2893POPC   GL137837  43.893  40.066   9.157
 2893POPC   GL237838  43.940  39.742   9.046
 2893POPC   C1A37839  44.017  40.167   8.736
 2893POPC   D2A37840  44.184  40.425   8.410
 2893POPC   C3A37841  44.069  40.249   8.021
 2893POPC   C4A37842  43.737  40.188   7.709
 2893POPC   C1B37843  43.733  39.704   8.667
 2893POPC   C2B37844  43.992  39.684   8.318
 2893POPC   C3B37845  43.829  39.748   7.932
 2893POPC   C4B37846  43.555  39.677   7.578
 2894POPC   NC337847  24.250  30.171   9.797
 2894POPC   PO437848  24.667  29.739   9.398
 2894POPC   GL137849  24.705  29.661   9.009
 2894POPC   GL237850  24.332  29.561   9.046
 2894POPC   C1A37851  24.699  30.023   8.711
 2894POPC   D2A37852  24.472  30.140   8.331
 2894POPC   C3A37853  24.680  30.041   7.911
 2894POPC   C4A37854  24.553  30.126   7.459
 2894POPC   C1B37855  24.384  29.634   8.619
 2894POPC   C2B37856  24.716  29.683   8.331
 2894POPC   C3B37857  24.631  29.508   7.966
 2894POPC   C4B37858  24.497  29.654   7.608
 2895POPC   NC337859   7.399  36.524   9.614
 2895POPC   PO437860   7.913  36.745   9.318
 2895POPC   GL137861   7.670  36.997   9.034
 2895POPC   GL237862   7.305  37.077   9.055
 2895POPC   C1A37863   7.619  37.118   8.622
 2895POPC   D2A37864   7.478  36.854   8.305
 2895POPC   C3A37865   7.671  36.920   7.931
 2895POPC   C4A37866   7.661  36.918   7.512
 2895POPC   C1B37867   7.086  36.972   8.626
 2895POPC   C2B37868   7.015  37.018   8.150
 2895POPC   C3B37869   7.186  36.913   7.752
 2895POPC   C4B37870   7.213  36.864   7.260
 2896POPC   NC337871   8.005  17.768   9.528
 2896POPC   PO437872   8.080  17.077   9.461
 2896POPC   GL137873   8.257  17.263   9.103
 2896POPC   GL237874   8.252  17.626   9.109
 2896POPC   C1A37875   8.256  17.387   8.659
 2896POPC   D2A37876   7.943  17.495   8.315
 2896POPC   C3A37877   8.175  17.391   7.964
 2896POPC   C4A37878   8.267  17.400   7.525
 2896POPC   C1B37879   8.087  17.841   8.749
 2896POPC   C2B37880   8.283  17.860   8.333
 2896POPC   C3B37881   8.076  17.928   7.943
 2896POPC   C4B37882   8.169  17.943   7.510
 2897POPC   NC337883  30.243  36.784   9.534
 2897POPC   PO437884  29.553  36.862   9.528
 2897POPC   GL137885  29.683  36.985   9.149
 2897POPC   GL237886  29.978  37.205   9.145
 2897POPC   C1A37887  29.522  36.996   8.749
 2897POPC   D2A37888  29.553  37.202   8.355
 2897POPC   C3A37889  29.618  36.987   7.959
 2897POPC   C4A37890  29.762  37.141   7.567
 2897POPC   C1B37891  29.989  37.165   8.688
 2897POPC   C2B37892  29.976  36.885   8.334
 2897POPC   C3B37893  30.254  36.864   7.970
 2897POPC   C4B37894  30.276  37.067   7.577
 2898POPC   NC337895   8.900  28.206   9.499
 2898POPC   PO437896   8.957  28.877   9.483
 2898POPC   GL137897   9.075  28.606   9.108
 2898POPC   GL237898   9.157  28.232   9.067
 2898POPC   C1A37899   8.876  28.467   8.710
 2898POPC   D2A37900   8.701  28.625   8.325
 2898POPC   C3A37901   9.031  28.668   8.021
 2898POPC   C4A37902   9.079  28.474   7.618
 2898POPC   C1B37903   9.170  28.002   8.672
 2898POPC   C2B37904   8.938  28.118   8.279
 2898POPC   C3B37905   8.971  28.012   7.840
 2898POPC   C4B37906   8.872  28.075   7.393
 2899POPC   NC337907  10.930  18.974   9.374
 2899POPC   PO437908  11.443  19.314   9.440
 2899POPC   GL137909  11.386  19.112   9.082
 2899POPC   GL237910  11.345  18.757   9.184
 2899POPC   C1A37911  11.067  19.137   8.761
 2899POPC   D2A37912  10.977  18.974   8.375
 2899POPC   C3A37913  11.246  19.188   8.120
 2899POPC   C4A37914  11.069  19.285   7.727
 2899POPC   C1B37915  11.391  18.715   8.755
 2899POPC   C2B37916  11.349  18.614   8.347
 2899POPC   C3B37917  11.560  18.704   7.998
 2899POPC   C4B37918  11.503  18.975   7.690
 2900POPC   NC337919  11.458  27.998   9.582
 2900POPC   PO437920  11.231  28.596   9.787
 2900POPC   GL137921  11.248  28.469   9.318
 2900POPC   GL237922  11.437  28.732   9.119
 2900POPC   C1A37923  11.222  28.197   8.927
 2900POPC   D2A37924  11.446  27.946   8.590
 2900POPC   C3A37925  11.494  28.176   8.168
 2900POPC   C4A37926  11.419  28.229   7.710
 2900POPC   C1B37927  11.216  28.704   8.693
 2900POPC   C2B37928  11.144  28.611   8.222
 2900POPC   C3B37929  11.272  28.747   7.799
 2900POPC   C4B37930  11.461  28.615   7.386
 2901POPC   NC337931   3.936   2.458   9.618
 2901POPC   PO437932   4.255   3.089   9.565
 2901POPC   GL137933   4.378   2.926   9.165
 2901POPC   GL237934   4.284   2.600   9.258
 2901POPC   C1A37935   4.176   2.777   8.767
 2901POPC   D2A37936   3.925   2.674   8.396
 2901POPC   C3A37937   4.188   2.717   8.052
 2901POPC   C4A37938   4.087   2.863   7.668
 2901POPC   C1B37939   4.488   2.414   8.936
 2901POPC   C2B37940   4.500   2.445   8.486
 2901POPC   C3B37941   4.661   2.502   8.072
 2901POPC   C4B37942   4.587   2.697   7.662
 2902POPC   NC337943   3.775   4.104   9.334
 2902POPC   PO437944   3.336   4.558   9.579
 2902POPC   GL137945   3.465   4.467   9.178
 2902POPC   GL237946   3.333   4.115   9.104
 2902POPC   C1A37947   3.599   4.423   8.777
 2902POPC   D2A37948   3.494   4.544   8.408
 2902POPC   C3A37949   3.645   4.371   8.048
 2902POPC   C4A37950   3.699   4.428   7.612
 2902POPC   C1B37951   3.455   3.933   8.651
 2902POPC   C2B37952   3.478   3.902   8.158
 2902POPC   C3B37953   3.712   3.935   7.734
 2902POPC   C4B37954   3.844   3.751   7.318
 2903POPC   NC337955  16.934  39.126   9.577
 2903POPC   PO437956  17.634  39.170   9.632
 2903POPC   GL137957  17.370  39.276   9.287
 2903POPC   GL237958  17.316  38.960   9.216
 2903POPC   C1A37959  17.344  39.301   8.840
 2903POPC   D2A37960  17.429  39.116   8.439
 2903POPC   C3A37961  17.434  39.278   8.026
 2903POPC   C4A37962  17.834  39.280   7.810
 2903POPC   C1B37963  17.176  38.805   8.792
 2903POPC   C2B37964  17.048  38.796   8.361
 2903POPC   C3B37965  17.194  38.834   7.924
 2903POPC   C4B37966  17.531  38.939   7.644
 2904POPC   NC337967  41.551  16.427   9.436
 2904POPC   PO437968  41.836  17.072   9.489
 2904POPC   GL137969  41.684  16.843   9.163
 2904POPC   GL237970  41.982  16.771   9.026
 2904POPC   C1A37971  41.594  16.923   8.731
 2904POPC   D2A37972  41.345  16.950   8.380
 2904POPC   C3A37973  41.589  16.862   8.010
 2904POPC   C4A37974  41.440  16.847   7.598
 2904POPC   C1B37975  41.866  16.464   8.741
 2904POPC   C2B37976  41.578  16.482   8.413
 2904POPC   C3B37977  41.502  16.313   8.026
 2904POPC   C4B37978  41.712  16.427   7.653
 2905POPC   NC337979  23.386  15.438   9.475
 2905POPC   PO437980  23.917  15.066   9.572
 2905POPC   GL137981  23.836  15.305   9.202
 2905POPC   GL237982  23.511  15.191   9.056
 2905POPC   C1A37983  23.914  15.323   8.760
 2905POPC   D2A37984  23.709  15.196   8.390
 2905POPC   C3A37985  23.894  15.275   8.027
 2905POPC   C4A37986  23.833  15.238   7.608
 2905POPC   C1B37987  23.426  15.516   8.740
 2905POPC   C2B37988  23.452  15.632   8.287
 2905POPC   C3B37989  23.419  15.414   7.882
 2905POPC   C4B37990  23.153  15.163   7.646
 2906POPC   NC337991  11.851   7.473   9.493
 2906POPC   PO437992  12.511   7.491   9.427
 2906POPC   GL137993  12.287   7.585   9.083
 2906POPC   GL237994  12.045   7.312   9.059
 2906POPC   C1A37995  12.295   7.443   8.655
 2906POPC   D2A37996  12.005   7.528   8.349
 2906POPC   C3A37997  12.170   7.545   7.992
 2906POPC   C4A37998  12.137   7.831   7.701
 2906POPC   C1B37999  11.825   7.191   8.671
 2906POPC   C2B38000  11.594   7.035   8.322
 2906POPC   C3B38001  11.724   6.905   7.894
 2906POPC   C4B38002  12.013   7.186   7.673
 2907POPC   NC338003  25.173  16.779   9.483
 2907POPC   PO438004  25.618  17.139   9.427
 2907POPC   GL138005  25.214  17.126   9.098
 2907POPC   GL238006  25.043  16.749   9.006
 2907POPC   C1A38007  24.963  17.116   8.688
 2907POPC   D2A38008  25.046  16.746   8.410
 2907POPC   C3A38009  25.244  16.828   8.010
 2907POPC   C4A38010  25.108  16.758   7.583
 2907POPC   C1B38011  25.301  16.444   8.746
 2907POPC   C2B38012  25.258  16.253   8.310
 2907POPC   C3B38013  25.203  16.326   7.851
 2907POPC   C4B38014  25.384  16.361   7.407
 2908POPC   NC338015  34.702  27.424   9.744
 2908POPC   PO438016  34.233  27.839   9.440
 2908POPC   GL138017  34.375  27.546   9.150
 2908POPC   GL238018  34.227  27.235   9.297
 2908POPC   C1A38019  34.558  27.600   8.715
 2908POPC   D2A38020  34.513  27.859   8.314
 2908POPC   C3A38021  34.706  27.769   7.932
 2908POPC   C4A38022  34.878  27.680   7.513
 2908POPC   C1B38023  34.146  27.217   8.846
 2908POPC   C2B38024  34.259  27.082   8.427
 2908POPC   C3B38025  34.132  27.208   8.021
 2908POPC   C4B38026  34.320  27.481   7.720
 2909POPC   NC338027  38.587  24.043   9.925
 2909POPC   PO438028  38.239  24.605   9.569
 2909POPC   GL138029  38.374  24.599   9.151
 2909POPC   GL238030  38.056  24.711   9.093
 2909POPC   C1A38031  38.304  24.428   8.720
 2909POPC   D2A38032  38.455  24.112   8.432
 2909POPC   C3A38033  38.555  24.254   8.036
 2909POPC   C4A38034  38.192  24.381   7.819
 2909POPC   C1B38035  38.110  24.928   8.689
 2909POPC   C2B38036  38.244  24.790   8.271
 2909POPC   C3B38037  38.262  24.880   7.813
 2909POPC   C4B38038  38.309  24.960   7.349
 2910POPC   NC338039   7.487  30.475   9.376
 2910POPC   PO438040   7.220  31.118   9.520
 2910POPC   GL138041   7.205  30.860   9.153
 2910POPC   GL238042   7.544  30.820   8.986
 2910POPC   C1A38043   7.106  30.716   8.724
 2910POPC   D2A38044   7.256  30.870   8.358
 2910POPC   C3A38045   7.176  30.609   8.016
 2910POPC   C4A38046   7.317  30.766   7.640
 2910POPC   C1B38047   7.564  30.521   8.602
 2910POPC   C2B38048   7.682  30.621   8.170
 2910POPC   C3B38049   7.779  30.525   7.766
 2910POPC   C4B38050   7.859  30.243   7.415
 2911POPC   NC338051   7.933   3.283   9.492
 2911POPC   PO438052   8.451   2.761   9.481
 2911POPC   GL138053   8.303   2.851   9.065
 2911POPC   GL238054   8.528   3.094   8.964
 2911POPC   C1A38055   7.982   2.719   8.749
 2911POPC   D2A38056   8.001   2.506   8.380
 2911POPC   C3A38057   8.010   2.741   8.014
 2911POPC   C4A38058   8.289   2.827   7.704
 2911POPC   C1B38059   8.396   3.304   8.631
 2911POPC   C2B38060   8.245   2.990   8.392
 2911POPC   C3B38061   8.505   2.712   8.178
 2911POPC   C4B38062   8.801   2.895   7.889
 2912POPC   NC338063  15.040  13.199   9.499
 2912POPC   PO438064  15.453  12.635   9.399
 2912POPC   GL138065  15.218  12.832   9.093
 2912POPC   GL238066  14.861  12.902   9.103
 2912POPC   C1A38067  15.359  12.811   8.693
 2912POPC   D2A38068  15.382  12.612   8.318
 2912POPC   C3A38069  15.475  12.922   8.015
 2912POPC   C4A38070  15.409  12.684   7.663
 2912POPC   C1B38071  14.888  13.024   8.696
 2912POPC   C2B38072  15.068  13.017   8.304
 2912POPC   C3B38073  14.981  12.878   7.897
 2912POPC   C4B38074  14.787  13.139   7.628
 2913POPC   NC338075  21.934  29.395   9.533
 2913POPC   PO438076  22.447  28.934   9.438
 2913POPC   GL138077  22.200  29.102   9.117
 2913POPC   GL238078  22.255  29.449   9.129
 2913POPC   C1A38079  21.969  29.028   8.730
 2913POPC   D2A38080  21.983  28.821   8.332
 2913POPC   C3A38081  22.025  29.032   7.946
 2913POPC   C4A38082  22.282  28.947   7.610
 2913POPC   C1B38083  22.199  29.497   8.714
 2913POPC   C2B38084  21.971  29.392   8.327
 2913POPC   C3B38085  21.979  29.555   7.885
 2913POPC   C4B38086  22.089  29.536   7.408
 2914POPC   NC338087   0.575   9.269   9.187
 2914POPC   PO438088   0.008   8.975   9.516
 2914POPC   GL138089   0.208   8.873   9.153
 2914POPC   GL238090   0.462   8.620   9.182
 2914POPC   C1A38091   0.218   8.861   8.718
 2914POPC   D2A38092   0.212   8.828   8.265
 2914POPC   C3A38093   0.535   9.085   8.153
 2914POPC   C4A38094   0.571   9.131   7.766
 2914POPC   C1B38095   0.672   8.593   8.785
 2914POPC   C2B38096   0.717   8.623   8.333
 2914POPC   C3B38097   0.723   8.639   7.869
 2914POPC   C4B38098   0.301   8.695   7.687
 2915POPC   NC338099   5.255  14.871   9.733
 2915POPC   PO438100   4.845  15.371   9.561
 2915POPC   GL138101   4.956  15.324   9.146
 2915POPC   GL238102   5.136  15.036   9.245
 2915POPC   C1A38103   4.922  15.216   8.704
 2915POPC   D2A38104   4.749  15.085   8.320
 2915POPC   C3A38105   4.951  15.254   7.950
 2915POPC   C4A38106   5.304  15.485   7.824
 2915POPC   C1B38107   5.226  14.837   8.874
 2915POPC   C2B38108   5.227  14.885   8.431
 2915POPC   C3B38109   5.419  14.714   8.065
 2915POPC   C4B38110   5.366  14.939   7.707
 2916POPC   NC338111  10.427  39.971   9.548
 2916POPC   PO438112  10.140  40.577   9.367
 2916POPC   GL138113  10.563  40.323   9.184
 2916POPC   GL238114  10.735  39.929   9.168
 2916POPC   C1A38115  10.804  40.259   8.796
 2916POPC   D2A38116  10.632  40.197   8.414
 2916POPC   C3A38117  10.730  40.312   8.028
 2916POPC   C4A38118  10.581  40.078   7.703
 2916POPC   C1B38119  10.594  39.757   8.807
 2916POPC   C2B38120  10.378  39.759   8.461
 2916POPC   C3B38121  10.586  39.700   8.075
 2916POPC   C4B38122  10.379  39.542   7.742
 2917POPC   NC338123  24.316  43.366   9.334
 2917POPC   PO438124  24.340  42.725   9.380
 2917POPC   GL138125  24.211  42.946   9.035
 2917POPC   GL238126  24.557  43.004   8.917
 2917POPC   C1A38127  24.115  43.155   8.656
 2917POPC   D2A38128  24.412  43.078   8.346
 2917POPC   C3A38129  24.307  43.094   7.927
 2917POPC   C4A38130  24.468  43.252   7.538
 2917POPC   C1B38131  24.828  43.229   8.596
 2917POPC   C2B38132  24.757  43.472   8.194
 2917POPC   C3B38133  24.868  43.528   7.750
 2917POPC   C4B38134  24.981  43.278   7.413
 2918POPC   NC338135  27.644  31.200   9.462
 2918POPC   PO438136  27.298  31.732   9.537
 2918POPC   GL138137  27.643  31.648   9.183
 2918POPC   GL238138  27.943  31.861   9.137
 2918POPC   C1A38139  27.788  31.440   8.811
 2918POPC   D2A38140  27.719  31.637   8.400
 2918POPC   C3A38141  27.363  31.629   8.125
 2918POPC   C4A38142  27.453  31.419   7.770
 2918POPC   C1B38143  28.092  31.891   8.718
 2918POPC   C2B38144  28.163  31.805   8.244
 2918POPC   C3B38145  27.936  31.591   7.881
 2918POPC   C4B38146  27.724  31.769   7.485
 2919POPC   NC338147  17.751   8.819   9.406
 2919POPC   PO438148  17.149   8.504   9.490
 2919POPC   GL138149  17.396   8.626   9.084
 2919POPC   GL238150  17.799   8.608   8.940
 2919POPC   C1A38151  17.438   8.764   8.649
 2919POPC   D2A38152  17.692   8.557   8.373
 2919POPC   C3A38153  17.588   8.743   7.997
 2919POPC   C4A38154  17.352   9.001   7.768
 2919POPC   C1B38155  17.947   9.031   8.777
 2919POPC   C2B38156  18.010   9.274   8.404
 2919POPC   C3B38157  17.946   9.111   7.987
 2919POPC   C4B38158  17.743   9.299   7.637
 2920POPC   NC338159  19.124   4.339   9.516
 2920POPC   PO438160  19.545   4.851   9.368
 2920POPC   GL138161  19.287   4.592   9.055
 2920POPC   GL238162  18.924   4.489   9.069
 2920POPC   C1A38163  19.174   4.376   8.624
 2920POPC   D2A38164  19.030   3.985   8.384
 2920POPC   C3A38165  18.724   4.010   8.097
 2920POPC   C4A38166  18.785   4.268   7.756
 2920POPC   C1B38167  18.680   4.545   8.671
 2920POPC   C2B38168  18.857   4.517   8.230
 2920POPC   C3B38169  18.999   4.717   7.836
 2920POPC   C4B38170  18.751   4.713   7.422
 2921POPC   NC338171   1.558   8.374   9.473
 2921POPC   PO438172   2.144   8.006   9.489
 2921POPC   GL138173   2.048   8.113   9.071
 2921POPC   GL238174   1.945   8.449   9.141
 2921POPC   C1A38175   1.926   8.032   8.629
 2921POPC   D2A38176   1.578   7.911   8.338
 2921POPC   C3A38177   1.760   7.960   7.908
 2921POPC   C4A38178   1.942   8.356   7.746
 2921POPC   C1B38179   1.851   8.512   8.718
 2921POPC   C2B38180   2.106   8.478   8.378
 2921POPC   C3B38181   2.336   8.640   8.047
 2921POPC   C4B38182   2.434   8.450   7.673
 2922POPC   NC338183   0.774  33.342  10.018
 2922POPC   PO438184   0.333  32.884   9.645
 2922POPC   GL138185   0.508  33.116   9.261
 2922POPC   GL238186   0.526  32.868   8.985
 2922POPC   C1A38187   0.431  33.361   8.865
 2922POPC   D2A38188   0.649  33.491   8.465
 2922POPC   C3A38189   0.498  33.409   8.031
 2922POPC   C4A38190   0.164  33.455   7.726
 2922POPC   C1B38191   0.678  32.735   8.601
 2922POPC   C2B38192   0.455  32.989   8.318
 2922POPC   C3B38193   0.281  32.932   7.894
 2922POPC   C4B38194   0.354  32.787   7.453
 2923POPC   NC338195  27.057  24.225   9.684
 2923POPC   PO438196  27.658  24.460   9.767
 2923POPC   GL138197  27.468  24.395   9.369
 2923POPC   GL238198  27.775  24.467   9.186
 2923POPC   C1A38199  27.328  24.328   8.917
 2923POPC   D2A38200  27.464  24.250   8.479
 2923POPC   C3A38201  27.583  24.566   8.159
 2923POPC   C4A38202  27.698  24.714   7.725
 2923POPC   C1B38203  27.999  24.562   8.812
 2923POPC   C2B38204  28.018  24.373   8.394
 2923POPC   C3B38205  28.067  24.477   7.961
 2923POPC   C4B38206  28.104  24.476   7.470
 2924POPC   NC338207  28.303  11.733   9.613
 2924POPC   PO438208  28.726  12.222   9.412
 2924POPC   GL138209  28.603  11.920   9.123
 2924POPC   GL238210  28.250  11.914   9.139
 2924POPC   C1A38211  28.543  12.023   8.684
 2924POPC   D2A38212  28.348  12.048   8.281
 2924POPC   C3A38213  28.497  12.217   7.875
 2924POPC   C4A38214  28.626  12.105   7.407
 2924POPC   C1B38215  28.049  11.882   8.742
 2924POPC   C2B38216  27.862  11.894   8.342
 2924POPC   C3B38217  27.983  11.972   7.930
 2924POPC   C4B38218  28.206  11.918   7.595
 2925POPC   NC338219  22.858  10.254   9.655
 2925POPC   PO438220  23.185  10.803   9.606
 2925POPC   GL138221  22.962  10.599   9.236
 2925POPC   GL238222  22.824  10.251   9.149
 2925POPC   C1A38223  22.909  10.739   8.801
 2925POPC   D2A38224  22.604  10.913   8.497
 2925POPC   C3A38225  22.709  10.876   8.056
 2925POPC   C4A38226  23.078  10.801   7.833
 2925POPC   C1B38227  23.003  10.235   8.734
 2925POPC   C2B38228  23.001  10.511   8.350
 2925POPC   C3B38229  23.025  10.318   7.949
 2925POPC   C4B38230  22.662  10.123   7.820
 2926POPC   NC338231  23.975  12.673   9.711
 2926POPC   PO438232  23.741  13.286   9.418
 2926POPC   GL138233  23.703  12.941   9.076
 2926POPC   GL238234  23.360  12.845   8.967
 2926POPC   C1A38235  23.758  12.858   8.657
 2926POPC   D2A38236  23.375  12.883   8.437
 2926POPC   C3A38237  23.411  12.617   8.107
 2926POPC   C4A38238  23.750  12.624   7.846
 2926POPC   C1B38239  23.452  13.273   8.782
 2926POPC   C2B38240  23.625  13.312   8.361
 2926POPC   C3B38241  23.700  13.194   7.945
 2926POPC   C4B38242  23.438  12.976   7.686
 2927POPC   NC338243  38.123  37.194   9.542
 2927POPC   PO438244  37.415  37.309   9.574
 2927POPC   GL138245  37.688  36.989   9.312
 2927POPC   GL238246  37.681  36.622   9.312
 2927POPC   C1A38247  37.912  37.038   8.895
 2927POPC   D2A38248  37.726  36.989   8.457
 2927POPC   C3A38249  37.921  37.062   8.030
 2927POPC   C4A38250  37.773  37.092   7.543
 2927POPC   C1B38251  37.729  36.563   8.851
 2927POPC   C2B38252  37.662  36.488   8.423
 2927POPC   C3B38253  37.539  36.678   8.061
 2927POPC   C4B38254  37.426  36.465   7.708
 2928POPC   NC338255  31.955   7.981   9.228
 2928POPC   PO438256  32.131   8.518   9.487
 2928POPC   GL138257  32.194   8.429   9.051
 2928POPC   GL238258  31.866   8.363   8.885
 2928POPC   C1A38259  32.311   8.385   8.610
 2928POPC   D2A38260  32.600   8.235   8.310
 2928POPC   C3A38261  32.498   8.277   7.853
 2928POPC   C4A38262  32.193   8.421   7.525
 2928POPC   C1B38263  32.008   7.992   8.597
 2928POPC   C2B38264  32.182   7.986   8.189
 2928POPC   C3B38265  32.014   8.005   7.807
 2928POPC   C4B38266  32.112   7.916   7.413
 2929POPC   NC338267  35.935  25.549   9.343
 2929POPC   PO438268  36.048  26.196   9.553
 2929POPC   GL138269  36.146  25.980   9.179
 2929POPC   GL238270  35.831  26.053   9.048
 2929POPC   C1A38271  36.327  25.963   8.772
 2929POPC   D2A38272  36.277  26.324   8.489
 2929POPC   C3A38273  36.044  26.293   8.096
 2929POPC   C4A38274  36.316  26.208   7.769
 2929POPC   C1B38275  35.839  26.038   8.584
 2929POPC   C2B38276  36.109  25.787   8.284
 2929POPC   C3B38277  36.085  25.771   7.815
 2929POPC   C4B38278  35.819  26.045   7.571
 2930POPC   NC338279   7.365  35.709   9.554
 2930POPC   PO438280   7.798  36.270   9.723
 2930POPC   GL138281   7.732  36.107   9.279
 2930POPC   GL238282   7.593  36.398   9.155
 2930POPC   C1A38283   7.535  36.045   8.805
 2930POPC   D2A38284   7.768  36.027   8.378
 2930POPC   C3A38285   7.613  35.987   7.945
 2930POPC   C4A38286   7.211  36.046   7.682
 2930POPC   C1B38287   7.350  36.581   8.849
 2930POPC   C2B38288   7.271  36.392   8.460
 2930POPC   C3B38289   7.353  36.432   8.030
 2930POPC   C4B38290   7.388  36.495   7.616
 2931POPC   NC338291  39.574  19.115   9.286
 2931POPC   PO438292  38.969  19.315   9.533
 2931POPC   GL138293  38.993  19.138   9.120
 2931POPC   GL238294  38.862  18.788   9.095
 2931POPC   C1A38295  39.238  19.264   8.738
 2931POPC   D2A38296  39.574  19.221   8.413
 2931POPC   C3A38297  39.350  19.205   8.017
 2931POPC   C4A38298  38.915  19.325   7.842
 2931POPC   C1B38299  39.115  18.734   8.739
 2931POPC   C2B38300  39.322  18.779   8.345
 2931POPC   C3B38301  39.429  18.663   7.938
 2931POPC   C4B38302  39.160  18.874   7.699
 2932POPC   NC338303  21.698   9.416   9.770
 2932POPC   PO438304  21.574   8.795   9.451
 2932POPC   GL138305  21.316   8.957   9.109
 2932POPC   GL238306  21.335   9.333   9.103
 2932POPC   C1A38307  21.365   9.053   8.669
 2932POPC   D2A38308  21.040   9.190   8.355
 2932POPC   C3A38309  21.088   9.081   7.904
 2932POPC   C4A38310  21.414   8.992   7.591
 2932POPC   C1B38311  21.578   9.512   8.758
 2932POPC   C2B38312  21.696   9.317   8.362
 2932POPC   C3B38313  21.523   9.363   7.967
 2932POPC   C4B38314  21.665   9.444   7.553
 2933POPC   NC338315   1.600  42.815   9.606
 2933POPC   PO438316   1.157  42.251   9.481
 2933POPC   GL138317   1.230  42.312   9.066
 2933POPC   GL238318   1.480  42.554   9.155
 2933POPC   C1A38319   1.173  42.103   8.677
 2933POPC   D2A38320   0.895  42.260   8.346
 2933POPC   C3A38321   1.073  42.363   7.918
 2933POPC   C4A38322   1.172  42.219   7.479
 2933POPC   C1B38323   1.552  42.498   8.717
 2933POPC   C2B38324   1.380  42.432   8.321
 2933POPC   C3B38325   1.490  42.650   7.934
 2933POPC   C4B38326   1.621  42.516   7.528
 2934POPC   NC338327   9.036  19.968   9.676
 2934POPC   PO438328   8.660  20.304   9.268
 2934POPC   GL138329   8.880  20.007   9.048
 2934POPC   GL238330   9.188  20.041   9.187
 2934POPC   C1A38331   8.878  19.671   8.723
 2934POPC   D2A38332   9.095  19.549   8.325
 2934POPC   C3A38333   8.881  19.640   7.916
 2934POPC   C4A38334   8.689  20.016   7.863
 2934POPC   C1B38335   9.329  19.886   8.792
 2934POPC   C2B38336   9.491  19.951   8.396
 2934POPC   C3B38337   9.318  19.904   8.015
 2934POPC   C4B38338   9.370  19.569   7.708
 2935POPC   NC338339  43.348  20.104  10.026
 2935POPC   PO438340  43.059  19.746   9.532
 2935POPC   GL138341  43.168  20.056   9.184
 2935POPC   GL238342  43.463  20.001   8.938
 2935POPC   C1A38343  42.952  20.033   8.783
 2935POPC   D2A38344  42.802  19.825   8.399
 2935POPC   C3A38345  43.087  19.938   8.099
 2935POPC   C4A38346  43.138  20.114   7.728
 2935POPC   C1B38347  43.267  19.583   8.820
 2935POPC   C2B38348  43.061  19.369   8.470
 2935POPC   C3B38349  43.074  19.432   8.054
 2935POPC   C4B38350  43.235  19.519   7.655
 2936POPC   NC338351  27.051  29.667   9.384
 2936POPC   PO438352  26.481  30.293   9.537
 2936POPC   GL138353  26.746  30.134   9.187
 2936POPC   GL238354  26.699  29.781   9.063
 2936POPC   C1A38355  26.820  30.217   8.784
 2936POPC   D2A38356  27.016  30.204   8.409
 2936POPC   C3A38357  26.797  30.180   8.061
 2936POPC   C4A38358  26.919  30.266   7.695
 2936POPC   C1B38359  27.014  29.762   8.702
 2936POPC   C2B38360  26.835  29.711   8.259
 2936POPC   C3B38361  26.830  29.723   7.772
 2936POPC   C4B38362  27.089  29.572   7.375
 2937POPC   NC338363   1.292  36.827   9.534
 2937POPC   PO438364   0.694  37.043   9.298
 2937POPC   GL138365   1.099  37.136   9.149
 2937POPC   GL238366   1.344  36.872   9.037
 2937POPC   C1A38367   1.151  37.303   8.752
 2937POPC   D2A38368   0.994  37.415   8.355
 2937POPC   C3A38369   1.271  37.182   8.128
 2937POPC   C4A38370   1.512  36.948   7.841
 2937POPC   C1B38371   1.191  36.776   8.626
 2937POPC   C2B38372   1.258  36.664   8.191
 2937POPC   C3B38373   1.035  36.815   7.812
 2937POPC   C4B38374   1.163  36.553   7.488
 2938POPC   NC338375  34.901  26.569   9.830
 2938POPC   PO438376  35.356  26.912   9.450
 2938POPC   GL138377  35.409  26.834   9.071
 2938POPC   GL238378  35.551  26.520   9.170
 2938POPC   C1A38379  35.174  26.910   8.724
 2938POPC   D2A38380  35.387  26.865   8.370
 2938POPC   C3A38381  35.216  27.011   8.001
 2938POPC   C4A38382  35.566  27.008   7.725
 2938POPC   C1B38383  35.395  26.432   8.748
 2938POPC   C2B38384  35.390  26.277   8.348
 2938POPC   C3B38385  35.417  26.515   7.993
 2938POPC   C4B38386  35.714  26.511   7.696
 2939POPC   NC338387   6.514   9.745   9.533
 2939POPC   PO438388   7.037  10.007   9.489
 2939POPC   GL138389   6.812   9.762   9.137
 2939POPC   GL238390   6.955   9.482   9.251
 2939POPC   C1A38391   6.632   9.601   8.737
 2939POPC   D2A38392   6.675   9.826   8.331
 2939POPC   C3A38393   6.523   9.764   7.888
 2939POPC   C4A38394   6.539   9.808   7.423
 2939POPC   C1B38395   7.121   9.423   8.835
 2939POPC   C2B38396   7.101   9.531   8.408
 2939POPC   C3B38397   7.067   9.350   8.037
 2939POPC   C4B38398   6.927   9.553   7.687
 2940POPC   NC338399  26.497  44.892   9.327
 2940POPC   PO438400  25.868  44.758   9.589
 2940POPC   GL138401  26.003  44.810   9.194
 2940POPC   GL238402  25.971  44.480   9.124
 2940POPC   C1A38403  26.127  44.797   8.755
 2940POPC   D2A38404  26.113  44.541   8.399
 2940POPC   C3A38405  26.289  44.771   8.058
 2940POPC   C4A38406  26.247   0.043   7.712
 2940POPC   C1B38407  25.721  44.450   8.742
 2940POPC   C2B38408  25.610  44.538   8.321
 2940POPC   C3B38409  25.811  44.600   7.957
 2940POPC   C4B38410  25.752  44.852   7.618
 2941POPC   NC338411   8.457  42.877   9.627
 2941POPC   PO438412   7.852  42.671   9.431
 2941POPC   GL138413   8.153  42.886   9.133
 2941POPC   GL238414   8.540  42.960   9.131
 2941POPC   C1A38415   8.059  42.978   8.692
 2941POPC   D2A38416   7.971  43.206   8.314
 2941POPC   C3A38417   7.984  42.971   7.922
 2941POPC   C4A38418   8.045  43.106   7.467
 2941POPC   C1B38419   8.553  43.087   8.695
 2941POPC   C2B38420   8.467  43.003   8.233
 2941POPC   C3B38421   8.440  43.170   7.788
 2941POPC   C4B38422   8.528  43.320   7.322
 2942POPC   NC338423  43.697  42.104   9.410
 2942POPC   PO438424  44.210  42.581   9.300
 2942POPC   GL138425  43.839  42.619   9.043
 2942POPC   GL238426  43.628  42.323   8.960
 2942POPC   C1A38427  43.946  42.511   8.614
 2942POPC   D2A38428  44.118  42.243   8.299
 2942POPC   C3A38429  43.932  42.348   7.925
 2942POPC   C4A38430  43.860  42.571   7.565
 2942POPC   C1B38431  43.868  41.989   8.700
 2942POPC   C2B38432  43.906  41.778   8.270
 2942POPC   C3B38433  43.880  41.870   7.802
 2942POPC   C4B38434  43.869  41.794   7.363
 2943POPC   NC338435  21.961  35.625   9.581
 2943POPC   PO438436  21.921  34.943   9.524
 2943POPC   GL138437  21.918  35.256   9.132
 2943POPC   GL238438  21.884  35.650   9.081
 2943POPC   C1A38439  22.254  35.412   8.815
 2943POPC   D2A38440  22.518  35.367   8.424
 2943POPC   C3A38441  22.339  35.500   8.026
 2943POPC   C4A38442  22.395  35.368   7.624
 2943POPC   C1B38443  21.759  35.520   8.679
 2943POPC   C2B38444  21.989  35.302   8.381
 2943POPC   C3B38445  21.970  35.158   7.982
 2943POPC   C4B38446  21.906  35.457   7.653
 2944POPC   NC338447  12.587  10.523   9.403
 2944POPC   PO438448  13.198  10.773   9.350
 2944POPC   GL138449  13.045  10.423   9.109
 2944POPC   GL238450  13.368  10.466   8.956
 2944POPC   C1A38451  12.719  10.330   8.790
 2944POPC   D2A38452  12.618  10.225   8.346
 2944POPC   C3A38453  12.610  10.514   8.009
 2944POPC   C4A38454  12.939  10.679   7.727
 2944POPC   C1B38455  13.185  10.300   8.600
 2944POPC   C2B38456  13.099  10.434   8.194
 2944POPC   C3B38457  13.007  10.181   7.842
 2944POPC   C4B38458  13.182  10.290   7.456
 2945POPC   NC338459  35.178  31.563   9.625
 2945POPC   PO438460  35.565  31.079   9.334
 2945POPC   GL138461  35.324  31.392   9.167
 2945POPC   GL238462  34.954  31.420   9.180
 2945POPC   C1A38463  35.381  31.601   8.819
 2945POPC   D2A38464  35.638  31.574   8.479
 2945POPC   C3A38465  35.469  31.594   8.077
 2945POPC   C4A38466  35.523  31.263   7.774
 2945POPC   C1B38467  35.025  31.204   8.796
 2945POPC   C2B38468  35.265  31.220   8.440
 2945POPC   C3B38469  35.100  31.224   8.041
 2945POPC   C4B38470  35.047  31.087   7.607
 2946POPC   NC338471   1.023  10.172   9.314
 2946POPC   PO438472   1.399  10.792   9.558
 2946POPC   GL138473   1.322  10.591   9.192
 2946POPC   GL238474   1.530  10.300   9.227
 2946POPC   C1A38475   1.141  10.658   8.777
 2946POPC   D2A38476   0.969  10.749   8.359
 2946POPC   C3A38477   1.266  10.702   8.064
 2946POPC   C4A38478   1.581  10.643   7.799
 2946POPC   C1B38479   1.421  10.198   8.808
 2946POPC   C2B38480   1.207  10.284   8.419
 2946POPC   C3B38481   1.385  10.207   8.019
 2946POPC   C4B38482   1.371   9.948   7.672
 2947POPC   NC338483  14.727  14.291   9.601
 2947POPC   PO438484  14.198  14.683   9.535
 2947POPC   GL138485  14.450  14.526   9.199
 2947POPC   GL238486  14.154  14.407   9.076
 2947POPC   C1A38487  14.594  14.499   8.762
 2947POPC   D2A38488  14.523  14.278   8.339
 2947POPC   C3A38489  14.311  14.504   8.018
 2947POPC   C4A38490  14.223  14.385   7.608
 2947POPC   C1B38491  14.203  14.164   8.753
 2947POPC   C2B38492  13.996  14.274   8.394
 2947POPC   C3B38493  14.104  14.021   8.083
 2947POPC   C4B38494  14.455  13.995   7.838
 2948POPC   NC338495  42.023   3.985   9.171
 2948POPC   PO438496  41.667   4.497   9.414
 2948POPC   GL138497  41.627   4.363   9.030
 2948POPC   GL238498  41.965   4.463   8.966
 2948POPC   C1A38499  41.312   4.347   8.705
 2948POPC   D2A38500  41.102   4.449   8.324
 2948POPC   C3A38501  41.384   4.377   8.001
 2948POPC   C4A38502  41.361   4.207   7.579
 2948POPC   C1B38503  41.807   4.329   8.559
 2948POPC   C2B38504  41.702   3.997   8.306
 2948POPC   C3B38505  41.779   4.067   7.898
 2948POPC   C4B38506  41.798   4.473   7.680
 2949POPC   NC338507  38.569  32.184   9.657
 2949POPC   PO438508  38.266  32.739   9.533
 2949POPC   GL138509  38.216  32.423   9.198
 2949POPC   GL238510  38.331  32.041   9.183
 2949POPC   C1A38511  38.191  32.282   8.766
 2949POPC   D2A38512  38.602  32.105   8.589
 2949POPC   C3A38513  38.686  32.175   8.166
 2949POPC   C4A38514  38.417  32.408   7.900
 2949POPC   C1B38515  38.225  31.792   8.759
 2949POPC   C2B38516  38.353  31.705   8.348
 2949POPC   C3B38517  38.317  31.908   7.940
 2949POPC   C4B38518  38.180  32.058   7.544
 2950POPC   NC338519  18.327   8.414   9.408
 2950POPC   PO438520  18.527   7.786   9.519
 2950POPC   GL138521  18.341   7.878   9.072
 2950POPC   GL238522  18.156   8.195   8.998
 2950POPC   C1A38523  18.428   8.032   8.600
 2950POPC   D2A38524  18.502   8.414   8.352
 2950POPC   C3A38525  18.528   8.433   7.903
 2950POPC   C4A38526  18.469   8.346   7.477
 2950POPC   C1B38527  17.944   7.947   8.757
 2950POPC   C2B38528  17.920   8.088   8.392
 2950POPC   C3B38529  18.194   8.050   8.096
 2950POPC   C4B38530  18.060   8.106   7.706
 2951POPC   NC338531  13.569  26.432   9.710
 2951POPC   PO438532  13.238  25.938   9.416
 2951POPC   GL138533  13.384  25.786   9.031
 2951POPC   GL238534  13.635  25.959   8.936
 2951POPC   C1A38535  13.414  25.583   8.633
 2951POPC   D2A38536  13.632  25.421   8.322
 2951POPC   C3A38537  13.664  25.722   8.045
 2951POPC   C4A38538  13.631  25.738   7.644
 2951POPC   C1B38539  13.734  25.963   8.506
 2951POPC   C2B38540  13.927  26.138   8.175
 2951POPC   C3B38541  13.693  26.199   7.804
 2951POPC   C4B38542  13.747  26.145   7.346
 2952POPC   NC338543  10.838  39.060   9.539
 2952POPC   PO438544  11.596  39.230   9.562
 2952POPC   GL138545  11.471  39.112   9.179
 2952POPC   GL238546  11.174  39.275   9.224
 2952POPC   C1A38547  11.506  39.279   8.782
 2952POPC   D2A38548  11.413  39.551   8.454
 2952POPC   C3A38549  11.538  39.408   8.088
 2952POPC   C4A38550  11.372  39.327   7.719
 2952POPC   C1B38551  11.042  39.490   8.865
 2952POPC   C2B38552  10.934  39.311   8.491
 2952POPC   C3B38553  11.029  39.392   8.095
 2952POPC   C4B38554  10.869  39.463   7.696
 2953POPC   NC338555  12.034  44.921   9.359
 2953POPC   PO438556  11.851  44.457   9.713
 2953POPC   GL138557  11.900  44.453   9.211
 2953POPC   GL238558  12.283  44.570   9.104
 2953POPC   C1A38559  11.985  44.458   8.713
 2953POPC   D2A38560  12.252  44.589   8.319
 2953POPC   C3A38561  12.124  44.454   7.894
 2953POPC   C4A38562  11.710  44.541   7.732
 2953POPC   C1B38563  12.226  44.917   8.749
 2953POPC   C2B38564  11.990   0.128   8.409
 2953POPC   C3B38565  12.094   0.048   7.969
 2953POPC   C4B38566  12.201  44.847   7.564
 2954POPC   NC338567  32.136  24.724   9.553
 2954POPC   PO438568  32.507  24.148   9.480
 2954POPC   GL138569  32.438  24.343   9.098
 2954POPC   GL238570  32.316  24.692   9.077
 2954POPC   C1A38571  32.665  24.427   8.713
 2954POPC   D2A38572  32.659  24.668   8.328
 2954POPC   C3A38573  32.473  24.372   8.039
 2954POPC   C4A38574  32.424  24.440   7.583
 2954POPC   C1B38575  32.024  24.511   8.776
 2954POPC   C2B38576  31.923  24.660   8.342
 2954POPC   C3B38577  32.025  24.587   7.902
 2954POPC   C4B38578  32.071  24.789   7.498
 2955POPC   NC338579  24.534  16.879   9.483
 2955POPC   PO438580  24.945  16.381   9.408
 2955POPC   GL138581  24.591  16.487   9.096
 2955POPC   GL238582  24.294  16.739   9.066
 2955POPC   C1A38583  24.624  16.712   8.700
 2955POPC   D2A38584  24.581  16.962   8.344
 2955POPC   C3A38585  24.731  16.812   7.996
 2955POPC   C4A38586  24.865  17.157   7.837
 2955POPC   C1B38587  24.124  16.553   8.752
 2955POPC   C2B38588  24.274  16.562   8.350
 2955POPC   C3B38589  24.223  16.819   7.983
 2955POPC   C4B38590  24.212  16.438   7.762
 2956POPC   NC338591   6.411  41.064   9.518
 2956POPC   PO438592   6.931  40.654   9.667
 2956POPC   GL138593   6.883  40.786   9.215
 2956POPC   GL238594   7.089  40.512   9.070
 2956POPC   C1A38595   6.813  40.853   8.749
 2956POPC   D2A38596   6.486  40.955   8.413
 2956POPC   C3A38597   6.568  40.793   7.975
 2956POPC   C4A38598   6.967  40.851   7.734
 2956POPC   C1B38599   6.771  40.357   8.781
 2956POPC   C2B38600   6.626  40.421   8.373
 2956POPC   C3B38601   6.862  40.364   8.016
 2956POPC   C4B38602   7.038  40.349   7.629
 2957POPC   NC338603   5.961  25.713   9.530
 2957POPC   PO438604   5.499  26.176   9.810
 2957POPC   GL138605   5.825  26.156   9.333
 2957POPC   GL238606   5.807  25.823   9.070
 2957POPC   C1A38607   5.808  26.282   8.883
 2957POPC   D2A38608   5.944  26.042   8.543
 2957POPC   C3A38609   5.784  26.199   8.160
 2957POPC   C4A38610   5.865  26.252   7.743
 2957POPC   C1B38611   5.516  25.833   8.717
 2957POPC   C2B38612   5.389  25.879   8.308
 2957POPC   C3B38613   5.538  25.809   7.901
 2957POPC   C4B38614   5.432  25.979   7.525
 2958POPC   NC338615  35.689  20.805   9.490
 2958POPC   PO438616  35.083  20.512   9.375
 2958POPC   GL138617  35.212  20.689   9.035
 2958POPC   GL238618  35.545  20.641   9.051
 2958POPC   C1A38619  35.345  20.696   8.607
 2958POPC   D2A38620  35.415  20.543   8.229
 2958POPC   C3A38621  35.484  20.940   8.057
 2958POPC   C4A38622  35.507  20.850   7.660
 2958POPC   C1B38623  35.702  20.348   8.770
 2958POPC   C2B38624  35.773  20.201   8.423
 2958POPC   C3B38625  35.686  20.140   8.025
 2958POPC   C4B38626  35.762  20.291   7.630
 2959POPC   NC338627  30.926  31.513   9.516
 2959POPC   PO438628  30.385  31.064   9.599
 2959POPC   GL138629  30.413  31.416   9.227
 2959POPC   GL238630  30.710  31.668   9.061
 2959POPC   C1A38631  30.433  31.389   8.759
 2959POPC   D2A38632  30.587  31.591   8.372
 2959POPC   C3A38633  30.592  31.421   7.956
 2959POPC   C4A38634  30.600  31.440   7.509
 2959POPC   C1B38635  30.980  31.477   8.700
 2959POPC   C2B38636  31.032  31.327   8.234
 2959POPC   C3B38637  31.050  31.383   7.760
 2959POPC   C4B38638  31.106  31.552   7.320
 2960POPC   NC338639  21.256  38.099   9.789
 2960POPC   PO438640  21.417  37.481   9.437
 2960POPC   GL138641  21.614  37.739   9.146
 2960POPC   GL238642  21.314  37.645   8.953
 2960POPC   C1A38643  21.641  37.969   8.744
 2960POPC   D2A38644  21.382  37.757   8.444
 2960POPC   C3A38645  21.474  37.853   8.057
 2960POPC   C4A38646  21.444  37.883   7.623
 2960POPC   C1B38647  21.126  37.360   8.667
 2960POPC   C2B38648  20.971  37.477   8.285
 2960POPC   C3B38649  21.050  37.634   7.901
 2960POPC   C4B38650  21.436  37.395   7.734
 2961POPC   NC338651  28.182   4.506   9.728
 2961POPC   PO438652  28.407   3.926   9.388
 2961POPC   GL138653  28.183   4.301   9.250
 2961POPC   GL238654  28.431   4.572   9.283
 2961POPC   C1A38655  28.029   4.577   8.921
 2961POPC   D2A38656  27.969   4.567   8.483
 2961POPC   C3A38657  28.201   4.273   8.239
 2961POPC   C4A38658  28.284   4.285   7.804
 2961POPC   C1B38659  28.641   4.681   8.913
 2961POPC   C2B38660  28.476   4.667   8.497
 2961POPC   C3B38661  28.330   4.749   8.079
 2961POPC   C4B38662  28.657   4.654   7.796
 2962POPC   NC338663  27.016  28.057   9.449
 2962POPC   PO438664  26.612  28.605   9.429
 2962POPC   GL138665  26.640  28.238   9.151
 2962POPC   GL238666  26.947  28.400   9.083
 2962POPC   C1A38667  26.878  28.004   8.761
 2962POPC   D2A38668  27.185  28.044   8.391
 2962POPC   C3A38669  27.100  28.194   7.969
 2962POPC   C4A38670  26.885  27.983   7.623
 2962POPC   C1B38671  26.652  28.494   8.721
 2962POPC   C2B38672  26.465  28.456   8.320
 2962POPC   C3B38673  26.585  28.324   7.910
 2962POPC   C4B38674  26.890  28.539   7.646
 2963POPC   NC338675  30.129  32.918   9.455
 2963POPC   PO438676  30.811  32.916   9.544
 2963POPC   GL138677  30.762  32.710   9.173
 2963POPC   GL238678  31.094  32.784   9.126
 2963POPC   C1A38679  30.664  32.926   8.793
 2963POPC   D2A38680  30.706  33.281   8.518
 2963POPC   C3A38681  30.750  33.099   8.125
 2963POPC   C4A38682  30.513  33.205   7.770
 2963POPC   C1B38683  31.077  32.574   8.785
 2963POPC   C2B38684  31.032  32.772   8.443
 2963POPC   C3B38685  31.066  32.647   8.066
 2963POPC   C4B38686  30.775  32.747   7.747
 2964POPC   NC338687  35.472  24.944   9.545
 2964POPC   PO438688  35.383  25.620   9.462
 2964POPC   GL138689  35.463  25.310   9.137
 2964POPC   GL238690  35.288  24.994   9.083
 2964POPC   C1A38691  35.619  25.189   8.718
 2964POPC   D2A38692  35.579  25.081   8.284
 2964POPC   C3A38693  35.377  25.362   7.997
 2964POPC   C4A38694  35.546  25.350   7.602
 2964POPC   C1B38695  35.045  25.069   8.746
 2964POPC   C2B38696  35.056  25.153   8.338
 2964POPC   C3B38697  35.200  24.883   7.991
 2964POPC   C4B38698  35.134  25.075   7.567
 2965POPC   NC338699  20.352   8.528   9.416
 2965POPC   PO438700  20.846   8.111   9.403
 2965POPC   GL138701  20.559   8.148   9.059
 2965POPC   GL238702  20.605   8.475   8.970
 2965POPC   C1A38703  20.659   7.956   8.658
 2965POPC   D2A38704  21.022   8.070   8.388
 2965POPC   C3A38705  20.851   8.175   7.979
 2965POPC   C4A38706  20.530   8.022   7.690
 2965POPC   C1B38707  20.318   8.327   8.642
 2965POPC   C2B38708  20.417   8.195   8.255
 2965POPC   C3B38709  20.368   8.461   7.909
 2965POPC   C4B38710  20.685   8.489   7.599
 2966POPC   NC338711  24.255   5.659   9.241
 2966POPC   PO438712  24.727   6.091   9.357
 2966POPC   GL138713  24.653   5.907   8.995
 2966POPC   GL238714  24.940   5.688   9.031
 2966POPC   C1A38715  24.447   5.948   8.594
 2966POPC   D2A38716  24.393   5.671   8.232
 2966POPC   C3A38717  24.380   5.885   7.857
 2966POPC   C4A38718  24.603   6.181   7.611
 2966POPC   C1B38719  24.990   5.857   8.612
 2966POPC   C2B38720  24.817   5.965   8.217
 2966POPC   C3B38721  24.892   5.755   7.831
 2966POPC   C4B38722  24.793   5.762   7.390
 2967POPC   NC338723  28.418  38.913   9.381
 2967POPC   PO438724  28.512  38.259   9.567
 2967POPC   GL138725  28.410  38.311   9.176
 2967POPC   GL238726  28.101  38.093   9.208
 2967POPC   C1A38727  28.515  38.568   8.792
 2967POPC   D2A38728  28.748  38.456   8.408
 2967POPC   C3A38729  28.519  38.404   8.030
 2967POPC   C4A38730  28.449  38.016   7.767
 2967POPC   C1B38731  28.029  38.407   8.870
 2967POPC   C2B38732  28.148  38.482   8.446
 2967POPC   C3B38733  27.980  38.312   8.094
 2967POPC   C4B38734  27.944  38.094   7.718
 2968POPC   NC338735  23.923  25.541   9.502
 2968POPC   PO438736  23.353  25.200   9.366
 2968POPC   GL138737  23.644  25.433   9.049
 2968POPC   GL238738  23.986  25.607   9.005
 2968POPC   C1A38739  23.696  25.443   8.592
 2968POPC   D2A38740  23.463  25.230   8.280
 2968POPC   C3A38741  23.642  25.339   7.893
 2968POPC   C4A38742  23.367  25.313   7.527
 2968POPC   C1B38743  24.084  25.793   8.596
 2968POPC   C2B38744  23.989  25.642   8.184
 2968POPC   C3B38745  24.104  25.609   7.730
 2968POPC   C4B38746  24.060  25.588   7.252
 2969POPC   NC338747   4.721  33.228   9.255
 2969POPC   PO438748   5.223  33.232   9.578
 2969POPC   GL138749   5.285  33.200   9.115
 2969POPC   GL238750   5.475  32.884   9.006
 2969POPC   C1A38751   5.072  33.120   8.689
 2969POPC   D2A38752   4.771  32.935   8.353
 2969POPC   C3A38753   4.867  33.110   7.947
 2969POPC   C4A38754   5.216  33.365   7.876
 2969POPC   C1B38755   5.514  32.858   8.573
 2969POPC   C2B38756   5.303  32.974   8.211
 2969POPC   C3B38757   5.341  32.776   7.820
 2969POPC   C4B38758   5.453  32.700   7.361
 2970POPC   NC338759   2.203  18.510   9.531
 2970POPC   PO438760   1.919  17.903   9.417
 2970POPC   GL138761   1.935  18.247   9.154
 2970POPC   GL238762   2.286  18.212   9.139
 2970POPC   C1A38763   1.825  18.223   8.722
 2970POPC   D2A38764   1.591  18.306   8.340
 2970POPC   C3A38765   1.797  18.224   7.987
 2970POPC   C4A38766   1.790  18.595   7.761
 2970POPC   C1B38767   2.335  18.135   8.735
 2970POPC   C2B38768   2.185  18.246   8.338
 2970POPC   C3B38769   2.259  18.439   7.940
 2970POPC   C4B38770   2.523  18.173   7.716
 2971POPC   NC338771   5.792   8.452   9.739
 2971POPC   PO438772   5.413   7.886   9.542
 2971POPC   GL138773   5.679   8.242   9.278
 2971POPC   GL238774   6.034   8.170   9.160
 2971POPC   C1A38775   5.689   8.400   8.854
 2971POPC   D2A38776   5.877   8.138   8.551
 2971POPC   C3A38777   5.938   8.302   8.141
 2971POPC   C4A38778   5.760   8.182   7.796
 2971POPC   C1B38779   6.241   8.395   8.806
 2971POPC   C2B38780   6.364   8.188   8.418
 2971POPC   C3B38781   6.363   7.914   8.079
 2971POPC   C4B38782   6.276   8.174   7.747
 2972POPC   NC338783   4.405  17.151   9.459
 2972POPC   PO438784   4.245  16.502   9.553
 2972POPC   GL138785   4.265  16.574   9.139
 2972POPC   GL238786   3.932  16.511   8.997
 2972POPC   C1A38787   4.523  16.562   8.770
 2972POPC   D2A38788   4.333  16.607   8.387
 2972POPC   C3A38789   4.476  16.738   7.989
 2972POPC   C4A38790   4.168  16.968   7.783
 2972POPC   C1B38791   4.197  16.177   8.825
 2972POPC   C2B38792   4.434  16.111   8.437
 2972POPC   C3B38793   4.338  16.249   8.009
 2972POPC   C4B38794   4.219  16.430   7.601
 2973POPC   NC338795  29.492  37.320   9.649
 2973POPC   PO438796  28.907  37.682   9.579
 2973POPC   GL138797  29.203  37.719   9.236
 2973POPC   GL238798  29.435  37.440   9.149
 2973POPC   C1A38799  29.163  37.803   8.808
 2973POPC   D2A38800  28.862  37.901   8.418
 2973POPC   C3A38801  28.923  37.778   7.989
 2973POPC   C4A38802  28.891  37.782   7.543
 2973POPC   C1B38803  29.593  37.526   8.742
 2973POPC   C2B38804  29.382  37.715   8.361
 2973POPC   C3B38805  29.360  37.492   7.993
 2973POPC   C4B38806  29.314  37.456   7.574
 2974POPC   NC338807   4.016  41.118   9.451
 2974POPC   PO438808   4.479  40.616   9.552
 2974POPC   GL138809   4.299  40.774   9.189
 2974POPC   GL238810   4.526  41.068   9.294
 2974POPC   C1A38811   4.156  40.836   8.739
 2974POPC   D2A38812   3.890  40.715   8.393
 2974POPC   C3A38813   4.112  40.849   8.046
 2974POPC   C4A38814   4.259  40.776   7.619
 2974POPC   C1B38815   4.606  41.013   8.874
 2974POPC   C2B38816   4.595  41.038   8.391
 2974POPC   C3B38817   4.497  41.193   7.962
 2974POPC   C4B38818   4.654  41.076   7.571
 2975POPC   NC338819  15.009  35.915   9.381
 2975POPC   PO438820  15.338  36.526   9.564
 2975POPC   GL138821  15.180  36.339   9.169
 2975POPC   GL238822  15.350  36.024   9.027
 2975POPC   C1A38823  14.972  36.205   8.772
 2975POPC   D2A38824  15.264  36.053   8.465
 2975POPC   C3A38825  15.017  35.974   8.129
 2975POPC   C4A38826  15.129  36.158   7.736
 2975POPC   C1B38827  15.569  35.764   8.750
 2975POPC   C2B38828  15.535  35.618   8.347
 2975POPC   C3B38829  15.487  35.856   7.988
 2975POPC   C4B38830  15.378  35.751   7.591
 2976POPC   NC338831   8.347   0.003   9.542
 2976POPC   PO438832   8.172  44.317   9.458
 2976POPC   GL138833   8.283  44.472   9.079
 2976POPC   GL238834   8.506  44.780   9.107
 2976POPC   C1A38835   8.052  44.632   8.734
 2976POPC   D2A38836   8.182  44.836   8.376
 2976POPC   C3A38837   8.377  44.571   8.082
 2976POPC   C4A38838   8.212  44.767   7.725
 2976POPC   C1B38839   8.569  44.656   8.689
 2976POPC   C2B38840   8.715  44.846   8.337
 2976POPC   C3B38841   8.484   0.076   8.032
 2976POPC   C4B38842   8.493   0.166   7.607
 2977POPC   NC338843  42.878  11.192   9.310
 2977POPC   PO438844  43.412  11.080   9.678
 2977POPC   GL138845  43.367  11.248   9.178
 2977POPC   GL238846  43.377  11.588   9.071
 2977POPC   C1A38847  43.160  11.228   8.723
 2977POPC   D2A38848  42.917  11.119   8.354
 2977POPC   C3A38849  43.126  11.208   7.932
 2977POPC   C4A38850  43.100  11.510   7.545
 2977POPC   C1B38851  43.056  11.725   8.794
 2977POPC   C2B38852  42.954  11.632   8.396
 2977POPC   C3B38853  43.103  11.726   8.007
 2977POPC   C4B38854  43.193  12.015   7.678
 2978POPC   NC338855  32.641  41.628   9.469
 2978POPC   PO438856  33.252  41.381   9.591
 2978POPC   GL138857  33.068  41.509   9.191
 2978POPC   GL238858  33.015  41.851   9.172
 2978POPC   C1A38859  33.261  41.414   8.772
 2978POPC   D2A38860  33.092  41.502   8.358
 2978POPC   C3A38861  33.338  41.384   8.004
 2978POPC   C4A38862  33.162  41.396   7.598
 2978POPC   C1B38863  32.841  41.716   8.764
 2978POPC   C2B38864  32.657  41.816   8.324
 2978POPC   C3B38865  32.867  41.716   7.920
 2978POPC   C4B38866  33.126  41.891   7.615
 2979POPC   NC338867  11.394  36.942   9.566
 2979POPC   PO438868  10.772  37.064   9.425
 2979POPC   GL138869  11.110  37.048   9.153
 2979POPC   GL238870  11.155  36.706   9.070
 2979POPC   C1A38871  11.347  37.093   8.774
 2979POPC   D2A38872  11.169  37.037   8.366
 2979POPC   C3A38873  11.386  37.078   7.963
 2979POPC   C4A38874  11.551  37.208   7.572
 2979POPC   C1B38875  11.541  36.622   8.799
 2979POPC   C2B38876  11.623  36.779   8.365
 2979POPC   C3B38877  11.611  36.635   7.949
 2979POPC   C4B38878  11.394  36.710   7.552
 2980POPC   NC338879  43.377   8.647   9.588
 2980POPC   PO438880  42.848   9.016   9.694
 2980POPC   GL138881  42.864   8.910   9.214
 2980POPC   GL238882  43.239   8.899   9.153
 2980POPC   C1A38883  42.907   8.990   8.755
 2980POPC   D2A38884  42.904   8.773   8.338
 2980POPC   C3A38885  42.985   8.972   7.966
 2980POPC   C4A38886  42.747   8.759   7.725
 2980POPC   C1B38887  43.454   8.671   8.845
 2980POPC   C2B38888  43.389   8.721   8.411
 2980POPC   C3B38889  43.330   8.604   7.984
 2980POPC   C4B38890  43.254   8.735   7.561
 2981POPC   NC338891  20.843  24.003   9.547
 2981POPC   PO438892  20.460  23.488   9.307
 2981POPC   GL138893  20.730  23.596   9.067
 2981POPC   GL238894  20.647  23.929   9.082
 2981POPC   C1A38895  20.598  23.633   8.665
 2981POPC   D2A38896  20.773  23.478   8.364
 2981POPC   C3A38897  20.598  23.594   8.042
 2981POPC   C4A38898  20.592  23.384   7.674
 2981POPC   C1B38899  20.897  24.043   8.739
 2981POPC   C2B38900  20.845  24.250   8.369
 2981POPC   C3B38901  20.683  24.183   7.975
 2981POPC   C4B38902  20.757  23.878   7.669
 2982POPC   NC338903  40.707   9.124   9.404
 2982POPC   PO438904  41.043   8.602   9.568
 2982POPC   GL138905  41.092   8.851   9.199
 2982POPC   GL238906  40.815   8.650   9.108
 2982POPC   C1A38907  40.884   9.073   8.808
 2982POPC   D2A38908  40.603   9.101   8.477
 2982POPC   C3A38909  40.784   9.180   8.087
 2982POPC   C4A38910  40.658   8.958   7.705
 2982POPC   C1B38911  41.142   8.604   8.767
 2982POPC   C2B38912  41.081   8.842   8.396
 2982POPC   C3B38913  40.994   8.726   7.997
 2982POPC   C4B38914  41.143   8.691   7.578
 2983POPC   NC338915   2.356  26.105   9.684
 2983POPC   PO438916   3.018  26.304   9.496
 2983POPC   GL138917   2.696  26.337   9.176
 2983POPC   GL238918   2.569  26.007   9.197
 2983POPC   C1A38919   2.815  26.351   8.738
 2983POPC   D2A38920   2.707  26.184   8.349
 2983POPC   C3A38921   2.725  26.309   7.950
 2983POPC   C4A38922   2.894  26.106   7.622
 2983POPC   C1B38923   2.672  25.857   8.757
 2983POPC   C2B38924   2.683  25.672   8.319
 2983POPC   C3B38925   2.737  25.636   7.872
 2983POPC   C4B38926   2.619  25.307   7.546
 2984POPC   NC338927   7.176  43.893   9.528
 2984POPC   PO438928   6.557  43.717   9.524
 2984POPC   GL138929   6.602  43.971   9.160
 2984POPC   GL238930   6.860  44.229   9.215
 2984POPC   C1A38931   6.527  43.837   8.758
 2984POPC   D2A38932   6.370  43.873   8.378
 2984POPC   C3A38933   6.423  43.603   8.078
 2984POPC   C4A38934   6.492  43.882   7.725
 2984POPC   C1B38935   6.989  44.047   8.824
 2984POPC   C2B38936   6.847  44.104   8.412
 2984POPC   C3B38937   6.897  43.895   8.025
 2984POPC   C4B38938   6.893  44.209   7.700
 2985POPC   NC338939  24.595  30.944   9.587
 2985POPC   PO438940  24.330  31.571   9.609
 2985POPC   GL138941  24.320  31.687   9.178
 2985POPC   GL238942  24.385  31.346   9.099
 2985POPC   C1A38943  24.284  31.679   8.719
 2985POPC   D2A38944  24.406  31.905   8.386
 2985POPC   C3A38945  24.421  31.601   8.092
 2985POPC   C4A38946  24.384  31.776   7.727
 2985POPC   C1B38947  24.704  31.412   8.744
 2985POPC   C2B38948  24.838  31.606   8.410
 2985POPC   C3B38949  24.899  31.345   8.072
 2985POPC   C4B38950  24.682  31.375   7.681
 2986POPC   NC338951  39.601  22.728   9.483
 2986POPC   PO438952  40.239  22.909   9.305
 2986POPC   GL138953  39.911  22.778   9.096
 2986POPC   GL238954  39.738  23.118   9.123
 2986POPC   C1A38955  39.846  22.638   8.701
 2986POPC   D2A38956  40.109  22.612   8.337
 2986POPC   C3A38957  39.955  22.743   7.952
 2986POPC   C4A38958  39.735  22.873   7.597
 2986POPC   C1B38959  40.023  23.102   8.727
 2986POPC   C2B38960  40.184  23.131   8.326
 2986POPC   C3B38961  39.973  23.248   7.961
 2986POPC   C4B38962  40.168  23.111   7.636
 2987POPC   NC338963  11.712   0.385   9.488
 2987POPC   PO438964  12.427   0.140   9.373
 2987POPC   GL138965  12.289   0.429   9.068
 2987POPC   GL238966  11.947   0.334   9.038
 2987POPC   C1A38967  12.359   0.466   8.633
 2987POPC   D2A38968  12.500   0.575   8.225
 2987POPC   C3A38969  12.209   0.639   7.894
 2987POPC   C4A38970  12.118   0.343   7.522
 2987POPC   C1B38971  11.896   0.664   8.754
 2987POPC   C2B38972  11.963   0.655   8.336
 2987POPC   C3B38973  11.755   0.428   7.984
 2987POPC   C4B38974  11.753   0.666   7.632
 2988POPC   NC338975   8.014  10.719   9.717
 2988POPC   PO438976   7.349  10.599   9.473
 2988POPC   GL138977   7.461  10.490   9.078
 2988POPC   GL238978   7.570  10.745   8.841
 2988POPC   C1A38979   7.482  10.225   8.748
 2988POPC   D2A38980   7.569  10.435   8.388
 2988POPC   C3A38981   7.492  10.333   7.969
 2988POPC   C4A38982   7.843  10.558   7.755
 2988POPC   C1B38983   7.149  10.596   8.679
 2988POPC   C2B38984   7.082  10.580   8.262
 2988POPC   C3B38985   7.114  10.913   8.044
 2988POPC   C4B38986   7.405  10.795   7.751
 2989POPC   NC338987  16.896   2.598   9.418
 2989POPC   PO438988  17.038   3.258   9.296
 2989POPC   GL138989  16.913   2.938   8.989
 2989POPC   GL238990  16.763   2.592   8.923
 2989POPC   C1A38991  16.970   2.861   8.531
 2989POPC   D2A38992  16.789   3.016   8.168
 2989POPC   C3A38993  16.914   3.080   7.761
 2989POPC   C4A38994  17.005   2.939   7.325
 2989POPC   C1B38995  17.027   2.353   8.697
 2989POPC   C2B38996  16.993   2.300   8.265
 2989POPC   C3B38997  16.870   2.575   7.941
 2989POPC   C4B38998  16.670   2.623   7.556
 2990POPC   NC338999  37.946   7.262   9.512
 2990POPC   PO439000  37.475   7.741   9.540
 2990POPC   GL139001  37.645   7.615   9.133
 2990POPC   GL239002  37.736   7.245   9.015
 2990POPC   C1A39003  37.650   7.619   8.688
 2990POPC   D2A39004  37.662   7.262   8.427
 2990POPC   C3A39005  37.638   7.470   8.076
 2990POPC   C4A39006  37.793   7.649   7.729
 2990POPC   C1B39007  38.098   7.161   8.688
 2990POPC   C2B39008  38.293   7.116   8.276
 2990POPC   C3B39009  38.033   7.196   7.910
 2990POPC   C4B39010  37.821   7.140   7.526
 2991POPC   NC339011  20.964  35.514   9.630
 2991POPC   PO439012  21.533  35.564   9.442
 2991POPC   GL139013  21.398  35.457   9.045
 2991POPC   GL239014  21.082  35.371   9.145
 2991POPC   C1A39015  21.226  35.697   8.708
 2991POPC   D2A39016  21.254  35.789   8.266
 2991POPC   C3A39017  21.534  35.458   8.086
 2991POPC   C4A39018  21.443  35.261   7.704
 2991POPC   C1B39019  20.979  35.225   8.769
 2991POPC   C2B39020  21.172  35.264   8.395
 2991POPC   C3B39021  21.021  35.261   7.987
 2991POPC   C4B39022  21.110  34.880   7.752
 2992POPC   NC339023  12.991  34.252   9.285
 2992POPC   PO439024  12.633  34.609   9.720
 2992POPC   GL139025  12.717  34.669   9.228
 2992POPC   GL239026  12.531  34.331   9.103
 2992POPC   C1A39027  12.952  34.787   8.812
 2992POPC   D2A39028  13.174  34.725   8.384
 2992POPC   C3A39029  12.920  34.736   8.006
 2992POPC   C4A39030  12.879  34.597   7.563
 2992POPC   C1B39031  12.657  34.395   8.701
 2992POPC   C2B39032  12.552  34.591   8.322
 2992POPC   C3B39033  12.555  34.377   7.878
 2992POPC   C4B39034  12.493  34.311   7.415
 2993POPC   NC339035  10.842  16.322   9.552
 2993POPC   PO439036  10.391  15.810   9.638
 2993POPC   GL139037  10.629  15.730   9.280
 2993POPC   GL239038  10.500  16.042   9.172
 2993POPC   C1A39039  10.613  15.603   8.844
 2993POPC   D2A39040  10.447  15.705   8.438
 2993POPC   C3A39041  10.700  15.621   8.089
 2993POPC   C4A39042  10.815  15.789   7.681
 2993POPC   C1B39043  10.541  16.163   8.759
 2993POPC   C2B39044  10.375  16.222   8.363
 2993POPC   C3B39045  10.632  16.123   8.019
 2993POPC   C4B39046  10.887  16.330   7.705
 2994POPC   NC339047  43.517  28.234   9.343
 2994POPC   PO439048  42.876  28.089   9.387
 2994POPC   GL139049  43.109  28.359   9.090
 2994POPC   GL239050  43.390  28.197   8.845
 2994POPC   C1A39051  43.094  28.582   8.716
 2994POPC   D2A39052  43.201  28.390   8.372
 2994POPC   C3A39053  43.150  28.531   7.984
 2994POPC   C4A39054  43.382  28.228   7.851
 2994POPC   C1B39055  42.925  28.108   8.707
 2994POPC   C2B39056  42.599  28.050   8.441
 2994POPC   C3B39057  42.887  28.040   8.142
 2994POPC   C4B39058  42.880  28.153   7.750
 2995POPC   NC339059  33.152  15.041   9.441
 2995POPC   PO439060  32.853  15.705   9.423
 2995POPC   GL139061  33.025  15.450   9.104
 2995POPC   GL239062  32.831  15.138   9.044
 2995POPC   C1A39063  33.237  15.214   8.773
 2995POPC   D2A39064  33.413  15.214   8.403
 2995POPC   C3A39065  33.065  15.207   8.138
 2995POPC   C4A39066  33.172  15.202   7.746
 2995POPC   C1B39067  32.907  14.773   8.786
 2995POPC   C2B39068  33.063  14.744   8.360
 2995POPC   C3B39069  32.797  14.778   7.963
 2995POPC   C4B39070  32.789  14.953   7.536
 2996POPC   NC339071  33.695  24.203   9.474
 2996POPC   PO439072  34.023  24.856   9.371
 2996POPC   GL139073  34.042  24.464   9.195
 2996POPC   GL239074  33.710  24.547   9.102
 2996POPC   C1A39075  33.964  24.237   8.795
 2996POPC   D2A39076  34.146  24.206   8.406
 2996POPC   C3A39077  33.982  24.298   8.014
 2996POPC   C4A39078  33.681  24.198   7.742
 2996POPC   C1B39079  33.580  24.595   8.733
 2996POPC   C2B39080  33.581  24.474   8.327
 2996POPC   C3B39081  33.643  24.702   7.963
 2996POPC   C4B39082  33.353  24.587   7.669
 2997POPC   NC339083  17.104  11.440   9.537
 2997POPC   PO439084  17.694  11.128   9.507
 2997POPC   GL139085  17.576  11.340   9.152
 2997POPC   GL239086  17.258  11.208   9.106
 2997POPC   C1A39087  17.584  11.373   8.705
 2997POPC   D2A39088  17.447  11.664   8.422
 2997POPC   C3A39089  17.580  11.545   8.066
 2997POPC   C4A39090  17.455  11.483   7.691
 2997POPC   C1B39091  17.301  10.948   8.746
 2997POPC   C2B39092  17.321  11.123   8.337
 2997POPC   C3B39093  17.451  11.029   7.949
 2997POPC   C4B39094  17.245  11.011   7.598
 2998POPC   NC339095   7.574  10.989   9.324
 2998POPC   PO439096   7.156  11.579   9.428
 2998POPC   GL139097   7.275  11.428   9.003
 2998POPC   GL239098   7.186  11.069   8.969
 2998POPC   C1A39099   7.568  11.659   8.705
 2998POPC   D2A39100   7.561  11.763   8.267
 2998POPC   C3A39101   7.393  11.377   8.071
 2998POPC   C4A39102   7.187  11.244   7.679
 2998POPC   C1B39103   7.301  11.062   8.518
 2998POPC   C2B39104   7.623  10.926   8.216
 2998POPC   C3B39105   7.774  11.127   7.830
 2998POPC   C4B39106   7.654  11.049   7.396
 2999POPC   NC339107   1.329   4.695   9.753
 2999POPC   PO439108   1.468   5.401   9.470
 2999POPC   GL139109   1.390   5.229   9.049
 2999POPC   GL239110   1.112   5.021   9.074
 2999POPC   C1A39111   1.169   5.313   8.640
 2999POPC   D2A39112   1.046   5.271   8.194
 2999POPC   C3A39113   1.273   5.444   7.829
 2999POPC   C4A39114   1.238   5.146   7.462
 2999POPC   C1B39115   0.906   4.869   8.702
 2999POPC   C2B39116   0.672   4.925   8.327
 2999POPC   C3B39117   0.760   4.888   7.905
 2999POPC   C4B39118   0.811   4.791   7.472
 3000POPC   NC339119   6.134  24.318   9.605
 3000POPC   PO439120   5.496  24.447   9.502
 3000POPC   GL139121   5.817  24.490   9.207
 3000POPC   GL239122   6.039  24.780   9.320
 3000POPC   C1A39123   5.736  24.403   8.777
 3000POPC   D2A39124   5.885  24.564   8.402
 3000POPC   C3A39125   5.830  24.422   8.003
 3000POPC   C4A39126   5.690  24.401   7.598
 3000POPC   C1B39127   6.077  24.817   8.864
 3000POPC   C2B39128   6.304  24.834   8.461
 3000POPC   C3B39129   6.140  24.873   8.065
 3000POPC   C4B39130   6.282  24.881   7.688
 3001POPC   NC339131   8.273  20.197   9.489
 3001POPC   PO439132   8.213  20.850   9.482
 3001POPC   GL139133   8.284  20.588   9.089
 3001POPC   GL239134   8.131  20.261   9.000
 3001POPC   C1A39135   8.528  20.527   8.690
 3001POPC   D2A39136   8.548  20.382   8.268
 3001POPC   C3A39137   8.587  20.763   8.033
 3001POPC   C4A39138   8.422  20.852   7.658
 3001POPC   C1B39139   8.010  20.575   8.665
 3001POPC   C2B39140   7.701  20.708   8.379
 3001POPC   C3B39141   7.668  20.561   7.969
 3001POPC   C4B39142   8.080  20.373   7.947
 3002POPC   NC339143  25.790  34.067   9.634
 3002POPC   PO439144  25.889  33.420   9.746
 3002POPC   GL139145  25.910  33.685   9.311
 3002POPC   GL239146  26.135  33.942   9.229
 3002POPC   C1A39147  25.897  33.627   8.845
 3002POPC   D2A39148  26.070  33.668   8.418
 3002POPC   C3A39149  25.936  33.515   7.991
 3002POPC   C4A39150  26.039  33.558   7.519
 3002POPC   C1B39151  25.807  34.117   8.938
 3002POPC   C2B39152  25.794  34.250   8.496
 3002POPC   C3B39153  25.810  33.998   8.129
 3002POPC   C4B39154  25.643  33.859   7.751
 3003POPC   NC339155  13.404  36.461   9.499
 3003POPC   PO439156  13.818  35.882   9.395
 3003POPC   GL139157  13.575  36.153   9.112
 3003POPC   GL239158  13.668  36.517   9.048
 3003POPC   C1A39159  13.587  36.188   8.676
 3003POPC   D2A39160  13.436  35.973   8.366
 3003POPC   C3A39161  13.671  36.143   8.075
 3003POPC   C4A39162  13.631  36.019   7.704
 3003POPC   C1B39163  13.259  36.556   8.820
 3003POPC   C2B39164  13.120  36.411   8.412
 3003POPC   C3B39165  13.275  36.478   8.002
 3003POPC   C4B39166  13.447  36.654   7.619
 3004POPC   NC339167  37.735   0.512   9.842
 3004POPC   PO439168  38.020  44.993   9.615
 3004POPC   GL139169  37.766   0.304   9.338
 3004POPC   GL239170  37.890   0.581   9.069
 3004POPC   C1A39171  37.493   0.283   8.976
 3004POPC   D2A39172  37.432   0.521   8.576
 3004POPC   C3A39173  37.681   0.382   8.201
 3004POPC   C4A39174  37.501   0.251   7.806
 3004POPC   C1B39175  37.905   0.392   8.706
 3004POPC   C2B39176  38.127   0.553   8.453
 3004POPC   C3B39177  38.194   0.591   8.087
 3004POPC   C4B39178  37.982   0.449   7.763
 3005POPC   NC339179   9.849   0.040   9.892
 3005POPC   PO439180   9.791   0.642   9.673
 3005POPC   GL139181   9.753   0.610   9.244
 3005POPC   GL239182   9.683   0.249   9.330
 3005POPC   C1A39183   9.801   0.718   8.814
 3005POPC   D2A39184  10.017   0.503   8.512
 3005POPC   C3A39185   9.796   0.510   8.149
 3005POPC   C4A39186   9.759   0.607   7.719
 3005POPC   C1B39187   9.813   0.192   8.905
 3005POPC   C2B39188   9.678   0.126   8.467
 3005POPC   C3B39189   9.768   0.001   8.041
 3005POPC   C4B39190   9.585   0.100   7.652
 3006POPC   NC339191  29.267  12.719   9.630
 3006POPC   PO439192  28.745  13.101   9.499
 3006POPC   GL139193  28.970  12.951   9.124
 3006POPC   GL239194  29.158  12.668   9.147
 3006POPC   C1A39195  29.174  12.887   8.705
 3006POPC   D2A39196  28.945  12.877   8.342
 3006POPC   C3A39197  29.050  13.085   7.984
 3006POPC   C4A39198  29.407  13.167   7.729
 3006POPC   C1B39199  28.878  12.465   8.815
 3006POPC   C2B39200  28.703  12.422   8.382
 3006POPC   C3B39201  28.893  12.524   7.978
 3006POPC   C4B39202  29.312  12.653   7.857
 3007POPC   NC339203  19.182  37.014   9.626
 3007POPC   PO439204  18.679  37.016   9.185
 3007POPC   GL139205  19.115  37.022   9.048
 3007POPC   GL239206  19.275  36.730   9.193
 3007POPC   C1A39207  19.114  37.032   8.586
 3007POPC   D2A39208  18.742  37.223   8.315
 3007POPC   C3A39209  18.741  37.054   7.882
 3007POPC   C4A39210  18.802  36.958   7.409
 3007POPC   C1B39211  19.480  36.724   8.808
 3007POPC   C2B39212  19.450  36.522   8.445
 3007POPC   C3B39213  19.413  36.694   8.054
 3007POPC   C4B39214  19.156  36.786   7.731
 3008POPC   NC339215  39.692  33.409   9.769
 3008POPC   PO439216  40.230  33.720   9.449
 3008POPC   GL139217  40.105  33.846   9.078
 3008POPC   GL239218  39.811  34.022   9.107
 3008POPC   C1A39219  40.172  33.702   8.685
 3008POPC   D2A39220  39.884  33.568   8.407
 3008POPC   C3A39221  40.075  33.566   8.017
 3008POPC   C4A39222  39.878  33.674   7.660
 3008POPC   C1B39223  39.733  34.251   8.744
 3008POPC   C2B39224  39.835  34.359   8.333
 3008POPC   C3B39225  39.858  34.054   8.011
 3008POPC   C4B39226  39.894  34.188   7.576
 3009POPC   NC339227  35.524  27.359   9.388
 3009POPC   PO439228  35.036  27.836   9.562
 3009POPC   GL139229  35.131  28.018   9.129
 3009POPC   GL239230  35.468  28.023   9.076
 3009POPC   C1A39231  35.077  27.858   8.695
 3009POPC   D2A39232  34.945  27.549   8.350
 3009POPC   C3A39233  35.162  27.534   7.943
 3009POPC   C4A39234  35.408  27.730   7.618
 3009POPC   C1B39235  35.641  27.759   8.731
 3009POPC   C2B39236  35.501  27.608   8.326
 3009POPC   C3B39237  35.691  27.465   7.940
 3009POPC   C4B39238  35.958  27.730   7.687
 3010POPC   NC339239  26.454  20.705   9.424
 3010POPC   PO439240  26.985  20.356   9.574
 3010POPC   GL139241  26.824  20.430   9.190
 3010POPC   GL239242  26.943  20.766   9.208
 3010POPC   C1A39243  26.971  20.463   8.778
 3010POPC   D2A39244  26.853  20.461   8.352
 3010POPC   C3A39245  27.063  20.248   8.022
 3010POPC   C4A39246  26.901  20.237   7.612
 3010POPC   C1B39247  26.746  20.940   8.864
 3010POPC   C2B39248  26.860  21.023   8.469
 3010POPC   C3B39249  26.637  20.947   8.120
 3010POPC   C4B39250  26.713  20.749   7.747
 3011POPC   NC339251  26.886   7.807   9.678
 3011POPC   PO439252  26.378   8.239   9.665
 3011POPC   GL139253  26.793   8.208   9.361
 3011POPC   GL239254  26.801   7.891   9.154
 3011POPC   C1A39255  26.878   8.359   8.913
 3011POPC   D2A39256  27.011   8.358   8.455
 3011POPC   C3A39257  26.808   8.366   8.047
 3011POPC   C4A39258  26.875   8.407   7.638
 3011POPC   C1B39259  26.989   7.907   8.724
 3011POPC   C2B39260  26.824   7.887   8.285
 3011POPC   C3B39261  26.871   7.913   7.815
 3011POPC   C4B39262  26.550   8.042   7.531
 3012POPC   NC339263  13.068  11.275   9.301
 3012POPC   PO439264  12.405  10.968   9.397
 3012POPC   GL139265  12.532  11.078   8.972
 3012POPC   GL239266  12.841  10.877   8.955
 3012POPC   C1A39267  12.755  11.264   8.576
 3012POPC   D2A39268  13.131  11.362   8.339
 3012POPC   C3A39269  13.013  11.542   7.942
 3012POPC   C4A39270  12.572  11.630   7.853
 3012POPC   C1B39271  12.677  10.762   8.518
 3012POPC   C2B39272  12.830  10.973   8.135
 3012POPC   C3B39273  12.718  11.153   7.702
 3012POPC   C4B39274  12.641  11.070   7.229
 3013POPC   NC339275  27.671  10.600   9.719
 3013POPC   PO439276  27.531   9.997   9.527
 3013POPC   GL139277  27.718  10.367   9.246
 3013POPC   GL239278  27.479  10.298   9.009
 3013POPC   C1A39279  27.742  10.698   8.834
 3013POPC   D2A39280  27.884  10.586   8.373
 3013POPC   C3A39281  27.701  10.667   7.926
 3013POPC   C4A39282  27.875  10.685   7.424
 3013POPC   C1B39283  27.285  10.263   8.620
 3013POPC   C2B39284  27.414  10.380   8.261
 3013POPC   C3B39285  27.307  10.266   7.881
 3013POPC   C4B39286  27.430  10.464   7.535
 3014POPC   NC339287  30.316  18.373   9.474
 3014POPC   PO439288  30.984  18.437   9.356
 3014POPC   GL139289  30.668  18.291   9.088
 3014POPC   GL239290  30.494  18.594   9.070
 3014POPC   C1A39291  30.712  18.065   8.695
 3014POPC   D2A39292  30.607  17.875   8.308
 3014POPC   C3A39293  30.675  18.013   7.925
 3014POPC   C4A39294  30.916  18.357   7.801
 3014POPC   C1B39295  30.705  18.582   8.661
 3014POPC   C2B39296  30.593  18.416   8.266
 3014POPC   C3B39297  30.420  18.475   7.860
 3014POPC   C4B39298  30.603  18.618   7.450
 3015POPC   NC339299  29.912  24.108   9.582
 3015POPC   PO439300  29.713  24.713   9.391
 3015POPC   GL139301  29.942  24.504   9.091
 3015POPC   GL239302  30.044  24.158   9.091
 3015POPC   C1A39303  29.776  24.348   8.711
 3015POPC   D2A39304  29.650  24.104   8.379
 3015POPC   C3A39305  29.655  24.436   8.085
 3015POPC   C4A39306  29.775  24.553   7.668
 3015POPC   C1B39307  30.192  24.038   8.655
 3015POPC   C2B39308  30.114  24.306   8.283
 3015POPC   C3B39309  30.245  24.500   7.882
 3015POPC   C4B39310  30.420  24.891   7.645
 3016POPC   NC339311  38.139  44.598   9.812
 3016POPC   PO439312  38.762  44.697   9.515
 3016POPC   GL139313  38.430  44.562   9.244
 3016POPC   GL239314  38.536  44.819   9.048
 3016POPC   C1A39315  38.205  44.532   8.803
 3016POPC   D2A39316  37.980  44.379   8.435
 3016POPC   C3A39317  38.125  44.544   8.029
 3016POPC   C4A39318  38.532  44.672   7.849
 3016POPC   C1B39319  38.742  44.967   8.729
 3016POPC   C2B39320  38.880  44.733   8.385
 3016POPC   C3B39321  39.014  44.806   7.984
 3016POPC   C4B39322  38.801   0.095   7.687
 3017POPC   NC339323   9.758   1.108   9.557
 3017POPC   PO439324   9.846   1.763   9.672
 3017POPC   GL139325   9.834   1.461   9.195
 3017POPC   GL239326   9.627   1.131   9.082
 3017POPC   C1A39327   9.976   1.288   8.742
 3017POPC   D2A39328   9.904   0.989   8.363
 3017POPC   C3A39329   9.908   1.128   7.911
 3017POPC   C4A39330   9.617   1.417   7.648
 3017POPC   C1B39331   9.323   0.906   8.855
 3017POPC   C2B39332   9.390   1.055   8.461
 3017POPC   C3B39333   9.473   0.911   8.073
 3017POPC   C4B39334   9.399   0.961   7.676
 3018POPC   NC339335  28.933   5.903   9.439
 3018POPC   PO439336  29.566   5.973   9.477
 3018POPC   GL139337  29.351   5.754   9.157
 3018POPC   GL239338  29.268   6.104   9.100
 3018POPC   C1A39339  29.234   5.783   8.714
 3018POPC   D2A39340  28.996   6.007   8.425
 3018POPC   C3A39341  28.989   5.902   8.031
 3018POPC   C4A39342  28.652   6.012   7.753
 3018POPC   C1B39343  29.234   6.302   8.743
 3018POPC   C2B39344  29.365   6.349   8.333
 3018POPC   C3B39345  29.331   6.277   7.917
 3018POPC   C4B39346  29.137   6.041   7.560
 3019POPC   NC339347  15.574   9.779   9.499
 3019POPC   PO439348  16.209   9.599   9.335
 3019POPC   GL139349  15.847   9.694   9.078
 3019POPC   GL239350  15.817  10.071   9.156
 3019POPC   C1A39351  15.847   9.487   8.672
 3019POPC   D2A39352  16.180   9.254   8.442
 3019POPC   C3A39353  16.239   9.516   8.083
 3019POPC   C4A39354  15.903   9.739   7.822
 3019POPC   C1B39355  15.975  10.046   8.728
 3019POPC   C2B39356  16.001   9.951   8.286
 3019POPC   C3B39357  16.011  10.220   7.917
 3019POPC   C4B39358  15.885  10.151   7.508
 3020POPC   NC339359  22.150  26.801   9.343
 3020POPC   PO439360  22.189  27.394   9.631
 3020POPC   GL139361  22.103  27.626   9.243
 3020POPC   GL239362  22.172  27.976   9.254
 3020POPC   C1A39363  22.203  27.514   8.814
 3020POPC   D2A39364  22.337  27.287   8.456
 3020POPC   C3A39365  22.267  27.520   8.096
 3020POPC   C4A39366  22.462  27.646   7.715
 3020POPC   C1B39367  22.293  28.028   8.803
 3020POPC   C2B39368  22.412  27.916   8.389
 3020POPC   C3B39369  22.408  28.086   7.961
 3020POPC   C4B39370  22.142  28.053   7.574
 3021POPC   NC339371  20.222  23.220   9.599
 3021POPC   PO439372  19.921  22.682   9.551
 3021POPC   GL139373  19.870  22.989   9.261
 3021POPC   GL239374  19.674  22.813   9.059
 3021POPC   C1A39375  20.086  23.024   8.847
 3021POPC   D2A39376  19.878  23.024   8.459
 3021POPC   C3A39377  20.013  22.924   8.072
 3021POPC   C4A39378  19.885  22.987   7.682
 3021POPC   C1B39379  19.487  22.785   8.642
 3021POPC   C2B39380  19.365  22.604   8.251
 3021POPC   C3B39381  19.599  22.612   7.853
 3021POPC   C4B39382  19.605  22.658   7.381
 3022POPC   NC339383  33.630  17.260   9.333
 3022POPC   PO439384  33.560  17.876   9.477
 3022POPC   GL139385  33.706  17.690   9.076
 3022POPC   GL239386  34.036  17.520   9.144
 3022POPC   C1A39387  33.570  17.431   8.692
 3022POPC   D2A39388  33.490  17.463   8.258
 3022POPC   C3A39389  33.717  17.379   7.875
 3022POPC   C4A39390  33.603  17.577   7.463
 3022POPC   C1B39391  34.052  17.565   8.705
 3022POPC   C2B39392  34.028  17.459   8.276
 3022POPC   C3B39393  34.198  17.546   7.887
 3022POPC   C4B39394  34.068  17.764   7.540
 3023POPC   NC339395  25.075  19.600   9.827
 3023POPC   PO439396  25.596  20.006   9.543
 3023POPC   GL139397  25.402  19.676   9.221
 3023POPC   GL239398  25.063  19.815   9.003
 3023POPC   C1A39399  25.465  19.636   8.770
 3023POPC   D2A39400  25.132  19.806   8.487
 3023POPC   C3A39401  25.205  19.720   8.074
 3023POPC   C4A39402  25.372  19.807   7.708
 3023POPC   C1B39403  25.126  20.233   8.758
 3023POPC   C2B39404  24.912  20.368   8.376
 3023POPC   C3B39405  24.738  20.022   8.139
 3023POPC   C4B39406  24.870  19.904   7.734
 3024POPC   NC339407  24.455  21.828   9.468
 3024POPC   PO439408  24.805  21.259   9.721
 3024POPC   GL139409  24.498  21.294   9.311
 3024POPC   GL239410  24.347  21.540   9.064
 3024POPC   C1A39411  24.523  21.097   8.878
 3024POPC   D2A39412  24.242  21.216   8.540
 3024POPC   C3A39413  24.467  21.228   8.150
 3024POPC   C4A39414  24.395  21.494   7.819
 3024POPC   C1B39415  24.624  21.552   8.670
 3024POPC   C2B39416  24.881  21.515   8.331
 3024POPC   C3B39417  24.884  21.708   7.943
 3024POPC   C4B39418  24.851  21.502   7.551
 3025POPC   NC339419   8.833  19.060   9.554
 3025POPC   PO439420   9.428  19.186   9.466
 3025POPC   GL139421   9.287  19.000   9.091
 3025POPC   GL239422   8.938  18.897   9.098
 3025POPC   C1A39423   9.106  19.190   8.720
 3025POPC   D2A39424   8.839  19.103   8.363
 3025POPC   C3A39425   8.968  19.143   7.932
 3025POPC   C4A39426   9.161  19.141   7.527
 3025POPC   C1B39427   8.634  18.709   8.825
 3025POPC   C2B39428   8.429  18.801   8.433
 3025POPC   C3B39429   8.587  18.761   8.011
 3025POPC   C4B39430   8.758  18.783   7.582
 3026POPC   NC339431   5.481  36.657   9.713
 3026POPC   PO439432   4.880  36.898   9.507
 3026POPC   GL139433   5.024  36.794   9.136
 3026POPC   GL239434   5.260  36.544   9.251
 3026POPC   C1A39435   5.072  37.065   8.794
 3026POPC   D2A39436   5.323  37.025   8.462
 3026POPC   C3A39437   5.190  37.185   8.089
 3026POPC   C4A39438   5.031  37.232   7.688
 3026POPC   C1B39439   5.324  36.539   8.811
 3026POPC   C2B39440   5.003  36.626   8.510
 3026POPC   C3B39441   5.002  36.692   8.082
 3026POPC   C4B39442   5.261  36.508   7.752
 3027POPC   NC339443   9.531  34.895   9.543
 3027POPC   PO439444  10.087  35.299   9.554
 3027POPC   GL139445   9.785  35.261   9.217
 3027POPC   GL239446   9.416  35.266   9.183
 3027POPC   C1A39447   9.878  35.298   8.785
 3027POPC   D2A39448   9.785  35.579   8.444
 3027POPC   C3A39449  10.028  35.654   8.055
 3027POPC   C4A39450   9.776  35.397   7.809
 3027POPC   C1B39451   9.389  35.141   8.739
 3027POPC   C2B39452   9.681  35.054   8.376
 3027POPC   C3B39453   9.633  34.943   7.937
 3027POPC   C4B39454   9.421  35.001   7.559
 3028POPC   NC339455  36.012  30.414   9.449
 3028POPC   PO439456  36.465  30.948   9.452
 3028POPC   GL139457  36.268  30.725   9.114
 3028POPC   GL239458  35.996  30.870   8.966
 3028POPC   C1A39459  36.324  30.595   8.682
 3028POPC   D2A39460  36.517  30.611   8.253
 3028POPC   C3A39461  36.219  30.548   7.911
 3028POPC   C4A39462  36.185  30.712   7.458
 3028POPC   C1B39463  35.699  31.015   8.666
 3028POPC   C2B39464  35.701  31.063   8.225
 3028POPC   C3B39465  35.828  30.879   7.852
 3028POPC   C4B39466  35.743  30.983   7.407
 3029POPC   NC339467  37.808  32.799   9.449
 3029POPC   PO439468  37.445  32.171   9.543
 3029POPC   GL139469  37.471  32.287   9.091
 3029POPC   GL239470  37.729  32.505   9.063
 3029POPC   C1A39471  37.680  32.293   8.627
 3029POPC   D2A39472  37.978  32.061   8.357
 3029POPC   C3A39473  37.837  32.070   7.959
 3029POPC   C4A39474  37.507  32.284   7.762
 3029POPC   C1B39475  37.935  32.739   8.739
 3029POPC   C2B39476  38.111  32.573   8.341
 3029POPC   C3B39477  37.875  32.573   7.972
 3029POPC   C4B39478  37.778  32.732   7.583
 3030POPC   NC339479  35.650  16.763   9.567
 3030POPC   PO439480  35.028  17.094   9.459
 3030POPC   GL139481  35.410  16.947   9.138
 3030POPC   GL239482  35.565  16.602   9.090
 3030POPC   C1A39483  35.343  16.957   8.735
 3030POPC   D2A39484  35.063  16.840   8.431
 3030POPC   C3A39485  35.258  16.929   8.060
 3030POPC   C4A39486  35.301  17.106   7.635
 3030POPC   C1B39487  35.372  16.433   8.707
 3030POPC   C2B39488  35.413  16.217   8.301
 3030POPC   C3B39489  35.451  16.352   7.874
 3030POPC   C4B39490  35.160  16.612   7.679
 3031POPC   NC339491  21.882   6.210   9.551
 3031POPC   PO439492  22.265   5.743   9.611
 3031POPC   GL139493  22.156   5.883   9.210
 3031POPC   GL239494  22.470   5.941   9.119
 3031POPC   C1A39495  22.150   5.762   8.764
 3031POPC   D2A39496  21.985   5.587   8.415
 3031POPC   C3A39497  22.088   5.734   8.037
 3031POPC   C4A39498  22.131   5.512   7.689
 3031POPC   C1B39499  22.491   6.135   8.764
 3031POPC   C2B39500  22.612   6.016   8.394
 3031POPC   C3B39501  22.469   6.075   8.011
 3031POPC   C4B39502  22.336   5.998   7.640
 3032POPC   NC339503  23.337  39.683   9.594
 3032POPC   PO439504  23.994  39.824   9.547
 3032POPC   GL139505  23.706  39.918   9.212
 3032POPC   GL239506  23.458  39.701   9.060
 3032POPC   C1A39507  23.794  40.068   8.808
 3032POPC   D2A39508  23.646  40.120   8.396
 3032POPC   C3A39509  23.940  40.206   8.103
 3032POPC   C4A39510  23.892  39.927   7.767
 3032POPC   C1B39511  23.620  39.632   8.608
 3032POPC   C2B39512  23.650  39.648   8.133
 3032POPC   C3B39513  23.566  39.550   7.684
 3032POPC   C4B39514  23.323  39.751   7.367
 3033POPC   NC339515   9.991  14.910   9.578
 3033POPC   PO439516   9.690  15.472   9.531
 3033POPC   GL139517   9.820  15.221   9.214
 3033POPC   GL239518   9.484  15.103   9.119
 3033POPC   C1A39519   9.930  14.933   8.863
 3033POPC   D2A39520   9.757  14.919   8.446
 3033POPC   C3A39521   9.990  14.828   8.078
 3033POPC   C4A39522  10.127  15.015   7.701
 3033POPC   C1B39523   9.668  15.388   8.775
 3033POPC   C2B39524   9.755  15.440   8.380
 3033POPC   C3B39525   9.795  15.294   8.012
 3033POPC   C4B39526   9.902  15.553   7.718
 3034POPC   NC339527  11.117   4.230   9.489
 3034POPC   PO439528  11.728   3.845   9.524
 3034POPC   GL139529  11.569   4.216   9.178
 3034POPC   GL239530  11.282   4.508   9.110
 3034POPC   C1A39531  11.499   4.315   8.714
 3034POPC   D2A39532  11.305   4.276   8.348
 3034POPC   C3A39533  11.585   4.213   8.004
 3034POPC   C4A39534  11.320   4.064   7.671
 3034POPC   C1B39535  10.986   4.737   8.839
 3034POPC   C2B39536  11.062   4.776   8.395
 3034POPC   C3B39537  11.236   4.620   7.983
 3034POPC   C4B39538  11.036   4.491   7.593
 3035POPC   NC339539  36.524  41.646   9.594
 3035POPC   PO439540  35.917  41.429   9.820
 3035POPC   GL139541  35.907  41.567   9.280
 3035POPC   GL239542  36.199  41.484   9.093
 3035POPC   C1A39543  35.788  41.564   8.806
 3035POPC   D2A39544  36.062  41.723   8.466
 3035POPC   C3A39545  36.088  41.613   7.993
 3035POPC   C4A39546  36.518  41.565   7.755
 3035POPC   C1B39547  36.312  41.304   8.717
 3035POPC   C2B39548  36.465  41.430   8.342
 3035POPC   C3B39549  36.365  41.188   8.058
 3035POPC   C4B39550  36.339  41.085   7.690
 3036POPC   NC339551  39.318  30.469   9.622
 3036POPC   PO439552  38.822  30.849   9.631
 3036POPC   GL139553  38.952  30.642   9.256
 3036POPC   GL239554  39.196  30.869   9.213
 3036POPC   C1A39555  39.085  30.558   8.790
 3036POPC   D2A39556  39.026  30.762   8.388
 3036POPC   C3A39557  38.851  30.651   7.999
 3036POPC   C4A39558  39.150  30.404   7.803
 3036POPC   C1B39559  39.507  30.949   8.893
 3036POPC   C2B39560  39.579  31.012   8.459
 3036POPC   C3B39561  39.444  30.843   8.068
 3036POPC   C4B39562  39.404  31.136   7.755
 3037POPC   NC339563   9.468  18.696   9.465
 3037POPC   PO439564   9.405  17.994   9.363
 3037POPC   GL139565   9.770  18.173   9.139
 3037POPC   GL239566   9.744  18.523   9.064
 3037POPC   C1A39567  10.003  18.093   8.766
 3037POPC   D2A39568   9.953  18.322   8.396
 3037POPC   C3A39569  10.037  18.120   8.054
 3037POPC   C4A39570   9.861  18.078   7.671
 3037POPC   C1B39571   9.559  18.357   8.712
 3037POPC   C2B39572   9.426  18.434   8.314
 3037POPC   C3B39573   9.536  18.392   7.900
 3037POPC   C4B39574   9.729  18.524   7.486
 3038POPC   NC339575  28.064   1.987   9.483
 3038POPC   PO439576  28.733   2.132   9.580
 3038POPC   GL139577  28.493   1.959   9.215
 3038POPC   GL239578  28.333   2.250   9.128
 3038POPC   C1A39579  28.314   1.849   8.800
 3038POPC   D2A39580  28.197   2.009   8.385
 3038POPC   C3A39581  28.332   1.874   8.019
 3038POPC   C4A39582  28.510   1.891   7.629
 3038POPC   C1B39583  28.112   2.331   8.769
 3038POPC   C2B39584  27.905   2.441   8.416
 3038POPC   C3B39585  27.905   2.275   8.016
 3038POPC   C4B39586  28.081   2.164   7.627
 3039POPC   NC339587   4.937   7.657   9.541
 3039POPC   PO439588   5.325   7.086   9.563
 3039POPC   GL139589   5.268   7.382   9.245
 3039POPC   GL239590   4.951   7.280   9.162
 3039POPC   C1A39591   5.270   7.452   8.803
 3039POPC   D2A39592   5.180   7.675   8.439
 3039POPC   C3A39593   5.411   7.609   8.060
 3039POPC   C4A39594   5.262   7.655   7.642
 3039POPC   C1B39595   4.696   7.155   8.827
 3039POPC   C2B39596   4.877   7.268   8.453
 3039POPC   C3B39597   4.902   7.484   8.063
 3039POPC   C4B39598   4.715   7.297   7.719
 3040POPC   NC339599  40.461  42.699   9.557
 3040POPC   PO439600  40.562  42.008   9.436
 3040POPC   GL139601  40.879  42.174   9.131
 3040POPC   GL239602  40.727  42.472   9.135
 3040POPC   C1A39603  40.994  42.305   8.704
 3040POPC   D2A39604  40.693  42.270   8.389
 3040POPC   C3A39605  40.803  42.140   8.015
 3040POPC   C4A39606  40.945  42.316   7.655
 3040POPC   C1B39607  40.638  42.659   8.722
 3040POPC   C2B39608  40.749  42.783   8.303
 3040POPC   C3B39609  40.597  42.611   7.910
 3040POPC   C4B39610  40.567  42.585   7.449
 3041POPC   NC339611  25.131  24.348   9.457
 3041POPC   PO439612  25.337  25.022   9.511
 3041POPC   GL139613  25.398  24.725   9.158
 3041POPC   GL239614  25.051  24.758   9.144
 3041POPC   C1A39615  25.390  24.320   8.866
 3041POPC   D2A39616  25.402  24.080   8.459
 3041POPC   C3A39617  25.397  24.388   8.151
 3041POPC   C4A39618  25.490  24.566   7.763
 3041POPC   C1B39619  25.020  24.667   8.731
 3041POPC   C2B39620  25.154  24.846   8.363
 3041POPC   C3B39621  25.056  24.766   7.954
 3041POPC   C4B39622  25.058  24.688   7.514
 3042POPC   NC339623  35.714  15.801   9.455
 3042POPC   PO439624  35.210  16.236   9.423
 3042POPC   GL139625  35.237  15.982   9.098
 3042POPC   GL239626  35.547  16.074   9.033
 3042POPC   C1A39627  35.152  15.962   8.672
 3042POPC   D2A39628  34.828  15.875   8.445
 3042POPC   C3A39629  34.877  15.796   8.036
 3042POPC   C4A39630  35.004  15.915   7.638
 3042POPC   C1B39631  35.522  15.667   8.814
 3042POPC   C2B39632  35.491  15.645   8.363
 3042POPC   C3B39633  35.422  15.831   7.947
 3042POPC   C4B39634  35.454  15.696   7.516
 3043POPC   NC339635  17.162  32.428   9.579
 3043POPC   PO439636  17.683  32.001   9.630
 3043POPC   GL139637  17.394  32.066   9.302
 3043POPC   GL239638  17.567  32.370   9.256
 3043POPC   C1A39639  17.274  32.228   8.884
 3043POPC   D2A39640  17.292  32.066   8.477
 3043POPC   C3A39641  17.381  32.260   8.113
 3043POPC   C4A39642  17.180  32.309   7.743
 3043POPC   C1B39643  17.780  32.223   8.867
 3043POPC   C2B39644  17.743  32.416   8.461
 3043POPC   C3B39645  17.853  32.422   8.028
 3043POPC   C4B39646  17.585  32.583   7.745
 3044POPC   NC339647  34.755  29.694   9.402
 3044POPC   PO439648  34.133  29.963   9.501
 3044POPC   GL139649  34.354  29.904   9.124
 3044POPC   GL239650  34.530  29.650   8.963
 3044POPC   C1A39651  34.461  30.153   8.778
 3044POPC   D2A39652  34.519  30.196   8.373
 3044POPC   C3A39653  34.681  29.891   8.095
 3044POPC   C4A39654  34.606  30.040   7.676
 3044POPC   C1B39655  34.453  29.660   8.550
 3044POPC   C2B39656  34.162  29.633   8.254
 3044POPC   C3B39657  34.243  29.731   7.866
 3044POPC   C4B39658  34.310  29.694   7.450
 3045POPC   NC339659  37.398   4.860   9.513
 3045POPC   PO439660  37.900   5.392   9.556
 3045POPC   GL139661  37.654   5.244   9.218
 3045POPC   GL239662  37.709   4.907   9.134
 3045POPC   C1A39663  37.570   5.240   8.781
 3045POPC   D2A39664  37.313   5.201   8.428
 3045POPC   C3A39665  37.590   5.318   8.118
 3045POPC   C4A39666  37.685   5.196   7.740
 3045POPC   C1B39667  37.801   4.743   8.762
 3045POPC   C2B39668  37.757   4.897   8.354
 3045POPC   C3B39669  37.835   4.711   7.949
 3045POPC   C4B39670  38.006   4.836   7.547
 3046POPC   NC339671   7.168  41.711   9.492
 3046POPC   PO439672   6.517  41.536   9.552
 3046POPC   GL139673   6.534  41.418   9.147
 3046POPC   GL239674   6.835  41.613   9.130
 3046POPC   C1A39675   6.692  41.344   8.734
 3046POPC   D2A39676   6.540  41.511   8.386
 3046POPC   C3A39677   6.451  41.301   8.022
 3046POPC   C4A39678   6.731  41.578   7.854
 3046POPC   C1B39679   7.029  41.845   8.822
 3046POPC   C2B39680   7.042  41.632   8.444
 3046POPC   C3B39681   7.211  41.637   8.054
 3046POPC   C4B39682   7.168  41.862   7.719
 3047POPC   NC339683  24.521  41.064   9.400
 3047POPC   PO439684  24.383  40.433   9.424
 3047POPC   GL139685  24.519  40.611   9.075
 3047POPC   GL239686  24.199  40.794   9.047
 3047POPC   C1A39687  24.498  40.722   8.646
 3047POPC   D2A39688  24.410  40.737   8.245
 3047POPC   C3A39689  24.685  40.884   7.963
 3047POPC   C4A39690  24.692  40.735   7.561
 3047POPC   C1B39691  24.168  41.128   8.718
 3047POPC   C2B39692  24.116  41.150   8.264
 3047POPC   C3B39693  24.196  40.956   7.846
 3047POPC   C4B39694  24.372  41.135   7.516
 3048POPC   NC339695  44.651  42.399   9.360
 3048POPC   PO439696  44.460  41.753   9.487
 3048POPC   GL139697  44.518  41.981   9.101
 3048POPC   GL239698  44.821  42.084   9.006
 3048POPC   C1A39699  44.406  42.180   8.718
 3048POPC   D2A39700  44.618  42.379   8.373
 3048POPC   C3A39701  44.493  42.374   7.972
 3048POPC   C4A39702  44.283  42.716   7.800
 3048POPC   C1B39703   0.009  42.291   8.725
 3048POPC   C2B39704   0.031  42.095   8.360
 3048POPC   C3B39705   0.016  42.370   8.028
 3048POPC   C4B39706   0.220  42.161   7.764
 3049POPC   NC339707   1.118  41.810   9.630
 3049POPC   PO439708   0.973  41.162   9.448
 3049POPC   GL139709   1.153  41.411   9.114
 3049POPC   GL239710   1.185  41.785   9.124
 3049POPC   C1A39711   1.070  41.450   8.676
 3049POPC   D2A39712   0.845  41.735   8.456
 3049POPC   C3A39713   1.016  41.845   8.067
 3049POPC   C4A39714   0.929  41.635   7.695
 3049POPC   C1B39715   1.496  41.667   8.810
 3049POPC   C2B39716   1.483  41.788   8.384
 3049POPC   C3B39717   1.459  41.591   8.006
 3049POPC   C4B39718   1.398  41.783   7.639
 3050POPC   NC339719   8.434  38.926   9.593
 3050POPC   PO439720   9.018  39.266   9.424
 3050POPC   GL139721   9.102  39.491   9.085
 3050POPC   GL239722   9.308  39.176   9.019
 3050POPC   C1A39723   8.812  39.657   8.749
 3050POPC   D2A39724   8.729  39.472   8.336
 3050POPC   C3A39725   9.044  39.547   7.973
 3050POPC   C4A39726   8.884  39.549   7.522
 3050POPC   C1B39727   9.042  39.188   8.659
 3050POPC   C2B39728   9.129  39.068   8.245
 3050POPC   C3B39729   9.118  39.084   7.794
 3050POPC   C4B39730   9.143  39.066   7.357
 3051POPC   NC339731   4.966  25.718   9.432
 3051POPC   PO439732   5.098  25.042   9.427
 3051POPC   GL139733   4.860  25.239   9.125
 3051POPC   GL239734   4.838  25.548   8.988
 3051POPC   C1A39735   5.050  25.144   8.740
 3051POPC   D2A39736   5.334  25.394   8.517
 3051POPC   C3A39737   5.303  25.231   8.140
 3051POPC   C4A39738   5.098  25.105   7.767
 3051POPC   C1B39739   4.574  25.606   8.662
 3051POPC   C2B39740   4.807  25.409   8.348
 3051POPC   C3B39741   4.944  25.562   7.970
 3051POPC   C4B39742   4.703  25.420   7.641
 3052POPC   NC339743  15.813  12.447   9.647
 3052POPC   PO439744  15.557  11.910   9.571
 3052POPC   GL139745  15.842  12.000   9.235
 3052POPC   GL239746  16.153  12.188   9.361
 3052POPC   C1A39747  15.707  12.069   8.767
 3052POPC   D2A39748  15.437  12.085   8.399
 3052POPC   C3A39749  15.647  12.063   7.983
 3052POPC   C4A39750  15.469  12.115   7.589
 3052POPC   C1B39751  16.169  12.204   8.899
 3052POPC   C2B39752  16.178  12.020   8.474
 3052POPC   C3B39753  16.155  12.176   8.036
 3052POPC   C4B39754  16.269  12.165   7.615
 3053POPC   NC339755   6.567  20.386   9.361
 3053POPC   PO439756   7.012  20.808   9.280
 3053POPC   GL139757   6.845  20.704   8.896
 3053POPC   GL239758   6.466  20.613   8.928
 3053POPC   C1A39759   6.950  20.905   8.482
 3053POPC   D2A39760   6.847  21.049   8.074
 3053POPC   C3A39761   6.594  20.745   7.925
 3053POPC   C4A39762   6.812  20.312   7.789
 3053POPC   C1B39763   6.525  20.629   8.514
 3053POPC   C2B39764   6.745  20.365   8.295
 3053POPC   C3B39765   6.402  20.313   8.085
 3053POPC   C4B39766   6.157  20.506   7.776
 3054POPC   NC339767  24.338  15.193   9.431
 3054POPC   PO439768  24.968  15.477   9.508
 3054POPC   GL139769  24.666  15.499   9.144
 3054POPC   GL239770  24.651  15.165   9.004
 3054POPC   C1A39771  24.395  15.541   8.735
 3054POPC   D2A39772  24.266  15.244   8.379
 3054POPC   C3A39773  24.580  15.205   8.044
 3054POPC   C4A39774  24.743  15.557   7.829
 3054POPC   C1B39775  24.278  14.951   8.809
 3054POPC   C2B39776  24.045  14.767   8.452
 3054POPC   C3B39777  24.005  14.778   8.012
 3054POPC   C4B39778  24.253  14.982   7.721
 3055POPC   NC339779  36.778   1.847   9.441
 3055POPC   PO439780  37.345   2.214   9.494
 3055POPC   GL139781  37.152   2.039   9.148
 3055POPC   GL239782  36.995   2.343   9.098
 3055POPC   C1A39783  36.881   1.979   8.766
 3055POPC   D2A39784  36.646   1.932   8.362
 3055POPC   C3A39785  36.879   1.939   8.003
 3055POPC   C4A39786  36.930   1.917   7.589
 3055POPC   C1B39787  37.243   2.344   8.738
 3055POPC   C2B39788  37.202   2.115   8.363
 3055POPC   C3B39789  37.194   2.331   7.983
 3055POPC   C4B39790  37.370   2.154   7.632
 3056POPC   NC339791  40.725  17.851   9.785
 3056POPC   PO439792  41.150  18.310   9.603
 3056POPC   GL139793  40.903  18.395   9.115
 3056POPC   GL239794  41.027  18.112   8.855
 3056POPC   C1A39795  40.674  18.418   8.700
 3056POPC   D2A39796  40.889  18.220   8.351
 3056POPC   C3A39797  40.690  18.178   7.973
 3056POPC   C4A39798  40.750  18.386   7.607
 3056POPC   C1B39799  41.174  18.559   8.721
 3056POPC   C2B39800  41.141  18.770   8.317
 3056POPC   C3B39801  41.132  18.506   7.949
 3056POPC   C4B39802  41.152  18.073   7.763
 3057POPC   NC339803  43.041  25.127   9.625
 3057POPC   PO439804  42.980  25.719   9.278
 3057POPC   GL139805  42.997  25.238   9.143
 3057POPC   GL239806  42.908  25.324   8.869
 3057POPC   C1A39807  43.260  24.991   8.801
 3057POPC   D2A39808  43.164  25.219   8.411
 3057POPC   C3A39809  43.430  25.278   8.039
 3057POPC   C4A39810  43.357  25.526   7.699
 3057POPC   C1B39811  42.931  25.678   8.622
 3057POPC   C2B39812  42.783  25.716   8.264
 3057POPC   C3B39813  42.926  25.432   8.007
 3057POPC   C4B39814  42.846  25.659   7.687
 3058POPC   NC339815  31.738   3.147   9.352
 3058POPC   PO439816  31.131   2.846   9.369
 3058POPC   GL139817  31.290   2.987   9.008
 3058POPC   GL239818  31.572   2.802   9.016
 3058POPC   C1A39819  31.381   3.004   8.565
 3058POPC   D2A39820  31.785   3.091   8.325
 3058POPC   C3A39821  31.694   2.917   7.927
 3058POPC   C4A39822  31.261   2.866   7.838
 3058POPC   C1B39823  31.771   2.682   8.641
 3058POPC   C2B39824  31.538   2.589   8.267
 3058POPC   C3B39825  31.548   2.423   7.837
 3058POPC   C4B39826  31.749   2.239   7.462
 3059POPC   NC339827  21.002  42.241   9.472
 3059POPC   PO439828  21.558  42.608   9.550
 3059POPC   GL139829  21.363  42.504   9.198
 3059POPC   GL239830  21.455  42.184   9.094
 3059POPC   C1A39831  21.154  42.514   8.822
 3059POPC   D2A39832  21.437  42.392   8.536
 3059POPC   C3A39833  21.392  42.407   8.110
 3059POPC   C4A39834  21.345  42.315   7.698
 3059POPC   C1B39835  21.797  42.152   8.797
 3059POPC   C2B39836  21.804  42.065   8.351
 3059POPC   C3B39837  21.721  42.024   7.904
 3059POPC   C4B39838  21.774  42.176   7.480
 3060POPC   NC339839  28.116  20.601   9.297
 3060POPC   PO439840  28.620  20.129   9.448
 3060POPC   GL139841  28.449  20.259   9.043
 3060POPC   GL239842  28.524  20.594   9.005
 3060POPC   C1A39843  28.290  20.388   8.612
 3060POPC   D2A39844  28.436  20.205   8.259
 3060POPC   C3A39845  28.460  20.374   7.861
 3060POPC   C4A39846  28.080  20.499   7.683
 3060POPC   C1B39847  28.482  20.877   8.672
 3060POPC   C2B39848  28.500  20.747   8.241
 3060POPC   C3B39849  28.293  20.925   7.881
 3060POPC   C4B39850  28.403  21.218   7.593
 3061POPC   NC339851  30.029  41.095   9.445
 3061POPC   PO439852  30.312  40.530   9.398
 3061POPC   GL139853  30.126  40.753   9.059
 3061POPC   GL239854  29.782  40.934   8.975
 3061POPC   C1A39855  30.177  40.962   8.673
 3061POPC   D2A39856  29.801  41.053   8.451
 3061POPC   C3A39857  29.808  40.840   8.084
 3061POPC   C4A39858  30.080  40.775   7.754
 3061POPC   C1B39859  29.771  40.534   8.749
 3061POPC   C2B39860  29.624  40.311   8.369
 3061POPC   C3B39861  29.721  40.348   7.952
 3061POPC   C4B39862  29.617  40.620   7.613
 3062POPC   NC339863   7.860  19.112   9.778
 3062POPC   PO439864   8.390  19.061   9.430
 3062POPC   GL139865   8.043  19.122   9.168
 3062POPC   GL239866   7.725  19.030   9.181
 3062POPC   C1A39867   8.047  19.115   8.726
 3062POPC   D2A39868   8.066  19.377   8.367
 3062POPC   C3A39869   8.405  19.243   8.135
 3062POPC   C4A39870   8.470  19.178   7.733
 3062POPC   C1B39871   7.708  18.753   8.861
 3062POPC   C2B39872   7.935  18.670   8.459
 3062POPC   C3B39873   8.074  18.834   8.026
 3062POPC   C4B39874   7.950  19.241   7.835
 3063POPC   NC339875  37.872  18.287   9.488
 3063POPC   PO439876  37.189  18.297   9.479
 3063POPC   GL139877  37.504  18.316   9.136
 3063POPC   GL239878  37.742  18.630   9.108
 3063POPC   C1A39879  37.853  18.161   8.867
 3063POPC   D2A39880  37.858  18.027   8.452
 3063POPC   C3A39881  37.742  18.316   8.149
 3063POPC   C4A39882  37.751  18.186   7.728
 3063POPC   C1B39883  37.544  18.528   8.675
 3063POPC   C2B39884  37.277  18.635   8.309
 3063POPC   C3B39885  37.452  18.663   7.886
 3063POPC   C4B39886  37.883  18.696   7.781
 3064POPC   NC339887  41.076  18.723   9.444
 3064POPC   PO439888  40.650  19.183   9.543
 3064POPC   GL139889  40.881  19.181   9.167
 3064POPC   GL239890  41.042  19.502   9.091
 3064POPC   C1A39891  40.782  18.923   8.804
 3064POPC   D2A39892  40.441  18.836   8.511
 3064POPC   C3A39893  40.642  18.684   8.140
 3064POPC   C4A39894  40.750  18.867   7.745
 3064POPC   C1B39895  40.842  19.431   8.701
 3064POPC   C2B39896  40.796  19.178   8.352
 3064POPC   C3B39897  40.827  19.317   7.974
 3064POPC   C4B39898  40.983  19.327   7.603
 3065POPC   NC339899  35.231  33.330   9.505
 3065POPC   PO439900  35.515  32.700   9.417
 3065POPC   GL139901  35.367  33.003   9.118
 3065POPC   GL239902  35.629  33.214   8.955
 3065POPC   C1A39903  35.284  32.873   8.701
 3065POPC   D2A39904  35.453  32.776   8.316
 3065POPC   C3A39905  35.142  32.737   7.998
 3065POPC   C4A39906  35.086  32.994   7.618
 3065POPC   C1B39907  35.266  33.374   8.696
 3065POPC   C2B39908  35.179  33.242   8.291
 3065POPC   C3B39909  35.426  33.170   7.967
 3065POPC   C4B39910  35.592  33.163   7.585
 3066POPC   NC339911  29.591  16.660   9.495
 3066POPC   PO439912  30.161  17.010   9.532
 3066POPC   GL139913  29.981  16.840   9.164
 3066POPC   GL239914  29.661  16.877   9.041
 3066POPC   C1A39915  30.033  16.719   8.743
 3066POPC   D2A39916  29.985  16.872   8.353
 3066POPC   C3A39917  30.096  16.579   8.031
 3066POPC   C4A39918  29.908  16.653   7.665
 3066POPC   C1B39919  29.471  17.178   8.821
 3066POPC   C2B39920  29.445  17.118   8.395
 3066POPC   C3B39921  29.564  16.886   8.034
 3066POPC   C4B39922  29.553  17.038   7.608
 3067POPC   NC339923   2.874  33.211   9.520
 3067POPC   PO439924   2.742  32.664   9.141
 3067POPC   GL139925   2.617  33.086   9.077
 3067POPC   GL239926   2.916  33.269   9.025
 3067POPC   C1A39927   2.436  33.189   8.690
 3067POPC   D2A39928   2.259  32.896   8.356
 3067POPC   C3A39929   2.565  32.886   7.996
 3067POPC   C4A39930   2.706  33.227   7.681
 3067POPC   C1B39931   3.142  33.014   8.743
 3067POPC   C2B39932   3.313  33.109   8.367
 3067POPC   C3B39933   3.257  32.959   7.980
 3067POPC   C4B39934   2.982  32.797   7.687
 3068POPC   NC339935   5.944  37.538   9.627
 3068POPC   PO439936   5.420  37.691   9.226
 3068POPC   GL139937   5.889  37.747   9.138
 3068POPC   GL239938   6.096  37.429   9.145
 3068POPC   C1A39939   6.149  37.796   8.742
 3068POPC   D2A39940   6.183  37.574   8.331
 3068POPC   C3A39941   6.007  37.683   7.892
 3068POPC   C4A39942   6.221  37.810   7.481
 3068POPC   C1B39943   5.839  37.400   8.753
 3068POPC   C2B39944   5.705  37.341   8.340
 3068POPC   C3B39945   5.834  37.211   7.961
 3068POPC   C4B39946   5.525  37.342   7.691
 3069POPC   NC339947  36.920  17.897   9.573
 3069POPC   PO439948  37.193  17.298   9.532
 3069POPC   GL139949  36.899  17.504   9.237
 3069POPC   GL239950  37.117  17.796   9.088
 3069POPC   C1A39951  36.679  17.590   8.839
 3069POPC   D2A39952  36.892  17.745   8.435
 3069POPC   C3A39953  36.813  17.474   8.084
 3069POPC   C4A39954  36.456  17.282   7.899
 3069POPC   C1B39955  37.159  17.430   8.798
 3069POPC   C2B39956  37.162  17.233   8.399
 3069POPC   C3B39957  37.322  17.352   7.992
 3069POPC   C4B39958  37.171  17.732   7.809
 3070POPC   NC339959  39.345   2.291   9.615
 3070POPC   PO439960  39.106   2.973   9.520
 3070POPC   GL139961  39.101   2.871   9.079
 3070POPC   GL239962  39.441   2.795   9.079
 3070POPC   C1A39963  39.120   2.656   8.661
 3070POPC   D2A39964  39.496   2.486   8.449
 3070POPC   C3A39965  39.420   2.469   8.027
 3070POPC   C4A39966  39.294   2.603   7.621
 3070POPC   C1B39967  39.512   2.978   8.688
 3070POPC   C2B39968  39.269   3.115   8.347
 3070POPC   C3B39969  39.232   2.980   7.972
 3070POPC   C4B39970  38.900   2.912   7.674
 3071POPC   NC339971  18.656  10.792   9.395
 3071POPC   PO439972  18.151  10.407   9.570
 3071POPC   GL139973  18.341  10.449   9.175
 3071POPC   GL239974  18.011  10.439   9.046
 3071POPC   C1A39975  18.370  10.693   8.763
 3071POPC   D2A39976  18.182  10.758   8.331
 3071POPC   C3A39977  18.453  10.638   7.982
 3071POPC   C4A39978  18.544  10.698   7.521
 3071POPC   C1B39979  17.954  10.146   8.724
 3071POPC   C2B39980  17.878  10.258   8.324
 3071POPC   C3B39981  17.919  10.367   7.929
 3071POPC   C4B39982  18.200  10.367   7.644
 3072POPC   NC339983  23.382  30.031   9.471
 3072POPC   PO439984  24.034  29.792   9.629
 3072POPC   GL139985  23.820  29.839   9.212
 3072POPC   GL239986  23.560  29.964   9.018
 3072POPC   C1A39987  23.903  29.723   8.752
 3072POPC   D2A39988  24.024  29.886   8.351
 3072POPC   C3A39989  23.702  29.846   8.062
 3072POPC   C4A39990  23.664  29.687   7.671
 3072POPC   C1B39991  23.717  30.201   8.662
 3072POPC   C2B39992  24.001  30.382   8.380
 3072POPC   C3B39993  24.041  30.248   7.948
 3072POPC   C4B39994  23.771  30.351   7.600
 3073POPC   NC339995  10.883   2.534   9.458
 3073POPC   PO439996  10.394   2.957   9.561
 3073POPC   GL139997  10.588   2.903   9.187
 3073POPC   GL239998  10.404   3.177   9.108
 3073POPC   C1A39999  10.742   2.717   8.795
 3073POPC   D2A40000  10.508   2.552   8.470
 3073POPC   C3A40001  10.598   2.514   8.075
 3073POPC   C4A40002  10.833   2.675   7.770
 3073POPC   C1B40003  10.304   2.977   8.735
 3073POPC   C2B40004  10.212   2.976   8.318
 3073POPC   C3B40005  10.374   2.937   7.910
 3073POPC   C4B40006  10.189   3.221   7.643
 3074POPC   NC340007   2.552   9.893   9.420
 3074POPC   PO440008   3.139   9.518   9.392
 3074POPC   GL140009   2.926   9.669   9.046
 3074POPC   GL240010   2.603   9.505   9.057
 3074POPC   C1A40011   2.920   9.490   8.613
 3074POPC   D2A40012   2.885   9.348   8.174
 3074POPC   C3A40013   3.133   9.575   7.882
 3074POPC   C4A40014   3.092   9.991   7.649
 3074POPC   C1B40015   2.520   9.815   8.737
 3074POPC   C2B40016   2.695  10.029   8.379
 3074POPC   C3B40017   2.743   9.863   7.995
 3074POPC   C4B40018   2.630   9.526   7.727
 3075POPC   NC340019  19.733  37.358   9.456
 3075POPC   PO440020  20.023  37.990   9.507
 3075POPC   GL140021  20.003  37.707   9.179
 3075POPC   GL240022  19.676  37.789   9.157
 3075POPC   C1A40023  20.106  37.459   8.807
 3075POPC   D2A40024  19.923  37.422   8.420
 3075POPC   C3A40025  20.117  37.469   8.058
 3075POPC   C4A40026  19.864  37.711   7.780
 3075POPC   C1B40027  19.676  37.754   8.727
 3075POPC   C2B40028  19.646  37.845   8.293
 3075POPC   C3B40029  19.365  37.700   7.988
 3075POPC   C4B40030  19.387  37.794   7.603
 3076POPC   NC340031  29.050   9.519   9.370
 3076POPC   PO440032  29.602   9.947   9.377
 3076POPC   GL140033  29.419   9.676   9.067
 3076POPC   GL240034  29.143   9.936   9.083
 3076POPC   C1A40035  29.127   9.524   8.707
 3076POPC   D2A40036  28.848   9.678   8.343
 3076POPC   C3A40037  29.030   9.584   7.939
 3076POPC   C4A40038  29.416   9.401   7.885
 3076POPC   C1B40039  29.348   9.991   8.691
 3076POPC   C2B40040  29.361   9.799   8.296
 3076POPC   C3B40041  29.404  10.015   7.923
 3076POPC   C4B40042  29.267  10.285   7.560
 3077POPC   NC340043  43.274  32.702   9.455
 3077POPC   PO440044  42.987  33.253   9.438
 3077POPC   GL140045  43.192  33.074   9.112
 3077POPC   GL240046  42.990  32.778   9.034
 3077POPC   C1A40047  43.337  33.126   8.704
 3077POPC   D2A40048  43.136  33.086   8.315
 3077POPC   C3A40049  43.336  33.238   7.955
 3077POPC   C4A40050  42.965  33.369   7.780
 3077POPC   C1B40051  43.372  32.611   8.810
 3077POPC   C2B40052  43.479  32.687   8.381
 3077POPC   C3B40053  43.303  32.731   7.987
 3077POPC   C4B40054  43.198  32.498   7.646
 3078POPC   NC340055  20.137  24.610   9.429
 3078POPC   PO440056  19.679  24.109   9.368
 3078POPC   GL140057  19.778  24.396   9.030
 3078POPC   GL240058  19.762  24.751   9.084
 3078POPC   C1A40059  19.810  24.497   8.601
 3078POPC   D2A40060  19.624  24.379   8.223
 3078POPC   C3A40061  19.971  24.247   8.000
 3078POPC   C4A40062  20.001  24.293   7.590
 3078POPC   C1B40063  19.590  24.939   8.701
 3078POPC   C2B40064  19.729  24.951   8.263
 3078POPC   C3B40065  19.845  24.738   7.885
 3078POPC   C4B40066  19.670  24.686   7.481
 3079POPC   NC340067  36.109  34.810   9.580
 3079POPC   PO440068  35.921  34.193   9.415
 3079POPC   GL140069  36.174  34.455   9.129
 3079POPC   GL240070  36.160  34.839   9.075
 3079POPC   C1A40071  36.130  34.548   8.693
 3079POPC   D2A40072  36.057  34.845   8.371
 3079POPC   C3A40073  36.108  34.587   8.016
 3079POPC   C4A40074  36.197  34.376   7.626
 3079POPC   C1B40075  36.486  34.904   8.713
 3079POPC   C2B40076  36.577  34.752   8.263
 3079POPC   C3B40077  36.520  34.807   7.807
 3079POPC   C4B40078  36.148  34.888   7.575
 3080POPC   NC340079  16.717   4.317   9.532
 3080POPC   PO440080  17.356   4.342   9.538
 3080POPC   GL140081  17.154   4.465   9.166
 3080POPC   GL240082  17.021   4.138   9.142
 3080POPC   C1A40083  16.848   4.578   8.858
 3080POPC   D2A40084  16.573   4.482   8.510
 3080POPC   C3A40085  16.709   4.578   8.106
 3080POPC   C4A40086  16.652   4.481   7.676
 3080POPC   C1B40087  16.738   4.079   8.787
 3080POPC   C2B40088  16.686   3.966   8.335
 3080POPC   C3B40089  16.492   4.079   7.944
 3080POPC   C4B40090  16.333   4.133   7.513
 3081POPC   NC340091  24.157  36.547   9.306
 3081POPC   PO440092  24.450  37.119   9.635
 3081POPC   GL140093  24.377  36.992   9.178
 3081POPC   GL240094  24.590  36.750   9.135
 3081POPC   C1A40095  24.306  37.122   8.731
 3081POPC   D2A40096  24.550  37.120   8.336
 3081POPC   C3A40097  24.455  36.845   8.033
 3081POPC   C4A40098  24.534  36.715   7.627
 3081POPC   C1B40099  24.779  36.906   8.757
 3081POPC   C2B40100  24.980  36.841   8.345
 3081POPC   C3B40101  24.958  36.849   7.888
 3081POPC   C4B40102  25.024  36.552   7.517
 3082POPC   NC340103  22.492   3.688   9.543
 3082POPC   PO440104  21.819   3.692   9.753
 3082POPC   GL140105  21.892   3.473   9.309
 3082POPC   GL240106  22.229   3.368   9.243
 3082POPC   C1A40107  21.901   3.378   8.843
 3082POPC   D2A40108  22.091   3.577   8.458
 3082POPC   C3A40109  21.906   3.492   8.048
 3082POPC   C4A40110  21.922   3.695   7.644
 3082POPC   C1B40111  22.420   3.447   8.848
 3082POPC   C2B40112  22.582   3.343   8.445
 3082POPC   C3B40113  22.427   3.463   8.057
 3082POPC   C4B40114  22.326   3.368   7.666
 3083POPC   NC340115   4.313   9.639   9.546
 3083POPC   PO440116   4.327   8.984   9.512
 3083POPC   GL140117   4.079   8.941   9.128
 3083POPC   GL240118   4.414   8.928   8.987
 3083POPC   C1A40119   4.016   9.129   8.725
 3083POPC   D2A40120   4.286   9.219   8.420
 3083POPC   C3A40121   4.080   9.312   8.038
 3083POPC   C4A40122   4.175   9.019   7.732
 3083POPC   C1B40123   4.287   8.658   8.652
 3083POPC   C2B40124   4.291   8.688   8.215
 3083POPC   C3B40125   4.572   8.730   7.886
 3083POPC   C4B40126   4.497   8.726   7.432
 3084POPC   NC340127   8.194   8.686   9.500
 3084POPC   PO440128   8.438   9.282   9.646
 3084POPC   GL140129   8.236   9.168   9.259
 3084POPC   GL240130   8.251   9.468   9.097
 3084POPC   C1A40131   8.159   8.952   8.832
 3084POPC   D2A40132   8.316   8.552   8.608
 3084POPC   C3A40133   8.506   8.622   8.218
 3084POPC   C4A40134   8.336   8.848   7.904
 3084POPC   C1B40135   8.375   9.369   8.673
 3084POPC   C2B40136   8.176   9.113   8.332
 3084POPC   C3B40137   8.000   9.215   7.914
 3084POPC   C4B40138   8.225   9.199   7.516
 3085POPC   NC340139  42.747  21.653   9.310
 3085POPC   PO440140  43.345  21.791   9.130
 3085POPC   GL140141  43.103  21.368   8.973
 3085POPC   GL240142  42.724  21.315   8.936
 3085POPC   C1A40143  42.998  21.035   8.637
 3085POPC   D2A40144  42.955  21.125   8.222
 3085POPC   C3A40145  43.238  21.419   8.057
 3085POPC   C4A40146  43.355  21.204   7.722
 3085POPC   C1B40147  42.912  21.591   8.591
 3085POPC   C2B40148  42.826  21.702   8.208
 3085POPC   C3B40149  42.775  21.447   7.869
 3085POPC   C4B40150  43.044  21.580   7.547
 3086POPC   NC340151   0.327  35.081   9.659
 3086POPC   PO440152   0.665  35.547   9.681
 3086POPC   GL140153   0.512  35.324   9.232
 3086POPC   GL240154   0.410  34.939   9.139
 3086POPC   C1A40155   0.374  35.340   8.760
 3086POPC   D2A40156   0.226  35.413   8.309
 3086POPC   C3A40157   0.572  35.494   8.026
 3086POPC   C4A40158   0.741  35.389   7.618
 3086POPC   C1B40159   0.473  34.857   8.670
 3086POPC   C2B40160   0.460  34.976   8.193
 3086POPC   C3B40161   0.343  35.116   7.751
 3086POPC   C4B40162   0.326  35.274   7.299
 3087POPC   NC340163  10.734  23.165   9.349
 3087POPC   PO440164  10.089  22.866   9.437
 3087POPC   GL140165  10.257  23.091   9.127
 3087POPC   GL240166  10.495  22.799   9.063
 3087POPC   C1A40167  10.475  23.179   8.737
 3087POPC   D2A40168  10.633  23.253   8.362
 3087POPC   C3A40169  10.371  23.207   8.007
 3087POPC   C4A40170  10.464  23.074   7.621
 3087POPC   C1B40171  10.542  22.490   8.731
 3087POPC   C2B40172  10.646  22.504   8.300
 3087POPC   C3B40173  10.696  22.750   7.944
 3087POPC   C4B40174  11.001  22.786   7.639
 3088POPC   NC340175  36.631  22.382   9.535
 3088POPC   PO440176  36.950  21.865   9.227
 3088POPC   GL140177  36.908  22.302   9.082
 3088POPC   GL240178  36.657  22.559   9.076
 3088POPC   C1A40179  36.893  22.225   8.663
 3088POPC   D2A40180  36.809  21.842   8.446
 3088POPC   C3A40181  37.058  21.922   8.091
 3088POPC   C4A40182  36.967  22.160   7.728
 3088POPC   C1B40183  36.466  22.475   8.737
 3088POPC   C2B40184  36.646  22.584   8.375
 3088POPC   C3B40185  36.718  22.499   7.996
 3088POPC   C4B40186  36.476  22.358   7.656
 3089POPC   NC340187  15.307   3.200   9.913
 3089POPC   PO440188  15.329   2.614   9.677
 3089POPC   GL140189  15.211   2.483   9.250
 3089POPC   GL240190  14.926   2.245   9.219
 3089POPC   C1A40191  15.331   2.710   8.859
 3089POPC   D2A40192  15.499   2.889   8.467
 3089POPC   C3A40193  15.200   2.888   8.123
 3089POPC   C4A40194  15.066   3.141   7.751
 3089POPC   C1B40195  15.000   2.324   8.771
 3089POPC   C2B40196  15.312   2.407   8.425
 3089POPC   C3B40197  15.427   2.411   8.008
 3089POPC   C4B40198  15.252   2.656   7.673
 3090POPC   NC340199  32.041  21.627   9.706
 3090POPC   PO440200  32.619  21.448   9.504
 3090POPC   GL140201  32.272  21.533   9.214
 3090POPC   GL240202  31.964  21.697   9.066
 3090POPC   C1A40203  32.245  21.330   8.798
 3090POPC   D2A40204  32.222  21.532   8.412
 3090POPC   C3A40205  32.429  21.398   8.042
 3090POPC   C4A40206  32.681  21.590   7.761
 3090POPC   C1B40207  31.743  21.465   8.714
 3090POPC   C2B40208  31.794  21.277   8.321
 3090POPC   C3B40209  31.911  21.534   7.973
 3090POPC   C4B40210  31.817  21.487   7.541
 3091POPC   NC340211  12.604  36.354   9.648
 3091POPC   PO440212  12.067  35.924   9.668
 3091POPC   GL140213  11.954  35.967   9.194
 3091POPC   GL240214  12.164  36.270   9.087
 3091POPC   C1A40215  11.765  36.146   8.790
 3091POPC   D2A40216  11.926  36.364   8.398
 3091POPC   C3A40217  11.808  36.184   7.963
 3091POPC   C4A40218  11.793  36.288   7.486
 3091POPC   C1B40219  12.256  36.041   8.682
 3091POPC   C2B40220  12.172  35.937   8.248
 3091POPC   C3B40221  12.269  36.024   7.824
 3091POPC   C4B40222  12.650  35.879   7.698
 3092POPC   NC340223   1.232  18.726   9.528
 3092POPC   PO440224   1.401  19.394   9.591
 3092POPC   GL140225   1.342  19.146   9.220
 3092POPC   GL240226   1.609  18.958   9.070
 3092POPC   C1A40227   1.164  18.948   8.854
 3092POPC   D2A40228   1.133  18.916   8.391
 3092POPC   C3A40229   1.083  19.215   8.034
 3092POPC   C4A40230   1.220  19.303   7.579
 3092POPC   C1B40231   1.598  18.719   8.665
 3092POPC   C2B40232   1.596  18.827   8.204
 3092POPC   C3B40233   1.315  18.781   7.853
 3092POPC   C4B40234   1.431  18.834   7.403
 3093POPC   NC340235   7.863  16.649   9.511
 3093POPC   PO440236   8.551  16.472   9.478
 3093POPC   GL140237   8.241  16.702   9.161
 3093POPC   GL240238   7.979  16.516   9.035
 3093POPC   C1A40239   8.017  16.955   8.795
 3093POPC   D2A40240   8.134  17.012   8.346
 3093POPC   C3A40241   8.270  16.865   7.936
 3093POPC   C4A40242   7.957  17.010   7.657
 3093POPC   C1B40243   8.235  16.538   8.653
 3093POPC   C2B40244   8.264  16.390   8.226
 3093POPC   C3B40245   8.097  16.365   7.809
 3093POPC   C4B40246   8.395  16.491   7.525
 3094POPC   NC340247   7.344  32.353   9.528
 3094POPC   PO440248   6.711  32.563   9.492
 3094POPC   GL140249   6.957  32.281   9.181
 3094POPC   GL240250   7.340  32.246   9.041
 3094POPC   C1A40251   6.955  32.360   8.731
 3094POPC   D2A40252   7.325  32.354   8.463
 3094POPC   C3A40253   7.294  32.155   8.058
 3094POPC   C4A40254   7.427  32.343   7.716
 3094POPC   C1B40255   7.669  32.089   8.766
 3094POPC   C2B40256   7.611  31.908   8.384
 3094POPC   C3B40257   7.745  31.776   8.010
 3094POPC   C4B40258   7.675  31.903   7.622
 3095POPC   NC340259  10.979  40.700   9.582
 3095POPC   PO440260  11.705  40.915   9.533
 3095POPC   GL140261  11.374  40.854   9.179
 3095POPC   GL240262  11.029  40.666   9.081
 3095POPC   C1A40263  11.331  40.951   8.741
 3095POPC   D2A40264  11.373  40.753   8.339
 3095POPC   C3A40265  11.353  40.922   7.930
 3095POPC   C4A40266  11.039  41.088   7.658
 3095POPC   C1B40267  11.278  40.447   8.778
 3095POPC   C2B40268  11.172  40.282   8.354
 3095POPC   C3B40269  11.265  40.380   7.934
 3095POPC   C4B40270  11.148  40.591   7.583
 3096POPC   NC340271  30.082  10.408   9.275
 3096POPC   PO440272  29.783  10.885   9.673
 3096POPC   GL140273  29.596  10.783   9.212
 3096POPC   GL240274  29.561  10.414   9.119
 3096POPC   C1A40275  29.690  10.790   8.717
 3096POPC   D2A40276  29.909  10.562   8.347
 3096POPC   C3A40277  29.901  10.640   7.885
 3096POPC   C4A40278  30.203  10.562   7.553
 3096POPC   C1B40279  29.779  10.255   8.747
 3096POPC   C2B40280  29.816  10.051   8.369
 3096POPC   C3B40281  29.982  10.122   7.965
 3096POPC   C4B40282  29.766  10.184   7.593
 3097POPC   NC340283   0.609  25.621   9.444
 3097POPC   PO440284   0.188  25.134   9.445
 3097POPC   GL140285   0.439  25.286   9.089
 3097POPC   GL240286   0.805  25.320   9.073
 3097POPC   C1A40287   0.347  25.574   8.755
 3097POPC   D2A40288   0.513  25.645   8.346
 3097POPC   C3A40289   0.416  25.401   8.008
 3097POPC   C4A40290   0.282  25.546   7.645
 3097POPC   C1B40291   0.762  25.289   8.610
 3097POPC   C2B40292   0.865  25.236   8.163
 3097POPC   C3B40293   0.712  25.011   7.825
 3097POPC   C4B40294   0.729  25.324   7.583
 3098POPC   NC340295  21.336  39.595   9.788
 3098POPC   PO440296  21.599  40.192   9.682
 3098POPC   GL140297  21.499  39.869   9.346
 3098POPC   GL240298  21.654  40.085   9.095
 3098POPC   C1A40299  21.481  39.609   8.925
 3098POPC   D2A40300  21.628  39.774   8.521
 3098POPC   C3A40301  21.499  39.688   8.116
 3098POPC   C4A40302  21.494  39.931   7.760
 3098POPC   C1B40303  21.249  40.298   8.987
 3098POPC   C2B40304  21.035  40.363   8.582
 3098POPC   C3B40305  21.185  40.348   8.156
 3098POPC   C4B40306  21.173  40.331   7.712
 3099POPC   NC340307   9.104  10.248   9.309
 3099POPC   PO440308   8.754   9.785   9.675
 3099POPC   GL140309   8.714   9.639   9.234
 3099POPC   GL240310   8.833   9.892   9.086
 3099POPC   C1A40311   8.879   9.511   8.752
 3099POPC   D2A40312   9.121   9.653   8.377
 3099POPC   C3A40313   9.038   9.448   7.982
 3099POPC   C4A40314   8.819   9.571   7.616
 3099POPC   C1B40315   8.897  10.015   8.667
 3099POPC   C2B40316   8.789  10.187   8.319
 3099POPC   C3B40317   8.854   9.943   7.988
 3099POPC   C4B40318   8.649  10.093   7.637
 3100POPC   NC340319  40.519  41.550   9.529
 3100POPC   PO440320  39.844  41.603   9.493
 3100POPC   GL140321  39.977  41.413   9.118
 3100POPC   GL240322  40.354  41.324   9.094
 3100POPC   C1A40323  39.885  41.354   8.683
 3100POPC   D2A40324  40.076  41.467   8.288
 3100POPC   C3A40325  39.832  41.543   7.904
 3100POPC   C4A40326  39.639  41.501   7.507
 3100POPC   C1B40327  40.283  41.665   8.796
 3100POPC   C2B40328  40.358  41.883   8.411
 3100POPC   C3B40329  40.461  41.730   7.999
 3100POPC   C4B40330  40.311  41.324   7.850
 3101POPC   NC340331  17.202  37.685   9.458
 3101POPC   PO440332  17.563  38.181   9.501
 3101POPC   GL140333  17.579  37.972   9.109
 3101POPC   GL240334  17.586  37.579   9.106
 3101POPC   C1A40335  17.499  37.908   8.685
 3101POPC   D2A40336  17.180  37.675   8.480
 3101POPC   C3A40337  17.301  37.729   8.064
 3101POPC   C4A40338  17.159  37.662   7.648
 3101POPC   C1B40339  17.648  37.399   8.680
 3101POPC   C2B40340  17.880  37.658   8.369
 3101POPC   C3B40341  17.896  37.896   7.973
 3101POPC   C4B40342  17.654  37.607   7.706
 3102POPC   NC340343   4.496  37.111   9.627
 3102POPC   PO440344   4.184  36.573   9.477
 3102POPC   GL140345   4.358  36.674   9.103
 3102POPC   GL240346   4.552  37.017   9.124
 3102POPC   C1A40347   4.336  36.457   8.712
 3102POPC   D2A40348   4.540  36.474   8.311
 3102POPC   C3A40349   4.398  36.654   7.936
 3102POPC   C4A40350   4.070  36.906   7.801
 3102POPC   C1B40351   4.588  36.895   8.705
 3102POPC   C2B40352   4.258  36.909   8.407
 3102POPC   C3B40353   4.347  37.193   8.105
 3102POPC   C4B40354   4.543  37.114   7.731
 3103POPC   NC340355  18.743  21.015   9.452
 3103POPC   PO440356  19.228  20.529   9.474
 3103POPC   GL140357  19.229  20.756   9.113
 3103POPC   GL240358  19.397  21.079   9.145
 3103POPC   C1A40359  18.952  20.817   8.771
 3103POPC   D2A40360  18.782  20.531   8.460
 3103POPC   C3A40361  18.889  20.519   8.058
 3103POPC   C4A40362  18.947  20.229   7.757
 3103POPC   C1B40363  19.464  20.950   8.703
 3103POPC   C2B40364  19.248  20.864   8.355
 3103POPC   C3B40365  19.135  20.958   7.985
 3103POPC   C4B40366  18.808  20.885   7.701
 3104POPC   NC340367   9.056  23.215   9.322
 3104POPC   PO440368   8.960  22.533   9.512
 3104POPC   GL140369   8.910  22.736   9.152
 3104POPC   GL240370   9.264  22.797   9.089
 3104POPC   C1A40371   8.839  22.884   8.743
 3104POPC   D2A40372   8.984  22.651   8.398
 3104POPC   C3A40373   8.825  22.806   8.020
 3104POPC   C4A40374   8.778  23.192   7.867
 3104POPC   C1B40375   9.341  22.976   8.670
 3104POPC   C2B40376   9.171  23.141   8.264
 3104POPC   C3B40377   9.303  22.975   7.851
 3104POPC   C4B40378   9.549  22.752   7.519
 3105POPC   NC340379   9.289   4.628   9.337
 3105POPC   PO440380   8.942   5.223   9.476
 3105POPC   GL140381   9.003   5.001   9.089
 3105POPC   GL240382   8.824   4.688   9.034
 3105POPC   C1A40383   9.162   5.125   8.693
 3105POPC   D2A40384   9.013   5.231   8.271
 3105POPC   C3A40385   9.280   5.187   7.958
 3105POPC   C4A40386   9.564   4.867   7.856
 3105POPC   C1B40387   8.748   4.849   8.604
 3105POPC   C2B40388   8.609   4.940   8.212
 3105POPC   C3B40389   8.847   4.947   7.866
 3105POPC   C4B40390   8.814   5.225   7.580
 3106POPC   NC340391  12.256  42.972   9.497
 3106POPC   PO440392  11.523  42.893   9.451
 3106POPC   GL140393  11.871  43.036   9.126
 3106POPC   GL240394  12.143  42.833   9.038
 3106POPC   C1A40395  12.051  43.330   8.786
 3106POPC   D2A40396  11.977  43.614   8.436
 3106POPC   C3A40397  12.050  43.370   8.100
 3106POPC   C4A40398  12.034  43.143   7.724
 3106POPC   C1B40399  12.021  42.850   8.642
 3106POPC   C2B40400  12.198  42.916   8.242
 3106POPC   C3B40401  12.140  42.652   7.880
 3106POPC   C4B40402  12.222  42.730   7.455
 3107POPC   NC340403  37.247  29.344   9.789
 3107POPC   PO440404  37.106  28.840   9.341
 3107POPC   GL140405  36.777  28.980   9.102
 3107POPC   GL240406  36.649  29.327   9.133
 3107POPC   C1A40407  36.906  28.968   8.680
 3107POPC   D2A40408  36.910  28.784   8.280
 3107POPC   C3A40409  37.091  28.978   7.924
 3107POPC   C4A40410  37.028  29.254   7.546
 3107POPC   C1B40411  36.862  29.472   8.742
 3107POPC   C2B40412  37.044  29.317   8.342
 3107POPC   C3B40413  36.803  29.398   7.987
 3107POPC   C4B40414  36.713  29.738   7.752
 3108POPC   NC340415   5.687  28.929   9.472
 3108POPC   PO440416   5.899  29.551   9.511
 3108POPC   GL140417   5.866  29.283   9.108
 3108POPC   GL240418   6.124  29.149   8.850
 3108POPC   C1A40419   5.621  29.181   8.700
 3108POPC   D2A40420   5.568  29.126   8.228
 3108POPC   C3A40421   5.840  29.365   7.920
 3108POPC   C4A40422   6.254  29.335   7.733
 3108POPC   C1B40423   5.967  28.728   8.639
 3108POPC   C2B40424   6.057  28.574   8.235
 3108POPC   C3B40425   5.990  28.898   7.921
 3108POPC   C4B40426   5.563  28.962   7.730
 3109POPC   NC340427  43.565  19.833   9.431
 3109POPC   PO440428  44.215  19.477   9.473
 3109POPC   GL140429  44.062  19.585   9.070
 3109POPC   GL240430  43.736  19.562   9.038
 3109POPC   C1A40431  44.009  19.937   8.768
 3109POPC   D2A40432  44.167  19.801   8.363
 3109POPC   C3A40433  44.071  19.910   7.947
 3109POPC   C4A40434  43.801  20.206   7.784
 3109POPC   C1B40435  43.798  19.513   8.631
 3109POPC   C2B40436  43.562  19.791   8.378
 3109POPC   C3B40437  43.555  19.782   7.946
 3109POPC   C4B40438  43.798  19.578   7.619
 3110POPC   NC340439  20.583  20.083   9.343
 3110POPC   PO440440  20.950  19.594   9.578
 3110POPC   GL140441  20.819  19.587   9.167
 3110POPC   GL240442  20.474  19.603   9.163
 3110POPC   C1A40443  20.849  19.780   8.732
 3110POPC   D2A40444  21.028  19.832   8.300
 3110POPC   C3A40445  20.738  19.813   7.979
 3110POPC   C4A40446  20.690  20.175   7.743
 3110POPC   C1B40447  20.333  19.765   8.754
 3110POPC   C2B40448  20.226  19.681   8.314
 3110POPC   C3B40449  20.238  19.710   7.869
 3110POPC   C4B40450  20.527  19.729   7.499
 3111POPC   NC340451   3.599  17.330   9.556
 3111POPC   PO440452   3.066  17.703   9.370
 3111POPC   GL140453   3.455  17.604   9.125
 3111POPC   GL240454   3.519  17.243   9.062
 3111POPC   C1A40455   3.703  17.593   8.727
 3111POPC   D2A40456   3.554  17.650   8.309
 3111POPC   C3A40457   3.734  17.568   7.897
 3111POPC   C4A40458   4.141  17.479   7.806
 3111POPC   C1B40459   3.272  17.249   8.679
 3111POPC   C2B40460   3.421  17.147   8.301
 3111POPC   C3B40461   3.641  17.058   7.963
 3111POPC   C4B40462   3.370  17.066   7.626
 3112POPC   NC340463  35.514  24.004   9.298
 3112POPC   PO440464  35.016  23.753   9.684
 3112POPC   GL140465  35.217  23.591   9.244
 3112POPC   GL240466  35.199  23.265   9.154
 3112POPC   C1A40467  35.454  23.583   8.826
 3112POPC   D2A40468  35.212  23.750   8.487
 3112POPC   C3A40469  35.424  23.883   8.140
 3112POPC   C4A40470  35.350  23.773   7.727
 3112POPC   C1B40471  35.000  23.367   8.800
 3112POPC   C2B40472  35.062  23.223   8.424
 3112POPC   C3B40473  35.112  23.455   8.067
 3112POPC   C4B40474  34.886  23.534   7.719
 3113POPC   NC340475  29.349  38.855   9.361
 3113POPC   PO440476  29.384  39.566   9.462
 3113POPC   GL140477  29.166  39.472   9.106
 3113POPC   GL240478  29.087  39.129   9.005
 3113POPC   C1A40479  29.252  39.503   8.722
 3113POPC   D2A40480  29.335  39.233   8.462
 3113POPC   C3A40481  29.236  39.301   8.058
 3113POPC   C4A40482  29.471  39.291   7.698
 3113POPC   C1B40483  28.853  39.021   8.637
 3113POPC   C2B40484  29.029  38.858   8.272
 3113POPC   C3B40485  28.922  38.752   7.903
 3113POPC   C4B40486  29.036  39.055   7.624
 3114POPC   NC340487  42.014  23.152   9.749
 3114POPC   PO440488  41.436  23.633   9.595
 3114POPC   GL140489  41.588  23.678   9.185
 3114POPC   GL240490  41.745  23.368   9.158
 3114POPC   C1A40491  41.719  23.761   8.768
 3114POPC   D2A40492  41.897  23.723   8.362
 3114POPC   C3A40493  41.722  23.997   8.088
 3114POPC   C4A40494  41.592  23.876   7.715
 3114POPC   C1B40495  41.432  23.321   8.835
 3114POPC   C2B40496  41.253  23.342   8.438
 3114POPC   C3B40497  41.458  23.491   8.065
 3114POPC   C4B40498  41.650  23.366   7.733
 3115POPC   NC340499   5.961  11.730   9.470
 3115POPC   PO440500   5.562  12.262   9.450
 3115POPC   GL140501   5.807  12.096   9.145
 3115POPC   GL240502   6.139  12.133   9.213
 3115POPC   C1A40503   5.920  11.891   8.770
 3115POPC   D2A40504   6.115  12.023   8.390
 3115POPC   C3A40505   5.922  11.784   8.078
 3115POPC   C4A40506   5.890  11.817   7.650
 3115POPC   C1B40507   6.132  12.380   8.854
 3115POPC   C2B40508   6.382  12.473   8.518
 3115POPC   C3B40509   6.315  12.555   8.105
 3115POPC   C4B40510   6.062  12.237   7.908
 3116POPC   NC340511  19.004   5.332   9.530
 3116POPC   PO440512  18.849   4.716   9.549
 3116POPC   GL140513  18.906   4.992   9.150
 3116POPC   GL240514  19.232   5.189   9.084
 3116POPC   C1A40515  19.050   4.876   8.714
 3116POPC   D2A40516  19.262   4.818   8.334
 3116POPC   C3A40517  19.082   5.144   8.162
 3116POPC   C4A40518  19.030   5.245   7.791
 3116POPC   C1B40519  18.954   5.367   8.733
 3116POPC   C2B40520  18.760   5.512   8.343
 3116POPC   C3B40521  18.583   5.491   7.933
 3116POPC   C4B40522  18.715   5.716   7.556
 3117POPC   NC340523  13.530  21.326   9.632
 3117POPC   PO440524  12.875  21.424   9.521
 3117POPC   GL140525  12.780  21.390   9.081
 3117POPC   GL240526  13.129  21.287   9.037
 3117POPC   C1A40527  12.667  21.071   8.719
 3117POPC   D2A40528  12.825  20.943   8.325
 3117POPC   C3A40529  12.767  21.320   8.120
 3117POPC   C4A40530  12.826  21.412   7.726
 3117POPC   C1B40531  13.025  21.424   8.627
 3117POPC   C2B40532  13.227  21.352   8.272
 3117POPC   C3B40533  13.335  21.529   7.900
 3117POPC   C4B40534  13.143  21.793   7.622
 3118POPC   NC340535  44.850  20.575   9.504
 3118POPC   PO440536  44.139  20.369   9.377
 3118POPC   GL140537  44.439  20.630   9.175
 3118POPC   GL240538  44.635  20.312   9.120
 3118POPC   C1A40539  44.674  20.735   8.796
 3118POPC   D2A40540  44.751  20.540   8.390
 3118POPC   C3A40541  44.534  20.764   8.059
 3118POPC   C4A40542  44.768  20.981   7.742
 3118POPC   C1B40543  44.957  20.270   8.815
 3118POPC   C2B40544  44.961  20.040   8.439
 3118POPC   C3B40545   0.044  20.190   8.025
 3118POPC   C4B40546  44.810  20.465   7.766
 3119POPC   NC340547  34.200  31.067   9.487
 3119POPC   PO440548  34.721  31.507   9.658
 3119POPC   GL140549  34.439  31.410   9.193
 3119POPC   GL240550  34.481  31.639   8.908
 3119POPC   C1A40551  34.496  31.168   8.768
 3119POPC   D2A40552  34.735  31.339   8.396
 3119POPC   C3A40553  34.590  31.293   7.978
 3119POPC   C4A40554  34.220  31.342   7.713
 3119POPC   C1B40555  34.878  31.736   8.742
 3119POPC   C2B40556  35.091  31.710   8.397
 3119POPC   C3B40557  34.951  31.702   7.998
 3119POPC   C4B40558  35.125  31.580   7.648
 3120POPC   NC340559  22.143  44.370   9.584
 3120POPC   PO440560  21.774  44.932   9.501
 3120POPC   GL140561  22.056  44.740   9.183
 3120POPC   GL240562  22.178  44.393   9.078
 3120POPC   C1A40563  22.183  44.856   8.762
 3120POPC   D2A40564  21.960  44.756   8.372
 3120POPC   C3A40565  22.099  44.830   7.991
 3120POPC   C4A40566  21.977  44.721   7.584
 3120POPC   C1B40567  22.474  44.427   8.744
 3120POPC   C2B40568  22.476  44.666   8.363
 3120POPC   C3B40569  22.535  44.375   8.039
 3120POPC   C4B40570  22.272  44.316   7.709
 3121POPC   NC340571  11.252   6.992   9.511
 3121POPC   PO440572  11.366   6.341   9.663
 3121POPC   GL140573  11.213   6.468   9.218
 3121POPC   GL240574  11.402   6.727   9.102
 3121POPC   C1A40575  11.238   6.434   8.734
 3121POPC   D2A40576  11.226   6.698   8.371
 3121POPC   C3A40577  11.334   6.502   8.003
 3121POPC   C4A40578  11.543   6.513   7.597
 3121POPC   C1B40579  11.071   6.922   8.824
 3121POPC   C2B40580  10.751   6.882   8.453
 3121POPC   C3B40581  10.847   6.871   8.000
 3121POPC   C4B40582  11.218   6.929   7.708
 3122POPC   NC340583  20.934  17.584   9.472
 3122POPC   PO440584  20.295  17.394   9.586
 3122POPC   GL140585  20.377  17.518   9.105
 3122POPC   GL240586  20.717  17.539   9.010
 3122POPC   C1A40587  20.343  17.380   8.653
 3122POPC   D2A40588  20.624  17.468   8.299
 3122POPC   C3A40589  20.460  17.427   7.859
 3122POPC   C4A40590  20.745  17.117   7.676
 3122POPC   C1B40591  20.882  17.853   8.753
 3122POPC   C2B40592  20.758  17.974   8.324
 3122POPC   C3B40593  20.861  17.745   7.945
 3122POPC   C4B40594  20.847  17.917   7.559
 3123POPC   NC340595  24.171  23.241   9.456
 3123POPC   PO440596  24.535  22.708   9.272
 3123POPC   GL140597  24.417  22.769   8.940
 3123POPC   GL240598  24.288  23.099   8.986
 3123POPC   C1A40599  24.425  22.800   8.521
 3123POPC   D2A40600  24.161  22.754   8.198
 3123POPC   C3A40601  24.388  22.676   7.825
 3123POPC   C4A40602  24.278  23.005   7.602
 3123POPC   C1B40603  24.602  23.219   8.781
 3123POPC   C2B40604  24.599  23.290   8.417
 3123POPC   C3B40605  24.481  23.136   8.073
 3123POPC   C4B40606  24.755  23.092   7.761
 3124POPC   NC340607   2.482   1.564   9.254
 3124POPC   PO440608   2.848   2.133   9.521
 3124POPC   GL140609   2.845   1.912   9.157
 3124POPC   GL240610   2.562   2.116   9.102
 3124POPC   C1A40611   2.756   1.850   8.695
 3124POPC   D2A40612   2.608   2.079   8.336
 3124POPC   C3A40613   2.686   1.973   7.911
 3124POPC   C4A40614   2.927   1.925   7.545
 3124POPC   C1B40615   2.583   2.403   8.757
 3124POPC   C2B40616   2.336   2.510   8.386
 3124POPC   C3B40617   2.308   2.312   7.972
 3124POPC   C4B40618   2.550   2.341   7.568
 3125POPC   NC340619   5.987  10.790   9.833
 3125POPC   PO440620   5.823  11.280   9.431
 3125POPC   GL140621   5.804  11.403   9.032
 3125POPC   GL240622   5.985  11.082   8.964
 3125POPC   C1A40623   5.691  11.311   8.613
 3125POPC   D2A40624   5.825  11.019   8.312
 3125POPC   C3A40625   5.885  11.287   8.008
 3125POPC   C4A40626   5.782  11.314   7.603
 3125POPC   C1B40627   6.256  11.048   8.626
 3125POPC   C2B40628   6.340  11.108   8.193
 3125POPC   C3B40629   6.226  10.957   7.809
 3125POPC   C4B40630   6.248  11.117   7.382
 3126POPC   NC340631  41.136  19.264   5.572
 3126POPC   PO440632  41.714  18.940   5.388
 3126POPC   GL140633  41.554  18.997   5.788
 3126POPC   GL240634  41.268  19.027   6.007
 3126POPC   C1A40635  41.713  18.899   6.182
 3126POPC   D2A40636  41.886  19.078   6.551
 3126POPC   C3A40637  41.653  19.048   6.923
 3126POPC   C4A40638  41.673  18.925   7.351
 3126POPC   C1B40639  41.358  19.197   6.410
 3126POPC   C2B40640  41.208  19.284   6.807
 3126POPC   C3B40641  41.204  19.071   7.216
 3126POPC   C4B40642  41.287  18.936   7.682
 3127POPC   NC340643  39.631  20.753   5.307
 3127POPC   PO440644  39.269  20.219   5.088
 3127POPC   GL140645  39.292  20.464   5.574
 3127POPC   GL240646  39.617  20.537   5.774
 3127POPC   C1A40647  39.169  20.613   6.033
 3127POPC   D2A40648  39.144  20.610   6.503
 3127POPC   C3A40649  39.389  20.774   6.848
 3127POPC   C4A40650  39.194  20.666   7.228
 3127POPC   C1B40651  39.639  20.437   6.231
 3127POPC   C2B40652  39.644  20.361   6.681
 3127POPC   C3B40653  39.394  20.208   7.055
 3127POPC   C4B40654  39.533  20.245   7.501
 3128POPC   NC340655  44.818  24.847   5.383
 3128POPC   PO440656  44.557  24.295   5.328
 3128POPC   GL140657  44.521  24.500   5.717
 3128POPC   GL240658  44.549  24.204   5.885
 3128POPC   C1A40659  44.413  24.599   6.158
 3128POPC   D2A40660  44.573  24.405   6.529
 3128POPC   C3A40661  44.502  24.637   6.927
 3128POPC   C4A40662  44.288  24.509   7.293
 3128POPC   C1B40663  44.893  24.439   6.077
 3128POPC   C2B40664   0.068  24.557   6.484
 3128POPC   C3B40665   0.015  24.643   6.939
 3128POPC   C4B40666  44.804  24.431   7.301
 3129POPC   NC340667  43.634  22.875   5.470
 3129POPC   PO440668  42.910  22.757   5.390
 3129POPC   GL140669  43.122  22.834   5.755
 3129POPC   GL240670  42.881  23.071   5.838
 3129POPC   C1A40671  43.271  22.856   6.203
 3129POPC   D2A40672  43.178  23.140   6.569
 3129POPC   C3A40673  42.935  22.981   6.907
 3129POPC   C4A40674  43.090  22.648   7.121
 3129POPC   C1B40675  42.844  23.328   6.202
 3129POPC   C2B40676  42.730  23.400   6.627
 3129POPC   C3B40677  42.922  23.456   7.058
 3129POPC   C4B40678  43.163  23.146   7.336
 3130POPC   NC340679  26.268  44.932   5.195
 3130POPC   PO440680  26.941  44.745   5.323
 3130POPC   GL140681  27.017  44.752   5.753
 3130POPC   GL240682  26.657  44.658   5.828
 3130POPC   C1A40683  26.923  44.883   6.185
 3130POPC   D2A40684  26.979  44.640   6.551
 3130POPC   C3A40685  26.856  44.879   6.892
 3130POPC   C4A40686  26.943  44.787   7.292
 3130POPC   C1B40687  26.499  44.497   6.261
 3130POPC   C2B40688  26.477  44.501   6.739
 3130POPC   C3B40689  26.455  44.581   7.203
 3130POPC   C4B40690  26.185  44.545   7.592
 3131POPC   NC340691  34.864  33.827   5.358
 3131POPC   PO440692  35.488  34.006   5.370
 3131POPC   GL140693  35.283  33.929   5.758
 3131POPC   GL240694  35.087  33.623   5.764
 3131POPC   C1A40695  35.505  33.938   6.166
 3131POPC   D2A40696  35.350  33.941   6.577
 3131POPC   C3A40697  35.525  34.035   6.941
 3131POPC   C4A40698  35.509  33.818   7.328
 3131POPC   C1B40699  35.031  33.756   6.190
 3131POPC   C2B40700  35.020  33.571   6.584
 3131POPC   C3B40701  35.061  33.745   6.977
 3131POPC   C4B40702  34.912  33.866   7.344
 3132POPC   NC340703   6.268  21.834   5.524
 3132POPC   PO440704   6.827  22.249   5.468
 3132POPC   GL140705   6.625  22.112   5.821
 3132POPC   GL240706   6.750  21.817   5.928
 3132POPC   C1A40707   6.415  22.217   6.213
 3132POPC   D2A40708   6.356  22.550   6.528
 3132POPC   C3A40709   6.591  22.421   6.888
 3132POPC   C4A40710   6.588  22.438   7.302
 3132POPC   C1B40711   6.958  22.056   6.269
 3132POPC   C2B40712   7.059  22.164   6.708
 3132POPC   C3B40713   6.882  22.040   7.121
 3132POPC   C4B40714   6.982  22.152   7.542
 3133POPC   NC340715   9.265  33.090   5.390
 3133POPC   PO440716   8.652  33.360   5.309
 3133POPC   GL140717   8.865  33.288   5.722
 3133POPC   GL240718   8.985  32.941   5.801
 3133POPC   C1A40719   8.988  33.259   6.183
 3133POPC   D2A40720   8.885  32.958   6.528
 3133POPC   C3A40721   9.005  33.102   6.956
 3133POPC   C4A40722   8.781  33.086   7.339
 3133POPC   C1B40723   9.250  32.808   6.201
 3133POPC   C2B40724   9.376  32.836   6.673
 3133POPC   C3B40725   9.448  32.786   7.134
 3133POPC   C4B40726   9.190  32.812   7.522
 3134POPC   NC340727  11.724  12.558   5.594
 3134POPC   PO440728  11.183  13.031   5.591
 3134POPC   GL140729  11.329  12.773   5.860
 3134POPC   GL240730  11.638  12.983   5.878
 3134POPC   C1A40731  11.152  12.742   6.258
 3134POPC   D2A40732  11.110  13.002   6.604
 3134POPC   C3A40733  11.061  12.651   6.872
 3134POPC   C4A40734  11.074  12.700   7.278
 3134POPC   C1B40735  11.666  12.779   6.253
 3134POPC   C2B40736  11.523  12.712   6.666
 3134POPC   C3B40737  11.564  12.644   7.091
 3134POPC   C4B40738  11.839  12.813   7.424
 3135POPC   NC340739   1.466  37.164   5.629
 3135POPC   PO440740   1.282  37.677   5.364
 3135POPC   GL140741   1.198  37.588   5.792
 3135POPC   GL240742   1.211  37.918   5.880
 3135POPC   C1A40743   1.036  37.579   6.254
 3135POPC   D2A40744   1.146  37.638   6.727
 3135POPC   C3A40745   0.818  37.456   7.034
 3135POPC   C4A40746   0.714  37.491   7.486
 3135POPC   C1B40747   1.401  37.922   6.282
 3135POPC   C2B40748   1.337  38.129   6.671
 3135POPC   C3B40749   1.215  38.072   7.082
 3135POPC   C4B40750   1.179  37.676   7.310
 3136POPC   NC340751   2.005  27.744   5.073
 3136POPC   PO440752   2.135  27.164   5.318
 3136POPC   GL140753   2.039  27.509   5.583
 3136POPC   GL240754   1.702  27.463   5.765
 3136POPC   C1A40755   2.163  27.573   6.026
 3136POPC   D2A40756   2.195  27.792   6.423
 3136POPC   C3A40757   2.261  27.538   6.776
 3136POPC   C4A40758   2.183  27.588   7.184
 3136POPC   C1B40759   1.677  27.665   6.196
 3136POPC   C2B40760   1.775  27.560   6.631
 3136POPC   C3B40761   1.687  27.516   7.072
 3136POPC   C4B40762   1.542  27.153   7.286
 3137POPC   NC340763  36.352   4.884   5.378
 3137POPC   PO440764  35.766   5.213   5.599
 3137POPC   GL140765  36.008   5.289   5.941
 3137POPC   GL240766  36.308   5.069   5.868
 3137POPC   C1A40767  35.892   5.364   6.371
 3137POPC   D2A40768  35.812   5.165   6.754
 3137POPC   C3A40769  35.882   5.363   7.133
 3137POPC   C4A40770  36.013   5.344   7.557
 3137POPC   C1B40771  36.147   4.913   6.277
 3137POPC   C2B40772  36.256   4.894   6.706
 3137POPC   C3B40773  36.233   4.906   7.165
 3137POPC   C4B40774  36.415   4.588   7.466
 3138POPC   NC340775  42.755  19.237   5.310
 3138POPC   PO440776  43.423  19.041   5.479
 3138POPC   GL140777  43.068  19.102   5.760
 3138POPC   GL240778  43.077  19.417   5.881
 3138POPC   C1A40779  42.898  19.105   6.222
 3138POPC   D2A40780  43.024  19.201   6.663
 3138POPC   C3A40781  42.950  18.904   6.973
 3138POPC   C4A40782  42.627  18.904   7.285
 3138POPC   C1B40783  43.333  19.393   6.288
 3138POPC   C2B40784  43.472  19.435   6.728
 3138POPC   C3B40785  43.425  19.448   7.166
 3138POPC   C4B40786  43.540  19.165   7.477
 3139POPC   NC340787  24.276  43.619   5.110
 3139POPC   PO440788  24.516  44.186   5.476
 3139POPC   GL140789  24.591  44.132   5.899
 3139POPC   GL240790  24.249  44.139   5.953
 3139POPC   C1A40791  24.560  44.013   6.354
 3139POPC   D2A40792  24.641  44.241   6.746
 3139POPC   C3A40793  24.807  44.059   7.116
 3139POPC   C4A40794  24.664  43.644   7.251
 3139POPC   C1B40795  23.953  44.012   6.287
 3139POPC   C2B40796  23.844  43.742   6.661
 3139POPC   C3B40797  24.205  43.727   6.929
 3139POPC   C4B40798  24.306  44.092   7.127
 3140POPC   NC340799  39.458  19.833   4.956
 3140POPC   PO440800  39.361  19.935   5.595
 3140POPC   GL140801  39.141  19.648   5.814
 3140POPC   GL240802  38.768  19.654   5.753
 3140POPC   C1A40803  39.265  19.660   6.250
 3140POPC   D2A40804  39.364  19.946   6.574
 3140POPC   C3A40805  39.408  19.679   6.916
 3140POPC   C4A40806  39.456  19.767   7.339
 3140POPC   C1B40807  38.813  19.870   6.184
 3140POPC   C2B40808  38.914  19.730   6.638
 3140POPC   C3B40809  38.973  19.893   7.071
 3140POPC   C4B40810  38.915  19.716   7.464
 3141POPC   NC340811   0.862  38.981   5.563
 3141POPC   PO440812   1.517  38.812   5.617
 3141POPC   GL140813   1.266  38.964   5.922
 3141POPC   GL240814   1.172  39.284   5.855
 3141POPC   C1A40815   1.283  39.081   6.360
 3141POPC   D2A40816   0.981  39.025   6.722
 3141POPC   C3A40817   1.193  38.977   7.111
 3141POPC   C4A40818   1.276  38.998   7.560
 3141POPC   C1B40819   1.358  39.577   6.116
 3141POPC   C2B40820   1.542  39.516   6.512
 3141POPC   C3B40821   1.295  39.413   6.852
 3141POPC   C4B40822   1.378  39.429   7.279
 3142POPC   NC340823   3.914  37.418   5.409
 3142POPC   PO440824   3.505  36.809   5.404
 3142POPC   GL140825   3.713  36.865   5.797
 3142POPC   GL240826   3.666  37.225   5.814
 3142POPC   C1A40827   3.593  36.897   6.224
 3142POPC   D2A40828   3.484  37.159   6.563
 3142POPC   C3A40829   3.630  36.942   6.932
 3142POPC   C4A40830   3.393  36.680   7.263
 3142POPC   C1B40831   3.264  37.278   6.045
 3142POPC   C2B40832   3.044  37.401   6.433
 3142POPC   C3B40833   3.065  37.327   6.876
 3142POPC   C4B40834   3.321  37.222   7.204
 3143POPC   NC340835  16.183  31.762   5.392
 3143POPC   PO440836  15.777  31.214   5.489
 3143POPC   GL140837  15.893  31.525   5.784
 3143POPC   GL240838  16.202  31.376   5.884
 3143POPC   C1A40839  15.792  31.537   6.230
 3143POPC   D2A40840  15.715  31.194   6.516
 3143POPC   C3A40841  15.743  31.226   6.974
 3143POPC   C4A40842  15.769  31.568   7.265
 3143POPC   C1B40843  16.303  31.559   6.277
 3143POPC   C2B40844  16.075  31.593   6.681
 3143POPC   C3B40845  16.224  31.471   7.073
 3143POPC   C4B40846  16.217  31.421   7.520
 3144POPC   NC340847  11.812  17.308   5.402
 3144POPC   PO440848  12.339  17.656   5.442
 3144POPC   GL140849  12.050  17.598   5.788
 3144POPC   GL240850  12.281  17.353   5.877
 3144POPC   C1A40851  11.788  17.566   6.174
 3144POPC   D2A40852  11.871  17.398   6.604
 3144POPC   C3A40853  11.819  17.661   6.954
 3144POPC   C4A40854  12.079  17.953   7.171
 3144POPC   C1B40855  12.285  17.537   6.298
 3144POPC   C2B40856  12.247  17.722   6.717
 3144POPC   C3B40857  12.285  17.487   7.108
 3144POPC   C4B40858  12.455  17.257   7.474
 3145POPC   NC340859   5.202  34.755   5.740
 3145POPC   PO440860   4.638  34.552   5.438
 3145POPC   GL140861   4.826  34.392   5.816
 3145POPC   GL240862   4.572  34.577   5.982
 3145POPC   C1A40863   5.005  34.411   6.237
 3145POPC   D2A40864   5.172  34.826   6.445
 3145POPC   C3A40865   5.221  34.822   6.914
 3145POPC   C4A40866   5.354  34.439   7.134
 3145POPC   C1B40867   4.646  34.755   6.391
 3145POPC   C2B40868   4.825  34.519   6.700
 3145POPC   C3B40869   4.846  34.378   7.061
 3145POPC   C4B40870   4.885  34.722   7.307
 3146POPC   NC340871  29.108   0.895   5.536
 3146POPC   PO440872  29.258   0.221   5.533
 3146POPC   GL140873  29.148   0.485   5.900
 3146POPC   GL240874  28.795   0.507   5.813
 3146POPC   C1A40875  29.392   0.611   6.302
 3146POPC   D2A40876  29.381   0.662   6.776
 3146POPC   C3A40877  29.279   0.314   7.047
 3146POPC   C4A40878  29.213   0.185   7.492
 3146POPC   C1B40879  28.808   0.358   6.255
 3146POPC   C2B40880  28.913   0.450   6.687
 3146POPC   C3B40881  28.928   0.698   7.074
 3146POPC   C4B40882  28.909   0.587   7.500
 3147POPC   NC340883  27.972  28.275   5.306
 3147POPC   PO440884  27.407  28.486   5.450
 3147POPC   GL140885  27.632  28.444   5.802
 3147POPC   GL240886  27.766  28.122   5.763
 3147POPC   C1A40887  27.488  28.572   6.179
 3147POPC   D2A40888  27.296  28.679   6.562
 3147POPC   C3A40889  27.354  28.460   6.950
 3147POPC   C4A40890  27.683  28.463   7.251
 3147POPC   C1B40891  27.829  27.964   6.202
 3147POPC   C2B40892  27.588  28.215   6.531
 3147POPC   C3B40893  27.672  28.067   6.945
 3147POPC   C4B40894  28.009  28.059   7.260
 3148POPC   NC340895  41.529   6.251   5.321
 3148POPC   PO440896  41.861   5.710   5.313
 3148POPC   GL140897  41.682   5.858   5.724
 3148POPC   GL240898  41.792   6.178   5.760
 3148POPC   C1A40899  41.533   5.988   6.155
 3148POPC   D2A40900  41.224   5.796   6.416
 3148POPC   C3A40901  41.280   5.959   6.808
 3148POPC   C4A40902  41.295   6.053   7.204
 3148POPC   C1B40903  42.005   6.217   6.156
 3148POPC   C2B40904  41.914   6.023   6.574
 3148POPC   C3B40905  41.766   6.045   6.994
 3148POPC   C4B40906  41.721   5.958   7.443
 3149POPC   NC340907   2.474  35.932   5.423
 3149POPC   PO440908   2.989  36.262   5.171
 3149POPC   GL140909   2.925  36.294   5.702
 3149POPC   GL240910   2.577  36.231   5.808
 3149POPC   C1A40911   2.885  36.049   6.191
 3149POPC   D2A40912   2.669  35.917   6.603
 3149POPC   C3A40913   2.873  36.033   6.923
 3149POPC   C4A40914   3.007  35.917   7.296
 3149POPC   C1B40915   2.609  36.465   6.176
 3149POPC   C2B40916   2.819  36.427   6.564
 3149POPC   C3B40917   3.112  36.482   6.893
 3149POPC   C4B40918   2.831  36.437   7.225
 3150POPC   NC340919  26.475  35.298   5.439
 3150POPC   PO440920  25.837  35.611   5.417
 3150POPC   GL140921  26.087  35.458   5.769
 3150POPC   GL240922  26.212  35.102   5.831
 3150POPC   C1A40923  25.895  35.387   6.168
 3150POPC   D2A40924  25.650  35.219   6.498
 3150POPC   C3A40925  25.805  35.366   6.903
 3150POPC   C4A40926  25.597  35.277   7.260
 3150POPC   C1B40927  26.467  35.310   6.159
 3150POPC   C2B40928  26.604  35.367   6.584
 3150POPC   C3B40929  26.394  35.254   6.955
 3150POPC   C4B40930  26.249  35.503   7.300
 3151POPC   NC340931  27.613  31.519   5.431
 3151POPC   PO440932  27.210  32.069   5.465
 3151POPC   GL140933  27.396  31.798   5.795
 3151POPC   GL240934  27.239  31.480   5.804
 3151POPC   C1A40935  27.672  31.528   6.141
 3151POPC   D2A40936  27.725  31.300   6.575
 3151POPC   C3A40937  27.784  31.510   7.008
 3151POPC   C4A40938  27.816  31.276   7.426
 3151POPC   C1B40939  27.166  31.631   6.203
 3151POPC   C2B40940  27.398  31.710   6.549
 3151POPC   C3B40941  27.265  31.709   6.946
 3151POPC   C4B40942  27.323  31.473   7.287
 3152POPC   NC340943  15.062  13.940   5.211
 3152POPC   PO440944  15.116  14.624   5.362
 3152POPC   GL140945  15.100  14.461   5.766
 3152POPC   GL240946  14.785  14.632   5.839
 3152POPC   C1A40947  15.243  14.266   6.186
 3152POPC   D2A40948  15.178  14.064   6.604
 3152POPC   C3A40949  15.357  14.153   7.010
 3152POPC   C4A40950  15.103  14.318   7.350
 3152POPC   C1B40951  15.005  14.722   6.229
 3152POPC   C2B40952  15.212  14.600   6.640
 3152POPC   C3B40953  15.145  14.751   7.066
 3152POPC   C4B40954  15.254  14.914   7.486
 3153POPC   NC340955   0.723  31.594   5.155
 3153POPC   PO440956   0.154  31.582   5.694
 3153POPC   GL140957   0.218  31.346   5.989
 3153POPC   GL240958   0.607  31.349   6.042
 3153POPC   C1A40959   0.268  31.096   6.312
 3153POPC   D2A40960   0.653  31.126   6.552
 3153POPC   C3A40961   0.555  31.517   6.722
 3153POPC   C4A40962   0.317  31.521   7.101
 3153POPC   C1B40963   0.904  31.645   6.231
 3153POPC   C2B40964   0.994  31.854   6.620
 3153POPC   C3B40965   0.958  31.649   6.974
 3153POPC   C4B40966   0.733  31.753   7.304
 3154POPC   NC340967  31.865  17.686   5.502
 3154POPC   PO440968  32.489  17.490   5.345
 3154POPC   GL140969  32.305  17.432   5.732
 3154POPC   GL240970  32.577  17.556   5.891
 3154POPC   C1A40971  32.131  17.451   6.115
 3154POPC   D2A40972  32.034  17.526   6.527
 3154POPC   C3A40973  32.090  17.238   6.853
 3154POPC   C4A40974  32.013  17.539   7.172
 3154POPC   C1B40975  32.585  17.266   6.223
 3154POPC   C2B40976  32.540  17.410   6.623
 3154POPC   C3B40977  32.507  17.549   7.027
 3154POPC   C4B40978  32.596  17.231   7.328
 3155POPC   NC340979   8.030  30.142   5.432
 3155POPC   PO440980   7.836  29.483   5.594
 3155POPC   GL140981   8.031  29.802   5.848
 3155POPC   GL240982   8.343  30.018   5.830
 3155POPC   C1A40983   7.893  30.011   6.218
 3155POPC   D2A40984   7.996  30.100   6.647
 3155POPC   C3A40985   8.131  29.789   6.921
 3155POPC   C4A40986   7.979  29.753   7.322
 3155POPC   C1B40987   8.401  30.168   6.273
 3155POPC   C2B40988   8.404  30.435   6.663
 3155POPC   C3B40989   8.298  30.256   7.087
 3155POPC   C4B40990   8.493  29.881   7.273
 3156POPC   NC340991  32.418  13.427   5.472
 3156POPC   PO440992  32.017  13.954   5.293
 3156POPC   GL140993  32.104  13.701   5.753
 3156POPC   GL240994  32.052  13.324   5.844
 3156POPC   C1A40995  32.069  13.711   6.212
 3156POPC   D2A40996  32.169  13.412   6.554
 3156POPC   C3A40997  32.040  13.495   6.941
 3156POPC   C4A40998  32.143  13.511   7.363
 3156POPC   C1B40999  32.453  13.405   6.124
 3156POPC   C2B41000  32.535  13.773   6.427
 3156POPC   C3B41001  32.495  13.767   6.872
 3156POPC   C4B41002  32.577  13.386   7.075
 3157POPC   NC341003   8.016  44.092   5.504
 3157POPC   PO441004   8.511  44.648   5.140
 3157POPC   GL141005   8.237  44.742   5.648
 3157POPC   GL241006   8.498  44.840   5.964
 3157POPC   C1A41007   8.062  44.650   6.081
 3157POPC   D2A41008   8.286  44.778   6.445
 3157POPC   C3A41009   8.136  44.768   6.844
 3157POPC   C4A41010   8.326  44.986   7.170
 3157POPC   C1B41011   8.513  44.390   6.177
 3157POPC   C2B41012   8.568  44.121   6.539
 3157POPC   C3B41013   8.488  44.357   6.934
 3157POPC   C4B41014   8.457  44.520   7.355
 3158POPC   NC341015  14.107   8.051   5.427
 3158POPC   PO441016  13.460   7.791   5.311
 3158POPC   GL141017  13.606   8.020   5.678
 3158POPC   GL241018  13.857   7.839   5.824
 3158POPC   C1A41019  13.721   8.277   6.064
 3158POPC   D2A41020  13.932   8.306   6.473
 3158POPC   C3A41021  13.593   8.390   6.786
 3158POPC   C4A41022  13.663   8.367   7.207
 3158POPC   C1B41023  14.005   7.859   6.224
 3158POPC   C2B41024  13.981   7.719   6.631
 3158POPC   C3B41025  13.999   7.964   6.975
 3158POPC   C4B41026  13.797   7.838   7.336
 3159POPC   NC341027  11.087  38.900   5.161
 3159POPC   PO441028  11.610  39.287   5.454
 3159POPC   GL141029  11.307  39.180   5.760
 3159POPC   GL241030  10.982  38.989   5.759
 3159POPC   C1A41031  11.244  39.345   6.170
 3159POPC   D2A41032  11.222  39.168   6.550
 3159POPC   C3A41033  11.443  39.373   6.862
 3159POPC   C4A41034  11.524  39.174   7.241
 3159POPC   C1B41035  10.813  39.062   6.204
 3159POPC   C2B41036  10.746  39.024   6.679
 3159POPC   C3B41037  11.057  39.074   7.025
 3159POPC   C4B41038  11.063  39.001   7.480
 3160POPC   NC341039  36.317  40.426   5.401
 3160POPC   PO441040  35.817  39.983   5.527
 3160POPC   GL141041  36.067  39.877   5.845
 3160POPC   GL241042  36.272  40.179   5.846
 3160POPC   C1A41043  35.951  39.956   6.256
 3160POPC   D2A41044  35.845  40.173   6.636
 3160POPC   C3A41045  35.933  39.920   7.004
 3160POPC   C4A41046  35.759  39.901   7.409
 3160POPC   C1B41047  36.211  40.399   6.240
 3160POPC   C2B41048  36.311  40.376   6.661
 3160POPC   C3B41049  36.112  40.425   7.054
 3160POPC   C4B41050  36.175  40.215   7.401
 3161POPC   NC341051  37.163  23.957   5.439
 3161POPC   PO441052  36.552  23.659   5.317
 3161POPC   GL141053  36.773  23.802   5.764
 3161POPC   GL241054  37.148  23.648   5.832
 3161POPC   C1A41055  36.859  23.636   6.233
 3161POPC   D2A41056  37.003  23.870   6.593
 3161POPC   C3A41057  37.016  23.667   6.997
 3161POPC   C4A41058  36.642  23.542   7.162
 3161POPC   C1B41059  37.323  23.368   6.164
 3161POPC   C2B41060  37.198  23.400   6.601
 3161POPC   C3B41061  37.344  23.274   6.992
 3161POPC   C4B41062  37.358  23.473   7.387
 3162POPC   NC341063  37.094  42.433   5.464
 3162POPC   PO441064  36.415  42.556   5.395
 3162POPC   GL141065  36.676  42.477   5.754
 3162POPC   GL241066  36.926  42.758   5.816
 3162POPC   C1A41067  36.770  42.296   6.160
 3162POPC   D2A41068  37.058  42.217   6.535
 3162POPC   C3A41069  36.899  42.064   6.946
 3162POPC   C4A41070  36.664  42.316   7.279
 3162POPC   C1B41071  36.961  42.786   6.224
 3162POPC   C2B41072  36.655  42.655   6.517
 3162POPC   C3B41073  36.866  42.569   6.885
 3162POPC   C4B41074  36.934  42.777   7.256
 3163POPC   NC341075  22.491   3.611   5.334
 3163POPC   PO441076  21.807   3.446   5.463
 3163POPC   GL141077  22.147   3.642   5.732
 3163POPC   GL241078  22.203   3.328   5.898
 3163POPC   C1A41079  22.365   3.713   6.163
 3163POPC   D2A41080  22.357   3.379   6.478
 3163POPC   C3A41081  22.461   3.613   6.849
 3163POPC   C4A41082  22.305   3.674   7.276
 3163POPC   C1B41083  21.885   3.529   6.168
 3163POPC   C2B41084  21.982   3.722   6.540
 3163POPC   C3B41085  21.946   3.605   6.937
 3163POPC   C4B41086  21.915   3.313   7.298
 3164POPC   NC341087  31.736  25.124   5.667
 3164POPC   PO441088  31.417  25.516   5.274
 3164POPC   GL141089  31.638  25.560   5.855
 3164POPC   GL241090  31.383  25.288   5.946
 3164POPC   C1A41091  31.688  25.374   6.317
 3164POPC   D2A41092  31.623  24.991   6.606
 3164POPC   C3A41093  31.622  25.129   7.032
 3164POPC   C4A41094  31.637  25.580   7.155
 3164POPC   C1B41095  31.233  25.145   6.301
 3164POPC   C2B41096  31.245  25.364   6.679
 3164POPC   C3B41097  31.159  25.409   7.102
 3164POPC   C4B41098  30.840  25.592   7.292
 3165POPC   NC341099  23.936   2.858   5.501
 3165POPC   PO441100  24.572   2.792   5.346
 3165POPC   GL141101  24.630   2.630   5.775
 3165POPC   GL241102  24.256   2.559   5.853
 3165POPC   C1A41103  24.847   2.761   6.175
 3165POPC   D2A41104  24.773   3.002   6.574
 3165POPC   C3A41105  24.862   2.855   7.011
 3165POPC   C4A41106  24.677   2.572   7.315
 3165POPC   C1B41107  24.415   2.468   6.273
 3165POPC   C2B41108  24.307   2.718   6.656
 3165POPC   C3B41109  24.295   2.835   7.105
 3165POPC   C4B41110  24.140   2.621   7.500
 3166POPC   NC341111  11.791  40.529   5.496
 3166POPC   PO441112  12.471  40.517   5.614
 3166POPC   GL141113  12.447  40.794   5.957
 3166POPC   GL241114  12.110  40.901   5.934
 3166POPC   C1A41115  12.354  40.784   6.399
 3166POPC   D2A41116  12.394  40.544   6.805
 3166POPC   C3A41117  12.324  40.867   7.084
 3166POPC   C4A41118  12.012  41.179   7.072
 3166POPC   C1B41119  11.905  40.572   6.209
 3166POPC   C2B41120  11.576  40.372   6.501
 3166POPC   C3B41121  11.683  40.349   6.945
 3166POPC   C4B41122  11.873  40.662   7.230
 3167POPC   NC341123  36.701  37.402   5.471
 3167POPC   PO441124  36.774  38.096   5.569
 3167POPC   GL141125  36.704  37.755   5.834
 3167POPC   GL241126  37.049  37.775   5.907
 3167POPC   C1A41127  36.728  37.497   6.208
 3167POPC   D2A41128  37.021  37.628   6.534
 3167POPC   C3A41129  36.874  37.794   6.932
 3167POPC   C4A41130  36.880  37.491   7.252
 3167POPC   C1B41131  37.285  37.973   6.241
 3167POPC   C2B41132  37.227  38.079   6.683
 3167POPC   C3B41133  37.332  37.920   7.109
 3167POPC   C4B41134  37.380  38.031   7.553
 3168POPC   NC341135   0.374  18.439   5.461
 3168POPC   PO441136   0.619  17.858   5.215
 3168POPC   GL141137   0.519  17.901   5.696
 3168POPC   GL241138   0.261  18.087   5.804
 3168POPC   C1A41139   0.498  17.947   6.213
 3168POPC   D2A41140   0.383  18.316   6.523
 3168POPC   C3A41141   0.408  18.266   6.970
 3168POPC   C4A41142   0.735  18.084   7.228
 3168POPC   C1B41143   0.120  18.376   6.084
 3168POPC   C2B41144   0.030  18.676   6.401
 3168POPC   C3B41145  44.966  18.574   6.819
 3168POPC   C4B41146   0.073  18.684   7.217
 3169POPC   NC341147  16.237   5.462   5.410
 3169POPC   PO441148  16.528   4.866   5.399
 3169POPC   GL141149  16.845   4.886   5.744
 3169POPC   GL241150  16.998   5.196   5.692
 3169POPC   C1A41151  17.023   5.001   6.171
 3169POPC   D2A41152  17.135   4.953   6.615
 3169POPC   C3A41153  16.821   4.917   6.910
 3169POPC   C4A41154  16.822   4.821   7.333
 3169POPC   C1B41155  16.693   5.350   6.009
 3169POPC   C2B41156  16.727   5.323   6.483
 3169POPC   C3B41157  16.696   5.423   6.942
 3169POPC   C4B41158  16.695   5.458   7.414
 3170POPC   NC341159   7.569   3.853   5.168
 3170POPC   PO441160   7.336   3.288   5.434
 3170POPC   GL141161   7.245   3.553   5.795
 3170POPC   GL241162   7.551   3.470   5.884
 3170POPC   C1A41163   7.226   3.658   6.247
 3170POPC   D2A41164   7.464   3.700   6.652
 3170POPC   C3A41165   7.243   3.676   7.027
 3170POPC   C4A41166   7.024   3.358   7.163
 3170POPC   C1B41167   7.728   3.543   6.260
 3170POPC   C2B41168   7.950   3.835   6.476
 3170POPC   C3B41169   7.944   3.687   6.853
 3170POPC   C4B41170   7.699   3.512   7.163
 3171POPC   NC341171  17.357  35.110   5.201
 3171POPC   PO441172  16.758  35.409   5.325
 3171POPC   GL141173  16.586  35.264   5.720
 3171POPC   GL241174  16.431  35.533   5.846
 3171POPC   C1A41175  16.423  35.095   6.119
 3171POPC   D2A41176  16.544  35.307   6.501
 3171POPC   C3A41177  16.442  35.162   6.914
 3171POPC   C4A41178  16.674  35.271   7.245
 3171POPC   C1B41179  16.837  35.491   6.097
 3171POPC   C2B41180  16.932  35.717   6.472
 3171POPC   C3B41181  16.747  35.645   6.875
 3171POPC   C4B41182  16.959  35.705   7.258
 3172POPC   NC341183  33.841  23.833   5.365
 3172POPC   PO441184  33.434  24.192   5.792
 3172POPC   GL141185  33.688  23.781   5.846
 3172POPC   GL241186  34.083  23.725   5.806
 3172POPC   C1A41187  33.856  23.844   6.248
 3172POPC   D2A41188  33.641  24.155   6.543
 3172POPC   C3A41189  33.514  23.976   6.952
 3172POPC   C4A41190  33.724  23.904   7.332
 3172POPC   C1B41191  34.192  23.429   6.171
 3172POPC   C2B41192  34.045  23.495   6.615
 3172POPC   C3B41193  34.031  23.579   7.075
 3172POPC   C4B41194  33.904  23.468   7.529
 3173POPC   NC341195  17.414  26.848   5.365
 3173POPC   PO441196  17.966  27.323   5.310
 3173POPC   GL141197  17.758  27.040   5.741
 3173POPC   GL241198  17.606  26.701   5.835
 3173POPC   C1A41199  17.625  27.033   6.224
 3173POPC   D2A41200  17.706  26.854   6.652
 3173POPC   C3A41201  17.452  26.914   7.039
 3173POPC   C4A41202  17.497  26.743   7.454
 3173POPC   C1B41203  17.320  26.603   6.239
 3173POPC   C2B41204  17.258  26.554   6.708
 3173POPC   C3B41205  17.270  26.376   7.146
 3173POPC   C4B41206  17.160  26.362   7.614
 3174POPC   NC341207  14.689  38.938   5.402
 3174POPC   PO441208  14.038  39.212   5.340
 3174POPC   GL141209  14.238  39.072   5.784
 3174POPC   GL241210  14.597  39.072   5.886
 3174POPC   C1A41211  14.261  39.053   6.257
 3174POPC   D2A41212  14.279  39.393   6.577
 3174POPC   C3A41213  14.437  39.244   6.966
 3174POPC   C4A41214  14.192  38.973   7.237
 3174POPC   C1B41215  14.493  39.494   6.103
 3174POPC   C2B41216  14.719  39.642   6.471
 3174POPC   C3B41217  14.895  39.369   6.780
 3174POPC   C4B41218  14.854  39.464   7.213
 3175POPC   NC341219   0.044   3.709   5.617
 3175POPC   PO441220  44.657   3.330   5.179
 3175POPC   GL141221  44.571   3.484   5.670
 3175POPC   GL241222  44.564   3.805   5.885
 3175POPC   C1A41223  44.634   3.365   6.133
 3175POPC   D2A41224  44.802   3.567   6.527
 3175POPC   C3A41225  44.783   3.377   6.958
 3175POPC   C4A41226  44.432   3.414   7.233
 3175POPC   C1B41227  44.329   3.736   6.305
 3175POPC   C2B41228  44.363   3.699   6.773
 3175POPC   C3B41229  44.645   3.884   7.040
 3175POPC   C4B41230  44.798   3.923   7.459
 3176POPC   NC341231  20.817  38.155   5.410
 3176POPC   PO441232  20.810  37.464   5.404
 3176POPC   GL141233  20.796  37.725   5.726
 3176POPC   GL241234  20.459  37.688   5.807
 3176POPC   C1A41235  20.878  37.605   6.148
 3176POPC   D2A41236  20.749  37.581   6.551
 3176POPC   C3A41237  20.528  37.759   6.871
 3176POPC   C4A41238  20.597  37.649   7.273
 3176POPC   C1B41239  20.351  37.471   6.171
 3176POPC   C2B41240  20.354  37.282   6.579
 3176POPC   C3B41241  20.310  37.279   7.023
 3176POPC   C4B41242  20.152  37.396   7.447
 3177POPC   NC341243  41.532  27.789   5.323
 3177POPC   PO441244  41.485  27.208   5.704
 3177POPC   GL141245  41.489  27.638   5.820
 3177POPC   GL241246  41.813  27.747   5.975
 3177POPC   C1A41247  41.336  27.851   6.177
 3177POPC   D2A41248  41.191  27.683   6.579
 3177POPC   C3A41249  41.413  27.763   6.977
 3177POPC   C4A41250  41.817  27.809   7.199
 3177POPC   C1B41251  41.701  27.389   6.278
 3177POPC   C2B41252  41.468  27.131   6.536
 3177POPC   C3B41253  41.326  27.255   6.920
 3177POPC   C4B41254  41.648  27.336   7.207
 3178POPC   NC341255  21.611  40.677   5.389
 3178POPC   PO441256  21.049  41.055   5.342
 3178POPC   GL141257  21.128  41.004   5.791
 3178POPC   GL241258  21.374  40.738   5.852
 3178POPC   C1A41259  21.268  41.170   6.210
 3178POPC   D2A41260  21.576  41.033   6.514
 3178POPC   C3A41261  21.373  40.787   6.836
 3178POPC   C4A41262  21.074  40.952   7.140
 3178POPC   C1B41263  21.320  40.639   6.297
 3178POPC   C2B41264  21.001  40.506   6.584
 3178POPC   C3B41265  21.013  40.302   6.947
 3178POPC   C4B41266  21.312  40.450   7.227
 3179POPC   NC341267  37.782  30.581   5.397
 3179POPC   PO441268  37.217  30.969   5.526
 3179POPC   GL141269  37.481  30.777   5.862
 3179POPC   GL241270  37.793  30.581   5.927
 3179POPC   C1A41271  37.602  30.882   6.298
 3179POPC   D2A41272  37.666  30.660   6.687
 3179POPC   C3A41273  37.640  30.903   7.048
 3179POPC   C4A41274  37.376  31.088   7.356
 3179POPC   C1B41275  37.428  30.379   6.195
 3179POPC   C2B41276  37.217  30.393   6.622
 3179POPC   C3B41277  37.397  30.406   7.058
 3179POPC   C4B41278  37.853  30.442   7.207
 3180POPC   NC341279  22.440  30.203   5.351
 3180POPC   PO441280  21.965  29.767   5.300
 3180POPC   GL141281  22.103  29.892   5.695
 3180POPC   GL241282  22.014  30.241   5.711
 3180POPC   C1A41283  21.986  29.795   6.130
 3180POPC   D2A41284  22.042  29.984   6.523
 3180POPC   C3A41285  21.910  29.733   6.879
 3180POPC   C4A41286  22.192  29.948   7.155
 3180POPC   C1B41287  21.708  30.222   6.080
 3180POPC   C2B41288  21.714  30.386   6.525
 3180POPC   C3B41289  21.850  30.250   6.931
 3180POPC   C4B41290  21.673  29.977   7.274
 3181POPC   NC341291  24.091  18.091   5.542
 3181POPC   PO441292  24.721  18.175   5.195
 3181POPC   GL141293  24.700  18.420   5.626
 3181POPC   GL241294  24.405  18.344   5.862
 3181POPC   C1A41295  24.847  18.372   6.093
 3181POPC   D2A41296  24.580  18.530   6.390
 3181POPC   C3A41297  24.672  18.484   6.813
 3181POPC   C4A41298  24.647  18.209   7.164
 3181POPC   C1B41299  24.235  18.123   6.267
 3181POPC   C2B41300  24.316  18.009   6.714
 3181POPC   C3B41301  24.073  17.835   7.061
 3181POPC   C4B41302  24.161  18.047   7.442
 3182POPC   NC341303   0.403  30.584   5.415
 3182POPC   PO441304   0.430  31.261   5.345
 3182POPC   GL141305   0.446  30.978   5.727
 3182POPC   GL241306   0.178  30.826   5.858
 3182POPC   C1A41307   0.655  30.826   6.142
 3182POPC   D2A41308   0.710  30.511   6.481
 3182POPC   C3A41309   0.699  30.637   6.909
 3182POPC   C4A41310   0.415  30.513   7.248
 3182POPC   C1B41311   0.224  30.579   6.239
 3182POPC   C2B41312  44.926  30.417   6.530
 3182POPC   C3B41313  44.938  30.442   6.962
 3182POPC   C4B41314  44.932  30.391   7.398
 3183POPC   NC341315  37.449   1.958   5.034
 3183POPC   PO441316  36.807   1.979   5.351
 3183POPC   GL141317  36.900   1.894   5.753
 3183POPC   GL241318  37.131   2.184   5.844
 3183POPC   C1A41319  36.777   1.942   6.184
 3183POPC   D2A41320  37.024   2.047   6.542
 3183POPC   C3A41321  36.947   1.866   6.945
 3183POPC   C4A41322  37.283   1.855   7.223
 3183POPC   C1B41323  37.334   2.413   6.178
 3183POPC   C2B41324  37.169   2.540   6.570
 3183POPC   C3B41325  36.857   2.386   6.902
 3183POPC   C4B41326  37.004   2.318   7.299
 3184POPC   NC341327  14.891  41.300   5.112
 3184POPC   PO441328  14.343  41.430   5.568
 3184POPC   GL141329  14.345  41.628   5.928
 3184POPC   GL241330  14.585  41.864   5.788
 3184POPC   C1A41331  14.165  41.515   6.329
 3184POPC   D2A41332  14.355  41.662   6.690
 3184POPC   C3A41333  14.251  41.462   7.037
 3184POPC   C4A41334  14.570  41.195   7.164
 3184POPC   C1B41335  14.680  41.912   6.199
 3184POPC   C2B41336  14.647  42.149   6.540
 3184POPC   C3B41337  14.727  41.947   6.898
 3184POPC   C4B41338  14.646  41.709   7.237
 3185POPC   NC341339  25.902  44.037   5.373
 3185POPC   PO441340  26.209  43.463   5.297
 3185POPC   GL141341  26.163  43.744   5.710
 3185POPC   GL241342  25.822  43.798   5.809
 3185POPC   C1A41343  26.182  43.967   6.155
 3185POPC   D2A41344  26.112  44.115   6.596
 3185POPC   C3A41345  26.330  44.051   6.983
 3185POPC   C4A41346  26.304  43.680   7.208
 3185POPC   C1B41347  25.683  43.858   6.201
 3185POPC   C2B41348  25.860  43.634   6.511
 3185POPC   C3B41349  25.729  43.677   6.892
 3185POPC   C4B41350  25.697  43.993   7.159
 3186POPC   NC341351  31.317   4.723   5.003
 3186POPC   PO441352  31.707   5.050   5.485
 3186POPC   GL141353  31.682   4.927   5.872
 3186POPC   GL241354  31.347   4.784   5.787
 3186POPC   C1A41355  31.451   5.136   6.184
 3186POPC   D2A41356  31.164   5.091   6.507
 3186POPC   C3A41357  31.278   5.373   6.829
 3186POPC   C4A41358  31.230   5.397   7.243
 3186POPC   C1B41359  31.411   4.617   6.199
 3186POPC   C2B41360  31.583   4.742   6.581
 3186POPC   C3B41361  31.380   4.880   6.923
 3186POPC   C4B41362  31.533   5.008   7.290
 3187POPC   NC341363  22.068  14.091   5.426
 3187POPC   PO441364  22.626  14.460   5.167
 3187POPC   GL141365  22.386  14.513   5.635
 3187POPC   GL241366  22.022  14.424   5.778
 3187POPC   C1A41367  22.346  14.523   6.136
 3187POPC   D2A41368  22.512  14.460   6.556
 3187POPC   C3A41369  22.288  14.533   6.951
 3187POPC   C4A41370  22.351  14.348   7.390
 3187POPC   C1B41371  21.929  14.214   6.204
 3187POPC   C2B41372  22.109  14.165   6.632
 3187POPC   C3B41373  22.013  14.090   7.064
 3187POPC   C4B41374  21.586  14.163   7.233
 3188POPC   NC341375   4.140   1.746   5.374
 3188POPC   PO441376   4.673   2.045   5.528
 3188POPC   GL141377   4.386   2.094   5.807
 3188POPC   GL241378   4.263   2.419   5.720
 3188POPC   C1A41379   4.424   1.996   6.239
 3188POPC   D2A41380   4.363   2.123   6.645
 3188POPC   C3A41381   4.349   1.901   7.023
 3188POPC   C4A41382   4.183   1.885   7.423
 3188POPC   C1B41383   4.125   2.417   6.160
 3188POPC   C2B41384   4.015   2.495   6.584
 3188POPC   C3B41385   4.120   2.398   7.010
 3188POPC   C4B41386   4.057   2.425   7.429
 3189POPC   NC341387  33.432  36.318   5.355
 3189POPC   PO441388  33.641  35.730   5.637
 3189POPC   GL141389  33.657  36.184   5.812
 3189POPC   GL241390  33.959  36.410   5.814
 3189POPC   C1A41391  33.603  36.391   6.230
 3189POPC   D2A41392  33.501  36.213   6.666
 3189POPC   C3A41393  33.747  36.186   7.059
 3189POPC   C4A41394  33.867  35.779   7.248
 3189POPC   C1B41395  34.098  36.578   6.220
 3189POPC   C2B41396  34.097  36.416   6.670
 3189POPC   C3B41397  34.049  36.622   7.087
 3189POPC   C4B41398  33.726  36.612   7.407
 3190POPC   NC341399  26.264  28.387   5.562
 3190POPC   PO441400  25.659  28.411   5.515
 3190POPC   GL141401  25.850  28.673   5.846
 3190POPC   GL241402  25.967  28.336   5.996
 3190POPC   C1A41403  26.143  28.757   6.212
 3190POPC   D2A41404  26.203  28.393   6.521
 3190POPC   C3A41405  26.316  28.458   6.971
 3190POPC   C4A41406  25.958  28.439   7.277
 3190POPC   C1B41407  26.296  28.016   6.136
 3190POPC   C2B41408  26.544  27.997   6.522
 3190POPC   C3B41409  26.415  27.918   6.946
 3190POPC   C4B41410  26.455  28.066   7.362
 3191POPC   NC341411  20.588  42.190   5.504
 3191POPC   PO441412  20.272  42.767   5.440
 3191POPC   GL141413  20.483  42.604   5.797
 3191POPC   GL241414  20.819  42.495   5.854
 3191POPC   C1A41415  20.414  42.357   6.188
 3191POPC   D2A41416  20.186  42.219   6.577
 3191POPC   C3A41417  20.336  42.346   6.988
 3191POPC   C4A41418  20.512  42.611   7.310
 3191POPC   C1B41419  20.923  42.338   6.270
 3191POPC   C2B41420  20.722  42.242   6.655
 3191POPC   C3B41421  20.845  42.315   7.078
 3191POPC   C4B41422  20.942  42.085   7.478
 3192POPC   NC341423  23.769  21.813   5.408
 3192POPC   PO441424  23.898  21.120   5.578
 3192POPC   GL141425  23.701  21.441   5.778
 3192POPC   GL241426  23.547  21.184   6.003
 3192POPC   C1A41427  23.768  21.616   6.157
 3192POPC   D2A41428  23.584  21.496   6.536
 3192POPC   C3A41429  23.533  21.799   6.860
 3192POPC   C4A41430  23.623  21.651   7.299
 3192POPC   C1B41431  23.920  21.134   6.319
 3192POPC   C2B41432  23.929  21.143   6.795
 3192POPC   C3B41433  23.958  21.220   7.263
 3192POPC   C4B41434  24.129  21.034   7.696
 3193POPC   NC341435  42.795  15.320   5.485
 3193POPC   PO441436  43.354  14.998   5.218
 3193POPC   GL141437  43.273  15.073   5.663
 3193POPC   GL241438  43.033  14.868   5.776
 3193POPC   C1A41439  43.181  15.222   6.112
 3193POPC   D2A41440  43.329  15.210   6.547
 3193POPC   C3A41441  43.126  15.291   6.951
 3193POPC   C4A41442  43.249  15.351   7.394
 3193POPC   C1B41443  42.788  14.867   6.162
 3193POPC   C2B41444  42.863  14.995   6.577
 3193POPC   C3B41445  42.927  14.797   6.950
 3193POPC   C4B41446  43.120  14.885   7.296
 3194POPC   NC341447  12.316  13.919   5.466
 3194POPC   PO441448  11.928  14.493   5.370
 3194POPC   GL141449  12.156  14.425   5.730
 3194POPC   GL241450  11.963  14.126   5.794
 3194POPC   C1A41451  12.281  14.639   6.138
 3194POPC   D2A41452  12.369  14.530   6.592
 3194POPC   C3A41453  12.052  14.627   6.934
 3194POPC   C4A41454  12.209  14.620   7.379
 3194POPC   C1B41455  12.116  14.157   6.230
 3194POPC   C2B41456  11.984  14.180   6.664
 3194POPC   C3B41457  12.158  14.170   7.079
 3194POPC   C4B41458  11.951  14.218   7.509
 3195POPC   NC341459   9.875   0.332   5.124
 3195POPC   PO441460   9.432   0.814   5.272
 3195POPC   GL141461   9.532   0.559   5.631
 3195POPC   GL241462   9.706   0.230   5.646
 3195POPC   C1A41463   9.528   0.509   6.085
 3195POPC   D2A41464   9.337   0.441   6.467
 3195POPC   C3A41465   9.579   0.545   6.826
 3195POPC   C4A41466   9.719   0.437   7.246
 3195POPC   C1B41467   9.908   0.177   6.076
 3195POPC   C2B41468   9.801   0.207   6.493
 3195POPC   C3B41469   9.891   0.108   6.913
 3195POPC   C4B41470  10.080   0.101   7.383
 3196POPC   NC341471  34.158  18.919   5.432
 3196POPC   PO441472  33.498  19.071   5.284
 3196POPC   GL141473  33.672  18.939   5.705
 3196POPC   GL241474  33.917  19.163   5.831
 3196POPC   C1A41475  33.784  18.806   6.163
 3196POPC   D2A41476  33.602  18.944   6.550
 3196POPC   C3A41477  33.758  18.992   6.947
 3196POPC   C4A41478  33.858  18.809   7.348
 3196POPC   C1B41479  34.179  19.089   6.220
 3196POPC   C2B41480  34.137  18.827   6.602
 3196POPC   C3B41481  34.265  18.980   7.009
 3196POPC   C4B41482  34.084  19.250   7.271
 3197POPC   NC341483  37.728  15.821   5.319
 3197POPC   PO441484  37.110  16.043   5.152
 3197POPC   GL141485  37.409  16.082   5.629
 3197POPC   GL241486  37.685  15.756   5.805
 3197POPC   C1A41487  37.419  15.994   6.134
 3197POPC   D2A41488  37.702  16.014   6.533
 3197POPC   C3A41489  37.610  16.049   6.990
 3197POPC   C4A41490  37.413  16.348   7.282
 3197POPC   C1B41491  37.964  15.589   6.166
 3197POPC   C2B41492  38.067  15.676   6.627
 3197POPC   C3B41493  38.134  15.664   7.074
 3197POPC   C4B41494  38.074  15.764   7.510
 3198POPC   NC341495   7.093  19.456   5.370
 3198POPC   PO441496   7.104  18.831   5.530
 3198POPC   GL141497   7.226  19.157   5.823
 3198POPC   GL241498   7.557  19.182   5.867
 3198POPC   C1A41499   7.231  19.192   6.285
 3198POPC   D2A41500   7.340  18.985   6.651
 3198POPC   C3A41501   7.196  19.142   7.032
 3198POPC   C4A41502   7.240  18.894   7.399
 3198POPC   C1B41503   7.778  19.216   6.250
 3198POPC   C2B41504   7.644  19.414   6.617
 3198POPC   C3B41505   7.786  19.466   7.026
 3198POPC   C4B41506   7.626  19.303   7.385
 3199POPC   NC341507   7.190  42.555   5.476
 3199POPC   PO441508   7.742  42.925   5.508
 3199POPC   GL141509   7.310  43.063   5.730
 3199POPC   GL241510   7.193  43.447   5.734
 3199POPC   C1A41511   7.141  43.013   6.166
 3199POPC   D2A41512   7.314  43.153   6.586
 3199POPC   C3A41513   7.464  42.887   6.916
 3199POPC   C4A41514   7.139  42.664   7.138
 3199POPC   C1B41515   7.384  43.472   6.158
 3199POPC   C2B41516   7.636  43.543   6.547
 3199POPC   C3B41517   7.644  43.382   6.969
 3199POPC   C4B41518   7.288  43.470   7.183
 3200POPC   NC341519  36.126  21.779   4.953
 3200POPC   PO441520  36.247  21.295   5.406
 3200POPC   GL141521  36.082  21.215   5.752
 3200POPC   GL241522  36.245  21.527   5.895
 3200POPC   C1A41523  35.948  21.188   6.151
 3200POPC   D2A41524  36.285  21.098   6.440
 3200POPC   C3A41525  36.287  21.258   6.838
 3200POPC   C4A41526  36.142  21.179   7.233
 3200POPC   C1B41527  36.141  21.614   6.332
 3200POPC   C2B41528  35.837  21.430   6.618
 3200POPC   C3B41529  35.892  21.580   7.004
 3200POPC   C4B41530  36.326  21.663   7.190
 3201POPC   NC341531  12.369  16.336   5.583
 3201POPC   PO441532  12.072  16.873   5.352
 3201POPC   GL141533  11.835  16.794   5.774
 3201POPC   GL241534  11.798  17.122   5.859
 3201POPC   C1A41535  11.774  16.630   6.242
 3201POPC   D2A41536  11.981  16.357   6.595
 3201POPC   C3A41537  12.032  16.519   7.012
 3201POPC   C4A41538  11.828  16.453   7.429
 3201POPC   C1B41539  12.018  17.079   6.225
 3201POPC   C2B41540  12.019  16.894   6.616
 3201POPC   C3B41541  12.030  17.053   6.997
 3201POPC   C4B41542  12.116  16.879   7.389
 3202POPC   NC341543  17.248  37.098   5.455
 3202POPC   PO441544  17.744  36.692   5.544
 3202POPC   GL141545  17.511  36.871   5.904
 3202POPC   GL241546  17.305  37.195   5.946
 3202POPC   C1A41547  17.612  36.992   6.339
 3202POPC   D2A41548  17.858  37.213   6.665
 3202POPC   C3A41549  17.817  37.044   7.082
 3202POPC   C4A41550  17.538  36.811   7.315
 3202POPC   C1B41551  16.951  37.318   6.229
 3202POPC   C2B41552  17.091  37.479   6.637
 3202POPC   C3B41553  17.387  37.324   6.945
 3202POPC   C4B41554  17.398  37.286   7.401
 3203POPC   NC341555  18.233  17.114   5.259
 3203POPC   PO441556  18.268  16.533   5.605
 3203POPC   GL141557  18.437  16.924   5.729
 3203POPC   GL241558  18.116  17.058   5.829
 3203POPC   C1A41559  18.502  16.847   6.159
 3203POPC   D2A41560  18.367  16.455   6.422
 3203POPC   C3A41561  18.388  16.450   6.880
 3203POPC   C4A41562  18.372  16.765   7.180
 3203POPC   C1B41563  18.007  16.800   6.247
 3203POPC   C2B41564  18.106  16.849   6.717
 3203POPC   C3B41565  17.942  17.047   7.124
 3203POPC   C4B41566  17.829  17.007   7.576
 3204POPC   NC341567   7.707  25.138   5.516
 3204POPC   PO441568   7.333  25.699   5.451
 3204POPC   GL141569   7.336  25.372   5.797
 3204POPC   GL241570   7.213  25.006   5.849
 3204POPC   C1A41571   7.532  25.269   6.168
 3204POPC   D2A41572   7.477  25.059   6.530
 3204POPC   C3A41573   7.609  25.210   6.890
 3204POPC   C4A41574   7.370  25.302   7.255
 3204POPC   C1B41575   7.260  24.696   6.228
 3204POPC   C2B41576   7.325  24.600   6.679
 3204POPC   C3B41577   7.358  24.812   7.066
 3204POPC   C4B41578   7.513  24.866   7.494
 3205POPC   NC341579  22.115  43.493   5.533
 3205POPC   PO441580  21.944  44.209   5.394
 3205POPC   GL141581  22.012  43.956   5.778
 3205POPC   GL241582  21.797  43.658   5.876
 3205POPC   C1A41583  22.100  43.982   6.221
 3205POPC   D2A41584  22.307  44.126   6.586
 3205POPC   C3A41585  22.135  43.979   6.972
 3205POPC   C4A41586  22.308  43.936   7.358
 3205POPC   C1B41587  22.075  43.467   6.206
 3205POPC   C2B41588  22.119  43.600   6.637
 3205POPC   C3B41589  22.363  43.473   7.028
 3205POPC   C4B41590  22.625  43.547   7.400
 3206POPC   NC341591  36.604  26.276   5.434
 3206POPC   PO441592  37.180  25.976   5.365
 3206POPC   GL141593  37.273  25.895   5.773
 3206POPC   GL241594  36.910  25.927   5.821
 3206POPC   C1A41595  37.232  25.779   6.217
 3206POPC   D2A41596  37.062  25.730   6.627
 3206POPC   C3A41597  36.883  25.996   6.930
 3206POPC   C4A41598  37.188  26.023   7.216
 3206POPC   C1B41599  36.638  26.137   6.066
 3206POPC   C2B41600  36.613  26.120   6.474
 3206POPC   C3B41601  36.648  26.435   6.737
 3206POPC   C4B41602  36.625  26.405   7.175
 3207POPC   NC341603   6.072  33.380   5.583
 3207POPC   PO441604   5.800  32.902   5.152
 3207POPC   GL141605   5.974  32.858   5.625
 3207POPC   GL241606   6.324  32.949   5.746
 3207POPC   C1A41607   6.024  32.653   6.045
 3207POPC   D2A41608   5.962  32.769   6.479
 3207POPC   C3A41609   6.086  32.800   6.885
 3207POPC   C4A41610   5.905  32.999   7.232
 3207POPC   C1B41611   6.222  33.123   6.182
 3207POPC   C2B41612   6.161  33.246   6.629
 3207POPC   C3B41613   6.221  33.360   7.074
 3207POPC   C4B41614   6.192  33.286   7.566
 3208POPC   NC341615  27.864   9.904   5.380
 3208POPC   PO441616  27.183   9.635   5.482
 3208POPC   GL141617  27.513   9.757   5.764
 3208POPC   GL241618  27.735   9.446   5.761
 3208POPC   C1A41619  27.528  10.005   6.166
 3208POPC   D2A41620  27.345   9.886   6.559
 3208POPC   C3A41621  27.463   9.978   6.978
 3208POPC   C4A41622  27.361   9.647   7.197
 3208POPC   C1B41623  27.929   9.722   6.060
 3208POPC   C2B41624  27.871   9.746   6.479
 3208POPC   C3B41625  27.926   9.813   6.896
 3208POPC   C4B41626  27.864   9.663   7.311
 3209POPC   NC341627   0.633  17.473   5.455
 3209POPC   PO441628   0.024  17.711   5.585
 3209POPC   GL141629   0.299  17.494   5.911
 3209POPC   GL241630   0.670  17.468   5.957
 3209POPC   C1A41631   0.314  17.437   6.377
 3209POPC   D2A41632   0.003  17.275   6.737
 3209POPC   C3A41633   0.156  17.380   7.144
 3209POPC   C4A41634   0.346  17.770   7.144
 3209POPC   C1B41635   0.862  17.605   6.340
 3209POPC   C2B41636   0.670  17.665   6.734
 3209POPC   C3B41637   0.700  17.395   7.093
 3209POPC   C4B41638   1.042  17.348   7.393
 3210POPC   NC341639  41.266  43.707   5.142
 3210POPC   PO441640  40.541  43.708   5.221
 3210POPC   GL141641  40.839  43.672   5.557
 3210POPC   GL241642  40.835  43.996   5.732
 3210POPC   C1A41643  40.874  43.592   6.023
 3210POPC   D2A41644  40.882  43.847   6.396
 3210POPC   C3A41645  40.721  43.717   6.773
 3210POPC   C4A41646  40.803  43.809   7.195
 3210POPC   C1B41647  41.204  44.087   6.100
 3210POPC   C2B41648  41.356  44.158   6.524
 3210POPC   C3B41649  41.144  44.059   6.904
 3210POPC   C4B41650  40.954  44.290   7.283
 3211POPC   NC341651  37.716  24.965   5.534
 3211POPC   PO441652  37.496  24.297   5.457
 3211POPC   GL141653  37.539  24.589   5.802
 3211POPC   GL241654  37.880  24.613   5.923
 3211POPC   C1A41655  37.520  24.890   6.181
 3211POPC   D2A41656  37.418  24.776   6.591
 3211POPC   C3A41657  37.605  24.536   6.917
 3211POPC   C4A41658  37.327  24.614   7.282
 3211POPC   C1B41659  37.644  24.397   6.277
 3211POPC   C2B41660  37.556  24.121   6.620
 3211POPC   C3B41661  37.275  24.121   6.952
 3211POPC   C4B41662  37.491  24.141   7.290
 3212POPC   NC341663  24.376  30.815   5.469
 3212POPC   PO441664  24.926  31.093   5.458
 3212POPC   GL141665  24.767  30.842   5.811
 3212POPC   GL241666  24.581  30.501   5.810
 3212POPC   C1A41667  24.614  30.800   6.225
 3212POPC   D2A41668  24.567  30.599   6.629
 3212POPC   C3A41669  24.533  30.928   6.900
 3212POPC   C4A41670  24.664  31.019   7.296
 3212POPC   C1B41671  24.198  30.526   6.125
 3212POPC   C2B41672  24.110  30.357   6.568
 3212POPC   C3B41673  24.179  30.532   6.993
 3212POPC   C4B41674  24.228  30.530   7.458
 3213POPC   NC341675  42.119  19.082   5.618
 3213POPC   PO441676  42.621  18.725   5.453
 3213POPC   GL141677  42.574  18.984   5.834
 3213POPC   GL241678  42.568  19.357   5.752
 3213POPC   C1A41679  42.397  18.959   6.273
 3213POPC   D2A41680  42.494  18.884   6.715
 3213POPC   C3A41681  42.182  19.030   6.998
 3213POPC   C4A41682  41.956  19.336   7.225
 3213POPC   C1B41683  42.520  19.477   6.142
 3213POPC   C2B41684  42.573  19.383   6.547
 3213POPC   C3B41685  42.603  19.329   6.976
 3213POPC   C4B41686  42.919  19.330   7.297
 3214POPC   NC341687   9.852  33.390   5.552
 3214POPC   PO441688   9.660  32.834   5.361
 3214POPC   GL141689   9.546  32.947   5.804
 3214POPC   GL241690   9.396  33.275   5.858
 3214POPC   C1A41691   9.706  33.087   6.225
 3214POPC   D2A41692  10.059  32.996   6.509
 3214POPC   C3A41693   9.912  33.009   6.909
 3214POPC   C4A41694   9.838  33.057   7.365
 3214POPC   C1B41695   9.437  33.562   6.190
 3214POPC   C2B41696   9.291  33.415   6.582
 3214POPC   C3B41697   9.491  33.294   6.941
 3214POPC   C4B41698   9.363  33.263   7.337
 3215POPC   NC341699   9.869  42.530   5.616
 3215POPC   PO441700   9.795  42.024   5.233
 3215POPC   GL141701   9.667  42.105   5.788
 3215POPC   GL241702   9.509  42.415   5.953
 3215POPC   C1A41703   9.706  42.093   6.285
 3215POPC   D2A41704   9.899  42.286   6.687
 3215POPC   C3A41705   9.849  42.093   7.072
 3215POPC   C4A41706   9.465  41.953   7.163
 3215POPC   C1B41707   9.802  42.603   6.267
 3215POPC   C2B41708   9.616  42.712   6.640
 3215POPC   C3B41709   9.607  42.562   7.058
 3215POPC   C4B41710   9.986  42.577   7.229
 3216POPC   NC341711  11.955  23.853   5.341
 3216POPC   PO441712  12.582  24.021   5.428
 3216POPC   GL141713  12.289  23.843   5.771
 3216POPC   GL241714  11.953  23.632   5.798
 3216POPC   C1A41715  12.119  23.890   6.192
 3216POPC   D2A41716  12.078  23.990   6.600
 3216POPC   C3A41717  12.096  23.767   6.933
 3216POPC   C4A41718  11.909  23.967   7.269
 3216POPC   C1B41719  11.785  23.456   6.204
 3216POPC   C2B41720  11.829  23.331   6.643
 3216POPC   C3B41721  11.699  23.501   7.032
 3216POPC   C4B41722  11.755  23.379   7.454
 3217POPC   NC341723  14.343  37.311   5.524
 3217POPC   PO441724  14.234  36.571   5.528
 3217POPC   GL141725  14.349  36.875   5.811
 3217POPC   GL241726  14.678  36.749   5.870
 3217POPC   C1A41727  14.486  37.116   6.177
 3217POPC   D2A41728  14.291  36.984   6.534
 3217POPC   C3A41729  14.387  37.123   6.894
 3217POPC   C4A41730  14.249  37.113   7.293
 3217POPC   C1B41731  14.473  36.589   6.246
 3217POPC   C2B41732  14.618  36.633   6.687
 3217POPC   C3B41733  14.379  36.656   7.074
 3217POPC   C4B41734  14.447  36.540   7.485
 3218POPC   NC341735  31.180  36.275   5.063
 3218POPC   PO441736  31.622  36.432   5.580
 3218POPC   GL141737  31.471  36.152   5.879
 3218POPC   GL241738  31.103  36.008   5.860
 3218POPC   C1A41739  31.678  36.017   6.227
 3218POPC   D2A41740  31.522  35.799   6.553
 3218POPC   C3A41741  31.590  36.014   6.917
 3218POPC   C4A41742  31.617  36.204   7.275
 3218POPC   C1B41743  31.175  36.122   6.285
 3218POPC   C2B41744  31.123  36.087   6.720
 3218POPC   C3B41745  31.105  36.086   7.150
 3218POPC   C4B41746  31.163  36.132   7.567
 3219POPC   NC341747   3.331  17.244   5.486
 3219POPC   PO441748   3.758  17.648   5.313
 3219POPC   GL141749   3.721  17.575   5.816
 3219POPC   GL241750   3.457  17.313   5.959
 3219POPC   C1A41751   3.572  17.748   6.241
 3219POPC   D2A41752   3.268  17.706   6.606
 3219POPC   C3A41753   3.500  17.717   7.014
 3219POPC   C4A41754   3.441  17.539   7.432
 3219POPC   C1B41755   3.743  17.271   6.249
 3219POPC   C2B41756   3.649  17.354   6.670
 3219POPC   C3B41757   3.753  17.262   7.077
 3219POPC   C4B41758   3.830  17.214   7.505
 3220POPC   NC341759   3.869   8.932   5.399
 3220POPC   PO441760   3.223   9.192   5.478
 3220POPC   GL141761   3.430   9.012   5.817
 3220POPC   GL241762   3.443   8.716   5.696
 3220POPC   C1A41763   3.472   9.062   6.257
 3220POPC   D2A41764   3.428   9.368   6.554
 3220POPC   C3A41765   3.568   9.152   6.880
 3220POPC   C4A41766   3.748   9.086   7.256
 3220POPC   C1B41767   3.561   8.577   6.149
 3220POPC   C2B41768   3.687   8.683   6.609
 3220POPC   C3B41769   3.512   8.668   7.031
 3220POPC   C4B41770   3.246   8.937   7.256
 3221POPC   NC341771  12.355  33.216   5.157
 3221POPC   PO441772  11.865  32.830   5.426
 3221POPC   GL141773  11.927  33.137   5.745
 3221POPC   GL241774  12.279  33.059   5.784
 3221POPC   C1A41775  11.943  33.092   6.210
 3221POPC   D2A41776  12.077  32.933   6.662
 3221POPC   C3A41777  11.834  32.993   7.084
 3221POPC   C4A41778  11.827  33.071   7.550
 3221POPC   C1B41779  12.423  33.252   6.200
 3221POPC   C2B41780  12.518  33.340   6.656
 3221POPC   C3B41781  12.290  33.239   7.043
 3221POPC   C4B41782  12.279  32.841   7.305
 3222POPC   NC341783  22.420  22.343   5.463
 3222POPC   PO441784  21.826  22.110   5.230
 3222POPC   GL141785  21.969  22.146   5.737
 3222POPC   GL241786  22.324  22.107   5.890
 3222POPC   C1A41787  22.026  22.207   6.263
 3222POPC   D2A41788  22.035  22.023   6.705
 3222POPC   C3A41789  22.036  22.226   7.138
 3222POPC   C4A41790  21.872  22.081   7.523
 3222POPC   C1B41791  22.546  21.912   6.238
 3222POPC   C2B41792  22.605  22.013   6.674
 3222POPC   C3B41793  22.408  21.867   7.050
 3222POPC   C4B41794  22.366  21.937   7.500
 3223POPC   NC341795  39.788   0.669   5.572
 3223POPC   PO441796  39.780  44.992   5.398
 3223POPC   GL141797  39.953   0.181   5.755
 3223POPC   GL241798  40.251   0.381   5.751
 3223POPC   C1A41799  40.082   0.174   6.184
 3223POPC   D2A41800  40.066   0.406   6.545
 3223POPC   C3A41801  40.235   0.256   6.931
 3223POPC   C4A41802  40.004   0.364   7.304
 3223POPC   C1B41803  40.283   0.692   6.102
 3223POPC   C2B41804  40.394   0.794   6.528
 3223POPC   C3B41805  40.192   0.767   6.958
 3223POPC   C4B41806  40.189   1.090   7.237
 3224POPC   NC341807  30.308  26.370   5.555
 3224POPC   PO441808  29.971  25.794   5.732
 3224POPC   GL141809  30.034  26.137   5.966
 3224POPC   GL241810  29.786  26.333   5.845
 3224POPC   C1A41811  30.086  26.057   6.390
 3224POPC   D2A41812  30.193  25.794   6.748
 3224POPC   C3A41813  30.068  25.956   7.145
 3224POPC   C4A41814  30.106  25.779   7.571
 3224POPC   C1B41815  29.601  26.158   6.253
 3224POPC   C2B41816  29.709  26.195   6.690
 3224POPC   C3B41817  29.601  26.138   7.090
 3224POPC   C4B41818  29.831  26.275   7.484
 3225POPC   NC341819  40.955  12.466   5.500
 3225POPC   PO441820  40.698  13.120   5.425
 3225POPC   GL141821  40.915  13.038   5.833
 3225POPC   GL241822  40.609  13.212   5.929
 3225POPC   C1A41823  41.130  12.887   6.278
 3225POPC   D2A41824  41.219  12.577   6.636
 3225POPC   C3A41825  41.101  12.746   7.022
 3225POPC   C4A41826  40.893  12.785   7.414
 3225POPC   C1B41827  40.615  12.849   6.204
 3225POPC   C2B41828  40.749  12.831   6.629
 3225POPC   C3B41829  40.571  12.729   7.017
 3225POPC   C4B41830  40.517  13.080   7.267
 3226POPC   NC341831  26.698  29.320   5.177
 3226POPC   PO441832  26.490  28.795   5.545
 3226POPC   GL141833  26.604  28.916   5.937
 3226POPC   GL241834  26.852  29.084   5.795
 3226POPC   C1A41835  26.674  29.226   6.275
 3226POPC   D2A41836  26.495  29.244   6.680
 3226POPC   C3A41837  26.785  29.197   7.006
 3226POPC   C4A41838  26.756  28.818   7.228
 3226POPC   C1B41839  27.090  28.943   6.159
 3226POPC   C2B41840  27.099  29.148   6.588
 3226POPC   C3B41841  27.219  28.950   6.988
 3226POPC   C4B41842  27.259  28.760   7.366
 3227POPC   NC341843   2.917  28.010   5.526
 3227POPC   PO441844   2.757  28.603   5.424
 3227POPC   GL141845   2.796  28.412   5.832
 3227POPC   GL241846   3.151  28.449   5.884
 3227POPC   C1A41847   2.734  28.476   6.283
 3227POPC   D2A41848   2.976  28.374   6.672
 3227POPC   C3A41849   2.734  28.391   7.063
 3227POPC   C4A41850   2.534  28.403   7.444
 3227POPC   C1B41851   3.097  28.106   6.197
 3227POPC   C2B41852   3.154  27.894   6.592
 3227POPC   C3B41853   3.042  27.982   7.022
 3227POPC   C4B41854   2.960  28.128   7.442
 3228POPC   NC341855   9.805   3.982   5.194
 3228POPC   PO441856  10.026   4.586   5.449
 3228POPC   GL141857   9.898   4.239   5.733
 3228POPC   GL241858   9.524   4.210   5.765
 3228POPC   C1A41859   9.969   4.036   6.165
 3228POPC   D2A41860  10.004   4.285   6.558
 3228POPC   C3A41861   9.828   4.209   6.966
 3228POPC   C4A41862   9.855   4.058   7.373
 3228POPC   C1B41863   9.635   4.432   6.160
 3228POPC   C2B41864   9.535   4.518   6.571
 3228POPC   C3B41865   9.642   4.676   6.970
 3228POPC   C4B41866   9.694   4.615   7.420
 3229POPC   NC341867  13.751  28.768   5.241
 3229POPC   PO441868  13.977  29.480   5.359
 3229POPC   GL141869  13.935  29.231   5.800
 3229POPC   GL241870  13.570  29.018   5.739
 3229POPC   C1A41871  13.798  29.007   6.213
 3229POPC   D2A41872  13.823  29.205   6.618
 3229POPC   C3A41873  13.778  29.089   7.039
 3229POPC   C4A41874  13.567  29.412   7.272
 3229POPC   C1B41875  13.263  28.971   6.085
 3229POPC   C2B41876  13.324  28.973   6.542
 3229POPC   C3B41877  13.260  28.974   6.997
 3229POPC   C4B41878  13.129  28.656   7.265
 3230POPC   NC341879   5.092  36.329   5.490
 3230POPC   PO441880   5.302  35.740   5.314
 3230POPC   GL141881   5.429  35.987   5.664
 3230POPC   GL241882   5.099  35.921   5.853
 3230POPC   C1A41883   5.476  36.228   6.066
 3230POPC   D2A41884   5.312  36.062   6.456
 3230POPC   C3A41885   5.319  36.276   6.848
 3230POPC   C4A41886   5.259  35.980   7.146
 3230POPC   C1B41887   4.949  36.262   6.140
 3230POPC   C2B41888   4.841  36.356   6.586
 3230POPC   C3B41889   4.801  36.206   7.003
 3230POPC   C4B41890   5.029  36.378   7.327
 3231POPC   NC341891  20.018  26.274   5.301
 3231POPC   PO441892  19.488  26.576   5.531
 3231POPC   GL141893  19.770  26.345   5.772
 3231POPC   GL241894  19.980  26.032   5.738
 3231POPC   C1A41895  19.706  26.185   6.174
 3231POPC   D2A41896  19.885  25.986   6.526
 3231POPC   C3A41897  19.713  26.134   6.896
 3231POPC   C4A41898  19.500  25.924   7.198
 3231POPC   C1B41899  20.217  26.132   6.117
 3231POPC   C2B41900  20.386  26.234   6.527
 3231POPC   C3B41901  20.245  26.032   6.898
 3231POPC   C4B41902  20.013  26.021   7.292
 3232POPC   NC341903  19.925  30.035   5.185
 3232POPC   PO441904  20.321  29.608   5.132
 3232POPC   GL141905  20.094  29.786   5.590
 3232POPC   GL241906  19.823  30.094   5.681
 3232POPC   C1A41907  20.126  29.935   6.048
 3232POPC   D2A41908  19.917  29.831   6.417
 3232POPC   C3A41909  20.026  29.938   6.810
 3232POPC   C4A41910  19.800  30.015   7.130
 3232POPC   C1B41911  19.684  30.192   6.151
 3232POPC   C2B41912  19.679  30.266   6.606
 3232POPC   C3B41913  19.476  30.402   6.984
 3232POPC   C4B41914  19.713  30.448   7.372
 3233POPC   NC341915  21.197  27.849   5.492
 3233POPC   PO441916  21.571  27.227   5.496
 3233POPC   GL141917  21.414  27.510   5.822
 3233POPC   GL241918  21.642  27.838   5.767
 3233POPC   C1A41919  21.104  27.477   6.194
 3233POPC   D2A41920  20.956  27.597   6.615
 3233POPC   C3A41921  21.262  27.499   6.932
 3233POPC   C4A41922  21.583  27.401   7.242
 3233POPC   C1B41923  21.395  27.927   6.128
 3233POPC   C2B41924  21.456  27.765   6.497
 3233POPC   C3B41925  21.627  27.911   6.850
 3233POPC   C4B41926  21.422  27.921   7.210
 3234POPC   NC341927   5.982  40.961   5.159
 3234POPC   PO441928   6.570  40.646   5.441
 3234POPC   GL141929   6.570  40.798   5.866
 3234POPC   GL241930   6.731  41.107   5.919
 3234POPC   C1A41931   6.729  40.639   6.247
 3234POPC   D2A41932   6.984  40.680   6.613
 3234POPC   C3A41933   6.739  40.786   6.983
 3234POPC   C4A41934   6.638  40.676   7.408
 3234POPC   C1B41935   6.668  41.127   6.362
 3234POPC   C2B41936   6.958  41.198   6.695
 3234POPC   C3B41937   7.051  41.180   7.133
 3234POPC   C4B41938   6.686  41.187   7.419
 3235POPC   NC341939  34.362  43.132   5.655
 3235POPC   PO441940  34.949  42.974   5.317
 3235POPC   GL141941  34.824  43.006   5.843
 3235POPC   GL241942  34.477  42.893   6.067
 3235POPC   C1A41943  34.911  42.805   6.291
 3235POPC   D2A41944  34.653  42.780   6.665
 3235POPC   C3A41945  34.748  42.974   7.053
 3235POPC   C4A41946  34.584  42.968   7.493
 3235POPC   C1B41947  34.260  43.262   6.278
 3235POPC   C2B41948  34.390  43.356   6.662
 3235POPC   C3B41949  34.316  43.224   7.053
 3235POPC   C4B41950  34.591  43.450   7.288
 3236POPC   NC341951  34.096  28.987   5.483
 3236POPC   PO441952  33.447  29.112   5.501
 3236POPC   GL141953  33.720  29.340   5.751
 3236POPC   GL241954  33.793  29.020   5.892
 3236POPC   C1A41955  33.667  29.462   6.182
 3236POPC   D2A41956  33.711  29.270   6.572
 3236POPC   C3A41957  33.732  29.479   6.960
 3236POPC   C4A41958  33.592  29.250   7.342
 3236POPC   C1B41959  34.046  29.046   6.224
 3236POPC   C2B41960  34.063  28.880   6.621
 3236POPC   C3B41961  33.903  29.009   6.996
 3236POPC   C4B41962  34.099  29.287   7.270
 3237POPC   NC341963  24.960  20.551   5.291
 3237POPC   PO441964  25.561  20.584   5.581
 3237POPC   GL141965  25.237  20.409   5.854
 3237POPC   GL241966  24.994  20.694   5.784
 3237POPC   C1A41967  25.274  20.343   6.339
 3237POPC   D2A41968  25.225  20.311   6.830
 3237POPC   C3A41969  25.497  20.607   7.136
 3237POPC   C4A41970  25.413  21.079   7.226
 3237POPC   C1B41971  25.098  20.820   6.199
 3237POPC   C2B41972  24.900  20.913   6.607
 3237POPC   C3B41973  25.047  20.788   6.991
 3237POPC   C4B41974  25.020  20.523   7.334
 3238POPC   NC341975  13.500  27.213   5.528
 3238POPC   PO441976  13.551  27.868   5.389
 3238POPC   GL141977  13.610  27.684   5.782
 3238POPC   GL241978  13.879  27.472   5.770
 3238POPC   C1A41979  13.649  27.853   6.187
 3238POPC   D2A41980  13.532  27.718   6.565
 3238POPC   C3A41981  13.747  27.764   6.937
 3238POPC   C4A41982  13.623  27.887   7.318
 3238POPC   C1B41983  13.745  27.350   6.207
 3238POPC   C2B41984  13.867  27.349   6.665
 3238POPC   C3B41985  13.631  27.279   7.063
 3238POPC   C4B41986  13.657  27.146   7.546
 3239POPC   NC341987  25.790   1.592   5.386
 3239POPC   PO441988  26.212   1.066   5.420
 3239POPC   GL141989  25.985   1.256   5.727
 3239POPC   GL241990  26.189   1.557   5.718
 3239POPC   C1A41991  25.861   1.378   6.130
 3239POPC   D2A41992  25.957   1.175   6.517
 3239POPC   C3A41993  25.778   1.312   6.931
 3239POPC   C4A41994  25.869   1.408   7.354
 3239POPC   C1B41995  26.373   1.403   6.097
 3239POPC   C2B41996  26.364   1.515   6.521
 3239POPC   C3B41997  26.307   1.266   6.872
 3239POPC   C4B41998  26.384   1.405   7.256
 3240POPC   NC341999   1.323  39.126   5.350
 3240POPC   PO442000   2.019  39.243   5.309
 3240POPC   GL142001   2.059  39.240   5.778
 3240POPC   GL242002   1.723  39.219   5.908
 3240POPC   C1A42003   2.313  39.313   6.148
 3240POPC   D2A42004   2.049  39.233   6.487
 3240POPC   C3A42005   2.127  39.204   6.902
 3240POPC   C4A42006   1.884  39.514   7.206
 3240POPC   C1B42007   1.766  38.899   6.237
 3240POPC   C2B42008   1.670  38.924   6.679
 3240POPC   C3B42009   1.686  39.051   7.085
 3240POPC   C4B42010   1.701  38.790   7.389
 3241POPC   NC342011  11.716  16.544   5.334
 3241POPC   PO442012  11.408  17.091   5.421
 3241POPC   GL142013  11.333  16.790   5.701
 3241POPC   GL242014  11.046  16.971   5.799
 3241POPC   C1A42015  11.288  16.571   6.086
 3241POPC   D2A42016  11.197  16.603   6.533
 3241POPC   C3A42017  11.549  16.563   6.789
 3241POPC   C4A42018  11.608  16.806   7.156
 3241POPC   C1B42019  10.949  16.939   6.212
 3241POPC   C2B42020  11.042  17.115   6.567
 3241POPC   C3B42021  11.105  16.965   6.956
 3241POPC   C4B42022  10.886  17.111   7.318
 3242POPC   NC342023  27.989  11.551   5.553
 3242POPC   PO442024  28.321  10.976   5.418
 3242POPC   GL142025  28.367  11.268   5.764
 3242POPC   GL242026  28.681  11.430   5.780
 3242POPC   C1A42027  28.156  11.317   6.161
 3242POPC   D2A42028  28.307  11.082   6.501
 3242POPC   C3A42029  28.358  11.274   6.863
 3242POPC   C4A42030  28.561  11.173   7.244
 3242POPC   C1B42031  28.630  11.482   6.234
 3242POPC   C2B42032  28.671  11.654   6.662
 3242POPC   C3B42033  28.862  11.582   7.063
 3242POPC   C4B42034  28.793  11.624   7.498
 3243POPC   NC342035  26.398  30.995   5.438
 3243POPC   PO442036  26.868  30.500   5.306
 3243POPC   GL142037  26.799  30.688   5.743
 3243POPC   GL242038  26.508  30.912   5.926
 3243POPC   C1A42039  26.772  30.576   6.185
 3243POPC   D2A42040  26.939  30.723   6.552
 3243POPC   C3A42041  26.789  30.546   6.910
 3243POPC   C4A42042  27.020  30.462   7.221
 3243POPC   C1B42043  26.521  30.984   6.380
 3243POPC   C2B42044  26.581  31.006   6.806
 3243POPC   C3B42045  26.585  30.902   7.250
 3243POPC   C4B42046  26.486  30.965   7.707
 3244POPC   NC342047  34.832  21.501   5.578
 3244POPC   PO442048  34.391  21.051   5.347
 3244POPC   GL142049  34.423  21.230   5.765
 3244POPC   GL242050  34.275  21.513   5.913
 3244POPC   C1A42051  34.660  21.274   6.176
 3244POPC   D2A42052  34.552  21.148   6.588
 3244POPC   C3A42053  34.716  21.386   6.941
 3244POPC   C4A42054  34.669  21.214   7.333
 3244POPC   C1B42055  34.158  21.227   6.228
 3244POPC   C2B42056  34.021  21.273   6.635
 3244POPC   C3B42057  34.214  21.236   7.031
 3244POPC   C4B42058  34.256  21.569   7.326
 3245POPC   NC342059   3.146  30.344   5.396
 3245POPC   PO442060   3.568  30.844   5.318
 3245POPC   GL142061   3.443  30.860   5.725
 3245POPC   GL242062   3.741  31.046   5.847
 3245POPC   C1A42063   3.421  30.571   6.062
 3245POPC   D2A42064   3.543  30.501   6.481
 3245POPC   C3A42065   3.329  30.700   6.798
 3245POPC   C4A42066   3.540  30.590   7.170
 3245POPC   C1B42067   3.829  30.895   6.305
 3245POPC   C2B42068   3.827  30.848   6.796
 3245POPC   C3B42069   3.903  31.013   7.259
 3245POPC   C4B42070   3.985  30.966   7.740
 3246POPC   NC342071  13.302  26.853   5.109
 3246POPC   PO442072  13.935  26.946   5.442
 3246POPC   GL142073  13.791  26.926   5.861
 3246POPC   GL242074  14.123  27.073   5.961
 3246POPC   C1A42075  13.577  26.610   6.177
 3246POPC   D2A42076  13.777  26.413   6.567
 3246POPC   C3A42077  13.593  26.493   6.978
 3246POPC   C4A42078  13.425  26.848   7.188
 3246POPC   C1B42079  13.962  26.899   6.348
 3246POPC   C2B42080  13.600  26.903   6.617
 3246POPC   C3B42081  13.900  26.884   6.898
 3246POPC   C4B42082  14.030  26.984   7.263
 3247POPC   NC342083  29.497  21.793   5.409
 3247POPC   PO442084  30.199  22.056   5.435
 3247POPC   GL142085  29.848  22.074   5.697
 3247POPC   GL242086  29.858  21.721   5.757
 3247POPC   C1A42087  29.743  22.173   6.121
 3247POPC   D2A42088  29.982  22.424   6.449
 3247POPC   C3A42089  29.913  22.296   6.891
 3247POPC   C4A42090  29.680  22.138   7.224
 3247POPC   C1B42091  30.028  21.766   6.147
 3247POPC   C2B42092  29.879  21.907   6.550
 3247POPC   C3B42093  29.975  21.779   6.969
 3247POPC   C4B42094  29.829  21.685   7.388
 3248POPC   NC342095  21.674  38.274   5.628
 3248POPC   PO442096  21.009  38.577   5.416
 3248POPC   GL142097  21.208  38.512   5.807
 3248POPC   GL242098  21.300  38.171   5.935
 3248POPC   C1A42099  21.142  38.521   6.266
 3248POPC   D2A42100  21.279  38.425   6.719
 3248POPC   C3A42101  21.071  38.628   7.061
 3248POPC   C4A42102  21.211  38.833   7.421
 3248POPC   C1B42103  21.540  38.199   6.328
 3248POPC   C2B42104  21.477  37.958   6.700
 3248POPC   C3B42105  21.470  38.063   7.110
 3248POPC   C4B42106  21.380  38.344   7.420
 3249POPC   NC342107  36.505   1.678   5.119
 3249POPC   PO442108  36.047   1.348   5.507
 3249POPC   GL142109  36.150   1.315   5.915
 3249POPC   GL242110  36.468   1.202   5.905
 3249POPC   C1A42111  36.109   1.168   6.300
 3249POPC   D2A42112  36.014   0.983   6.647
 3249POPC   C3A42113  36.251   1.132   6.977
 3249POPC   C4A42114  36.136   1.314   7.356
 3249POPC   C1B42115  36.485   1.507   6.257
 3249POPC   C2B42116  36.353   1.549   6.676
 3249POPC   C3B42117  36.536   1.559   7.097
 3249POPC   C4B42118  36.547   1.586   7.590
 3250POPC   NC342119  26.432  39.472   5.543
 3250POPC   PO442120  26.068  38.887   5.476
 3250POPC   GL142121  26.052  39.035   5.924
 3250POPC   GL242122  26.184  39.363   5.972
 3250POPC   C1A42123  26.012  39.024   6.377
 3250POPC   D2A42124  25.731  38.892   6.707
 3250POPC   C3A42125  25.890  39.160   7.021
 3250POPC   C4A42126  26.301  39.223   7.232
 3250POPC   C1B42127  25.836  39.484   6.223
 3250POPC   C2B42128  25.919  39.568   6.639
 3250POPC   C3B42129  26.110  39.643   7.029
 3250POPC   C4B42130  26.210  39.686   7.474
 3251POPC   NC342131  20.049   1.755   5.396
 3251POPC   PO442132  19.486   2.139   5.267
 3251POPC   GL142133  19.597   1.968   5.681
 3251POPC   GL242134  19.938   2.011   5.815
 3251POPC   C1A42135  19.508   1.949   6.131
 3251POPC   D2A42136  19.714   2.225   6.431
 3251POPC   C3A42137  19.652   2.241   6.881
 3251POPC   C4A42138  19.638   1.990   7.266
 3251POPC   C1B42139  20.003   1.756   6.170
 3251POPC   C2B42140  20.200   1.717   6.557
 3251POPC   C3B42141  20.057   1.873   6.953
 3251POPC   C4B42142  20.082   1.733   7.371
 3252POPC   NC342143  35.542  20.798   5.524
 3252POPC   PO442144  34.984  20.436   5.226
 3252POPC   GL142145  35.114  20.524   5.682
 3252POPC   GL242146  35.423  20.324   5.770
 3252POPC   C1A42147  35.262  20.724   6.114
 3252POPC   D2A42148  35.380  20.667   6.570
 3252POPC   C3A42149  35.157  20.807   6.959
 3252POPC   C4A42150  35.124  21.008   7.392
 3252POPC   C1B42151  35.617  20.356   6.193
 3252POPC   C2B42152  35.817  20.379   6.633
 3252POPC   C3B42153  35.659  20.346   7.086
 3252POPC   C4B42154  35.330  20.475   7.376
 3253POPC   NC342155  28.267  35.075   5.438
 3253POPC   PO442156  28.706  35.613   5.511
 3253POPC   GL142157  28.626  35.257   5.802
 3253POPC   GL242158  28.292  35.160   5.942
 3253POPC   C1A42159  28.663  35.375   6.236
 3253POPC   D2A42160  28.507  35.208   6.604
 3253POPC   C3A42161  28.340  35.482   6.898
 3253POPC   C4A42162  28.495  35.524   7.339
 3253POPC   C1B42163  28.273  34.884   6.285
 3253POPC   C2B42164  28.170  34.862   6.744
 3253POPC   C3B42165  28.354  35.025   7.117
 3253POPC   C4B42166  28.121  35.095   7.505
 3254POPC   NC342167  20.337  37.279   5.400
 3254POPC   PO442168  20.550  36.641   5.360
 3254POPC   GL142169  20.424  36.881   5.739
 3254POPC   GL242170  20.628  37.188   5.836
 3254POPC   C1A42171  20.316  36.935   6.185
 3254POPC   D2A42172  20.416  36.753   6.586
 3254POPC   C3A42173  20.277  36.749   6.994
 3254POPC   C4A42174  20.616  36.910   7.199
 3254POPC   C1B42175  20.794  37.104   6.280
 3254POPC   C2B42176  20.806  37.091   6.727
 3254POPC   C3B42177  20.962  37.284   7.067
 3254POPC   C4B42178  20.996  37.398   7.473
 3255POPC   NC342179   2.964   2.612   5.139
 3255POPC   PO442180   2.388   2.910   5.311
 3255POPC   GL142181   2.630   2.892   5.701
 3255POPC   GL242182   2.940   2.661   5.671
 3255POPC   C1A42183   2.618   2.867   6.180
 3255POPC   D2A42184   2.387   2.769   6.589
 3255POPC   C3A42185   2.609   2.691   6.999
 3255POPC   C4A42186   2.756   2.850   7.420
 3255POPC   C1B42187   3.047   2.530   6.111
 3255POPC   C2B42188   2.956   2.644   6.540
 3255POPC   C3B42189   3.128   2.620   6.927
 3255POPC   C4B42190   3.266   2.904   7.230
 3256POPC   NC342191   9.969  20.491   5.194
 3256POPC   PO442192   9.382  20.421   5.439
 3256POPC   GL142193   9.782  20.487   5.698
 3256POPC   GL242194   9.851  20.835   5.773
 3256POPC   C1A42195   9.995  20.435   6.120
 3256POPC   D2A42196   9.709  20.445   6.538
 3256POPC   C3A42197   9.899  20.483   6.966
 3256POPC   C4A42198   9.553  20.355   7.251
 3256POPC   C1B42199   9.627  20.792   6.153
 3256POPC   C2B42200   9.492  20.906   6.557
 3256POPC   C3B42201   9.498  20.801   6.964
 3256POPC   C4B42202   9.729  20.874   7.341
 3257POPC   NC342203  21.275  17.061   5.634
 3257POPC   PO442204  21.686  16.581   5.457
 3257POPC   GL142205  21.569  16.720   5.870
 3257POPC   GL242206  21.208  16.597   5.836
 3257POPC   C1A42207  21.364  16.912   6.261
 3257POPC   D2A42208  21.423  17.186   6.632
 3257POPC   C3A42209  21.451  16.995   7.036
 3257POPC   C4A42210  21.728  16.909   7.363
 3257POPC   C1B42211  21.341  16.379   6.171
 3257POPC   C2B42212  21.304  16.500   6.571
 3257POPC   C3B42213  21.084  16.332   6.872
 3257POPC   C4B42214  21.184  16.586   7.206
 3258POPC   NC342215  37.583   8.537   5.545
 3258POPC   PO442216  37.812   7.881   5.455
 3258POPC   GL142217  37.770   8.112   5.837
 3258POPC   GL242218  38.086   7.965   5.968
 3258POPC   C1A42219  37.467   8.292   6.189
 3258POPC   D2A42220  37.281   8.509   6.547
 3258POPC   C3A42221  37.422   8.343   6.928
 3258POPC   C4A42222  37.584   8.392   7.328
 3258POPC   C1B42223  37.775   7.901   6.300
 3258POPC   C2B42224  37.605   7.907   6.710
 3258POPC   C3B42225  37.688   7.926   7.138
 3258POPC   C4B42226  37.967   8.069   7.482
 3259POPC   NC342227  35.064  32.077   5.397
 3259POPC   PO442228  35.692  32.356   5.559
 3259POPC   GL142229  35.540  32.394   5.944
 3259POPC   GL242230  35.245  32.228   5.859
 3259POPC   C1A42231  35.602  32.424   6.392
 3259POPC   D2A42232  35.555  32.156   6.745
 3259POPC   C3A42233  35.454  32.337   7.113
 3259POPC   C4A42234  35.593  32.212   7.487
 3259POPC   C1B42235  35.102  32.372   6.249
 3259POPC   C2B42236  35.170  32.570   6.639
 3259POPC   C3B42237  34.978  32.451   7.000
 3259POPC   C4B42238  35.036  32.428   7.463
 3260POPC   NC342239  16.423  36.676   5.114
 3260POPC   PO442240  16.798  37.184   5.431
 3260POPC   GL142241  16.855  36.978   5.799
 3260POPC   GL242242  17.044  36.665   5.783
 3260POPC   C1A42243  16.608  36.911   6.151
 3260POPC   D2A42244  16.595  36.919   6.575
 3260POPC   C3A42245  16.744  37.176   6.865
 3260POPC   C4A42246  16.486  37.050   7.242
 3260POPC   C1B42247  17.101  36.811   6.209
 3260POPC   C2B42248  17.153  36.974   6.574
 3260POPC   C3B42249  17.216  36.822   6.930
 3260POPC   C4B42250  17.016  37.015   7.239
 3261POPC   NC342251  25.240  18.268   5.189
 3261POPC   PO442252  25.286  18.993   5.080
 3261POPC   GL142253  25.376  19.006   5.595
 3261POPC   GL242254  25.143  19.225   5.809
 3261POPC   C1A42255  25.492  18.946   6.065
 3261POPC   D2A42256  25.324  19.145   6.449
 3261POPC   C3A42257  25.290  18.891   6.820
 3261POPC   C4A42258  25.492  18.789   7.187
 3261POPC   C1B42259  24.901  19.368   6.183
 3261POPC   C2B42260  24.880  19.436   6.642
 3261POPC   C3B42261  25.133  19.361   7.032
 3261POPC   C4B42262  25.087  19.511   7.435
 3262POPC   NC342263  27.535  35.684   5.155
 3262POPC   PO442264  27.295  35.330   5.663
 3262POPC   GL142265  26.909  35.424   5.822
 3262POPC   GL242266  26.767  35.101   5.800
 3262POPC   C1A42267  26.986  35.480   6.250
 3262POPC   D2A42268  27.115  35.243   6.584
 3262POPC   C3A42269  27.006  35.488   6.933
 3262POPC   C4A42270  26.771  35.361   7.278
 3262POPC   C1B42271  26.890  34.984   6.201
 3262POPC   C2B42272  26.734  34.875   6.600
 3262POPC   C3B42273  26.875  34.973   6.988
 3262POPC   C4B42274  26.783  34.870   7.414
 3263POPC   NC342275  17.127   7.806   5.641
 3263POPC   PO442276  17.603   8.262   5.322
 3263POPC   GL142277  17.588   8.162   5.786
 3263POPC   GL242278  17.236   8.242   5.886
 3263POPC   C1A42279  17.715   8.021   6.227
 3263POPC   D2A42280  18.000   7.990   6.625
 3263POPC   C3A42281  17.725   8.003   6.964
 3263POPC   C4A42282  17.505   8.356   7.115
 3263POPC   C1B42283  17.157   7.974   6.274
 3263POPC   C2B42284  17.275   8.023   6.705
 3263POPC   C3B42285  17.152   7.980   7.126
 3263POPC   C4B42286  17.383   8.044   7.516
 3264POPC   NC342287  14.705  36.437   5.454
 3264POPC   PO442288  14.312  35.864   5.452
 3264POPC   GL142289  14.380  36.154   5.818
 3264POPC   GL242290  14.716  36.220   5.903
 3264POPC   C1A42291  14.198  36.099   6.233
 3264POPC   D2A42292  14.049  35.797   6.567
 3264POPC   C3A42293  14.156  35.832   7.018
 3264POPC   C4A42294  14.301  36.065   7.420
 3264POPC   C1B42295  14.778  36.195   6.309
 3264POPC   C2B42296  14.506  36.133   6.631
 3264POPC   C3B42297  14.536  36.186   7.006
 3264POPC   C4B42298  14.814  36.069   7.318
 3265POPC   NC342299  23.994   6.869   5.577
 3265POPC   PO442300  23.438   6.651   5.342
 3265POPC   GL142301  23.581   6.594   5.774
 3265POPC   GL242302  23.525   6.959   5.787
 3265POPC   C1A42303  23.859   6.452   6.162
 3265POPC   D2A42304  23.745   6.296   6.581
 3265POPC   C3A42305  23.914   6.450   6.975
 3265POPC   C4A42306  23.838   6.739   7.242
 3265POPC   C1B42307  23.650   6.917   6.234
 3265POPC   C2B42308  23.668   6.803   6.669
 3265POPC   C3B42309  23.404   6.664   6.974
 3265POPC   C4B42310  23.222   6.923   7.267
 3266POPC   NC342311   3.164   5.641   5.563
 3266POPC   PO442312   3.689   6.056   5.381
 3266POPC   GL142313   3.670   5.764   5.732
 3266POPC   GL242314   3.454   5.984   5.863
 3266POPC   C1A42315   3.586   5.617   6.184
 3266POPC   D2A42316   3.302   5.802   6.518
 3266POPC   C3A42317   3.419   5.657   6.911
 3266POPC   C4A42318   3.685   5.873   7.195
 3266POPC   C1B42319   3.269   6.211   6.181
 3266POPC   C2B42320   3.144   6.299   6.555
 3266POPC   C3B42321   3.263   6.148   6.929
 3266POPC   C4B42322   3.406   6.329   7.282
 3267POPC   NC342323   1.524  31.677   5.222
 3267POPC   PO442324   2.151  31.281   5.271
 3267POPC   GL142325   1.947  31.411   5.646
 3267POPC   GL242326   1.964  31.776   5.670
 3267POPC   C1A42327   1.869  31.250   6.064
 3267POPC   D2A42328   1.678  31.304   6.467
 3267POPC   C3A42329   1.940  31.281   6.846
 3267POPC   C4A42330   1.805  31.335   7.264
 3267POPC   C1B42331   1.916  31.899   6.150
 3267POPC   C2B42332   1.948  31.745   6.597
 3267POPC   C3B42333   1.940  31.849   7.070
 3267POPC   C4B42334   1.903  31.744   7.541
 3268POPC   NC342335  11.306  20.699   5.355
 3268POPC   PO442336  11.920  20.814   5.223
 3268POPC   GL142337  11.575  20.974   5.714
 3268POPC   GL242338  11.236  20.813   5.836
 3268POPC   C1A42339  11.480  21.009   6.223
 3268POPC   D2A42340  11.541  20.650   6.528
 3268POPC   C3A42341  11.331  20.587   6.930
 3268POPC   C4A42342  11.511  20.631   7.290
 3268POPC   C1B42343  11.101  20.640   6.242
 3268POPC   C2B42344  10.912  20.526   6.624
 3268POPC   C3B42345  10.943  20.210   6.916
 3268POPC   C4B42346  11.216  20.180   7.269
 3269POPC   NC342347   7.848   1.963   5.503
 3269POPC   PO442348   7.166   1.858   5.456
 3269POPC   GL142349   7.206   1.890   5.874
 3269POPC   GL242350   7.455   2.134   5.818
 3269POPC   C1A42351   7.164   2.089   6.281
 3269POPC   D2A42352   7.170   2.270   6.698
 3269POPC   C3A42353   7.350   2.007   7.035
 3269POPC   C4A42354   7.287   1.829   7.456
 3269POPC   C1B42355   7.701   2.130   6.192
 3269POPC   C2B42356   7.671   2.227   6.623
 3269POPC   C3B42357   7.846   2.167   7.036
 3269POPC   C4B42358   7.641   2.200   7.439
 3270POPC   NC342359  25.559  35.241   5.502
 3270POPC   PO442360  24.983  35.527   5.428
 3270POPC   GL142361  25.072  35.155   5.683
 3270POPC   GL242362  24.960  35.361   5.925
 3270POPC   C1A42363  25.264  34.989   6.100
 3270POPC   D2A42364  25.110  35.219   6.475
 3270POPC   C3A42365  25.305  35.105   6.871
 3270POPC   C4A42366  25.109  35.102   7.289
 3270POPC   C1B42367  24.888  35.762   6.087
 3270POPC   C2B42368  24.865  35.812   6.536
 3270POPC   C3B42369  25.069  35.598   6.896
 3270POPC   C4B42370  25.044  35.589   7.325
 3271POPC   NC342371   7.073   1.404   5.420
 3271POPC   PO442372   7.714   1.160   5.393
 3271POPC   GL142373   7.487   1.033   5.775
 3271POPC   GL242374   7.408   1.392   5.815
 3271POPC   C1A42375   7.331   1.106   6.239
 3271POPC   D2A42376   7.495   1.097   6.680
 3271POPC   C3A42377   7.280   0.905   7.025
 3271POPC   C4A42378   7.152   1.181   7.323
 3271POPC   C1B42379   7.719   1.560   6.102
 3271POPC   C2B42380   7.836   1.428   6.510
 3271POPC   C3B42381   7.655   1.564   6.914
 3271POPC   C4B42382   7.712   1.545   7.355
 3272POPC   NC342383   8.599  18.812   5.369
 3272POPC   PO442384   9.177  18.897   5.295
 3272POPC   GL142385   8.984  19.037   5.696
 3272POPC   GL242386   8.812  18.750   5.816
 3272POPC   C1A42387   9.029  19.241   6.134
 3272POPC   D2A42388   9.302  19.340   6.512
 3272POPC   C3A42389   9.107  19.213   6.924
 3272POPC   C4A42390   8.956  18.807   7.099
 3272POPC   C1B42391   8.709  18.840   6.223
 3272POPC   C2B42392   8.749  19.028   6.601
 3272POPC   C3B42393   8.585  19.280   6.906
 3272POPC   C4B42394   8.720  19.227   7.297
 3273POPC   NC342395  27.887  26.777   5.399
 3273POPC   PO442396  27.273  26.844   5.293
 3273POPC   GL142397  27.293  26.496   5.628
 3273POPC   GL242398  27.587  26.625   5.791
 3273POPC   C1A42399  27.238  26.428   6.107
 3273POPC   D2A42400  27.237  26.771   6.428
 3273POPC   C3A42401  27.487  26.730   6.808
 3273POPC   C4A42402  27.547  26.651   7.221
 3273POPC   C1B42403  27.692  26.634   6.229
 3273POPC   C2B42404  27.735  26.999   6.456
 3273POPC   C3B42405  27.721  27.203   6.838
 3273POPC   C4B42406  27.862  27.079   7.239
 3274POPC   NC342407  43.460   3.684   5.519
 3274POPC   PO442408  42.958   3.231   5.669
 3274POPC   GL142409  42.901   3.521   5.916
 3274POPC   GL242410  43.104   3.815   5.890
 3274POPC   C1A42411  43.027   3.533   6.339
 3274POPC   D2A42412  43.381   3.516   6.607
 3274POPC   C3A42413  43.167   3.432   6.961
 3274POPC   C4A42414  42.893   3.719   7.135
 3274POPC   C1B42415  43.340   3.944   6.242
 3274POPC   C2B42416  43.236   4.106   6.626
 3274POPC   C3B42417  43.358   3.909   7.010
 3274POPC   C4B42418  43.478   3.699   7.409
 3275POPC   NC342419   9.422  25.762   5.552
 3275POPC   PO442420   9.728  26.325   5.352
 3275POPC   GL142421   9.770  26.107   5.779
 3275POPC   GL242422   9.987  25.783   5.885
 3275POPC   C1A42423   9.717  26.328   6.172
 3275POPC   D2A42424   9.857  26.466   6.569
 3275POPC   C3A42425   9.578  26.274   6.829
 3275POPC   C4A42426   9.607  26.104   7.202
 3275POPC   C1B42427   9.699  25.800   6.234
 3275POPC   C2B42428   9.578  25.760   6.687
 3275POPC   C3B42429   9.817  25.673   7.034
 3275POPC   C4B42430   9.755  25.688   7.479
 3276POPC   NC342431  18.928  17.116   5.462
 3276POPC   PO442432  19.336  17.682   5.375
 3276POPC   GL142433  19.458  17.625   5.754
 3276POPC   GL242434  19.315  17.299   5.782
 3276POPC   C1A42435  19.528  17.632   6.178
 3276POPC   D2A42436  19.519  17.480   6.569
 3276POPC   C3A42437  19.278  17.721   6.843
 3276POPC   C4A42438  19.193  17.539   7.239
 3276POPC   C1B42439  19.046  17.580   6.041
 3276POPC   C2B42440  18.838  17.708   6.429
 3276POPC   C3B42441  18.797  17.552   6.851
 3276POPC   C4B42442  18.770  17.838   7.186
 3277POPC   NC342443   3.647  26.212   5.354
 3277POPC   PO442444   3.286  25.689   5.493
 3277POPC   GL142445   3.393  25.960   5.786
 3277POPC   GL242446   3.745  26.071   5.812
 3277POPC   C1A42447   3.444  26.052   6.197
 3277POPC   D2A42448   3.586  26.000   6.561
 3277POPC   C3A42449   3.365  25.779   6.868
 3277POPC   C4A42450   3.435  25.739   7.320
 3277POPC   C1B42451   3.858  26.341   6.164
 3277POPC   C2B42452   3.993  26.336   6.572
 3277POPC   C3B42453   3.894  26.161   6.931
 3277POPC   C4B42454   3.779  26.396   7.273
 3278POPC   NC342455  22.739   2.736   5.424
 3278POPC   PO442456  23.336   2.432   5.374
 3278POPC   GL142457  23.062   2.511   5.742
 3278POPC   GL242458  22.963   2.909   5.841
 3278POPC   C1A42459  22.749   2.512   6.079
 3278POPC   D2A42460  22.715   2.516   6.531
 3278POPC   C3A42461  22.991   2.542   6.881
 3278POPC   C4A42462  22.892   2.588   7.344
 3278POPC   C1B42463  22.712   3.005   6.244
 3278POPC   C2B42464  22.670   3.024   6.709
 3278POPC   C3B42465  22.923   3.021   7.087
 3278POPC   C4B42466  22.834   3.069   7.537
 3279POPC   NC342467  19.310   4.652   5.230
 3279POPC   PO442468  19.036   5.095   5.477
 3279POPC   GL142469  19.158   5.213   5.859
 3279POPC   GL242470  19.388   4.908   5.788
 3279POPC   C1A42471  19.011   5.267   6.273
 3279POPC   D2A42472  19.145   5.174   6.686
 3279POPC   C3A42473  18.912   5.173   7.038
 3279POPC   C4A42474  19.071   5.445   7.332
 3279POPC   C1B42475  19.154   4.796   6.137
 3279POPC   C2B42476  19.204   4.693   6.554
 3279POPC   C3B42477  19.271   4.755   7.002
 3279POPC   C4B42478  19.201   4.949   7.412
 3280POPC   NC342479   6.575  23.978   5.590
 3280POPC   PO442480   6.428  24.658   5.432
 3280POPC   GL142481   6.556  24.455   5.819
 3280POPC   GL242482   6.849  24.637   5.860
 3280POPC   C1A42483   6.632  24.450   6.309
 3280POPC   D2A42484   6.499  24.669   6.714
 3280POPC   C3A42485   6.569  24.457   7.154
 3280POPC   C4A42486   6.781  24.069   7.395
 3280POPC   C1B42487   6.804  24.941   6.195
 3280POPC   C2B42488   6.949  24.985   6.604
 3280POPC   C3B42489   6.856  24.884   7.015
 3280POPC   C4B42490   7.012  24.934   7.435
 3281POPC   NC342491   9.295  34.792   5.613
 3281POPC   PO442492   8.787  34.350   5.344
 3281POPC   GL142493   8.921  34.512   5.777
 3281POPC   GL242494   8.867  34.858   5.892
 3281POPC   C1A42495   8.933  34.460   6.244
 3281POPC   D2A42496   9.163  34.457   6.604
 3281POPC   C3A42497   8.909  34.434   6.970
 3281POPC   C4A42498   8.779  34.405   7.377
 3281POPC   C1B42499   9.163  34.901   6.240
 3281POPC   C2B42500   9.361  34.932   6.610
 3281POPC   C3B42501   9.224  34.829   7.035
 3281POPC   C4B42502   9.274  34.539   7.370
 3282POPC   NC342503  44.971  33.716   5.394
 3282POPC   PO442504   0.688  33.730   5.358
 3282POPC   GL142505   0.411  33.578   5.675
 3282POPC   GL242506   0.311  33.908   5.719
 3282POPC   C1A42507   0.468  33.445   6.111
 3282POPC   D2A42508   0.609  33.584   6.519
 3282POPC   C3A42509   0.294  33.583   6.860
 3282POPC   C4A42510   0.213  33.730   7.275
 3282POPC   C1B42511   0.408  33.952   6.134
 3282POPC   C2B42512   0.330  34.009   6.555
 3282POPC   C3B42513   0.343  34.105   6.966
 3282POPC   C4B42514   0.248  34.444   7.173
 3283POPC   NC342515  17.423   1.631   5.425
 3283POPC   PO442516  17.797   2.199   5.503
 3283POPC   GL142517  17.532   2.016   5.843
 3283POPC   GL242518  17.303   1.739   5.898
 3283POPC   C1A42519  17.597   1.953   6.301
 3283POPC   D2A42520  17.779   2.206   6.620
 3283POPC   C3A42521  17.580   2.279   7.022
 3283POPC   C4A42522  17.536   2.178   7.457
 3283POPC   C1B42523  17.091   1.647   6.287
 3283POPC   C2B42524  17.101   1.695   6.714
 3283POPC   C3B42525  17.473   1.793   6.899
 3283POPC   C4B42526  17.623   1.665   7.291
 3284POPC   NC342527   4.008  30.074   5.492
 3284POPC   PO442528   4.526  29.990   5.115
 3284POPC   GL142529   4.497  30.037   5.600
 3284POPC   GL242530   4.397  29.744   5.767
 3284POPC   C1A42531   4.420  30.196   6.051
 3284POPC   D2A42532   4.609  30.374   6.430
 3284POPC   C3A42533   4.468  30.154   6.812
 3284POPC   C4A42534   4.283  30.060   7.212
 3284POPC   C1B42535   4.125  29.751   6.124
 3284POPC   C2B42536   4.241  29.762   6.547
 3284POPC   C3B42537   4.046  29.721   6.916
 3284POPC   C4B42538   3.844  29.652   7.282
 3285POPC   NC342539  30.322  13.464   5.279
 3285POPC   PO442540  30.518  14.125   5.273
 3285POPC   GL142541  30.565  13.850   5.682
 3285POPC   GL242542  30.761  13.525   5.729
 3285POPC   C1A42543  30.701  13.865   6.131
 3285POPC   D2A42544  30.727  13.985   6.588
 3285POPC   C3A42545  30.462  13.798   6.929
 3285POPC   C4A42546  30.491  13.873   7.380
 3285POPC   C1B42547  30.815  13.355   6.176
 3285POPC   C2B42548  30.748  13.465   6.576
 3285POPC   C3B42549  30.944  13.592   6.932
 3285POPC   C4B42550  30.767  13.448   7.281
 3286POPC   NC342551   1.841  34.124   5.428
 3286POPC   PO442552   2.061  33.545   5.269
 3286POPC   GL142553   2.040  33.719   5.732
 3286POPC   GL242554   1.693  33.810   5.812
 3286POPC   C1A42555   1.992  33.659   6.219
 3286POPC   D2A42556   2.280  33.766   6.609
 3286POPC   C3A42557   2.224  33.641   7.063
 3286POPC   C4A42558   2.386  33.240   7.219
 3286POPC   C1B42559   1.712  34.121   6.154
 3286POPC   C2B42560   1.812  33.975   6.591
 3286POPC   C3B42561   1.775  33.887   7.028
 3286POPC   C4B42562   1.624  34.188   7.306
 3287POPC   NC342563  15.296  43.680   5.415
 3287POPC   PO442564  14.922  44.170   5.780
 3287POPC   GL142565  15.059  43.747   5.871
 3287POPC   GL242566  15.418  43.831   5.877
 3287POPC   C1A42567  15.250  43.536   6.252
 3287POPC   D2A42568  15.280  43.425   6.675
 3287POPC   C3A42569  15.102  43.682   6.968
 3287POPC   C4A42570  15.138  44.090   7.156
 3287POPC   C1B42571  15.544  44.003   6.284
 3287POPC   C2B42572  15.470  43.985   6.742
 3287POPC   C3B42573  15.643  43.975   7.167
 3287POPC   C4B42574  15.494  43.912   7.613
 3288POPC   NC342575  20.449  30.400   5.427
 3288POPC   PO442576  20.867  30.914   5.411
 3288POPC   GL142577  20.743  30.678   5.776
 3288POPC   GL242578  20.776  30.316   5.833
 3288POPC   C1A42579  20.590  30.667   6.184
 3288POPC   D2A42580  20.736  30.869   6.520
 3288POPC   C3A42581  20.474  30.749   6.869
 3288POPC   C4A42582  20.580  30.929   7.258
 3288POPC   C1B42583  20.584  30.138   6.205
 3288POPC   C2B42584  20.361  30.238   6.561
 3288POPC   C3B42585  20.465  30.172   6.971
 3288POPC   C4B42586  20.711  30.430   7.221
 3289POPC   NC342587  34.287  25.686   5.673
 3289POPC   PO442588  34.776  26.121   5.431
 3289POPC   GL142589  34.705  26.165   5.816
 3289POPC   GL242590  34.768  25.820   5.961
 3289POPC   C1A42591  34.605  26.230   6.213
 3289POPC   D2A42592  34.786  26.000   6.566
 3289POPC   C3A42593  34.754  26.183   6.953
 3289POPC   C4A42594  34.486  26.487   7.110
 3289POPC   C1B42595  34.411  25.779   6.304
 3289POPC   C2B42596  34.443  25.667   6.753
 3289POPC   C3B42597  34.562  25.749   7.197
 3289POPC   C4B42598  34.511  25.615   7.629
 3290POPC   NC342599  28.936  38.699   5.198
 3290POPC   PO442600  29.295  38.237   5.437
 3290POPC   GL142601  29.136  38.264   5.831
 3290POPC   GL242602  29.207  38.618   5.841
 3290POPC   C1A42603  29.197  38.286   6.260
 3290POPC   D2A42604  29.069  38.537   6.582
 3290POPC   C3A42605  29.148  38.270   6.949
 3290POPC   C4A42606  29.235  38.301   7.374
 3290POPC   C1B42607  29.434  38.879   6.149
 3290POPC   C2B42608  29.471  38.944   6.604
 3290POPC   C3B42609  29.293  38.776   6.996
 3290POPC   C4B42610  29.407  38.775   7.424
 3291POPC   NC342611   6.921  33.674   5.471
 3291POPC   PO442612   6.227  33.779   5.372
 3291POPC   GL142613   6.507  33.787   5.739
 3291POPC   GL242614   6.505  34.131   5.780
 3291POPC   C1A42615   6.748  33.760   6.146
 3291POPC   D2A42616   6.628  33.452   6.493
 3291POPC   C3A42617   6.642  33.625   6.940
 3291POPC   C4A42618   6.817  33.863   7.324
 3291POPC   C1B42619   6.407  34.133   6.191
 3291POPC   C2B42620   6.619  34.041   6.564
 3291POPC   C3B42621   6.502  34.134   6.963
 3291POPC   C4B42622   6.574  34.297   7.359
 3292POPC   NC342623  31.723  43.109   5.429
 3292POPC   PO442624  31.139  43.216   5.618
 3292POPC   GL142625  31.382  42.913   5.820
 3292POPC   GL242626  31.115  42.649   5.866
 3292POPC   C1A42627  31.606  43.055   6.195
 3292POPC   D2A42628  31.416  43.339   6.526
 3292POPC   C3A42629  31.563  43.306   6.960
 3292POPC   C4A42630  31.504  43.490   7.360
 3292POPC   C1B42631  31.128  42.887   6.286
 3292POPC   C2B42632  31.249  42.917   6.752
 3292POPC   C3B42633  31.283  42.936   7.221
 3292POPC   C4B42634  31.083  42.760   7.638
 3293POPC   NC342635  29.662  33.151   5.448
 3293POPC   PO442636  30.195  32.927   5.838
 3293POPC   GL142637  29.802  33.135   5.946
 3293POPC   GL242638  29.631  32.817   5.877
 3293POPC   C1A42639  29.709  33.291   6.361
 3293POPC   D2A42640  29.784  33.092   6.764
 3293POPC   C3A42641  30.030  33.259   7.100
 3293POPC   C4A42642  30.105  33.095   7.489
 3293POPC   C1B42643  29.764  32.780   6.342
 3293POPC   C2B42644  29.708  32.557   6.740
 3293POPC   C3B42645  29.891  32.708   7.122
 3293POPC   C4B42646  29.847  32.679   7.552
 3294POPC   NC342647  42.102   1.389   5.617
 3294POPC   PO442648  42.526   0.980   5.282
 3294POPC   GL142649  42.446   1.024   5.740
 3294POPC   GL242650  42.585   1.331   5.770
 3294POPC   C1A42651  42.260   1.104   6.197
 3294POPC   D2A42652  42.148   1.391   6.564
 3294POPC   C3A42653  42.176   1.262   6.998
 3294POPC   C4A42654  42.019   0.916   7.228
 3294POPC   C1B42655  42.769   1.201   6.162
 3294POPC   C2B42656  42.679   1.377   6.604
 3294POPC   C3B42657  42.662   1.324   7.088
 3294POPC   C4B42658  42.580   1.429   7.552
 3295POPC   NC342659  34.332  25.132   5.200
 3295POPC   PO442660  34.736  25.444   5.597
 3295POPC   GL142661  34.546  25.316   5.933
 3295POPC   GL242662  34.366  25.077   5.774
 3295POPC   C1A42663  34.549  25.297   6.352
 3295POPC   D2A42664  34.786  25.187   6.655
 3295POPC   C3A42665  34.833  25.363   7.023
 3295POPC   C4A42666  34.670  25.208   7.395
 3295POPC   C1B42667  34.178  24.933   6.198
 3295POPC   C2B42668  34.293  24.970   6.655
 3295POPC   C3B42669  34.308  25.244   7.006
 3295POPC   C4B42670  34.167  25.294   7.424
 3296POPC   NC342671  44.002   6.093   5.163
 3296POPC   PO442672  43.739   5.519   5.368
 3296POPC   GL142673  43.679   5.641   5.841
 3296POPC   GL242674  43.785   5.953   6.066
 3296POPC   C1A42675  43.774   5.505   6.297
 3296POPC   D2A42676  43.679   5.806   6.664
 3296POPC   C3A42677  43.816   5.681   7.073
 3296POPC   C4A42678  43.509   5.486   7.305
 3296POPC   C1B42679  44.116   6.181   6.346
 3296POPC   C2B42680  44.038   6.404   6.731
 3296POPC   C3B42681  43.847   6.177   7.070
 3296POPC   C4B42682  44.185   6.083   7.372
 3297POPC   NC342683   5.054   1.629   4.985
 3297POPC   PO442684   5.110   1.146   5.491
 3297POPC   GL142685   5.028   1.308   5.910
 3297POPC   GL242686   5.380   1.289   5.987
 3297POPC   C1A42687   5.002   1.296   6.384
 3297POPC   D2A42688   5.203   1.017   6.701
 3297POPC   C3A42689   5.332   1.068   7.136
 3297POPC   C4A42690   5.254   1.025   7.579
 3297POPC   C1B42691   5.335   1.672   6.209
 3297POPC   C2B42692   5.321   1.618   6.626
 3297POPC   C3B42693   5.076   1.508   6.940
 3297POPC   C4B42694   5.180   1.532   7.354
 3298POPC   NC342695   3.245  35.955   5.393
 3298POPC   PO442696   3.860  35.877   5.476
 3298POPC   GL142697   3.593  35.971   5.793
 3298POPC   GL242698   3.480  36.320   5.766
 3298POPC   C1A42699   3.387  35.936   6.175
 3298POPC   D2A42700   3.244  36.108   6.574
 3298POPC   C3A42701   3.423  36.067   7.018
 3298POPC   C4A42702   3.495  35.814   7.438
 3298POPC   C1B42703   3.774  36.304   6.154
 3298POPC   C2B42704   3.748  36.285   6.608
 3298POPC   C3B42705   3.808  36.435   7.024
 3298POPC   C4B42706   3.879  36.086   7.270
 3299POPC   NC342707   9.223   6.673   5.448
 3299POPC   PO442708   8.766   6.263   5.331
 3299POPC   GL142709   8.810   6.449   5.741
 3299POPC   GL242710   9.141   6.429   5.872
 3299POPC   C1A42711   8.763   6.548   6.213
 3299POPC   D2A42712   8.796   6.900   6.551
 3299POPC   C3A42713   8.664   6.743   6.985
 3299POPC   C4A42714   8.757   6.469   7.339
 3299POPC   C1B42715   9.257   6.695   6.199
 3299POPC   C2B42716   9.186   6.543   6.583
 3299POPC   C3B42717   9.163   6.807   6.906
 3299POPC   C4B42718   9.176   6.745   7.291
 3300POPC   NC342719  12.775  42.480   5.353
 3300POPC   PO442720  12.317  42.299   5.766
 3300POPC   GL142721  12.774  42.296   5.858
 3300POPC   GL242722  13.083  42.119   5.731
 3300POPC   C1A42723  12.991  42.546   6.131
 3300POPC   D2A42724  12.938  42.745   6.513
 3300POPC   C3A42725  12.895  42.581   6.910
 3300POPC   C4A42726  12.619  42.352   7.141
 3300POPC   C1B42727  13.107  42.051   6.182
 3300POPC   C2B42728  12.867  42.174   6.557
 3300POPC   C3B42729  13.009  42.069   6.951
 3300POPC   C4B42730  12.976  41.951   7.381
 3301POPC   NC342731  21.992  16.953   5.505
 3301POPC   PO442732  22.528  16.537   5.567
 3301POPC   GL142733  22.351  16.824   5.864
 3301POPC   GL242734  22.076  16.575   5.840
 3301POPC   C1A42735  22.006  16.941   6.179
 3301POPC   D2A42736  21.787  16.813   6.548
 3301POPC   C3A42737  22.086  16.753   6.854
 3301POPC   C4A42738  22.226  16.887   7.250
 3301POPC   C1B42739  21.856  16.402   6.176
 3301POPC   C2B42740  21.761  16.284   6.582
 3301POPC   C3B42741  21.657  16.511   6.956
 3301POPC   C4B42742  21.883  16.414   7.326
 3302POPC   NC342743  20.545   8.872   5.118
 3302POPC   PO442744  21.100   9.088   5.445
 3302POPC   GL142745  20.786   8.947   5.765
 3302POPC   GL242746  20.774   9.284   5.810
 3302POPC   C1A42747  20.487   9.080   6.143
 3302POPC   D2A42748  20.596   9.072   6.556
 3302POPC   C3A42749  20.532   8.748   6.842
 3302POPC   C4A42750  20.459   8.772   7.267
 3302POPC   C1B42751  20.897   9.402   6.263
 3302POPC   C2B42752  21.062   9.235   6.677
 3302POPC   C3B42753  20.818   9.118   7.057
 3302POPC   C4B42754  20.937   8.887   7.424
 3303POPC   NC342755  13.279  24.204   5.716
 3303POPC   PO442756  12.934  24.707   5.400
 3303POPC   GL142757  12.879  24.594   5.822
 3303POPC   GL242758  12.665  24.288   5.884
 3303POPC   C1A42759  13.063  24.795   6.187
 3303POPC   D2A42760  13.249  24.654   6.558
 3303POPC   C3A42761  13.124  24.474   6.928
 3303POPC   C4A42762  13.081  24.712   7.322
 3303POPC   C1B42763  12.867  24.333   6.292
 3303POPC   C2B42764  12.732  24.652   6.603
 3303POPC   C3B42765  12.653  24.581   7.057
 3303POPC   C4B42766  12.829  24.163   7.203
 3304POPC   NC342767  44.318  13.175   5.491
 3304POPC   PO442768  43.979  12.555   5.363
 3304POPC   GL142769  43.994  12.612   5.795
 3304POPC   GL242770  44.023  12.980   5.860
 3304POPC   C1A42771  43.771  12.690   6.185
 3304POPC   D2A42772  43.687  12.850   6.582
 3304POPC   C3A42773  43.784  12.601   6.925
 3304POPC   C4A42774  43.677  12.906   7.154
 3304POPC   C1B42775  44.057  13.128   6.298
 3304POPC   C2B42776  44.068  13.194   6.753
 3304POPC   C3B42777  44.161  13.011   7.184
 3304POPC   C4B42778  44.317  12.956   7.631
 3305POPC   NC342779  34.944   4.312   5.546
 3305POPC   PO442780  34.459   3.954   5.262
 3305POPC   GL142781  34.462   4.109   5.723
 3305POPC   GL242782  34.523   4.497   5.838
 3305POPC   C1A42783  34.531   4.145   6.180
 3305POPC   D2A42784  34.334   4.312   6.557
 3305POPC   C3A42785  34.397   4.097   6.930
 3305POPC   C4A42786  34.725   4.060   7.234
 3305POPC   C1B42787  34.682   4.612   6.293
 3305POPC   C2B42788  34.811   4.379   6.690
 3305POPC   C3B42789  34.672   4.544   7.095
 3305POPC   C4B42790  34.705   4.507   7.550
 3306POPC   NC342791  34.592   7.883   5.143
 3306POPC   PO442792  34.872   7.202   5.275
 3306POPC   GL142793  34.742   7.273   5.756
 3306POPC   GL242794  34.364   7.199   5.833
 3306POPC   C1A42795  34.624   7.497   6.178
 3306POPC   D2A42796  34.302   7.646   6.523
 3306POPC   C3A42797  34.399   7.499   6.972
 3306POPC   C4A42798  34.846   7.642   7.044
 3306POPC   C1B42799  34.151   7.236   6.264
 3306POPC   C2B42800  33.976   7.282   6.712
 3306POPC   C3B42801  34.078   7.035   7.120
 3306POPC   C4B42802  34.379   6.941   7.496
 3307POPC   NC342803  17.794  14.594   5.795
 3307POPC   PO442804  17.195  14.313   5.545
 3307POPC   GL142805  17.332  14.347   5.906
 3307POPC   GL242806  17.588  14.116   5.856
 3307POPC   C1A42807  17.285  14.446   6.331
 3307POPC   D2A42808  17.652  14.556   6.551
 3307POPC   C3A42809  17.520  14.673   6.906
 3307POPC   C4A42810  17.325  14.447   7.205
 3307POPC   C1B42811  17.691  14.122   6.251
 3307POPC   C2B42812  17.506  14.067   6.623
 3307POPC   C3B42813  17.693  14.174   6.995
 3307POPC   C4B42814  17.789  14.046   7.392
 3308POPC   NC342815  10.690  38.516   5.479
 3308POPC   PO442816  10.159  38.117   5.528
 3308POPC   GL142817  10.346  38.391   5.859
 3308POPC   GL242818  10.604  38.659   5.948
 3308POPC   C1A42819  10.430  38.310   6.281
 3308POPC   D2A42820  10.219  38.500   6.623
 3308POPC   C3A42821  10.448  38.409   6.992
 3308POPC   C4A42822  10.455  38.639   7.352
 3308POPC   C1B42823  10.886  38.562   6.297
 3308POPC   C2B42824  10.895  38.520   6.721
 3308POPC   C3B42825  10.933  38.608   7.127
 3308POPC   C4B42826  10.869  38.312   7.362
 3309POPC   NC342827   5.961  10.199   5.333
 3309POPC   PO442828   5.818  10.826   5.121
 3309POPC   GL142829   5.990  10.662   5.593
 3309POPC   GL242830   5.742  10.459   5.862
 3309POPC   C1A42831   6.183  10.605   6.041
 3309POPC   D2A42832   6.063  10.592   6.488
 3309POPC   C3A42833   5.671  10.639   6.747
 3309POPC   C4A42834   5.736  10.503   7.188
 3309POPC   C1B42835   5.692  10.251   6.326
 3309POPC   C2B42836   5.619  10.144   6.811
 3309POPC   C3B42837   5.658  10.000   7.281
 3309POPC   C4B42838   5.627  10.195   7.709
 3310POPC   NC342839   8.722  17.527   5.549
 3310POPC   PO442840   9.321  17.845   5.335
 3310POPC   GL142841   9.111  17.768   5.776
 3310POPC   GL242842   9.015  17.424   5.947
 3310POPC   C1A42843   9.043  17.874   6.221
 3310POPC   D2A42844   9.169  17.661   6.595
 3310POPC   C3A42845   8.944  17.606   6.973
 3310POPC   C4A42846   8.981  17.546   7.456
 3310POPC   C1B42847   9.155  17.180   6.324
 3310POPC   C2B42848   9.200  17.188   6.786
 3310POPC   C3B42849   8.943  17.130   7.152
 3310POPC   C4B42850   8.691  17.127   7.543
 3311POPC   NC342851  41.077   4.578   5.303
 3311POPC   PO442852  40.746   4.032   5.179
 3311POPC   GL142853  40.856   4.244   5.594
 3311POPC   GL242854  40.613   4.510   5.652
 3311POPC   C1A42855  41.050   4.160   6.013
 3311POPC   D2A42856  41.092   4.151   6.480
 3311POPC   C3A42857  40.827   4.137   6.858
 3311POPC   C4A42858  40.905   4.237   7.286
 3311POPC   C1B42859  40.740   4.580   6.103
 3311POPC   C2B42860  40.611   4.498   6.543
 3311POPC   C3B42861  40.648   4.628   6.975
 3311POPC   C4B42862  40.507   4.531   7.396
 3312POPC   NC342863  34.403  14.475   5.106
 3312POPC   PO442864  34.962  14.600   5.521
 3312POPC   GL142865  34.743  14.597   5.928
 3312POPC   GL242866  34.527  14.364   5.752
 3312POPC   C1A42867  34.380  14.687   6.246
 3312POPC   D2A42868  34.300  14.400   6.632
 3312POPC   C3A42869  34.674  14.284   6.842
 3312POPC   C4A42870  34.857  14.394   7.232
 3312POPC   C1B42871  34.489  14.191   6.183
 3312POPC   C2B42872  34.395  13.898   6.537
 3312POPC   C3B42873  34.212  13.968   6.949
 3312POPC   C4B42874  34.298  14.350   7.198
 3313POPC   NC342875   6.768  38.783   5.633
 3313POPC   PO442876   7.066  39.172   5.112
 3313POPC   GL142877   6.999  39.322   5.568
 3313POPC   GL242878   6.638  39.302   5.725
 3313POPC   C1A42879   7.026  39.409   6.054
 3313POPC   D2A42880   6.844  39.220   6.422
 3313POPC   C3A42881   6.982  39.233   6.813
 3313POPC   C4A42882   7.002  39.472   7.130
 3313POPC   C1B42883   6.423  39.344   6.157
 3313POPC   C2B42884   6.369  39.237   6.617
 3313POPC   C3B42885   6.518  39.295   7.041
 3313POPC   C4B42886   6.285  39.402   7.398
 3314POPC   NC342887   5.750  35.625   5.358
 3314POPC   PO442888   5.977  36.257   5.326
 3314POPC   GL142889   5.887  36.237   5.723
 3314POPC   GL242890   5.946  35.912   5.753
 3314POPC   C1A42891   5.967  36.337   6.159
 3314POPC   D2A42892   5.809  36.177   6.556
 3314POPC   C3A42893   5.825  36.459   6.908
 3314POPC   C4A42894   5.515  36.498   7.283
 3314POPC   C1B42895   6.003  35.828   6.175
 3314POPC   C2B42896   6.168  35.808   6.563
 3314POPC   C3B42897   5.939  35.798   6.923
 3314POPC   C4B42898   5.764  36.074   7.216
 3315POPC   NC342899  21.018  19.987   5.387
 3315POPC   PO442900  20.477  19.664   5.489
 3315POPC   GL142901  20.489  19.528   5.914
 3315POPC   GL242902  20.708  19.798   5.934
 3315POPC   C1A42903  20.576  19.646   6.379
 3315POPC   D2A42904  20.473  20.088   6.529
 3315POPC   C3A42905  20.162  20.162   6.872
 3315POPC   C4A42906  20.337  20.143   7.282
 3315POPC   C1B42907  20.971  19.958   6.271
 3315POPC   C2B42908  20.958  20.146   6.651
 3315POPC   C3B42909  20.735  19.908   6.945
 3315POPC   C4B42910  20.866  20.061   7.297
 3316POPC   NC342911   2.613  29.947   5.361
 3316POPC   PO442912   3.048  29.512   5.435
 3316POPC   GL142913   3.181  29.707   5.812
 3316POPC   GL242914   3.014  30.019   5.767
 3316POPC   C1A42915   3.166  29.789   6.265
 3316POPC   D2A42916   2.819  29.800   6.541
 3316POPC   C3A42917   2.922  29.881   6.961
 3316POPC   C4A42918   2.674  29.753   7.292
 3316POPC   C1B42919   2.928  30.238   6.149
 3316POPC   C2B42920   3.047  30.305   6.563
 3316POPC   C3B42921   2.965  30.394   6.993
 3316POPC   C4B42922   2.813  30.243   7.384
 3317POPC   NC342923  24.717   6.637   5.391
 3317POPC   PO442924  24.103   6.394   5.557
 3317POPC   GL142925  24.381   6.608   5.844
 3317POPC   GL242926  24.667   6.848   5.869
 3317POPC   C1A42927  24.234   6.810   6.205
 3317POPC   D2A42928  24.146   6.661   6.587
 3317POPC   C3A42929  24.433   6.517   6.882
 3317POPC   C4A42930  24.339   6.538   7.314
 3317POPC   C1B42931  24.716   6.710   6.299
 3317POPC   C2B42932  24.595   6.972   6.657
 3317POPC   C3B42933  24.821   6.844   7.027
 3317POPC   C4B42934  24.847   6.407   7.210
 3318POPC   NC342935  41.441  30.281   5.379
 3318POPC   PO442936  41.728  29.663   5.365
 3318POPC   GL142937  41.585  29.714   5.764
 3318POPC   GL242938  41.942  29.681   5.847
 3318POPC   C1A42939  41.354  29.801   6.141
 3318POPC   D2A42940  41.503  29.774   6.553
 3318POPC   C3A42941  41.489  30.069   6.892
 3318POPC   C4A42942  41.317  29.853   7.248
 3318POPC   C1B42943  41.926  29.762   6.252
 3318POPC   C2B42944  41.944  29.525   6.606
 3318POPC   C3B42945  41.788  29.659   6.975
 3318POPC   C4B42946  41.814  29.968   7.284
 3319POPC   NC342947  43.167  16.105   5.388
 3319POPC   PO442948  42.667  15.774   5.609
 3319POPC   GL142949  43.121  15.820   5.820
 3319POPC   GL242950  43.388  15.564   5.789
 3319POPC   C1A42951  43.324  16.117   6.154
 3319POPC   D2A42952  43.356  16.378   6.568
 3319POPC   C3A42953  43.362  16.147   6.946
 3319POPC   C4A42954  42.999  16.133   7.228
 3319POPC   C1B42955  43.489  15.632   6.238
 3319POPC   C2B42956  43.341  15.697   6.691
 3319POPC   C3B42957  43.527  15.679   7.121
 3319POPC   C4B42958  43.334  15.845   7.511
 3320POPC   NC342959  12.301  44.647   5.415
 3320POPC   PO442960  11.684  44.313   5.587
 3320POPC   GL142961  12.027  44.452   5.808
 3320POPC   GL242962  11.984  44.831   5.841
 3320POPC   C1A42963  12.120  44.515   6.239
 3320POPC   D2A42964  11.786  44.568   6.529
 3320POPC   C3A42965  11.963  44.521   6.919
 3320POPC   C4A42966  12.016  44.451   7.334
 3320POPC   C1B42967  11.840   0.027   6.259
 3320POPC   C2B42968  11.922   0.063   6.728
 3320POPC   C3B42969  11.847  44.941   7.176
 3320POPC   C4B42970  11.729   0.023   7.608
 3321POPC   NC342971   4.039  18.581   5.071
 3321POPC   PO442972   4.511  19.008   5.363
 3321POPC   GL142973   4.446  19.201   5.766
 3321POPC   GL242974   4.165  19.023   5.815
 3321POPC   C1A42975   4.321  19.320   6.226
 3321POPC   D2A42976   4.217  19.182   6.682
 3321POPC   C3A42977   4.387  19.219   7.144
 3321POPC   C4A42978   4.155  19.313   7.573
 3321POPC   C1B42979   4.349  18.814   6.173
 3321POPC   C2B42980   4.185  18.638   6.522
 3321POPC   C3B42981   4.166  18.706   6.926
 3321POPC   C4B42982   4.502  18.719   7.180
 3322POPC   NC342983  38.785  37.229   5.284
 3322POPC   PO442984  38.442  36.610   5.226
 3322POPC   GL142985  38.399  36.863   5.712
 3322POPC   GL242986  38.650  37.136   5.854
 3322POPC   C1A42987  38.486  36.734   6.186
 3322POPC   D2A42988  38.411  36.634   6.655
 3322POPC   C3A42989  38.430  36.856   7.034
 3322POPC   C4A42990  38.236  37.225   7.132
 3322POPC   C1B42991  38.393  37.249   6.209
 3322POPC   C2B42992  38.417  37.184   6.638
 3322POPC   C3B42993  38.772  37.214   6.940
 3322POPC   C4B42994  38.697  37.273   7.353
 3323POPC   NC342995  16.401  19.886   5.640
 3323POPC   PO442996  16.985  20.170   5.621
 3323POPC   GL142997  16.811  19.960   5.958
 3323POPC   GL242998  16.795  19.619   5.843
 3323POPC   C1A42999  16.531  19.986   6.343
 3323POPC   D2A43000  16.564  19.764   6.758
 3323POPC   C3A43001  16.856  19.880   7.105
 3323POPC   C4A43002  17.085  19.993   7.534
 3323POPC   C1B43003  16.605  19.499   6.252
 3323POPC   C2B43004  16.601  19.243   6.622
 3323POPC   C3B43005  16.739  19.345   7.019
 3323POPC   C4B43006  16.449  19.460   7.321
 3324POPC   NC343007   1.721  26.974   5.429
 3324POPC   PO443008   2.356  26.688   5.640
 3324POPC   GL143009   1.968  26.713   5.806
 3324POPC   GL243010   2.030  27.063   5.832
 3324POPC   C1A43011   1.785  26.736   6.225
 3324POPC   D2A43012   1.905  26.517   6.628
 3324POPC   C3A43013   1.762  26.686   7.023
 3324POPC   C4A43014   1.963  26.770   7.423
 3324POPC   C1B43015   2.196  27.059   6.238
 3324POPC   C2B43016   1.955  27.046   6.629
 3324POPC   C3B43017   2.023  27.125   7.045
 3324POPC   C4B43018   2.341  27.114   7.328
 3325POPC   NC343019  20.075  38.180   5.437
 3325POPC   PO443020  19.578  38.517   5.621
 3325POPC   GL143021  20.014  38.494   5.834
 3325POPC   GL243022  20.001  38.145   5.950
 3325POPC   C1A43023  20.071  38.588   6.270
 3325POPC   D2A43024  19.760  38.738   6.565
 3325POPC   C3A43025  19.757  38.498   6.910
 3325POPC   C4A43026  19.550  38.413   7.304
 3325POPC   C1B43027  20.329  37.995   6.228
 3325POPC   C2B43028  20.389  38.176   6.603
 3325POPC   C3B43029  20.167  38.122   6.981
 3325POPC   C4B43030  20.075  38.412   7.274
 3326POPC   NC343031  26.535  30.173   5.426
 3326POPC   PO443032  26.863  29.551   5.539
 3326POPC   GL143033  26.703  29.835   5.771
 3326POPC   GL243034  26.982  30.086   5.650
 3326POPC   C1A43035  26.556  29.799   6.209
 3326POPC   D2A43036  26.809  29.650   6.573
 3326POPC   C3A43037  26.581  29.666   6.959
 3326POPC   C4A43038  26.583  29.474   7.384
 3326POPC   C1B43039  26.960  30.114   6.104
 3326POPC   C2B43040  26.809  30.176   6.532
 3326POPC   C3B43041  26.947  30.028   6.938
 3326POPC   C4B43042  26.765  29.972   7.315
 3327POPC   NC343043  31.235   9.508   5.643
 3327POPC   PO443044  31.469  10.108   5.343
 3327POPC   GL143045  31.640  10.085   5.814
 3327POPC   GL243046  31.735   9.745   5.781
 3327POPC   C1A43047  31.549  10.125   6.278
 3327POPC   D2A43048  31.497   9.886   6.682
 3327POPC   C3A43049  31.284  10.017   7.084
 3327POPC   C4A43050  31.065   9.839   7.464
 3327POPC   C1B43051  31.869   9.692   6.211
 3327POPC   C2B43052  31.986   9.447   6.586
 3327POPC   C3B43053  31.666   9.435   6.903
 3327POPC   C4B43054  31.574   9.634   7.296
 3328POPC   NC343055   4.845  30.306   5.243
 3328POPC   PO443056   5.141  29.756   5.496
 3328POPC   GL143057   4.901  29.854   5.833
 3328POPC   GL243058   4.962  30.202   5.812
 3328POPC   C1A43059   4.690  29.797   6.249
 3328POPC   D2A43060   4.694  29.491   6.606
 3328POPC   C3A43061   4.620  29.671   7.040
 3328POPC   C4A43062   4.787  29.994   7.367
 3328POPC   C1B43063   5.183  30.020   6.197
 3328POPC   C2B43064   5.029  30.094   6.591
 3328POPC   C3B43065   5.195  30.086   6.988
 3328POPC   C4B43066   5.223  29.732   7.206
 3329POPC   NC343067  20.118  36.490   5.535
 3329POPC   PO443068  19.475  36.079   5.576
 3329POPC   GL143069  19.827  36.165   5.773
 3329POPC   GL243070  19.677  36.495   5.821
 3329POPC   C1A43071  20.122  36.117   6.143
 3329POPC   D2A43072  20.085  36.367   6.539
 3329POPC   C3A43073  20.169  36.187   6.953
 3329POPC   C4A43074  19.809  36.022   7.191
 3329POPC   C1B43075  19.651  36.257   6.237
 3329POPC   C2B43076  19.649  36.087   6.665
 3329POPC   C3B43077  19.383  36.268   6.968
 3329POPC   C4B43078  19.449  36.498   7.384
 3330POPC   NC343079  13.099  32.301   5.347
 3330POPC   PO443080  12.493  32.122   5.560
 3330POPC   GL143081  12.815  32.326   5.770
 3330POPC   GL243082  12.966  32.009   5.786
 3330POPC   C1A43083  13.012  32.595   6.074
 3330POPC   D2A43084  12.821  32.384   6.435
 3330POPC   C3A43085  12.893  32.413   6.881
 3330POPC   C4A43086  12.525  32.393   7.136
 3330POPC   C1B43087  12.715  31.929   6.160
 3330POPC   C2B43088  12.803  31.781   6.574
 3330POPC   C3B43089  12.718  31.919   6.971
 3330POPC   C4B43090  12.343  31.905   7.171
 3331POPC   NC343091  13.053  43.927   5.507
 3331POPC   PO443092  12.417  43.633   5.612
 3331POPC   GL143093  12.708  43.741   5.950
 3331POPC   GL243094  13.061  43.666   5.939
 3331POPC   C1A43095  12.841  43.715   6.380
 3331POPC   D2A43096  12.796  43.475   6.669
 3331POPC   C3A43097  12.913  43.681   7.030
 3331POPC   C4A43098  12.637  43.840   7.307
 3331POPC   C1B43099  13.059  44.101   6.145
 3331POPC   C2B43100  13.038  44.188   6.594
 3331POPC   C3B43101  12.854  44.195   7.006
 3331POPC   C4B43102  13.014  44.128   7.442
 3332POPC   NC343103  30.563  39.800   5.409
 3332POPC   PO443104  30.153  40.305   5.353
 3332POPC   GL143105  30.532  40.230   5.693
 3332POPC   GL243106  30.817  39.980   5.816
 3332POPC   C1A43107  30.647  40.295   6.163
 3332POPC   D2A43108  30.495  40.124   6.588
 3332POPC   C3A43109  30.668  40.157   6.997
 3332POPC   C4A43110  30.553  40.066   7.451
 3332POPC   C1B43111  30.732  39.782   6.254
 3332POPC   C2B43112  30.769  39.713   6.726
 3332POPC   C3B43113  30.760  39.673   7.185
 3332POPC   C4B43114  30.960  39.772   7.634
 3333POPC   NC343115   9.462  40.053   5.397
 3333POPC   PO443116  10.100  39.685   5.361
 3333POPC   GL143117   9.946  39.930   5.776
 3333POPC   GL243118   9.551  39.980   5.920
 3333POPC   C1A43119   9.934  40.037   6.222
 3333POPC   D2A43120   9.633  39.839   6.465
 3333POPC   C3A43121   9.728  39.861   6.856
 3333POPC   C4A43122   9.735  39.716   7.273
 3333POPC   C1B43123   9.476  40.275   6.233
 3333POPC   C2B43124   9.723  40.340   6.605
 3333POPC   C3B43125   9.647  40.476   7.029
 3333POPC   C4B43126   9.827  40.614   7.422
 3334POPC   NC343127  13.230  13.512   5.471
 3334POPC   PO443128  13.920  13.794   5.432
 3334POPC   GL143129  13.902  13.626   5.819
 3334POPC   GL243130  13.643  13.415   5.745
 3334POPC   C1A43131  13.860  13.709   6.254
 3334POPC   D2A43132  13.611  13.894   6.564
 3334POPC   C3A43133  13.880  13.731   6.904
 3334POPC   C4A43134  13.828  13.554   7.340
 3334POPC   C1B43135  13.409  13.535   6.104
 3334POPC   C2B43136  13.457  13.415   6.512
 3334POPC   C3B43137  13.375  13.583   6.892
 3334POPC   C4B43138  13.333  13.475   7.286
 3335POPC   NC343139  29.448   4.642   5.553
 3335POPC   PO443140  29.468   4.092   5.143
 3335POPC   GL143141  29.200   4.183   5.614
 3335POPC   GL243142  28.984   4.420   5.747
 3335POPC   C1A43143  29.171   4.060   6.116
 3335POPC   D2A43144  29.198   4.248   6.555
 3335POPC   C3A43145  29.361   4.115   6.980
 3335POPC   C4A43146  29.106   4.102   7.342
 3335POPC   C1B43147  28.933   4.508   6.179
 3335POPC   C2B43148  28.791   4.563   6.609
 3335POPC   C3B43149  28.963   4.447   6.965
 3335POPC   C4B43150  29.279   4.609   7.177
 3336POPC   NC343151   4.622  14.997   5.426
 3336POPC   PO443152   3.917  15.183   5.386
 3336POPC   GL143153   4.260  15.253   5.695
 3336POPC   GL243154   3.991  15.169   5.912
 3336POPC   C1A43155   4.445  15.197   6.124
 3336POPC   D2A43156   4.205  15.142   6.479
 3336POPC   C3A43157   4.391  15.269   6.852
 3336POPC   C4A43158   4.676  15.104   7.171
 3336POPC   C1B43159   3.826  15.398   6.248
 3336POPC   C2B43160   3.927  15.507   6.683
 3336POPC   C3B43161   3.975  15.459   7.097
 3336POPC   C4B43162   4.079  15.154   7.359
 3337POPC   NC343163  30.161   6.226   5.451
 3337POPC   PO443164  29.751   5.664   5.288
 3337POPC   GL143165  29.817   5.942   5.708
 3337POPC   GL243166  29.551   6.138   5.901
 3337POPC   C1A43167  30.009   6.088   6.131
 3337POPC   D2A43168  29.794   6.127   6.572
 3337POPC   C3A43169  30.057   6.053   6.946
 3337POPC   C4A43170  30.181   5.711   7.244
 3337POPC   C1B43171  29.657   5.731   6.169
 3337POPC   C2B43172  29.762   5.595   6.589
 3337POPC   C3B43173  29.679   5.729   6.994
 3337POPC   C4B43174  29.723   5.453   7.309
 3338POPC   NC343175   8.360   9.026   5.353
 3338POPC   PO443176   7.783   9.374   5.453
 3338POPC   GL143177   7.970   8.982   5.710
 3338POPC   GL243178   8.347   8.839   5.823
 3338POPC   C1A43179   8.045   9.038   6.165
 3338POPC   D2A43180   7.886   8.885   6.536
 3338POPC   C3A43181   7.905   9.156   6.891
 3338POPC   C4A43182   8.022   8.860   7.181
 3338POPC   C1B43183   8.564   8.671   6.199
 3338POPC   C2B43184   8.730   8.595   6.625
 3338POPC   C3B43185   8.481   8.643   6.984
 3338POPC   C4B43186   8.468   8.763   7.408
 3339POPC   NC343187  44.545  28.619   5.636
 3339POPC   PO443188  44.658  28.003   5.439
 3339POPC   GL143189  44.669  28.176   5.854
 3339POPC   GL243190  44.322  28.133   5.837
 3339POPC   C1A43191  44.731  28.472   6.225
 3339POPC   D2A43192   0.038  28.537   6.517
 3339POPC   C3A43193  44.868  28.555   6.915
 3339POPC   C4A43194   0.025  28.482   7.328
 3339POPC   C1B43195  44.286  28.237   6.273
 3339POPC   C2B43196  44.620  28.185   6.615
 3339POPC   C3B43197  44.544  28.185   7.029
 3339POPC   C4B43198  44.377  27.924   7.343
 3340POPC   NC343199  24.073  44.509   5.517
 3340POPC   PO443200  24.496   0.066   5.284
 3340POPC   GL143201  24.534  44.963   5.742
 3340POPC   GL243202  24.389  44.647   5.861
 3340POPC   C1A43203  24.697  44.887   6.177
 3340POPC   D2A43204  24.743  44.706   6.571
 3340POPC   C3A43205  24.653  44.956   6.886
 3340POPC   C4A43206  24.679  44.902   7.311
 3340POPC   C1B43207  24.396  44.486   6.267
 3340POPC   C2B43208  24.170  44.371   6.623
 3340POPC   C3B43209  24.345  44.576   6.994
 3340POPC   C4B43210  24.353  44.511   7.425
 3341POPC   NC343211  36.507   0.750   5.492
 3341POPC   PO443212  37.146   0.568   5.342
 3341POPC   GL143213  37.034   0.469   5.815
 3341POPC   GL243214  36.728   0.615   5.910
 3341POPC   C1A43215  37.019   0.322   6.294
 3341POPC   D2A43216  37.036   0.560   6.703
 3341POPC   C3A43217  36.876   0.424   7.145
 3341POPC   C4A43218  36.808   0.219   7.598
 3341POPC   C1B43219  36.562   0.280   6.097
 3341POPC   C2B43220  36.529   0.214   6.512
 3341POPC   C3B43221  36.477   0.169   6.933
 3341POPC   C4B43222  36.358   0.417   7.234
 3342POPC   NC343223  44.946  25.525   5.508
 3342POPC   PO443224  44.398  25.057   5.418
 3342POPC   GL143225  44.620  24.995   5.809
 3342POPC   GL243226  44.650  25.298   5.854
 3342POPC   C1A43227  44.883  24.942   6.154
 3342POPC   D2A43228  44.691  24.910   6.533
 3342POPC   C3A43229  44.773  25.147   6.875
 3342POPC   C4A43230  44.775  24.973   7.267
 3342POPC   C1B43231  44.730  25.415   6.250
 3342POPC   C2B43232  44.827  25.606   6.592
 3342POPC   C3B43233  44.728  25.647   6.995
 3342POPC   C4B43234  44.938  25.454   7.299
 3343POPC   NC343235  41.347  34.840   5.468
 3343POPC   PO443236  41.828  34.402   5.231
 3343POPC   GL143237  41.818  34.552   5.748
 3343POPC   GL243238  41.571  34.776   5.929
 3343POPC   C1A43239  41.692  34.345   6.194
 3343POPC   D2A43240  41.413  34.271   6.574
 3343POPC   C3A43241  41.492  34.349   7.028
 3343POPC   C4A43242  41.481  34.639   7.399
 3343POPC   C1B43243  41.630  34.827   6.388
 3343POPC   C2B43244  41.592  34.851   6.845
 3343POPC   C3B43245  41.763  35.025   7.247
 3343POPC   C4B43246  41.943  34.743   7.588
 3344POPC   NC343247   8.004   4.248   5.588
 3344POPC   PO443248   7.360   4.248   5.303
 3344POPC   GL143249   7.505   4.299   5.699
 3344POPC   GL243250   7.570   3.959   5.701
 3344POPC   C1A43251   7.490   4.504   6.098
 3344POPC   D2A43252   7.201   4.589   6.439
 3344POPC   C3A43253   7.355   4.508   6.839
 3344POPC   C4A43254   7.292   4.514   7.239
 3344POPC   C1B43255   7.603   4.010   6.131
 3344POPC   C2B43256   7.587   4.197   6.521
 3344POPC   C3B43257   7.567   4.068   6.991
 3344POPC   C4B43258   7.493   3.907   7.425
 3345POPC   NC343259  40.612  20.908   5.464
 3345POPC   PO443260  40.883  20.277   5.402
 3345POPC   GL143261  40.884  20.518   5.762
 3345POPC   GL243262  40.942  20.862   5.823
 3345POPC   C1A43263  40.996  20.520   6.172
 3345POPC   D2A43264  40.865  20.691   6.553
 3345POPC   C3A43265  40.697  20.344   6.809
 3345POPC   C4A43266  40.799  20.327   7.255
 3345POPC   C1B43267  40.538  20.745   6.107
 3345POPC   C2B43268  40.340  20.658   6.521
 3345POPC   C3B43269  40.480  20.790   6.952
 3345POPC   C4B43270  40.798  21.119   7.066
 3346POPC   NC343271  27.407  24.545   5.218
 3346POPC   PO443272  26.847  24.382   5.189
 3346POPC   GL143273  26.807  24.474   5.639
 3346POPC   GL243274  26.979  24.774   5.707
 3346POPC   C1A43275  26.667  24.573   6.084
 3346POPC   D2A43276  26.518  24.322   6.442
 3346POPC   C3A43277  26.715  24.459   6.816
 3346POPC   C4A43278  26.560  24.611   7.197
 3346POPC   C1B43279  27.201  24.498   6.012
 3346POPC   C2B43280  27.336  24.479   6.470
 3346POPC   C3B43281  27.282  24.301   6.896
 3346POPC   C4B43282  27.049  24.423   7.231
 3347POPC   NC343283  38.517  25.940   5.396
 3347POPC   PO443284  38.863  26.571   5.400
 3347POPC   GL143285  38.705  26.296   5.712
 3347POPC   GL243286  38.322  26.274   5.754
 3347POPC   C1A43287  38.722  26.044   6.080
 3347POPC   D2A43288  38.616  26.125   6.502
 3347POPC   C3A43289  38.574  25.823   6.854
 3347POPC   C4A43290  38.541  26.025   7.237
 3347POPC   C1B43291  38.207  26.101   6.158
 3347POPC   C2B43292  38.136  25.904   6.561
 3347POPC   C3B43293  38.089  25.969   6.984
 3347POPC   C4B43294  38.153  25.776   7.395
 3348POPC   NC343295  33.017  15.683   5.592
 3348POPC   PO443296  33.181  16.337   5.595
 3348POPC   GL143297  33.009  16.109   5.907
 3348POPC   GL243298  33.383  16.011   5.924
 3348POPC   C1A43299  32.670  15.939   6.212
 3348POPC   D2A43300  32.499  15.870   6.659
 3348POPC   C3A43301  32.768  16.080   6.990
 3348POPC   C4A43302  32.849  15.947   7.420
 3348POPC   C1B43303  33.195  15.787   6.241
 3348POPC   C2B43304  33.008  15.834   6.615
 3348POPC   C3B43305  33.164  15.768   7.017
 3348POPC   C4B43306  33.454  15.897   7.266
 3349POPC   NC343307  37.954  20.018   5.423
 3349POPC   PO443308  37.336  19.954   5.185
 3349POPC   GL143309  37.496  19.995   5.639
 3349POPC   GL243310  37.211  19.864   5.754
 3349POPC   C1A43311  37.792  19.989   6.049
 3349POPC   D2A43312  37.900  19.719   6.398
 3349POPC   C3A43313  37.844  19.744   6.847
 3349POPC   C4A43314  38.113  19.641   7.211
 3349POPC   C1B43315  37.309  20.022   6.156
 3349POPC   C2B43316  37.368  19.823   6.537
 3349POPC   C3B43317  37.307  20.028   6.922
 3349POPC   C4B43318  37.478  19.913   7.306
 3350POPC   NC343319   5.712  18.717   5.465
 3350POPC   PO443320   5.744  18.018   5.379
 3350POPC   GL143321   5.913  18.207   5.733
 3350POPC   GL243322   5.588  18.301   5.860
 3350POPC   C1A43323   6.018  18.510   6.072
 3350POPC   D2A43324   6.085  18.562   6.504
 3350POPC   C3A43325   6.064  18.291   6.887
 3350POPC   C4A43326   6.030  18.491   7.291
 3350POPC   C1B43327   5.761  18.091   6.235
 3350POPC   C2B43328   5.630  18.166   6.652
 3350POPC   C3B43329   5.562  18.363   7.067
 3350POPC   C4B43330   5.688  18.156   7.462
 3351POPC   NC343331   2.079   4.684   5.450
 3351POPC   PO443332   1.553   4.288   5.549
 3351POPC   GL143333   1.861   4.361   5.887
 3351POPC   GL243334   2.243   4.411   5.860
 3351POPC   C1A43335   2.033   4.198   6.291
 3351POPC   D2A43336   2.025   4.234   6.773
 3351POPC   C3A43337   1.816   3.944   7.067
 3351POPC   C4A43338   1.776   3.929   7.519
 3351POPC   C1B43339   2.114   4.705   6.169
 3351POPC   C2B43340   2.255   4.802   6.562
 3351POPC   C3B43341   2.329   4.610   6.947
 3351POPC   C4B43342   2.051   4.361   7.274
 3352POPC   NC343343  12.295  43.305   5.310
 3352POPC   PO443344  11.695  43.428   5.212
 3352POPC   GL143345  11.918  43.328   5.671
 3352POPC   GL243346  12.252  43.164   5.798
 3352POPC   C1A43347  11.906  43.180   6.152
 3352POPC   D2A43348  12.064  42.910   6.488
 3352POPC   C3A43349  12.041  43.093   6.906
 3352POPC   C4A43350  11.824  43.018   7.281
 3352POPC   C1B43351  12.429  43.330   6.206
 3352POPC   C2B43352  12.266  43.453   6.608
 3352POPC   C3B43353  12.405  43.456   7.037
 3352POPC   C4B43354  12.337  43.491   7.492
 3353POPC   NC343355  18.861  23.721   5.537
 3353POPC   PO443356  19.468  24.044   5.377
 3353POPC   GL143357  19.259  23.913   5.783
 3353POPC   GL243358  19.170  23.515   5.874
 3353POPC   C1A43359  19.113  23.893   6.211
 3353POPC   D2A43360  19.186  23.514   6.464
 3353POPC   C3A43361  19.084  23.549   6.896
 3353POPC   C4A43362  19.247  23.908   7.134
 3353POPC   C1B43363  18.749  23.558   6.143
 3353POPC   C2B43364  18.698  23.777   6.531
 3353POPC   C3B43365  18.698  23.911   6.951
 3353POPC   C4B43366  18.756  23.652   7.291
 3354POPC   NC343367  21.688   7.771   5.283
 3354POPC   PO443368  21.670   7.183   5.569
 3354POPC   GL143369  21.923   7.424   5.854
 3354POPC   GL243370  22.216   7.548   5.655
 3354POPC   C1A43371  22.024   7.439   6.307
 3354POPC   D2A43372  21.862   7.603   6.708
 3354POPC   C3A43373  21.936   7.361   7.056
 3354POPC   C4A43374  22.261   7.104   7.167
 3354POPC   C1B43375  22.378   7.236   5.983
 3354POPC   C2B43376  22.531   7.291   6.412
 3354POPC   C3B43377  22.398   7.430   6.812
 3354POPC   C4B43378  22.367   7.611   7.225
 3355POPC   NC343379  14.199  25.515   5.386
 3355POPC   PO443380  14.580  24.912   5.378
 3355POPC   GL143381  14.672  25.158   5.760
 3355POPC   GL243382  14.577  25.514   5.767
 3355POPC   C1A43383  14.789  25.302   6.192
 3355POPC   D2A43384  14.683  25.236   6.618
 3355POPC   C3A43385  14.308  25.094   6.811
 3355POPC   C4A43386  14.285  25.102   7.249
 3355POPC   C1B43387  14.329  25.580   6.178
 3355POPC   C2B43388  14.426  25.674   6.635
 3355POPC   C3B43389  14.581  25.494   7.066
 3355POPC   C4B43390  14.533  25.484   7.528
 3356POPC   NC343391  19.919   3.455   5.428
 3356POPC   PO443392  19.558   2.817   5.476
 3356POPC   GL143393  19.645   3.190   5.813
 3356POPC   GL243394  19.995   3.280   5.882
 3356POPC   C1A43395  19.635   3.543   6.161
 3356POPC   D2A43396  19.553   3.835   6.525
 3356POPC   C3A43397  19.552   3.740   6.976
 3356POPC   C4A43398  19.613   3.347   7.207
 3356POPC   C1B43399  20.158   3.495   6.209
 3356POPC   C2B43400  19.950   3.514   6.607
 3356POPC   C3B43401  20.068   3.367   6.990
 3356POPC   C4B43402  20.009   3.714   7.239
 3357POPC   NC343403  39.044   5.871   5.172
 3357POPC   PO443404  39.541   5.409   5.249
 3357POPC   GL143405  39.223   5.574   5.649
 3357POPC   GL243406  39.287   5.928   5.799
 3357POPC   C1A43407  39.233   5.612   6.156
 3357POPC   D2A43408  39.417   5.880   6.515
 3357POPC   C3A43409  39.470   5.673   6.919
 3357POPC   C4A43410  39.264   5.691   7.322
 3357POPC   C1B43411  39.100   6.115   6.184
 3357POPC   C2B43412  38.938   6.015   6.605
 3357POPC   C3B43413  39.144   6.076   6.983
 3357POPC   C4B43414  39.288   6.212   7.361
 3358POPC   NC343415  34.993  42.604   5.602
 3358POPC   PO443416  34.323  42.555   5.529
 3358POPC   GL143417  34.475  42.394   5.896
 3358POPC   GL243418  34.222  42.124   5.936
 3358POPC   C1A43419  34.539  42.408   6.318
 3358POPC   D2A43420  34.314  42.385   6.699
 3358POPC   C3A43421  34.528  42.459   7.112
 3358POPC   C4A43422  34.769  42.500   7.512
 3358POPC   C1B43423  34.404  41.896   6.263
 3358POPC   C2B43424  34.592  41.973   6.624
 3358POPC   C3B43425  34.703  41.820   6.990
 3358POPC   C4B43426  34.749  42.019   7.353
 3359POPC   NC343427  39.005  21.104   5.516
 3359POPC   PO443428  38.416  21.542   5.547
 3359POPC   GL143429  38.417  21.438   5.929
 3359POPC   GL243430  38.612  21.138   5.877
 3359POPC   C1A43431  38.302  21.516   6.349
 3359POPC   D2A43432  38.182  21.570   6.776
 3359POPC   C3A43433  38.421  21.472   7.170
 3359POPC   C4A43434  38.220  21.515   7.586
 3359POPC   C1B43435  38.256  21.020   6.164
 3359POPC   C2B43436  38.327  21.075   6.606
 3359POPC   C3B43437  38.157  21.075   7.000
 3359POPC   C4B43438  38.393  21.013   7.408
 3360POPC   NC343439  44.548   8.565   5.460
 3360POPC   PO443440  44.522   7.880   5.398
 3360POPC   GL143441  44.601   8.138   5.781
 3360POPC   GL243442  44.326   8.359   5.872
 3360POPC   C1A43443  44.760   8.327   6.191
 3360POPC   D2A43444  44.977   8.341   6.606
 3360POPC   C3A43445  44.771   8.226   7.006
 3360POPC   C4A43446  44.404   8.085   7.225
 3360POPC   C1B43447  44.329   8.044   6.239
 3360POPC   C2B43448  44.446   8.235   6.611
 3360POPC   C3B43449  44.523   8.621   6.808
 3360POPC   C4B43450  44.537   8.609   7.260
 3361POPC   NC343451   2.091  26.317   5.463
 3361POPC   PO443452   1.750  25.723   5.547
 3361POPC   GL143453   1.984  25.991   5.855
 3361POPC   GL243454   2.280  26.228   5.930
 3361POPC   C1A43455   1.802  26.225   6.206
 3361POPC   D2A43456   1.547  26.145   6.581
 3361POPC   C3A43457   1.756  26.180   7.016
 3361POPC   C4A43458   2.112  26.266   7.306
 3361POPC   C1B43459   2.221  25.949   6.320
 3361POPC   C2B43460   1.963  25.822   6.702
 3361POPC   C3B43461   1.985  25.765   7.173
 3361POPC   C4B43462   2.164  25.505   7.510
 3362POPC   NC343463   8.358   6.170   5.540
 3362POPC   PO443464   8.066   5.628   5.238
 3362POPC   GL143465   7.963   5.634   5.724
 3362POPC   GL243466   7.990   5.998   5.858
 3362POPC   C1A43467   8.028   5.626   6.198
 3362POPC   D2A43468   7.923   5.740   6.614
 3362POPC   C3A43469   8.233   5.802   6.916
 3362POPC   C4A43470   8.064   5.675   7.289
 3362POPC   C1B43471   8.324   6.061   6.211
 3362POPC   C2B43472   8.578   6.101   6.575
 3362POPC   C3B43473   8.478   6.254   6.965
 3362POPC   C4B43474   8.398   6.108   7.365
 3363POPC   NC343475  37.286  34.852   5.457
 3363POPC   PO443476  37.146  34.185   5.464
 3363POPC   GL143477  37.215  34.351   5.836
 3363POPC   GL243478  37.012  34.628   5.832
 3363POPC   C1A43479  37.190  34.176   6.232
 3363POPC   D2A43480  37.298  34.284   6.636
 3363POPC   C3A43481  37.015  34.288   6.952
 3363POPC   C4A43482  37.167  34.434   7.332
 3363POPC   C1B43483  36.864  34.587   6.257
 3363POPC   C2B43484  37.052  34.735   6.624
 3363POPC   C3B43485  36.966  34.808   7.031
 3363POPC   C4B43486  36.602  34.891   7.203
 3364POPC   NC343487  20.320   8.064   5.062
 3364POPC   PO443488  19.733   8.212   5.430
 3364POPC   GL143489  19.823   8.240   5.862
 3364POPC   GL243490  19.994   8.561   5.881
 3364POPC   C1A43491  19.793   7.920   6.199
 3364POPC   D2A43492  19.577   7.852   6.585
 3364POPC   C3A43493  19.767   7.804   6.995
 3364POPC   C4A43494  19.748   7.873   7.483
 3364POPC   C1B43495  20.016   8.372   6.310
 3364POPC   C2B43496  19.816   8.339   6.716
 3364POPC   C3B43497  19.870   8.259   7.167
 3364POPC   C4B43498  20.201   8.351   7.442
 3365POPC   NC343499  41.150   3.828   5.381
 3365POPC   PO443500  40.554   3.855   5.667
 3365POPC   GL143501  40.807   3.511   5.763
 3365POPC   GL243502  40.575   3.280   5.889
 3365POPC   C1A43503  41.054   3.440   6.149
 3365POPC   D2A43504  41.193   3.598   6.557
 3365POPC   C3A43505  41.027   3.474   6.972
 3365POPC   C4A43506  40.749   3.746   7.212
 3365POPC   C1B43507  40.562   3.390   6.345
 3365POPC   C2B43508  40.546   3.415   6.821
 3365POPC   C3B43509  40.644   3.268   7.277
 3365POPC   C4B43510  40.613   3.443   7.733
 3366POPC   NC343511   9.598  14.885   5.161
 3366POPC   PO443512   9.345  14.301   5.437
 3366POPC   GL143513   9.410  14.382   5.849
 3366POPC   GL243514   9.740  14.502   5.769
 3366POPC   C1A43515   9.616  14.278   6.235
 3366POPC   D2A43516   9.821  14.067   6.569
 3366POPC   C3A43517   9.507  14.176   6.864
 3366POPC   C4A43518   9.511  14.439   7.251
 3366POPC   C1B43519   9.990  14.589   6.121
 3366POPC   C2B43520   9.896  14.642   6.521
 3366POPC   C3B43521   9.952  14.519   6.926
 3366POPC   C4B43522  10.028  14.686   7.327
 3367POPC   NC343523  28.668   9.906   5.434
 3367POPC   PO443524  28.118   9.517   5.425
 3367POPC   GL143525  28.340   9.582   5.799
 3367POPC   GL243526  28.334   9.939   5.846
 3367POPC   C1A43527  28.288   9.408   6.237
 3367POPC   D2A43528  28.362   9.654   6.614
 3367POPC   C3A43529  28.305   9.510   7.020
 3367POPC   C4A43530  28.327   9.495   7.450
 3367POPC   C1B43531  28.460  10.043   6.288
 3367POPC   C2B43532  28.286  10.160   6.708
 3367POPC   C3B43533  28.313  10.018   7.157
 3367POPC   C4B43534  28.364  10.007   7.597
 3368POPC   NC343535  31.383  19.985   5.290
 3368POPC   PO443536  31.897  19.474   5.234
 3368POPC   GL143537  31.658  19.636   5.639
 3368POPC   GL243538  31.406  19.911   5.791
 3368POPC   C1A43539  31.705  19.619   6.087
 3368POPC   D2A43540  31.551  19.414   6.454
 3368POPC   C3A43541  31.654  19.579   6.858
 3368POPC   C4A43542  31.459  19.560   7.199
 3368POPC   C1B43543  31.405  20.027   6.232
 3368POPC   C2B43544  31.318  19.892   6.646
 3368POPC   C3B43545  31.416  20.041   7.077
 3368POPC   C4B43546  31.393  20.313   7.417
 3369POPC   NC343547  22.879  23.851   5.364
 3369POPC   PO443548  23.140  23.193   5.480
 3369POPC   GL143549  22.923  23.501   5.785
 3369POPC   GL243550  22.938  23.898   5.868
 3369POPC   C1A43551  22.955  23.470   6.241
 3369POPC   D2A43552  23.282  23.411   6.563
 3369POPC   C3A43553  23.183  23.192   6.930
 3369POPC   C4A43554  23.015  23.564   7.088
 3369POPC   C1B43555  22.778  23.947   6.291
 3369POPC   C2B43556  22.892  23.921   6.739
 3369POPC   C3B43557  22.949  24.069   7.176
 3369POPC   C4B43558  23.002  24.185   7.614
 3370POPC   NC343559  35.396  42.370   5.277
 3370POPC   PO443560  34.931  42.139   5.551
 3370POPC   GL143561  35.275  42.250   5.831
 3370POPC   GL243562  35.621  42.325   5.925
 3370POPC   C1A43563  35.238  42.408   6.252
 3370POPC   D2A43564  34.979  42.324   6.594
 3370POPC   C3A43565  35.038  42.543   6.949
 3370POPC   C4A43566  35.219  42.370   7.277
 3370POPC   C1B43567  35.726  42.555   6.265
 3370POPC   C2B43568  35.564  42.563   6.696
 3370POPC   C3B43569  35.780  42.356   7.003
 3370POPC   C4B43570  35.687  42.236   7.431
 3371POPC   NC343571  26.579  42.540   5.575
 3371POPC   PO443572  27.166  42.229   5.271
 3371POPC   GL143573  26.966  42.229   5.698
 3371POPC   GL243574  26.758  41.947   5.728
 3371POPC   C1A43575  26.853  42.357   6.165
 3371POPC   D2A43576  26.993  42.276   6.623
 3371POPC   C3A43577  26.933  42.441   7.068
 3371POPC   C4A43578  27.009  42.118   7.391
 3371POPC   C1B43579  26.527  41.948   6.146
 3371POPC   C2B43580  26.487  42.106   6.556
 3371POPC   C3B43581  26.631  42.041   6.980
 3371POPC   C4B43582  26.390  42.070   7.337
 3372POPC   NC343583  11.018  26.596   5.520
 3372POPC   PO443584  11.424  27.227   5.500
 3372POPC   GL143585  11.255  26.977   5.889
 3372POPC   GL243586  11.298  26.615   5.957
 3372POPC   C1A43587  11.227  26.899   6.372
 3372POPC   D2A43588  11.168  26.716   6.810
 3372POPC   C3A43589  11.257  27.104   7.043
 3372POPC   C4A43590  11.545  27.342   7.342
 3372POPC   C1B43591  11.570  26.449   6.311
 3372POPC   C2B43592  11.543  26.302   6.765
 3372POPC   C3B43593  11.393  26.390   7.205
 3372POPC   C4B43594  11.628  26.509   7.591
 3373POPC   NC343595  35.971  25.503   5.481
 3373POPC   PO443596  36.215  24.943   5.555
 3373POPC   GL143597  35.919  25.138   5.879
 3373POPC   GL243598  35.718  25.457   5.922
 3373POPC   C1A43599  36.041  25.001   6.305
 3373POPC   D2A43600  36.377  24.845   6.594
 3373POPC   C3A43601  36.538  25.161   6.855
 3373POPC   C4A43602  36.309  25.185   7.215
 3373POPC   C1B43603  36.096  25.538   6.176
 3373POPC   C2B43604  36.134  25.391   6.607
 3373POPC   C3B43605  36.108  25.587   6.984
 3373POPC   C4B43606  35.823  25.629   7.293
 3374POPC   NC343607  23.101   5.308   5.459
 3374POPC   PO443608  22.482   5.365   5.383
 3374POPC   GL143609  22.703   5.157   5.768
 3374POPC   GL243610  23.002   5.308   5.949
 3374POPC   C1A43611  22.769   4.832   6.127
 3374POPC   D2A43612  22.699   4.783   6.597
 3374POPC   C3A43613  22.842   4.925   7.023
 3374POPC   C4A43614  22.578   4.833   7.383
 3374POPC   C1B43615  22.990   5.213   6.376
 3374POPC   C2B43616  23.247   5.082   6.714
 3374POPC   C3B43617  23.210   5.313   7.097
 3374POPC   C4B43618  22.890   5.399   7.329
 3375POPC   NC343619   4.271  35.966   5.315
 3375POPC   PO443620   4.662  36.468   5.391
 3375POPC   GL143621   4.507  36.290   5.799
 3375POPC   GL243622   4.132  36.248   5.762
 3375POPC   C1A43623   4.447  36.255   6.267
 3375POPC   D2A43624   4.255  36.378   6.670
 3375POPC   C3A43625   4.314  36.327   7.109
 3375POPC   C4A43626   4.535  36.294   7.488
 3375POPC   C1B43627   4.138  35.913   6.058
 3375POPC   C2B43628   4.129  35.914   6.490
 3375POPC   C3B43629   4.184  35.850   6.934
 3375POPC   C4B43630   4.324  35.852   7.380
 3376POPC   NC343631  44.298  12.441   5.032
 3376POPC   PO443632  44.567  11.950   5.523
 3376POPC   GL143633  44.723  12.172   5.851
 3376POPC   GL243634  44.909  12.452   5.674
 3376POPC   C1A43635  44.560  12.200   6.267
 3376POPC   D2A43636  44.658  11.962   6.637
 3376POPC   C3A43637  44.511  12.048   7.059
 3376POPC   C4A43638  44.570  11.848   7.476
 3376POPC   C1B43639   0.036  12.450   6.129
 3376POPC   C2B43640  44.972  12.341   6.554
 3376POPC   C3B43641   0.025  12.321   6.989
 3376POPC   C4B43642  44.871  12.222   7.362
 3377POPC   NC343643  18.749  34.586   5.520
 3377POPC   PO443644  19.491  34.334   5.453
 3377POPC   GL143645  19.262  34.578   5.818
 3377POPC   GL243646  18.936  34.411   5.953
 3377POPC   C1A43647  19.163  34.667   6.296
 3377POPC   D2A43648  19.031  34.357   6.592
 3377POPC   C3A43649  19.254  34.362   7.003
 3377POPC   C4A43650  19.347  34.384   7.458
 3377POPC   C1B43651  18.655  34.668   6.243
 3377POPC   C2B43652  18.755  34.823   6.626
 3377POPC   C3B43653  18.797  34.621   6.983
 3377POPC   C4B43654  18.885  34.520   7.361
 3378POPC   NC343655  27.398   1.347   5.578
 3378POPC   PO443656  27.976   0.999   5.487
 3378POPC   GL143657  27.790   1.223   5.867
 3378POPC   GL243658  27.597   0.933   5.869
 3378POPC   C1A43659  27.460   1.424   6.205
 3378POPC   D2A43660  27.221   1.314   6.616
 3378POPC   C3A43661  27.325   1.446   7.059
 3378POPC   C4A43662  27.364   1.370   7.554
 3378POPC   C1B43663  27.572   0.955   6.297
 3378POPC   C2B43664  27.736   1.236   6.601
 3378POPC   C3B43665  27.553   0.964   6.874
 3378POPC   C4B43666  27.416   0.981   7.242
 3379POPC   NC343667  21.730   1.531   5.311
 3379POPC   PO443668  21.228   1.027   5.310
 3379POPC   GL143669  21.280   1.192   5.737
 3379POPC   GL243670  21.630   1.138   5.801
 3379POPC   C1A43671  21.351   1.301   6.203
 3379POPC   D2A43672  21.171   1.415   6.637
 3379POPC   C3A43673  21.317   1.228   7.039
 3379POPC   C4A43674  21.162   0.804   7.117
 3379POPC   C1B43675  21.712   0.903   6.211
 3379POPC   C2B43676  21.578   0.859   6.677
 3379POPC   C3B43677  21.686   0.873   7.129
 3379POPC   C4B43678  21.737   1.197   7.421
 3380POPC   NC343679  10.497  39.598   5.567
 3380POPC   PO443680  10.656  38.966   5.345
 3380POPC   GL143681  10.476  39.111   5.737
 3380POPC   GL243682  10.207  38.920   5.711
 3380POPC   C1A43683  10.379  39.322   6.155
 3380POPC   D2A43684  10.623  39.493   6.493
 3380POPC   C3A43685  10.496  39.477   6.882
 3380POPC   C4A43686  10.671  39.277   7.246
 3380POPC   C1B43687  10.203  38.827   6.186
 3380POPC   C2B43688  10.215  39.063   6.577
 3380POPC   C3B43689  10.293  38.996   7.011
 3380POPC   C4B43690  10.055  38.964   7.403
 3381POPC   NC343691  14.013  39.675   5.388
 3381POPC   PO443692  14.494  40.230   5.509
 3381POPC   GL143693  14.285  40.201   5.867
 3381POPC   GL243694  14.039  39.967   5.796
 3381POPC   C1A43695  14.507  40.048   6.216
 3381POPC   D2A43696  14.389  40.054   6.640
 3381POPC   C3A43697  14.517  39.765   6.925
 3381POPC   C4A43698  14.629  39.924   7.291
 3381POPC   C1B43699  14.030  39.880   6.224
 3381POPC   C2B43700  13.940  40.244   6.513
 3381POPC   C3B43701  14.098  40.386   6.906
 3381POPC   C4B43702  14.120  40.061   7.230
 3382POPC   NC343703  11.489  39.722   5.564
 3382POPC   PO443704  11.508  40.296   5.768
 3382POPC   GL143705  11.249  40.001   5.922
 3382POPC   GL243706  11.064  39.658   5.821
 3382POPC   C1A43707  11.430  39.835   6.298
 3382POPC   D2A43708  11.567  39.869   6.742
 3382POPC   C3A43709  11.335  39.996   7.115
 3382POPC   C4A43710  11.535  40.291   7.446
 3382POPC   C1B43711  10.916  39.783   6.206
 3382POPC   C2B43712  11.055  39.754   6.618
 3382POPC   C3B43713  10.987  39.570   6.954
 3382POPC   C4B43714  11.173  39.545   7.310
 3383POPC   NC343715  27.493  38.316   5.234
 3383POPC   PO443716  27.770  38.912   5.495
 3383POPC   GL143717  27.647  38.587   5.733
 3383POPC   GL243718  27.921  38.343   5.700
 3383POPC   C1A43719  27.550  38.508   6.175
 3383POPC   D2A43720  27.593  38.336   6.608
 3383POPC   C3A43721  27.479  38.618   6.938
 3383POPC   C4A43722  27.244  38.701   7.294
 3383POPC   C1B43723  28.056  38.634   6.088
 3383POPC   C2B43724  27.976  38.734   6.545
 3383POPC   C3B43725  27.976  38.514   6.947
 3383POPC   C4B43726  27.780  38.590   7.362
 3384POPC   NC343727  14.226  40.602   5.379
 3384POPC   PO443728  13.625  40.874   5.415
 3384POPC   GL143729  13.919  40.773   5.748
 3384POPC   GL243730  13.820  40.432   5.730
 3384POPC   C1A43731  13.960  40.655   6.192
 3384POPC   D2A43732  13.913  40.893   6.597
 3384POPC   C3A43733  13.700  40.729   6.977
 3384POPC   C4A43734  13.646  40.877   7.381
 3384POPC   C1B43735  13.444  40.584   5.982
 3384POPC   C2B43736  13.340  40.505   6.407
 3384POPC   C3B43737  13.244  40.593   6.811
 3384POPC   C4B43738  13.233  40.608   7.243
 3385POPC   NC343739  27.936  20.001   5.569
 3385POPC   PO443740  28.492  20.158   5.231
 3385POPC   GL143741  28.623  20.069   5.697
 3385POPC   GL243742  28.318  19.937   5.915
 3385POPC   C1A43743  28.769  19.829   6.090
 3385POPC   D2A43744  28.900  19.821   6.510
 3385POPC   C3A43745  28.801  19.936   6.888
 3385POPC   C4A43746  28.733  19.719   7.195
 3385POPC   C1B43747  28.312  19.736   6.304
 3385POPC   C2B43748  28.366  19.664   6.730
 3385POPC   C3B43749  28.283  19.947   7.055
 3385POPC   C4B43750  27.930  20.177   7.260
 3386POPC   NC343751  32.306  23.764   5.147
 3386POPC   PO443752  32.689  23.382   5.519
 3386POPC   GL143753  32.404  23.537   5.867
 3386POPC   GL243754  32.190  23.765   5.688
 3386POPC   C1A43755  32.314  23.594   6.310
 3386POPC   D2A43756  32.511  23.820   6.680
 3386POPC   C3A43757  32.328  23.738   7.062
 3386POPC   C4A43758  32.034  23.494   7.317
 3386POPC   C1B43759  31.954  23.906   6.031
 3386POPC   C2B43760  31.973  23.946   6.487
 3386POPC   C3B43761  31.866  23.713   6.847
 3386POPC   C4B43762  31.691  23.840   7.245
 3387POPC   NC343763  36.387   3.390   5.457
 3387POPC   PO443764  35.816   3.707   5.253
 3387POPC   GL143765  35.927   3.637   5.722
 3387POPC   GL243766  36.269   3.610   5.904
 3387POPC   C1A43767  35.851   3.451   6.115
 3387POPC   D2A43768  36.132   3.545   6.427
 3387POPC   C3A43769  36.027   3.523   6.835
 3387POPC   C4A43770  35.797   3.288   7.134
 3387POPC   C1B43771  36.283   3.169   6.111
 3387POPC   C2B43772  36.384   3.065   6.557
 3387POPC   C3B43773  36.344   3.181   7.031
 3387POPC   C4B43774  36.363   3.629   7.197
 3388POPC   NC343775  12.600  37.345   5.502
 3388POPC   PO443776  12.943  37.974   5.470
 3388POPC   GL143777  13.096  37.704   5.840
 3388POPC   GL243778  12.964  37.398   5.869
 3388POPC   C1A43779  13.073  37.601   6.326
 3388POPC   D2A43780  12.770  37.717   6.619
 3388POPC   C3A43781  12.918  37.828   6.983
 3388POPC   C4A43782  12.720  37.829   7.390
 3388POPC   C1B43783  12.840  37.148   6.194
 3388POPC   C2B43784  12.652  37.201   6.589
 3388POPC   C3B43785  12.768  37.287   7.008
 3388POPC   C4B43786  13.065  37.475   7.297
 3389POPC   NC343787   9.434   2.297   5.397
 3389POPC   PO443788   9.505   2.974   5.349
 3389POPC   GL143789   9.597   2.961   5.784
 3389POPC   GL243790   9.661   2.593   5.802
 3389POPC   C1A43791   9.971   2.919   6.068
 3389POPC   D2A43792  10.108   2.743   6.465
 3389POPC   C3A43793   9.899   2.934   6.811
 3389POPC   C4A43794  10.023   3.048   7.208
 3389POPC   C1B43795   9.704   2.494   6.248
 3389POPC   C2B43796   9.701   2.455   6.701
 3389POPC   C3B43797   9.701   2.538   7.155
 3389POPC   C4B43798   9.603   2.863   7.493
 3390POPC   NC343799   7.008  41.017   5.435
 3390POPC   PO443800   7.567  40.594   5.371
 3390POPC   GL143801   7.473  40.854   5.717
 3390POPC   GL243802   7.142  40.767   5.891
 3390POPC   C1A43803   7.628  40.818   6.127
 3390POPC   D2A43804   7.491  40.592   6.469
 3390POPC   C3A43805   7.414  40.850   6.858
 3390POPC   C4A43806   7.661  41.190   7.054
 3390POPC   C1B43807   7.144  40.354   6.145
 3390POPC   C2B43808   7.099  40.167   6.565
 3390POPC   C3B43809   6.997  40.325   7.011
 3390POPC   C4B43810   7.147  40.691   7.272
 3391POPC   NC343811   5.096  43.427   5.180
 3391POPC   PO443812   5.194  42.828   5.469
 3391POPC   GL143813   5.140  43.063   5.864
 3391POPC   GL243814   5.181  43.434   5.795
 3391POPC   C1A43815   5.241  42.956   6.277
 3391POPC   D2A43816   5.153  43.218   6.612
 3391POPC   C3A43817   5.120  43.021   6.964
 3391POPC   C4A43818   4.836  43.167   7.250
 3391POPC   C1B43819   5.414  43.420   6.197
 3391POPC   C2B43820   5.644  43.165   6.543
 3391POPC   C3B43821   5.546  43.359   6.936
 3391POPC   C4B43822   5.344  43.317   7.319
 3392POPC   NC343823  22.031   3.036   5.528
 3392POPC   PO443824  22.342   2.482   5.471
 3392POPC   GL143825  22.073   2.614   5.817
 3392POPC   GL243826  22.328   2.821   5.941
 3392POPC   C1A43827  22.064   2.464   6.249
 3392POPC   D2A43828  22.233   2.593   6.632
 3392POPC   C3A43829  22.083   2.395   6.960
 3392POPC   C4A43830  21.881   2.691   7.150
 3392POPC   C1B43831  21.960   2.981   6.198
 3392POPC   C2B43832  21.856   2.977   6.646
 3392POPC   C3B43833  22.169   3.099   6.918
 3392POPC   C4B43834  22.493   3.232   7.190
 3393POPC   NC343835   8.703  30.338   5.432
 3393POPC   PO443836   9.246  30.570   5.227
 3393POPC   GL143837   9.123  30.545   5.710
 3393POPC   GL243838   8.796  30.683   5.804
 3393POPC   C1A43839   9.289  30.626   6.144
 3393POPC   D2A43840   9.077  30.691   6.527
 3393POPC   C3A43841   9.262  30.741   6.911
 3393POPC   C4A43842   9.031  30.768   7.306
 3393POPC   C1B43843   8.824  30.414   6.148
 3393POPC   C2B43844   8.896  30.228   6.552
 3393POPC   C3B43845   8.844  30.430   6.949
 3393POPC   C4B43846   8.700  30.387   7.367
 3394POPC   NC343847  18.128  26.920   5.114
 3394POPC   PO443848  18.116  26.656   5.684
 3394POPC   GL143849  18.229  26.744   6.010
 3394POPC   GL243850  18.570  26.820   5.916
 3394POPC   C1A43851  18.155  26.645   6.418
 3394POPC   D2A43852  18.230  26.825   6.804
 3394POPC   C3A43853  17.915  26.684   7.119
 3394POPC   C4A43854  17.991  26.697   7.568
 3394POPC   C1B43855  18.548  26.964   6.337
 3394POPC   C2B43856  18.714  27.012   6.704
 3394POPC   C3B43857  18.578  27.242   7.030
 3394POPC   C4B43858  18.296  27.018   7.278
 3395POPC   NC343859  13.193  35.938   5.472
 3395POPC   PO443860  12.561  36.196   5.369
 3395POPC   GL143861  12.780  36.100   5.726
 3395POPC   GL243862  12.998  36.345   5.789
 3395POPC   C1A43863  12.706  35.916   6.134
 3395POPC   D2A43864  12.636  35.761   6.535
 3395POPC   C3A43865  12.688  35.941   6.901
 3395POPC   C4A43866  12.870  35.829   7.258
 3395POPC   C1B43867  13.134  36.177   6.172
 3395POPC   C2B43868  12.988  36.209   6.577
 3395POPC   C3B43869  13.151  36.185   6.978
 3395POPC   C4B43870  13.144  36.497   7.244
 3396POPC   NC343871  40.908  23.189   5.380
 3396POPC   PO443872  40.308  22.782   5.587
 3396POPC   GL143873  40.606  22.915   5.857
 3396POPC   GL243874  40.888  22.732   5.681
 3396POPC   C1A43875  40.582  22.867   6.340
 3396POPC   D2A43876  40.535  22.642   6.751
 3396POPC   C3A43877  40.636  22.891   7.130
 3396POPC   C4A43878  40.938  23.258   7.242
 3396POPC   C1B43879  41.033  22.741   6.103
 3396POPC   C2B43880  41.049  22.637   6.552
 3396POPC   C3B43881  41.130  22.841   6.961
 3396POPC   C4B43882  41.058  22.761   7.411
 3397POPC   NC343883  28.183   3.797   5.445
 3397POPC   PO443884  28.749   3.461   5.366
 3397POPC   GL143885  28.475   3.510   5.815
 3397POPC   GL243886  28.238   3.775   5.932
 3397POPC   C1A43887  28.439   3.530   6.311
 3397POPC   D2A43888  28.280   3.296   6.664
 3397POPC   C3A43889  28.398   3.367   7.081
 3397POPC   C4A43890  28.106   3.403   7.399
 3397POPC   C1B43891  28.163   3.969   6.302
 3397POPC   C2B43892  28.213   3.820   6.700
 3397POPC   C3B43893  28.344   3.881   7.100
 3397POPC   C4B43894  28.362   3.848   7.542
 3398POPC   NC343895  16.402  32.501   5.117
 3398POPC   PO443896  15.876  32.171   5.287
 3398POPC   GL143897  15.803  32.144   5.715
 3398POPC   GL243898  15.538  31.910   5.754
 3398POPC   C1A43899  15.956  32.019   6.119
 3398POPC   D2A43900  16.107  32.101   6.537
 3398POPC   C3A43901  15.922  32.451   6.775
 3398POPC   C4A43902  15.957  32.391   7.213
 3398POPC   C1B43903  15.444  31.934   6.168
 3398POPC   C2B43904  15.588  32.050   6.558
 3398POPC   C3B43905  15.720  31.991   6.962
 3398POPC   C4B43906  15.494  32.029   7.340
 3399POPC   NC343907   6.122   1.627   5.513
 3399POPC   PO443908   6.667   1.161   5.409
 3399POPC   GL143909   6.540   1.231   5.812
 3399POPC   GL243910   6.229   1.040   5.760
 3399POPC   C1A43911   6.795   1.169   6.190
 3399POPC   D2A43912   6.969   1.109   6.620
 3399POPC   C3A43913   6.857   1.382   6.949
 3399POPC   C4A43914   6.602   1.270   7.270
 3399POPC   C1B43915   6.486   0.769   6.042
 3399POPC   C2B43916   6.565   0.823   6.473
 3399POPC   C3B43917   6.430   1.032   6.849
 3399POPC   C4B43918   6.362   0.823   7.275
 3400POPC   NC343919   5.743   8.738   5.298
 3400POPC   PO443920   6.112   9.286   5.380
 3400POPC   GL143921   5.947   9.050   5.713
 3400POPC   GL243922   6.181   8.768   5.636
 3400POPC   C1A43923   5.798   9.073   6.171
 3400POPC   D2A43924   5.859   9.261   6.573
 3400POPC   C3A43925   5.736   8.986   6.911
 3400POPC   C4A43926   5.691   8.922   7.332
 3400POPC   C1B43927   6.236   8.826   6.098
 3400POPC   C2B43928   6.106   8.807   6.523
 3400POPC   C3B43929   6.273   8.985   6.886
 3400POPC   C4B43930   6.238   8.937   7.334
 3401POPC   NC343931  32.863  41.256   5.293
 3401POPC   PO443932  33.312  41.728   5.353
 3401POPC   GL143933  33.167  41.442   5.679
 3401POPC   GL243934  32.800  41.511   5.745
 3401POPC   C1A43935  33.072  41.271   6.111
 3401POPC   D2A43936  33.085  41.519   6.502
 3401POPC   C3A43937  33.283  41.429   6.905
 3401POPC   C4A43938  33.381  41.702   7.227
 3401POPC   C1B43939  32.648  41.590   6.178
 3401POPC   C2B43940  32.589  41.387   6.572
 3401POPC   C3B43941  32.784  41.376   6.957
 3401POPC   C4B43942  32.665  41.364   7.401
 3402POPC   NC343943  42.122  30.901   5.275
 3402POPC   PO443944  41.412  30.754   5.399
 3402POPC   GL143945  41.540  30.666   5.824
 3402POPC   GL243946  41.886  30.708   5.694
 3402POPC   C1A43947  41.504  30.575   6.314
 3402POPC   D2A43948  41.409  30.763   6.745
 3402POPC   C3A43949  41.499  30.529   7.128
 3402POPC   C4A43950  41.788  30.459   7.476
 3402POPC   C1B43951  41.947  30.809   6.140
 3402POPC   C2B43952  41.980  30.696   6.600
 3402POPC   C3B43953  41.881  30.861   7.039
 3402POPC   C4B43954  41.811  30.981   7.504
 3403POPC   NC343955  14.814  30.180   5.451
 3403POPC   PO443956  15.100  30.846   5.381
 3403POPC   GL143957  15.295  30.800   5.760
 3403POPC   GL243958  15.115  30.484   5.782
 3403POPC   C1A43959  15.419  30.963   6.166
 3403POPC   D2A43960  15.208  31.059   6.563
 3403POPC   C3A43961  15.241  30.942   6.970
 3403POPC   C4A43962  15.550  30.790   7.210
 3403POPC   C1B43963  15.331  30.438   6.162
 3403POPC   C2B43964  15.387  30.588   6.581
 3403POPC   C3B43965  15.317  30.412   6.944
 3403POPC   C4B43966  15.117  30.486   7.258
 3404POPC   NC343967  34.075   7.412   5.425
 3404POPC   PO443968  33.461   7.647   5.314
 3404POPC   GL143969  33.643   7.584   5.777
 3404POPC   GL243970  33.838   7.282   5.852
 3404POPC   C1A43971  33.759   7.622   6.273
 3404POPC   D2A43972  33.601   7.728   6.722
 3404POPC   C3A43973  33.791   7.552   7.123
 3404POPC   C4A43974  33.789   7.688   7.579
 3404POPC   C1B43975  33.632   7.126   6.199
 3404POPC   C2B43976  33.455   7.233   6.602
 3404POPC   C3B43977  33.581   7.080   7.026
 3404POPC   C4B43978  33.718   7.125   7.486
 3405POPC   NC343979  27.986  39.744   5.688
 3405POPC   PO443980  28.484  40.118   5.347
 3405POPC   GL143981  28.385  40.071   5.785
 3405POPC   GL243982  28.444  39.714   5.903
 3405POPC   C1A43983  28.497  40.125   6.227
 3405POPC   D2A43984  28.811  40.001   6.523
 3405POPC   C3A43985  28.647  40.184   6.868
 3405POPC   C4A43986  28.681  40.164   7.298
 3405POPC   C1B43987  28.183  39.692   6.296
 3405POPC   C2B43988  28.361  39.770   6.680
 3405POPC   C3B43989  28.293  39.865   7.075
 3405POPC   C4B43990  28.007  39.635   7.319
 3406POPC   NC343991  17.605  27.734   5.369
 3406POPC   PO443992  17.276  27.178   5.662
 3406POPC   GL143993  17.607  27.510   5.864
 3406POPC   GL243994  17.778  27.865   5.843
 3406POPC   C1A43995  17.633  27.546   6.314
 3406POPC   D2A43996  17.416  27.297   6.660
 3406POPC   C3A43997  17.470  27.426   7.088
 3406POPC   C4A43998  17.358  27.691   7.423
 3406POPC   C1B43999  17.439  27.981   6.153
 3406POPC   C2B44000  17.234  27.907   6.573
 3406POPC   C3B44001  17.444  27.928   6.972
 3406POPC   C4B44002  17.812  27.803   7.192
 3407POPC   NC344003  41.119  26.220   5.270
 3407POPC   PO444004  40.556  25.787   5.312
 3407POPC   GL144005  40.715  26.073   5.617
 3407POPC   GL244006  41.022  25.943   5.706
 3407POPC   C1A44007  40.655  26.245   6.050
 3407POPC   D2A44008  40.559  26.046   6.447
 3407POPC   C3A44009  40.672  26.205   6.844
 3407POPC   C4A44010  40.631  26.016   7.271
 3407POPC   C1B44011  40.897  25.793   6.132
 3407POPC   C2B44012  41.031  25.838   6.566
 3407POPC   C3B44013  41.040  25.857   6.989
 3407POPC   C4B44014  41.137  25.890   7.422
 3408POPC   NC344015  36.963  20.139   5.378
 3408POPC   PO444016  36.856  20.800   5.416
 3408POPC   GL144017  36.911  20.701   5.834
 3408POPC   GL244018  36.808  20.344   5.825
 3408POPC   C1A44019  37.179  20.775   6.226
 3408POPC   D2A44020  37.244  20.534   6.645
 3408POPC   C3A44021  37.174  20.739   7.083
 3408POPC   C4A44022  37.323  20.769   7.562
 3408POPC   C1B44023  36.907  20.329   6.243
 3408POPC   C2B44024  36.759  20.383   6.646
 3408POPC   C3B44025  36.874  20.310   7.052
 3408POPC   C4B44026  36.623  20.186   7.430
 3409POPC   NC344027   6.088  38.470   5.565
 3409POPC   PO444028   5.373  38.572   5.525
 3409POPC   GL144029   5.673  38.647   5.803
 3409POPC   GL244030   5.752  38.293   5.913
 3409POPC   C1A44031   5.706  38.681   6.217
 3409POPC   D2A44032   5.663  38.390   6.546
 3409POPC   C3A44033   5.842  38.538   6.904
 3409POPC   C4A44034   5.773  38.641   7.307
 3409POPC   C1B44035   6.079  38.356   6.250
 3409POPC   C2B44036   6.121  38.143   6.658
 3409POPC   C3B44037   6.001  38.077   7.086
 3409POPC   C4B44038   6.223  38.387   7.354
 3410POPC   NC344039  24.522  14.473   5.072
 3410POPC   PO444040  24.134  14.122   5.614
 3410POPC   GL144041  24.316  14.312   5.918
 3410POPC   GL244042  24.593  14.452   5.766
 3410POPC   C1A44043  24.398  14.326   6.332
 3410POPC   D2A44044  24.575  14.588   6.587
 3410POPC   C3A44045  24.502  14.409   6.938
 3410POPC   C4A44046  24.524  14.217   7.294
 3410POPC   C1B44047  24.866  14.501   6.159
 3410POPC   C2B44048  25.076  14.607   6.596
 3410POPC   C3B44049  24.918  14.689   7.051
 3410POPC   C4B44050  24.969  14.427   7.458
 3411POPC   NC344051   2.306   2.393   5.431
 3411POPC   PO444052   1.907   1.819   5.385
 3411POPC   GL144053   1.852   2.138   5.727
 3411POPC   GL244054   2.166   2.089   5.818
 3411POPC   C1A44055   1.779   2.060   6.187
 3411POPC   D2A44056   1.920   1.704   6.471
 3411POPC   C3A44057   1.957   1.758   6.911
 3411POPC   C4A44058   1.747   2.030   7.181
 3411POPC   C1B44059   2.311   1.950   6.220
 3411POPC   C2B44060   2.421   1.813   6.636
 3411POPC   C3B44061   2.437   1.705   7.082
 3411POPC   C4B44062   2.396   1.871   7.492
 3412POPC   NC344063  35.819   4.150   5.090
 3412POPC   PO444064  35.385   4.414   5.503
 3412POPC   GL144065  35.394   4.533   5.916
 3412POPC   GL244066  35.084   4.440   6.045
 3412POPC   C1A44067  35.562   4.350   6.287
 3412POPC   D2A44068  35.347   4.228   6.652
 3412POPC   C3A44069  35.615   4.259   6.969
 3412POPC   C4A44070  35.591   4.072   7.338
 3412POPC   C1B44071  35.173   4.688   6.431
 3412POPC   C2B44072  35.125   4.724   6.879
 3412POPC   C3B44073  35.148   4.359   7.134
 3412POPC   C4B44074  35.114   4.206   7.549
 3413POPC   NC344075  18.542  20.161   5.463
 3413POPC   PO444076  18.046  19.642   5.480
 3413POPC   GL144077  18.167  19.961   5.745
 3413POPC   GL244078  18.485  19.777   5.783
 3413POPC   C1A44079  18.310  20.118   6.144
 3413POPC   D2A44080  18.144  19.967   6.511
 3413POPC   C3A44081  18.352  20.082   6.860
 3413POPC   C4A44082  18.277  20.190   7.255
 3413POPC   C1B44083  18.584  19.569   6.157
 3413POPC   C2B44084  18.448  19.567   6.576
 3413POPC   C3B44085  18.188  19.575   6.907
 3413POPC   C4B44086  18.373  19.691   7.249
 3414POPC   NC344087  29.421   6.893   5.382
 3414POPC   PO444088  29.021   6.338   5.398
 3414POPC   GL144089  29.083   6.583   5.748
 3414POPC   GL244090  29.420   6.642   5.840
 3414POPC   C1A44091  28.960   6.614   6.175
 3414POPC   D2A44092  28.928   6.951   6.490
 3414POPC   C3A44093  29.178   6.932   6.885
 3414POPC   C4A44094  29.161   6.642   7.236
 3414POPC   C1B44095  29.415   6.785   6.280
 3414POPC   C2B44096  29.501   6.557   6.684
 3414POPC   C3B44097  29.518   6.245   7.032
 3414POPC   C4B44098  29.517   6.360   7.462
 3415POPC   NC344099  34.337  31.531   5.476
 3415POPC   PO444100  34.645  30.878   5.475
 3415POPC   GL144101  34.641  31.190   5.832
 3415POPC   GL244102  34.681  31.578   5.868
 3415POPC   C1A44103  34.880  31.280   6.230
 3415POPC   D2A44104  34.908  31.539   6.619
 3415POPC   C3A44105  34.644  31.492   7.017
 3415POPC   C4A44106  34.670  31.430   7.477
 3415POPC   C1B44107  34.408  31.806   6.167
 3415POPC   C2B44108  34.415  31.719   6.607
 3415POPC   C3B44109  34.334  31.932   6.996
 3415POPC   C4B44110  34.300  31.760   7.368
 3416POPC   NC344111  31.030  17.143   5.414
 3416POPC   PO444112  30.699  17.760   5.231
 3416POPC   GL144113  30.770  17.534   5.665
 3416POPC   GL244114  31.114  17.537   5.841
 3416POPC   C1A44115  30.732  17.233   6.039
 3416POPC   D2A44116  30.872  17.181   6.491
 3416POPC   C3A44117  30.677  17.198   6.914
 3416POPC   C4A44118  30.813  17.197   7.369
 3416POPC   C1B44119  30.830  17.695   6.217
 3416POPC   C2B44120  30.578  17.643   6.636
 3416POPC   C3B44121  30.714  17.678   7.099
 3416POPC   C4B44122  31.026  17.723   7.474
 3417POPC   NC344123   2.789  18.574   5.119
 3417POPC   PO444124   2.379  18.102   5.437
 3417POPC   GL144125   2.674  18.334   5.716
 3417POPC   GL244126   3.021  18.143   5.762
 3417POPC   C1A44127   2.768  18.343   6.166
 3417POPC   D2A44128   2.555  18.173   6.505
 3417POPC   C3A44129   2.667  18.306   6.910
 3417POPC   C4A44130   2.623  18.062   7.240
 3417POPC   C1B44131   3.136  18.010   6.205
 3417POPC   C2B44132   3.067  18.180   6.627
 3417POPC   C3B44133   3.103  18.030   7.059
 3417POPC   C4B44134   3.049  17.871   7.484
 3418POPC   NC344135  33.663  14.143   5.690
 3418POPC   PO444136  33.620  13.506   5.507
 3418POPC   GL144137  33.723  13.646   5.882
 3418POPC   GL244138  33.378  13.627   5.941
 3418POPC   C1A44139  33.743  13.479   6.297
 3418POPC   D2A44140  33.948  13.668   6.600
 3418POPC   C3A44141  33.857  13.522   6.943
 3418POPC   C4A44142  33.774  13.669   7.317
 3418POPC   C1B44143  33.477  13.903   6.258
 3418POPC   C2B44144  33.432  13.747   6.642
 3418POPC   C3B44145  33.490  13.944   6.985
 3418POPC   C4B44146  33.310  13.891   7.371
 3419POPC   NC344147  22.474  37.714   5.414
 3419POPC   PO444148  23.165  37.533   5.341
 3419POPC   GL144149  22.975  37.782   5.715
 3419POPC   GL244150  22.726  37.579   5.828
 3419POPC   C1A44151  22.859  37.897   6.186
 3419POPC   D2A44152  23.034  37.698   6.575
 3419POPC   C3A44153  23.005  37.895   6.982
 3419POPC   C4A44154  22.700  37.996   7.296
 3419POPC   C1B44155  22.759  37.388   6.226
 3419POPC   C2B44156  22.652  37.346   6.648
 3419POPC   C3B44157  22.642  37.516   7.090
 3419POPC   C4B44158  22.767  37.583   7.588
 3420POPC   NC344159  22.764  27.986   5.415
 3420POPC   PO444160  23.123  27.411   5.321
 3420POPC   GL144161  22.744  27.448   5.650
 3420POPC   GL244162  22.671  27.780   5.862
 3420POPC   C1A44163  22.697  27.335   6.122
 3420POPC   D2A44164  23.003  27.410   6.484
 3420POPC   C3A44165  22.899  27.406   6.924
 3420POPC   C4A44166  22.709  27.559   7.284
 3420POPC   C1B44167  22.994  27.839   6.181
 3420POPC   C2B44168  23.073  27.972   6.619
 3420POPC   C3B44169  22.884  27.960   7.039
 3420POPC   C4B44170  22.626  28.028   7.423
 3421POPC   NC344171   6.330  41.770   5.383
 3421POPC   PO444172   6.899  41.456   5.593
 3421POPC   GL144173   6.806  41.632   5.920
 3421POPC   GL244174   6.457  41.603   5.858
 3421POPC   C1A44175   6.888  41.602   6.349
 3421POPC   D2A44176   6.629  41.707   6.673
 3421POPC   C3A44177   6.842  41.635   7.011
 3421POPC   C4A44178   6.789  41.760   7.395
 3421POPC   C1B44179   6.358  41.528   6.272
 3421POPC   C2B44180   6.298  41.313   6.690
 3421POPC   C3B44181   6.378  41.458   7.114
 3421POPC   C4B44182   6.304  41.510   7.566
 3422POPC   NC344183  18.571  40.265   5.510
 3422POPC   PO444184  18.103  39.759   5.452
 3422POPC   GL144185  18.415  39.805   5.762
 3422POPC   GL244186  18.250  40.104   5.884
 3422POPC   C1A44187  18.591  39.858   6.191
 3422POPC   D2A44188  18.400  39.678   6.575
 3422POPC   C3A44189  18.465  39.905   6.972
 3422POPC   C4A44190  18.531  40.238   7.292
 3422POPC   C1B44191  18.065  39.759   6.144
 3422POPC   C2B44192  17.873  39.811   6.543
 3422POPC   C3B44193  17.997  39.691   6.974
 3422POPC   C4B44194  17.970  39.471   7.374
 3423POPC   NC344195  12.928  15.497   5.577
 3423POPC   PO444196  12.567  15.971   5.335
 3423POPC   GL144197  12.595  15.913   5.776
 3423POPC   GL244198  12.464  15.589   5.783
 3423POPC   C1A44199  12.643  16.156   6.190
 3423POPC   D2A44200  12.492  16.174   6.628
 3423POPC   C3A44201  12.805  16.096   6.959
 3423POPC   C4A44202  12.874  15.927   7.381
 3423POPC   C1B44203  12.485  15.651   6.205
 3423POPC   C2B44204  12.730  15.711   6.566
 3423POPC   C3B44205  12.596  15.642   6.959
 3423POPC   C4B44206  12.311  15.424   7.124
 3424POPC   NC344207   5.640   9.378   5.406
 3424POPC   PO444208   4.970   9.493   5.411
 3424POPC   GL144209   5.073   9.543   5.818
 3424POPC   GL244210   5.417   9.669   5.809
 3424POPC   C1A44211   4.880   9.542   6.219
 3424POPC   D2A44212   4.932   9.297   6.580
 3424POPC   C3A44213   4.906   9.497   6.963
 3424POPC   C4A44214   4.788   9.400   7.355
 3424POPC   C1B44215   5.294   9.894   6.171
 3424POPC   C2B44216   5.148   9.817   6.593
 3424POPC   C3B44217   5.286   9.819   7.005
 3424POPC   C4B44218   5.231   9.658   7.396
 3425POPC   NC344219  40.559  44.185   5.229
 3425POPC   PO444220  40.764  44.815   5.376
 3425POPC   GL144221  40.923  44.748   5.815
 3425POPC   GL244222  41.067  44.436   5.747
 3425POPC   C1A44223  40.754  44.817   6.267
 3425POPC   D2A44224  40.561  44.936   6.688
 3425POPC   C3A44225  40.684  44.702   7.060
 3425POPC   C4A44226  40.576  44.688   7.499
 3425POPC   C1B44227  40.789  44.336   6.122
 3425POPC   C2B44228  40.851  44.338   6.553
 3425POPC   C3B44229  40.644  44.208   6.905
 3425POPC   C4B44230  40.444  44.221   7.325
 3426POPC   NC344231  16.401  12.384   5.290
 3426POPC   PO444232  15.776  12.011   5.372
 3426POPC   GL144233  15.937  12.046   5.738
 3426POPC   GL244234  16.247  12.007   5.628
 3426POPC   C1A44235  15.900  11.972   6.151
 3426POPC   D2A44236  15.912  12.168   6.519
 3426POPC   C3A44237  15.924  11.932   6.889
 3426POPC   C4A44238  15.873  12.018   7.303
 3426POPC   C1B44239  16.328  11.746   5.996
 3426POPC   C2B44240  16.268  11.700   6.433
 3426POPC   C3B44241  16.278  11.568   6.867
 3426POPC   C4B44242  16.333  11.785   7.257
 3427POPC   NC344243  10.511  33.320   5.237
 3427POPC   PO444244  10.424  32.698   5.388
 3427POPC   GL144245  10.347  33.048   5.690
 3427POPC   GL244246  10.668  33.201   5.730
 3427POPC   C1A44247  10.407  33.063   6.148
 3427POPC   D2A44248  10.622  32.753   6.430
 3427POPC   C3A44249  10.491  32.792   6.875
 3427POPC   C4A44250  10.341  33.016   7.210
 3427POPC   C1B44251  10.885  33.239   6.189
 3427POPC   C2B44252  10.750  33.205   6.632
 3427POPC   C3B44253  10.885  33.080   7.042
 3427POPC   C4B44254  10.895  33.306   7.418
 3428POPC   NC344255   8.577   5.404   5.375
 3428POPC   PO444256   8.170   4.834   5.343
 3428POPC   GL144257   8.273   5.124   5.705
 3428POPC   GL244258   8.577   4.987   5.775
 3428POPC   C1A44259   8.275   5.176   6.156
 3428POPC   D2A44260   8.170   4.997   6.557
 3428POPC   C3A44261   8.287   5.293   6.892
 3428POPC   C4A44262   8.381   5.240   7.324
 3428POPC   C1B44263   8.539   4.741   6.197
 3428POPC   C2B44264   8.499   4.572   6.610
 3428POPC   C3B44265   8.408   4.812   6.977
 3428POPC   C4B44266   8.244   4.720   7.372
 3429POPC   NC344267   2.748  32.589   5.423
 3429POPC   PO444268   2.943  33.142   5.194
 3429POPC   GL144269   2.949  33.027   5.646
 3429POPC   GL244270   2.926  32.709   5.875
 3429POPC   C1A44271   2.925  33.164   6.080
 3429POPC   D2A44272   2.962  32.895   6.433
 3429POPC   C3A44273   2.883  33.106   6.812
 3429POPC   C4A44274   2.907  33.078   7.240
 3429POPC   C1B44275   2.554  32.787   6.132
 3429POPC   C2B44276   2.453  32.893   6.578
 3429POPC   C3B44277   2.542  32.775   7.024
 3429POPC   C4B44278   2.515  32.802   7.492
 3430POPC   NC344279  15.383  34.083   5.352
 3430POPC   PO444280  15.065  33.491   5.550
 3430POPC   GL144281  15.340  33.733   5.833
 3430POPC   GL244282  15.408  34.087   5.850
 3430POPC   C1A44283  15.421  33.804   6.274
 3430POPC   D2A44284  15.462  33.554   6.614
 3430POPC   C3A44285  15.274  33.787   6.938
 3430POPC   C4A44286  14.862  33.727   7.156
 3430POPC   C1B44287  15.118  34.206   6.172
 3430POPC   C2B44288  15.198  34.206   6.605
 3430POPC   C3B44289  14.990  34.195   7.006
 3430POPC   C4B44290  15.350  34.152   7.304
 3431POPC   NC344291  32.933  14.686   5.591
 3431POPC   PO444292  33.335  14.123   5.356
 3431POPC   GL144293  33.094  14.039   5.838
 3431POPC   GL244294  32.811  14.276   5.896
 3431POPC   C1A44295  33.069  14.190   6.345
 3431POPC   D2A44296  33.348  14.390   6.694
 3431POPC   C3A44297  33.287  14.395   7.169
 3431POPC   C4A44298  32.976  14.467   7.536
 3431POPC   C1B44299  32.866  14.649   6.215
 3431POPC   C2B44300  32.893  14.670   6.602
 3431POPC   C3B44301  32.836  14.443   6.920
 3431POPC   C4B44302  32.583  14.562   7.231
 3432POPC   NC344303  20.282  33.345   5.539
 3432POPC   PO444304  20.605  32.738   5.405
 3432POPC   GL144305  20.636  33.023   5.748
 3432POPC   GL244306  20.318  32.934   5.861
 3432POPC   C1A44307  20.803  33.094   6.171
 3432POPC   D2A44308  20.801  32.872   6.597
 3432POPC   C3A44309  20.650  33.077   6.961
 3432POPC   C4A44310  20.571  33.206   7.362
 3432POPC   C1B44311  20.325  33.237   6.218
 3432POPC   C2B44312  20.229  33.189   6.661
 3432POPC   C3B44313  20.116  33.100   7.085
 3432POPC   C4B44314  20.124  33.363   7.496
 3433POPC   NC344315   5.364  38.105   5.507
 3433POPC   PO444316   4.982  37.567   5.475
 3433POPC   GL144317   5.119  37.526   5.870
 3433POPC   GL244318   5.076  37.873   5.939
 3433POPC   C1A44319   4.919  37.463   6.271
 3433POPC   D2A44320   4.765  37.818   6.529
 3433POPC   C3A44321   4.574  37.711   6.925
 3433POPC   C4A44322   4.651  37.905   7.336
 3433POPC   C1B44323   5.356  37.716   6.275
 3433POPC   C2B44324   5.229  37.590   6.688
 3433POPC   C3B44325   5.083  37.822   7.037
 3433POPC   C4B44326   5.217  37.626   7.395
 3434POPC   NC344327   2.613  10.433   5.559
 3434POPC   PO444328   3.196  10.739   5.443
 3434POPC   GL144329   2.981  10.790   5.856
 3434POPC   GL244330   2.628  10.909   5.815
 3434POPC   C1A44331   2.978  10.488   6.239
 3434POPC   D2A44332   3.110  10.253   6.647
 3434POPC   C3A44333   2.981  10.202   7.099
 3434POPC   C4A44334   2.995  10.482   7.478
 3434POPC   C1B44335   2.509  10.755   6.223
 3434POPC   C2B44336   2.659  10.624   6.625
 3434POPC   C3B44337   2.774  10.659   7.033
 3434POPC   C4B44338   2.510  10.624   7.374
 3435POPC   NC344339   5.410  26.424   5.240
 3435POPC   PO444340   4.913  25.985   5.447
 3435POPC   GL144341   5.063  25.836   5.807
 3435POPC   GL244342   4.821  25.598   5.839
 3435POPC   C1A44343   5.212  25.958   6.195
 3435POPC   D2A44344   5.259  26.384   6.368
 3435POPC   C3A44345   5.022  26.416   6.749
 3435POPC   C4A44346   5.139  26.140   7.125
 3435POPC   C1B44347   4.890  25.572   6.272
 3435POPC   C2B44348   5.205  25.543   6.584
 3435POPC   C3B44349   5.183  25.612   7.036
 3435POPC   C4B44350   5.180  25.531   7.493
 3436POPC   NC344351  23.986  30.192   5.554
 3436POPC   PO444352  23.746  29.599   5.224
 3436POPC   GL144353  23.711  29.640   5.691
 3436POPC   GL244354  24.042  29.692   5.807
 3436POPC   C1A44355  23.687  29.889   6.103
 3436POPC   D2A44356  23.461  29.954   6.488
 3436POPC   C3A44357  23.537  29.806   6.907
 3436POPC   C4A44358  23.576  30.001   7.292
 3436POPC   C1B44359  24.119  29.658   6.252
 3436POPC   C2B44360  23.960  29.852   6.644
 3436POPC   C3B44361  24.063  30.025   7.062
 3436POPC   C4B44362  24.077  29.939   7.519
 3437POPC   NC344363  13.193  20.352   5.626
 3437POPC   PO444364  13.603  20.870   5.342
 3437POPC   GL144365  13.799  20.864   5.797
 3437POPC   GL244366  13.918  20.515   5.766
 3437POPC   C1A44367  13.768  20.887   6.298
 3437POPC   D2A44368  13.801  20.929   6.786
 3437POPC   C3A44369  13.471  20.718   7.023
 3437POPC   C4A44370  13.304  20.837   7.430
 3437POPC   C1B44371  13.874  20.391   6.182
 3437POPC   C2B44372  13.672  20.434   6.615
 3437POPC   C3B44373  13.929  20.425   7.006
 3437POPC   C4B44374  13.863  20.191   7.387
 3438POPC   NC344375  39.496   3.334   5.266
 3438POPC   PO444376  39.049   3.859   5.514
 3438POPC   GL144377  38.962   3.778   5.891
 3438POPC   GL244378  38.832   3.453   5.817
 3438POPC   C1A44379  39.092   3.887   6.305
 3438POPC   D2A44380  39.444   3.798   6.573
 3438POPC   C3A44381  39.332   3.548   6.922
 3438POPC   C4A44382  39.247   3.574   7.330
 3438POPC   C1B44383  38.917   3.392   6.266
 3438POPC   C2B44384  38.889   3.367   6.717
 3438POPC   C3B44385  38.955   3.185   7.148
 3438POPC   C4B44386  38.846   3.387   7.557
 3439POPC   NC344387  21.099  35.665   5.547
 3439POPC   PO444388  21.801  35.648   5.348
 3439POPC   GL144389  21.671  35.406   5.713
 3439POPC   GL244390  21.328  35.241   5.749
 3439POPC   C1A44391  21.639  35.328   6.135
 3439POPC   D2A44392  21.392  35.404   6.463
 3439POPC   C3A44393  21.538  35.226   6.835
 3439POPC   C4A44394  21.623  35.285   7.235
 3439POPC   C1B44395  21.232  35.010   6.151
 3439POPC   C2B44396  21.104  35.016   6.614
 3439POPC   C3B44397  21.070  35.440   6.862
 3439POPC   C4B44398  21.176  35.513   7.333
 3440POPC   NC344399  41.408   7.209   5.106
 3440POPC   PO444400  41.861   7.683   5.393
 3440POPC   GL144401  41.666   7.546   5.797
 3440POPC   GL244402  41.440   7.342   5.616
 3440POPC   C1A44403  41.610   7.560   6.263
 3440POPC   D2A44404  41.747   7.404   6.660
 3440POPC   C3A44405  41.633   7.638   7.032
 3440POPC   C4A44406  41.553   7.777   7.463
 3440POPC   C1B44407  41.272   7.266   6.027
 3440POPC   C2B44408  41.248   7.193   6.505
 3440POPC   C3B44409  41.177   7.348   6.942
 3440POPC   C4B44410  41.392   7.307   7.351
 3441POPC   NC344411   1.532  15.513   5.078
 3441POPC   PO444412   1.599  14.921   5.420
 3441POPC   GL144413   1.325  14.977   5.796
 3441POPC   GL244414   0.999  14.864   5.876
 3441POPC   C1A44415   1.155  15.322   6.091
 3441POPC   D2A44416   1.179  15.563   6.503
 3441POPC   C3A44417   1.041  15.441   6.943
 3441POPC   C4A44418   1.213  15.222   7.289
 3441POPC   C1B44419   0.977  14.940   6.363
 3441POPC   C2B44420   1.269  15.043   6.699
 3441POPC   C3B44421   1.503  14.866   7.069
 3441POPC   C4B44422   1.242  14.753   7.453
 3442POPC   NC344423  30.600  20.602   5.383
 3442POPC   PO444424  31.202  20.368   5.499
 3442POPC   GL144425  30.859  20.473   5.805
 3442POPC   GL244426  30.550  20.243   5.759
 3442POPC   C1A44427  30.916  20.614   6.244
 3442POPC   D2A44428  31.008  20.319   6.571
 3442POPC   C3A44429  31.062  20.460   6.991
 3442POPC   C4A44430  30.743  20.745   7.127
 3442POPC   C1B44431  30.450  20.405   6.158
 3442POPC   C2B44432  30.378  20.269   6.585
 3442POPC   C3B44433  30.558  20.314   6.961
 3442POPC   C4B44434  30.401  20.444   7.366
 3443POPC   NC344435  12.070  38.719   5.182
 3443POPC   PO444436  11.956  38.212   5.487
 3443POPC   GL144437  11.946  38.457   5.797
 3443POPC   GL244438  12.265  38.439   5.922
 3443POPC   C1A44439  11.761  38.532   6.175
 3443POPC   D2A44440  12.027  38.496   6.485
 3443POPC   C3A44441  11.950  38.640   6.864
 3443POPC   C4A44442  12.192  38.544   7.210
 3443POPC   C1B44443  12.410  38.206   6.273
 3443POPC   C2B44444  12.306  38.043   6.680
 3443POPC   C3B44445  12.355  38.047   7.122
 3443POPC   C4B44446  12.446  38.249   7.537
 3444POPC   NC344447   7.155  20.801   5.526
 3444POPC   PO444448   6.534  20.577   5.260
 3444POPC   GL144449   6.756  20.520   5.643
 3444POPC   GL244450   6.585  20.301   5.759
 3444POPC   C1A44451   6.857  20.595   6.087
 3444POPC   D2A44452   6.738  20.845   6.413
 3444POPC   C3A44453   6.917  20.696   6.777
 3444POPC   C4A44454   6.809  20.919   7.155
 3444POPC   C1B44455   6.437  20.275   6.172
 3444POPC   C2B44456   6.403  20.478   6.568
 3444POPC   C3B44457   6.498  20.496   6.998
 3444POPC   C4B44458   6.541  20.565   7.443
 3445POPC   NC344459  42.870  43.156   5.288
 3445POPC   PO444460  43.495  42.877   5.506
 3445POPC   GL144461  43.177  43.096   5.705
 3445POPC   GL244462  42.889  42.908   5.791
 3445POPC   C1A44463  43.214  43.328   6.077
 3445POPC   D2A44464  43.319  43.204   6.480
 3445POPC   C3A44465  43.064  43.276   6.815
 3445POPC   C4A44466  43.124  43.370   7.230
 3445POPC   C1B44467  43.126  42.822   6.174
 3445POPC   C2B44468  43.204  42.657   6.595
 3445POPC   C3B44469  43.132  42.788   7.016
 3445POPC   C4B44470  43.471  42.716   7.291
 3446POPC   NC344471  36.290   6.490   5.575
 3446POPC   PO444472  36.153   5.933   5.502
 3446POPC   GL144473  36.188   5.772   5.903
 3446POPC   GL244474  36.459   5.563   5.840
 3446POPC   C1A44475  36.101   5.838   6.345
 3446POPC   D2A44476  35.896   5.739   6.733
 3446POPC   C3A44477  36.133   5.825   7.111
 3446POPC   C4A44478  36.040   6.205   7.301
 3446POPC   C1B44479  36.398   5.386   6.285
 3446POPC   C2B44480  36.274   5.402   6.748
 3446POPC   C3B44481  36.406   5.392   7.190
 3446POPC   C4B44482  36.439   5.662   7.567
 3447POPC   NC344483  31.002   6.316   5.482
 3447POPC   PO444484  30.492   6.674   5.275
 3447POPC   GL144485  30.615   6.665   5.689
 3447POPC   GL244486  30.925   6.861   5.708
 3447POPC   C1A44487  30.688   6.523   6.110
 3447POPC   D2A44488  30.724   6.744   6.489
 3447POPC   C3A44489  30.493   6.718   6.869
 3447POPC   C4A44490  30.524   6.503   7.239
 3447POPC   C1B44491  31.120   6.825   6.119
 3447POPC   C2B44492  31.234   6.757   6.543
 3447POPC   C3B44493  30.993   6.807   6.929
 3447POPC   C4B44494  30.970   6.723   7.370
 3448POPC   NC344495  37.387   1.851   5.556
 3448POPC   PO444496  38.011   1.659   5.496
 3448POPC   GL144497  37.829   1.851   5.837
 3448POPC   GL244498  38.037   2.136   5.921
 3448POPC   C1A44499  37.591   1.838   6.226
 3448POPC   D2A44500  37.796   1.647   6.592
 3448POPC   C3A44501  38.052   1.943   6.833
 3448POPC   C4A44502  37.789   2.018   7.174
 3448POPC   C1B44503  38.021   2.092   6.347
 3448POPC   C2B44504  37.657   2.231   6.586
 3448POPC   C3B44505  37.386   2.260   6.927
 3448POPC   C4B44506  37.533   2.445   7.278
 3449POPC   NC344507  41.712  43.582   5.595
 3449POPC   PO444508  41.458  44.103   5.269
 3449POPC   GL144509  41.521  44.064   5.711
 3449POPC   GL244510  41.292  43.759   5.757
 3449POPC   C1A44511  41.688  43.949   6.153
 3449POPC   D2A44512  41.837  43.728   6.538
 3449POPC   C3A44513  41.697  43.912   6.944
 3449POPC   C4A44514  41.466  44.092   7.290
 3449POPC   C1B44515  41.362  43.530   6.149
 3449POPC   C2B44516  41.324  43.642   6.559
 3449POPC   C3B44517  41.465  43.465   6.903
 3449POPC   C4B44518  41.345  43.599   7.286
 3450POPC   NC344519  35.797  14.183   5.361
 3450POPC   PO444520  36.268  14.578   4.987
 3450POPC   GL144521  36.193  14.548   5.478
 3450POPC   GL244522  36.194  14.251   5.652
 3450POPC   C1A44523  36.327  14.669   5.920
 3450POPC   D2A44524  36.240  14.697   6.385
 3450POPC   C3A44525  36.367  14.565   6.800
 3450POPC   C4A44526  36.184  14.544   7.213
 3450POPC   C1B44527  36.099  14.222   6.086
 3450POPC   C2B44528  36.099  14.207   6.522
 3450POPC   C3B44529  35.846  14.422   6.826
 3450POPC   C4B44530  35.754  14.259   7.236
 3451POPC   NC344531   5.515   3.134   5.118
 3451POPC   PO444532   5.878   2.583   5.217
 3451POPC   GL144533   5.860   2.905   5.592
 3451POPC   GL244534   6.015   2.721   5.859
 3451POPC   C1A44535   5.846   3.140   6.051
 3451POPC   D2A44536   5.880   2.834   6.431
 3451POPC   C3A44537   5.877   2.911   6.896
 3451POPC   C4A44538   5.800   2.754   7.316
 3451POPC   C1B44539   6.249   2.472   6.142
 3451POPC   C2B44540   6.135   2.364   6.539
 3451POPC   C3B44541   6.062   2.433   6.945
 3451POPC   C4B44542   6.378   2.168   7.052
 3452POPC   NC344543   6.536   0.726   5.386
 3452POPC   PO444544   6.277   0.123   5.419
 3452POPC   GL144545   6.544   0.283   5.798
 3452POPC   GL244546   6.835   0.484   5.739
 3452POPC   C1A44547   6.712   0.350   6.235
 3452POPC   D2A44548   6.570   0.381   6.685
 3452POPC   C3A44549   6.717   0.189   7.040
 3452POPC   C4A44550   6.601   0.373   7.454
 3452POPC   C1B44551   7.024   0.719   6.109
 3452POPC   C2B44552   7.031   0.604   6.582
 3452POPC   C3B44553   6.804   0.724   7.003
 3452POPC   C4B44554   6.813   0.850   7.484
 3453POPC   NC344555  20.060  41.376   5.428
 3453POPC   PO444556  19.414  41.451   5.367
 3453POPC   GL144557  19.666  41.363   5.787
 3453POPC   GL244558  20.037  41.460   5.931
 3453POPC   C1A44559  19.623  41.372   6.247
 3453POPC   D2A44560  19.775  41.156   6.600
 3453POPC   C3A44561  20.043  41.312   6.855
 3453POPC   C4A44562  19.810  41.493   7.202
 3453POPC   C1B44563  20.062  41.575   6.405
 3453POPC   C2B44564  19.917  41.807   6.796
 3453POPC   C3B44565  20.034  41.987   7.217
 3453POPC   C4B44566  19.897  42.202   7.615
 3454POPC   NC344567  44.672  20.721   5.469
 3454POPC   PO444568  44.455  20.101   5.297
 3454POPC   GL144569  44.640  20.306   5.750
 3454POPC   GL244570  44.922  20.162   5.835
 3454POPC   C1A44571  44.524  20.542   6.158
 3454POPC   D2A44572  44.364  20.433   6.599
 3454POPC   C3A44573  44.529  20.707   6.966
 3454POPC   C4A44574  44.462  20.695   7.432
 3454POPC   C1B44575   0.007  20.412   6.190
 3454POPC   C2B44576  44.887  20.558   6.579
 3454POPC   C3B44577   0.031  20.560   6.998
 3454POPC   C4B44578  44.937  20.762   7.329
 3455POPC   NC344579  24.250  37.131   5.490
 3455POPC   PO444580  24.576  36.567   5.403
 3455POPC   GL144581  24.536  36.678   5.838
 3455POPC   GL244582  24.164  36.679   5.802
 3455POPC   C1A44583  24.527  36.938   6.271
 3455POPC   D2A44584  24.127  37.084   6.431
 3455POPC   C3A44585  24.089  37.038   6.884
 3455POPC   C4A44586  24.448  36.911   7.123
 3455POPC   C1B44587  24.243  36.531   6.236
 3455POPC   C2B44588  24.323  36.644   6.655
 3455POPC   C3B44589  24.156  36.428   6.978
 3455POPC   C4B44590  24.132  36.568   7.367
 3456POPC   NC344591   9.162  34.084   5.418
 3456POPC   PO444592   8.635  34.112   5.814
 3456POPC   GL144593   8.817  33.760   5.948
 3456POPC   GL244594   9.103  33.746   5.826
 3456POPC   C1A44595   8.967  33.746   6.347
 3456POPC   D2A44596   8.921  33.980   6.677
 3456POPC   C3A44597   9.073  33.696   6.960
 3456POPC   C4A44598   8.960  33.567   7.347
 3456POPC   C1B44599   9.264  34.076   6.124
 3456POPC   C2B44600   9.419  33.963   6.559
 3456POPC   C3B44601   9.335  34.148   6.966
 3456POPC   C4B44602   9.126  34.040   7.345
 3457POPC   NC344603   6.296   7.917   5.431
 3457POPC   PO444604   5.697   8.293   5.356
 3457POPC   GL144605   5.687   8.193   5.791
 3457POPC   GL244606   5.838   7.878   5.757
 3457POPC   C1A44607   5.623   7.962   6.208
 3457POPC   D2A44608   5.749   7.799   6.628
 3457POPC   C3A44609   5.723   8.175   6.863
 3457POPC   C4A44610   5.777   8.478   7.160
 3457POPC   C1B44611   6.124   8.041   6.071
 3457POPC   C2B44612   6.137   8.112   6.520
 3457POPC   C3B44613   6.169   7.953   6.974
 3457POPC   C4B44614   5.940   8.034   7.351
 3458POPC   NC344615   2.164  20.797   5.263
 3458POPC   PO444616   1.742  20.343   5.433
 3458POPC   GL144617   1.947  20.308   5.852
 3458POPC   GL244618   2.136  20.595   5.815
 3458POPC   C1A44619   2.156  20.269   6.271
 3458POPC   D2A44620   2.220  20.479   6.659
 3458POPC   C3A44621   1.839  20.624   6.865
 3458POPC   C4A44622   2.023  20.436   7.159
 3458POPC   C1B44623   2.287  20.772   6.237
 3458POPC   C2B44624   2.135  20.984   6.643
 3458POPC   C3B44625   2.217  20.931   7.090
 3458POPC   C4B44626   2.134  21.163   7.500
 3459POPC   NC344627  34.176   3.427   5.295
 3459POPC   PO444628  33.613   3.840   5.229
 3459POPC   GL144629  33.726   3.657   5.607
 3459POPC   GL244630  33.496   3.430   5.742
 3459POPC   C1A44631  33.700   3.786   6.057
 3459POPC   D2A44632  33.880   3.672   6.472
 3459POPC   C3A44633  33.651   3.761   6.874
 3459POPC   C4A44634  33.799   3.673   7.275
 3459POPC   C1B44635  33.750   3.301   6.111
 3459POPC   C2B44636  33.883   3.161   6.523
 3459POPC   C3B44637  33.714   3.261   6.936
 3459POPC   C4B44638  33.504   3.239   7.374
 3460POPC   NC344639  10.025  22.739   5.216
 3460POPC   PO444640   9.496  23.033   5.217
 3460POPC   GL144641   9.667  22.926   5.686
 3460POPC   GL244642  10.028  22.894   5.730
 3460POPC   C1A44643   9.579  23.084   6.163
 3460POPC   D2A44644   9.439  23.029   6.612
 3460POPC   C3A44645   9.503  23.265   7.019
 3460POPC   C4A44646   9.646  23.245   7.473
 3460POPC   C1B44647   9.905  22.679   6.129
 3460POPC   C2B44648   9.869  22.746   6.581
 3460POPC   C3B44649   9.806  22.844   7.019
 3460POPC   C4B44650  10.092  23.080   7.244
 3461POPC   NC344651  32.263   4.191   4.867
 3461POPC   PO444652  31.981   4.050   5.488
 3461POPC   GL144653  32.260   4.216   5.835
 3461POPC   GL244654  32.593   4.098   5.842
 3461POPC   C1A44655  32.483   4.438   6.209
 3461POPC   D2A44656  32.467   4.612   6.643
 3461POPC   C3A44657  32.390   4.452   7.101
 3461POPC   C4A44658  32.361   4.654   7.551
 3461POPC   C1B44659  32.423   3.920   6.231
 3461POPC   C2B44660  32.441   3.787   6.637
 3461POPC   C3B44661  32.384   3.684   7.039
 3461POPC   C4B44662  32.370   3.904   7.436
 3462POPC   NC344663  35.752  17.381   5.469
 3462POPC   PO444664  36.428  17.592   5.571
 3462POPC   GL144665  36.177  17.362   5.826
 3462POPC   GL244666  35.948  17.610   5.894
 3462POPC   C1A44667  36.144  17.325   6.268
 3462POPC   D2A44668  36.100  17.512   6.680
 3462POPC   C3A44669  36.455  17.401   6.908
 3462POPC   C4A44670  36.484  17.376   7.339
 3462POPC   C1B44671  35.754  17.676   6.311
 3462POPC   C2B44672  35.683  17.988   6.640
 3462POPC   C3B44673  35.768  17.858   7.047
 3462POPC   C4B44674  35.983  17.500   7.219
 3463POPC   NC344675  13.794  43.468   5.597
 3463POPC   PO444676  13.744  42.850   5.509
 3463POPC   GL144677  13.761  42.965   5.931
 3463POPC   GL244678  13.759  43.312   6.066
 3463POPC   C1A44679  13.937  42.931   6.337
 3463POPC   D2A44680  13.706  43.171   6.640
 3463POPC   C3A44681  13.546  42.881   6.894
 3463POPC   C4A44682  13.922  42.824   7.170
 3463POPC   C1B44683  13.430  43.519   6.255
 3463POPC   C2B44684  13.303  43.690   6.647
 3463POPC   C3B44685  13.338  43.410   6.983
 3463POPC   C4B44686  13.657  43.261   7.185
 3464POPC   NC344687   3.339  41.423   5.018
 3464POPC   PO444688   3.641  41.673   5.552
 3464POPC   GL144689   3.703  41.353   5.821
 3464POPC   GL244690   3.412  41.468   5.976
 3464POPC   C1A44691   3.730  41.249   6.269
 3464POPC   D2A44692   3.471  41.276   6.611
 3464POPC   C3A44693   3.638  41.488   6.939
 3464POPC   C4A44694   3.665  41.242   7.241
 3464POPC   C1B44695   3.599  41.761   6.196
 3464POPC   C2B44696   3.427  41.773   6.572
 3464POPC   C3B44697   3.166  41.679   6.914
 3464POPC   C4B44698   3.316  41.826   7.323
 3465POPC   NC344699   1.183  26.687   5.199
 3465POPC   PO444700   1.341  27.344   5.410
 3465POPC   GL144701   1.310  27.021   5.757
 3465POPC   GL244702   1.018  26.779   5.741
 3465POPC   C1A44703   1.267  26.823   6.187
 3465POPC   D2A44704   1.395  26.635   6.578
 3465POPC   C3A44705   1.269  26.844   6.961
 3465POPC   C4A44706   1.382  26.700   7.370
 3465POPC   C1B44707   0.768  26.687   6.149
 3465POPC   C2B44708   0.885  26.738   6.601
 3465POPC   C3B44709   0.855  26.553   7.022
 3465POPC   C4B44710   0.910  26.642   7.491
 3466POPC   NC344711  10.891  22.658   5.453
 3466POPC   PO444712  10.688  23.368   5.527
 3466POPC   GL144713  10.532  23.026   5.787
 3466POPC   GL244714  10.671  22.735   5.917
 3466POPC   C1A44715  10.316  22.994   6.173
 3466POPC   D2A44716  10.498  22.815   6.513
 3466POPC   C3A44717  10.546  23.016   6.868
 3466POPC   C4A44718  10.686  22.837   7.238
 3466POPC   C1B44719  10.401  22.463   6.154
 3466POPC   C2B44720  10.237  22.378   6.571
 3466POPC   C3B44721  10.264  22.613   6.967
 3466POPC   C4B44722  10.276  22.633   7.434
 3467POPC   NC344723  18.978   3.792   5.455
 3467POPC   PO444724  18.917   4.415   5.138
 3467POPC   GL144725  19.033   4.358   5.652
 3467POPC   GL244726  18.860   4.106   5.843
 3467POPC   C1A44727  19.238   4.303   6.151
 3467POPC   D2A44728  19.237   4.201   6.636
 3467POPC   C3A44729  19.399   4.259   7.053
 3467POPC   C4A44730  19.165   4.435   7.417
 3467POPC   C1B44731  18.756   4.486   6.106
 3467POPC   C2B44732  18.761   4.396   6.559
 3467POPC   C3B44733  18.828   4.352   7.008
 3467POPC   C4B44734  18.518   4.251   7.337
 3468POPC   NC344735  19.536  30.523   5.076
 3468POPC   PO444736  19.156  31.047   5.261
 3468POPC   GL144737  19.071  30.767   5.678
 3468POPC   GL244738  19.283  30.439   5.577
 3468POPC   C1A44739  18.975  30.800   6.161
 3468POPC   D2A44740  18.926  30.987   6.608
 3468POPC   C3A44741  19.134  30.812   6.990
 3468POPC   C4A44742  19.278  30.691   7.407
 3468POPC   C1B44743  19.218  30.330   6.006
 3468POPC   C2B44744  19.234  30.440   6.440
 3468POPC   C3B44745  18.957  30.381   6.761
 3468POPC   C4B44746  18.935  30.343   7.186
 3469POPC   NC344747  43.525   4.653   5.487
 3469POPC   PO444748  43.147   4.054   5.434
 3469POPC   GL144749  43.023   4.338   5.774
 3469POPC   GL244750  43.328   4.326   5.902
 3469POPC   C1A44751  42.914   4.246   6.224
 3469POPC   D2A44752  42.778   4.399   6.634
 3469POPC   C3A44753  42.932   4.249   7.016
 3469POPC   C4A44754  43.118   4.155   7.387
 3469POPC   C1B44755  43.248   4.640   6.245
 3469POPC   C2B44756  43.202   4.671   6.716
 3469POPC   C3B44757  43.237   4.627   7.201
 3469POPC   C4B44758  43.189   4.718   7.673
 3470POPC   NC344759  38.611   3.787   5.374
 3470POPC   PO444760  38.200   3.345   5.393
 3470POPC   GL144761  38.304   3.536   5.753
 3470POPC   GL244762  37.976   3.426   5.849
 3470POPC   C1A44763  38.518   3.712   6.124
 3470POPC   D2A44764  38.614   3.928   6.508
 3470POPC   C3A44765  38.926   3.868   6.803
 3470POPC   C4A44766  38.756   3.670   7.159
 3470POPC   C1B44767  38.017   3.636   6.190
 3470POPC   C2B44768  38.256   3.545   6.537
 3470POPC   C3B44769  38.313   3.711   6.913
 3470POPC   C4B44770  38.254   3.524   7.346
 3471POPC   NC344771  39.441  37.975   5.424
 3471POPC   PO444772  39.260  37.335   5.252
 3471POPC   GL144773  39.339  37.550   5.704
 3471POPC   GL244774  39.123  37.850   5.827
 3471POPC   C1A44775  39.428  37.593   6.203
 3471POPC   D2A44776  39.281  37.740   6.657
 3471POPC   C3A44777  39.210  37.501   7.085
 3471POPC   C4A44778  39.207  37.242   7.490
 3471POPC   C1B44779  39.221  38.079   6.220
 3471POPC   C2B44780  39.159  38.254   6.643
 3471POPC   C3B44781  39.274  38.078   7.077
 3471POPC   C4B44782  39.033  37.902   7.453
 3472POPC   NC344783  14.877  38.174   5.471
 3472POPC   PO444784  15.145  38.798   5.326
 3472POPC   GL144785  15.036  38.576   5.750
 3472POPC   GL244786  15.347  38.528   5.945
 3472POPC   C1A44787  14.956  38.438   6.239
 3472POPC   D2A44788  15.248  38.368   6.610
 3472POPC   C3A44789  15.109  38.237   7.026
 3472POPC   C4A44790  15.002  38.346   7.472
 3472POPC   C1B44791  15.516  38.725   6.341
 3472POPC   C2B44792  15.610  38.764   6.791
 3472POPC   C3B44793  15.415  38.596   7.165
 3472POPC   C4B44794  15.353  38.724   7.593
 3473POPC   NC344795   1.616   2.895   5.442
 3473POPC   PO444796   0.974   2.607   5.450
 3473POPC   GL144797   1.281   2.605   5.721
 3473POPC   GL244798   1.207   2.976   5.753
 3473POPC   C1A44799   1.371   2.418   6.109
 3473POPC   D2A44800   1.256   2.641   6.470
 3473POPC   C3A44801   1.015   2.550   6.831
 3473POPC   C4A44802   0.961   2.832   7.173
 3473POPC   C1B44803   1.443   2.993   6.119
 3473POPC   C2B44804   1.445   3.130   6.534
 3473POPC   C3B44805   1.461   2.894   6.899
 3473POPC   C4B44806   1.423   3.022   7.292
 3474POPC   NC344807  23.032   7.415   4.666
 3474POPC   PO444808  22.933   7.424   5.345
 3474POPC   GL144809  23.067   7.501   5.775
 3474POPC   GL244810  22.722   7.595   5.874
 3474POPC   C1A44811  23.257   7.275   6.157
 3474POPC   D2A44812  23.401   7.247   6.603
 3474POPC   C3A44813  23.029   7.329   6.870
 3474POPC   C4A44814  22.753   7.278   7.215
 3474POPC   C1B44815  22.796   7.747   6.323
 3474POPC   C2B44816  22.774   7.790   6.813
 3474POPC   C3B44817  22.923   7.752   7.261
 3474POPC   C4B44818  23.096   7.694   7.732
 3475POPC   NC344819   9.366  21.001   5.549
 3475POPC   PO444820   9.873  21.642   5.606
 3475POPC   GL144821   9.908  21.427   5.966
 3475POPC   GL244822   9.605  21.266   5.903
 3475POPC   C1A44823   9.886  21.197   6.333
 3475POPC   D2A44824   9.761  21.293   6.741
 3475POPC   C3A44825   9.977  21.353   7.119
 3475POPC   C4A44826   9.743  21.443   7.476
 3475POPC   C1B44827   9.389  21.357   6.268
 3475POPC   C2B44828   9.271  21.559   6.653
 3475POPC   C3B44829   9.416  21.465   7.077
 3475POPC   C4B44830   9.234  21.106   7.258
 3476POPC   NC344831   4.034  39.090   5.453
 3476POPC   PO444832   4.694  39.306   5.557
 3476POPC   GL144833   4.366  39.163   5.857
 3476POPC   GL244834   3.976  39.205   5.936
 3476POPC   C1A44835   4.406  39.263   6.266
 3476POPC   D2A44836   4.331  39.080   6.618
 3476POPC   C3A44837   4.570  39.112   6.942
 3476POPC   C4A44838   4.443  39.128   7.309
 3476POPC   C1B44839   4.069  38.852   6.219
 3476POPC   C2B44840   3.932  38.761   6.660
 3476POPC   C3B44841   4.202  38.721   7.059
 3476POPC   C4B44842   4.297  38.711   7.541
 3477POPC   NC344843  32.062   5.114   5.193
 3477POPC   PO444844  32.699   5.078   5.365
 3477POPC   GL144845  32.370   5.064   5.727
 3477POPC   GL244846  32.083   5.255   5.734
 3477POPC   C1A44847  32.203   4.978   6.169
 3477POPC   D2A44848  32.358   5.116   6.605
 3477POPC   C3A44849  32.151   4.898   6.946
 3477POPC   C4A44850  32.037   4.999   7.372
 3477POPC   C1B44851  31.916   5.411   6.116
 3477POPC   C2B44852  31.856   5.182   6.500
 3477POPC   C3B44853  31.770   5.223   6.897
 3477POPC   C4B44854  31.762   5.447   7.261
 3478POPC   NC344855   5.480   0.862   5.463
 3478POPC   PO444856   5.727   1.423   5.628
 3478POPC   GL144857   5.901   1.396   5.976
 3478POPC   GL244858   6.205   1.571   6.027
 3478POPC   C1A44859   5.790   1.451   6.386
 3478POPC   D2A44860   5.669   1.235   6.740
 3478POPC   C3A44861   5.626   1.502   7.078
 3478POPC   C4A44862   5.653   1.311   7.476
 3478POPC   C1B44863   6.242   1.166   6.263
 3478POPC   C2B44864   6.041   0.861   6.534
 3478POPC   C3B44865   5.949   0.882   6.989
 3478POPC   C4B44866   6.084   1.273   7.191
 3479POPC   NC344867  13.396  37.616   5.422
 3479POPC   PO444868  14.058  37.620   5.734
 3479POPC   GL144869  13.671  37.678   5.835
 3479POPC   GL244870  13.533  38.004   5.735
 3479POPC   C1A44871  13.453  37.390   6.061
 3479POPC   D2A44872  13.493  37.265   6.488
 3479POPC   C3A44873  13.244  37.415   6.812
 3479POPC   C4A44874  13.433  37.730   7.062
 3479POPC   C1B44875  13.386  37.955   6.151
 3479POPC   C2B44876  13.462  37.887   6.570
 3479POPC   C3B44877  13.823  37.976   6.845
 3479POPC   C4B44878  13.859  37.900   7.293
 3480POPC   NC344879  41.976  32.686   5.629
 3480POPC   PO444880  42.571  33.080   5.475
 3480POPC   GL144881  42.493  32.910   5.873
 3480POPC   GL244882  42.807  32.737   5.896
 3480POPC   C1A44883  42.295  33.046   6.285
 3480POPC   D2A44884  42.283  33.382   6.632
 3480POPC   C3A44885  42.316  33.129   7.008
 3480POPC   C4A44886  42.037  32.804   7.100
 3480POPC   C1B44887  42.628  32.633   6.304
 3480POPC   C2B44888  42.344  32.679   6.662
 3480POPC   C3B44889  42.511  32.626   7.049
 3480POPC   C4B44890  42.823  32.632   7.358
 3481POPC   NC344891  17.621  38.385   5.502
 3481POPC   PO444892  17.019  38.481   5.461
 3481POPC   GL144893  17.308  38.495   5.864
 3481POPC   GL244894  17.287  38.142   5.859
 3481POPC   C1A44895  17.577  38.696   6.210
 3481POPC   D2A44896  17.373  38.595   6.579
 3481POPC   C3A44897  17.368  38.690   6.965
 3481POPC   C4A44898  17.662  38.751   7.201
 3481POPC   C1B44899  17.450  38.195   6.276
 3481POPC   C2B44900  17.612  38.179   6.730
 3481POPC   C3B44901  17.587  38.241   7.184
 3481POPC   C4B44902  17.547  38.089   7.633
 3482POPC   NC344903  20.464  12.582   5.349
 3482POPC   PO444904  20.947  13.131   5.427
 3482POPC   GL144905  20.814  12.870   5.763
 3482POPC   GL244906  20.470  12.842   5.824
 3482POPC   C1A44907  20.783  13.073   6.186
 3482POPC   D2A44908  20.726  13.187   6.613
 3482POPC   C3A44909  21.004  13.073   6.908
 3482POPC   C4A44910  20.963  13.183   7.294
 3482POPC   C1B44911  20.492  12.654   6.239
 3482POPC   C2B44912  20.536  12.530   6.680
 3482POPC   C3B44913  20.571  12.837   7.059
 3482POPC   C4B44914  20.443  12.730   7.520
 3483POPC   NC344915  23.484   3.866   5.118
 3483POPC   PO444916  23.719   3.262   5.383
 3483POPC   GL144917  23.845   3.364   5.802
 3483POPC   GL244918  23.723   3.690   5.776
 3483POPC   C1A44919  23.984   3.331   6.252
 3483POPC   D2A44920  23.852   3.097   6.625
 3483POPC   C3A44921  23.753   3.284   7.034
 3483POPC   C4A44922  23.349   3.248   7.268
 3483POPC   C1B44923  23.523   3.574   6.182
 3483POPC   C2B44924  23.553   3.581   6.632
 3483POPC   C3B44925  23.428   3.698   7.043
 3483POPC   C4B44926  23.269   3.715   7.463
 3484POPC   NC344927  21.218  13.570   5.346
 3484POPC   PO444928  21.771  13.822   5.654
 3484POPC   GL144929  21.509  13.545   5.786
 3484POPC   GL244930  21.228  13.768   5.893
 3484POPC   C1A44931  21.388  13.305   6.123
 3484POPC   D2A44932  21.246  13.157   6.475
 3484POPC   C3A44933  21.361  13.441   6.790
 3484POPC   C4A44934  21.474  13.357   7.189
 3484POPC   C1B44935  21.537  13.789   6.256
 3484POPC   C2B44936  21.632  13.974   6.637
 3484POPC   C3B44937  21.269  13.984   6.863
 3484POPC   C4B44938  21.201  13.815   7.251
 3485POPC   NC344939   5.354  31.659   5.550
 3485POPC   PO444940   5.313  32.330   5.486
 3485POPC   GL144941   5.156  32.250   5.894
 3485POPC   GL244942   4.998  31.933   5.851
 3485POPC   C1A44943   5.236  32.364   6.370
 3485POPC   D2A44944   5.017  32.508   6.767
 3485POPC   C3A44945   5.028  32.413   7.230
 3485POPC   C4A44946   4.758  32.192   7.585
 3485POPC   C1B44947   4.998  31.926   6.289
 3485POPC   C2B44948   4.777  31.909   6.684
 3485POPC   C3B44949   4.816  31.973   7.106
 3485POPC   C4B44950   5.225  31.909   7.271
 3486POPC   NC344951  14.776  12.609   5.338
 3486POPC   PO444952  14.234  12.966   5.359
 3486POPC   GL144953  14.426  12.835   5.786
 3486POPC   GL244954  14.657  12.530   5.828
 3486POPC   C1A44955  14.296  12.952   6.233
 3486POPC   D2A44956  14.571  12.968   6.621
 3486POPC   C3A44957  14.573  12.998   7.094
 3486POPC   C4A44958  14.173  12.877   7.303
 3486POPC   C1B44959  14.437  12.450   6.212
 3486POPC   C2B44960  14.142  12.580   6.548
 3486POPC   C3B44961  14.326  12.586   6.925
 3486POPC   C4B44962  14.672  12.400   7.116
 3487POPC   NC344963   6.177  20.594   5.562
 3487POPC   PO444964   5.535  20.554   5.307
 3487POPC   GL144965   5.673  20.747   5.694
 3487POPC   GL244966   5.742  20.437   5.790
 3487POPC   C1A44967   5.703  20.833   6.165
 3487POPC   D2A44968   6.032  20.831   6.520
 3487POPC   C3A44969   5.886  20.782   6.965
 3487POPC   C4A44970   5.529  20.526   7.088
 3487POPC   C1B44971   5.922  20.353   6.168
 3487POPC   C2B44972   5.959  20.142   6.532
 3487POPC   C3B44973   6.019  20.287   6.913
 3487POPC   C4B44974   6.120  20.313   7.315
 3488POPC   NC344975  13.908  33.761   5.351
 3488POPC   PO444976  13.389  33.487   5.424
 3488POPC   GL144977  13.634  33.716   5.804
 3488POPC   GL244978  13.999  33.658   5.847
 3488POPC   C1A44979  13.788  33.941   6.196
 3488POPC   D2A44980  13.789  34.159   6.579
 3488POPC   C3A44981  13.664  34.005   7.026
 3488POPC   C4A44982  13.948  34.013   7.398
 3488POPC   C1B44983  13.869  33.432   6.265
 3488POPC   C2B44984  13.955  33.337   6.731
 3488POPC   C3B44985  13.900  33.552   7.144
 3488POPC   C4B44986  13.611  33.484   7.508
 3489POPC   NC344987  36.384  12.126   5.260
 3489POPC   PO444988  35.785  12.057   5.333
 3489POPC   GL144989  35.927  11.902   5.786
 3489POPC   GL244990  36.281  11.729   5.830
 3489POPC   C1A44991  36.064  11.962   6.266
 3489POPC   D2A44992  36.346  12.022   6.662
 3489POPC   C3A44993  36.152  12.299   6.969
 3489POPC   C4A44994  36.041  12.509   7.344
 3489POPC   C1B44995  36.364  11.560   6.294
 3489POPC   C2B44996  36.089  11.589   6.687
 3489POPC   C3B44997  36.125  11.798   7.110
 3489POPC   C4B44998  36.257  11.590   7.554
 3490POPC   NC344999  25.712   2.464   5.506
 3490POPC   PO445000  26.424   2.631   5.428
 3490POPC   GL145001  26.217   2.890   5.765
 3490POPC   GL245002  25.848   2.838   5.851
 3490POPC   C1A45003  26.231   2.756   6.207
 3490POPC   D2A45004  26.242   2.529   6.610
 3490POPC   C3A45005  26.316   2.758   6.998
 3490POPC   C4A45006  26.357   3.206   6.995
 3490POPC   C1B45007  25.737   2.852   6.289
 3490POPC   C2B45008  25.959   3.008   6.632
 3490POPC   C3B45009  25.845   3.082   7.026
 3490POPC   C4B45010  25.760   2.693   7.142
 3491POPC   NC345011  35.676  44.023   5.717
 3491POPC   PO445012  35.007  44.259   5.485
 3491POPC   GL145013  35.181  44.071   5.882
 3491POPC   GL245014  35.237  43.702   5.870
 3491POPC   C1A45015  35.402  44.111   6.312
 3491POPC   D2A45016  35.571  44.017   6.741
 3491POPC   C3A45017  35.478  44.299   7.092
 3491POPC   C4A45018  35.411  44.136   7.541
 3491POPC   C1B45019  35.023  43.757   6.268
 3491POPC   C2B45020  35.143  43.726   6.670
 3491POPC   C3B45021  35.116  43.930   7.052
 3491POPC   C4B45022  35.037  43.794   7.460
 3492POPC   NC345023   9.115  13.788   5.432
 3492POPC   PO445024   8.566  13.526   5.690
 3492POPC   GL145025   8.955  13.617   5.924
 3492POPC   GL245026   9.293  13.785   5.905
 3492POPC   C1A45027   8.967  13.582   6.349
 3492POPC   D2A45028   8.758  13.368   6.663
 3492POPC   C3A45029   8.810  13.542   7.068
 3492POPC   C4A45030   9.026  13.590   7.458
 3492POPC   C1B45031   9.396  13.838   6.354
 3492POPC   C2B45032   9.242  13.719   6.781
 3492POPC   C3B45033   9.438  13.752   7.187
 3492POPC   C4B45034   9.374  13.979   7.569
 3493POPC   NC345035   5.255  20.899   5.419
 3493POPC   PO445036   5.187  21.500   5.370
 3493POPC   GL145037   5.046  21.316   5.752
 3493POPC   GL245038   5.367  21.166   5.848
 3493POPC   C1A45039   5.013  21.355   6.224
 3493POPC   D2A45040   5.181  21.309   6.652
 3493POPC   C3A45041   5.011  21.398   7.088
 3493POPC   C4A45042   4.864  21.360   7.553
 3493POPC   C1B45043   5.524  21.323   6.244
 3493POPC   C2B45044   5.676  21.168   6.641
 3493POPC   C3B45045   5.461  21.062   7.046
 3493POPC   C4B45046   5.304  21.167   7.439
 3494POPC   NC345047  37.072   3.172   5.427
 3494POPC   PO445048  36.782   3.765   5.504
 3494POPC   GL145049  36.741   3.437   5.827
 3494POPC   GL245050  37.004   3.298   5.923
 3494POPC   C1A45051  36.659   3.452   6.289
 3494POPC   D2A45052  36.543   3.533   6.712
 3494POPC   C3A45053  36.819   3.403   6.983
 3494POPC   C4A45054  36.984   3.786   7.028
 3494POPC   C1B45055  37.127   3.645   6.189
 3494POPC   C2B45056  37.211   3.539   6.630
 3494POPC   C3B45057  37.345   3.389   7.031
 3494POPC   C4B45058  37.118   3.175   7.335
 3495POPC   NC345059   8.871  43.760   5.499
 3495POPC   PO445060   8.438  44.279   5.539
 3495POPC   GL145061   8.809  44.167   5.824
 3495POPC   GL245062   9.181  44.053   5.801
 3495POPC   C1A45063   8.870  43.863   6.190
 3495POPC   D2A45064   8.733  43.596   6.557
 3495POPC   C3A45065   8.862  43.661   6.960
 3495POPC   C4A45066   8.802  43.863   7.346
 3495POPC   C1B45067   9.379  43.937   6.206
 3495POPC   C2B45068   9.179  43.906   6.610
 3495POPC   C3B45069   8.955  44.173   6.888
 3495POPC   C4B45070   8.934  44.367   7.289
 3496POPC   NC345071  42.296  16.048   5.447
 3496POPC   PO445072  42.441  15.452   5.229
 3496POPC   GL145073  42.228  15.555   5.694
 3496POPC   GL245074  41.983  15.787   5.743
 3496POPC   C1A45075  42.320  15.824   6.142
 3496POPC   D2A45076  42.273  16.181   6.445
 3496POPC   C3A45077  42.431  16.250   6.859
 3496POPC   C4A45078  42.514  15.967   7.187
 3496POPC   C1B45079  41.923  15.547   6.114
 3496POPC   C2B45080  41.943  15.691   6.511
 3496POPC   C3B45081  42.199  15.752   6.842
 3496POPC   C4B45082  42.051  15.773   7.228
 3497POPC   NC345083  28.231  38.934   5.505
 3497POPC   PO445084  28.577  38.365   5.272
 3497POPC   GL145085  28.700  38.464   5.672
 3497POPC   GL245086  28.448  38.250   5.814
 3497POPC   C1A45087  28.770  38.514   6.131
 3497POPC   D2A45088  28.561  38.415   6.512
 3497POPC   C3A45089  28.707  38.498   6.939
 3497POPC   C4A45090  28.723  38.177   7.266
 3497POPC   C1B45091  28.119  38.126   6.111
 3497POPC   C2B45092  28.090  38.224   6.516
 3497POPC   C3B45093  28.339  38.157   6.894
 3497POPC   C4B45094  28.190  38.207   7.298
 3498POPC   NC345095  19.302  26.196   5.368
 3498POPC   PO445096  18.756  25.896   5.572
 3498POPC   GL145097  19.111  26.099   5.820
 3498POPC   GL245098  19.465  25.925   5.782
 3498POPC   C1A45099  19.071  26.311   6.208
 3498POPC   D2A45100  18.934  26.056   6.559
 3498POPC   C3A45101  19.104  26.161   6.947
 3498POPC   C4A45102  18.861  26.333   7.265
 3498POPC   C1B45103  19.318  25.852   6.222
 3498POPC   C2B45104  19.380  25.795   6.652
 3498POPC   C3B45105  19.020  25.661   6.891
 3498POPC   C4B45106  19.077  25.674   7.279
 3499POPC   NC345107  36.345  37.979   5.483
 3499POPC   PO445108  36.244  37.267   5.388
 3499POPC   GL145109  36.019  37.388   5.783
 3499POPC   GL245110  36.024  37.770   5.835
 3499POPC   C1A45111  36.093  37.422   6.246
 3499POPC   D2A45112  36.059  37.461   6.694
 3499POPC   C3A45113  35.996  37.848   6.954
 3499POPC   C4A45114  36.031  37.894   7.411
 3499POPC   C1B45115  36.332  37.873   6.196
 3499POPC   C2B45116  36.426  37.858   6.660
 3499POPC   C3B45117  36.428  37.576   7.028
 3499POPC   C4B45118  36.438  37.578   7.466
 3500POPC   NC345119  40.674  43.230   5.336
 3500POPC   PO445120  41.327  43.355   5.433
 3500POPC   GL145121  40.991  43.165   5.774
 3500POPC   GL245122  40.613  43.029   5.792
 3500POPC   C1A45123  40.824  43.116   6.243
 3500POPC   D2A45124  40.715  43.161   6.697
 3500POPC   C3A45125  40.988  43.365   7.015
 3500POPC   C4A45126  40.903  43.421   7.504
 3500POPC   C1B45127  40.444  42.749   6.108
 3500POPC   C2B45128  40.537  42.553   6.502
 3500POPC   C3B45129  40.537  42.717   6.930
 3500POPC   C4B45130  40.784  42.973   7.210
 3501POPC   NC345131  43.570  16.892   5.313
 3501POPC   PO445132  42.928  16.611   5.328
 3501POPC   GL145133  43.220  16.709   5.695
 3501POPC   GL245134  43.230  17.082   5.647
 3501POPC   C1A45135  43.124  16.602   6.162
 3501POPC   D2A45136  42.868  16.569   6.587
 3501POPC   C3A45137  43.080  16.605   7.015
 3501POPC   C4A45138  42.977  16.688   7.478
 3501POPC   C1B45139  43.150  17.107   6.121
 3501POPC   C2B45140  43.334  16.921   6.517
 3501POPC   C3B45141  43.379  17.013   6.959
 3501POPC   C4B45142  43.031  17.126   7.206
 3502POPC   NC345143  26.873   9.998   5.472
 3502POPC   PO445144  26.276   9.525   5.440
 3502POPC   GL145145  26.586   9.654   5.761
 3502POPC   GL245146  26.949   9.734   5.923
 3502POPC   C1A45147  26.538   9.728   6.201
 3502POPC   D2A45148  26.804   9.887   6.539
 3502POPC   C3A45149  26.968   9.663   6.859
 3502POPC   C4A45150  26.783   9.762   7.219
 3502POPC   C1B45151  27.045  10.140   6.163
 3502POPC   C2B45152  27.167  10.351   6.560
 3502POPC   C3B45153  27.008  10.192   6.971
 3502POPC   C4B45154  27.120  10.093   7.406
 3503POPC   NC345155  32.570  22.335   5.273
 3503POPC   PO445156  31.943  21.896   5.355
 3503POPC   GL145157  32.193  22.001   5.748
 3503POPC   GL245158  32.387  22.323   5.787
 3503POPC   C1A45159  32.189  22.066   6.215
 3503POPC   D2A45160  32.103  22.354   6.561
 3503POPC   C3A45161  32.179  22.172   6.974
 3503POPC   C4A45162  31.895  21.916   7.229
 3503POPC   C1B45163  32.336  22.603   6.164
 3503POPC   C2B45164  32.471  22.756   6.544
 3503POPC   C3B45165  32.207  22.729   6.887
 3503POPC   C4B45166  32.398  22.583   7.222
 3504POPC   NC345167  39.563  39.342   5.499
 3504POPC   PO445168  39.034  39.824   5.366
 3504POPC   GL145169  38.989  40.043   5.760
 3504POPC   GL245170  39.309  39.941   5.912
 3504POPC   C1A45171  39.006  40.239   6.196
 3504POPC   D2A45172  39.208  40.006   6.530
 3504POPC   C3A45173  39.097  39.897   6.946
 3504POPC   C4A45174  39.025  40.105   7.324
 3504POPC   C1B45175  39.562  39.742   6.266
 3504POPC   C2B45176  39.532  39.660   6.725
 3504POPC   C3B45177  39.484  39.576   7.155
 3504POPC   C4B45178  39.698  39.660   7.575
 3505POPC   NC345179  41.757   9.463   5.626
 3505POPC   PO445180  41.336   9.982   5.520
 3505POPC   GL145181  41.483   9.819   5.910
 3505POPC   GL245182  41.831   9.911   5.886
 3505POPC   C1A45183  41.625   9.552   6.266
 3505POPC   D2A45184  41.604   9.672   6.702
 3505POPC   C3A45185  41.275   9.555   7.008
 3505POPC   C4A45186  41.228   9.637   7.463
 3505POPC   C1B45187  41.761  10.048   6.315
 3505POPC   C2B45188  41.943  10.059   6.732
 3505POPC   C3B45189  41.661  10.023   7.077
 3505POPC   C4B45190  41.726   9.620   7.255
 3506POPC   NC345191  40.111  24.787   5.602
 3506POPC   PO445192  39.947  24.279   5.160
 3506POPC   GL145193  39.900  24.263   5.637
 3506POPC   GL245194  39.665  24.535   5.793
 3506POPC   C1A45195  40.029  24.249   6.097
 3506POPC   D2A45196  39.862  24.296   6.535
 3506POPC   C3A45197  40.129  24.452   6.873
 3506POPC   C4A45198  40.112  24.529   7.307
 3506POPC   C1B45199  39.792  24.712   6.234
 3506POPC   C2B45200  39.788  24.783   6.710
 3506POPC   C3B45201  39.657  24.552   7.109
 3506POPC   C4B45202  39.726  24.704   7.587
 3507POPC   NC345203  11.860  22.858   5.305
 3507POPC   PO445204  12.064  22.292   5.519
 3507POPC   GL145205  11.997  22.111   5.901
 3507POPC   GL245206  12.137  21.768   5.897
 3507POPC   C1A45207  12.175  22.220   6.310
 3507POPC   D2A45208  12.427  22.180   6.668
 3507POPC   C3A45209  12.164  22.364   7.007
 3507POPC   C4A45210  11.943  22.366   7.383
 3507POPC   C1B45211  11.893  21.786   6.279
 3507POPC   C2B45212  12.045  21.814   6.699
 3507POPC   C3B45213  11.906  21.911   7.121
 3507POPC   C4B45214  12.113  21.909   7.527
 3508POPC   NC345215   7.557  16.432   5.325
 3508POPC   PO445216   7.783  17.009   5.504
 3508POPC   GL145217   7.571  16.713   5.797
 3508POPC   GL245218   7.217  16.596   5.754
 3508POPC   C1A45219   7.576  16.778   6.234
 3508POPC   D2A45220   7.571  16.924   6.638
 3508POPC   C3A45221   7.546  16.752   7.020
 3508POPC   C4A45222   7.494  16.938   7.423
 3508POPC   C1B45223   7.086  16.842   6.131
 3508POPC   C2B45224   7.091  16.707   6.581
 3508POPC   C3B45225   7.137  16.447   6.979
 3508POPC   C4B45226   7.257  16.446   7.419
 3509POPC   NC345227  28.498  36.037   5.521
 3509POPC   PO445228  28.197  36.613   5.386
 3509POPC   GL145229  28.212  36.354   5.791
 3509POPC   GL245230  28.516  36.380   5.944
 3509POPC   C1A45231  28.109  36.124   6.204
 3509POPC   D2A45232  27.789  36.012   6.547
 3509POPC   C3A45233  28.020  35.932   6.941
 3509POPC   C4A45234  28.466  35.949   7.064
 3509POPC   C1B45235  28.156  36.644   6.181
 3509POPC   C2B45236  28.043  36.492   6.569
 3509POPC   C3B45237  28.277  36.393   6.893
 3509POPC   C4B45238  28.082  36.350   7.267
 3510POPC   NC345239  36.589   5.851   5.301
 3510POPC   PO445240  37.117   6.196   5.545
 3510POPC   GL145241  36.912   5.873   5.801
 3510POPC   GL245242  36.599   6.075   5.786
 3510POPC   C1A45243  37.066   5.670   6.205
 3510POPC   D2A45244  37.131   5.896   6.595
 3510POPC   C3A45245  37.215   5.683   6.950
 3510POPC   C4A45246  37.381   5.865   7.301
 3510POPC   C1B45247  36.602   5.859   6.220
 3510POPC   C2B45248  36.714   5.621   6.634
 3510POPC   C3B45249  36.734   5.767   7.086
 3510POPC   C4B45250  36.936   6.155   7.224
 3511POPC   NC345251  40.623  29.555   5.207
 3511POPC   PO445252  40.997  30.143   5.320
 3511POPC   GL145253  40.813  30.066   5.721
 3511POPC   GL245254  40.588  29.776   5.695
 3511POPC   C1A45255  40.920  30.209   6.138
 3511POPC   D2A45256  41.169  30.158   6.499
 3511POPC   C3A45257  41.012  29.897   6.842
 3511POPC   C4A45258  40.811  29.921   7.255
 3511POPC   C1B45259  40.451  29.994   6.090
 3511POPC   C2B45260  40.642  29.940   6.503
 3511POPC   C3B45261  40.519  30.115   6.893
 3511POPC   C4B45262  40.315  30.057   7.279
 3512POPC   NC345263  42.611  34.266   5.577
 3512POPC   PO445264  42.704  34.881   5.605
 3512POPC   GL145265  42.341  34.638   5.862
 3512POPC   GL245266  42.331  34.290   6.018
 3512POPC   C1A45267  42.103  34.643   6.286
 3512POPC   D2A45268  41.886  34.445   6.660
 3512POPC   C3A45269  41.958  34.580   7.070
 3512POPC   C4A45270  42.265  34.907   7.225
 3512POPC   C1B45271  42.714  34.118   6.234
 3512POPC   C2B45272  42.855  34.156   6.682
 3512POPC   C3B45273  42.733  34.381   7.080
 3512POPC   C4B45274  42.698  34.685   7.420
 3513POPC   NC345275   3.828  32.300   5.380
 3513POPC   PO445276   3.163  32.389   5.541
 3513POPC   GL145277   3.543  32.263   5.814
 3513POPC   GL245278   3.864  32.511   5.823
 3513POPC   C1A45279   3.622  31.943   6.164
 3513POPC   D2A45280   3.790  31.814   6.580
 3513POPC   C3A45281   3.566  32.078   6.877
 3513POPC   C4A45282   3.201  32.187   7.103
 3513POPC   C1B45283   3.975  32.313   6.161
 3513POPC   C2B45284   3.709  32.391   6.500
 3513POPC   C3B45285   3.594  32.572   6.909
 3513POPC   C4B45286   3.653  32.362   7.319
 3514POPC   NC345287  42.622  11.532   5.369
 3514POPC   PO445288  42.503  10.871   5.348
 3514POPC   GL145289  42.399  11.176   5.677
 3514POPC   GL245290  42.732  11.249   5.766
 3514POPC   C1A45291  42.170  11.457   5.999
 3514POPC   D2A45292  42.003  11.390   6.433
 3514POPC   C3A45293  42.101  11.399   6.900
 3514POPC   C4A45294  42.337  11.208   7.247
 3514POPC   C1B45295  42.650  11.398   6.146
 3514POPC   C2B45296  42.670  11.485   6.558
 3514POPC   C3B45297  42.599  11.538   6.952
 3514POPC   C4B45298  42.635  11.600   7.371
 3515POPC   NC345299   9.868   9.904   5.425
 3515POPC   PO445300   9.743   9.233   5.514
 3515POPC   GL145301   9.879   9.515   5.791
 3515POPC   GL245302   9.612   9.686   5.828
 3515POPC   C1A45303   9.928   9.488   6.206
 3515POPC   D2A45304   9.661   9.690   6.444
 3515POPC   C3A45305   9.811   9.603   6.819
 3515POPC   C4A45306  10.046   9.732   7.137
 3515POPC   C1B45307   9.389   9.965   6.064
 3515POPC   C2B45308   9.271  10.016   6.480
 3515POPC   C3B45309   9.310   9.727   6.828
 3515POPC   C4B45310   9.538   9.771   7.206
 3516POPC   NC345311  31.264  39.510   5.229
 3516POPC   PO445312  31.807  39.692   5.406
 3516POPC   GL145313  31.584  39.786   5.827
 3516POPC   GL245314  31.366  40.089   5.767
 3516POPC   C1A45315  31.436  39.861   6.301
 3516POPC   D2A45316  31.572  40.211   6.630
 3516POPC   C3A45317  31.675  40.161   7.123
 3516POPC   C4A45318  31.860  40.064   7.593
 3516POPC   C1B45319  31.157  40.276   6.121
 3516POPC   C2B45320  31.007  40.165   6.531
 3516POPC   C3B45321  31.168  40.242   6.929
 3516POPC   C4B45322  31.178  39.931   7.192
 3517POPC   NC345323  42.407   1.555   5.223
 3517POPC   PO445324  41.951   1.890   5.600
 3517POPC   GL145325  42.353   1.803   5.758
 3517POPC   GL245326  42.362   2.136   5.868
 3517POPC   C1A45327  42.566   1.693   6.146
 3517POPC   D2A45328  42.442   1.957   6.495
 3517POPC   C3A45329  42.408   1.739   6.853
 3517POPC   C4A45330  42.298   1.711   7.245
 3517POPC   C1B45331  42.105   2.254   6.226
 3517POPC   C2B45332  42.132   2.388   6.664
 3517POPC   C3B45333  42.116   2.151   7.031
 3517POPC   C4B45334  41.946   2.274   7.470
 3518POPC   NC345335  38.641  24.457   5.304
 3518POPC   PO445336  38.159  24.798   5.523
 3518POPC   GL145337  38.340  24.422   5.759
 3518POPC   GL245338  38.662  24.215   5.809
 3518POPC   C1A45339  38.419  24.523   6.188
 3518POPC   D2A45340  38.465  24.739   6.575
 3518POPC   C3A45341  38.251  24.445   6.845
 3518POPC   C4A45342  38.181  24.472   7.295
 3518POPC   C1B45343  38.869  24.250   6.239
 3518POPC   C2B45344  38.834  24.402   6.693
 3518POPC   C3B45345  38.653  24.638   7.081
 3518POPC   C4B45346  38.603  24.577   7.573
 3519POPC   NC345347   2.830  25.639   5.422
 3519POPC   PO445348   2.525  26.243   5.306
 3519POPC   GL145349   2.701  26.049   5.692
 3519POPC   GL245350   2.561  25.775   5.884
 3519POPC   C1A45351   2.960  26.076   6.073
 3519POPC   D2A45352   3.088  26.174   6.519
 3519POPC   C3A45353   2.770  26.202   6.788
 3519POPC   C4A45354   2.960  26.009   7.115
 3519POPC   C1B45355   2.693  25.730   6.348
 3519POPC   C2B45356   2.498  25.755   6.775
 3519POPC   C3B45357   2.504  25.792   7.228
 3519POPC   C4B45358   2.425  25.959   7.615
 3520POPC   NC345359  11.957  19.399   5.371
 3520POPC   PO445360  11.837  18.661   5.269
 3520POPC   GL145361  11.863  18.915   5.734
 3520POPC   GL245362  12.031  19.245   5.828
 3520POPC   C1A45363  11.881  19.006   6.231
 3520POPC   D2A45364  11.942  18.865   6.656
 3520POPC   C3A45365  11.906  19.074   7.035
 3520POPC   C4A45366  12.253  18.922   7.284
 3520POPC   C1B45367  12.279  19.357   6.201
 3520POPC   C2B45368  12.379  19.178   6.612
 3520POPC   C3B45369  12.459  19.313   7.015
 3520POPC   C4B45370  12.145  19.481   7.261
 3521POPC   NC345371   7.725  41.711   5.503
 3521POPC   PO445372   7.269  41.308   5.168
 3521POPC   GL145373   7.373  41.347   5.642
 3521POPC   GL245374   7.343  41.664   5.840
 3521POPC   C1A45375   7.283  41.232   6.093
 3521POPC   D2A45376   7.475  41.474   6.424
 3521POPC   C3A45377   7.319  41.530   6.838
 3521POPC   C4A45378   7.307  41.665   7.261
 3521POPC   C1B45379   7.641  41.904   6.130
 3521POPC   C2B45380   7.805  42.007   6.519
 3521POPC   C3B45381   7.677  41.897   6.923
 3521POPC   C4B45382   7.828  41.642   7.224
 3522POPC   NC345383  22.008  21.679   5.419
 3522POPC   PO445384  22.357  21.179   5.210
 3522POPC   GL145385  22.256  21.311   5.690
 3522POPC   GL245386  21.871  21.322   5.772
 3522POPC   C1A45387  22.225  21.356   6.177
 3522POPC   D2A45388  22.337  21.561   6.597
 3522POPC   C3A45389  22.204  21.380   7.004
 3522POPC   C4A45390  22.006  21.635   7.306
 3522POPC   C1B45391  21.655  21.386   6.163
 3522POPC   C2B45392  21.838  21.381   6.553
 3522POPC   C3B45393  21.675  21.393   6.943
 3522POPC   C4B45394  21.788  21.161   7.283
 3523POPC   NC345395  40.161  39.875   5.008
 3523POPC   PO445396  40.811  39.980   5.284
 3523POPC   GL145397  40.851  40.058   5.749
 3523POPC   GL245398  41.094  40.345   5.814
 3523POPC   C1A45399  40.704  39.848   6.146
 3523POPC   D2A45400  40.902  39.808   6.571
 3523POPC   C3A45401  40.680  39.891   6.954
 3523POPC   C4A45402  40.577  40.069   7.372
 3523POPC   C1B45403  40.966  40.270   6.252
 3523POPC   C2B45404  41.121  40.248   6.683
 3523POPC   C3B45405  41.051  40.185   7.130
 3523POPC   C4B45406  41.058  40.281   7.526
 3524POPC   NC345407  19.737  13.190   5.551
 3524POPC   PO445408  19.871  13.863   5.439
 3524POPC   GL145409  19.826  13.700   5.820
 3524POPC   GL245410  19.489  13.560   5.797
 3524POPC   C1A45411  20.022  13.609   6.206
 3524POPC   D2A45412  19.952  13.351   6.577
 3524POPC   C3A45413  20.037  13.579   6.941
 3524POPC   C4A45414  19.870  13.761   7.305
 3524POPC   C1B45415  19.430  13.814   6.156
 3524POPC   C2B45416  19.654  13.770   6.543
 3524POPC   C3B45417  19.518  13.674   6.930
 3524POPC   C4B45418  19.373  13.950   7.239
 3525POPC   NC345419  10.552  11.782   5.348
 3525POPC   PO445420  10.928  12.327   5.384
 3525POPC   GL145421  10.771  12.207   5.780
 3525POPC   GL245422  10.904  11.855   5.792
 3525POPC   C1A45423  10.636  12.412   6.203
 3525POPC   D2A45424  10.315  12.420   6.592
 3525POPC   C3A45425  10.273  12.177   7.002
 3525POPC   C4A45426  10.415  12.134   7.445
 3525POPC   C1B45427  10.759  11.920   6.243
 3525POPC   C2B45428  10.816  12.186   6.637
 3525POPC   C3B45429  10.786  12.060   7.071
 3525POPC   C4B45430  10.862  11.897   7.484
 3526POPC   NC345431  21.991  28.267   5.378
 3526POPC   PO445432  22.639  28.442   5.340
 3526POPC   GL145433  22.390  28.271   5.769
 3526POPC   GL245434  21.996  28.259   5.876
 3526POPC   C1A45435  22.359  28.262   6.251
 3526POPC   D2A45436  22.583  28.213   6.669
 3526POPC   C3A45437  22.458  28.361   7.064
 3526POPC   C4A45438  22.161  28.700   7.171
 3526POPC   C1B45439  21.900  27.980   6.220
 3526POPC   C2B45440  22.083  27.990   6.604
 3526POPC   C3B45441  22.010  28.315   6.843
 3526POPC   C4B45442  21.844  28.250   7.218
 3527POPC   NC345443   5.083  27.106   5.573
 3527POPC   PO445444   4.919  27.686   5.326
 3527POPC   GL145445   4.942  27.590   5.768
 3527POPC   GL245446   4.698  27.350   5.829
 3527POPC   C1A45447   4.921  27.752   6.209
 3527POPC   D2A45448   5.122  27.957   6.573
 3527POPC   C3A45449   5.096  27.771   7.014
 3527POPC   C4A45450   5.153  27.870   7.481
 3527POPC   C1B45451   4.901  27.229   6.224
 3527POPC   C2B45452   4.982  27.419   6.645
 3527POPC   C3B45453   4.789  27.288   7.052
 3527POPC   C4B45454   4.707  27.232   7.532
 3528POPC   NC345455  29.604  41.981   5.394
 3528POPC   PO445456  29.317  41.384   5.343
 3528POPC   GL145457  29.185  41.536   5.762
 3528POPC   GL245458  28.874  41.649   5.908
 3528POPC   C1A45459  29.258  41.453   6.193
 3528POPC   D2A45460  29.324  41.295   6.585
 3528POPC   C3A45461  29.235  41.625   6.873
 3528POPC   C4A45462  29.056  41.516   7.231
 3528POPC   C1B45463  29.001  41.921   6.249
 3528POPC   C2B45464  28.841  41.931   6.679
 3528POPC   C3B45465  28.754  41.909   7.132
 3528POPC   C4B45466  28.882  41.825   7.603
 3529POPC   NC345467  12.262  15.564   5.313
 3529POPC   PO445468  11.925  16.134   5.452
 3529POPC   GL145469  12.070  15.956   5.802
 3529POPC   GL245470  11.950  15.638   5.729
 3529POPC   C1A45471  12.149  16.045   6.237
 3529POPC   D2A45472  12.185  15.753   6.613
 3529POPC   C3A45473  12.189  15.966   7.008
 3529POPC   C4A45474  12.376  15.846   7.400
 3529POPC   C1B45475  11.899  15.620   6.174
 3529POPC   C2B45476  11.688  15.861   6.516
 3529POPC   C3B45477  11.571  15.794   6.931
 3529POPC   C4B45478  11.745  15.971   7.268
 3530POPC   NC345479  19.364   6.970   4.928
 3530POPC   PO445480  18.976   6.456   5.343
 3530POPC   GL145481  18.992   6.482   5.768
 3530POPC   GL245482  19.310   6.614   5.786
 3530POPC   C1A45483  18.888   6.677   6.159
 3530POPC   D2A45484  19.073   6.944   6.463
 3530POPC   C3A45485  18.949   6.791   6.858
 3530POPC   C4A45486  19.041   6.922   7.244
 3530POPC   C1B45487  19.380   6.424   6.186
 3530POPC   C2B45488  19.289   6.489   6.593
 3530POPC   C3B45489  19.353   6.376   6.997
 3530POPC   C4B45490  19.347   6.535   7.403
 3531POPC   NC345491  25.918  41.150   5.325
 3531POPC   PO445492  26.225  40.534   5.230
 3531POPC   GL145493  26.056  40.676   5.697
 3531POPC   GL245494  25.801  40.914   5.766
 3531POPC   C1A45495  26.153  40.816   6.161
 3531POPC   D2A45496  26.327  40.789   6.598
 3531POPC   C3A45497  26.078  40.608   6.942
 3531POPC   C4A45498  25.883  40.492   7.324
 3531POPC   C1B45499  25.690  41.038   6.191
 3531POPC   C2B45500  25.775  40.865   6.597
 3531POPC   C3B45501  25.683  40.955   7.020
 3531POPC   C4B45502  25.390  41.241   7.137
 3532POPC   NC345503  17.529  15.547   5.371
 3532POPC   PO445504  17.453  16.214   5.487
 3532POPC   GL145505  17.375  15.894   5.739
 3532POPC   GL245506  17.698  15.862   5.907
 3532POPC   C1A45507  17.278  15.885   6.185
 3532POPC   D2A45508  17.569  15.838   6.548
 3532POPC   C3A45509  17.351  15.940   6.927
 3532POPC   C4A45510  17.473  16.023   7.381
 3532POPC   C1B45511  17.644  16.250   6.213
 3532POPC   C2B45512  17.738  16.473   6.635
 3532POPC   C3B45513  17.865  16.534   7.083
 3532POPC   C4B45514  17.635  16.513   7.507
 3533POPC   NC345515   6.923  39.614   5.102
 3533POPC   PO445516   6.295  39.789   5.296
 3533POPC   GL145517   6.487  39.901   5.735
 3533POPC   GL245518   6.580  40.267   5.808
 3533POPC   C1A45519   6.793  39.892   6.106
 3533POPC   D2A45520   6.674  39.701   6.487
 3533POPC   C3A45521   6.782  39.868   6.872
 3533POPC   C4A45522   6.552  39.780   7.223
 3533POPC   C1B45523   6.415  40.235   6.224
 3533POPC   C2B45524   6.609  40.316   6.644
 3533POPC   C3B45525   6.486  40.295   7.083
 3533POPC   C4B45526   6.594  40.183   7.512
 3534POPC   NC345527  31.167  36.427   5.576
 3534POPC   PO445528  30.744  35.903   5.305
 3534POPC   GL145529  30.585  35.938   5.726
 3534POPC   GL245530  30.656  36.269   5.788
 3534POPC   C1A45531  30.680  35.949   6.168
 3534POPC   D2A45532  30.644  36.171   6.538
 3534POPC   C3A45533  30.647  35.987   6.910
 3534POPC   C4A45534  30.617  36.152   7.316
 3534POPC   C1B45535  30.820  36.462   6.148
 3534POPC   C2B45536  31.018  36.542   6.532
 3534POPC   C3B45537  30.834  36.489   6.919
 3534POPC   C4B45538  30.934  36.552   7.327
 3535POPC   NC345539  34.102  11.344   5.397
 3535POPC   PO445540  33.559  11.020   5.333
 3535POPC   GL145541  33.720  11.200   5.721
 3535POPC   GL245542  34.054  11.024   5.812
 3535POPC   C1A45543  33.784  11.313   6.156
 3535POPC   D2A45544  34.011  11.395   6.525
 3535POPC   C3A45545  33.823  11.362   6.919
 3535POPC   C4A45546  33.993  11.380   7.328
 3535POPC   C1B45547  34.165  10.926   6.253
 3535POPC   C2B45548  34.037  10.887   6.688
 3535POPC   C3B45549  34.110  10.939   7.108
 3535POPC   C4B45550  34.218  10.973   7.541
 3536POPC   NC345551   0.026  10.126   5.399
 3536POPC   PO445552   0.223  10.822   5.411
 3536POPC   GL145553   0.408  10.571   5.742
 3536POPC   GL245554   0.440  10.209   5.693
 3536POPC   C1A45555   0.560  10.396   6.165
 3536POPC   D2A45556   0.750  10.574   6.518
 3536POPC   C3A45557   0.623  10.446   6.904
 3536POPC   C4A45558   0.500  10.719   7.221
 3536POPC   C1B45559   0.084  10.303   6.022
 3536POPC   C2B45560   0.122  10.207   6.456
 3536POPC   C3B45561   0.076  10.345   6.885
 3536POPC   C4B45562   0.272  10.273   7.251
 3537POPC   NC345563   7.010  33.033   5.585
 3537POPC   PO445564   7.648  32.775   5.615
 3537POPC   GL145565   7.445  33.066   5.890
 3537POPC   GL245566   7.170  32.840   6.016
 3537POPC   C1A45567   7.590  33.334   6.228
 3537POPC   D2A45568   7.507  33.491   6.665
 3537POPC   C3A45569   7.486  33.289   7.096
 3537POPC   C4A45570   7.396  33.119   7.508
 3537POPC   C1B45571   7.452  32.834   6.329
 3537POPC   C2B45572   7.410  32.934   6.725
 3537POPC   C3B45573   7.320  32.811   7.103
 3537POPC   C4B45574   7.580  32.672   7.374
 3538POPC   NC345575   2.497  33.326   5.243
 3538POPC   PO445576   2.940  33.881   5.380
 3538POPC   GL145577   2.708  33.863   5.777
 3538POPC   GL245578   2.827  34.166   5.922
 3538POPC   C1A45579   2.495  33.603   6.086
 3538POPC   D2A45580   2.622  33.368   6.453
 3538POPC   C3A45581   2.684  33.561   6.866
 3538POPC   C4A45582   2.829  33.589   7.311
 3538POPC   C1B45583   2.694  34.011   6.316
 3538POPC   C2B45584   2.539  34.185   6.685
 3538POPC   C3B45585   2.593  34.018   7.068
 3538POPC   C4B45586   2.633  34.041   7.478
 3539POPC   NC345587   9.227  32.091   5.401
 3539POPC   PO445588   8.825  32.660   5.359
 3539POPC   GL145589   8.849  32.439   5.736
 3539POPC   GL245590   9.200  32.484   5.767
 3539POPC   C1A45591   8.885  32.332   6.183
 3539POPC   D2A45592   8.989  32.434   6.628
 3539POPC   C3A45593   8.838  32.238   7.056
 3539POPC   C4A45594   8.718  32.572   7.346
 3539POPC   C1B45595   9.401  32.321   6.129
 3539POPC   C2B45596   9.454  32.181   6.556
 3539POPC   C3B45597   9.327  32.296   6.986
 3539POPC   C4B45598   9.208  32.302   7.446
 3540POPC   NC345599   7.945  42.514   5.470
 3540POPC   PO445600   8.216  41.891   5.434
 3540POPC   GL145601   7.987  42.103   5.758
 3540POPC   GL245602   8.305  42.301   5.800
 3540POPC   C1A45603   7.913  42.365   6.143
 3540POPC   D2A45604   7.776  42.533   6.562
 3540POPC   C3A45605   8.025  42.313   6.862
 3540POPC   C4A45606   7.979  42.176   7.262
 3540POPC   C1B45607   8.548  42.382   6.196
 3540POPC   C2B45608   8.697  42.420   6.643
 3540POPC   C3B45609   8.510  42.256   7.036
 3540POPC   C4B45610   8.427  42.305   7.479
 3541POPC   NC345611  15.979  13.824   5.345
 3541POPC   PO445612  15.657  13.240   5.414
 3541POPC   GL145613  15.868  13.477   5.757
 3541POPC   GL245614  15.801  13.872   5.821
 3541POPC   C1A45615  15.847  13.479   6.213
 3541POPC   D2A45616  16.063  13.342   6.576
 3541POPC   C3A45617  16.011  13.485   7.003
 3541POPC   C4A45618  16.084  13.353   7.430
 3541POPC   C1B45619  16.034  13.981   6.205
 3541POPC   C2B45620  16.045  13.861   6.636
 3541POPC   C3B45621  15.899  13.991   7.057
 3541POPC   C4B45622  16.058  13.860   7.470
 3542POPC   NC345623  22.728  42.814   5.526
 3542POPC   PO445624  22.739  42.219   5.169
 3542POPC   GL145625  22.963  42.265   5.591
 3542POPC   GL245626  22.669  42.337   5.797
 3542POPC   C1A45627  23.103  42.210   6.052
 3542POPC   D2A45628  22.976  42.313   6.497
 3542POPC   C3A45629  23.255  42.389   6.837
 3542POPC   C4A45630  23.093  42.332   7.263
 3542POPC   C1B45631  22.764  42.634   6.145
 3542POPC   C2B45632  22.634  42.737   6.557
 3542POPC   C3B45633  22.735  42.606   6.965
 3542POPC   C4B45634  22.594  42.373   7.320
 3543POPC   NC345635  29.718  11.474   5.330
 3543POPC   PO445636  30.271  11.134   5.506
 3543POPC   GL145637  30.055  11.469   5.758
 3543POPC   GL245638  29.685  11.596   5.821
 3543POPC   C1A45639  30.057  11.518   6.185
 3543POPC   D2A45640  29.843  11.350   6.537
 3543POPC   C3A45641  30.093  11.198   6.827
 3543POPC   C4A45642  30.218  11.402   7.198
 3543POPC   C1B45643  29.547  11.310   6.135
 3543POPC   C2B45644  29.352  11.226   6.558
 3543POPC   C3B45645  29.574  11.174   6.977
 3543POPC   C4B45646  29.569  11.113   7.444
 3544POPC   NC345647  19.561  33.248   5.407
 3544POPC   PO445648  19.791  32.654   5.439
 3544POPC   GL145649  19.678  32.828   5.793
 3544POPC   GL245650  19.851  33.143   5.817
 3544POPC   C1A45651  19.536  32.904   6.189
 3544POPC   D2A45652  19.774  32.963   6.576
 3544POPC   C3A45653  19.548  33.035   6.931
 3544POPC   C4A45654  19.682  33.125   7.337
 3544POPC   C1B45655  19.831  33.331   6.224
 3544POPC   C2B45656  19.809  33.534   6.639
 3544POPC   C3B45657  19.812  33.536   7.087
 3544POPC   C4B45658  19.687  33.577   7.562
 3545POPC   NC345659  42.719  26.764   5.091
 3545POPC   PO445660  42.208  26.555   5.480
 3545POPC   GL145661  42.273  26.721   5.847
 3545POPC   GL245662  42.555  26.915   5.856
 3545POPC   C1A45663  42.394  26.591   6.220
 3545POPC   D2A45664  42.591  26.694   6.569
 3545POPC   C3A45665  42.425  26.564   6.941
 3545POPC   C4A45666  42.660  26.545   7.317
 3545POPC   C1B45667  42.442  27.092   6.300
 3545POPC   C2B45668  42.416  27.124   6.776
 3545POPC   C3B45669  42.430  26.999   7.232
 3545POPC   C4B45670  42.543  27.292   7.590
 3546POPC   NC345671  39.480  36.976   5.463
 3546POPC   PO445672  38.867  36.841   5.516
 3546POPC   GL145673  39.151  36.810   5.843
 3546POPC   GL245674  39.380  37.102   5.945
 3546POPC   C1A45675  39.021  36.675   6.230
 3546POPC   D2A45676  38.832  36.908   6.531
 3546POPC   C3A45677  38.869  36.684   6.890
 3546POPC   C4A45678  38.867  36.793   7.300
 3546POPC   C1B45679  39.285  37.111   6.383
 3546POPC   C2B45680  39.326  36.821   6.738
 3546POPC   C3B45681  39.391  36.854   7.187
 3546POPC   C4B45682  39.710  36.829   7.533
 3547POPC   NC345683  20.426  21.702   5.232
 3547POPC   PO445684  20.821  21.188   5.377
 3547POPC   GL145685  20.536  21.304   5.728
 3547POPC   GL245686  20.292  21.035   5.763
 3547POPC   C1A45687  20.539  21.476   6.153
 3547POPC   D2A45688  20.801  21.506   6.505
 3547POPC   C3A45689  20.609  21.360   6.877
 3547POPC   C4A45690  20.797  21.437   7.247
 3547POPC   C1B45691  20.428  20.981   6.157
 3547POPC   C2B45692  20.303  21.138   6.532
 3547POPC   C3B45693  20.256  20.995   6.946
 3547POPC   C4B45694  20.455  21.077   7.326
 3548POPC   NC345695  37.241   6.606   5.378
 3548POPC   PO445696  36.617   6.350   5.270
 3548POPC   GL145697  36.799   6.579   5.673
 3548POPC   GL245698  36.585   6.758   5.917
 3548POPC   C1A45699  37.040   6.633   6.081
 3548POPC   D2A45700  36.862   6.756   6.511
 3548POPC   C3A45701  37.105   6.754   6.910
 3548POPC   C4A45702  37.109   6.619   7.355
 3548POPC   C1B45703  36.612   6.382   6.207
 3548POPC   C2B45704  36.685   6.163   6.612
 3548POPC   C3B45705  36.476   6.198   6.978
 3548POPC   C4B45706  36.622   6.571   7.151
 3549POPC   NC345707  24.362   2.386   5.391
 3549POPC   PO445708  24.599   1.796   5.159
 3549POPC   GL145709  24.596   1.909   5.594
 3549POPC   GL245710  24.829   2.163   5.670
 3549POPC   C1A45711  24.515   1.937   6.049
 3549POPC   D2A45712  24.350   1.979   6.467
 3549POPC   C3A45713  24.182   1.917   6.905
 3549POPC   C4A45714  24.333   2.200   7.253
 3549POPC   C1B45715  24.914   2.248   6.117
 3549POPC   C2B45716  24.812   2.147   6.566
 3549POPC   C3B45717  24.846   2.190   7.023
 3549POPC   C4B45718  24.797   2.103   7.495
 3550POPC   NC345719  12.136  41.870   5.748
 3550POPC   PO445720  12.573  41.434   5.362
 3550POPC   GL145721  12.853  41.551   5.716
 3550POPC   GL245722  12.646  41.806   5.798
 3550POPC   C1A45723  12.989  41.539   6.176
 3550POPC   D2A45724  13.147  41.715   6.587
 3550POPC   C3A45725  12.979  41.550   6.997
 3550POPC   C4A45726  12.846  41.480   7.435
 3550POPC   C1B45727  12.607  41.876   6.233
 3550POPC   C2B45728  12.611  41.715   6.660
 3550POPC   C3B45729  12.570  41.851   7.087
 3550POPC   C4B45730  12.475  41.848   7.546
 3551POPC   NC345731  39.096  43.241   5.078
 3551POPC   PO445732  39.394  42.726   5.514
 3551POPC   GL145733  39.319  42.945   5.905
 3551POPC   GL245734  39.005  42.983   5.846
 3551POPC   C1A45735  39.469  43.056   6.326
 3551POPC   D2A45736  39.484  42.973   6.778
 3551POPC   C3A45737  39.206  43.127   7.073
 3551POPC   C4A45738  39.316  43.271   7.489
 3551POPC   C1B45739  38.870  42.814   6.227
 3551POPC   C2B45740  39.017  42.869   6.640
 3551POPC   C3B45741  38.782  42.844   7.040
 3551POPC   C4B45742  38.846  43.072   7.435
 3552POPC   NC345743  13.015  23.952   5.275
 3552POPC   PO445744  13.013  23.373   5.580
 3552POPC   GL145745  13.058  23.608   5.921
 3552POPC   GL245746  12.909  23.855   5.786
 3552POPC   C1A45747  13.146  23.862   6.296
 3552POPC   D2A45748  13.066  23.976   6.739
 3552POPC   C3A45749  13.089  23.587   7.002
 3552POPC   C4A45750  12.745  23.327   7.143
 3552POPC   C1B45751  12.636  23.841   6.148
 3552POPC   C2B45752  12.577  24.004   6.553
 3552POPC   C3B45753  12.610  23.769   6.904
 3552POPC   C4B45754  12.476  23.746   7.305
 3553POPC   NC345755  23.534  36.587   5.050
 3553POPC   PO445756  23.501  36.021   5.357
 3553POPC   GL145757  23.715  36.038   5.741
 3553POPC   GL245758  23.401  35.992   5.878
 3553POPC   C1A45759  23.831  35.934   6.179
 3553POPC   D2A45760  23.996  36.165   6.526
 3553POPC   C3A45761  23.685  36.264   6.823
 3553POPC   C4A45762  23.695  36.159   7.254
 3553POPC   C1B45763  23.315  36.252   6.229
 3553POPC   C2B45764  23.170  36.330   6.643
 3553POPC   C3B45765  23.235  36.372   7.077
 3553POPC   C4B45766  23.281  36.476   7.501
 3554POPC   NC345767   5.283   3.358   5.645
 3554POPC   PO445768   4.715   3.779   5.463
 3554POPC   GL145769   4.895   3.612   5.875
 3554POPC   GL245770   5.216   3.789   5.937
 3554POPC   C1A45771   5.011   3.345   6.268
 3554POPC   D2A45772   5.225   3.344   6.689
 3554POPC   C3A45773   4.956   3.238   7.055
 3554POPC   C4A45774   4.773   3.527   7.359
 3554POPC   C1B45775   5.189   3.801   6.404
 3554POPC   C2B45776   5.479   3.811   6.753
 3554POPC   C3B45777   5.432   3.779   7.188
 3554POPC   C4B45778   5.286   3.420   7.402
 3555POPC   NC345779  44.922   7.638   5.433
 3555POPC   PO445780  44.344   7.293   5.377
 3555POPC   GL145781  44.632   7.283   5.730
 3555POPC   GL245782  44.580   7.588   5.804
 3555POPC   C1A45783  44.759   7.245   6.166
 3555POPC   D2A45784  44.940   7.353   6.567
 3555POPC   C3A45785  44.697   7.184   6.949
 3555POPC   C4A45786  44.423   7.177   7.364
 3555POPC   C1B45787  44.781   7.777   6.107
 3555POPC   C2B45788  44.813   7.883   6.494
 3555POPC   C3B45789  44.872   7.746   6.886
 3555POPC   C4B45790  44.642   7.624   7.204
 3556POPC   NC345791   7.212  13.987   5.416
 3556POPC   PO445792   7.743  14.405   5.429
 3556POPC   GL145793   7.596  14.585   5.804
 3556POPC   GL245794   7.371  14.305   5.815
 3556POPC   C1A45795   7.553  14.770   6.235
 3556POPC   D2A45796   7.770  14.675   6.641
 3556POPC   C3A45797   7.528  14.616   7.029
 3556POPC   C4A45798   7.107  14.520   7.188
 3556POPC   C1B45799   7.593  14.267   6.214
 3556POPC   C2B45800   7.606  14.173   6.616
 3556POPC   C3B45801   7.418  14.109   7.005
 3556POPC   C4B45802   7.376  14.166   7.443
 3557POPC   NC345803  21.649   5.791   5.317
 3557POPC   PO445804  21.103   5.959   5.605
 3557POPC   GL145805  21.450   5.923   5.901
 3557POPC   GL245806  21.685   5.644   5.818
 3557POPC   C1A45807  21.390   5.916   6.367
 3557POPC   D2A45808  21.450   6.114   6.783
 3557POPC   C3A45809  21.170   6.072   7.166
 3557POPC   C4A45810  21.378   6.030   7.588
 3557POPC   C1B45811  21.702   5.515   6.269
 3557POPC   C2B45812  21.624   5.574   6.727
 3557POPC   C3B45813  21.586   5.761   7.160
 3557POPC   C4B45814  21.506   5.511   7.573
 3558POPC   NC345815   3.353  39.001   5.400
 3558POPC   PO445816   3.768  39.482   5.493
 3558POPC   GL145817   3.452  39.328   5.806
 3558POPC   GL245818   3.456  38.974   5.908
 3558POPC   C1A45819   3.282  39.458   6.207
 3558POPC   D2A45820   3.384  39.635   6.615
 3558POPC   C3A45821   3.477  39.312   6.912
 3558POPC   C4A45822   3.420  39.236   7.330
 3558POPC   C1B45823   3.611  39.076   6.312
 3558POPC   C2B45824   3.872  39.305   6.569
 3558POPC   C3B45825   3.979  39.175   6.975
 3558POPC   C4B45826   3.880  38.991   7.368
 3559POPC   NC345827  41.047  37.109   5.326
 3559POPC   PO445828  40.606  36.484   5.437
 3559POPC   GL145829  40.589  36.753   5.825
 3559POPC   GL245830  40.745  37.054   5.771
 3559POPC   C1A45831  40.628  36.838   6.302
 3559POPC   D2A45832  40.749  36.597   6.699
 3559POPC   C3A45833  40.873  36.745   7.084
 3559POPC   C4A45834  40.671  37.097   7.233
 3559POPC   C1B45835  41.016  37.110   6.118
 3559POPC   C2B45836  41.032  37.048   6.567
 3559POPC   C3B45837  41.255  37.126   6.940
 3559POPC   C4B45838  41.172  37.119   7.311
 3560POPC   NC345839  41.416  33.109   5.229
 3560POPC   PO445840  41.175  32.643   5.646
 3560POPC   GL145841  41.514  32.891   5.821
 3560POPC   GL245842  41.545  33.223   5.714
 3560POPC   C1A45843  41.785  32.898   6.213
 3560POPC   D2A45844  41.880  33.056   6.620
 3560POPC   C3A45845  41.489  33.064   6.825
 3560POPC   C4A45846  41.550  32.873   7.201
 3560POPC   C1B45847  41.513  33.349   6.146
 3560POPC   C2B45848  41.614  33.509   6.528
 3560POPC   C3B45849  41.770  33.483   6.936
 3560POPC   C4B45850  41.423  33.381   7.222
 3561POPC   NC345851  20.768   1.789   5.220
 3561POPC   PO445852  20.243   2.194   5.385
 3561POPC   GL145853  20.443   1.875   5.707
 3561POPC   GL245854  20.824   1.788   5.730
 3561POPC   C1A45855  20.484   1.969   6.162
 3561POPC   D2A45856  20.745   2.209   6.446
 3561POPC   C3A45857  20.644   2.154   6.869
 3561POPC   C4A45858  20.503   1.986   7.233
 3561POPC   C1B45859  20.945   1.681   6.184
 3561POPC   C2B45860  20.765   1.720   6.620
 3561POPC   C3B45861  20.922   1.704   7.074
 3561POPC   C4B45862  20.889   1.739   7.554
 3562POPC   NC345863   7.071  41.717   5.267
 3562POPC   PO445864   7.553  42.199   5.449
 3562POPC   GL145865   7.402  42.207   5.806
 3562POPC   GL245866   7.089  42.066   5.664
 3562POPC   C1A45867   7.398  42.384   6.235
 3562POPC   D2A45868   7.243  42.469   6.660
 3562POPC   C3A45869   7.535  42.375   7.010
 3562POPC   C4A45870   7.523  42.445   7.447
 3562POPC   C1B45871   7.072  42.012   6.116
 3562POPC   C2B45872   7.281  41.949   6.515
 3562POPC   C3B45873   7.163  42.027   6.926
 3562POPC   C4B45874   7.112  42.178   7.330
 3563POPC   NC345875  25.260  21.272   5.421
 3563POPC   PO445876  25.100  21.971   5.448
 3563POPC   GL145877  25.194  21.715   5.844
 3563POPC   GL245878  25.112  21.355   5.892
 3563POPC   C1A45879  25.339  21.680   6.294
 3563POPC   D2A45880  25.576  21.741   6.701
 3563POPC   C3A45881  25.364  21.644   7.111
 3563POPC   C4A45882  25.349  21.481   7.562
 3563POPC   C1B45883  24.967  21.318   6.283
 3563POPC   C2B45884  25.132  21.393   6.708
 3563POPC   C3B45885  24.934  21.278   7.094
 3563POPC   C4B45886  24.880  21.005   7.452
 3564POPC   NC345887  29.420   6.075   5.384
 3564POPC   PO445888  28.854   5.623   5.379
 3564POPC   GL145889  29.066   5.859   5.683
 3564POPC   GL245890  29.364   5.688   5.750
 3564POPC   C1A45891  29.020   6.136   6.020
 3564POPC   D2A45892  28.844   6.075   6.421
 3564POPC   C3A45893  29.045   6.255   6.775
 3564POPC   C4A45894  28.883   6.241   7.173
 3564POPC   C1B45895  29.161   5.686   6.178
 3564POPC   C2B45896  29.301   5.824   6.590
 3564POPC   C3B45897  29.168   5.784   7.012
 3564POPC   C4B45898  29.266   5.594   7.390
 3565POPC   NC345899  38.681   4.579   5.405
 3565POPC   PO445900  38.194   4.103   5.292
 3565POPC   GL145901  38.408   4.181   5.682
 3565POPC   GL245902  38.293   4.512   5.787
 3565POPC   C1A45903  38.520   4.231   6.123
 3565POPC   D2A45904  38.385   4.436   6.500
 3565POPC   C3A45905  38.439   4.205   6.885
 3565POPC   C4A45906  38.777   4.193   7.162
 3565POPC   C1B45907  38.165   4.776   6.150
 3565POPC   C2B45908  37.983   4.747   6.553
 3565POPC   C3B45909  38.092   4.588   6.912
 3565POPC   C4B45910  38.275   4.474   7.287
 3566POPC   NC345911   1.182   7.738   5.621
 3566POPC   PO445912   1.161   8.401   5.536
 3566POPC   GL145913   1.359   8.177   5.874
 3566POPC   GL245914   1.624   7.970   5.758
 3566POPC   C1A45915   1.193   8.095   6.306
 3566POPC   D2A45916   0.792   8.077   6.566
 3566POPC   C3A45917   0.908   8.088   7.002
 3566POPC   C4A45918   1.337   8.152   7.108
 3566POPC   C1B45919   1.600   7.795   6.147
 3566POPC   C2B45920   1.425   7.651   6.501
 3566POPC   C3B45921   1.455   7.681   6.940
 3566POPC   C4B45922   1.605   7.805   7.379
 3567POPC   NC345923  42.642  23.220   5.332
 3567POPC   PO445924  42.030  22.880   5.379
 3567POPC   GL145925  42.382  22.926   5.679
 3567POPC   GL245926  42.591  22.622   5.732
 3567POPC   C1A45927  42.428  23.050   6.104
 3567POPC   D2A45928  42.227  23.164   6.488
 3567POPC   C3A45929  42.417  23.017   6.833
 3567POPC   C4A45930  42.511  23.131   7.213
 3567POPC   C1B45931  42.340  22.550   6.052
 3567POPC   C2B45932  42.374  22.645   6.448
 3567POPC   C3B45933  42.357  22.506   6.831
 3567POPC   C4B45934  42.576  22.619   7.152
 3568POPC   NC345935   7.741  33.241   5.513
 3568POPC   PO445936   8.125  32.772   5.184
 3568POPC   GL145937   8.287  33.087   5.553
 3568POPC   GL245938   8.086  32.965   5.794
 3568POPC   C1A45939   8.523  33.029   6.021
 3568POPC   D2A45940   8.364  33.059   6.465
 3568POPC   C3A45941   8.475  32.987   6.897
 3568POPC   C4A45942   8.284  33.225   7.245
 3568POPC   C1B45943   7.961  32.883   6.204
 3568POPC   C2B45944   7.863  33.092   6.596
 3568POPC   C3B45945   7.865  32.944   7.021
 3568POPC   C4B45946   8.185  32.704   7.254
 3569POPC   NC345947  40.128  26.124   5.363
 3569POPC   PO445948  39.579  25.800   5.098
 3569POPC   GL145949  39.836  25.734   5.553
 3569POPC   GL245950  40.199  25.698   5.659
 3569POPC   C1A45951  39.921  25.932   6.022
 3569POPC   D2A45952  40.067  26.223   6.394
 3569POPC   C3A45953  39.925  26.111   6.830
 3569POPC   C4A45954  40.121  26.113   7.242
 3569POPC   C1B45955  40.369  25.684   6.086
 3569POPC   C2B45956  40.155  25.725   6.493
 3569POPC   C3B45957  40.335  25.818   6.885
 3569POPC   C4B45958  40.296  25.613   7.286
 3570POPC   NC345959  11.233   2.044   5.319
 3570POPC   PO445960  10.717   2.383   5.683
 3570POPC   GL145961  11.111   2.172   5.822
 3570POPC   GL245962  11.258   1.800   5.784
 3570POPC   C1A45963  11.175   2.086   6.238
 3570POPC   D2A45964  11.169   1.988   6.633
 3570POPC   C3A45965  10.929   2.198   6.888
 3570POPC   C4A45966  11.163   2.159   7.212
 3570POPC   C1B45967  11.626   1.999   6.026
 3570POPC   C2B45968  11.632   2.153   6.478
 3570POPC   C3B45969  11.619   2.028   6.916
 3570POPC   C4B45970  11.758   2.238   7.247
 3571POPC   NC345971  11.181  40.231   5.447
 3571POPC   PO445972  11.084  40.922   5.409
 3571POPC   GL145973  11.196  40.710   5.791
 3571POPC   GL245974  10.948  40.442   5.866
 3571POPC   C1A45975  11.380  40.769   6.214
 3571POPC   D2A45976  11.202  40.769   6.638
 3571POPC   C3A45977  11.491  40.910   6.969
 3571POPC   C4A45978  11.463  40.959   7.401
 3571POPC   C1B45979  11.072  40.327   6.295
 3571POPC   C2B45980  11.123  40.257   6.734
 3571POPC   C3B45981  11.196  40.500   7.087
 3571POPC   C4B45982  10.973  40.881   7.186
 3572POPC   NC345983  32.032  40.086   5.529
 3572POPC   PO445984  32.633  39.831   5.218
 3572POPC   GL145985  32.481  39.854   5.697
 3572POPC   GL245986  32.380  40.169   5.898
 3572POPC   C1A45987  32.203  39.729   6.074
 3572POPC   D2A45988  31.949  39.928   6.408
 3572POPC   C3A45989  32.128  40.095   6.817
 3572POPC   C4A45990  32.155  39.864   7.230
 3572POPC   C1B45991  32.364  40.248   6.356
 3572POPC   C2B45992  32.586  40.372   6.750
 3572POPC   C3B45993  32.561  40.196   7.160
 3572POPC   C4B45994  32.293  40.366   7.500
 3573POPC   NC345995  29.762  25.190   5.431
 3573POPC   PO445996  30.503  25.170   5.324
 3573POPC   GL145997  30.193  25.040   5.725
 3573POPC   GL245998  29.994  25.321   5.869
 3573POPC   C1A45999  30.007  24.966   6.192
 3573POPC   D2A46000  30.066  25.338   6.460
 3573POPC   C3A46001  29.768  25.444   6.774
 3573POPC   C4A46002  29.819  25.493   7.199
 3573POPC   C1B46003  29.616  25.314   6.177
 3573POPC   C2B46004  29.489  25.058   6.543
 3573POPC   C3B46005  29.539  25.023   7.004
 3573POPC   C4B46006  29.600  24.990   7.453
 3574POPC   NC346007  42.134  21.776   5.370
 3574POPC   PO446008  42.485  21.169   5.405
 3574POPC   GL146009  42.324  21.283   5.784
 3574POPC   GL246010  41.987  21.131   5.807
 3574POPC   C1A46011  42.528  21.518   6.150
 3574POPC   D2A46012  42.359  21.660   6.540
 3574POPC   C3A46013  42.445  21.534   6.993
 3574POPC   C4A46014  42.513  21.479   7.441
 3574POPC   C1B46015  42.150  21.194   6.255
 3574POPC   C2B46016  42.321  21.162   6.676
 3574POPC   C3B46017  42.067  21.178   7.036
 3574POPC   C4B46018  42.061  21.248   7.467
 3575POPC   NC346019  23.335   7.938   5.321
 3575POPC   PO446020  23.894   8.348   5.314
 3575POPC   GL146021  23.791   8.342   5.739
 3575POPC   GL246022  23.470   8.207   5.816
 3575POPC   C1A46023  24.096   8.426   6.069
 3575POPC   D2A46024  24.290   8.310   6.462
 3575POPC   C3A46025  24.178   8.501   6.838
 3575POPC   C4A46026  24.094   8.305   7.242
 3575POPC   C1B46027  23.714   8.112   6.229
 3575POPC   C2B46028  23.874   8.100   6.682
 3575POPC   C3B46029  23.747   7.988   7.098
 3575POPC   C4B46030  23.408   7.968   7.421
 3576POPC   NC346031  36.551  17.146   5.483
 3576POPC   PO446032  37.102  17.501   5.338
 3576POPC   GL146033  36.972  17.294   5.780
 3576POPC   GL246034  36.683  17.428   5.967
 3576POPC   C1A46035  37.070  17.276   6.258
 3576POPC   D2A46036  36.941  17.453   6.682
 3576POPC   C3A46037  36.927  17.262   7.100
 3576POPC   C4A46038  36.911  17.305   7.590
 3576POPC   C1B46039  36.549  17.636   6.369
 3576POPC   C2B46040  36.657  17.863   6.747
 3576POPC   C3B46041  36.829  17.772   7.190
 3576POPC   C4B46042  36.671  17.732   7.643
 3577POPC   NC346043  28.712  30.776   5.289
 3577POPC   PO446044  29.285  30.824   5.332
 3577POPC   GL146045  29.253  30.745   5.792
 3577POPC   GL246046  29.501  30.976   5.876
 3577POPC   C1A46047  29.135  30.515   6.221
 3577POPC   D2A46048  28.988  30.605   6.681
 3577POPC   C3A46049  29.210  30.444   7.077
 3577POPC   C4A46050  29.274  30.183   7.471
 3577POPC   C1B46051  29.226  31.008   6.282
 3577POPC   C2B46052  29.111  31.096   6.702
 3577POPC   C3B46053  29.128  30.948   7.140
 3577POPC   C4B46054  29.087  31.166   7.546
 3578POPC   NC346055  26.465  20.682   5.389
 3578POPC   PO446056  27.136  20.514   5.412
 3578POPC   GL146057  27.048  20.502   5.835
 3578POPC   GL246058  26.847  20.210   5.909
 3578POPC   C1A46059  26.836  20.714   6.161
 3578POPC   D2A46060  26.955  20.810   6.591
 3578POPC   C3A46061  26.648  20.734   6.930
 3578POPC   C4A46062  26.873  20.616   7.275
 3578POPC   C1B46063  26.975  20.257   6.322
 3578POPC   C2B46064  26.672  20.322   6.625
 3578POPC   C3B46065  26.701  20.216   7.039
 3578POPC   C4B46066  27.002  19.944   7.202
 3579POPC   NC346067  26.136  27.733   5.326
 3579POPC   PO446068  25.750  27.161   5.404
 3579POPC   GL146069  26.002  27.429   5.726
 3579POPC   GL246070  25.966  27.824   5.781
 3579POPC   C1A46071  26.082  27.474   6.170
 3579POPC   D2A46072  25.903  27.354   6.572
 3579POPC   C3A46073  26.060  27.519   6.960
 3579POPC   C4A46074  25.910  27.384   7.367
 3579POPC   C1B46075  25.772  27.887   6.162
 3579POPC   C2B46076  25.999  27.873   6.541
 3579POPC   C3B46077  25.952  28.096   6.883
 3579POPC   C4B46078  25.970  27.904   7.271
 3580POPC   NC346079  22.698  11.184   5.493
 3580POPC   PO446080  22.044  11.447   5.479
 3580POPC   GL146081  22.043  11.202   5.854
 3580POPC   GL246082  22.369  11.034   5.875
 3580POPC   C1A46083  21.987  11.036   6.267
 3580POPC   D2A46084  22.158  11.177   6.658
 3580POPC   C3A46085  22.004  11.068   7.072
 3580POPC   C4A46086  21.985  11.336   7.426
 3580POPC   C1B46087  22.463  11.321   6.216
 3580POPC   C2B46088  22.577  11.485   6.621
 3580POPC   C3B46089  22.497  11.312   7.031
 3580POPC   C4B46090  22.468  11.512   7.400
 3581POPC   NC346091  14.191   1.915   5.182
 3581POPC   PO446092  14.612   2.455   5.437
 3581POPC   GL146093  14.472   2.089   5.810
 3581POPC   GL246094  14.321   1.791   5.662
 3581POPC   C1A46095  14.335   2.097   6.287
 3581POPC   D2A46096  14.479   2.303   6.715
 3581POPC   C3A46097  14.483   2.472   7.178
 3581POPC   C4A46098  14.434   2.498   7.682
 3581POPC   C1B46099  14.162   1.672   6.046
 3581POPC   C2B46100  14.035   1.618   6.463
 3581POPC   C3B46101  14.015   1.989   6.700
 3581POPC   C4B46102  14.143   1.948   7.086
 3582POPC   NC346103  33.963  28.002   5.500
 3582POPC   PO446104  33.980  27.337   5.400
 3582POPC   GL146105  33.846  27.571   5.727
 3582POPC   GL246106  34.129  27.609   5.903
 3582POPC   C1A46107  33.689  27.571   6.137
 3582POPC   D2A46108  33.548  27.462   6.565
 3582POPC   C3A46109  33.612  27.631   6.991
 3582POPC   C4A46110  33.418  27.413   7.322
 3582POPC   C1B46111  34.189  27.523   6.352
 3582POPC   C2B46112  34.068  27.498   6.797
 3582POPC   C3B46113  34.038  27.507   7.263
 3582POPC   C4B46114  33.818  27.316   7.621
 3583POPC   NC346115  20.318   2.636   5.502
 3583POPC   PO446116  20.938   2.932   5.357
 3583POPC   GL146117  20.716   2.864   5.754
 3583POPC   GL246118  20.470   3.091   5.795
 3583POPC   C1A46119  20.578   2.556   6.084
 3583POPC   D2A46120  20.464   2.645   6.500
 3583POPC   C3A46121  20.749   2.658   6.798
 3583POPC   C4A46122  20.600   2.558   7.186
 3583POPC   C1B46123  20.292   2.981   6.162
 3583POPC   C2B46124  20.217   3.088   6.569
 3583POPC   C3B46125  20.306   2.902   6.952
 3583POPC   C4B46126  20.185   2.805   7.371
 3584POPC   NC346127  44.436   9.148   5.463
 3584POPC   PO446128  44.994   8.752   5.526
 3584POPC   GL146129  44.800   9.006   5.851
 3584POPC   GL246130  44.468   8.865   5.880
 3584POPC   C1A46131  44.745   8.841   6.308
 3584POPC   D2A46132  44.973   8.841   6.689
 3584POPC   C3A46133  44.839   8.998   7.079
 3584POPC   C4A46134  44.857   8.916   7.523
 3584POPC   C1B46135  44.331   9.128   6.217
 3584POPC   C2B46136  44.439   9.122   6.648
 3584POPC   C3B46137  44.317   9.034   7.065
 3584POPC   C4B46138  44.170   8.892   7.458
 3585POPC   NC346139  40.325  15.878   5.348
 3585POPC   PO446140  39.787  15.686   5.608
 3585POPC   GL146141  40.136  15.846   5.848
 3585POPC   GL246142  40.427  15.654   5.791
 3585POPC   C1A46143  40.058  15.899   6.280
 3585POPC   D2A46144  39.768  15.658   6.549
 3585POPC   C3A46145  39.837  15.702   6.970
 3585POPC   C4A46146  39.963  16.010   7.241
 3585POPC   C1B46147  40.455  15.480   6.188
 3585POPC   C2B46148  40.277  15.569   6.606
 3585POPC   C3B46149  40.346  15.690   7.027
 3585POPC   C4B46150  40.207  15.596   7.438
 3586POPC   NC346151  16.690  10.826   5.363
 3586POPC   PO446152  16.377  10.302   5.620
 3586POPC   GL146153  16.752  10.535   5.774
 3586POPC   GL246154  16.648  10.496   6.085
 3586POPC   C1A46155  16.914  10.917   6.039
 3586POPC   D2A46156  16.903  10.947   6.504
 3586POPC   C3A46157  16.814  10.604   6.822
 3586POPC   C4A46158  16.700  10.627   7.277
 3586POPC   C1B46159  16.465  10.174   6.301
 3586POPC   C2B46160  16.481  10.137   6.727
 3586POPC   C3B46161  16.570  10.156   7.133
 3586POPC   C4B46162  16.352  10.339   7.528
 3587POPC   NC346163  17.319   9.549   5.239
 3587POPC   PO446164  17.345  10.197   5.392
 3587POPC   GL146165  17.505   9.838   5.663
 3587POPC   GL246166  17.171   9.715   5.714
 3587POPC   C1A46167  17.560   9.606   6.077
 3587POPC   D2A46168  17.378   9.521   6.499
 3587POPC   C3A46169  17.590   9.635   6.890
 3587POPC   C4A46170  17.690   9.706   7.353
 3587POPC   C1B46171  17.181   9.950   6.126
 3587POPC   C2B46172  16.989   9.870   6.535
 3587POPC   C3B46173  17.135   9.928   6.955
 3587POPC   C4B46174  17.107  10.324   7.131
 3588POPC   NC346175  34.263  22.375   5.391
 3588POPC   PO446176  34.409  21.702   5.474
 3588POPC   GL146177  34.593  21.924   5.809
 3588POPC   GL246178  34.536  22.280   5.817
 3588POPC   C1A46179  34.397  21.927   6.201
 3588POPC   D2A46180  34.410  21.626   6.520
 3588POPC   C3A46181  34.420  21.825   6.919
 3588POPC   C4A46182  34.713  21.839   7.267
 3588POPC   C1B46183  34.799  22.267   6.191
 3588POPC   C2B46184  34.728  22.093   6.596
 3588POPC   C3B46185  34.697  22.274   6.998
 3588POPC   C4B46186  34.490  22.301   7.394
 3589POPC   NC346187  20.000  34.303   5.590
 3589POPC   PO446188  19.906  33.612   5.379
 3589POPC   GL146189  19.699  33.643   5.783
 3589POPC   GL246190  19.600  33.979   5.788
 3589POPC   C1A46191  19.812  33.838   6.213
 3589POPC   D2A46192  19.921  34.142   6.525
 3589POPC   C3A46193  20.088  34.009   6.928
 3589POPC   C4A46194  20.023  33.910   7.338
 3589POPC   C1B46195  19.429  34.199   6.133
 3589POPC   C2B46196  19.403  33.997   6.518
 3589POPC   C3B46197  19.576  33.946   6.872
 3589POPC   C4B46198  19.458  33.908   7.256
 3590POPC   NC346199  10.804  12.733   5.564
 3590POPC   PO446200  10.477  13.238   5.456
 3590POPC   GL146201  10.478  13.082   5.823
 3590POPC   GL246202  10.219  12.852   5.736
 3590POPC   C1A46203  10.730  13.047   6.194
 3590POPC   D2A46204  10.665  12.786   6.546
 3590POPC   C3A46205  10.640  12.905   6.974
 3590POPC   C4A46206  10.601  12.528   7.170
 3590POPC   C1B46207  10.259  12.788   6.186
 3590POPC   C2B46208  10.159  12.914   6.584
 3590POPC   C3B46209  10.174  12.753   6.976
 3590POPC   C4B46210  10.216  13.058   7.293
 3591POPC   NC346211  26.994  27.227   5.411
 3591POPC   PO446212  26.617  26.663   5.377
 3591POPC   GL146213  26.732  26.924   5.743
 3591POPC   GL246214  26.464  27.144   5.835
 3591POPC   C1A46215  26.939  27.081   6.131
 3591POPC   D2A46216  26.833  27.213   6.559
 3591POPC   C3A46217  27.018  26.961   6.862
 3591POPC   C4A46218  27.035  26.675   7.185
 3591POPC   C1B46219  26.451  26.997   6.274
 3591POPC   C2B46220  26.570  26.806   6.682
 3591POPC   C3B46221  26.501  26.794   7.103
 3591POPC   C4B46222  26.323  27.056   7.490
 3592POPC   NC346223   7.685  20.105   5.508
 3592POPC   PO446224   7.200  19.839   5.156
 3592POPC   GL146225   7.279  19.829   5.660
 3592POPC   GL246226   7.509  19.908   5.937
 3592POPC   C1A46227   7.100  19.620   6.068
 3592POPC   D2A46228   6.991  19.628   6.550
 3592POPC   C3A46229   7.333  19.756   6.863
 3592POPC   C4A46230   7.481  19.800   7.294
 3592POPC   C1B46231   7.711  20.080   6.319
 3592POPC   C2B46232   7.834  19.916   6.751
 3592POPC   C3B46233   7.926  20.036   7.172
 3592POPC   C4B46234   7.741  20.167   7.566
 3593POPC   NC346235  42.156  29.463   5.424
 3593POPC   PO446236  42.403  28.784   5.318
 3593POPC   GL146237  42.316  29.078   5.716
 3593POPC   GL246238  42.061  28.925   5.935
 3593POPC   C1A46239  42.245  29.339   6.145
 3593POPC   D2A46240  42.369  29.193   6.583
 3593POPC   C3A46241  42.190  29.299   6.998
 3593POPC   C4A46242  42.311  29.254   7.441
 3593POPC   C1B46243  42.474  28.862   6.150
 3593POPC   C2B46244  42.460  28.690   6.549
 3593POPC   C3B46245  42.238  28.780   6.920
 3593POPC   C4B46246  42.478  28.768   7.300
 3594POPC   NC346247  32.640  33.551   5.449
 3594POPC   PO446248  32.081  33.729   5.283
 3594POPC   GL146249  32.042  33.773   5.757
 3594POPC   GL246250  32.397  33.819   5.848
 3594POPC   C1A46251  32.049  33.945   6.206
 3594POPC   D2A46252  32.327  33.812   6.576
 3594POPC   C3A46253  32.113  33.734   6.994
 3594POPC   C4A46254  32.214  33.948   7.359
 3594POPC   C1B46255  32.646  33.573   6.184
 3594POPC   C2B46256  32.699  33.404   6.616
 3594POPC   C3B46257  32.484  33.391   7.022
 3594POPC   C4B46258  32.492  33.536   7.476
 3595POPC   NC346259   0.107  34.344   5.048
 3595POPC   PO446260   0.544  34.718   5.416
 3595POPC   GL146261   0.446  34.404   5.785
 3595POPC   GL246262   0.725  34.249   5.857
 3595POPC   C1A46263   0.307  34.441   6.240
 3595POPC   D2A46264   0.414  34.507   6.665
 3595POPC   C3A46265   0.514  34.862   6.919
 3595POPC   C4A46266   0.549  34.826   7.348
 3595POPC   C1B46267   0.807  34.532   6.198
 3595POPC   C2B46268   0.940  34.588   6.638
 3595POPC   C3B46269   0.770  34.442   7.044
 3595POPC   C4B46270   0.667  34.323   7.464
 3596POPC   NC346271   9.090  36.766   5.426
 3596POPC   PO446272   8.697  37.386   5.431
 3596POPC   GL146273   8.760  37.051   5.773
 3596POPC   GL246274   8.696  36.681   5.760
 3596POPC   C1A46275   8.964  36.887   6.165
 3596POPC   D2A46276   9.194  36.946   6.550
 3596POPC   C3A46277   9.084  36.725   6.918
 3596POPC   C4A46278   9.105  36.890   7.334
 3596POPC   C1B46279   8.521  36.589   6.178
 3596POPC   C2B46280   8.658  36.406   6.571
 3596POPC   C3B46281   8.497  36.488   6.956
 3596POPC   C4B46282   8.702  36.588   7.296
 3597POPC   NC346283   4.367  34.976   5.686
 3597POPC   PO446284   4.331  35.517   5.234
 3597POPC   GL146285   4.276  35.536   5.713
 3597POPC   GL246286   4.635  35.548   5.807
 3597POPC   C1A46287   4.262  35.425   6.199
 3597POPC   D2A46288   4.054  35.442   6.634
 3597POPC   C3A46289   4.291  35.334   7.019
 3597POPC   C4A46290   4.033  35.086   7.295
 3597POPC   C1B46291   4.652  35.772   6.208
 3597POPC   C2B46292   4.562  35.631   6.640
 3597POPC   C3B46293   4.690  35.692   7.076
 3597POPC   C4B46294   4.668  35.486   7.498
 3598POPC   NC346295  20.252   4.830   5.516
 3598POPC   PO446296  20.490   5.399   5.501
 3598POPC   GL146297  20.548   5.134   5.837
 3598POPC   GL246298  20.894   5.093   5.843
 3598POPC   C1A46299  20.563   4.932   6.247
 3598POPC   D2A46300  20.613   4.672   6.616
 3598POPC   C3A46301  20.550   4.980   6.962
 3598POPC   C4A46302  20.481   4.970   7.407
 3598POPC   C1B46303  20.818   5.403   6.206
 3598POPC   C2B46304  21.051   5.543   6.590
 3598POPC   C3B46305  20.949   5.534   7.043
 3598POPC   C4B46306  20.952   5.189   7.351
 3599POPC   NC346307  40.406  18.929   5.558
 3599POPC   PO446308  40.812  19.351   5.254
 3599POPC   GL146309  40.725  19.219   5.811
 3599POPC   GL246310  40.429  19.243   6.006
 3599POPC   C1A46311  40.861  19.202   6.266
 3599POPC   D2A46312  40.742  19.436   6.631
 3599POPC   C3A46313  40.556  19.304   6.962
 3599POPC   C4A46314  40.680  19.090   7.299
 3599POPC   C1B46315  40.516  18.830   6.176
 3599POPC   C2B46316  40.475  18.960   6.569
 3599POPC   C3B46317  40.540  18.779   6.934
 3599POPC   C4B46318  40.398  18.665   7.350
 3600POPC   NC346319  39.360  15.597   5.423
 3600POPC   PO446320  39.466  14.888   5.347
 3600POPC   GL146321  39.173  15.019   5.707
 3600POPC   GL246322  39.165  15.378   5.820
 3600POPC   C1A46323  39.148  15.035   6.182
 3600POPC   D2A46324  39.051  14.877   6.564
 3600POPC   C3A46325  39.213  15.011   6.942
 3600POPC   C4A46326  39.060  15.032   7.311
 3600POPC   C1B46327  39.443  15.449   6.188
 3600POPC   C2B46328  39.335  15.386   6.610
 3600POPC   C3B46329  39.042  15.481   6.949
 3600POPC   C4B46330  39.261  15.488   7.270
 3601POPC   NC346331  44.180  20.178   5.657
 3601POPC   PO446332  43.594  19.923   5.456
 3601POPC   GL146333  43.802  19.872   5.874
 3601POPC   GL246334  43.943  19.524   5.984
 3601POPC   C1A46335  43.660  19.778   6.319
 3601POPC   D2A46336  43.945  19.589   6.631
 3601POPC   C3A46337  43.891  19.665   7.056
 3601POPC   C4A46338  43.956  19.983   7.347
 3601POPC   C1B46339  44.167  19.841   6.240
 3601POPC   C2B46340  44.362  19.893   6.652
 3601POPC   C3B46341  44.393  19.844   7.109
 3601POPC   C4B46342  44.297  19.671   7.526
 3602POPC   NC346343  28.637   6.053   5.397
 3602POPC   PO446344  28.090   6.270   5.757
 3602POPC   GL146345  28.239   5.852   5.872
 3602POPC   GL246346  28.575   5.725   5.804
 3602POPC   C1A46347  28.373   5.808   6.299
 3602POPC   D2A46348  28.359   6.123   6.595
 3602POPC   C3A46349  28.126   6.076   6.918
 3602POPC   C4A46350  28.224   5.743   7.193
 3602POPC   C1B46351  28.715   5.453   6.141
 3602POPC   C2B46352  28.845   5.570   6.575
 3602POPC   C3B46353  28.667   5.835   6.886
 3602POPC   C4B46354  28.740   5.778   7.307
 3603POPC   NC346355  28.350  23.229   5.330
 3603POPC   PO446356  28.668  22.632   5.459
 3603POPC   GL146357  28.511  22.704   5.869
 3603POPC   GL246358  28.411  23.040   5.820
 3603POPC   C1A46359  28.408  22.775   6.288
 3603POPC   D2A46360  28.201  22.938   6.642
 3603POPC   C3A46361  28.433  22.865   7.026
 3603POPC   C4A46362  28.634  22.905   7.416
 3603POPC   C1B46363  28.632  23.212   6.203
 3603POPC   C2B46364  28.734  23.054   6.636
 3603POPC   C3B46365  28.810  23.263   7.049
 3603POPC   C4B46366  28.459  23.378   7.316
 3604POPC   NC346367  35.112   7.555   5.422
 3604POPC   PO446368  35.787   7.716   5.349
 3604POPC   GL146369  35.608   7.552   5.746
 3604POPC   GL246370  35.281   7.374   5.886
 3604POPC   C1A46371  35.671   7.548   6.202
 3604POPC   D2A46372  35.489   7.837   6.526
 3604POPC   C3A46373  35.404   7.653   6.911
 3604POPC   C4A46374  35.659   7.393   7.182
 3604POPC   C1B46375  35.213   7.426   6.359
 3604POPC   C2B46376  35.533   7.224   6.655
 3604POPC   C3B46377  35.405   6.996   6.992
 3604POPC   C4B46378  35.000   7.103   7.132
 3605POPC   NC346379  28.294  31.138   5.643
 3605POPC   PO446380  28.310  30.581   5.398
 3605POPC   GL146381  28.459  30.656   5.798
 3605POPC   GL246382  28.742  30.893   5.813
 3605POPC   C1A46383  28.214  30.584   6.190
 3605POPC   D2A46384  27.910  30.798   6.451
 3605POPC   C3A46385  27.975  30.720   6.886
 3605POPC   C4A46386  28.178  30.979   7.207
 3605POPC   C1B46387  28.692  30.786   6.243
 3605POPC   C2B46388  28.417  30.905   6.569
 3605POPC   C3B46389  28.619  30.906   6.951
 3605POPC   C4B46390  28.703  30.521   7.156
 3606POPC   NC346391  20.099  23.063   5.476
 3606POPC   PO446392  20.710  23.113   5.282
 3606POPC   GL146393  20.651  22.973   5.701
 3606POPC   GL246394  20.366  22.755   5.788
 3606POPC   C1A46395  20.667  23.140   6.121
 3606POPC   D2A46396  20.621  23.131   6.564
 3606POPC   C3A46397  20.358  23.098   6.949
 3606POPC   C4A46398  20.586  22.997   7.336
 3606POPC   C1B46399  20.267  22.860   6.240
 3606POPC   C2B46400  20.366  22.697   6.664
 3606POPC   C3B46401  20.772  22.736   6.943
 3606POPC   C4B46402  20.968  22.606   7.382
 3607POPC   NC346403  12.206  14.878   5.353
 3607POPC   PO446404  11.767  15.376   5.296
 3607POPC   GL146405  11.834  15.133   5.672
 3607POPC   GL246406  12.173  15.171   5.781
 3607POPC   C1A46407  11.777  15.123   6.145
 3607POPC   D2A46408  11.618  15.350   6.524
 3607POPC   C3A46409  11.874  15.394   6.874
 3607POPC   C4A46410  11.970  15.070   7.173
 3607POPC   C1B46411  12.287  15.178   6.232
 3607POPC   C2B46412  12.178  15.035   6.665
 3607POPC   C3B46413  12.455  14.932   7.056
 3607POPC   C4B46414  12.373  15.078   7.501
 3608POPC   NC346415  27.193  11.882   5.408
 3608POPC   PO446416  27.125  12.485   5.498
 3608POPC   GL146417  27.404  12.219   5.806
 3608POPC   GL246418  27.390  11.860   5.893
 3608POPC   C1A46419  27.576  12.130   6.262
 3608POPC   D2A46420  27.486  11.864   6.626
 3608POPC   C3A46421  27.438  12.115   7.005
 3608POPC   C4A46422  27.373  12.501   7.250
 3608POPC   C1B46423  27.696  11.614   6.191
 3608POPC   C2B46424  27.902  11.512   6.592
 3608POPC   C3B46425  27.762  11.580   6.999
 3608POPC   C4B46426  27.904  11.924   7.182
 3609POPC   NC346427  20.589   3.246   5.321
 3609POPC   PO446428  20.266   3.818   5.404
 3609POPC   GL146429  20.581   3.652   5.772
 3609POPC   GL246430  20.897   3.390   5.721
 3609POPC   C1A46431  20.589   3.809   6.242
 3609POPC   D2A46432  20.471   3.554   6.610
 3609POPC   C3A46433  20.520   3.598   7.040
 3609POPC   C4A46434  20.836   3.541   7.325
 3609POPC   C1B46435  20.738   3.307   6.163
 3609POPC   C2B46436  20.738   3.108   6.560
 3609POPC   C3B46437  20.759   3.124   7.022
 3609POPC   C4B46438  20.530   3.159   7.431
 3610POPC   NC346439  31.536  10.533   5.191
 3610POPC   PO446440  31.979  10.469   5.661
 3610POPC   GL146441  31.621  10.599   5.958
 3610POPC   GL246442  31.257  10.758   6.012
 3610POPC   C1A46443  31.561  10.636   6.405
 3610POPC   D2A46444  31.747  10.674   6.786
 3610POPC   C3A46445  31.715  10.320   7.047
 3610POPC   C4A46446  31.941  10.435   7.393
 3610POPC   C1B46447  31.100  10.411   6.307
 3610POPC   C2B46448  31.218  10.349   6.689
 3610POPC   C3B46449  31.252  10.724   6.882
 3610POPC   C4B46450  31.463  10.715   7.245
 3611POPC   NC346451  34.384  34.047   5.477
 3611POPC   PO446452  34.670  33.449   5.521
 3611POPC   GL146453  34.561  33.665   5.869
 3611POPC   GL246454  34.716  33.965   5.853
 3611POPC   C1A46455  34.544  33.683   6.334
 3611POPC   D2A46456  34.274  33.570   6.646
 3611POPC   C3A46457  34.529  33.586   6.991
 3611POPC   C4A46458  34.250  33.395   7.259
 3611POPC   C1B46459  34.675  34.169   6.226
 3611POPC   C2B46460  34.815  34.091   6.643
 3611POPC   C3B46461  34.605  34.240   7.007
 3611POPC   C4B46462  34.488  34.125   7.423
 3612POPC   NC346463   6.365  36.020   5.451
 3612POPC   PO446464   6.941  36.359   5.449
 3612POPC   GL146465   6.726  36.196   5.797
 3612POPC   GL246466   6.799  35.847   5.737
 3612POPC   C1A46467   6.469  36.085   6.147
 3612POPC   D2A46468   6.612  36.093   6.568
 3612POPC   C3A46469   6.288  36.212   6.870
 3612POPC   C4A46470   6.244  36.137   7.294
 3612POPC   C1B46471   6.968  35.883   6.156
 3612POPC   C2B46472   7.033  35.708   6.557
 3612POPC   C3B46473   6.942  35.935   6.924
 3612POPC   C4B46474   6.755  36.084   7.330
 3613POPC   NC346475  28.572  28.249   5.541
 3613POPC   PO446476  28.140  28.709   5.381
 3613POPC   GL146477  28.144  28.474   5.793
 3613POPC   GL246478  28.248  28.139   5.914
 3613POPC   C1A46479  27.984  28.433   6.241
 3613POPC   D2A46480  28.075  28.211   6.657
 3613POPC   C3A46481  28.183  28.472   7.024
 3613POPC   C4A46482  28.566  28.520   7.332
 3613POPC   C1B46483  28.461  28.261   6.313
 3613POPC   C2B46484  28.581  28.277   6.772
 3613POPC   C3B46485  28.502  28.048   7.159
 3613POPC   C4B46486  28.779  27.848   7.505
 3614POPC   NC346487  24.359   1.492   5.393
 3614POPC   PO446488  24.928   1.461   5.683
 3614POPC   GL146489  24.529   1.429   5.867
 3614POPC   GL246490  24.587   1.090   5.969
 3614POPC   C1A46491  24.397   1.488   6.291
 3614POPC   D2A46492  24.640   1.609   6.670
 3614POPC   C3A46493  24.684   1.305   7.003
 3614POPC   C4A46494  24.269   1.330   7.141
 3614POPC   C1B46495  24.384   0.929   6.346
 3614POPC   C2B46496  24.351   0.735   6.755
 3614POPC   C3B46497  24.473   0.861   7.165
 3614POPC   C4B46498  24.684   0.774   7.535
 3615POPC   NC346499  43.452  40.680   5.438
 3615POPC   PO446500  42.816  40.808   5.451
 3615POPC   GL146501  42.906  40.661   5.834
 3615POPC   GL246502  43.253  40.583   5.890
 3615POPC   C1A46503  42.841  40.822   6.241
 3615POPC   D2A46504  42.915  40.620   6.636
 3615POPC   C3A46505  42.996  40.824   7.007
 3615POPC   C4A46506  43.082  40.499   7.271
 3615POPC   C1B46507  43.318  40.667   6.297
 3615POPC   C2B46508  43.278  41.021   6.533
 3615POPC   C3B46509  43.439  41.083   6.907
 3615POPC   C4B46510  43.442  40.896   7.310
 3616POPC   NC346511  33.336  16.769   5.686
 3616POPC   PO446512  33.939  16.668   5.355
 3616POPC   GL146513  33.835  16.625   5.766
 3616POPC   GL246514  33.859  16.983   5.781
 3616POPC   C1A46515  33.689  16.409   6.140
 3616POPC   D2A46516  33.499  16.559   6.493
 3616POPC   C3A46517  33.733  16.559   6.857
 3616POPC   C4A46518  33.693  16.698   7.245
 3616POPC   C1B46519  33.758  16.943   6.214
 3616POPC   C2B46520  34.014  16.891   6.588
 3616POPC   C3B46521  33.979  17.050   7.010
 3616POPC   C4B46522  34.008  17.254   7.428
 3617POPC   NC346523  29.390  43.918   5.495
 3617POPC   PO446524  29.985  44.065   5.244
 3617POPC   GL146525  30.037  43.859   5.683
 3617POPC   GL246526  29.713  43.816   5.878
 3617POPC   C1A46527  30.137  43.723   6.149
 3617POPC   D2A46528  29.966  43.733   6.570
 3617POPC   C3A46529  30.135  43.924   6.960
 3617POPC   C4A46530  30.157  43.674   7.330
 3617POPC   C1B46531  29.512  44.095   6.216
 3617POPC   C2B46532  29.549  44.030   6.671
 3617POPC   C3B46533  29.666  43.715   7.007
 3617POPC   C4B46534  29.748  43.986   7.356
 3618POPC   NC346535  36.827  43.381   5.294
 3618POPC   PO446536  37.273  42.931   5.361
 3618POPC   GL146537  37.169  43.240   5.738
 3618POPC   GL246538  36.796  43.257   5.785
 3618POPC   C1A46539  37.047  43.333   6.211
 3618POPC   D2A46540  36.915  43.144   6.607
 3618POPC   C3A46541  37.078  43.379   6.947
 3618POPC   C4A46542  37.293  43.134   7.219
 3618POPC   C1B46543  36.587  43.123   6.184
 3618POPC   C2B46544  36.397  43.129   6.571
 3618POPC   C3B46545  36.528  42.953   6.926
 3618POPC   C4B46546  36.660  43.215   7.213
 3619POPC   NC346547  30.472  38.888   5.309
 3619POPC   PO446548  30.842  39.427   5.388
 3619POPC   GL146549  30.762  39.098   5.704
 3619POPC   GL246550  30.384  39.086   5.794
 3619POPC   C1A46551  30.724  39.154   6.160
 3619POPC   D2A46552  30.416  39.065   6.479
 3619POPC   C3A46553  30.635  39.205   6.841
 3619POPC   C4A46554  30.645  39.180   7.268
 3619POPC   C1B46555  30.281  39.435   6.093
 3619POPC   C2B46556  30.288  39.591   6.530
 3619POPC   C3B46557  30.309  39.575   6.974
 3619POPC   C4B46558  30.107  39.328   7.277
 3620POPC   NC346559   8.438  19.725   5.507
 3620POPC   PO446560   7.827  19.519   5.581
 3620POPC   GL146561   8.015  19.781   5.899
 3620POPC   GL246562   7.996  20.172   5.901
 3620POPC   C1A46563   8.051  19.680   6.340
 3620POPC   D2A46564   8.356  19.729   6.667
 3620POPC   C3A46565   8.267  19.650   7.099
 3620POPC   C4A46566   8.493  19.628   7.480
 3620POPC   C1B46567   8.354  20.077   6.175
 3620POPC   C2B46568   8.592  20.163   6.557
 3620POPC   C3B46569   8.430  20.146   6.991
 3620POPC   C4B46570   8.681  20.093   7.356
 3621POPC   NC346571  31.153  17.915   5.269
 3621POPC   PO446572  31.509  17.360   5.491
 3621POPC   GL146573  31.729  17.331   5.844
 3621POPC   GL246574  31.670  17.694   5.971
 3621POPC   C1A46575  31.675  17.270   6.259
 3621POPC   D2A46576  31.384  17.227   6.538
 3621POPC   C3A46577  31.603  17.405   6.830
 3621POPC   C4A46578  31.651  17.183   7.177
 3621POPC   C1B46579  31.339  17.742   6.295
 3621POPC   C2B46580  31.084  17.619   6.669
 3621POPC   C3B46581  31.161  17.425   7.063
 3621POPC   C4B46582  31.485  17.672   7.272
 3622POPC   NC346583   2.544   9.626   5.246
 3622POPC   PO446584   2.936  10.054   5.578
 3622POPC   GL146585   2.678   9.716   5.742
 3622POPC   GL246586   2.820   9.380   5.747
 3622POPC   C1A46587   2.658   9.625   6.175
 3622POPC   D2A46588   2.498   9.662   6.565
 3622POPC   C3A46589   2.760   9.726   6.913
 3622POPC   C4A46590   2.659   9.844   7.321
 3622POPC   C1B46591   3.066   9.338   6.139
 3622POPC   C2B46592   2.900   9.313   6.570
 3622POPC   C3B46593   3.084   9.335   6.979
 3622POPC   C4B46594   3.077   9.561   7.374
 3623POPC   NC346595   7.385   2.845   5.404
 3623POPC   PO446596   7.859   2.429   5.555
 3623POPC   GL146597   7.511   2.637   5.856
 3623POPC   GL246598   7.255   2.962   5.881
 3623POPC   C1A46599   7.348   2.577   6.273
 3623POPC   D2A46600   7.457   2.760   6.675
 3623POPC   C3A46601   7.472   2.517   7.042
 3623POPC   C4A46602   7.221   2.502   7.406
 3623POPC   C1B46603   7.614   3.032   6.162
 3623POPC   C2B46604   7.848   3.088   6.538
 3623POPC   C3B46605   7.805   3.057   6.987
 3623POPC   C4B46606   7.430   2.997   7.226
 3624POPC   NC346607  27.370  34.077   5.506
 3624POPC   PO446608  27.874  33.738   5.311
 3624POPC   GL146609  27.812  33.672   5.754
 3624POPC   GL246610  27.750  33.985   5.881
 3624POPC   C1A46611  27.630  33.424   6.118
 3624POPC   D2A46612  27.426  33.330   6.532
 3624POPC   C3A46613  27.510  33.677   6.827
 3624POPC   C4A46614  27.625  33.738   7.253
 3624POPC   C1B46615  27.735  33.917   6.314
 3624POPC   C2B46616  27.911  33.991   6.715
 3624POPC   C3B46617  27.785  34.198   7.100
 3624POPC   C4B46618  27.870  34.167   7.529
 3625POPC   NC346619  30.382  41.862   5.402
 3625POPC   PO446620  30.485  41.181   5.500
 3625POPC   GL146621  30.490  41.334   5.907
 3625POPC   GL246622  30.509  41.689   5.882
 3625POPC   C1A46623  30.698  41.367   6.297
 3625POPC   D2A46624  30.966  41.636   6.558
 3625POPC   C3A46625  30.915  41.517   6.984
 3625POPC   C4A46626  30.715  41.442   7.380
 3625POPC   C1B46627  30.591  41.926   6.262
 3625POPC   C2B46628  30.690  42.093   6.686
 3625POPC   C3B46629  30.626  41.914   7.124
 3625POPC   C4B46630  30.288  41.951   7.436
 3626POPC   NC346631  19.952   4.161   5.461
 3626POPC   PO446632  19.498   3.671   5.449
 3626POPC   GL146633  19.454   4.011   5.766
 3626POPC   GL246634  19.540   4.391   5.738
 3626POPC   C1A46635  19.728   4.102   6.127
 3626POPC   D2A46636  20.062   3.980   6.422
 3626POPC   C3A46637  19.944   4.091   6.853
 3626POPC   C4A46638  19.870   4.199   7.291
 3626POPC   C1B46639  19.657   4.627   6.139
 3626POPC   C2B46640  19.686   4.495   6.582
 3626POPC   C3B46641  19.789   4.627   7.001
 3626POPC   C4B46642  19.620   4.647   7.413
 3627POPC   NC346643   1.027  30.185   5.436
 3627POPC   PO446644   1.346  29.565   5.463
 3627POPC   GL146645   1.246  29.898   5.821
 3627POPC   GL246646   1.451  30.225   5.842
 3627POPC   C1A46647   1.211  30.002   6.274
 3627POPC   D2A46648   1.145  30.179   6.701
 3627POPC   C3A46649   1.198  29.831   6.967
 3627POPC   C4A46650   1.044  29.817   7.354
 3627POPC   C1B46651   1.670  30.232   6.265
 3627POPC   C2B46652   1.666  30.072   6.711
 3627POPC   C3B46653   1.506  30.199   7.138
 3627POPC   C4B46654   1.482  29.941   7.516
 3628POPC   NC346655  23.275   7.103   5.248
 3628POPC   PO446656  23.858   7.356   5.436
 3628POPC   GL146657  23.633   7.460   5.780
 3628POPC   GL246658  23.735   7.781   5.810
 3628POPC   C1A46659  23.751   7.423   6.208
 3628POPC   D2A46660  23.756   7.642   6.567
 3628POPC   C3A46661  23.939   7.519   6.951
 3628POPC   C4A46662  23.674   7.183   7.083
 3628POPC   C1B46663  23.364   7.771   6.114
 3628POPC   C2B46664  23.252   7.750   6.563
 3628POPC   C3B46665  23.416   7.630   6.978
 3628POPC   C4B46666  23.287   7.421   7.341
 3629POPC   NC346667  13.886  44.444   5.398
 3629POPC   PO446668  13.563   0.083   5.504
 3629POPC   GL146669  13.503  44.773   5.834
 3629POPC   GL246670  13.527  44.391   5.821
 3629POPC   C1A46671  13.608  44.755   6.262
 3629POPC   D2A46672  13.457  44.522   6.616
 3629POPC   C3A46673  13.391  44.801   6.955
 3629POPC   C4A46674  13.652  44.939   7.267
 3629POPC   C1B46675  13.895  44.347   6.132
 3629POPC   C2B46676  14.004  44.546   6.557
 3629POPC   C3B46677  13.822  44.516   7.002
 3629POPC   C4B46678  13.885  44.499   7.465
 3630POPC   NC346679   2.812  38.448   5.086
 3630POPC   PO446680   2.482  38.839   5.646
 3630POPC   GL146681   2.627  38.694   6.051
 3630POPC   GL246682   2.664  38.321   6.076
 3630POPC   C1A46683   2.779  38.664   6.455
 3630POPC   D2A46684   2.590  38.405   6.687
 3630POPC   C3A46685   2.552  38.602   7.047
 3630POPC   C4A46686   2.979  38.722   7.171
 3630POPC   C1B46687   2.988  38.232   6.362
 3630POPC   C2B46688   3.145  38.378   6.740
 3630POPC   C3B46689   2.912  38.219   7.037
 3630POPC   C4B46690   3.006  38.024   7.355
 3631POPC   NC346691  38.909  23.878   5.463
 3631POPC   PO446692  39.045  23.251   5.386
 3631POPC   GL146693  39.254  23.524   5.705
 3631POPC   GL246694  39.427  23.869   5.638
 3631POPC   C1A46695  39.124  23.755   6.103
 3631POPC   D2A46696  38.920  23.776   6.516
 3631POPC   C3A46697  39.145  23.783   6.927
 3631POPC   C4A46698  39.025  23.874   7.359
 3631POPC   C1B46699  39.578  24.001   6.071
 3631POPC   C2B46700  39.423  24.025   6.525
 3631POPC   C3B46701  39.658  24.002   6.943
 3631POPC   C4B46702  39.532  23.833   7.336
 3632POPC   NC346703  40.539  10.729   5.222
 3632POPC   PO446704  40.860  10.205   5.242
 3632POPC   GL146705  40.794  10.480   5.665
 3632POPC   GL246706  41.095  10.644   5.833
 3632POPC   C1A46707  40.745  10.489   6.161
 3632POPC   D2A46708  40.705  10.660   6.595
 3632POPC   C3A46709  40.817  10.468   6.991
 3632POPC   C4A46710  40.747  10.394   7.430
 3632POPC   C1B46711  41.118  10.857   6.246
 3632POPC   C2B46712  41.153  10.898   6.695
 3632POPC   C3B46713  40.929  11.018   7.037
 3632POPC   C4B46714  40.715  10.899   7.396
 3633POPC   NC346715  27.321  39.012   5.542
 3633POPC   PO446716  27.565  39.738   5.450
 3633POPC   GL146717  27.608  39.404   5.749
 3633POPC   GL246718  27.966  39.259   5.819
 3633POPC   C1A46719  27.547  39.250   6.150
 3633POPC   D2A46720  27.639  39.373   6.548
 3633POPC   C3A46721  27.479  39.148   6.884
 3633POPC   C4A46722  27.616  39.351   7.212
 3633POPC   C1B46723  28.061  39.186   6.248
 3633POPC   C2B46724  28.121  39.277   6.691
 3633POPC   C3B46725  27.957  39.016   7.038
 3633POPC   C4B46726  27.988  39.034   7.483
 3634POPC   NC346727  42.967  13.680   5.342
 3634POPC   PO446728  43.532  13.346   5.283
 3634POPC   GL146729  43.253  13.415   5.706
 3634POPC   GL246730  42.883  13.343   5.709
 3634POPC   C1A46731  43.084  13.741   6.037
 3634POPC   D2A46732  43.035  13.946   6.457
 3634POPC   C3A46733  43.103  13.698   6.827
 3634POPC   C4A46734  43.304  13.689   7.210
 3634POPC   C1B46735  42.635  13.441   6.046
 3634POPC   C2B46736  42.694  13.564   6.463
 3634POPC   C3B46737  42.662  13.407   6.858
 3634POPC   C4B46738  42.939  13.291   7.149
 3635POPC   NC346739   9.472  19.955   5.513
 3635POPC   PO446740  10.108  20.072   5.346
 3635POPC   GL146741   9.931  19.995   5.755
 3635POPC   GL246742   9.922  19.662   5.815
 3635POPC   C1A46743   9.730  20.026   6.172
 3635POPC   D2A46744  10.001  20.052   6.525
 3635POPC   C3A46745   9.756  20.012   6.884
 3635POPC   C4A46746   9.968  20.045   7.271
 3635POPC   C1B46747   9.643  19.539   6.142
 3635POPC   C2B46748   9.723  19.636   6.543
 3635POPC   C3B46749   9.798  19.494   6.935
 3635POPC   C4B46750   9.503  19.340   7.225
 3636POPC   NC346751  25.042   1.742   5.332
 3636POPC   PO446752  25.260   2.366   5.418
 3636POPC   GL146753  25.394   2.159   5.814
 3636POPC   GL246754  25.199   1.854   5.860
 3636POPC   C1A46755  25.505   1.996   6.253
 3636POPC   D2A46756  25.319   2.155   6.639
 3636POPC   C3A46757  25.324   2.010   7.069
 3636POPC   C4A46758  25.675   1.814   7.124
 3636POPC   C1B46759  25.014   1.767   6.288
 3636POPC   C2B46760  25.126   1.688   6.735
 3636POPC   C3B46761  24.928   1.702   7.194
 3636POPC   C4B46762  24.920   1.638   7.680
 3637POPC   NC346763  34.799  34.951   5.579
 3637POPC   PO446764  34.819  34.278   5.465
 3637POPC   GL146765  34.567  34.457   5.788
 3637POPC   GL246766  34.346  34.736   5.780
 3637POPC   C1A46767  34.728  34.689   6.149
 3637POPC   D2A46768  35.030  34.845   6.423
 3637POPC   C3A46769  34.905  34.794   6.850
 3637POPC   C4A46770  34.747  34.722   7.254
 3637POPC   C1B46771  34.250  34.481   6.180
 3637POPC   C2B46772  34.489  34.546   6.562
 3637POPC   C3B46773  34.386  34.771   6.885
 3637POPC   C4B46774  34.247  34.538   7.230
 3638POPC   NC346775  31.577  34.949   5.593
 3638POPC   PO446776  31.431  35.701   5.615
 3638POPC   GL146777  31.365  35.351   5.845
 3638POPC   GL246778  31.245  35.559   6.089
 3638POPC   C1A46779  31.489  35.125   6.226
 3638POPC   D2A46780  31.462  35.308   6.634
 3638POPC   C3A46781  31.299  35.129   7.003
 3638POPC   C4A46782  31.538  34.892   7.284
 3638POPC   C1B46783  31.012  35.676   6.430
 3638POPC   C2B46784  31.060  35.595   6.828
 3638POPC   C3B46785  31.322  35.632   7.138
 3638POPC   C4B46786  31.101  35.635   7.509
 3639POPC   NC346787   4.995  28.922   5.457
 3639POPC   PO446788   5.530  29.237   5.416
 3639POPC   GL146789   5.225  29.270   5.762
 3639POPC   GL246790   4.859  29.347   5.785
 3639POPC   C1A46791   5.055  28.995   6.110
 3639POPC   D2A46792   5.157  29.064   6.540
 3639POPC   C3A46793   5.034  28.790   6.874
 3639POPC   C4A46794   5.250  28.867   7.237
 3639POPC   C1B46795   5.109  29.502   6.205
 3639POPC   C2B46796   5.185  29.594   6.677
 3639POPC   C3B46797   5.033  29.308   6.999
 3639POPC   C4B46798   4.671  29.096   7.125
 3640POPC   NC346799  40.881  25.477   5.486
 3640POPC   PO446800  40.464  25.031   5.427
 3640POPC   GL146801  40.764  25.102   5.796
 3640POPC   GL246802  41.062  25.346   5.927
 3640POPC   C1A46803  40.663  25.253   6.215
 3640POPC   D2A46804  40.616  25.528   6.533
 3640POPC   C3A46805  40.476  25.344   6.894
 3640POPC   C4A46806  40.776  25.487   7.236
 3640POPC   C1B46807  41.072  24.948   6.156
 3640POPC   C2B46808  40.859  24.817   6.471
 3640POPC   C3B46809  40.823  24.996   6.848
 3640POPC   C4B46810  40.931  24.997   7.257
 3641POPC   NC346811  40.401  13.456   5.501
 3641POPC   PO446812  40.901  13.956   5.362
 3641POPC   GL146813  40.791  13.746   5.785
 3641POPC   GL246814  41.064  13.527   5.932
 3641POPC   C1A46815  40.582  13.642   6.181
 3641POPC   D2A46816  40.235  13.757   6.476
 3641POPC   C3A46817  40.437  13.862   6.857
 3641POPC   C4A46818  40.648  13.612   7.205
 3641POPC   C1B46819  41.181  13.758   6.315
 3641POPC   C2B46820  41.110  13.663   6.762
 3641POPC   C3B46821  41.144  13.619   7.203
 3641POPC   C4B46822  40.980  13.875   7.568
 3642POPC   NC346823   9.037  41.218   5.400
 3642POPC   PO446824   9.171  40.551   5.507
 3642POPC   GL146825   9.066  40.708   5.866
 3642POPC   GL246826   9.232  41.044   5.821
 3642POPC   C1A46827   9.101  40.649   6.318
 3642POPC   D2A46828   8.864  40.712   6.694
 3642POPC   C3A46829   9.116  40.598   7.033
 3642POPC   C4A46830   9.265  40.496   7.440
 3642POPC   C1B46831   8.927  41.116   6.142
 3642POPC   C2B46832   9.136  41.131   6.537
 3642POPC   C3B46833   9.051  41.120   6.971
 3642POPC   C4B46834   9.018  41.030   7.404
 3643POPC   NC346835  36.473  42.125   5.240
 3643POPC   PO446836  35.845  42.458   5.299
 3643POPC   GL146837  36.109  42.435   5.759
 3643POPC   GL246838  36.329  42.093   5.733
 3643POPC   C1A46839  36.186  42.290   6.188
 3643POPC   D2A46840  36.105  42.442   6.591
 3643POPC   C3A46841  36.304  42.301   6.929
 3643POPC   C4A46842  36.167  42.331   7.335
 3643POPC   C1B46843  36.480  41.869   6.115
 3643POPC   C2B46844  36.524  42.026   6.546
 3643POPC   C3B46845  36.465  41.799   6.964
 3643POPC   C4B46846  36.369  41.883   7.397
 3644POPC   NC346847  24.768  31.562   5.438
 3644POPC   PO446848  24.161  31.218   5.426
 3644POPC   GL146849  24.462  31.283   5.770
 3644POPC   GL246850  24.425  31.654   5.833
 3644POPC   C1A46851  24.503  31.363   6.227
 3644POPC   D2A46852  24.335  31.333   6.616
 3644POPC   C3A46853  24.630  31.432   6.918
 3644POPC   C4A46854  24.416  31.536   7.275
 3644POPC   C1B46855  24.365  31.933   6.201
 3644POPC   C2B46856  24.343  31.843   6.616
 3644POPC   C3B46857  24.185  31.949   6.996
 3644POPC   C4B46858  24.390  32.078   7.351
 3645POPC   NC346859   7.310  44.776   5.322
 3645POPC   PO446860   7.942  44.663   5.247
 3645POPC   GL146861   7.707  44.652   5.665
 3645POPC   GL246862   7.752  44.337   5.853
 3645POPC   C1A46863   7.441  44.799   6.037
 3645POPC   D2A46864   7.197  44.618   6.425
 3645POPC   C3A46865   7.228  44.793   6.880
 3645POPC   C4A46866   7.089  44.948   7.291
 3645POPC   C1B46867   7.658  44.425   6.289
 3645POPC   C2B46868   7.658  44.586   6.713
 3645POPC   C3B46869   7.515  44.440   7.130
 3645POPC   C4B46870   7.672  44.270   7.561
 3646POPC   NC346871  40.062  27.153   5.386
 3646POPC   PO446872  39.856  26.499   5.361
 3646POPC   GL146873  39.875  26.628   5.802
 3646POPC   GL246874  39.925  26.994   5.878
 3646POPC   C1A46875  40.262  26.594   6.065
 3646POPC   D2A46876  40.493  26.563   6.458
 3646POPC   C3A46877  40.262  26.541   6.834
 3646POPC   C4A46878  40.461  26.501   7.220
 3646POPC   C1B46879  39.990  26.930   6.341
 3646POPC   C2B46880  39.723  26.973   6.702
 3646POPC   C3B46881  39.853  26.807   7.096
 3646POPC   C4B46882  40.242  26.944   7.188
 3647POPC   NC346883  12.052  11.387   5.103
 3647POPC   PO446884  11.700  11.084   5.569
 3647POPC   GL146885  11.986  11.126   5.867
 3647POPC   GL246886  12.320  11.030   5.816
 3647POPC   C1A46887  12.007  11.351   6.246
 3647POPC   D2A46888  12.066  11.637   6.562
 3647POPC   C3A46889  11.935  11.481   6.922
 3647POPC   C4A46890  12.011  11.298   7.258
 3647POPC   C1B46891  12.495  11.207   6.185
 3647POPC   C2B46892  12.367  11.230   6.625
 3647POPC   C3B46893  12.448  11.472   6.961
 3647POPC   C4B46894  12.455  11.519   7.387
 3648POPC   NC346895   5.251  38.848   5.169
 3648POPC   PO446896   4.909  38.343   5.442
 3648POPC   GL146897   4.977  38.366   5.855
 3648POPC   GL246898   5.209  38.624   6.031
 3648POPC   C1A46899   4.830  38.304   6.254
 3648POPC   D2A46900   5.054  38.572   6.526
 3648POPC   C3A46901   5.002  38.407   6.924
 3648POPC   C4A46902   5.256  38.592   7.219
 3648POPC   C1B46903   5.338  38.236   6.194
 3648POPC   C2B46904   5.229  38.092   6.591
 3648POPC   C3B46905   5.447  38.194   6.959
 3648POPC   C4B46906   5.558  38.174   7.322
 3649POPC   NC346907  17.794   0.204   4.910
 3649POPC   PO446908  17.285   0.343   5.285
 3649POPC   GL146909  17.264   0.411   5.745
 3649POPC   GL246910  17.573   0.539   5.916
 3649POPC   C1A46911  17.118   0.388   6.175
 3649POPC   D2A46912  17.339   0.369   6.586
 3649POPC   C3A46913  17.143   0.378   6.981
 3649POPC   C4A46914  17.320   0.285   7.383
 3649POPC   C1B46915  17.729   0.684   6.342
 3649POPC   C2B46916  17.621   0.847   6.757
 3649POPC   C3B46917  17.793   0.776   7.153
 3649POPC   C4B46918  17.846   0.372   7.326
 3650POPC   NC346919  27.971  25.032   5.504
 3650POPC   PO446920  27.571  25.629   5.402
 3650POPC   GL146921  27.489  25.316   5.695
 3650POPC   GL246922  27.763  25.215   5.924
 3650POPC   C1A46923  27.281  25.263   6.098
 3650POPC   D2A46924  27.236  25.112   6.525
 3650POPC   C3A46925  27.516  25.324   6.803
 3650POPC   C4A46926  27.587  25.299   7.225
 3650POPC   C1B46927  27.798  25.342   6.348
 3650POPC   C2B46928  27.853  25.720   6.621
 3650POPC   C3B46929  27.785  25.765   7.061
 3650POPC   C4B46930  27.900  25.634   7.455
 3651POPC   NC346931  34.490  14.866   5.580
 3651POPC   PO446932  34.682  15.551   5.511
 3651POPC   GL146933  34.701  15.319   5.873
 3651POPC   GL246934  34.975  15.076   5.846
 3651POPC   C1A46935  34.411  15.308   6.219
 3651POPC   D2A46936  34.364  15.163   6.643
 3651POPC   C3A46937  34.559  15.346   7.028
 3651POPC   C4A46938  34.540  15.135   7.441
 3651POPC   C1B46939  34.811  14.992   6.255
 3651POPC   C2B46940  34.715  14.776   6.634
 3651POPC   C3B46941  34.645  14.818   7.063
 3651POPC   C4B46942  34.961  14.850   7.423
 3652POPC   NC346943  19.006  37.850   4.925
 3652POPC   PO446944  19.165  37.562   5.522
 3652POPC   GL146945  18.911  37.798   5.771
 3652POPC   GL246946  18.629  37.582   5.786
 3652POPC   C1A46947  19.028  37.820   6.201
 3652POPC   D2A46948  19.256  37.905   6.568
 3652POPC   C3A46949  19.350  37.581   6.833
 3652POPC   C4A46950  19.217  37.517   7.215
 3652POPC   C1B46951  18.594  37.558   6.250
 3652POPC   C2B46952  18.790  37.479   6.677
 3652POPC   C3B46953  18.737  37.397   7.139
 3652POPC   C4B46954  18.541  37.381   7.547
 3653POPC   NC346955  23.989  20.323   5.347
 3653POPC   PO446956  23.392  20.585   5.480
 3653POPC   GL146957  23.641  20.698   5.822
 3653POPC   GL246958  23.990  20.631   5.759
 3653POPC   C1A46959  23.610  20.719   6.249
 3653POPC   D2A46960  23.409  20.699   6.642
 3653POPC   C3A46961  23.689  20.620   6.977
 3653POPC   C4A46962  23.811  20.747   7.390
 3653POPC   C1B46963  24.129  20.631   6.175
 3653POPC   C2B46964  23.997  20.643   6.576
 3653POPC   C3B46965  24.191  20.524   6.942
 3653POPC   C4B46966  24.132  20.345   7.327
 3654POPC   NC346967  14.225  23.054   5.355
 3654POPC   PO446968  14.782  23.226   5.544
 3654POPC   GL146969  14.527  22.887   5.742
 3654POPC   GL246970  14.199  23.037   5.859
 3654POPC   C1A46971  14.519  22.626   6.123
 3654POPC   D2A46972  14.676  22.784   6.518
 3654POPC   C3A46973  14.428  22.711   6.902
 3654POPC   C4A46974  14.480  22.795   7.321
 3654POPC   C1B46975  14.476  23.145   6.210
 3654POPC   C2B46976  14.319  23.138   6.638
 3654POPC   C3B46977  14.386  23.252   7.067
 3654POPC   C4B46978  14.144  23.376   7.413
 3655POPC   NC346979  36.511  27.007   5.142
 3655POPC   PO446980  37.101  26.971   5.419
 3655POPC   GL146981  36.850  26.695   5.663
 3655POPC   GL246982  37.054  26.395   5.675
 3655POPC   C1A46983  36.834  26.656   6.120
 3655POPC   D2A46984  37.042  26.769   6.528
 3655POPC   C3A46985  36.785  26.912   6.882
 3655POPC   C4A46986  36.869  26.865   7.302
 3655POPC   C1B46987  37.170  26.276   6.112
 3655POPC   C2B46988  37.152  26.262   6.579
 3655POPC   C3B46989  37.090  26.485   7.008
 3655POPC   C4B46990  37.102  26.434   7.492
 3656POPC   NC346991   5.209  20.209   5.402
 3656POPC   PO446992   4.819  20.748   5.450
 3656POPC   GL146993   4.973  20.811   5.844
 3656POPC   GL246994   5.216  20.544   5.806
 3656POPC   C1A46995   5.184  20.873   6.237
 3656POPC   D2A46996   5.324  20.775   6.638
 3656POPC   C3A46997   5.004  20.910   6.929
 3656POPC   C4A46998   4.871  20.889   7.322
 3656POPC   C1B46999   5.389  20.399   6.191
 3656POPC   C2B47000   5.214  20.273   6.581
 3656POPC   C3B47001   5.026  20.410   6.975
 3656POPC   C4B47002   4.939  20.278   7.360
 3657POPC   NC347003  26.446  24.688   5.299
 3657POPC   PO447004  25.854  24.301   5.270
 3657POPC   GL147005  25.968  24.393   5.719
 3657POPC   GL247006  26.272  24.574   5.772
 3657POPC   C1A47007  26.049  24.255   6.185
 3657POPC   D2A47008  25.968  24.493   6.589
 3657POPC   C3A47009  26.081  24.347   7.018
 3657POPC   C4A47010  25.861  24.425   7.413
 3657POPC   C1B47011  26.045  24.755   6.120
 3657POPC   C2B47012  26.323  24.833   6.423
 3657POPC   C3B47013  26.274  24.843   6.855
 3657POPC   C4B47014  26.032  24.864   7.222
 3658POPC   NC347015  21.955  35.200   5.320
 3658POPC   PO447016  22.671  35.164   5.448
 3658POPC   GL147017  22.310  35.170   5.693
 3658POPC   GL247018  22.189  35.497   5.684
 3658POPC   C1A47019  22.123  35.161   6.100
 3658POPC   D2A47020  21.934  35.153   6.509
 3658POPC   C3A47021  22.142  35.032   6.862
 3658POPC   C4A47022  22.122  35.184   7.254
 3658POPC   C1B47023  22.011  35.679   6.072
 3658POPC   C2B47024  21.836  35.657   6.509
 3658POPC   C3B47025  21.962  35.534   6.919
 3658POPC   C4B47026  22.239  35.701   7.258
 3659POPC   NC347027  29.814   7.802   5.243
 3659POPC   PO447028  29.775   7.194   5.471
 3659POPC   GL147029  29.988   7.394   5.829
 3659POPC   GL247030  30.226   7.686   5.751
 3659POPC   C1A47031  29.942   7.259   6.276
 3659POPC   D2A47032  29.703   7.043   6.600
 3659POPC   C3A47033  29.604   7.216   6.971
 3659POPC   C4A47034  29.800   7.183   7.418
 3659POPC   C1B47035  30.120   7.743   6.211
 3659POPC   C2B47036  29.899   7.640   6.642
 3659POPC   C3B47037  29.925   7.573   7.107
 3659POPC   C4B47038  30.258   7.389   7.361
 3660POPC   NC347039  22.873   9.743   5.261
 3660POPC   PO447040  22.953   9.223   5.612
 3660POPC   GL147041  22.916   9.538   5.932
 3660POPC   GL247042  22.889   9.864   5.797
 3660POPC   C1A47043  22.866   9.705   6.354
 3660POPC   D2A47044  22.677   9.548   6.729
 3660POPC   C3A47045  22.968   9.456   7.067
 3660POPC   C4A47046  23.102   9.398   7.509
 3660POPC   C1B47047  22.582  10.060   6.113
 3660POPC   C2B47048  22.618  10.156   6.570
 3660POPC   C3B47049  22.849   9.972   6.934
 3660POPC   C4B47050  22.875  10.053   7.360
 3661POPC   NC347051  31.501  23.350   5.152
 3661POPC   PO447052  31.339  22.732   5.408
 3661POPC   GL147053  31.488  22.974   5.766
 3661POPC   GL247054  31.807  22.905   5.676
 3661POPC   C1A47055  31.383  23.086   6.212
 3661POPC   D2A47056  31.164  22.897   6.590
 3661POPC   C3A47057  31.345  22.964   6.988
 3661POPC   C4A47058  31.695  22.963   7.239
 3661POPC   C1B47059  31.814  22.777   6.133
 3661POPC   C2B47060  31.665  22.787   6.562
 3661POPC   C3B47061  31.686  22.524   6.897
 3661POPC   C4B47062  31.891  22.486   7.275
 3662POPC   NC347063  19.680  23.855   5.013
 3662POPC   PO447064  19.889  23.452   5.343
 3662POPC   GL147065  19.674  23.619   5.697
 3662POPC   GL247066  19.973  23.679   5.889
 3662POPC   C1A47067  19.564  23.659   6.137
 3662POPC   D2A47068  19.743  23.489   6.487
 3662POPC   C3A47069  19.596  23.578   6.890
 3662POPC   C4A47070  19.785  23.733   7.257
 3662POPC   C1B47071  20.063  23.868   6.299
 3662POPC   C2B47072  19.973  23.923   6.760
 3662POPC   C3B47073  20.152  24.065   7.155
 3662POPC   C4B47074  20.242  23.814   7.558
 3663POPC   NC347075  34.484  12.137   5.123
 3663POPC   PO447076  35.084  11.989   5.403
 3663POPC   GL147077  34.787  11.949   5.828
 3663POPC   GL247078  34.487  12.087   5.719
 3663POPC   C1A47079  34.557  11.842   6.223
 3663POPC   D2A47080  34.325  11.870   6.620
 3663POPC   C3A47081  34.658  11.817   6.919
 3663POPC   C4A47082  34.576  11.691   7.335
 3663POPC   C1B47083  34.389  12.305   6.122
 3663POPC   C2B47084  34.572  12.306   6.537
 3663POPC   C3B47085  34.373  12.416   6.908
 3663POPC   C4B47086  34.278  12.081   7.142
 3664POPC   NC347087   3.963  40.749   5.415
 3664POPC   PO447088   3.374  41.046   5.288
 3664POPC   GL147089   3.343  40.982   5.729
 3664POPC   GL247090   3.518  40.701   5.784
 3664POPC   C1A47091   3.291  41.005   6.163
 3664POPC   D2A47092   3.389  40.775   6.525
 3664POPC   C3A47093   3.609  40.860   6.890
 3664POPC   C4A47094   3.581  40.663   7.295
 3664POPC   C1B47095   3.777  40.716   6.172
 3664POPC   C2B47096   3.784  40.469   6.558
 3664POPC   C3B47097   3.982  40.485   6.921
 3664POPC   C4B47098   4.013  40.393   7.337
 3665POPC   NC347099  11.691   2.932   5.361
 3665POPC   PO447100  12.285   2.590   5.385
 3665POPC   GL147101  12.184   2.684   5.795
 3665POPC   GL247102  11.812   2.709   5.841
 3665POPC   C1A47103  12.192   2.590   6.232
 3665POPC   D2A47104  11.844   2.633   6.452
 3665POPC   C3A47105  11.888   2.644   6.883
 3665POPC   C4A47106  12.118   2.747   7.238
 3665POPC   C1B47107  11.955   3.045   6.106
 3665POPC   C2B47108  12.215   3.110   6.448
 3665POPC   C3B47109  12.257   3.076   6.881
 3665POPC   C4B47110  12.281   3.233   7.317
 3666POPC   NC347111  29.351   9.161   5.373
 3666POPC   PO447112  29.212   8.543   5.333
 3666POPC   GL147113  29.136   8.705   5.747
 3666POPC   GL247114  29.023   9.050   5.770
 3666POPC   C1A47115  29.199   8.751   6.203
 3666POPC   D2A47116  29.340   8.763   6.647
 3666POPC   C3A47117  28.974   8.848   6.941
 3666POPC   C4A47118  28.992   8.847   7.388
 3666POPC   C1B47119  29.130   9.256   6.161
 3666POPC   C2B47120  29.092   9.219   6.600
 3666POPC   C3B47121  29.157   9.328   7.036
 3666POPC   C4B47122  29.111   9.317   7.493
 3667POPC   NC347123   8.671  25.532   5.697
 3667POPC   PO447124   8.157  25.204   5.431
 3667POPC   GL147125   8.138  25.223   5.828
 3667POPC   GL247126   8.434  25.048   5.822
 3667POPC   C1A47127   8.120  25.340   6.230
 3667POPC   D2A47128   8.377  25.447   6.584
 3667POPC   C3A47129   8.125  25.615   6.891
 3667POPC   C4A47130   8.301  25.473   7.229
 3667POPC   C1B47131   8.495  24.915   6.182
 3667POPC   C2B47132   8.276  24.943   6.537
 3667POPC   C3B47133   8.099  25.104   6.883
 3667POPC   C4B47134   7.906  25.137   7.297
 3668POPC   NC347135  29.837  40.294   5.007
 3668POPC   PO447136  29.902  40.841   5.302
 3668POPC   GL147137  29.923  40.748   5.703
 3668POPC   GL247138  30.062  41.046   5.839
 3668POPC   C1A47139  29.765  40.728   6.125
 3668POPC   D2A47140  29.890  40.846   6.545
 3668POPC   C3A47141  29.689  40.683   6.914
 3668POPC   C4A47142  29.937  40.489   7.220
 3668POPC   C1B47143  30.288  41.017   6.249
 3668POPC   C2B47144  30.412  41.082   6.676
 3668POPC   C3B47145  30.112  40.988   6.986
 3668POPC   C4B47146  29.845  40.968   7.330
 3669POPC   NC347147   1.364   6.856   5.187
 3669POPC   PO447148   0.829   6.441   5.342
 3669POPC   GL147149   1.124   6.525   5.722
 3669POPC   GL247150   1.488   6.669   5.691
 3669POPC   C1A47151   1.021   6.751   6.124
 3669POPC   D2A47152   0.971   6.922   6.540
 3669POPC   C3A47153   0.888   6.631   6.874
 3669POPC   C4A47154   1.060   6.738   7.260
 3669POPC   C1B47155   1.528   6.833   6.120
 3669POPC   C2B47156   1.476   6.657   6.525
 3669POPC   C3B47157   1.455   6.584   6.947
 3669POPC   C4B47158   1.573   6.882   7.249
 3670POPC   NC347159   5.634  29.686   5.535
 3670POPC   PO447160   6.020  30.340   5.484
 3670POPC   GL147161   5.863  30.088   5.818
 3670POPC   GL247162   5.520  30.248   5.818
 3670POPC   C1A47163   5.930  29.813   6.200
 3670POPC   D2A47164   6.138  29.612   6.567
 3670POPC   C3A47165   6.212  29.771   6.972
 3670POPC   C4A47166   6.111  29.680   7.399
 3670POPC   C1B47167   5.630  30.263   6.257
 3670POPC   C2B47168   5.565  29.958   6.599
 3670POPC   C3B47169   5.687  29.816   7.021
 3670POPC   C4B47170   5.573  30.122   7.355
 3671POPC   NC347171  24.318  13.722   5.505
 3671POPC   PO447172  24.894  13.478   5.249
 3671POPC   GL147173  24.727  13.479   5.735
 3671POPC   GL247174  24.660  13.854   5.863
 3671POPC   C1A47175  24.424  13.326   6.133
 3671POPC   D2A47176  24.159  13.363   6.568
 3671POPC   C3A47177  24.364  13.346   6.985
 3671POPC   C4A47178  24.782  13.553   7.043
 3671POPC   C1B47179  24.355  13.836   6.210
 3671POPC   C2B47180  24.143  13.885   6.633
 3671POPC   C3B47181  24.191  13.869   7.086
 3671POPC   C4B47182  24.138  13.983   7.516
 3672POPC   NC347183  22.241  30.924   5.341
 3672POPC   PO447184  22.597  30.429   5.705
 3672POPC   GL147185  22.392  30.814   5.824
 3672POPC   GL247186  22.040  30.756   5.865
 3672POPC   C1A47187  22.358  30.917   6.250
 3672POPC   D2A47188  21.974  30.840   6.499
 3672POPC   C3A47189  21.930  30.761   6.937
 3672POPC   C4A47190  21.848  30.927   7.335
 3672POPC   C1B47191  22.143  30.449   6.198
 3672POPC   C2B47192  22.337  30.439   6.604
 3672POPC   C3B47193  22.345  30.476   7.041
 3672POPC   C4B47194  22.094  30.376   7.380
 3673POPC   NC347195  21.658  30.118   5.228
 3673POPC   PO447196  21.282  29.627   5.295
 3673POPC   GL147197  21.304  29.917   5.644
 3673POPC   GL247198  21.600  29.763   5.789
 3673POPC   C1A47199  21.252  29.973   6.105
 3673POPC   D2A47200  21.539  29.904   6.463
 3673POPC   C3A47201  21.378  30.043   6.850
 3673POPC   C4A47202  21.170  30.189   7.232
 3673POPC   C1B47203  21.420  29.493   6.173
 3673POPC   C2B47204  21.275  29.513   6.651
 3673POPC   C3B47205  21.300  29.614   7.116
 3673POPC   C4B47206  20.955  29.486   7.372
 3674POPC   NC347207  21.525  31.264   5.126
 3674POPC   PO447208  21.175  31.922   5.313
 3674POPC   GL147209  21.291  31.770   5.809
 3674POPC   GL247210  21.464  31.430   5.970
 3674POPC   C1A47211  21.131  31.684   6.264
 3674POPC   D2A47212  21.141  31.951   6.637
 3674POPC   C3A47213  21.459  31.900   6.961
 3674POPC   C4A47214  21.439  31.666   7.333
 3674POPC   C1B47215  21.164  31.167   6.229
 3674POPC   C2B47216  21.125  31.205   6.667
 3674POPC   C3B47217  21.444  31.067   6.944
 3674POPC   C4B47218  21.361  31.126   7.331
 3675POPC   NC347219  43.590   0.289   5.434
 3675POPC   PO447220  44.226   0.546   5.502
 3675POPC   GL147221  44.135   0.364   5.873
 3675POPC   GL247222  43.780   0.403   5.892
 3675POPC   C1A47223  44.100   0.387   6.298
 3675POPC   D2A47224  44.169   0.651   6.636
 3675POPC   C3A47225  44.103   0.462   7.024
 3675POPC   C4A47226  43.994   0.344   7.460
 3675POPC   C1B47227  43.630   0.570   6.295
 3675POPC   C2B47228  43.728   0.297   6.648
 3675POPC   C3B47229  43.634   0.190   7.051
 3675POPC   C4B47230  43.645   0.585   7.223
 3676POPC   NC347231  10.647  41.071   5.351
 3676POPC   PO447232  10.124  40.669   5.529
 3676POPC   GL147233  10.360  40.924   5.826
 3676POPC   GL247234  10.728  40.954   5.830
 3676POPC   C1A47235  10.423  41.040   6.261
 3676POPC   D2A47236  10.658  41.148   6.607
 3676POPC   C3A47237  10.502  40.952   6.968
 3676POPC   C4A47238  10.326  40.713   7.313
 3676POPC   C1B47239  10.880  40.833   6.221
 3676POPC   C2B47240  10.695  40.628   6.564
 3676POPC   C3B47241  10.502  40.441   6.906
 3676POPC   C4B47242  10.736  40.386   7.298
 3677POPC   NC347243  30.000  43.489   5.308
 3677POPC   PO447244  30.258  42.882   5.408
 3677POPC   GL147245  29.958  43.025   5.758
 3677POPC   GL247246  29.972  43.363   5.819
 3677POPC   C1A47247  29.639  43.058   6.102
 3677POPC   D2A47248  29.730  43.242   6.541
 3677POPC   C3A47249  29.717  42.960   6.914
 3677POPC   C4A47250  29.749  43.178   7.317
 3677POPC   C1B47251  30.119  43.151   6.222
 3677POPC   C2B47252  30.205  43.015   6.623
 3677POPC   C3B47253  30.139  43.241   6.997
 3677POPC   C4B47254  30.244  43.166   7.420
 3678POPC   NC347255  30.677   9.806   5.384
 3678POPC   PO447256  31.143   9.936   5.792
 3678POPC   GL147257  30.776   9.670   5.883
 3678POPC   GL247258  30.445   9.505   5.799
 3678POPC   C1A47259  30.803   9.618   6.302
 3678POPC   D2A47260  30.962   9.895   6.621
 3678POPC   C3A47261  30.846   9.752   7.010
 3678POPC   C4A47262  30.637  10.072   7.255
 3678POPC   C1B47263  30.312   9.720   6.189
 3678POPC   C2B47264  30.426   9.839   6.628
 3678POPC   C3B47265  30.346   9.687   7.052
 3678POPC   C4B47266  30.574   9.611   7.466
 3679POPC   NC347267  18.929   9.246   5.363
 3679POPC   PO447268  19.244   8.649   5.380
 3679POPC   GL147269  19.155   8.929   5.742
 3679POPC   GL247270  19.289   8.750   6.007
 3679POPC   C1A47271  18.961   9.085   6.192
 3679POPC   D2A47272  19.007   9.185   6.682
 3679POPC   C3A47273  18.806   8.879   6.979
 3679POPC   C4A47274  18.887   8.636   7.382
 3679POPC   C1B47275  19.292   8.781   6.468
 3679POPC   C2B47276  19.294   8.700   6.912
 3679POPC   C3B47277  19.276   8.997   7.249
 3679POPC   C4B47278  19.449   9.423   7.239
 3680POPC   NC347279  31.130   8.749   5.542
 3680POPC   PO447280  30.820   9.353   5.439
 3680POPC   GL147281  30.828   9.128   5.821
 3680POPC   GL247282  30.482   8.990   5.833
 3680POPC   C1A47283  30.828   8.757   6.115
 3680POPC   D2A47284  30.852   8.537   6.484
 3680POPC   C3A47285  30.849   8.818   6.835
 3680POPC   C4A47286  31.016   8.876   7.242
 3680POPC   C1B47287  30.526   9.193   6.269
 3680POPC   C2B47288  30.654   9.358   6.711
 3680POPC   C3B47289  30.621   9.203   7.122
 3680POPC   C4B47290  30.500   8.758   7.238
 3681POPC   NC347291  21.542  36.162   5.126
 3681POPC   PO447292  21.002  36.159   5.535
 3681POPC   GL147293  21.379  36.228   5.805
 3681POPC   GL247294  21.644  35.976   5.706
 3681POPC   C1A47295  21.438  36.394   6.250
 3681POPC   D2A47296  21.389  36.461   6.706
 3681POPC   C3A47297  21.141  36.169   6.972
 3681POPC   C4A47298  21.241  36.002   7.387
 3681POPC   C1B47299  21.502  35.837   6.134
 3681POPC   C2B47300  21.341  35.905   6.562
 3681POPC   C3B47301  21.482  35.747   6.961
 3681POPC   C4B47302  21.724  35.804   7.334
 3682POPC   NC347303  28.914  44.923   5.401
 3682POPC   PO447304  29.312  44.362   5.360
 3682POPC   GL147305  29.268  44.647   5.766
 3682POPC   GL247306  29.035  44.949   5.902
 3682POPC   C1A47307  29.123  44.553   6.219
 3682POPC   D2A47308  28.876  44.596   6.619
 3682POPC   C3A47309  29.123  44.397   6.952
 3682POPC   C4A47310  29.546  44.353   7.080
 3682POPC   C1B47311  29.249   0.073   6.296
 3682POPC   C2B47312  29.420  44.916   6.701
 3682POPC   C3B47313  29.401  44.831   7.147
 3682POPC   C4B47314  28.998  44.743   7.325
 3683POPC   NC347315  29.712  40.178   5.511
 3683POPC   PO447316  30.095  39.665   5.316
 3683POPC   GL147317  30.121  39.913   5.740
 3683POPC   GL247318  30.055  40.282   5.860
 3683POPC   C1A47319  30.244  39.966   6.185
 3683POPC   D2A47320  29.993  40.030   6.593
 3683POPC   C3A47321  30.158  40.063   7.017
 3683POPC   C4A47322  30.098  39.829   7.384
 3683POPC   C1B47323  29.740  40.214   6.183
 3683POPC   C2B47324  29.548  40.295   6.583
 3683POPC   C3B47325  29.618  40.148   7.020
 3683POPC   C4B47326  29.676  40.112   7.492
 3684POPC   NC347327  21.137  23.072   5.442
 3684POPC   PO447328  21.750  23.079   5.466
 3684POPC   GL147329  21.469  22.875   5.795
 3684POPC   GL247330  21.118  22.918   5.917
 3684POPC   C1A47331  21.495  22.683   6.188
 3684POPC   D2A47332  21.505  22.927   6.554
 3684POPC   C3A47333  21.793  22.964   6.890
 3684POPC   C4A47334  21.669  23.223   7.226
 3684POPC   C1B47335  21.006  22.814   6.334
 3684POPC   C2B47336  21.156  22.571   6.639
 3684POPC   C3B47337  21.316  22.723   7.012
 3684POPC   C4B47338  21.127  23.084   7.205
 3685POPC   NC347339  15.258  42.880   5.409
 3685POPC   PO447340  14.860  43.456   5.377
 3685POPC   GL147341  14.967  43.188   5.743
 3685POPC   GL247342  15.293  43.252   5.833
 3685POPC   C1A47343  15.002  43.000   6.184
 3685POPC   D2A47344  15.170  42.925   6.645
 3685POPC   C3A47345  15.060  43.150   7.036
 3685POPC   C4A47346  14.890  43.105   7.421
 3685POPC   C1B47347  15.493  43.080   6.231
 3685POPC   C2B47348  15.656  43.088   6.658
 3685POPC   C3B47349  15.556  43.165   7.091
 3685POPC   C4B47350  15.714  43.024   7.496
 3686POPC   NC347351  34.348  27.146   5.156
 3686POPC   PO447352  34.755  27.614   5.477
 3686POPC   GL147353  34.653  27.782   5.872
 3686POPC   GL247354  34.421  27.989   5.753
 3686POPC   C1A47355  34.806  27.863   6.300
 3686POPC   D2A47356  34.873  27.724   6.731
 3686POPC   C3A47357  34.576  27.422   6.867
 3686POPC   C4A47358  34.542  27.371   7.291
 3686POPC   C1B47359  34.311  28.015   6.208
 3686POPC   C2B47360  34.385  27.906   6.655
 3686POPC   C3B47361  34.418  27.854   7.103
 3686POPC   C4B47362  34.421  27.947   7.548
 3687POPC   NC347363  26.999  26.506   5.171
 3687POPC   PO447364  26.922  25.915   5.414
 3687POPC   GL147365  26.934  26.092   5.879
 3687POPC   GL247366  26.788  26.409   5.814
 3687POPC   C1A47367  26.894  26.065   6.361
 3687POPC   D2A47368  26.508  25.889   6.593
 3687POPC   C3A47369  26.604  25.719   7.007
 3687POPC   C4A47370  26.885  25.761   7.358
 3687POPC   C1B47371  26.767  26.576   6.255
 3687POPC   C2B47372  26.933  26.463   6.688
 3687POPC   C3B47373  27.014  26.174   7.029
 3687POPC   C4B47374  26.897  26.253   7.465
 3688POPC   NC347375  17.399  24.329   5.464
 3688POPC   PO447376  17.742  24.884   5.295
 3688POPC   GL147377  17.749  24.667   5.752
 3688POPC   GL247378  17.554  24.375   5.938
 3688POPC   C1A47379  17.825  24.667   6.246
 3688POPC   D2A47380  17.586  24.478   6.529
 3688POPC   C3A47381  17.760  24.436   6.920
 3688POPC   C4A47382  17.647  24.279   7.293
 3688POPC   C1B47383  17.146  24.395   6.174
 3688POPC   C2B47384  17.082  24.611   6.563
 3688POPC   C3B47385  17.235  24.360   6.891
 3688POPC   C4B47386  17.174  24.101   7.266
 3689POPC   NC347387  38.676  40.172   5.356
 3689POPC   PO447388  38.209  39.726   5.284
 3689POPC   GL147389  38.356  39.844   5.674
 3689POPC   GL247390  38.463  39.548   5.822
 3689POPC   C1A47391  38.540  40.048   6.038
 3689POPC   D2A47392  38.408  40.202   6.446
 3689POPC   C3A47393  38.595  40.069   6.822
 3689POPC   C4A47394  38.544  40.192   7.240
 3689POPC   C1B47395  38.206  39.683   6.195
 3689POPC   C2B47396  38.146  39.781   6.635
 3689POPC   C3B47397  38.151  39.883   7.067
 3689POPC   C4B47398  38.292  39.824   7.494
 3690POPC   NC347399  22.172  41.291   5.591
 3690POPC   PO447400  22.115  40.640   5.279
 3690POPC   GL147401  22.051  40.737   5.686
 3690POPC   GL247402  22.286  40.466   5.742
 3690POPC   C1A47403  21.837  40.802   6.104
 3690POPC   D2A47404  21.975  40.681   6.529
 3690POPC   C3A47405  21.874  40.911   6.910
 3690POPC   C4A47406  21.898  41.190   7.260
 3690POPC   C1B47407  22.353  40.732   6.122
 3690POPC   C2B47408  22.475  40.862   6.530
 3690POPC   C3B47409  22.339  40.688   6.910
 3690POPC   C4B47410  22.244  40.826   7.283
 3691POPC   NC347411  24.025  33.297   5.450
 3691POPC   PO447412  23.417  32.970   5.559
 3691POPC   GL147413  23.650  33.105   5.902
 3691POPC   GL247414  23.943  32.907   5.803
 3691POPC   C1A47415  23.574  33.198   6.360
 3691POPC   D2A47416  23.449  33.172   6.816
 3691POPC   C3A47417  23.744  33.364   7.107
 3691POPC   C4A47418  24.144  33.185   7.245
 3691POPC   C1B47419  23.929  32.833   6.249
 3691POPC   C2B47420  24.025  32.677   6.665
 3691POPC   C3B47421  23.831  32.843   7.055
 3691POPC   C4B47422  23.937  32.752   7.507
 3692POPC   NC347423   7.962  43.345   5.454
 3692POPC   PO447424   8.414  42.708   5.476
 3692POPC   GL147425   8.201  42.966   5.803
 3692POPC   GL247426   8.285  43.328   5.850
 3692POPC   C1A47427   8.313  42.989   6.256
 3692POPC   D2A47428   8.261  42.693   6.605
 3692POPC   C3A47429   8.111  42.783   7.038
 3692POPC   C4A47430   8.429  42.810   7.358
 3692POPC   C1B47431   7.936  43.329   6.173
 3692POPC   C2B47432   7.933  43.124   6.603
 3692POPC   C3B47433   8.162  43.286   6.957
 3692POPC   C4B47434   8.093  43.577   7.277
 3693POPC   NC347435  33.094   6.271   5.582
 3693POPC   PO447436  33.074   6.948   5.353
 3693POPC   GL147437  33.099   6.746   5.784
 3693POPC   GL247438  32.819   6.838   5.946
 3693POPC   C1A47439  33.074   6.440   6.200
 3693POPC   D2A47440  32.977   6.172   6.554
 3693POPC   C3A47441  32.855   6.392   6.930
 3693POPC   C4A47442  33.082   6.479   7.354
 3693POPC   C1B47443  33.166   6.935   6.243
 3693POPC   C2B47444  33.241   6.764   6.628
 3693POPC   C3B47445  33.102   6.855   7.016
 3693POPC   C4B47446  33.218   6.975   7.428
 3694POPC   NC347447  18.426  19.375   5.453
 3694POPC   PO447448  18.023  18.867   5.297
 3694POPC   GL147449  18.190  19.020   5.717
 3694POPC   GL247450  18.548  18.974   5.781
 3694POPC   C1A47451  18.208  19.233   6.119
 3694POPC   D2A47452  18.339  19.087   6.553
 3694POPC   C3A47453  18.148  18.831   6.867
 3694POPC   C4A47454  18.206  19.126   7.211
 3694POPC   C1B47455  18.404  18.763   6.168
 3694POPC   C2B47456  18.600  18.657   6.560
 3694POPC   C3B47457  18.642  18.810   6.975
 3694POPC   C4B47458  18.418  18.648   7.330
 3695POPC   NC347459  37.313  28.077   5.549
 3695POPC   PO447460  37.757  27.742   5.128
 3695POPC   GL147461  37.649  27.654   5.601
 3695POPC   GL247462  37.771  27.315   5.684
 3695POPC   C1A47463  37.602  27.600   6.087
 3695POPC   D2A47464  37.677  27.398   6.502
 3695POPC   C3A47465  37.625  27.567   6.983
 3695POPC   C4A47466  37.802  27.774   7.411
 3695POPC   C1B47467  38.081  27.417   5.996
 3695POPC   C2B47468  38.180  27.499   6.414
 3695POPC   C3B47469  38.070  27.359   6.810
 3695POPC   C4B47470  38.058  27.339   7.218
 3696POPC   NC347471   5.178  16.077   5.512
 3696POPC   PO447472   4.642  15.569   5.439
 3696POPC   GL147473   4.803  15.834   5.742
 3696POPC   GL247474   5.151  15.712   5.854
 3696POPC   C1A47475   4.847  16.124   6.097
 3696POPC   D2A47476   4.810  15.989   6.528
 3696POPC   C3A47477   5.076  16.053   6.896
 3696POPC   C4A47478   4.806  16.003   7.244
 3696POPC   C1B47479   5.319  15.944   6.200
 3696POPC   C2B47480   5.278  15.718   6.549
 3696POPC   C3B47481   5.395  15.626   6.945
 3696POPC   C4B47482   5.268  15.772   7.314
 3697POPC   NC347483   1.257  16.283   5.445
 3697POPC   PO447484   1.071  15.634   5.312
 3697POPC   GL147485   1.021  15.898   5.733
 3697POPC   GL247486   0.824  16.227   5.748
 3697POPC   C1A47487   1.266  16.139   6.097
 3697POPC   D2A47488   1.506  16.200   6.510
 3697POPC   C3A47489   1.475  15.842   6.820
 3697POPC   C4A47490   1.364  15.711   7.238
 3697POPC   C1B47491   0.780  16.015   6.178
 3697POPC   C2B47492   0.980  16.213   6.545
 3697POPC   C3B47493   1.187  16.243   6.952
 3697POPC   C4B47494   0.917  15.983   7.221
 3698POPC   NC347495  12.246  31.730   5.511
 3698POPC   PO447496  11.812  31.189   5.407
 3698POPC   GL147497  12.068  31.323   5.778
 3698POPC   GL247498  12.395  31.183   5.874
 3698POPC   C1A47499  11.966  31.498   6.155
 3698POPC   D2A47500  11.715  31.392   6.479
 3698POPC   C3A47501  11.909  31.263   6.864
 3698POPC   C4A47502  12.012  31.526   7.201
 3698POPC   C1B47503  12.455  31.447   6.238
 3698POPC   C2B47504  12.335  31.567   6.673
 3698POPC   C3B47505  12.488  31.430   7.066
 3698POPC   C4B47506  12.469  31.425   7.547
 3699POPC   NC347507  40.650   0.889   5.525
 3699POPC   PO447508  40.899   1.503   5.484
 3699POPC   GL147509  40.877   1.379   5.923
 3699POPC   GL247510  40.914   1.026   5.943
 3699POPC   C1A47511  40.754   1.271   6.364
 3699POPC   D2A47512  40.751   1.418   6.787
 3699POPC   C3A47513  40.672   1.111   7.097
 3699POPC   C4A47514  40.739   1.048   7.558
 3699POPC   C1B47515  41.214   1.038   6.284
 3699POPC   C2B47516  41.268   1.189   6.696
 3699POPC   C3B47517  41.189   1.017   7.094
 3699POPC   C4B47518  41.060   1.363   7.326
 3700POPC   NC347519   7.897  25.919   5.375
 3700POPC   PO447520   8.484  26.258   5.261
 3700POPC   GL147521   8.235  26.145   5.664
 3700POPC   GL247522   8.210  25.773   5.796
 3700POPC   C1A47523   8.003  26.182   6.049
 3700POPC   D2A47524   7.809  26.082   6.455
 3700POPC   C3A47525   7.921  26.098   6.905
 3700POPC   C4A47526   8.131  25.950   7.294
 3700POPC   C1B47527   8.302  25.840   6.265
 3700POPC   C2B47528   8.435  25.968   6.690
 3700POPC   C3B47529   8.608  25.874   7.106
 3700POPC   C4B47530   8.531  25.814   7.566
 3701POPC   NC347531  15.456  36.740   5.358
 3701POPC   PO447532  14.855  37.071   5.485
 3701POPC   GL147533  15.252  37.030   5.747
 3701POPC   GL247534  15.187  36.668   5.803
 3701POPC   C1A47535  15.409  37.124   6.175
 3701POPC   D2A47536  15.034  36.983   6.437
 3701POPC   C3A47537  15.019  36.938   6.887
 3701POPC   C4A47538  14.749  36.973   7.239
 3701POPC   C1B47539  15.355  36.629   6.212
 3701POPC   C2B47540  15.490  36.830   6.622
 3701POPC   C3B47541  15.458  36.588   7.022
 3701POPC   C4B47542  15.470  36.554   7.502
 3702POPC   NC347543   8.133  23.915   5.290
 3702POPC   PO447544   8.022  23.240   5.448
 3702POPC   GL147545   8.017  23.614   5.745
 3702POPC   GL247546   8.379  23.705   5.718
 3702POPC   C1A47547   8.103  23.965   6.081
 3702POPC   D2A47548   8.399  24.066   6.455
 3702POPC   C3A47549   8.313  23.793   6.806
 3702POPC   C4A47550   8.043  23.711   7.180
 3702POPC   C1B47551   8.560  23.676   6.137
 3702POPC   C2B47552   8.598  23.393   6.473
 3702POPC   C3B47553   8.504  23.314   6.904
 3702POPC   C4B47554   8.564  23.599   7.216
 3703POPC   NC347555   1.019  29.199   5.464
 3703POPC   PO447556   1.663  29.095   5.274
 3703POPC   GL147557   1.442  29.072   5.696
 3703POPC   GL247558   1.269  28.748   5.657
 3703POPC   C1A47559   1.360  29.311   6.111
 3703POPC   D2A47560   1.325  29.559   6.522
 3703POPC   C3A47561   1.361  29.343   6.900
 3703POPC   C4A47562   1.091  29.307   7.249
 3703POPC   C1B47563   1.222  28.804   6.103
 3703POPC   C2B47564   1.293  28.984   6.514
 3703POPC   C3B47565   1.044  28.930   6.893
 3703POPC   C4B47566   1.079  28.742   7.296
 3704POPC   NC347567  30.721  16.566   5.177
 3704POPC   PO447568  30.845  15.954   5.415
 3704POPC   GL147569  30.832  15.904   5.860
 3704POPC   GL247570  30.994  15.597   5.861
 3704POPC   C1A47571  30.708  15.777   6.282
 3704POPC   D2A47572  30.476  15.721   6.678
 3704POPC   C3A47573  30.664  15.942   6.966
 3704POPC   C4A47574  30.754  16.088   7.398
 3704POPC   C1B47575  31.210  15.657   6.286
 3704POPC   C2B47576  31.168  15.857   6.707
 3704POPC   C3B47577  31.091  15.769   7.134
 3704POPC   C4B47578  31.102  15.750   7.568
 3705POPC   NC347579  24.134  30.141   4.967
 3705POPC   PO447580  24.551  30.105   5.487
 3705POPC   GL147581  24.520  29.865   5.841
 3705POPC   GL247582  24.331  30.065   6.019
 3705POPC   C1A47583  24.691  29.756   6.236
 3705POPC   D2A47584  24.438  29.914   6.540
 3705POPC   C3A47585  24.441  29.699   6.900
 3705POPC   C4A47586  24.795  29.746   7.185
 3705POPC   C1B47587  24.676  30.273   6.243
 3705POPC   C2B47588  24.856  30.159   6.620
 3705POPC   C3B47589  24.587  30.185   6.951
 3705POPC   C4B47590  24.668  30.525   7.157
 3706POPC   NC347591   7.804  24.495   5.426
 3706POPC   PO447592   8.426  24.241   5.438
 3706POPC   GL147593   8.218  24.414   5.825
 3706POPC   GL247594   8.025  24.723   5.813
 3706POPC   C1A47595   8.198  24.494   6.281
 3706POPC   D2A47596   8.269  24.499   6.761
 3706POPC   C3A47597   8.129  24.208   7.073
 3706POPC   C4A47598   8.413  24.041   7.399
 3706POPC   C1B47599   7.846  24.865   6.182
 3706POPC   C2B47600   7.815  24.679   6.577
 3706POPC   C3B47601   7.831  24.685   6.992
 3706POPC   C4B47602   8.069  24.653   7.309
 3707POPC   NC347603  37.211  14.307   5.517
 3707POPC   PO447604  37.797  14.465   5.455
 3707POPC   GL147605  37.564  14.526   5.823
 3707POPC   GL247606  37.285  14.771   5.907
 3707POPC   C1A47607  37.683  14.498   6.209
 3707POPC   D2A47608  37.637  14.714   6.564
 3707POPC   C3A47609  37.835  14.475   6.861
 3707POPC   C4A47610  37.689  14.338   7.286
 3707POPC   C1B47611  37.189  14.437   6.241
 3707POPC   C2B47612  37.268  14.347   6.707
 3707POPC   C3B47613  37.188  14.237   7.168
 3707POPC   C4B47614  37.385  14.079   7.597
 3708POPC   NC347615  18.143  21.042   5.377
 3708POPC   PO447616  18.426  21.589   5.567
 3708POPC   GL147617  18.546  21.306   5.877
 3708POPC   GL247618  18.490  20.978   5.767
 3708POPC   C1A47619  18.542  21.279   6.331
 3708POPC   D2A47620  18.300  21.483   6.653
 3708POPC   C3A47621  18.367  21.499   7.083
 3708POPC   C4A47622  18.437  21.775   7.406
 3708POPC   C1B47623  18.140  21.019   6.066
 3708POPC   C2B47624  18.090  21.026   6.503
 3708POPC   C3B47625  18.209  21.026   6.922
 3708POPC   C4B47626  18.032  21.173   7.304
 3709POPC   NC347627  32.757  37.739   5.576
 3709POPC   PO447628  33.311  37.559   5.364
 3709POPC   GL147629  33.369  37.732   5.772
 3709POPC   GL247630  33.386  37.416   5.876
 3709POPC   C1A47631  33.319  37.771   6.245
 3709POPC   D2A47632  33.502  37.766   6.680
 3709POPC   C3A47633  33.176  37.795   6.963
 3709POPC   C4A47634  32.832  37.850   7.194
 3709POPC   C1B47635  33.007  37.321   6.090
 3709POPC   C2B47636  32.984  37.182   6.493
 3709POPC   C3B47637  33.194  37.279   6.871
 3709POPC   C4B47638  33.011  37.391   7.254
 3710POPC   NC347639   6.891   4.241   5.428
 3710POPC   PO447640   6.248   4.297   5.166
 3710POPC   GL147641   6.424   4.332   5.676
 3710POPC   GL247642   6.694   4.154   5.905
 3710POPC   C1A47643   6.446   4.525   6.127
 3710POPC   D2A47644   6.694   4.327   6.468
 3710POPC   C3A47645   6.593   4.430   6.906
 3710POPC   C4A47646   6.253   4.390   7.227
 3710POPC   C1B47647   7.085   4.146   6.172
 3710POPC   C2B47648   7.117   4.074   6.631
 3710POPC   C3B47649   7.016   4.127   7.059
 3710POPC   C4B47650   6.654   4.078   7.286
 3711POPC   NC347651  37.335  20.843   5.372
 3711POPC   PO447652  37.802  20.442   5.549
 3711POPC   GL147653  37.589  20.704   5.789
 3711POPC   GL247654  37.339  20.444   5.842
 3711POPC   C1A47655  37.747  20.908   6.136
 3711POPC   D2A47656  37.953  20.737   6.507
 3711POPC   C3A47657  37.685  20.717   6.810
 3711POPC   C4A47658  37.617  21.038   7.070
 3711POPC   C1B47659  37.578  20.443   6.233
 3711POPC   C2B47660  37.697  20.204   6.554
 3711POPC   C3B47661  37.783  20.231   6.970
 3711POPC   C4B47662  37.541  20.429   7.254
 3712POPC   NC347663  35.174  10.747   5.375
 3712POPC   PO447664  35.665  10.260   5.485
 3712POPC   GL147665  35.380  10.443   5.778
 3712POPC   GL247666  35.284  10.810   5.865
 3712POPC   C1A47667  35.223  10.371   6.181
 3712POPC   D2A47668  34.993  10.520   6.524
 3712POPC   C3A47669  35.147  10.361   6.901
 3712POPC   C4A47670  35.455  10.429   7.189
 3712POPC   C1B47671  35.584  10.731   6.213
 3712POPC   C2B47672  35.577  10.563   6.631
 3712POPC   C3B47673  35.758  10.765   6.974
 3712POPC   C4B47674  35.882  10.648   7.369
 3713POPC   NC347675  44.340   9.784   5.399
 3713POPC   PO447676  44.854   9.349   5.354
 3713POPC   GL147677  44.781   9.583   5.713
 3713POPC   GL247678  44.489   9.458   5.879
 3713POPC   C1A47679  44.877   9.831   6.096
 3713POPC   D2A47680  44.716   9.831   6.526
 3713POPC   C3A47681  44.911   9.865   6.944
 3713POPC   C4A47682  44.708  10.162   7.220
 3713POPC   C1B47683  44.791   9.354   6.260
 3713POPC   C2B47684  44.873   9.378   6.722
 3713POPC   C3B47685  44.580   9.480   7.080
 3713POPC   C4B47686  44.369   9.354   7.478
 3714POPC   NC347687  11.755  11.559   5.595
 3714POPC   PO447688  12.234  11.852   5.155
 3714POPC   GL147689  12.211  11.911   5.677
 3714POPC   GL247690  12.217  12.284   5.805
 3714POPC   C1A47691  12.159  11.886   6.132
 3714POPC   D2A47692  12.331  12.100   6.518
 3714POPC   C3A47693  12.232  11.948   6.931
 3714POPC   C4A47694  12.060  11.818   7.310
 3714POPC   C1B47695  12.005  12.385   6.211
 3714POPC   C2B47696  11.862  12.309   6.645
 3714POPC   C3B47697  11.816  12.216   7.079
 3714POPC   C4B47698  12.062  12.338   7.458
 3715POPC   NC347699   5.377  25.620   5.443
 3715POPC   PO447700   4.884  25.263   5.391
 3715POPC   GL147701   5.079  25.165   5.801
 3715POPC   GL247702   5.328  25.410   5.884
 3715POPC   C1A47703   5.166  25.126   6.249
 3715POPC   D2A47704   5.032  24.916   6.563
 3715POPC   C3A47705   4.883  25.229   6.837
 3715POPC   C4A47706   4.934  25.152   7.274
 3715POPC   C1B47707   5.576  25.428   6.225
 3715POPC   C2B47708   5.561  25.178   6.583
 3715POPC   C3B47709   5.356  25.064   6.928
 3715POPC   C4B47710   5.425  25.094   7.320
 3716POPC   NC347711  10.825  13.538   5.506
 3716POPC   PO447712  10.210  13.837   5.478
 3716POPC   GL147713  10.264  13.573   5.859
 3716POPC   GL247714  10.579  13.572   5.947
 3716POPC   C1A47715  10.287  13.314   6.263
 3716POPC   D2A47716  10.561  13.287   6.639
 3716POPC   C3A47717  10.412  13.462   7.016
 3716POPC   C4A47718  10.315  13.759   7.354
 3716POPC   C1B47719  10.846  13.542   6.306
 3716POPC   C2B47720  10.801  13.777   6.693
 3716POPC   C3B47721  10.908  13.644   7.088
 3716POPC   C4B47722  10.998  13.231   7.079
 3717POPC   NC347723  27.389  19.133   5.227
 3717POPC   PO447724  27.963  18.941   5.210
 3717POPC   GL147725  27.705  19.023   5.602
 3717POPC   GL247726  27.617  18.745   5.806
 3717POPC   C1A47727  27.548  19.211   6.018
 3717POPC   D2A47728  27.457  18.980   6.404
 3717POPC   C3A47729  27.340  19.148   6.802
 3717POPC   C4A47730  27.270  19.007   7.180
 3717POPC   C1B47731  27.892  18.803   6.157
 3717POPC   C2B47732  27.878  18.707   6.597
 3717POPC   C3B47733  27.687  18.787   6.987
 3717POPC   C4B47734  27.876  18.704   7.377
 3718POPC   NC347735  19.763  21.075   5.542
 3718POPC   PO447736  19.954  21.606   5.106
 3718POPC   GL147737  20.032  21.483   5.661
 3718POPC   GL247738  19.750  21.521   5.881
 3718POPC   C1A47739  19.951  21.167   6.147
 3718POPC   D2A47740  19.832  21.321   6.609
 3718POPC   C3A47741  19.771  21.090   7.004
 3718POPC   C4A47742  19.734  21.020   7.432
 3718POPC   C1B47743  20.050  21.648   6.258
 3718POPC   C2B47744  19.902  21.829   6.679
 3718POPC   C3B47745  19.745  21.596   7.034
 3718POPC   C4B47746  20.094  21.433   7.257
 3719POPC   NC347747  30.161  33.365   5.641
 3719POPC   PO447748  29.645  33.730   5.340
 3719POPC   GL147749  29.788  33.686   5.792
 3719POPC   GL247750  29.964  33.987   5.937
 3719POPC   C1A47751  29.623  33.774   6.231
 3719POPC   D2A47752  29.405  33.642   6.605
 3719POPC   C3A47753  29.595  33.518   6.990
 3719POPC   C4A47754  29.966  33.776   7.108
 3719POPC   C1B47755  30.131  33.640   6.217
 3719POPC   C2B47756  30.183  33.436   6.617
 3719POPC   C3B47757  30.419  33.579   6.969
 3719POPC   C4B47758  30.359  33.540   7.427
 3720POPC   NC347759  20.903  29.561   5.573
 3720POPC   PO447760  20.496  29.008   5.301
 3720POPC   GL147761  20.607  28.974   5.753
 3720POPC   GL247762  20.695  28.685   5.848
 3720POPC   C1A47763  20.659  29.163   6.197
 3720POPC   D2A47764  20.785  29.361   6.639
 3720POPC   C3A47765  20.636  29.190   7.034
 3720POPC   C4A47766  20.467  29.330   7.436
 3720POPC   C1B47767  20.841  28.668   6.249
 3720POPC   C2B47768  20.785  28.847   6.646
 3720POPC   C3B47769  20.882  28.722   7.064
 3720POPC   C4B47770  20.853  28.979   7.443
 3721POPC   NC347771  24.676  11.147   5.377
 3721POPC   PO447772  24.518  11.860   5.278
 3721POPC   GL147773  24.578  11.557   5.664
 3721POPC   GL247774  24.331  11.318   5.739
 3721POPC   C1A47775  24.710  11.295   6.083
 3721POPC   D2A47776  24.604  11.174   6.534
 3721POPC   C3A47777  24.570  11.328   6.993
 3721POPC   C4A47778  24.961  11.470   7.246
 3721POPC   C1B47779  24.211  11.252   6.207
 3721POPC   C2B47780  24.103  11.232   6.624
 3721POPC   C3B47781  24.049  11.513   6.951
 3721POPC   C4B47782  24.143  11.372   7.334
 3722POPC   NC347783  14.778  44.569   5.619
 3722POPC   PO447784  15.262  44.147   5.333
 3722POPC   GL147785  15.384  44.359   5.809
 3722POPC   GL247786  15.218  44.702   5.863
 3722POPC   C1A47787  15.329  44.454   6.273
 3722POPC   D2A47788  15.516  44.619   6.623
 3722POPC   C3A47789  15.453  44.482   7.019
 3722POPC   C4A47790  15.506  44.826   7.269
 3722POPC   C1B47791  15.097  44.929   6.286
 3722POPC   C2B47792  14.933   0.138   6.690
 3722POPC   C3B47793  15.043  44.867   7.039
 3722POPC   C4B47794  14.813  44.485   7.102
 3723POPC   NC347795  20.805  31.638   5.386
 3723POPC   PO447796  21.313  31.377   5.505
 3723POPC   GL147797  20.958  31.353   5.781
 3723POPC   GL247798  20.785  31.698   5.894
 3723POPC   C1A47799  20.671  31.182   6.071
 3723POPC   D2A47800  20.690  31.392   6.444
 3723POPC   C3A47801  20.639  31.252   6.855
 3723POPC   C4A47802  20.913  31.331   7.203
 3723POPC   C1B47803  20.372  31.636   6.097
 3723POPC   C2B47804  20.208  31.570   6.508
 3723POPC   C3B47805  20.362  31.696   6.900
 3723POPC   C4B47806  20.277  31.640   7.320
 3724POPC   NC347807  41.475  44.538   5.423
 3724POPC   PO447808  42.029  44.269   5.619
 3724POPC   GL147809  41.764  44.597   5.875
 3724POPC   GL247810  41.430  44.759   5.871
 3724POPC   C1A47811  41.709  44.859   6.262
 3724POPC   D2A47812  41.579  44.690   6.653
 3724POPC   C3A47813  41.862  44.748   6.976
 3724POPC   C4A47814  41.871  44.367   7.175
 3724POPC   C1B47815  41.229  44.598   6.252
 3724POPC   C2B47816  41.080  44.778   6.662
 3724POPC   C3B47817  41.206  44.656   7.062
 3724POPC   C4B47818  41.061  44.846   7.458
 3725POPC   NC347819  42.814  28.227   5.380
 3725POPC   PO447820  43.195  28.755   5.448
 3725POPC   GL147821  43.152  28.391   5.747
 3725POPC   GL247822  42.921  28.592   5.916
 3725POPC   C1A47823  43.083  28.107   6.154
 3725POPC   D2A47824  42.857  28.035   6.554
 3725POPC   C3A47825  43.056  28.066   6.997
 3725POPC   C4A47826  43.197  28.252   7.375
 3725POPC   C1B47827  43.300  28.563   6.229
 3725POPC   C2B47828  43.201  28.408   6.652
 3725POPC   C3B47829  42.998  28.589   7.055
 3725POPC   C4B47830  42.902  28.635   7.551
 3726POPC   NC347831  32.454  18.635   5.587
 3726POPC   PO447832  32.945  18.238   5.496
 3726POPC   GL147833  33.075  18.319   5.883
 3726POPC   GL247834  33.062  18.680   5.792
 3726POPC   C1A47835  33.360  18.138   6.226
 3726POPC   D2A47836  33.268  17.974   6.629
 3726POPC   C3A47837  33.021  18.265   6.885
 3726POPC   C4A47838  33.080  18.279   7.308
 3726POPC   C1B47839  32.814  18.664   6.201
 3726POPC   C2B47840  32.951  18.744   6.648
 3726POPC   C3B47841  32.817  18.865   7.078
 3726POPC   C4B47842  32.737  18.594   7.468
 3727POPC   NC347843  34.486  39.177   5.231
 3727POPC   PO447844  34.751  38.576   5.283
 3727POPC   GL147845  34.670  38.933   5.653
 3727POPC   GL247846  34.388  39.203   5.765
 3727POPC   C1A47847  34.749  39.044   6.108
 3727POPC   D2A47848  34.886  39.009   6.565
 3727POPC   C3A47849  34.670  39.134   6.951
 3727POPC   C4A47850  34.587  38.955   7.353
 3727POPC   C1B47851  34.437  39.429   6.204
 3727POPC   C2B47852  34.565  39.557   6.627
 3727POPC   C3B47853  34.350  39.559   7.026
 3727POPC   C4B47854  34.143  39.161   7.098
 3728POPC   NC347855  24.227   0.464   5.265
 3728POPC   PO447856  24.456   1.048   5.469
 3728POPC   GL147857  24.337   0.677   5.732
 3728POPC   GL247858  24.106   0.348   5.757
 3728POPC   C1A47859  24.498   0.468   6.094
 3728POPC   D2A47860  24.575   0.289   6.487
 3728POPC   C3A47861  24.790   0.465   6.836
 3728POPC   C4A47862  24.520   0.362   7.148
 3728POPC   C1B47863  24.178   0.040   6.119
 3728POPC   C2B47864  24.259  44.892   6.556
 3728POPC   C3B47865  24.112   0.028   6.988
 3728POPC   C4B47866  24.207   0.019   7.449
 3729POPC   NC347867   9.629  27.660   5.332
 3729POPC   PO447868  10.216  27.715   5.503
 3729POPC   GL147869   9.883  27.531   5.777
 3729POPC   GL247870   9.547  27.684   5.828
 3729POPC   C1A47871   9.764  27.358   6.172
 3729POPC   D2A47872   9.939  27.300   6.575
 3729POPC   C3A47873   9.929  27.526   6.945
 3729POPC   C4A47874   9.563  27.452   7.213
 3729POPC   C1B47875   9.702  27.856   6.197
 3729POPC   C2B47876   9.718  27.980   6.612
 3729POPC   C3B47877   9.640  27.933   7.046
 3729POPC   C4B47878   9.851  27.828   7.413
 3730POPC   NC347879  34.685  38.197   5.027
 3730POPC   PO447880  34.963  38.094   5.621
 3730POPC   GL147881  34.787  38.462   5.883
 3730POPC   GL247882  34.422  38.553   5.897
 3730POPC   C1A47883  34.713  38.577   6.306
 3730POPC   D2A47884  34.961  38.501   6.648
 3730POPC   C3A47885  34.712  38.598   6.965
 3730POPC   C4A47886  34.584  38.434   7.353
 3730POPC   C1B47887  34.250  38.196   6.137
 3730POPC   C2B47888  34.440  38.015   6.503
 3730POPC   C3B47889  34.347  38.196   6.902
 3730POPC   C4B47890  34.333  37.989   7.295
 3731POPC   NC347891  26.536  40.690   5.531
 3731POPC   PO447892  26.875  40.150   5.498
 3731POPC   GL147893  26.666  40.173   5.858
 3731POPC   GL247894  26.405  39.911   5.821
 3731POPC   C1A47895  26.730  39.957   6.225
 3731POPC   D2A47896  26.989  39.889   6.546
 3731POPC   C3A47897  26.971  40.092   6.922
 3731POPC   C4A47898  27.042  39.952   7.348
 3731POPC   C1B47899  26.254  39.799   6.263
 3731POPC   C2B47900  26.475  39.800   6.684
 3731POPC   C3B47901  26.595  39.823   7.135
 3731POPC   C4B47902  26.584  40.018   7.562
 3732POPC   NC347903  12.764   9.253   5.272
 3732POPC   PO447904  12.697   9.857   5.413
 3732POPC   GL147905  12.691   9.746   5.847
 3732POPC   GL247906  12.717   9.403   5.767
 3732POPC   C1A47907  12.691   9.801   6.309
 3732POPC   D2A47908  12.941   9.767   6.678
 3732POPC   C3A47909  12.944  10.029   7.059
 3732POPC   C4A47910  12.875   9.857   7.462
 3732POPC   C1B47911  12.670   9.280   6.204
 3732POPC   C2B47912  12.576   9.397   6.663
 3732POPC   C3B47913  12.717   9.437   7.118
 3732POPC   C4B47914  12.543   9.470   7.551
 3733POPC   NC347915  17.982  37.743   5.242
 3733POPC   PO447916  17.366  37.545   5.412
 3733POPC   GL147917  17.491  37.662   5.805
 3733POPC   GL247918  17.731  37.919   5.734
 3733POPC   C1A47919  17.259  37.731   6.197
 3733POPC   D2A47920  17.064  37.988   6.536
 3733POPC   C3A47921  17.266  37.875   6.912
 3733POPC   C4A47922  17.492  37.742   7.249
 3733POPC   C1B47923  17.800  37.826   6.183
 3733POPC   C2B47924  17.638  37.683   6.594
 3733POPC   C3B47925  17.900  37.786   6.970
 3733POPC   C4B47926  17.960  37.929   7.414
 3734POPC   NC347927  26.681   7.735   5.593
 3734POPC   PO447928  27.036   7.294   5.411
 3734POPC   GL147929  26.874   7.302   5.789
 3734POPC   GL247930  26.517   7.249   5.732
 3734POPC   C1A47931  26.827   7.394   6.209
 3734POPC   D2A47932  27.023   7.411   6.604
 3734POPC   C3A47933  26.800   7.661   6.870
 3734POPC   C4A47934  26.672   7.661   7.253
 3734POPC   C1B47935  26.653   6.917   6.046
 3734POPC   C2B47936  26.792   6.949   6.480
 3734POPC   C3B47937  26.677   7.145   6.880
 3734POPC   C4B47938  26.979   7.245   7.159
 3735POPC   NC347939  23.755  35.625   5.415
 3735POPC   PO447940  24.153  35.072   5.372
 3735POPC   GL147941  23.808  35.167   5.713
 3735POPC   GL247942  23.745  35.517   5.887
 3735POPC   C1A47943  23.664  35.109   6.151
 3735POPC   D2A47944  23.520  35.251   6.557
 3735POPC   C3A47945  23.454  34.981   6.909
 3735POPC   C4A47946  23.698  35.260   7.171
 3735POPC   C1B47947  23.398  35.591   6.182
 3735POPC   C2B47948  23.382  35.828   6.562
 3735POPC   C3B47949  23.634  35.751   6.923
 3735POPC   C4B47950  23.479  35.699   7.334
 3736POPC   NC347951  34.755  33.027   5.342
 3736POPC   PO447952  34.195  32.708   5.594
 3736POPC   GL147953  34.614  32.742   5.779
 3736POPC   GL247954  34.543  33.087   5.843
 3736POPC   C1A47955  34.792  32.783   6.204
 3736POPC   D2A47956  34.651  32.708   6.628
 3736POPC   C3A47957  34.479  32.937   6.974
 3736POPC   C4A47958  34.750  32.806   7.273
 3736POPC   C1B47959  34.801  33.288   6.159
 3736POPC   C2B47960  34.669  33.219   6.574
 3736POPC   C3B47961  34.913  33.194   6.938
 3736POPC   C4B47962  34.770  33.302   7.349
 3737POPC   NC347963   5.949  44.988   5.719
 3737POPC   PO447964   5.711   0.467   5.333
 3737POPC   GL147965   5.728   0.466   5.776
 3737POPC   GL247966   6.083   0.505   5.831
 3737POPC   C1A47967   5.725   0.485   6.259
 3737POPC   D2A47968   5.591   0.644   6.682
 3737POPC   C3A47969   5.687   0.454   7.088
 3737POPC   C4A47970   5.650   0.743   7.429
 3737POPC   C1B47971   6.214   0.380   6.265
 3737POPC   C2B47972   6.061   0.378   6.685
 3737POPC   C3B47973   6.209   0.376   7.090
 3737POPC   C4B47974   6.070   0.436   7.499
 3738POPC   NC347975   1.398   5.246   5.073
 3738POPC   PO447976   2.004   5.163   5.370
 3738POPC   GL147977   2.026   5.158   5.787
 3738POPC   GL247978   1.792   4.885   5.810
 3738POPC   C1A47979   2.213   5.312   6.182
 3738POPC   D2A47980   1.993   5.366   6.570
 3738POPC   C3A47981   2.156   5.165   6.906
 3738POPC   C4A47982   1.962   5.220   7.270
 3738POPC   C1B47983   1.767   5.064   6.212
 3738POPC   C2B47984   1.737   4.809   6.580
 3738POPC   C3B47985   1.865   4.750   6.998
 3738POPC   C4B47986   1.709   4.800   7.387
 3739POPC   NC347987   6.370  43.277   5.471
 3739POPC   PO447988   6.766  42.744   5.530
 3739POPC   GL147989   6.528  42.893   5.849
 3739POPC   GL247990   6.738  43.199   5.855
 3739POPC   C1A47991   6.662  42.862   6.287
 3739POPC   D2A47992   6.780  43.196   6.561
 3739POPC   C3A47993   6.943  43.113   6.963
 3739POPC   C4A47994   6.833  43.028   7.379
 3739POPC   C1B47995   6.463  43.383   6.139
 3739POPC   C2B47996   6.361  43.484   6.555
 3739POPC   C3B47997   6.432  43.345   6.964
 3739POPC   C4B47998   6.442  43.643   7.282
 3740POPC   NC347999  28.143   9.057   5.488
 3740POPC   PO448000  28.467   8.583   5.350
 3740POPC   GL148001  28.565   8.736   5.769
 3740POPC   GL248002  28.514   9.095   5.860
 3740POPC   C1A48003  28.308   8.715   6.147
 3740POPC   D2A48004  28.195   8.580   6.565
 3740POPC   C3A48005  28.253   8.845   6.923
 3740POPC   C4A48006  28.502   8.803   7.308
 3740POPC   C1B48007  28.678   9.051   6.299
 3740POPC   C2B48008  28.600   9.194   6.740
 3740POPC   C3B48009  28.696   9.251   7.202
 3740POPC   C4B48010  28.660   9.164   7.684
 3741POPC   NC348011  43.507   9.422   5.710
 3741POPC   PO448012  43.303   8.830   5.408
 3741POPC   GL148013  43.127   9.034   5.803
 3741POPC   GL248014  43.003   9.352   5.999
 3741POPC   C1A48015  43.012   8.876   6.212
 3741POPC   D2A48016  42.861   9.109   6.557
 3741POPC   C3A48017  42.905   8.892   6.931
 3741POPC   C4A48018  42.886   9.025   7.330
 3741POPC   C1B48019  43.332   9.236   6.343
 3741POPC   C2B48020  43.428   9.060   6.774
 3741POPC   C3B48021  43.330   9.221   7.187
 3741POPC   C4B48022  43.335   9.216   7.640
 3742POPC   NC348023   9.316   1.175   5.006
 3742POPC   PO448024   8.712   1.090   5.385
 3742POPC   GL148025   8.840   1.016   5.791
 3742POPC   GL248026   9.203   1.036   5.694
 3742POPC   C1A48027   8.774   1.217   6.208
 3742POPC   D2A48028   8.958   1.376   6.594
 3742POPC   C3A48029   8.889   1.320   7.032
 3742POPC   C4A48030   8.649   1.472   7.318
 3742POPC   C1B48031   9.230   0.991   6.146
 3742POPC   C2B48032   9.069   0.876   6.525
 3742POPC   C3B48033   9.228   0.987   6.881
 3742POPC   C4B48034   9.452   0.876   7.186
 3743POPC   NC348035  26.367  25.404   5.535
 3743POPC   PO448036  26.039  24.875   5.443
 3743POPC   GL148037  26.033  25.135   5.786
 3743POPC   GL248038  26.384  25.077   5.926
 3743POPC   C1A48039  25.920  25.275   6.196
 3743POPC   D2A48040  25.862  25.010   6.575
 3743POPC   C3A48041  25.689  25.158   6.946
 3743POPC   C4A48042  25.840  25.351   7.296
 3743POPC   C1B48043  26.403  25.337   6.316
 3743POPC   C2B48044  26.131  25.470   6.649
 3743POPC   C3B48045  26.248  25.337   7.021
 3743POPC   C4B48046  26.600  25.157   7.180
 3744POPC   NC348047  33.605   8.245   5.132
 3744POPC   PO448048  34.287   8.231   5.215
 3744POPC   GL148049  34.190   8.363   5.665
 3744POPC   GL248050  33.838   8.223   5.755
 3744POPC   C1A48051  34.204   8.296   6.126
 3744POPC   D2A48052  34.043   8.104   6.508
 3744POPC   C3A48053  34.145   8.311   6.912
 3744POPC   C4A48054  34.064   7.980   7.212
 3744POPC   C1B48055  33.705   8.407   6.159
 3744POPC   C2B48056  33.779   8.530   6.598
 3744POPC   C3B48057  33.641   8.242   6.929
 3744POPC   C4B48058  33.595   8.100   7.365
 3745POPC   NC348059  12.214  30.949   5.479
 3745POPC   PO448060  11.801  30.451   5.413
 3745POPC   GL148061  11.906  30.696   5.779
 3745POPC   GL248062  12.235  30.637   5.881
 3745POPC   C1A48063  11.889  30.519   6.217
 3745POPC   D2A48064  12.096  30.472   6.597
 3745POPC   C3A48065  11.901  30.432   7.024
 3745POPC   C4A48066  12.079  30.512   7.454
 3745POPC   C1B48067  12.080  30.980   6.185
 3745POPC   C2B48068  12.268  31.051   6.558
 3745POPC   C3B48069  12.190  30.838   6.933
 3745POPC   C4B48070  12.228  31.038   7.268
 3746POPC   NC348071  18.094  37.007   5.469
 3746POPC   PO448072  18.682  36.668   5.422
 3746POPC   GL148073  18.379  36.721   5.798
 3746POPC   GL248074  18.034  36.856   5.937
 3746POPC   C1A48075  18.442  36.843   6.228
 3746POPC   D2A48076  18.421  37.141   6.534
 3746POPC   C3A48077  18.609  36.953   6.895
 3746POPC   C4A48078  18.550  36.570   7.138
 3746POPC   C1B48079  17.968  36.618   6.291
 3746POPC   C2B48080  18.095  36.752   6.705
 3746POPC   C3B48081  18.042  36.561   7.090
 3746POPC   C4B48082  17.984  36.639   7.528
 3747POPC   NC348083  28.427  37.023   5.370
 3747POPC   PO448084  27.782  36.967   5.403
 3747POPC   GL148085  28.089  37.005   5.784
 3747POPC   GL248086  28.379  37.265   5.801
 3747POPC   C1A48087  28.168  37.194   6.231
 3747POPC   D2A48088  28.088  37.268   6.656
 3747POPC   C3A48089  28.180  36.904   6.837
 3747POPC   C4A48090  28.339  36.786   7.213
 3747POPC   C1B48091  28.708  37.331   6.131
 3747POPC   C2B48092  28.606  37.120   6.528
 3747POPC   C3B48093  28.552  37.235   6.954
 3747POPC   C4B48094  28.213  37.289   7.246
 3748POPC   NC348095   8.854  24.170   5.592
 3748POPC   PO448096   9.080  24.855   5.376
 3748POPC   GL148097   9.107  24.592   5.725
 3748POPC   GL248098   8.726  24.621   5.790
 3748POPC   C1A48099   9.253  24.402   6.142
 3748POPC   D2A48100   9.463  24.599   6.523
 3748POPC   C3A48101   9.240  24.750   6.882
 3748POPC   C4A48102   9.026  24.457   7.128
 3748POPC   C1B48103   8.726  24.444   6.211
 3748POPC   C2B48104   8.901  24.344   6.607
 3748POPC   C3B48105   8.638  24.188   6.936
 3748POPC   C4B48106   8.537  24.490   7.242
 3749POPC   NC348107  38.693  29.009   5.328
 3749POPC   PO448108  39.225  29.443   5.220
 3749POPC   GL148109  39.154  29.443   5.695
 3749POPC   GL248110  39.048  29.110   5.794
 3749POPC   C1A48111  39.207  29.431   6.176
 3749POPC   D2A48112  39.052  29.470   6.622
 3749POPC   C3A48113  39.184  29.251   7.020
 3749POPC   C4A48114  39.583  29.089   7.120
 3749POPC   C1B48115  39.027  28.971   6.245
 3749POPC   C2B48116  39.313  28.990   6.598
 3749POPC   C3B48117  39.289  28.719   6.972
 3749POPC   C4B48118  38.860  28.786   7.093
 3750POPC   NC348119   9.433  41.847   5.435
 3750POPC   PO448120   8.841  41.666   5.344
 3750POPC   GL148121   8.882  41.605   5.762
 3750POPC   GL248122   8.610  41.858   5.820
 3750POPC   C1A48123   9.168  41.560   6.129
 3750POPC   D2A48124   9.288  41.814   6.493
 3750POPC   C3A48125   9.206  41.603   6.873
 3750POPC   C4A48126   9.316  41.450   7.272
 3750POPC   C1B48127   8.557  41.535   6.149
 3750POPC   C2B48128   8.781  41.485   6.515
 3750POPC   C3B48129   8.690  41.487   6.940
 3750POPC   C4B48130   8.841  41.645   7.287
 3751POPC   NC348131  13.443  36.902   5.380
 3751POPC   PO448132  13.786  37.423   5.258
 3751POPC   GL148133  13.800  37.177   5.696
 3751POPC   GL248134  13.783  36.805   5.759
 3751POPC   C1A48135  13.944  37.090   6.152
 3751POPC   D2A48136  13.807  36.878   6.560
 3751POPC   C3A48137  13.845  37.124   6.921
 3751POPC   C4A48138  13.562  37.248   7.239
 3751POPC   C1B48139  13.481  36.882   6.135
 3751POPC   C2B48140  13.377  36.610   6.534
 3751POPC   C3B48141  13.527  36.703   6.973
 3751POPC   C4B48142  13.853  36.779   7.307
 3752POPC   NC348143  31.094  12.147   5.385
 3752POPC   PO448144  31.728  11.924   5.330
 3752POPC   GL148145  31.436  11.924   5.700
 3752POPC   GL248146  31.433  12.230   5.810
 3752POPC   C1A48147  31.535  11.860   6.163
 3752POPC   D2A48148  31.721  11.800   6.588
 3752POPC   C3A48149  31.448  11.696   6.959
 3752POPC   C4A48150  31.412  11.861   7.412
 3752POPC   C1B48151  31.240  12.273   6.184
 3752POPC   C2B48152  31.448  12.270   6.582
 3752POPC   C3B48153  31.363  12.193   7.003
 3752POPC   C4B48154  31.111  12.440   7.262
 3753POPC   NC348155  18.452  38.625   5.187
 3753POPC   PO448156  18.076  38.152   5.426
 3753POPC   GL148157  18.218  38.443   5.748
 3753POPC   GL248158  17.903  38.380   5.926
 3753POPC   C1A48159  18.249  38.679   6.171
 3753POPC   D2A48160  18.361  38.479   6.576
 3753POPC   C3A48161  18.415  38.784   6.908
 3753POPC   C4A48162  18.545  38.664   7.304
 3753POPC   C1B48163  17.922  38.341   6.364
 3753POPC   C2B48164  17.892  38.610   6.754
 3753POPC   C3B48165  18.078  38.451   7.152
 3753POPC   C4B48166  18.278  38.295   7.527
 3754POPC   NC348167  40.205  23.896   5.306
 3754POPC   PO448168  39.745  23.472   5.490
 3754POPC   GL148169  39.946  23.740   5.744
 3754POPC   GL248170  40.296  23.675   5.786
 3754POPC   C1A48171  39.960  23.622   6.160
 3754POPC   D2A48172  39.882  23.780   6.529
 3754POPC   C3A48173  39.975  23.516   6.840
 3754POPC   C4A48174  39.994  23.599   7.261
 3754POPC   C1B48175  40.400  23.890   6.172
 3754POPC   C2B48176  40.317  24.033   6.576
 3754POPC   C3B48177  40.188  23.968   6.975
 3754POPC   C4B48178  40.426  23.855   7.316
 3755POPC   NC348179  19.669  35.849   5.215
 3755POPC   PO448180  19.763  35.204   5.436
 3755POPC   GL148181  19.690  35.360   5.812
 3755POPC   GL248182  19.850  35.664   5.693
 3755POPC   C1A48183  19.731  35.261   6.240
 3755POPC   D2A48184  19.662  35.007   6.580
 3755POPC   C3A48185  19.567  35.238   6.926
 3755POPC   C4A48186  19.764  35.295   7.296
 3755POPC   C1B48187  19.737  35.764   6.118
 3755POPC   C2B48188  19.928  35.683   6.491
 3755POPC   C3B48189  19.946  35.599   6.906
 3755POPC   C4B48190  20.260  35.726   7.171
 3756POPC   NC348191  31.408  14.870   5.317
 3756POPC   PO448192  31.695  15.434   5.503
 3756POPC   GL148193  31.349  15.238   5.762
 3756POPC   GL248194  31.258  14.875   5.815
 3756POPC   C1A48195  31.432  15.188   6.207
 3756POPC   D2A48196  31.563  15.381   6.583
 3756POPC   C3A48197  31.311  15.360   6.932
 3756POPC   C4A48198  31.435  15.454   7.326
 3756POPC   C1B48199  31.115  14.787   6.237
 3756POPC   C2B48200  31.149  14.998   6.615
 3756POPC   C3B48201  31.116  14.908   7.044
 3756POPC   C4B48202  31.341  14.954   7.436
 3757POPC   NC348203  11.898  26.580   5.384
 3757POPC   PO448204  12.219  27.235   5.351
 3757POPC   GL148205  12.134  26.919   5.752
 3757POPC   GL248206  11.765  26.818   5.819
 3757POPC   C1A48207  12.203  26.723   6.207
 3757POPC   D2A48208  12.055  26.476   6.586
 3757POPC   C3A48209  12.320  26.594   6.943
 3757POPC   C4A48210  12.468  26.968   7.156
 3757POPC   C1B48211  11.742  26.949   6.263
 3757POPC   C2B48212  11.653  26.813   6.702
 3757POPC   C3B48213  11.693  26.842   7.157
 3757POPC   C4B48214  12.001  27.153   7.226
 3758POPC   NC348215  13.749  33.263   5.620
 3758POPC   PO448216  13.406  32.681   5.434
 3758POPC   GL148217  13.392  32.895   5.835
 3758POPC   GL248218  13.317  33.247   5.892
 3758POPC   C1A48219  13.683  32.853   6.214
 3758POPC   D2A48220  13.784  32.700   6.641
 3758POPC   C3A48221  13.498  32.848   6.967
 3758POPC   C4A48222  13.768  33.062   7.234
 3758POPC   C1B48223  13.221  33.057   6.283
 3758POPC   C2B48224  13.487  33.196   6.591
 3758POPC   C3B48225  13.445  33.367   6.997
 3758POPC   C4B48226  13.249  33.135   7.332
 3759POPC   NC348227  37.673  28.191   5.152
 3759POPC   PO448228  38.088  27.943   5.568
 3759POPC   GL148229  37.928  28.288   5.837
 3759POPC   GL248230  37.586  28.320   5.885
 3759POPC   C1A48231  37.891  28.429   6.270
 3759POPC   D2A48232  37.725  28.338   6.671
 3759POPC   C3A48233  38.022  28.313   7.018
 3759POPC   C4A48234  38.007  28.373   7.443
 3759POPC   C1B48235  37.491  28.079   6.267
 3759POPC   C2B48236  37.372  27.938   6.690
 3759POPC   C3B48237  37.522  28.075   7.089
 3759POPC   C4B48238  37.544  28.199   7.530
 3760POPC   NC348239  14.458  29.248   5.376
 3760POPC   PO448240  13.999  28.780   5.620
 3760POPC   GL148241  14.417  28.945   5.801
 3760POPC   GL248242  14.480  29.315   5.873
 3760POPC   C1A48243  14.591  28.960   6.228
 3760POPC   D2A48244  14.246  28.910   6.562
 3760POPC   C3A48245  14.280  29.206   6.889
 3760POPC   C4A48246  14.553  29.243   7.255
 3760POPC   C1B48247  14.205  29.320   6.239
 3760POPC   C2B48248  14.117  29.643   6.554
 3760POPC   C3B48249  13.964  29.623   6.952
 3760POPC   C4B48250  14.076  29.408   7.314
 3761POPC   NC348251  42.656   9.807   5.353
 3761POPC   PO448252  42.212   9.382   5.528
 3761POPC   GL148253  42.498   9.627   5.850
 3761POPC   GL248254  42.414   9.959   5.769
 3761POPC   C1A48255  42.517   9.589   6.304
 3761POPC   D2A48256  42.099   9.627   6.508
 3761POPC   C3A48257  42.119   9.498   6.922
 3761POPC   C4A48258  42.489   9.517   7.221
 3761POPC   C1B48259  42.254   9.997   6.160
 3761POPC   C2B48260  42.467  10.068   6.522
 3761POPC   C3B48261  42.458   9.900   6.886
 3761POPC   C4B48262  42.139   9.913   7.199
 3762POPC   NC348263  31.523  21.701   5.530
 3762POPC   PO448264  31.360  21.084   5.360
 3762POPC   GL148265  31.518  21.186   5.768
 3762POPC   GL248266  31.232  21.364   5.839
 3762POPC   C1A48267  31.718  21.364   6.165
 3762POPC   D2A48268  31.901  21.607   6.549
 3762POPC   C3A48269  31.677  21.538   6.966
 3762POPC   C4A48270  31.639  21.149   7.200
 3762POPC   C1B48271  31.226  21.531   6.250
 3762POPC   C2B48272  31.273  21.366   6.670
 3762POPC   C3B48273  31.139  21.494   7.078
 3762POPC   C4B48274  31.139  21.303   7.532
 3763POPC   NC348275   1.951  15.272   5.484
 3763POPC   PO448276   2.295  14.694   5.576
 3763POPC   GL148277   2.097  14.950   5.865
 3763POPC   GL248278   2.346  15.260   5.838
 3763POPC   C1A48279   1.793  14.886   6.234
 3763POPC   D2A48280   1.802  15.008   6.675
 3763POPC   C3A48281   1.613  15.347   6.922
 3763POPC   C4A48282   1.718  15.255   7.345
 3763POPC   C1B48283   2.168  15.269   6.266
 3763POPC   C2B48284   2.051  15.473   6.639
 3763POPC   C3B48285   2.123  15.310   7.027
 3763POPC   C4B48286   2.260  15.205   7.477
 3764POPC   NC348287  22.301  12.766   5.305
 3764POPC   PO448288  22.400  13.441   5.271
 3764POPC   GL148289  22.247  13.129   5.639
 3764POPC   GL248290  22.509  13.173   5.761
 3764POPC   C1A48291  22.191  12.812   6.027
 3764POPC   D2A48292  22.013  12.632   6.468
 3764POPC   C3A48293  22.124  12.765   6.945
 3764POPC   C4A48294  22.175  12.838   7.436
 3764POPC   C1B48295  22.555  13.155   6.153
 3764POPC   C2B48296  22.292  13.077   6.481
 3764POPC   C3B48297  22.404  13.199   6.847
 3764POPC   C4B48298  22.523  13.142   7.227
 3765POPC   NC348299  14.114  24.801   5.357
 3765POPC   PO448300  14.363  24.118   5.373
 3765POPC   GL148301  14.259  24.379   5.732
 3765POPC   GL248302  14.384  24.712   5.799
 3765POPC   C1A48303  14.459  24.328   6.134
 3765POPC   D2A48304  14.449  24.037   6.475
 3765POPC   C3A48305  14.601  24.204   6.840
 3765POPC   C4A48306  14.504  24.191   7.267
 3765POPC   C1B48307  14.592  24.822   6.194
 3765POPC   C2B48308  14.494  24.643   6.592
 3765POPC   C3B48309  14.518  24.670   7.048
 3765POPC   C4B48310  14.360  24.652   7.475
 3766POPC   NC348311  38.648  21.922   5.447
 3766POPC   PO448312  38.409  22.538   5.460
 3766POPC   GL148313  38.407  22.275   5.814
 3766POPC   GL248314  38.770  22.242   5.876
 3766POPC   C1A48315  38.408  22.389   6.259
 3766POPC   D2A48316  38.567  22.324   6.664
 3766POPC   C3A48317  38.308  22.413   6.997
 3766POPC   C4A48318  38.295  22.189   7.413
 3766POPC   C1B48319  38.585  21.921   6.163
 3766POPC   C2B48320  38.604  21.820   6.614
 3766POPC   C3B48321  38.545  21.949   7.036
 3766POPC   C4B48322  38.631  21.830   7.470
 3767POPC   NC348323   8.388  13.121   5.595
 3767POPC   PO448324   7.777  12.812   5.482
 3767POPC   GL148325   8.047  12.689   5.798
 3767POPC   GL248326   7.974  13.021   5.897
 3767POPC   C1A48327   8.382  12.764   6.115
 3767POPC   D2A48328   8.412  13.051   6.443
 3767POPC   C3A48329   8.387  12.825   6.826
 3767POPC   C4A48330   8.305  12.506   7.132
 3767POPC   C1B48331   7.919  12.884   6.293
 3767POPC   C2B48332   7.960  13.091   6.677
 3767POPC   C3B48333   7.988  13.004   7.130
 3767POPC   C4B48334   8.064  13.170   7.572
 3768POPC   NC348335  29.663  39.370   5.346
 3768POPC   PO448336  30.061  38.813   5.502
 3768POPC   GL148337  29.848  39.087   5.833
 3768POPC   GL248338  29.845  39.467   5.798
 3768POPC   C1A48339  29.863  39.174   6.298
 3768POPC   D2A48340  29.986  39.213   6.763
 3768POPC   C3A48341  29.787  38.959   7.109
 3768POPC   C4A48342  29.845  38.981   7.590
 3768POPC   C1B48343  29.826  39.695   6.171
 3768POPC   C2B48344  29.710  39.596   6.557
 3768POPC   C3B48345  29.800  39.667   6.968
 3768POPC   C4B48346  29.637  39.618   7.363
 3769POPC   NC348347  25.226  19.410   5.349
 3769POPC   PO448348  25.037  20.085   5.337
 3769POPC   GL148349  25.179  19.849   5.657
 3769POPC   GL248350  24.893  19.697   5.723
 3769POPC   C1A48351  25.290  19.892   6.084
 3769POPC   D2A48352  25.138  19.877   6.505
 3769POPC   C3A48353  25.342  19.788   6.870
 3769POPC   C4A48354  25.534  19.703   7.233
 3769POPC   C1B48355  24.766  19.859   6.123
 3769POPC   C2B48356  24.647  19.964   6.548
 3769POPC   C3B48357  24.834  19.864   6.960
 3769POPC   C4B48358  25.130  20.020   7.286
 3770POPC   NC348359   4.426  41.432   5.256
 3770POPC   PO448360   3.949  41.816   5.098
 3770POPC   GL148361   4.132  41.597   5.618
 3770POPC   GL248362   4.210  41.228   5.713
 3770POPC   C1A48363   4.093  41.620   6.103
 3770POPC   D2A48364   3.956  41.629   6.566
 3770POPC   C3A48365   4.154  41.843   6.951
 3770POPC   C4A48366   4.538  42.049   7.105
 3770POPC   C1B48367   4.198  41.086   6.185
 3770POPC   C2B48368   4.010  41.122   6.666
 3770POPC   C3B48369   4.136  41.353   7.009
 3770POPC   C4B48370   4.551  41.486   7.147
 3771POPC   NC348371  43.191  20.259   5.535
 3771POPC   PO448372  43.451  20.911   5.385
 3771POPC   GL148373  43.267  20.949   5.793
 3771POPC   GL248374  42.971  20.703   5.816
 3771POPC   C1A48375  43.150  20.931   6.235
 3771POPC   D2A48376  43.139  20.658   6.556
 3771POPC   C3A48377  43.163  20.783   6.967
 3771POPC   C4A48378  43.374  20.843   7.346
 3771POPC   C1B48379  42.769  20.510   6.195
 3771POPC   C2B48380  42.894  20.219   6.510
 3771POPC   C3B48381  42.986  20.202   6.936
 3771POPC   C4B48382  43.229  20.347   7.276
 3772POPC   NC348383  28.979  34.864   5.346
 3772POPC   PO448384  29.418  34.348   5.422
 3772POPC   GL148385  29.111  34.529   5.740
 3772POPC   GL248386  29.033  34.919   5.836
 3772POPC   C1A48387  29.223  34.600   6.156
 3772POPC   D2A48388  29.017  34.451   6.488
 3772POPC   C3A48389  29.175  34.457   6.885
 3772POPC   C4A48390  29.084  34.210   7.242
 3772POPC   C1B48391  28.824  34.906   6.241
 3772POPC   C2B48392  28.923  34.933   6.675
 3772POPC   C3B48393  28.878  34.847   7.107
 3772POPC   C4B48394  29.258  34.729   7.297
 3773POPC   NC348395   0.704  44.056   5.353
 3773POPC   PO448396   0.768  43.399   5.324
 3773POPC   GL148397   0.622  43.597   5.725
 3773POPC   GL248398   0.338  43.858   5.754
 3773POPC   C1A48399   0.499  43.606   6.191
 3773POPC   D2A48400   0.501  43.853   6.599
 3773POPC   C3A48401   0.471  43.615   6.994
 3773POPC   C4A48402   0.619  43.565   7.423
 3773POPC   C1B48403   0.207  44.082   6.177
 3773POPC   C2B48404   0.027  44.078   6.620
 3773POPC   C3B48405   0.272  44.089   7.012
 3773POPC   C4B48406   0.686  44.037   7.215
 3774POPC   NC348407  32.550  40.679   5.493
 3774POPC   PO448408  31.896  40.496   5.340
 3774POPC   GL148409  32.150  40.617   5.780
 3774POPC   GL248410  32.199  40.954   5.834
 3774POPC   C1A48411  32.206  40.720   6.265
 3774POPC   D2A48412  31.948  40.601   6.628
 3774POPC   C3A48413  32.174  40.607   7.024
 3774POPC   C4A48414  32.111  40.832   7.405
 3774POPC   C1B48415  32.578  41.074   6.107
 3774POPC   C2B48416  32.697  40.849   6.474
 3774POPC   C3B48417  32.623  40.892   6.906
 3774POPC   C4B48418  32.595  40.839   7.345
 3775POPC   NC348419  15.560  21.649   5.638
 3775POPC   PO448420  15.963  21.281   5.206
 3775POPC   GL148421  15.983  21.179   5.728
 3775POPC   GL248422  15.828  21.418   5.971
 3775POPC   C1A48423  16.086  21.114   6.237
 3775POPC   D2A48424  15.793  21.407   6.529
 3775POPC   C3A48425  15.671  21.296   7.007
 3775POPC   C4A48426  15.626  21.419   7.493
 3775POPC   C1B48427  16.188  21.618   6.178
 3775POPC   C2B48428  16.215  21.750   6.574
 3775POPC   C3B48429  15.991  21.716   6.935
 3775POPC   C4B48430  16.077  21.441   7.275
 3776POPC   NC348431  31.708   4.576   5.442
 3776POPC   PO448432  31.079   4.433   5.288
 3776POPC   GL148433  31.407   4.278   5.736
 3776POPC   GL248434  31.779   4.407   5.888
 3776POPC   C1A48435  31.551   4.134   6.204
 3776POPC   D2A48436  31.351   4.078   6.591
 3776POPC   C3A48437  31.498   4.191   6.969
 3776POPC   C4A48438  31.551   4.118   7.422
 3776POPC   C1B48439  31.961   4.486   6.304
 3776POPC   C2B48440  31.979   4.444   6.763
 3776POPC   C3B48441  31.767   4.589   7.117
 3776POPC   C4B48442  31.322   4.556   7.298
 3777POPC   NC348443  14.994   1.351   5.345
 3777POPC   PO448444  14.301   1.444   5.257
 3777POPC   GL148445  14.239   1.273   5.726
 3777POPC   GL248446  14.552   1.343   5.901
 3777POPC   C1A48447  14.131   1.184   6.179
 3777POPC   D2A48448  14.433   1.286   6.506
 3777POPC   C3A48449  14.736   1.110   6.812
 3777POPC   C4A48450  14.868   1.072   7.238
 3777POPC   C1B48451  14.657   1.672   6.222
 3777POPC   C2B48452  14.495   1.771   6.652
 3777POPC   C3B48453  14.366   1.490   6.986
 3777POPC   C4B48454  14.617   1.534   7.326
 3778POPC   NC348455  30.769  18.855   5.264
 3778POPC   PO448456  30.360  19.390   5.494
 3778POPC   GL148457  30.684  19.139   5.672
 3778POPC   GL248458  30.483  18.837   5.728
 3778POPC   C1A48459  30.918  18.927   6.020
 3778POPC   D2A48460  30.996  19.117   6.448
 3778POPC   C3A48461  30.928  18.913   6.826
 3778POPC   C4A48462  30.780  19.056   7.209
 3778POPC   C1B48463  30.454  19.098   6.125
 3778POPC   C2B48464  30.465  19.062   6.556
 3778POPC   C3B48465  30.590  19.351   6.833
 3778POPC   C4B48466  30.446  19.439   7.237
 3779POPC   NC348467  30.162  12.498   5.479
 3779POPC   PO448468  29.933  11.886   5.455
 3779POPC   GL148469  30.024  11.988   5.890
 3779POPC   GL248470  30.331  12.117   5.790
 3779POPC   C1A48471  30.004  11.988   6.365
 3779POPC   D2A48472  30.161  11.695   6.675
 3779POPC   C3A48473  29.840  11.654   6.966
 3779POPC   C4A48474  29.677  11.954   7.230
 3779POPC   C1B48475  30.490  11.932   6.180
 3779POPC   C2B48476  30.500  12.056   6.609
 3779POPC   C3B48477  30.125  12.158   6.860
 3779POPC   C4B48478  30.186  12.385   7.175
 3780POPC   NC348479  41.098  27.104   5.474
 3780POPC   PO448480  40.503  27.245   5.522
 3780POPC   GL148481  40.707  26.874   5.758
 3780POPC   GL248482  40.934  26.553   5.696
 3780POPC   C1A48483  40.864  26.751   6.165
 3780POPC   D2A48484  41.047  26.831   6.575
 3780POPC   C3A48485  40.785  26.727   6.878
 3780POPC   C4A48486  40.732  27.022   7.171
 3780POPC   C1B48487  41.161  26.325   6.019
 3780POPC   C2B48488  41.033  26.331   6.449
 3780POPC   C3B48489  41.162  26.359   6.876
 3780POPC   C4B48490  40.959  26.403   7.248
 3781POPC   NC348491  11.576  29.368   5.058
 3781POPC   PO448492  11.161  28.919   5.328
 3781POPC   GL148493  11.194  29.142   5.708
 3781POPC   GL248494  11.351  28.901   5.844
 3781POPC   C1A48495  11.157  29.242   6.179
 3781POPC   D2A48496  10.990  29.502   6.530
 3781POPC   C3A48497  11.014  29.248   6.911
 3781POPC   C4A48498  11.218  29.023   7.221
 3781POPC   C1B48499  11.383  28.768   6.247
 3781POPC   C2B48500  11.164  28.863   6.603
 3781POPC   C3B48501  11.468  28.737   6.880
 3781POPC   C4B48502  11.822  28.867   7.109
 3782POPC   NC348503  11.771  32.412   5.261
 3782POPC   PO448504  11.196  32.610   5.488
 3782POPC   GL148505  11.156  32.302   5.822
 3782POPC   GL248506  11.166  31.937   5.737
 3782POPC   C1A48507  11.328  32.223   6.221
 3782POPC   D2A48508  11.187  32.294   6.622
 3782POPC   C3A48509  11.439  32.169   6.970
 3782POPC   C4A48510  11.500  32.353   7.357
 3782POPC   C1B48511  11.001  31.827   6.144
 3782POPC   C2B48512  10.855  31.762   6.540
 3782POPC   C3B48513  10.996  31.910   6.922
 3782POPC   C4B48514  11.217  31.766   7.265
 3783POPC   NC348515  24.183  43.705   5.682
 3783POPC   PO448516  23.571  43.865   5.428
 3783POPC   GL148517  23.690  43.833   5.856
 3783POPC   GL248518  23.770  44.168   5.812
 3783POPC   C1A48519  23.496  43.734   6.271
 3783POPC   D2A48520  23.228  43.842   6.635
 3783POPC   C3A48521  23.408  43.687   7.031
 3783POPC   C4A48522  23.795  43.508   7.161
 3783POPC   C1B48523  23.510  44.260   6.165
 3783POPC   C2B48524  23.588  44.250   6.571
 3783POPC   C3B48525  23.462  44.182   6.951
 3783POPC   C4B48526  23.814  44.002   7.123
 3784POPC   NC348527  19.722   7.307   5.367
 3784POPC   PO448528  20.285   7.682   5.310
 3784POPC   GL148529  20.077   7.575   5.693
 3784POPC   GL248530  19.761   7.746   5.701
 3784POPC   C1A48531  20.136   7.433   6.123
 3784POPC   D2A48532  19.917   7.486   6.496
 3784POPC   C3A48533  20.035   7.293   6.880
 3784POPC   C4A48534  19.913   7.417   7.279
 3784POPC   C1B48535  19.598   7.468   6.033
 3784POPC   C2B48536  19.385   7.381   6.412
 3784POPC   C3B48537  19.508   7.399   6.827
 3784POPC   C4B48538  19.424   7.269   7.204
 3785POPC   NC348539  35.730  32.810   5.389
 3785POPC   PO448540  35.101  32.734   5.218
 3785POPC   GL148541  35.158  32.729   5.691
 3785POPC   GL248542  35.058  33.080   5.773
 3785POPC   C1A48543  35.320  32.817   6.129
 3785POPC   D2A48544  35.165  33.075   6.469
 3785POPC   C3A48545  35.416  33.022   6.815
 3785POPC   C4A48546  35.280  32.827   7.176
 3785POPC   C1B48547  35.356  33.328   6.054
 3785POPC   C2B48548  35.538  33.462   6.435
 3785POPC   C3B48549  35.515  33.527   6.865
 3785POPC   C4B48550  35.307  33.351   7.215
 3786POPC   NC348551  21.276  30.934   5.603
 3786POPC   PO448552  21.793  30.558   5.289
 3786POPC   GL148553  21.597  30.550   5.714
 3786POPC   GL248554  21.275  30.432   5.846
 3786POPC   C1A48555  21.581  30.727   6.160
 3786POPC   D2A48556  21.307  30.747   6.541
 3786POPC   C3A48557  21.421  30.548   6.928
 3786POPC   C4A48558  21.606  30.491   7.317
 3786POPC   C1B48559  21.036  30.403   6.271
 3786POPC   C2B48560  20.909  30.435   6.720
 3786POPC   C3B48561  20.987  30.802   6.986
 3786POPC   C4B48562  21.120  30.685   7.392
 3787POPC   NC348563  24.600  44.621   5.308
 3787POPC   PO448564  25.258  44.621   5.466
 3787POPC   GL148565  25.204  44.578   5.851
 3787POPC   GL248566  24.877  44.559   5.825
 3787POPC   C1A48567  25.217  44.791   6.217
 3787POPC   D2A48568  25.500  44.733   6.571
 3787POPC   C3A48569  25.598  44.914   6.985
 3787POPC   C4A48570  25.331  44.802   7.339
 3787POPC   C1B48571  24.923  44.364   6.234
 3787POPC   C2B48572  25.118  44.368   6.650
 3787POPC   C3B48573  24.953  44.553   7.060
 3787POPC   C4B48574  24.848  44.479   7.551
 3788POPC   NC348575  13.788   7.493   5.467
 3788POPC   PO448576  13.434   7.027   5.384
 3788POPC   GL148577  13.517   7.231   5.802
 3788POPC   GL248578  13.387   7.550   5.781
 3788POPC   C1A48579  13.734   7.418   6.191
 3788POPC   D2A48580  13.513   7.471   6.603
 3788POPC   C3A48581  13.702   7.452   7.022
 3788POPC   C4A48582  13.760   7.286   7.451
 3788POPC   C1B48583  13.425   7.830   6.113
 3788POPC   C2B48584  13.552   7.970   6.479
 3788POPC   C3B48585  13.499   7.893   6.904
 3788POPC   C4B48586  13.295   7.701   7.271
 3789POPC   NC348587  14.150  29.952   5.263
 3789POPC   PO448588  14.721  29.707   5.351
 3789POPC   GL148589  14.443  29.808   5.673
 3789POPC   GL248590  14.459  30.159   5.821
 3789POPC   C1A48591  14.376  29.779   6.120
 3789POPC   D2A48592  14.472  30.086   6.446
 3789POPC   C3A48593  14.343  30.014   6.861
 3789POPC   C4A48594  14.412  29.773   7.212
 3789POPC   C1B48595  14.732  30.398   6.113
 3789POPC   C2B48596  14.943  30.323   6.507
 3789POPC   C3B48597  14.865  30.153   6.911
 3789POPC   C4B48598  14.630  30.292   7.209
 3790POPC   NC348599  34.198  18.053   5.478
 3790POPC   PO448600  34.574  18.662   5.376
 3790POPC   GL148601  34.559  18.324   5.746
 3790POPC   GL248602  34.843  18.081   5.831
 3790POPC   C1A48603  34.417  18.182   6.151
 3790POPC   D2A48604  34.245  18.305   6.547
 3790POPC   C3A48605  34.404  18.258   6.963
 3790POPC   C4A48606  34.308  18.551   7.284
 3790POPC   C1B48607  34.926  18.268   6.198
 3790POPC   C2B48608  34.766  18.133   6.587
 3790POPC   C3B48609  34.929  18.264   6.990
 3790POPC   C4B48610  34.933  18.376   7.417
 3791POPC   NC348611  42.875   0.672   5.253
 3791POPC   PO448612  43.397   0.673   5.666
 3791POPC   GL148613  43.000   0.747   5.805
 3791POPC   GL248614  42.897   0.411   5.715
 3791POPC   C1A48615  43.070   0.758   6.260
 3791POPC   D2A48616  43.200   0.423   6.531
 3791POPC   C3A48617  43.250   0.557   6.913
 3791POPC   C4A48618  43.150   0.398   7.291
 3791POPC   C1B48619  42.996   0.216   6.110
 3791POPC   C2B48620  42.874  44.996   6.500
 3791POPC   C3B48621  42.997   0.100   6.914
 3791POPC   C4B48622  42.782   0.025   7.287
 3792POPC   NC348623  38.625  39.459   5.333
 3792POPC   PO448624  39.207  39.043   5.432
 3792POPC   GL148625  39.217  39.226   5.866
 3792POPC   GL248626  38.997  39.516   5.774
 3792POPC   C1A48627  39.401  39.225   6.308
 3792POPC   D2A48628  39.549  39.144   6.751
 3792POPC   C3A48629  39.314  39.028   7.133
 3792POPC   C4A48630  38.969  39.073   7.383
 3792POPC   C1B48631  38.940  39.706   6.178
 3792POPC   C2B48632  39.071  39.512   6.556
 3792POPC   C3B48633  39.008  39.381   6.959
 3792POPC   C4B48634  39.029  39.579   7.358
 3793POPC   NC348635  15.220  27.151   5.425
 3793POPC   PO448636  15.458  26.645   5.055
 3793POPC   GL148637  15.309  26.594   5.542
 3793POPC   GL248638  14.965  26.626   5.680
 3793POPC   C1A48639  15.355  26.559   6.040
 3793POPC   D2A48640  15.377  26.850   6.424
 3793POPC   C3A48641  15.297  26.715   6.831
 3793POPC   C4A48642  15.275  26.963   7.176
 3793POPC   C1B48643  14.950  26.856   6.109
 3793POPC   C2B48644  14.943  27.091   6.520
 3793POPC   C3B48645  14.825  26.996   6.944
 3793POPC   C4B48646  14.798  26.749   7.306
 3794POPC   NC348647  16.585  15.215   5.424
 3794POPC   PO448648  17.164  15.253   5.205
 3794POPC   GL148649  17.039  15.113   5.690
 3794POPC   GL248650  16.725  14.975   5.828
 3794POPC   C1A48651  17.086  14.974   6.182
 3794POPC   D2A48652  17.162  14.996   6.664
 3794POPC   C3A48653  16.931  15.274   7.014
 3794POPC   C4A48654  16.878  15.197   7.496
 3794POPC   C1B48655  16.537  14.942   6.220
 3794POPC   C2B48656  16.641  15.005   6.666
 3794POPC   C3B48657  16.522  14.969   7.102
 3794POPC   C4B48658  16.327  15.123   7.493
 3795POPC   NC348659  35.422  12.365   5.390
 3795POPC   PO448660  34.689  12.445   5.396
 3795POPC   GL148661  34.997  12.392   5.776
 3795POPC   GL248662  35.306  12.153   5.848
 3795POPC   C1A48663  34.980  12.174   6.232
 3795POPC   D2A48664  35.220  12.045   6.600
 3795POPC   C3A48665  35.118  12.085   7.039
 3795POPC   C4A48666  35.323  11.812   7.312
 3795POPC   C1B48667  35.586  12.149   6.257
 3795POPC   C2B48668  35.771  12.036   6.707
 3795POPC   C3B48669  35.686  12.135   7.159
 3795POPC   C4B48670  35.616  12.314   7.604
 3796POPC   NC348671  28.210  34.057   5.415
 3796POPC   PO448672  28.780  33.761   5.412
 3796POPC   GL148673  28.673  33.856   5.838
 3796POPC   GL248674  28.297  33.945   5.906
 3796POPC   C1A48675  28.670  34.021   6.264
 3796POPC   D2A48676  28.396  33.877   6.575
 3796POPC   C3A48677  28.538  33.806   6.984
 3796POPC   C4A48678  28.250  34.008   7.233
 3796POPC   C1B48679  28.135  33.599   6.165
 3796POPC   C2B48680  27.934  33.480   6.551
 3796POPC   C3B48681  28.055  33.589   6.963
 3796POPC   C4B48682  28.090  33.510   7.375
 3797POPC   NC348683  40.457  20.205   5.184
 3797POPC   PO448684  40.157  20.796   5.286
 3797POPC   GL148685  40.119  20.731   5.703
 3797POPC   GL248686  40.353  20.462   5.700
 3797POPC   C1A48687  39.998  20.816   6.129
 3797POPC   D2A48688  39.739  20.892   6.478
 3797POPC   C3A48689  39.960  20.872   6.841
 3797POPC   C4A48690  39.923  21.017   7.251
 3797POPC   C1B48691  40.144  20.328   6.086
 3797POPC   C2B48692  40.108  20.193   6.511
 3797POPC   C3B48693  40.126  20.388   6.916
 3797POPC   C4B48694  39.751  20.549   7.155
 3798POPC   NC348695  19.190   2.469   5.429
 3798POPC   PO448696  18.920   3.093   5.234
 3798POPC   GL148697  18.953   2.893   5.685
 3798POPC   GL248698  18.913   2.514   5.851
 3798POPC   C1A48699  18.939   2.899   6.161
 3798POPC   D2A48700  18.883   2.640   6.531
 3798POPC   C3A48701  18.887   2.936   6.874
 3798POPC   C4A48702  19.009   3.035   7.283
 3798POPC   C1B48703  19.297   2.497   6.166
 3798POPC   C2B48704  19.414   2.630   6.615
 3798POPC   C3B48705  19.345   2.635   7.089
 3798POPC   C4B48706  19.225   2.666   7.540
 3799POPC   NC348707   9.438  21.856   5.488
 3799POPC   PO448708   9.756  22.375   5.322
 3799POPC   GL148709   9.733  22.207   5.730
 3799POPC   GL248710  10.083  22.366   5.758
 3799POPC   C1A48711   9.535  21.926   6.113
 3799POPC   D2A48712   9.710  21.739   6.486
 3799POPC   C3A48713   9.507  21.943   6.872
 3799POPC   C4A48714   9.637  21.922   7.297
 3799POPC   C1B48715   9.984  22.166   6.156
 3799POPC   C2B48716   9.738  22.247   6.500
 3799POPC   C3B48717   9.832  22.330   6.920
 3799POPC   C4B48718   9.850  22.382   7.346
 3800POPC   NC348719  33.190  13.682   5.465
 3800POPC   PO448720  32.556  13.875   5.560
 3800POPC   GL148721  32.823  13.626   5.854
 3800POPC   GL248722  32.951  13.315   5.975
 3800POPC   C1A48723  33.015  13.680   6.289
 3800POPC   D2A48724  32.997  13.447   6.673
 3800POPC   C3A48725  32.996  13.754   6.979
 3800POPC   C4A48726  32.821  14.055   7.241
 3800POPC   C1B48727  33.303  13.237   6.282
 3800POPC   C2B48728  33.486  13.221   6.718
 3800POPC   C3B48729  33.374  13.449   7.113
 3800POPC   C4B48730  33.427  13.472   7.633
 3801POPC   NC348731  42.781   2.816   5.586
 3801POPC   PO448732  43.263   2.381   5.466
 3801POPC   GL148733  43.104   2.476   5.892
 3801POPC   GL248734  43.108   2.833   5.989
 3801POPC   C1A48735  43.139   2.456   6.360
 3801POPC   D2A48736  43.050   2.539   6.785
 3801POPC   C3A48737  43.217   2.906   6.955
 3801POPC   C4A48738  43.411   2.823   7.321
 3801POPC   C1B48739  42.989   2.981   6.414
 3801POPC   C2B48740  42.747   3.041   6.792
 3801POPC   C3B48741  42.799   3.143   7.215
 3801POPC   C4B48742  43.157   3.297   7.447
 3802POPC   NC348743  17.538   0.706   5.415
 3802POPC   PO448744  17.829   1.373   5.357
 3802POPC   GL148745  17.719   1.399   5.800
 3802POPC   GL248746  17.384   1.252   5.762
 3802POPC   C1A48747  17.574   1.462   6.226
 3802POPC   D2A48748  17.338   1.271   6.572
 3802POPC   C3A48749  17.311   1.316   7.023
 3802POPC   C4A48750  17.522   1.162   7.380
 3802POPC   C1B48751  17.417   0.999   6.101
 3802POPC   C2B48752  17.212   0.819   6.412
 3802POPC   C3B48753  17.118   0.869   6.843
 3802POPC   C4B48754  17.192   0.799   7.296
 3803POPC   NC348755  37.208  38.163   5.419
 3803POPC   PO448756  36.857  38.695   5.210
 3803POPC   GL148757  36.986  38.600   5.657
 3803POPC   GL248758  36.638  38.567   5.753
 3803POPC   C1A48759  36.992  38.382   6.097
 3803POPC   D2A48760  36.713  38.188   6.384
 3803POPC   C3A48761  36.723  38.303   6.817
 3803POPC   C4A48762  36.993  38.319   7.176
 3803POPC   C1B48763  36.595  38.709   6.158
 3803POPC   C2B48764  36.388  38.595   6.516
 3803POPC   C3B48765  36.398  38.773   6.874
 3803POPC   C4B48766  36.532  38.598   7.204
 3804POPC   NC348767  44.042   1.612   5.535
 3804POPC   PO448768  43.660   2.067   5.182
 3804POPC   GL148769  43.686   2.139   5.668
 3804POPC   GL248770  43.991   2.363   5.771
 3804POPC   C1A48771  43.861   1.963   6.071
 3804POPC   D2A48772  43.906   1.978   6.514
 3804POPC   C3A48773  43.711   1.639   6.745
 3804POPC   C4A48774  43.752   1.849   7.098
 3804POPC   C1B48775  44.144   2.371   6.237
 3804POPC   C2B48776  44.399   2.144   6.544
 3804POPC   C3B48777  44.299   2.119   6.970
 3804POPC   C4B48778  44.053   2.166   7.342
 3805POPC   NC348779  13.755  32.329   5.361
 3805POPC   PO448780  13.317  31.914   5.214
 3805POPC   GL148781  13.421  32.230   5.715
 3805POPC   GL248782  13.708  32.487   5.829
 3805POPC   C1A48783  13.413  32.318   6.194
 3805POPC   D2A48784  13.289  32.581   6.564
 3805POPC   C3A48785  13.425  32.335   6.963
 3805POPC   C4A48786  13.617  32.103   7.337
 3805POPC   C1B48787  14.031  32.348   6.132
 3805POPC   C2B48788  14.110  32.093   6.497
 3805POPC   C3B48789  14.002  32.277   6.876
 3805POPC   C4B48790  13.842  32.548   7.193
 3806POPC   NC348791  22.283   9.319   5.479
 3806POPC   PO448792  22.405   8.679   5.442
 3806POPC   GL148793  22.286   8.911   5.812
 3806POPC   GL248794  22.531   9.173   5.893
 3806POPC   C1A48795  22.063   9.028   6.204
 3806POPC   D2A48796  21.905   8.898   6.637
 3806POPC   C3A48797  22.132   8.872   7.011
 3806POPC   C4A48798  21.975   9.164   7.294
 3806POPC   C1B48799  22.694   9.180   6.296
 3806POPC   C2B48800  22.368   9.164   6.597
 3806POPC   C3B48801  22.243   9.380   6.928
 3806POPC   C4B48802  22.514   9.172   7.196
 3807POPC   NC348803  26.146   6.422   5.414
 3807POPC   PO448804  25.778   6.945   5.520
 3807POPC   GL148805  26.001   6.748   5.874
 3807POPC   GL248806  26.308   6.577   5.879
 3807POPC   C1A48807  26.017   6.891   6.312
 3807POPC   D2A48808  26.212   7.045   6.699
 3807POPC   C3A48809  26.117   6.788   7.061
 3807POPC   C4A48810  25.760   6.874   7.316
 3807POPC   C1B48811  26.195   6.273   6.195
 3807POPC   C2B48812  26.326   6.130   6.597
 3807POPC   C3B48813  26.272   6.252   7.024
 3807POPC   C4B48814  26.382   6.429   7.427
 3808POPC   NC348815  26.953  18.312   5.384
 3808POPC   PO448816  26.369  18.154   5.525
 3808POPC   GL148817  26.623  18.318   5.826
 3808POPC   GL248818  26.797  18.644   5.743
 3808POPC   C1A48819  26.668  18.466   6.235
 3808POPC   D2A48820  26.657  18.406   6.676
 3808POPC   C3A48821  26.826  18.140   7.000
 3808POPC   C4A48822  26.644  18.155   7.411
 3808POPC   C1B48823  27.092  18.751   6.087
 3808POPC   C2B48824  26.988  18.794   6.497
 3808POPC   C3B48825  27.000  18.684   6.916
 3808POPC   C4B48826  26.864  18.575   7.273
 3809POPC   NC348827  33.125   7.635   5.644
 3809POPC   PO448828  33.143   8.252   5.362
 3809POPC   GL148829  33.017   8.148   5.797
 3809POPC   GL248830  33.359   8.036   5.878
 3809POPC   C1A48831  32.724   8.257   6.174
 3809POPC   D2A48832  32.765   8.504   6.551
 3809POPC   C3A48833  32.771   8.337   6.933
 3809POPC   C4A48834  32.831   8.537   7.297
 3809POPC   C1B48835  33.402   8.015   6.312
 3809POPC   C2B48836  33.145   8.114   6.637
 3809POPC   C3B48837  33.209   7.991   7.034
 3809POPC   C4B48838  33.086   8.141   7.433
 3810POPC   NC348839  24.770  15.235   5.408
 3810POPC   PO448840  25.367  15.107   5.355
 3810POPC   GL148841  25.167  14.937   5.752
 3810POPC   GL248842  24.790  14.925   5.822
 3810POPC   C1A48843  25.342  14.972   6.203
 3810POPC   D2A48844  25.438  15.229   6.595
 3810POPC   C3A48845  25.369  15.060   7.010
 3810POPC   C4A48846  25.514  15.251   7.452
 3810POPC   C1B48847  24.849  14.997   6.283
 3810POPC   C2B48848  24.931  15.084   6.711
 3810POPC   C3B48849  24.888  15.212   7.125
 3810POPC   C4B48850  24.844  15.090   7.573
 3811POPC   NC348851   9.564  10.748   5.190
 3811POPC   PO448852  10.088  10.317   5.320
 3811POPC   GL148853   9.805  10.587   5.632
 3811POPC   GL248854   9.673  10.298   5.796
 3811POPC   C1A48855   9.708  10.757   6.087
 3811POPC   D2A48856   9.705  10.584   6.535
 3811POPC   C3A48857   9.756  10.804   6.955
 3811POPC   C4A48858   9.776  10.640   7.393
 3811POPC   C1B48859   9.923  10.010   6.084
 3811POPC   C2B48860  10.019  10.043   6.525
 3811POPC   C3B48861   9.721  10.123   6.856
 3811POPC   C4B48862   9.851  10.168   7.283
 3812POPC   NC348863  20.196  14.085   5.679
 3812POPC   PO448864  20.588  14.595   5.434
 3812POPC   GL148865  20.621  14.389   5.823
 3812POPC   GL248866  20.973  14.349   5.865
 3812POPC   C1A48867  20.654  14.517   6.265
 3812POPC   D2A48868  20.735  14.573   6.705
 3812POPC   C3A48869  20.406  14.538   7.034
 3812POPC   C4A48870  20.488  14.557   7.488
 3812POPC   C1B48871  20.974  14.099   6.266
 3812POPC   C2B48872  20.762  14.040   6.665
 3812POPC   C3B48873  20.836  14.189   7.071
 3812POPC   C4B48874  20.889  14.607   7.197
 3813POPC   NC348875  41.320  15.841   5.446
 3813POPC   PO448876  41.878  16.267   5.407
 3813POPC   GL148877  41.611  16.134   5.774
 3813POPC   GL248878  41.487  15.783   5.919
 3813POPC   C1A48879  41.856  16.139   6.133
 3813POPC   D2A48880  41.825  16.388   6.493
 3813POPC   C3A48881  41.872  16.137   6.832
 3813POPC   C4A48882  41.727  16.147   7.226
 3813POPC   C1B48883  41.487  15.880   6.358
 3813POPC   C2B48884  41.339  16.075   6.722
 3813POPC   C3B48885  41.269  15.948   7.118
 3813POPC   C4B48886  41.569  15.711   7.402
 3814POPC   NC348887  34.519   2.861   5.223
 3814POPC   PO448888  34.818   2.333   5.342
 3814POPC   GL148889  34.606   2.609   5.685
 3814POPC   GL248890  34.425   2.967   5.719
 3814POPC   C1A48891  34.602   2.636   6.143
 3814POPC   D2A48892  34.718   2.475   6.580
 3814POPC   C3A48893  34.550   2.654   6.988
 3814POPC   C4A48894  34.778   2.848   7.353
 3814POPC   C1B48895  34.743   3.108   6.012
 3814POPC   C2B48896  34.814   2.997   6.455
 3814POPC   C3B48897  34.778   3.096   6.882
 3814POPC   C4B48898  34.393   3.154   7.119
 3815POPC   NC348899  35.321   0.534   5.145
 3815POPC   PO448900  35.550  44.960   5.307
 3815POPC   GL148901  35.556   0.252   5.717
 3815POPC   GL248902  35.685   0.601   5.765
 3815POPC   C1A48903  35.479   0.337   6.198
 3815POPC   D2A48904  35.427   0.098   6.621
 3815POPC   C3A48905  35.173   0.174   7.024
 3815POPC   C4A48906  35.031   0.600   7.229
 3815POPC   C1B48907  35.752   0.806   6.194
 3815POPC   C2B48908  35.519   0.949   6.568
 3815POPC   C3B48909  35.479   0.791   7.001
 3815POPC   C4B48910  35.564   0.414   7.252
 3816POPC   NC348911  41.827  40.997   5.539
 3816POPC   PO448912  41.319  40.634   5.427
 3816POPC   GL148913  41.557  40.642   5.807
 3816POPC   GL248914  41.420  40.981   5.897
 3816POPC   C1A48915  41.768  40.755   6.198
 3816POPC   D2A48916  41.521  40.880   6.559
 3816POPC   C3A48917  41.738  40.789   6.958
 3816POPC   C4A48918  41.693  40.767   7.396
 3816POPC   C1B48919  41.494  41.289   6.239
 3816POPC   C2B48920  41.494  41.377   6.703
 3816POPC   C3B48921  41.423  41.170   7.140
 3816POPC   C4B48922  41.310  41.055   7.580
 3817POPC   NC348923   0.140  17.725   5.146
 3817POPC   PO448924  44.440  17.442   5.286
 3817POPC   GL148925  44.459  17.446   5.771
 3817POPC   GL248926  44.771  17.511   5.952
 3817POPC   C1A48927  44.425  17.310   6.240
 3817POPC   D2A48928  44.379  17.486   6.692
 3817POPC   C3A48929  44.690  17.580   7.014
 3817POPC   C4A48930  44.707  17.457   7.439
 3817POPC   C1B48931  44.979  17.838   6.216
 3817POPC   C2B48932   0.154  17.866   6.628
 3817POPC   C3B48933  44.929  18.044   6.947
 3817POPC   C4B48934  44.915  17.930   7.365
 3818POPC   NC348935   2.779  40.323   5.561
 3818POPC   PO448936   2.511  39.738   5.369
 3818POPC   GL148937   2.667  39.852   5.760
 3818POPC   GL248938   3.024  39.879   5.760
 3818POPC   C1A48939   2.478  40.002   6.138
 3818POPC   D2A48940   2.362  39.983   6.557
 3818POPC   C3A48941   2.561  40.209   6.896
 3818POPC   C4A48942   2.719  39.877   7.117
 3818POPC   C1B48943   3.001  40.053   6.184
 3818POPC   C2B48944   2.915  39.981   6.627
 3818POPC   C3B48945   3.086  40.182   7.038
 3818POPC   C4B48946   3.080  39.986   7.475
 3819POPC   NC348947  41.992   4.674   5.522
 3819POPC   PO448948  41.427   4.262   5.396
 3819POPC   GL148949  41.597   4.445   5.756
 3819POPC   GL248950  41.451   4.746   5.690
 3819POPC   C1A48951  41.708   4.381   6.224
 3819POPC   D2A48952  41.521   4.373   6.632
 3819POPC   C3A48953  41.593   4.259   7.064
 3819POPC   C4A48954  41.807   4.056   7.390
 3819POPC   C1B48955  41.267   4.618   6.113
 3819POPC   C2B48956  41.092   4.676   6.545
 3819POPC   C3B48957  41.175   4.541   6.971
 3819POPC   C4B48958  41.450   4.653   7.349
 3820POPC   NC348959  13.139  30.578   5.392
 3820POPC   PO448960  12.497  30.667   5.217
 3820POPC   GL148961  12.674  30.787   5.662
 3820POPC   GL248962  12.808  30.496   5.810
 3820POPC   C1A48963  12.607  30.835   6.169
 3820POPC   D2A48964  12.606  30.658   6.602
 3820POPC   C3A48965  12.675  30.963   6.930
 3820POPC   C4A48966  12.767  31.091   7.331
 3820POPC   C1B48967  12.988  30.457   6.222
 3820POPC   C2B48968  13.009  30.351   6.658
 3820POPC   C3B48969  12.911  30.535   7.053
 3820POPC   C4B48970  13.092  30.705   7.437
 3821POPC   NC348971  28.357  17.485   5.483
 3821POPC   PO448972  27.965  17.993   5.529
 3821POPC   GL148973  28.288  17.835   5.852
 3821POPC   GL248974  28.629  17.746   5.862
 3821POPC   C1A48975  28.382  17.604   6.259
 3821POPC   D2A48976  28.627  17.400   6.572
 3821POPC   C3A48977  28.348  17.384   6.909
 3821POPC   C4A48978  28.388  17.476   7.307
 3821POPC   C1B48979  28.877  17.723   6.219
 3821POPC   C2B48980  28.744  17.893   6.625
 3821POPC   C3B48981  28.728  17.744   7.063
 3821POPC   C4B48982  28.901  17.639   7.488
 3822POPC   NC348983  10.862   9.989   5.452
 3822POPC   PO448984  10.279   9.698   5.505
 3822POPC   GL148985  10.575   9.749   5.839
 3822POPC   GL248986  10.945   9.633   5.811
 3822POPC   C1A48987  10.375   9.762   6.231
 3822POPC   D2A48988  10.284   9.582   6.610
 3822POPC   C3A48989  10.492   9.791   6.924
 3822POPC   C4A48990  10.708   9.566   7.249
 3822POPC   C1B48991  10.974   9.926   6.140
 3822POPC   C2B48992  10.807   9.894   6.521
 3822POPC   C3B48993  10.983   9.896   6.908
 3822POPC   C4B48994  10.831  10.073   7.256
 3823POPC   NC348995  20.175   8.064   5.563
 3823POPC   PO448996  20.638   8.410   5.102
 3823POPC   GL148997  20.466   8.547   5.643
 3823POPC   GL248998  20.410   8.239   5.942
 3823POPC   C1A48999  20.605   8.610   6.151
 3823POPC   D2A49000  20.474   8.326   6.507
 3823POPC   C3A49001  20.323   8.294   6.919
 3823POPC   C4A49002  20.619   8.159   7.200
 3823POPC   C1B49003  20.305   7.922   6.214
 3823POPC   C2B49004  20.124   7.930   6.606
 3823POPC   C3B49005  20.276   7.760   6.960
 3823POPC   C4B49006  20.216   7.870   7.322
 3824POPC   NC349007  39.022  35.069   5.257
 3824POPC   PO449008  39.089  34.363   5.472
 3824POPC   GL149009  39.251  34.519   5.820
 3824POPC   GL249010  39.475  34.283   5.887
 3824POPC   C1A49011  39.214  34.805   6.163
 3824POPC   D2A49012  38.910  34.915   6.450
 3824POPC   C3A49013  38.891  34.625   6.792
 3824POPC   C4A49014  39.060  34.707   7.184
 3824POPC   C1B49015  39.574  34.426   6.278
 3824POPC   C2B49016  39.391  34.608   6.625
 3824POPC   C3B49017  39.534  34.710   7.025
 3824POPC   C4B49018  39.482  34.469   7.426
 3825POPC   NC349019  39.095  28.279   5.450
 3825POPC   PO449020  38.706  28.733   5.696
 3825POPC   GL149021  39.149  28.590   5.872
 3825POPC   GL249022  39.279  28.224   5.920
 3825POPC   C1A49023  39.303  28.553   6.306
 3825POPC   D2A49024  38.982  28.538   6.608
 3825POPC   C3A49025  39.000  28.290   6.983
 3825POPC   C4A49026  39.076  28.413   7.406
 3825POPC   C1B49027  39.292  28.058   6.334
 3825POPC   C2B49028  39.478  28.240   6.710
 3825POPC   C3B49029  39.500  28.261   7.140
 3825POPC   C4B49030  39.293  27.959   7.358
 3826POPC   NC349031  42.959  10.914   5.287
 3826POPC   PO449032  43.516  10.470   5.344
 3826POPC   GL149033  43.419  10.284   5.807
 3826POPC   GL249034  43.122  10.439   5.897
 3826POPC   C1A49035  43.318  10.171   6.297
 3826POPC   D2A49036  42.992  10.086   6.635
 3826POPC   C3A49037  42.865  10.355   6.929
 3826POPC   C4A49038  43.038  10.397   7.357
 3826POPC   C1B49039  42.913  10.472   6.278
 3826POPC   C2B49040  43.142  10.659   6.601
 3826POPC   C3B49041  43.089  10.794   7.009
 3826POPC   C4B49042  42.677  10.771   7.269
 3827POPC   NC349043  14.203  26.233   5.082
 3827POPC   PO449044  14.630  25.825   5.344
 3827POPC   GL149045  14.381  25.998   5.672
 3827POPC   GL249046  14.574  26.274   5.742
 3827POPC   C1A49047  14.316  26.111   6.146
 3827POPC   D2A49048  14.313  26.332   6.559
 3827POPC   C3A49049  14.246  26.067   6.913
 3827POPC   C4A49050  14.220  25.846   7.304
 3827POPC   C1B49051  14.804  26.360   6.099
 3827POPC   C2B49052  14.971  26.515   6.487
 3827POPC   C3B49053  14.809  26.459   6.896
 3827POPC   C4B49054  14.544  26.305   7.266
 3828POPC   NC349055  41.889  27.015   5.647
 3828POPC   PO449056  41.290  26.655   5.343
 3828POPC   GL149057  41.451  26.687   5.744
 3828POPC   GL249058  41.771  26.525   5.799
 3828POPC   C1A49059  41.382  26.764   6.171
 3828POPC   D2A49060  41.505  26.579   6.531
 3828POPC   C3A49061  41.485  26.761   6.898
 3828POPC   C4A49062  41.204  26.856   7.200
 3828POPC   C1B49063  41.891  26.678   6.210
 3828POPC   C2B49064  41.980  26.960   6.545
 3828POPC   C3B49065  41.963  26.966   6.997
 3828POPC   C4B49066  41.707  26.850   7.346
 3829POPC   NC349067  32.864  34.525   5.438
 3829POPC   PO449068  33.530  34.264   5.534
 3829POPC   GL149069  33.294  34.622   5.743
 3829POPC   GL249070  33.018  34.382   5.883
 3829POPC   C1A49071  33.046  34.819   6.093
 3829POPC   D2A49072  32.819  34.537   6.369
 3829POPC   C3A49073  32.849  34.608   6.766
 3829POPC   C4A49074  33.005  34.739   7.118
 3829POPC   C1B49075  33.293  34.364   6.212
 3829POPC   C2B49076  33.240  34.290   6.634
 3829POPC   C3B49077  33.082  34.238   7.057
 3829POPC   C4B49078  33.263  34.302   7.451
 3830POPC   NC349079  22.384  32.646   5.329
 3830POPC   PO449080  21.962  32.225   5.636
 3830POPC   GL149081  22.401  32.314   5.757
 3830POPC   GL249082  22.541  32.644   5.843
 3830POPC   C1A49083  22.507  32.166   6.181
 3830POPC   D2A49084  22.235  32.267   6.562
 3830POPC   C3A49085  22.374  32.115   6.954
 3830POPC   C4A49086  21.985  31.957   7.124
 3830POPC   C1B49087  22.280  32.626   6.193
 3830POPC   C2B49088  22.321  32.776   6.606
 3830POPC   C3B49089  22.219  32.595   7.005
 3830POPC   C4B49090  22.433  32.710   7.392
 3831POPC   NC349091   0.988  34.084   5.444
 3831POPC   PO449092   1.333  33.526   5.523
 3831POPC   GL149093   1.179  33.758   5.849
 3831POPC   GL249094   0.838  33.760   5.874
 3831POPC   C1A49095   1.378  33.765   6.250
 3831POPC   D2A49096   1.309  34.001   6.617
 3831POPC   C3A49097   1.266  33.862   7.038
 3831POPC   C4A49098   1.417  33.602   7.380
 3831POPC   C1B49099   0.904  33.971   6.275
 3831POPC   C2B49100   0.811  34.053   6.713
 3831POPC   C3B49101   0.776  33.915   7.153
 3831POPC   C4B49102   1.063  33.953   7.518
 3832POPC   NC349103  24.897  18.861   5.336
 3832POPC   PO449104  24.238  18.687   5.234
 3832POPC   GL149105  24.371  18.853   5.704
 3832POPC   GL249106  24.719  18.911   5.789
 3832POPC   C1A49107  24.441  19.006   6.176
 3832POPC   D2A49108  24.422  19.141   6.594
 3832POPC   C3A49109  24.299  18.876   6.906
 3832POPC   C4A49110  24.244  18.999   7.306
 3832POPC   C1B49111  24.967  18.864   6.130
 3832POPC   C2B49112  24.873  18.918   6.538
 3832POPC   C3B49113  24.785  19.009   6.957
 3832POPC   C4B49114  24.676  18.744   7.255
 3833POPC   NC349115  32.491  32.647   5.575
 3833POPC   PO449116  31.990  32.268   5.312
 3833POPC   GL149117  32.174  32.275   5.749
 3833POPC   GL249118  32.552  32.188   5.811
 3833POPC   C1A49119  32.113  32.362   6.192
 3833POPC   D2A49120  32.048  32.549   6.582
 3833POPC   C3A49121  32.107  32.292   6.929
 3833POPC   C4A49122  32.320  32.435   7.288
 3833POPC   C1B49123  32.605  31.910   6.213
 3833POPC   C2B49124  32.699  31.864   6.700
 3833POPC   C3B49125  32.668  32.089   7.117
 3833POPC   C4B49126  32.613  32.138   7.592
 3834POPC   NC349127  25.948  40.163   5.212
 3834POPC   PO449128  25.996  39.603   5.554
 3834POPC   GL149129  25.911  39.872   5.869
 3834POPC   GL249130  25.852  40.188   5.732
 3834POPC   C1A49131  25.765  39.997   6.226
 3834POPC   D2A49132  25.533  39.907   6.573
 3834POPC   C3A49133  25.745  40.002   6.960
 3834POPC   C4A49134  25.765  39.990   7.406
 3834POPC   C1B49135  26.177  40.302   6.054
 3834POPC   C2B49136  26.310  40.278   6.482
 3834POPC   C3B49137  26.481  40.290   6.904
 3834POPC   C4B49138  26.199  40.121   7.187
 3835POPC   NC349139  44.421  18.624   5.459
 3835POPC   PO449140   0.040  18.588   5.149
 3835POPC   GL149141  44.840  18.342   5.603
 3835POPC   GL249142  44.623  18.011   5.674
 3835POPC   C1A49143  44.604  18.381   6.067
 3835POPC   D2A49144  44.371  18.589   6.447
 3835POPC   C3A49145  44.396  18.462   6.867
 3835POPC   C4A49146  44.645  18.373   7.211
 3835POPC   C1B49147  44.449  17.871   6.095
 3835POPC   C2B49148  44.494  18.010   6.536
 3835POPC   C3B49149  44.341  17.959   6.953
 3835POPC   C4B49150  44.421  17.894   7.362
 3836POPC   NC349151  42.519  27.718   5.314
 3836POPC   PO449152  42.126  27.202   5.314
 3836POPC   GL149153  42.287  27.559   5.738
 3836POPC   GL249154  42.566  27.415   5.912
 3836POPC   C1A49155  42.549  27.824   6.166
 3836POPC   D2A49156  42.590  27.580   6.580
 3836POPC   C3A49157  42.602  27.827   6.938
 3836POPC   C4A49158  42.297  27.951   7.181
 3836POPC   C1B49159  42.185  27.506   6.243
 3836POPC   C2B49160  42.037  27.478   6.695
 3836POPC   C3B49161  42.169  27.421   7.133
 3836POPC   C4B49162  42.050  27.163   7.540
 3837POPC   NC349163   4.900  32.549   5.515
 3837POPC   PO449164   4.295  32.220   5.466
 3837POPC   GL149165   4.484  32.072   5.837
 3837POPC   GL249166   4.643  32.369   5.915
 3837POPC   C1A49167   4.500  32.111   6.304
 3837POPC   D2A49168   4.201  32.266   6.618
 3837POPC   C3A49169   4.067  32.071   6.966
 3837POPC   C4A49170   4.335  32.092   7.272
 3837POPC   C1B49171   4.386  32.600   6.263
 3837POPC   C2B49172   4.541  32.685   6.626
 3837POPC   C3B49173   4.557  32.446   6.980
 3837POPC   C4B49174   4.488  32.565   7.381
 3838POPC   NC349175  13.583  11.731   5.537
 3838POPC   PO449176  13.515  12.355   5.248
 3838POPC   GL149177  13.488  12.372   5.715
 3838POPC   GL249178  13.668  12.108   5.860
 3838POPC   C1A49179  13.387  12.395   6.184
 3838POPC   D2A49180  13.661  12.344   6.584
 3838POPC   C3A49181  13.492  12.291   6.992
 3838POPC   C4A49182  13.346  12.641   7.226
 3838POPC   C1B49183  13.550  11.914   6.293
 3838POPC   C2B49184  13.692  11.849   6.752
 3838POPC   C3B49185  13.695  11.880   7.213
 3838POPC   C4B49186  13.928  12.014   7.546
 3839POPC   NC349187  32.673  17.102   5.578
 3839POPC   PO449188  33.241  16.839   5.246
 3839POPC   GL149189  32.871  16.686   5.740
 3839POPC   GL249190  32.916  16.949   6.005
 3839POPC   C1A49191  33.044  16.516   6.218
 3839POPC   D2A49192  33.022  16.372   6.648
 3839POPC   C3A49193  32.820  16.589   7.002
 3839POPC   C4A49194  32.912  16.505   7.454
 3839POPC   C1B49195  33.195  17.001   6.363
 3839POPC   C2B49196  33.234  16.862   6.800
 3839POPC   C3B49197  33.172  16.878   7.229
 3839POPC   C4B49198  32.987  16.971   7.641
 3840POPC   NC349199   9.808  35.620   5.337
 3840POPC   PO449200   9.437  35.110   5.311
 3840POPC   GL149201   9.648  35.216   5.725
 3840POPC   GL249202  10.022  35.238   5.776
 3840POPC   C1A49203   9.612  35.171   6.182
 3840POPC   D2A49204   9.713  35.347   6.591
 3840POPC   C3A49205   9.629  35.140   6.971
 3840POPC   C4A49206   9.785  35.250   7.321
 3840POPC   C1B49207  10.077  35.468   6.220
 3840POPC   C2B49208  10.044  35.730   6.623
 3840POPC   C3B49209  10.022  35.647   7.070
 3840POPC   C4B49210  10.121  35.582   7.520
 3841POPC   NC349211  10.158  40.199   5.395
 3841POPC   PO449212  10.809  39.941   5.504
 3841POPC   GL149213  10.471  40.042   5.813
 3841POPC   GL249214  10.420  40.396   5.876
 3841POPC   C1A49215  10.412  39.877   6.223
 3841POPC   D2A49216  10.674  40.089   6.540
 3841POPC   C3A49217  10.708  39.985   6.954
 3841POPC   C4A49218  10.647  39.770   7.323
 3841POPC   C1B49219  10.313  40.369   6.326
 3841POPC   C2B49220  10.178  40.084   6.663
 3841POPC   C3B49221  10.205  39.891   7.039
 3841POPC   C4B49222  10.258  40.196   7.315
 3842POPC   NC349223  27.728  34.715   5.294
 3842POPC   PO449224  28.496  34.713   5.295
 3842POPC   GL149225  28.531  34.721   5.743
 3842POPC   GL249226  28.266  34.465   5.746
 3842POPC   C1A49227  28.570  34.490   6.137
 3842POPC   D2A49228  28.544  34.572   6.567
 3842POPC   C3A49229  28.687  34.282   6.844
 3842POPC   C4A49230  28.606  34.415   7.215
 3842POPC   C1B49231  28.039  34.354   6.130
 3842POPC   C2B49232  27.978  34.456   6.523
 3842POPC   C3B49233  28.193  34.382   6.886
 3842POPC   C4B49234  28.113  34.590   7.247
 3843POPC   NC349235  10.592  15.515   5.537
 3843POPC   PO449236  10.371  14.828   5.634
 3843POPC   GL149237  10.374  15.188   5.842
 3843POPC   GL249238  10.091  15.399   5.760
 3843POPC   C1A49239  10.441  15.478   6.181
 3843POPC   D2A49240  10.676  15.511   6.553
 3843POPC   C3A49241  10.471  15.452   6.952
 3843POPC   C4A49242  10.726  15.440   7.309
 3843POPC   C1B49243  10.040  15.140   6.195
 3843POPC   C2B49244  10.212  15.207   6.568
 3843POPC   C3B49245  10.170  14.998   6.929
 3843POPC   C4B49246  10.429  15.012   7.281
 3844POPC   NC349247  35.734  28.396   5.202
 3844POPC   PO449248  35.101  28.440   5.490
 3844POPC   GL149249  35.218  28.343   5.877
 3844POPC   GL249250  35.542  28.171   5.840
 3844POPC   C1A49251  35.152  28.493   6.285
 3844POPC   D2A49252  35.070  28.772   6.612
 3844POPC   C3A49253  35.162  28.523   6.936
 3844POPC   C4A49254  35.366  28.524   7.273
 3844POPC   C1B49255  35.345  28.008   6.227
 3844POPC   C2B49256  35.180  28.108   6.617
 3844POPC   C3B49257  35.419  28.090   6.990
 3844POPC   C4B49258  35.645  28.094   7.368
 3845POPC   NC349259  35.663   8.192   5.419
 3845POPC   PO449260  35.005   7.996   5.318
 3845POPC   GL149261  35.106   8.209   5.730
 3845POPC   GL249262  35.427   8.343   5.819
 3845POPC   C1A49263  35.151   8.006   6.151
 3845POPC   D2A49264  34.968   7.870   6.561
 3845POPC   C3A49265  34.980   8.161   6.882
 3845POPC   C4A49266  35.177   8.017   7.207
 3845POPC   C1B49267  35.431   8.439   6.219
 3845POPC   C2B49268  35.336   8.433   6.636
 3845POPC   C3B49269  35.340   8.513   7.071
 3845POPC   C4B49270  35.495   8.328   7.448
 3846POPC   NC349271  41.361  29.383   5.377
 3846POPC   PO449272  41.882  28.972   5.429
 3846POPC   GL149273  41.699  29.222   5.730
 3846POPC   GL249274  41.341  29.122   5.800
 3846POPC   C1A49275  41.738  29.288   6.166
 3846POPC   D2A49276  41.894  29.023   6.526
 3846POPC   C3A49277  41.716  29.105   6.944
 3846POPC   C4A49278  41.780  29.325   7.332
 3846POPC   C1B49279  41.228  29.292   6.166
 3846POPC   C2B49280  41.395  29.259   6.553
 3846POPC   C3B49281  41.316  29.457   6.907
 3846POPC   C4B49282  41.274  29.228   7.227
 3847POPC   NC349283  15.326  31.251   5.456
 3847POPC   PO449284  14.818  31.542   5.201
 3847POPC   GL149285  14.877  31.378   5.704
 3847POPC   GL249286  15.226  31.495   5.882
 3847POPC   C1A49287  14.810  31.578   6.159
 3847POPC   D2A49288  14.815  31.361   6.556
 3847POPC   C3A49289  14.814  31.579   6.950
 3847POPC   C4A49290  14.844  31.646   7.393
 3847POPC   C1B49291  15.290  31.482   6.321
 3847POPC   C2B49292  15.436  31.595   6.728
 3847POPC   C3B49293  15.289  31.569   7.135
 3847POPC   C4B49294  15.347  31.218   7.403
 3848POPC   NC349295  15.423  28.780   5.459
 3848POPC   PO449296  14.900  29.097   5.393
 3848POPC   GL149297  14.970  29.092   5.825
 3848POPC   GL249298  15.298  29.253   5.830
 3848POPC   C1A49299  15.181  28.876   6.192
 3848POPC   D2A49300  15.397  28.971   6.596
 3848POPC   C3A49301  15.291  28.836   7.025
 3848POPC   C4A49302  15.569  28.947   7.360
 3848POPC   C1B49303  15.142  29.400   6.229
 3848POPC   C2B49304  15.370  29.501   6.604
 3848POPC   C3B49305  15.412  29.340   7.005
 3848POPC   C4B49306  15.371  29.582   7.354
 3849POPC   NC349307  20.819   1.221   5.354
 3849POPC   PO449308  20.948   0.609   5.535
 3849POPC   GL149309  20.819   0.979   5.817
 3849POPC   GL249310  20.671   1.310   5.827
 3849POPC   C1A49311  20.887   1.109   6.262
 3849POPC   D2A49312  20.890   0.925   6.673
 3849POPC   C3A49313  20.798   1.174   7.027
 3849POPC   C4A49314  20.906   1.110   7.447
 3849POPC   C1B49315  20.496   1.449   6.206
 3849POPC   C2B49316  20.493   1.293   6.618
 3849POPC   C3B49317  20.419   1.514   7.000
 3849POPC   C4B49318  20.502   1.442   7.422
 3850POPC   NC349319  37.347  41.690   5.457
 3850POPC   PO449320  37.925  41.308   5.339
 3850POPC   GL149321  37.846  41.432   5.805
 3850POPC   GL249322  37.645  41.758   5.881
 3850POPC   C1A49323  37.817  41.508   6.279
 3850POPC   D2A49324  37.932  41.789   6.618
 3850POPC   C3A49325  37.738  41.575   6.958
 3850POPC   C4A49326  37.539  41.309   7.299
 3850POPC   C1B49327  37.504  41.923   6.317
 3850POPC   C2B49328  37.336  41.834   6.758
 3850POPC   C3B49329  37.372  41.789   7.260
 3850POPC   C4B49330  37.485  41.699   7.723
 3851POPC   NC349331  10.263   7.832   5.354
 3851POPC   PO449332  10.504   7.253   5.430
 3851POPC   GL149333  10.623   7.238   5.854
 3851POPC   GL249334  10.673   7.594   5.940
 3851POPC   C1A49335  10.656   7.198   6.282
 3851POPC   D2A49336  10.460   7.408   6.635
 3851POPC   C3A49337  10.559   7.240   7.036
 3851POPC   C4A49338  10.844   6.964   7.258
 3851POPC   C1B49339  10.301   7.758   6.210
 3851POPC   C2B49340  10.078   7.752   6.642
 3851POPC   C3B49341  10.170   7.612   7.051
 3851POPC   C4B49342  10.423   7.600   7.421
 3852POPC   NC349343  43.997  42.553   5.397
 3852POPC   PO449344  43.620  41.936   5.375
 3852POPC   GL149345  43.840  42.149   5.719
 3852POPC   GL249346  43.799  42.519   5.858
 3852POPC   C1A49347  44.101  42.085   6.078
 3852POPC   D2A49348  43.895  42.221   6.423
 3852POPC   C3A49349  44.085  42.216   6.798
 3852POPC   C4A49350  43.977  42.240   7.195
 3852POPC   C1B49351  44.016  42.683   6.231
 3852POPC   C2B49352  43.844  42.664   6.661
 3852POPC   C3B49353  43.945  42.723   7.068
 3852POPC   C4B49354  44.299  42.633   7.305
 3853POPC   NC349355  22.267  20.722   5.290
 3853POPC   PO449356  21.620  20.590   5.432
 3853POPC   GL149357  21.927  20.804   5.762
 3853POPC   GL249358  22.317  20.815   5.799
 3853POPC   C1A49359  21.889  20.937   6.225
 3853POPC   D2A49360  21.738  20.895   6.692
 3853POPC   C3A49361  22.026  20.768   7.033
 3853POPC   C4A49362  22.133  20.350   7.225
 3853POPC   C1B49363  22.393  20.857   6.245
 3853POPC   C2B49364  22.256  21.035   6.624
 3853POPC   C3B49365  22.520  20.935   6.976
 3853POPC   C4B49366  22.629  20.543   7.221
 3854POPC   NC349367  12.378   7.892   5.427
 3854POPC   PO449368  11.961   7.453   5.166
 3854POPC   GL149369  12.027   7.377   5.628
 3854POPC   GL249370  12.054   7.696   5.781
 3854POPC   C1A49371  12.032   7.284   6.103
 3854POPC   D2A49372  12.242   7.279   6.519
 3854POPC   C3A49373  12.037   7.260   6.926
 3854POPC   C4A49374  12.045   7.532   7.284
 3854POPC   C1B49375  12.312   7.769   6.164
 3854POPC   C2B49376  12.523   7.730   6.577
 3854POPC   C3B49377  12.458   7.636   7.028
 3854POPC   C4B49378  12.492   7.535   7.525
 3855POPC   NC349379   3.764  21.678   5.356
 3855POPC   PO449380   3.361  21.215   5.480
 3855POPC   GL149381   3.616  21.406   5.801
 3855POPC   GL249382   3.571  21.767   5.825
 3855POPC   C1A49383   3.686  21.261   6.222
 3855POPC   D2A49384   3.535  21.078   6.590
 3855POPC   C3A49385   3.529  21.277   6.995
 3855POPC   C4A49386   3.696  21.137   7.389
 3855POPC   C1B49387   3.912  21.698   6.141
 3855POPC   C2B49388   3.899  21.554   6.604
 3855POPC   C3B49389   3.724  21.759   7.008
 3855POPC   C4B49390   3.523  21.940   7.403
 3856POPC   NC349391  13.563  38.844   5.060
 3856POPC   PO449392  13.774  38.351   5.450
 3856POPC   GL149393  13.652  38.516   5.873
 3856POPC   GL249394  13.822  38.826   6.023
 3856POPC   C1A49395  13.587  38.382   6.296
 3856POPC   D2A49396  13.218  38.385   6.505
 3856POPC   C3A49397  13.299  38.246   6.905
 3856POPC   C4A49398  13.635  38.327   7.170
 3856POPC   C1B49399  13.459  38.852   6.281
 3856POPC   C2B49400  13.503  38.757   6.726
 3856POPC   C3B49401  13.733  38.816   7.114
 3856POPC   C4B49402  13.852  38.831   7.591
 3857POPC   NC349403  25.688  18.553   5.577
 3857POPC   PO449404  26.259  18.960   5.301
 3857POPC   GL149405  26.027  18.949   5.691
 3857POPC   GL249406  25.797  19.238   5.756
 3857POPC   C1A49407  26.088  19.033   6.131
 3857POPC   D2A49408  25.985  19.260   6.492
 3857POPC   C3A49409  26.170  19.147   6.868
 3857POPC   C4A49410  25.975  18.929   7.197
 3857POPC   C1B49411  25.538  19.453   6.057
 3857POPC   C2B49412  25.587  19.585   6.478
 3857POPC   C3B49413  25.640  19.326   6.883
 3857POPC   C4B49414  25.939  19.420   7.221
 3858POPC   NC349415   4.940  13.388   5.374
 3858POPC   PO449416   5.315  13.964   5.302
 3858POPC   GL149417   5.067  13.800   5.675
 3858POPC   GL249418   4.750  13.986   5.765
 3858POPC   C1A49419   5.028  13.469   6.040
 3858POPC   D2A49420   5.407  13.358   6.342
 3858POPC   C3A49421   5.357  13.359   6.809
 3858POPC   C4A49422   5.094  13.349   7.179
 3858POPC   C1B49423   5.036  13.951   6.163
 3858POPC   C2B49424   5.016  13.657   6.526
 3858POPC   C3B49425   5.024  13.779   6.946
 3858POPC   C4B49426   5.019  13.910   7.410
 3859POPC   NC349427   6.229  30.770   5.461
 3859POPC   PO449428   6.822  30.522   5.287
 3859POPC   GL149429   6.771  30.539   5.753
 3859POPC   GL249430   6.431  30.446   5.792
 3859POPC   C1A49431   6.848  30.860   6.130
 3859POPC   D2A49432   6.883  31.110   6.533
 3859POPC   C3A49433   6.684  30.925   6.870
 3859POPC   C4A49434   6.543  30.842   7.301
 3859POPC   C1B49435   6.358  30.772   6.105
 3859POPC   C2B49436   6.323  30.880   6.513
 3859POPC   C3B49437   6.276  30.588   6.843
 3859POPC   C4B49438   6.095  30.648   7.227
 3860POPC   NC349439  41.630  21.195   5.418
 3860POPC   PO449440  40.963  21.221   5.408
 3860POPC   GL149441  41.294  21.226   5.773
 3860POPC   GL249442  41.363  21.554   5.798
 3860POPC   C1A49443  41.592  21.202   6.149
 3860POPC   D2A49444  41.752  21.069   6.576
 3860POPC   C3A49445  41.552  21.188   6.957
 3860POPC   C4A49446  41.575  21.176   7.393
 3860POPC   C1B49447  41.238  21.607   6.226
 3860POPC   C2B49448  41.531  21.548   6.563
 3860POPC   C3B49449  41.897  21.657   6.809
 3860POPC   C4B49450  41.838  21.604   7.224
 3861POPC   NC349451  13.280  42.990   5.504
 3861POPC   PO449452  12.572  42.913   5.321
 3861POPC   GL149453  12.754  43.092   5.703
 3861POPC   GL249454  12.651  42.787   5.822
 3861POPC   C1A49455  12.930  43.147   6.153
 3861POPC   D2A49456  13.200  43.164   6.544
 3861POPC   C3A49457  12.955  43.086   6.919
 3861POPC   C4A49458  12.802  43.267   7.310
 3861POPC   C1B49459  12.503  42.816   6.227
 3861POPC   C2B49460  12.532  43.025   6.639
 3861POPC   C3B49461  12.495  42.914   7.067
 3861POPC   C4B49462  12.724  42.772   7.417
 3862POPC   NC349463   5.194   4.066   5.475
 3862POPC   PO449464   5.007   4.734   5.518
 3862POPC   GL149465   5.002   4.431   5.813
 3862POPC   GL249466   4.828   4.124   5.824
 3862POPC   C1A49467   5.175   4.257   6.166
 3862POPC   D2A49468   5.378   4.268   6.537
 3862POPC   C3A49469   5.240   4.256   6.925
 3862POPC   C4A49470   5.416   4.532   7.189
 3862POPC   C1B49471   4.713   3.970   6.228
 3862POPC   C2B49472   4.643   3.750   6.602
 3862POPC   C3B49473   4.951   3.742   6.907
 3862POPC   C4B49474   4.974   3.982   7.251
 3863POPC   NC349475   3.697  39.936   5.479
 3863POPC   PO449476   3.234  40.326   5.540
 3863POPC   GL149477   3.432  40.194   5.868
 3863POPC   GL249478   3.512  39.844   5.943
 3863POPC   C1A49479   3.406  40.362   6.236
 3863POPC   D2A49480   3.375  40.169   6.599
 3863POPC   C3A49481   3.586  40.158   6.969
 3863POPC   C4A49482   3.389  39.769   7.140
 3863POPC   C1B49483   3.830  40.083   6.170
 3863POPC   C2B49484   3.822  39.909   6.574
 3863POPC   C3B49485   3.843  39.689   6.929
 3863POPC   C4B49486   3.883  39.917   7.297
 3864POPC   NC349487  10.891   0.228   5.334
 3864POPC   PO449488  10.196   0.461   5.432
 3864POPC   GL149489  10.597   0.465   5.678
 3864POPC   GL249490  10.688   0.113   5.809
 3864POPC   C1A49491  10.706   0.733   6.037
 3864POPC   D2A49492  10.499   0.755   6.438
 3864POPC   C3A49493  10.711   0.608   6.822
 3864POPC   C4A49494  10.669   0.753   7.247
 3864POPC   C1B49495  10.414   0.321   6.140
 3864POPC   C2B49496  10.332   0.275   6.580
 3864POPC   C3B49497  10.276   0.419   6.998
 3864POPC   C4B49498  10.567   0.259   7.257
 3865POPC   NC349499  11.380  24.329   5.297
 3865POPC   PO449500  10.778  24.364   5.558
 3865POPC   GL149501  11.136  24.353   5.750
 3865POPC   GL249502  11.384  24.624   5.795
 3865POPC   C1A49503  11.126  24.304   6.157
 3865POPC   D2A49504  11.293  24.282   6.552
 3865POPC   C3A49505  11.021  24.102   6.802
 3865POPC   C4A49506  10.762  24.234   7.106
 3865POPC   C1B49507  11.281  24.781   6.253
 3865POPC   C2B49508  11.432  24.751   6.669
 3865POPC   C3B49509  11.408  24.517   7.044
 3865POPC   C4B49510  11.556  24.604   7.458
 3866POPC   NC349511   7.555  15.692   5.572
 3866POPC   PO449512   7.159  16.231   5.384
 3866POPC   GL149513   7.223  16.053   5.774
 3866POPC   GL249514   7.557  16.168   5.805
 3866POPC   C1A49515   7.341  15.805   6.166
 3866POPC   D2A49516   7.523  15.853   6.556
 3866POPC   C3A49517   7.235  15.949   6.861
 3866POPC   C4A49518   7.351  15.828   7.245
 3866POPC   C1B49519   7.366  16.322   6.199
 3866POPC   C2B49520   7.510  16.379   6.630
 3866POPC   C3B49521   7.630  16.235   7.063
 3866POPC   C4B49522   7.660  16.152   7.533
 3867POPC   NC349523  35.585  19.202   5.652
 3867POPC   PO449524  36.233  18.934   5.456
 3867POPC   GL149525  36.043  19.013   5.903
 3867POPC   GL249526  35.825  19.283   6.113
 3867POPC   C1A49527  36.198  19.034   6.334
 3867POPC   D2A49528  35.989  18.996   6.706
 3867POPC   C3A49529  36.202  18.859   7.021
 3867POPC   C4A49530  36.289  19.085   7.333
 3867POPC   C1B49531  36.119  19.544   6.331
 3867POPC   C2B49532  36.126  19.531   6.771
 3867POPC   C3B49533  35.924  19.361   7.110
 3867POPC   C4B49534  35.798  19.109   7.460
 3868POPC   NC349535  26.781  23.283   5.507
 3868POPC   PO449536  26.744  22.697   5.445
 3868POPC   GL149537  26.692  22.868   5.824
 3868POPC   GL249538  27.047  22.951   5.815
 3868POPC   C1A49539  26.761  23.107   6.199
 3868POPC   D2A49540  26.816  22.863   6.524
 3868POPC   C3A49541  26.961  23.104   6.813
 3868POPC   C4A49542  26.867  23.129   7.206
 3868POPC   C1B49543  27.236  22.874   6.201
 3868POPC   C2B49544  27.300  22.734   6.629
 3868POPC   C3B49545  27.076  22.662   7.020
 3868POPC   C4B49546  27.055  22.772   7.488
 3869POPC   NC349547  40.366  38.966   5.370
 3869POPC   PO449548  39.907  39.619   5.326
 3869POPC   GL149549  40.030  39.442   5.730
 3869POPC   GL249550  39.972  39.080   5.717
 3869POPC   C1A49551  39.880  39.345   6.150
 3869POPC   D2A49552  39.973  39.494   6.553
 3869POPC   C3A49553  39.933  39.384   6.981
 3869POPC   C4A49554  39.739  39.185   7.329
 3869POPC   C1B49555  40.177  38.925   6.094
 3869POPC   C2B49556  40.003  38.977   6.511
 3869POPC   C3B49557  39.946  38.850   6.923
 3869POPC   C4B49558  40.224  39.004   7.223
 3870POPC   NC349559   0.179  21.989   4.934
 3870POPC   PO449560   0.277  21.442   5.371
 3870POPC   GL149561   0.404  21.331   5.800
 3870POPC   GL249562   0.511  21.002   5.759
 3870POPC   C1A49563   0.393  21.314   6.244
 3870POPC   D2A49564   0.609  21.475   6.602
 3870POPC   C3A49565   0.350  21.423   6.944
 3870POPC   C4A49566   0.461  21.360   7.337
 3870POPC   C1B49567   0.796  21.029   6.114
 3870POPC   C2B49568   0.783  20.989   6.549
 3870POPC   C3B49569   0.832  21.162   6.965
 3870POPC   C4B49570   0.836  20.999   7.347
 3871POPC   NC349571  13.371  20.502   5.159
 3871POPC   PO449572  12.797  20.616   5.445
 3871POPC   GL149573  12.750  20.751   5.832
 3871POPC   GL249574  12.790  20.402   5.943
 3871POPC   C1A49575  12.910  20.769   6.271
 3871POPC   D2A49576  13.032  20.505   6.626
 3871POPC   C3A49577  12.917  20.625   7.055
 3871POPC   C4A49578  12.920  20.512   7.496
 3871POPC   C1B49579  12.561  20.322   6.311
 3871POPC   C2B49580  12.602  20.223   6.728
 3871POPC   C3B49581  12.601  20.224   7.166
 3871POPC   C4B49582  12.574  20.143   7.603
 3872POPC   NC349583  22.385  38.385   5.485
 3872POPC   PO449584  21.776  38.728   5.505
 3872POPC   GL149585  22.006  38.592   5.847
 3872POPC   GL249586  21.683  38.603   6.013
 3872POPC   C1A49587  22.074  38.361   6.234
 3872POPC   D2A49588  22.365  38.502   6.542
 3872POPC   C3A49589  22.340  38.621   6.960
 3872POPC   C4A49590  22.295  38.303   7.225
 3872POPC   C1B49591  21.698  38.679   6.434
 3872POPC   C2B49592  21.823  38.386   6.737
 3872POPC   C3B49593  21.801  38.506   7.142
 3872POPC   C4B49594  21.998  38.871   7.255
 3873POPC   NC349595  41.318  42.884   5.481
 3873POPC   PO449596  41.923  43.189   5.513
 3873POPC   GL149597  41.575  43.156   5.818
 3873POPC   GL249598  41.703  42.895   5.879
 3873POPC   C1A49599  41.316  43.006   6.165
 3873POPC   D2A49600  41.225  43.132   6.574
 3873POPC   C3A49601  41.321  42.862   6.909
 3873POPC   C4A49602  41.318  43.004   7.287
 3873POPC   C1B49603  41.803  43.151   6.261
 3873POPC   C2B49604  41.747  43.065   6.687
 3873POPC   C3B49605  41.834  43.193   7.091
 3873POPC   C4B49606  41.796  43.411   7.452
 3874POPC   NC349607  18.839  37.061   5.204
 3874POPC   PO449608  19.414  36.891   5.518
 3874POPC   GL149609  19.008  36.929   5.734
 3874POPC   GL249610  18.869  36.610   5.888
 3874POPC   C1A49611  18.901  37.084   6.164
 3874POPC   D2A49612  19.202  37.200   6.501
 3874POPC   C3A49613  19.103  37.116   6.924
 3874POPC   C4A49614  19.324  37.006   7.301
 3874POPC   C1B49615  18.877  36.543   6.311
 3874POPC   C2B49616  19.114  36.668   6.663
 3874POPC   C3B49617  19.051  36.635   7.085
 3874POPC   C4B49618  18.940  36.425   7.449
 3875POPC   NC349619  26.965  38.081   5.619
 3875POPC   PO449620  26.939  37.491   5.482
 3875POPC   GL149621  26.805  37.513   5.841
 3875POPC   GL249622  26.576  37.219   5.827
 3875POPC   C1A49623  26.875  37.759   6.221
 3875POPC   D2A49624  26.812  37.921   6.621
 3875POPC   C3A49625  27.026  37.711   6.923
 3875POPC   C4A49626  26.841  37.791   7.312
 3875POPC   C1B49627  26.593  37.332   6.246
 3875POPC   C2B49628  26.453  37.563   6.551
 3875POPC   C3B49629  26.574  37.518   6.958
 3875POPC   C4B49630  26.501  37.170   7.176
 3876POPC   NC349631   5.000  17.132   5.370
 3876POPC   PO449632   4.962  16.461   5.412
 3876POPC   GL149633   4.925  16.648   5.796
 3876POPC   GL249634   5.170  16.935   5.811
 3876POPC   C1A49635   5.147  16.573   6.193
 3876POPC   D2A49636   5.313  16.416   6.578
 3876POPC   C3A49637   5.234  16.683   6.926
 3876POPC   C4A49638   4.937  16.661   7.201
 3876POPC   C1B49639   4.888  17.021   6.140
 3876POPC   C2B49640   4.902  16.862   6.560
 3876POPC   C3B49641   4.769  17.115   6.906
 3876POPC   C4B49642   4.868  17.154   7.314
 3877POPC   NC349643  24.190  24.022   5.484
 3877POPC   PO449644  24.687  23.637   5.399
 3877POPC   GL149645  24.567  23.828   5.796
 3877POPC   GL249646  24.282  23.584   5.777
 3877POPC   C1A49647  24.316  23.815   6.224
 3877POPC   D2A49648  24.286  23.601   6.619
 3877POPC   C3A49649  24.310  23.858   6.978
 3877POPC   C4A49650  24.213  23.827   7.410
 3877POPC   C1B49651  24.599  23.393   6.088
 3877POPC   C2B49652  24.787  23.463   6.492
 3877POPC   C3B49653  24.755  23.592   6.908
 3877POPC   C4B49654  24.700  23.759   7.302
 3878POPC   NC349655  44.885  19.940   5.367
 3878POPC   PO449656  44.238  19.655   5.590
 3878POPC   GL149657  44.543  19.814   5.835
 3878POPC   GL249658  44.880  19.644   5.816
 3878POPC   C1A49659  44.625  20.043   6.215
 3878POPC   D2A49660  44.877  20.032   6.552
 3878POPC   C3A49661  44.708  20.185   6.906
 3878POPC   C4A49662  44.738  20.235   7.329
 3878POPC   C1B49663  44.808  19.560   6.283
 3878POPC   C2B49664  44.768  19.580   6.754
 3878POPC   C3B49665  44.936  19.765   7.147
 3878POPC   C4B49666   0.095  19.929   7.560
 3879POPC   NC349667  29.474   1.794   5.508
 3879POPC   PO449668  29.012   1.983   5.033
 3879POPC   GL149669  28.990   1.970   5.551
 3879POPC   GL249670  29.035   1.660   5.740
 3879POPC   C1A49671  28.984   2.063   6.044
 3879POPC   D2A49672  29.009   2.108   6.492
 3879POPC   C3A49673  29.335   2.317   6.716
 3879POPC   C4A49674  29.209   2.107   7.059
 3879POPC   C1B49675  29.372   1.711   6.107
 3879POPC   C2B49676  29.448   1.806   6.514
 3879POPC   C3B49677  29.258   1.614   6.846
 3879POPC   C4B49678  29.097   1.637   7.237
 3880POPC   NC349679   6.046   5.469   5.096
 3880POPC   PO449680   5.666   5.868   5.414
 3880POPC   GL149681   5.728   5.878   5.902
 3880POPC   GL249682   6.051   6.045   5.909
 3880POPC   C1A49683   5.609   5.699   6.322
 3880POPC   D2A49684   5.523   5.972   6.676
 3880POPC   C3A49685   5.683   5.886   7.069
 3880POPC   C4A49686   6.053   5.618   7.101
 3880POPC   C1B49687   5.908   6.140   6.342
 3880POPC   C2B49688   6.071   5.986   6.736
 3880POPC   C3B49689   6.198   6.146   7.141
 3880POPC   C4B49690   6.279   6.332   7.585
 3881POPC   NC349691   9.058  29.809   5.179
 3881POPC   PO449692   8.462  29.969   5.299
 3881POPC   GL149693   8.789  29.836   5.616
 3881POPC   GL249694   9.082  30.051   5.644
 3881POPC   C1A49695   8.958  29.690   6.038
 3881POPC   D2A49696   8.792  29.745   6.473
 3881POPC   C3A49697   8.753  29.583   6.909
 3881POPC   C4A49698   9.015  29.538   7.262
 3881POPC   C1B49699   9.237  30.117   6.068
 3881POPC   C2B49700   9.319  29.857   6.431
 3881POPC   C3B49701   9.187  29.882   6.865
 3881POPC   C4B49702   9.101  30.093   7.253
 3882POPC   NC349703  17.166  19.726   5.516
 3882POPC   PO449704  17.377  20.208   5.237
 3882POPC   GL149705  17.630  19.978   5.624
 3882POPC   GL249706  17.582  19.625   5.789
 3882POPC   C1A49707  17.773  20.021   6.090
 3882POPC   D2A49708  17.703  20.227   6.530
 3882POPC   C3A49709  17.833  20.054   6.938
 3882POPC   C4A49710  17.479  20.013   7.212
 3882POPC   C1B49711  17.214  19.542   6.144
 3882POPC   C2B49712  17.077  19.421   6.602
 3882POPC   C3B49713  17.245  19.527   7.044
 3882POPC   C4B49714  17.699  19.565   7.095
 3883POPC   NC349715  19.341  35.623   5.583
 3883POPC   PO449716  18.980  35.009   5.395
 3883POPC   GL149717  18.950  35.268   5.736
 3883POPC   GL249718  18.894  34.940   5.893
 3883POPC   C1A49719  19.008  35.520   6.140
 3883POPC   D2A49720  18.875  35.627   6.571
 3883POPC   C3A49721  19.000  35.380   6.933
 3883POPC   C4A49722  19.237  35.374   7.308
 3883POPC   C1B49723  19.284  35.092   6.069
 3883POPC   C2B49724  19.180  35.154   6.505
 3883POPC   C3B49725  19.213  34.884   6.875
 3883POPC   C4B49726  19.413  34.872   7.292
 3884POPC   NC349727   8.472  23.085   5.511
 3884POPC   PO449728   8.185  22.503   5.469
 3884POPC   GL149729   8.128  22.793   5.803
 3884POPC   GL249730   7.846  23.012   5.865
 3884POPC   C1A49731   8.259  22.765   6.213
 3884POPC   D2A49732   8.442  22.911   6.570
 3884POPC   C3A49733   8.307  22.816   6.950
 3884POPC   C4A49734   8.088  22.754   7.309
 3884POPC   C1B49735   8.153  23.258   6.140
 3884POPC   C2B49736   8.092  23.335   6.585
 3884POPC   C3B49737   7.984  23.214   7.004
 3884POPC   C4B49738   8.203  23.247   7.396
 3885POPC   NC349739  20.488   0.568   5.536
 3885POPC   PO449740  19.885   0.625   5.249
 3885POPC   GL149741  19.922   0.562   5.717
 3885POPC   GL249742  19.610   0.440   5.862
 3885POPC   C1A49743  19.941   0.710   6.184
 3885POPC   D2A49744  19.754   0.699   6.609
 3885POPC   C3A49745  19.976   0.511   6.995
 3885POPC   C4A49746  19.901   0.316   7.446
 3885POPC   C1B49747  19.707   0.252   6.274
 3885POPC   C2B49748  19.654   0.208   6.719
 3885POPC   C3B49749  19.730  44.991   7.097
 3885POPC   C4B49750  19.598  44.881   7.529
 3886POPC   NC349751  39.157  18.802   5.480
 3886POPC   PO449752  39.462  19.387   5.131
 3886POPC   GL149753  39.429  19.227   5.622
 3886POPC   GL249754  39.542  18.898   5.797
 3886POPC   C1A49755  39.180  19.196   6.045
 3886POPC   D2A49756  39.183  19.211   6.520
 3886POPC   C3A49757  39.076  19.268   6.977
 3886POPC   C4A49758  39.232  19.294   7.419
 3886POPC   C1B49759  39.514  18.854   6.253
 3886POPC   C2B49760  39.386  18.741   6.676
 3886POPC   C3B49761  39.457  18.900   7.086
 3886POPC   C4B49762  39.610  18.917   7.506
 3887POPC   NC349763  16.170   4.639   5.583
 3887POPC   PO449764  15.901   5.188   5.533
 3887POPC   GL149765  16.107   5.322   5.892
 3887POPC   GL249766  15.818   5.511   5.984
 3887POPC   C1A49767  16.256   5.118   6.274
 3887POPC   D2A49768  16.001   4.907   6.620
 3887POPC   C3A49769  16.025   5.110   7.015
 3887POPC   C4A49770  16.415   5.093   7.198
 3887POPC   C1B49771  15.785   5.325   6.407
 3887POPC   C2B49772  15.534   5.178   6.771
 3887POPC   C3B49773  15.547   5.105   7.220
 3887POPC   C4B49774  15.651   5.373   7.577
 3888POPC   NC349775  21.854   2.294   5.482
 3888POPC   PO449776  21.209   1.975   5.251
 3888POPC   GL149777  21.374   1.846   5.679
 3888POPC   GL249778  21.470   2.186   5.803
 3888POPC   C1A49779  21.458   1.810   6.170
 3888POPC   D2A49780  21.267   1.936   6.596
 3888POPC   C3A49781  21.456   1.735   6.966
 3888POPC   C4A49782  21.681   1.685   7.360
 3888POPC   C1B49783  21.576   2.308   6.241
 3888POPC   C2B49784  21.688   2.478   6.653
 3888POPC   C3B49785  21.595   2.267   7.050
 3888POPC   C4B49786  21.419   2.452   7.416
 3889POPC   NC349787   0.513  39.639   5.455
 3889POPC   PO449788   0.400  38.982   5.460
 3889POPC   GL149789   0.331  39.279   5.772
 3889POPC   GL249790   0.659  39.351   5.855
 3889POPC   C1A49791   0.314  39.323   6.236
 3889POPC   D2A49792   0.444  39.077   6.605
 3889POPC   C3A49793   0.162  39.085   6.955
 3889POPC   C4A49794   0.175  39.364   7.271
 3889POPC   C1B49795   0.818  39.237   6.263
 3889POPC   C2B49796   0.765  39.485   6.669
 3889POPC   C3B49797   0.655  39.273   7.065
 3889POPC   C4B49798   0.887  39.288   7.440
 3890POPC   NC349799  18.227  26.272   5.458
 3890POPC   PO449800  17.847  25.743   5.377
 3890POPC   GL149801  17.955  25.839   5.841
 3890POPC   GL249802  18.135  26.178   5.949
 3890POPC   C1A49803  18.154  25.746   6.265
 3890POPC   D2A49804  18.412  25.744   6.675
 3890POPC   C3A49805  18.127  25.752   7.035
 3890POPC   C4A49806  18.100  26.119   7.299
 3890POPC   C1B49807  18.539  26.350   6.138
 3890POPC   C2B49808  18.698  26.513   6.528
 3890POPC   C3B49809  18.528  26.338   6.886
 3890POPC   C4B49810  18.384  26.527   7.248
 3891POPC   NC349811   6.161  37.498   5.436
 3891POPC   PO449812   5.861  38.041   5.491
 3891POPC   GL149813   6.072  37.854   5.845
 3891POPC   GL249814   5.722  37.733   5.898
 3891POPC   C1A49815   6.101  37.512   6.195
 3891POPC   D2A49816   5.939  37.425   6.631
 3891POPC   C3A49817   6.092  37.511   7.056
 3891POPC   C4A49818   5.994  37.305   7.451
 3891POPC   C1B49819   5.811  37.936   6.283
 3891POPC   C2B49820   5.690  37.870   6.668
 3891POPC   C3B49821   5.604  37.711   7.045
 3891POPC   C4B49822   5.732  37.726   7.447
 3892POPC   NC349823   2.105  11.835   5.427
 3892POPC   PO449824   1.495  11.944   5.652
 3892POPC   GL149825   1.895  11.983   5.865
 3892POPC   GL249826   2.085  12.256   5.776
 3892POPC   C1A49827   2.087  11.970   6.264
 3892POPC   D2A49828   1.793  11.852   6.580
 3892POPC   C3A49829   1.800  12.102   6.932
 3892POPC   C4A49830   1.875  11.898   7.315
 3892POPC   C1B49831   1.983  12.468   6.161
 3892POPC   C2B49832   2.118  12.382   6.587
 3892POPC   C3B49833   2.297  12.356   6.989
 3892POPC   C4B49834   2.294  12.207   7.393
 3893POPC   NC349835  21.630  31.993   5.397
 3893POPC   PO449836  21.260  32.631   5.249
 3893POPC   GL149837  21.393  32.374   5.624
 3893POPC   GL249838  21.115  32.238   5.758
 3893POPC   C1A49839  21.494  32.415   6.100
 3893POPC   D2A49840  21.557  32.255   6.556
 3893POPC   C3A49841  21.673  32.371   7.000
 3893POPC   C4A49842  21.612  32.138   7.420
 3893POPC   C1B49843  20.973  32.153   6.146
 3893POPC   C2B49844  20.843  32.365   6.514
 3893POPC   C3B49845  21.115  32.418   6.854
 3893POPC   C4B49846  21.162  32.260   7.234
 3894POPC   NC349847  33.526  12.116   5.410
 3894POPC   PO449848  34.216  11.805   5.335
 3894POPC   GL149849  33.974  12.056   5.673
 3894POPC   GL249850  33.789  11.748   5.756
 3894POPC   C1A49851  33.838  12.268   6.102
 3894POPC   D2A49852  34.040  12.349   6.525
 3894POPC   C3A49853  33.868  12.390   6.973
 3894POPC   C4A49854  33.868  12.243   7.399
 3894POPC   C1B49855  34.024  11.794   6.158
 3894POPC   C2B49856  33.813  11.887   6.551
 3894POPC   C3B49857  33.861  11.870   6.978
 3894POPC   C4B49858  33.610  11.731   7.270
 3895POPC   NC349859  39.660  29.334   5.360
 3895POPC   PO449860  40.174  28.913   5.473
 3895POPC   GL149861  39.976  29.035   5.888
 3895POPC   GL249862  39.613  29.169   5.860
 3895POPC   C1A49863  40.160  29.071   6.337
 3895POPC   D2A49864  40.189  28.893   6.771
 3895POPC   C3A49865  40.090  29.073   7.193
 3895POPC   C4A49866  40.069  28.922   7.617
 3895POPC   C1B49867  39.705  29.339   6.268
 3895POPC   C2B49868  39.776  29.239   6.659
 3895POPC   C3B49869  39.592  29.551   6.884
 3895POPC   C4B49870  39.794  29.531   7.247
 3896POPC   NC349871  23.177  36.336   5.509
 3896POPC   PO449872  22.655  35.948   5.421
 3896POPC   GL149873  22.885  35.966   5.801
 3896POPC   GL249874  22.879  36.313   5.932
 3896POPC   C1A49875  22.950  35.875   6.243
 3896POPC   D2A49876  22.709  35.853   6.636
 3896POPC   C3A49877  22.981  35.920   6.992
 3896POPC   C4A49878  22.996  36.064   7.420
 3896POPC   C1B49879  22.732  36.355   6.362
 3896POPC   C2B49880  22.675  36.334   6.825
 3896POPC   C3B49881  22.539  36.161   7.231
 3896POPC   C4B49882  22.524  36.279   7.706
 3897POPC   NC349883  20.206  32.443   5.390
 3897POPC   PO449884  19.624  31.939   5.376
 3897POPC   GL149885  19.839  32.201   5.745
 3897POPC   GL249886  20.130  32.438   5.871
 3897POPC   C1A49887  19.954  32.094   6.202
 3897POPC   D2A49888  20.196  32.109   6.602
 3897POPC   C3A49889  19.923  32.091   6.934
 3897POPC   C4A49890  19.856  31.911   7.300
 3897POPC   C1B49891  19.964  32.622   6.214
 3897POPC   C2B49892  19.809  32.455   6.598
 3897POPC   C3B49893  19.771  32.576   7.046
 3897POPC   C4B49894  19.932  32.381   7.437
 3898POPC   NC349895  42.328   5.601   5.356
 3898POPC   PO449896  42.785   6.035   5.514
 3898POPC   GL149897  42.562   5.805   5.803
 3898POPC   GL249898  42.199   5.852   5.784
 3898POPC   C1A49899  42.476   5.976   6.222
 3898POPC   D2A49900  42.363   6.245   6.552
 3898POPC   C3A49901  42.303   6.079   6.946
 3898POPC   C4A49902  42.572   5.749   7.092
 3898POPC   C1B49903  42.049   5.711   6.182
 3898POPC   C2B49904  42.270   5.663   6.568
 3898POPC   C3B49905  42.071   5.620   6.942
 3898POPC   C4B49906  42.125   5.687   7.352
 3899POPC   NC349907  27.349  43.890   5.544
 3899POPC   PO449908  27.821  44.271   5.365
 3899POPC   GL149909  27.756  44.144   5.803
 3899POPC   GL249910  27.744  43.766   5.903
 3899POPC   C1A49911  27.620  44.225   6.204
 3899POPC   D2A49912  27.631  43.979   6.584
 3899POPC   C3A49913  27.698  44.174   6.971
 3899POPC   C4A49914  27.735  43.796   7.179
 3899POPC   C1B49915  27.348  43.788   6.175
 3899POPC   C2B49916  27.156  43.745   6.566
 3899POPC   C3B49917  27.228  43.916   6.964
 3899POPC   C4B49918  27.259  43.675   7.298
 3900POPC   NC349919  26.365  11.543   5.374
 3900POPC   PO449920  26.766  10.901   5.429
 3900POPC   GL149921  26.653  11.033   5.838
 3900POPC   GL249922  26.533  11.386   5.842
 3900POPC   C1A49923  26.795  11.171   6.228
 3900POPC   D2A49924  26.867  11.380   6.613
 3900POPC   C3A49925  26.742  11.178   6.949
 3900POPC   C4A49926  26.777  11.060   7.346
 3900POPC   C1B49927  26.466  11.570   6.287
 3900POPC   C2B49928  26.389  11.549   6.751
 3900POPC   C3B49929  26.462  11.488   7.213
 3900POPC   C4B49930  26.540  11.453   7.699
 3901POPC   NC349931  35.674  35.280   5.559
 3901POPC   PO449932  35.413  35.882   5.436
 3901POPC   GL149933  35.293  35.547   5.788
 3901POPC   GL249934  34.959  35.428   5.777
 3901POPC   C1A49935  35.410  35.261   6.191
 3901POPC   D2A49936  35.420  35.363   6.645
 3901POPC   C3A49937  35.549  35.211   7.093
 3901POPC   C4A49938  35.527  35.195   7.557
 3901POPC   C1B49939  34.918  35.370   6.219
 3901POPC   C2B49940  34.910  35.280   6.658
 3901POPC   C3B49941  35.078  35.473   6.997
 3901POPC   C4B49942  35.279  35.577   7.327
 3902POPC   NC349943  39.878  35.149   5.645
 3902POPC   PO449944  40.294  35.545   5.295
 3902POPC   GL149945  40.179  35.529   5.759
 3902POPC   GL249946  39.784  35.628   5.742
 3902POPC   C1A49947  40.288  35.318   6.216
 3902POPC   D2A49948  40.321  35.226   6.700
 3902POPC   C3A49949  39.953  35.017   6.908
 3902POPC   C4A49950  39.704  35.113   7.286
 3902POPC   C1B49951  39.905  35.650   6.180
 3902POPC   C2B49952  39.862  35.417   6.560
 3902POPC   C3B49953  39.855  35.519   6.995
 3902POPC   C4B49954  40.215  35.415   7.228
 3903POPC   NC349955  16.931  37.632   5.512
 3903POPC   PO449956  16.290  37.797   5.443
 3903POPC   GL149957  16.470  37.737   5.824
 3903POPC   GL249958  16.576  37.409   5.851
 3903POPC   C1A49959  16.713  37.811   6.192
 3903POPC   D2A49960  16.622  37.691   6.626
 3903POPC   C3A49961  16.764  37.900   6.977
 3903POPC   C4A49962  16.984  37.543   7.185
 3903POPC   C1B49963  16.420  37.372   6.277
 3903POPC   C2B49964  16.288  37.324   6.716
 3903POPC   C3B49965  16.455  37.525   7.117
 3903POPC   C4B49966  16.336  37.516   7.587
 3904POPC   NC349967  38.113   1.206   5.568
 3904POPC   PO449968  37.560   1.525   5.184
 3904POPC   GL149969  37.606   1.356   5.623
 3904POPC   GL249970  37.450   1.015   5.598
 3904POPC   C1A49971  37.735   1.354   6.080
 3904POPC   D2A49972  37.762   1.027   6.403
 3904POPC   C3A49973  37.827   1.150   6.827
 3904POPC   C4A49974  37.507   1.389   7.091
 3904POPC   C1B49975  37.305   1.073   6.043
 3904POPC   C2B49976  37.241   1.041   6.522
 3904POPC   C3B49977  37.409   0.864   6.919
 3904POPC   C4B49978  37.489   0.650   7.314
 3905POPC   NC349979   8.447  41.464   5.471
 3905POPC   PO449980   7.865  41.264   5.620
 3905POPC   GL149981   7.817  41.461   5.969
 3905POPC   GL249982   8.126  41.629   5.881
 3905POPC   C1A49983   7.986  41.538   6.379
 3905POPC   D2A49984   8.287  41.351   6.636
 3905POPC   C3A49985   8.223  41.354   7.084
 3905POPC   C4A49986   8.481  41.336   7.459
 3905POPC   C1B49987   8.231  41.946   6.167
 3905POPC   C2B49988   8.356  42.015   6.551
 3905POPC   C3B49989   8.203  41.829   6.890
 3905POPC   C4B49990   8.346  41.818   7.284
 3906POPC   NC349991  13.975  23.882   5.073
 3906POPC   PO449992  13.411  23.833   5.484
 3906POPC   GL149993  13.557  23.664   5.885
 3906POPC   GL249994  13.836  23.447   5.795
 3906POPC   C1A49995  13.664  23.769   6.290
 3906POPC   D2A49996  13.512  23.625   6.662
 3906POPC   C3A49997  13.507  23.919   6.980
 3906POPC   C4A49998  13.255  23.923   7.354
 3906POPC   C1B49999  14.075  23.469   6.176
 3906POPC   C2B50000  14.059  23.581   6.589
 3906POPC   C3B50001  13.902  23.533   6.989
 3906POPC   C4B50002  13.684  23.633   7.343
 3907POPC   NC350003   1.222  18.947   5.613
 3907POPC   PO450004   1.278  19.643   5.477
 3907POPC   GL150005   1.245  19.390   5.850
 3907POPC   GL250006   0.896  19.234   5.919
 3907POPC   C1A50007   1.538  19.173   6.143
 3907POPC   D2A50008   1.500  19.321   6.544
 3907POPC   C3A50009   1.596  19.118   6.911
 3907POPC   C4A50010   1.656  19.303   7.271
 3907POPC   C1B50011   1.066  19.078   6.341
 3907POPC   C2B50012   1.131  18.922   6.785
 3907POPC   C3B50013   0.960  18.970   7.230
 3907POPC   C4B50014   0.841  18.822   7.673
 3908POPC   NC350015  13.304   8.247   5.300
 3908POPC   PO450016  12.582   8.263   5.236
 3908POPC   GL150017  12.693   8.166   5.692
 3908POPC   GL250018  13.046   8.244   5.775
 3908POPC   C1A50019  12.575   8.223   6.127
 3908POPC   D2A50020  12.647   8.386   6.529
 3908POPC   C3A50021  12.634   8.139   6.891
 3908POPC   C4A50022  12.706   8.404   7.255
 3908POPC   C1B50023  13.171   8.277   6.220
 3908POPC   C2B50024  13.092   8.126   6.630
 3908POPC   C3B50025  13.134   8.187   7.057
 3908POPC   C4B50026  13.174   8.559   7.155
 3909POPC   NC350027  31.569   5.485   5.572
 3909POPC   PO450028  31.241   6.001   5.219
 3909POPC   GL150029  31.349   5.954   5.653
 3909POPC   GL250030  31.663   6.009   5.761
 3909POPC   C1A50031  31.329   5.839   6.110
 3909POPC   D2A50032  31.546   5.589   6.428
 3909POPC   C3A50033  31.678   5.730   6.826
 3909POPC   C4A50034  31.473   5.871   7.182
 3909POPC   C1B50035  31.706   6.165   6.151
 3909POPC   C2B50036  31.892   6.101   6.547
 3909POPC   C3B50037  31.803   6.229   6.989
 3909POPC   C4B50038  31.884   6.405   7.407
 3910POPC   NC350039  28.651   2.360   5.571
 3910POPC   PO450040  28.121   1.965   5.598
 3910POPC   GL150041  28.509   1.904   5.847
 3910POPC   GL250042  28.461   2.216   6.021
 3910POPC   C1A50043  28.635   1.788   6.299
 3910POPC   D2A50044  28.757   1.567   6.712
 3910POPC   C3A50045  28.575   1.694   7.134
 3910POPC   C4A50046  28.145   1.734   7.332
 3910POPC   C1B50047  28.531   2.304   6.437
 3910POPC   C2B50048  28.557   2.040   6.754
 3910POPC   C3B50049  28.146   1.950   6.880
 3910POPC   C4B50050  27.876   2.195   7.143
 3911POPC   NC350051  30.635   7.943   5.348
 3911POPC   PO450052  30.693   8.631   5.153
 3911POPC   GL150053  30.753   8.400   5.622
 3911POPC   GL250054  30.526   8.137   5.804
 3911POPC   C1A50055  30.963   8.251   6.051
 3911POPC   D2A50056  30.914   8.001   6.461
 3911POPC   C3A50057  30.676   8.195   6.807
 3911POPC   C4A50058  30.877   8.400   7.168
 3911POPC   C1B50059  30.472   8.147   6.255
 3911POPC   C2B50060  30.189   8.069   6.592
 3911POPC   C3B50061  30.281   7.900   6.984
 3911POPC   C4B50062  30.476   8.119   7.280
 3912POPC   NC350063  18.560  35.223   5.331
 3912POPC   PO450064  17.840  35.069   5.284
 3912POPC   GL150065  18.105  35.207   5.762
 3912POPC   GL250066  18.454  35.212   5.841
 3912POPC   C1A50067  18.134  35.210   6.244
 3912POPC   D2A50068  17.948  34.974   6.620
 3912POPC   C3A50069  18.063  35.140   7.027
 3912POPC   C4A50070  18.303  35.546   7.082
 3912POPC   C1B50071  18.645  35.191   6.266
 3912POPC   C2B50072  18.464  35.236   6.682
 3912POPC   C3B50073  18.572  35.085   7.081
 3912POPC   C4B50074  18.910  35.007   7.315
 3913POPC   NC350075  24.324   4.327   5.406
 3913POPC   PO450076  24.982   4.628   5.437
 3913POPC   GL150077  24.819   4.591   5.877
 3913POPC   GL250078  24.572   4.308   5.854
 3913POPC   C1A50079  24.624   4.551   6.300
 3913POPC   D2A50080  24.772   4.306   6.644
 3913POPC   C3A50081  24.704   4.518   7.039
 3913POPC   C4A50082  24.313   4.579   7.238
 3913POPC   C1B50083  24.424   4.100   6.234
 3913POPC   C2B50084  24.220   4.189   6.620
 3913POPC   C3B50085  24.406   4.109   7.020
 3913POPC   C4B50086  24.265   4.115   7.459
 3914POPC   NC350087  40.864  41.250   5.443
 3914POPC   PO450088  40.718  41.969   5.461
 3914POPC   GL150089  40.779  41.727   5.844
 3914POPC   GL250090  40.613  41.404   5.842
 3914POPC   C1A50091  40.701  41.692   6.285
 3914POPC   D2A50092  40.574  41.488   6.639
 3914POPC   C3A50093  40.659  41.640   7.042
 3914POPC   C4A50094  40.537  41.467   7.400
 3914POPC   C1B50095  40.979  41.296   6.104
 3914POPC   C2B50096  41.026  41.164   6.526
 3914POPC   C3B50097  40.747  41.077   6.882
 3914POPC   C4B50098  40.915  41.108   7.262
 3915POPC   NC350099  40.769  18.111   5.487
 3915POPC   PO450100  41.007  18.815   5.647
 3915POPC   GL150101  40.896  18.454   5.890
 3915POPC   GL250102  41.092  18.150   5.867
 3915POPC   C1A50103  40.674  18.272   6.261
 3915POPC   D2A50104  40.535  18.080   6.682
 3915POPC   C3A50105  40.665  18.299   7.058
 3915POPC   C4A50106  40.939  18.639   7.223
 3915POPC   C1B50107  41.129  18.034   6.257
 3915POPC   C2B50108  41.066  18.216   6.671
 3915POPC   C3B50109  41.168  18.162   7.100
 3915POPC   C4B50110  41.327  17.825   7.332
 3916POPC   NC350111   8.559  33.784   5.502
 3916POPC   PO450112   7.873  33.695   5.476
 3916POPC   GL150113   7.980  33.487   5.893
 3916POPC   GL250114   8.340  33.487   5.868
 3916POPC   C1A50115   8.067  33.502   6.362
 3916POPC   D2A50116   8.359  33.836   6.602
 3916POPC   C3A50117   8.139  33.959   6.985
 3916POPC   C4A50118   7.825  33.664   7.096
 3916POPC   C1B50119   8.547  33.485   6.255
 3916POPC   C2B50120   8.711  33.419   6.660
 3916POPC   C3B50121   8.568  33.587   7.023
 3916POPC   C4B50122   8.637  34.005   7.092
 3917POPC   NC350123  27.698   4.696   5.510
 3917POPC   PO450124  27.807   4.061   5.369
 3917POPC   GL150125  27.571   4.165   5.747
 3917POPC   GL250126  27.901   4.169   5.887
 3917POPC   C1A50127  27.535   4.447   6.138
 3917POPC   D2A50128  27.319   4.383   6.530
 3917POPC   C3A50129  27.497   4.444   6.924
 3917POPC   C4A50130  27.574   4.202   7.260
 3917POPC   C1B50131  27.671   3.967   6.230
 3917POPC   C2B50132  27.726   4.073   6.641
 3917POPC   C3B50133  27.970   4.214   6.939
 3917POPC   C4B50134  28.092   4.250   7.339
 3918POPC   NC350135  27.578   0.802   5.353
 3918POPC   PO450136  27.560   0.206   5.203
 3918POPC   GL150137  27.708   0.432   5.648
 3918POPC   GL250138  27.368   0.480   5.749
 3918POPC   C1A50139  27.783   0.520   6.107
 3918POPC   D2A50140  27.583   0.502   6.533
 3918POPC   C3A50141  27.805   0.431   6.935
 3918POPC   C4A50142  27.638   0.509   7.301
 3918POPC   C1B50143  27.319   0.238   6.120
 3918POPC   C2B50144  27.255   0.089   6.530
 3918POPC   C3B50145  27.312   0.252   6.920
 3918POPC   C4B50146  27.349   0.089   7.327
 3919POPC   NC350147  38.739  22.893   5.482
 3919POPC   PO450148  38.063  23.104   5.509
 3919POPC   GL150149  38.390  23.124   5.836
 3919POPC   GL250150  38.504  22.773   5.910
 3919POPC   C1A50151  38.492  23.084   6.291
 3919POPC   D2A50152  38.402  22.811   6.640
 3919POPC   C3A50153  38.492  23.009   7.026
 3919POPC   C4A50154  38.240  23.313   7.249
 3919POPC   C1B50155  38.093  22.765   6.128
 3919POPC   C2B50156  37.974  22.555   6.528
 3919POPC   C3B50157  37.905  22.737   6.927
 3919POPC   C4B50158  38.135  22.782   7.308
 3920POPC   NC350159  43.073  44.038   5.330
 3920POPC   PO450160  43.360  43.465   5.152
 3920POPC   GL150161  43.246  43.679   5.661
 3920POPC   GL250162  43.307  44.061   5.774
 3920POPC   C1A50163  42.990  43.777   6.070
 3920POPC   D2A50164  43.153  43.696   6.492
 3920POPC   C3A50165  43.051  43.806   6.901
 3920POPC   C4A50166  42.717  43.629   7.115
 3920POPC   C1B50167  43.271  44.200   6.181
 3920POPC   C2B50168  43.498  44.126   6.557
 3920POPC   C3B50169  43.420  44.205   6.976
 3920POPC   C4B50170  43.179  44.101   7.303
 3921POPC   NC350171  39.559  43.244   5.567
 3921POPC   PO450172  40.235  43.102   5.361
 3921POPC   GL150173  40.104  43.278   5.721
 3921POPC   GL250174  40.391  43.489   5.697
 3921POPC   C1A50175  40.008  43.086   6.145
 3921POPC   D2A50176  40.242  42.998   6.537
 3921POPC   C3A50177  39.973  43.056   6.897
 3921POPC   C4A50178  39.697  43.003   7.269
 3921POPC   C1B50179  40.412  43.393   6.119
 3921POPC   C2B50180  40.195  43.537   6.455
 3921POPC   C3B50181  40.301  43.437   6.852
 3921POPC   C4B50182  40.334  43.203   7.230
 3922POPC   NC350183   3.664  19.016   5.319
 3922POPC   PO450184   3.256  18.500   5.166
 3922POPC   GL150185   3.384  18.742   5.657
 3922POPC   GL250186   3.661  19.017   5.817
 3922POPC   C1A50187   3.260  18.972   6.093
 3922POPC   D2A50188   3.339  19.297   6.416
 3922POPC   C3A50189   3.180  19.149   6.804
 3922POPC   C4A50190   3.397  19.009   7.151
 3922POPC   C1B50191   3.788  18.898   6.266
 3922POPC   C2B50192   3.712  19.054   6.710
 3922POPC   C3B50193   3.888  19.086   7.136
 3922POPC   C4B50194   4.077  18.804   7.417
 3923POPC   NC350195  20.763  16.855   5.255
 3923POPC   PO450196  20.162  17.140   5.315
 3923POPC   GL150197  20.439  16.954   5.662
 3923POPC   GL250198  20.484  16.602   5.660
 3923POPC   C1A50199  20.763  16.910   6.002
 3923POPC   D2A50200  20.868  16.703   6.396
 3923POPC   C3A50201  21.001  16.885   6.801
 3923POPC   C4A50202  20.786  16.909   7.223
 3923POPC   C1B50203  20.432  16.508   6.068
 3923POPC   C2B50204  20.341  16.665   6.433
 3923POPC   C3B50205  20.525  16.692   6.830
 3923POPC   C4B50206  20.356  16.643   7.240
 3924POPC   NC350207  33.429  43.150   5.443
 3924POPC   PO450208  34.060  43.205   5.316
 3924POPC   GL150209  33.871  42.997   5.676
 3924POPC   GL250210  33.830  43.319   5.821
 3924POPC   C1A50211  33.901  42.913   6.141
 3924POPC   D2A50212  34.142  42.861   6.560
 3924POPC   C3A50213  33.922  42.893   6.971
 3924POPC   C4A50214  34.043  42.986   7.418
 3924POPC   C1B50215  33.743  43.390   6.272
 3924POPC   C2B50216  33.889  43.333   6.691
 3924POPC   C3B50217  33.822  43.368   7.114
 3924POPC   C4B50218  33.562  43.073   7.355
 3925POPC   NC350219  43.528  33.905   5.413
 3925POPC   PO450220  42.889  33.906   5.483
 3925POPC   GL150221  42.990  33.784   5.886
 3925POPC   GL250222  43.277  33.622   5.783
 3925POPC   C1A50223  43.157  33.861   6.333
 3925POPC   D2A50224  43.212  33.786   6.791
 3925POPC   C3A50225  43.015  33.949   7.141
 3925POPC   C4A50226  43.435  33.980   7.322
 3925POPC   C1B50227  43.257  33.391   6.160
 3925POPC   C2B50228  43.126  33.355   6.546
 3925POPC   C3B50229  43.246  33.301   6.945
 3925POPC   C4B50230  43.158  33.477   7.327
 3926POPC   NC350231  28.790  24.096   5.462
 3926POPC   PO450232  28.202  23.670   5.430
 3926POPC   GL150233  28.198  23.736   5.870
 3926POPC   GL250234  28.422  24.022   5.841
 3926POPC   C1A50235  28.378  23.661   6.305
 3926POPC   D2A50236  28.461  23.491   6.731
 3926POPC   C3A50237  28.171  23.706   6.979
 3926POPC   C4A50238  28.113  24.072   7.168
 3926POPC   C1B50239  28.769  23.983   6.143
 3926POPC   C2B50240  28.731  23.988   6.578
 3926POPC   C3B50241  28.905  24.087   6.956
 3926POPC   C4B50242  28.634  23.827   7.163
 3927POPC   NC350243  14.191   8.643   5.540
 3927POPC   PO450244  14.435   9.130   5.243
 3927POPC   GL150245  14.449   9.131   5.710
 3927POPC   GL250246  14.813   9.218   5.762
 3927POPC   C1A50247  14.293   9.163   6.162
 3927POPC   D2A50248  14.362   8.871   6.517
 3927POPC   C3A50249  14.483   8.889   6.939
 3927POPC   C4A50250  14.439   8.758   7.372
 3927POPC   C1B50251  14.745   8.918   6.127
 3927POPC   C2B50252  14.897   8.866   6.553
 3927POPC   C3B50253  14.918   8.636   6.939
 3927POPC   C4B50254  14.921   8.848   7.331
 3928POPC   NC350255  26.089  17.809   5.451
 3928POPC   PO450256  25.825  17.188   5.500
 3928POPC   GL150257  25.731  17.598   5.775
 3928POPC   GL250258  26.039  17.542   5.922
 3928POPC   C1A50259  25.731  17.865   6.203
 3928POPC   D2A50260  25.959  17.873   6.623
 3928POPC   C3A50261  25.804  17.651   7.004
 3928POPC   C4A50262  25.917  17.257   7.199
 3928POPC   C1B50263  26.297  17.613   6.296
 3928POPC   C2B50264  26.424  17.411   6.711
 3928POPC   C3B50265  26.442  17.203   7.134
 3928POPC   C4B50266  26.271  16.968   7.504
 3929POPC   NC350267  20.984  43.281   5.414
 3929POPC   PO450268  21.691  43.265   5.466
 3929POPC   GL150269  21.475  42.892   5.710
 3929POPC   GL250270  21.298  43.159   5.803
 3929POPC   C1A50271  21.295  42.787   6.163
 3929POPC   D2A50272  21.336  43.057   6.603
 3929POPC   C3A50273  21.325  42.900   7.054
 3929POPC   C4A50274  21.145  43.104   7.436
 3929POPC   C1B50275  21.161  43.291   6.193
 3929POPC   C2B50276  21.046  43.534   6.557
 3929POPC   C3B50277  21.114  43.369   6.967
 3929POPC   C4B50278  21.168  43.592   7.334
 3930POPC   NC350279   0.922  40.983   5.277
 3930POPC   PO450280   1.362  40.596   5.545
 3930POPC   GL150281   1.107  40.818   5.841
 3930POPC   GL250282   0.828  40.569   5.897
 3930POPC   C1A50283   1.245  41.128   6.190
 3930POPC   D2A50284   1.399  40.930   6.583
 3930POPC   C3A50285   1.225  41.050   6.983
 3930POPC   C4A50286   1.277  41.005   7.448
 3930POPC   C1B50287   1.033  40.493   6.316
 3930POPC   C2B50288   1.332  40.406   6.659
 3930POPC   C3B50289   1.340  40.386   7.111
 3930POPC   C4B50290   0.988  40.319   7.377
 3931POPC   NC350291  13.397   2.030   5.321
 3931POPC   PO450292  12.698   1.882   5.335
 3931POPC   GL150293  12.700   1.793   5.749
 3931POPC   GL250294  13.053   1.908   5.754
 3931POPC   C1A50295  12.869   1.689   6.185
 3931POPC   D2A50296  12.996   1.926   6.538
 3931POPC   C3A50297  13.051   1.716   6.904
 3931POPC   C4A50298  12.805   1.733   7.273
 3931POPC   C1B50299  12.796   2.178   6.059
 3931POPC   C2B50300  12.606   2.283   6.459
 3931POPC   C3B50301  12.683   2.127   6.892
 3931POPC   C4B50302  12.722   2.248   7.309
 3932POPC   NC350303   4.734  12.433   5.433
 3932POPC   PO450304   5.131  12.983   5.231
 3932POPC   GL150305   5.059  12.997   5.717
 3932POPC   GL250306   4.802  12.734   5.855
 3932POPC   C1A50307   5.068  12.990   6.204
 3932POPC   D2A50308   4.906  13.113   6.612
 3932POPC   C3A50309   5.107  12.897   6.970
 3932POPC   C4A50310   5.235  12.909   7.406
 3932POPC   C1B50311   4.993  12.480   6.220
 3932POPC   C2B50312   5.097  12.451   6.692
 3932POPC   C3B50313   5.111  12.427   7.188
 3932POPC   C4B50314   4.915  12.550   7.585
 3933POPC   NC350315  36.188  16.487   5.372
 3933POPC   PO450316  36.105  17.086   5.375
 3933POPC   GL150317  36.001  16.871   5.789
 3933POPC   GL250318  36.133  16.513   5.864
 3933POPC   C1A50319  36.070  16.821   6.252
 3933POPC   D2A50320  36.248  16.916   6.639
 3933POPC   C3A50321  36.074  17.046   6.976
 3933POPC   C4A50322  36.024  16.737   7.240
 3933POPC   C1B50323  36.487  16.449   6.138
 3933POPC   C2B50324  36.521  16.328   6.581
 3933POPC   C3B50325  36.346  16.483   6.961
 3933POPC   C4B50326  36.384  16.428   7.447
 3934POPC   NC350327  14.718   7.668   5.628
 3934POPC   PO450328  14.493   8.300   5.547
 3934POPC   GL150329  14.224   8.252   5.886
 3934POPC   GL250330  14.364   7.933   5.882
 3934POPC   C1A50331  14.402   8.468   6.214
 3934POPC   D2A50332  14.610   8.430   6.586
 3934POPC   C3A50333  14.258   8.436   6.852
 3934POPC   C4A50334  14.186   8.341   7.263
 3934POPC   C1B50335  14.546   7.988   6.261
 3934POPC   C2B50336  14.436   7.959   6.672
 3934POPC   C3B50337  14.608   8.113   7.032
 3934POPC   C4B50338  14.387   7.894   7.328
 3935POPC   NC350339  26.096   0.644   5.302
 3935POPC   PO450340  25.779   0.076   5.290
 3935POPC   GL150341  25.895   0.351   5.672
 3935POPC   GL250342  26.215   0.609   5.788
 3935POPC   C1A50343  25.949   0.321   6.115
 3935POPC   D2A50344  26.116   0.465   6.499
 3935POPC   C3A50345  25.946   0.312   6.893
 3935POPC   C4A50346  26.248   0.492   7.176
 3935POPC   C1B50347  25.930   0.843   6.072
 3935POPC   C2B50348  25.694   0.744   6.449
 3935POPC   C3B50349  25.865   0.806   6.873
 3935POPC   C4B50350  26.090   0.965   7.224
 3936POPC   NC350351   4.503   3.356   5.342
 3936POPC   PO450352   3.882   3.318   5.595
 3936POPC   GL150353   4.281   3.483   5.784
 3936POPC   GL250354   4.415   3.805   5.868
 3936POPC   C1A50355   4.498   3.428   6.182
 3936POPC   D2A50356   4.279   3.360   6.550
 3936POPC   C3A50357   4.473   3.364   6.939
 3936POPC   C4A50358   4.126   3.332   7.180
 3936POPC   C1B50359   4.149   3.941   6.127
 3936POPC   C2B50360   3.997   3.816   6.517
 3936POPC   C3B50361   4.163   3.777   6.901
 3936POPC   C4B50362   4.481   3.881   7.148
 3937POPC   NC350363  41.001   2.612   5.242
 3937POPC   PO450364  40.642   3.057   5.374
 3937POPC   GL150365  40.802   2.829   5.726
 3937POPC   GL250366  40.659   2.481   5.631
 3937POPC   C1A50367  40.956   2.936   6.169
 3937POPC   D2A50368  40.913   3.105   6.596
 3937POPC   C3A50369  40.628   2.910   6.879
 3937POPC   C4A50370  40.743   2.756   7.249
 3937POPC   C1B50371  40.795   2.462   6.078
 3937POPC   C2B50372  40.709   2.592   6.485
 3937POPC   C3B50373  40.718   2.399   6.875
 3937POPC   C4B50374  40.811   2.243   7.272
 3938POPC   NC350375  10.180   0.009   5.526
 3938POPC   PO450376  10.782  44.714   5.448
 3938POPC   GL150377  10.650  44.572   5.819
 3938POPC   GL250378  10.293  44.522   5.842
 3938POPC   C1A50379  10.826  44.577   6.218
 3938POPC   D2A50380  10.680  44.772   6.579
 3938POPC   C3A50381  10.662  44.519   6.917
 3938POPC   C4A50382  10.833  44.830   7.181
 3938POPC   C1B50383  10.354  44.821   6.173
 3938POPC   C2B50384  10.163  44.808   6.574
 3938POPC   C3B50385  10.325  44.879   6.982
 3938POPC   C4B50386  10.203  44.561   7.243
 3939POPC   NC350387   5.277  19.480   5.401
 3939POPC   PO450388   4.810  19.961   5.422
 3939POPC   GL150389   4.991  19.803   5.772
 3939POPC   GL250390   4.908  19.462   5.768
 3939POPC   C1A50391   5.087  19.961   6.178
 3939POPC   D2A50392   5.096  19.759   6.560
 3939POPC   C3A50393   5.049  19.905   6.969
 3939POPC   C4A50394   5.297  19.710   7.271
 3939POPC   C1B50395   4.772  19.541   6.201
 3939POPC   C2B50396   4.731  19.395   6.637
 3939POPC   C3B50397   4.881  19.434   7.073
 3939POPC   C4B50398   4.757  19.353   7.508
 3940POPC   NC350399   9.535  24.940   5.484
 3940POPC   PO450400   9.821  25.537   5.490
 3940POPC   GL150401   9.924  25.269   5.768
 3940POPC   GL250402   9.621  25.354   5.939
 3940POPC   C1A50403  10.087  25.246   6.172
 3940POPC   D2A50404   9.992  25.473   6.537
 3940POPC   C3A50405  10.094  25.265   6.897
 3940POPC   C4A50406   9.864  25.199   7.255
 3940POPC   C1B50407   9.521  25.326   6.384
 3940POPC   C2B50408   9.557  25.241   6.832
 3940POPC   C3B50409   9.393  25.409   7.224
 3940POPC   C4B50410   9.348  25.499   7.695
 3941POPC   NC350411  17.895  35.508   5.425
 3941POPC   PO450412  17.370  35.022   5.641
 3941POPC   GL150413  17.615  35.307   5.819
 3941POPC   GL250414  17.684  35.078   6.096
 3941POPC   C1A50415  17.716  35.594   6.162
 3941POPC   D2A50416  17.474  35.656   6.556
 3941POPC   C3A50417  17.647  35.480   6.937
 3941POPC   C4A50418  17.458  35.563   7.314
 3941POPC   C1B50419  17.298  35.280   6.244
 3941POPC   C2B50420  17.058  35.250   6.608
 3941POPC   C3B50421  17.141  35.316   7.000
 3941POPC   C4B50422  17.115  35.207   7.434
 3942POPC   NC350423  26.714  19.194   5.209
 3942POPC   PO450424  27.226  18.766   5.466
 3942POPC   GL150425  27.002  19.133   5.642
 3942POPC   GL250426  26.619  19.135   5.728
 3942POPC   C1A50427  27.001  19.291   6.063
 3942POPC   D2A50428  26.955  19.325   6.497
 3942POPC   C3A50429  26.698  19.077   6.786
 3942POPC   C4A50430  26.772  19.064   7.205
 3942POPC   C1B50431  26.610  18.957   6.166
 3942POPC   C2B50432  26.355  18.794   6.539
 3942POPC   C3B50433  26.412  18.714   7.035
 3942POPC   C4B50434  26.383  18.950   7.488
 3943POPC   NC350435   5.302  17.963   5.578
 3943POPC   PO450436   4.834  18.421   5.481
 3943POPC   GL150437   5.042  18.310   5.856
 3943POPC   GL250438   5.182  18.621   5.989
 3943POPC   C1A50439   5.223  18.186   6.251
 3943POPC   D2A50440   5.168  18.388   6.642
 3943POPC   C3A50441   5.179  18.042   6.919
 3943POPC   C4A50442   4.987  17.982   7.286
 3943POPC   C1B50443   4.786  18.518   6.267
 3943POPC   C2B50444   4.665  18.494   6.717
 3943POPC   C3B50445   4.943  18.469   7.109
 3943POPC   C4B50446   4.817  18.571   7.558
 3944POPC   NC350447  16.705  22.803   5.381
 3944POPC   PO450448  16.375  23.383   5.397
 3944POPC   GL150449  16.493  23.194   5.797
 3944POPC   GL250450  16.605  22.850   5.876
 3944POPC   C1A50451  16.420  23.182   6.249
 3944POPC   D2A50452  16.650  23.294   6.619
 3944POPC   C3A50453  16.654  22.982   6.937
 3944POPC   C4A50454  16.400  23.027   7.285
 3944POPC   C1B50455  16.872  22.937   6.264
 3944POPC   C2B50456  17.108  23.029   6.655
 3944POPC   C3B50457  17.108  22.773   7.062
 3944POPC   C4B50458  16.804  22.767   7.417
 3945POPC   NC350459  20.899  32.353   5.318
 3945POPC   PO450460  20.443  31.920   5.415
 3945POPC   GL150461  20.583  32.169   5.747
 3945POPC   GL250462  20.657  32.495   5.844
 3945POPC   C1A50463  20.472  32.141   6.172
 3945POPC   D2A50464  20.655  31.889   6.500
 3945POPC   C3A50465  20.702  32.088   6.927
 3945POPC   C4A50466  20.345  32.150   7.189
 3945POPC   C1B50467  20.499  32.655   6.237
 3945POPC   C2B50468  20.279  32.665   6.640
 3945POPC   C3B50469  20.361  32.650   7.078
 3945POPC   C4B50470  20.791  32.639   7.253
 3946POPC   NC350471  14.528  32.665   5.433
 3946POPC   PO450472  14.201  33.290   5.532
 3946POPC   GL150473  14.296  33.246   5.956
 3946POPC   GL250474  14.500  32.969   5.865
 3946POPC   C1A50475  14.186  33.000   6.332
 3946POPC   D2A50476  14.306  32.617   6.559
 3946POPC   C3A50477  14.276  32.734   6.992
 3946POPC   C4A50478  14.244  33.159   7.134
 3946POPC   C1B50479  14.699  33.064   6.272
 3946POPC   C2B50480  14.595  33.064   6.718
 3946POPC   C3B50481  14.738  33.208   7.117
 3946POPC   C4B50482  14.604  33.090   7.505
 3947POPC   NC350483  16.675   3.052   5.328
 3947POPC   PO450484  16.267   2.426   5.368
 3947POPC   GL150485  16.491   2.666   5.751
 3947POPC   GL250486  16.817   2.560   5.855
 3947POPC   C1A50487  16.655   2.920   6.174
 3947POPC   D2A50488  16.897   3.025   6.589
 3947POPC   C3A50489  16.627   3.004   6.976
 3947POPC   C4A50490  16.307   2.695   7.201
 3947POPC   C1B50491  17.059   2.630   6.252
 3947POPC   C2B50492  16.815   2.522   6.625
 3947POPC   C3B50493  16.778   2.531   7.050
 3947POPC   C4B50494  17.096   2.435   7.340
 3948POPC   NC350495   8.294  28.485   5.359
 3948POPC   PO450496   7.898  27.941   5.493
 3948POPC   GL150497   8.139  28.125   5.790
 3948POPC   GL250498   8.005  28.434   5.881
 3948POPC   C1A50499   8.407  28.245   6.136
 3948POPC   D2A50500   8.531  28.489   6.514
 3948POPC   C3A50501   8.403  28.372   6.898
 3948POPC   C4A50502   8.377  28.103   7.231
 3948POPC   C1B50503   7.900  28.322   6.304
 3948POPC   C2B50504   7.776  28.310   6.742
 3948POPC   C3B50505   7.958  28.450   7.112
 3948POPC   C4B50506   8.176  28.469   7.531
 3949POPC   NC350507  15.059  25.063   5.396
 3949POPC   PO450508  15.623  25.320   5.463
 3949POPC   GL150509  15.381  25.149   5.828
 3949POPC   GL250510  15.129  25.404   5.802
 3949POPC   C1A50511  15.277  25.082   6.293
 3949POPC   D2A50512  15.417  25.297   6.694
 3949POPC   C3A50513  15.209  25.124   7.056
 3949POPC   C4A50514  15.255  24.932   7.484
 3949POPC   C1B50515  15.225  25.581   6.201
 3949POPC   C2B50516  15.013  25.626   6.592
 3949POPC   C3B50517  15.156  25.636   7.015
 3949POPC   C4B50518  15.033  25.461   7.410
 3950POPC   NC350519  31.740  22.381   5.327
 3950POPC   PO450520  31.395  21.803   5.092
 3950POPC   GL150521  31.378  22.169   5.605
 3950POPC   GL250522  31.622  22.407   5.812
 3950POPC   C1A50523  31.355  22.057   6.137
 3950POPC   D2A50524  31.416  21.874   6.617
 3950POPC   C3A50525  31.429  22.081   7.060
 3950POPC   C4A50526  31.135  22.133   7.455
 3950POPC   C1B50527  31.317  22.571   6.120
 3950POPC   C2B50528  31.272  22.390   6.539
 3950POPC   C3B50529  31.148  22.487   6.932
 3950POPC   C4B50530  31.378  22.551   7.308
 3951POPC   NC350531   2.111  32.406   5.316
 3951POPC   PO450532   1.575  32.561   5.625
 3951POPC   GL150533   2.036  32.525   5.824
 3951POPC   GL250534   2.233  32.192   5.821
 3951POPC   C1A50535   2.169  32.457   6.273
 3951POPC   D2A50536   1.885  32.255   6.554
 3951POPC   C3A50537   1.700  32.555   6.826
 3951POPC   C4A50538   1.795  32.404   7.207
 3951POPC   C1B50539   2.439  32.034   6.213
 3951POPC   C2B50540   2.364  32.050   6.645
 3951POPC   C3B50541   2.227  32.380   6.917
 3951POPC   C4B50542   2.329  32.357   7.343
 3952POPC   NC350543  10.425  37.735   5.483
 3952POPC   PO450544  10.959  38.128   5.454
 3952POPC   GL150545  10.672  37.981   5.884
 3952POPC   GL250546  10.268  37.869   5.949
 3952POPC   C1A50547  10.554  37.771   6.336
 3952POPC   D2A50548  10.435  37.472   6.693
 3952POPC   C3A50549  10.660  37.554   7.063
 3952POPC   C4A50550  10.522  37.970   7.269
 3952POPC   C1B50551  10.060  37.589   6.257
 3952POPC   C2B50552   9.941  37.666   6.681
 3952POPC   C3B50553  10.152  37.687   7.078
 3952POPC   C4B50554  10.294  37.358   7.363
 3953POPC   NC350555  31.716  13.978   5.649
 3953POPC   PO450556  31.383  14.408   5.264
 3953POPC   GL150557  31.398  14.385   5.755
 3953POPC   GL250558  31.246  14.069   5.871
 3953POPC   C1A50559  31.579  14.579   6.177
 3953POPC   D2A50560  31.611  14.842   6.581
 3953POPC   C3A50561  31.598  14.708   7.036
 3953POPC   C4A50562  31.311  14.469   7.358
 3953POPC   C1B50563  31.512  14.081   6.267
 3953POPC   C2B50564  31.674  14.317   6.630
 3953POPC   C3B50565  31.626  14.201   7.053
 3953POPC   C4B50566  31.688  14.202   7.516
 3954POPC   NC350567  33.407  40.551   5.491
 3954POPC   PO450568  33.978  40.982   5.386
 3954POPC   GL150569  33.784  40.835   5.772
 3954POPC   GL250570  33.502  41.072   5.814
 3954POPC   C1A50571  33.869  40.607   6.206
 3954POPC   D2A50572  34.169  40.539   6.601
 3954POPC   C3A50573  33.930  40.547   7.003
 3954POPC   C4A50574  33.480  40.429   7.092
 3954POPC   C1B50575  33.794  41.120   6.181
 3954POPC   C2B50576  33.934  41.012   6.592
 3954POPC   C3B50577  33.802  41.120   6.976
 3954POPC   C4B50578  33.546  41.224   7.318
 3955POPC   NC350579  44.533   0.873   5.397
 3955POPC   PO450580  44.864   0.344   5.380
 3955POPC   GL150581  44.667   0.532   5.751
 3955POPC   GL250582  44.648   0.275   5.975
 3955POPC   C1A50583  44.457   0.695   6.140
 3955POPC   D2A50584  44.592   0.386   6.475
 3955POPC   C3A50585  44.618   0.465   6.894
 3955POPC   C4A50586  44.563   0.207   7.237
 3955POPC   C1B50587  44.942   0.606   6.184
 3955POPC   C2B50588  44.868   0.858   6.550
 3955POPC   C3B50589  44.995   0.815   6.989
 3955POPC   C4B50590  44.755   0.713   7.351
 3956POPC   NC350591  24.671  24.845   5.256
 3956POPC   PO450592  24.125  24.464   5.394
 3956POPC   GL150593  24.457  24.416   5.681
 3956POPC   GL250594  24.259  24.636   5.890
 3956POPC   C1A50595  24.514  24.261   6.105
 3956POPC   D2A50596  24.294  24.271   6.499
 3956POPC   C3A50597  24.406  24.367   6.924
 3956POPC   C4A50598  24.398  24.295   7.361
 3956POPC   C1B50599  24.440  24.747   6.270
 3956POPC   C2B50600  24.274  24.834   6.664
 3956POPC   C3B50601  24.174  24.770   7.114
 3956POPC   C4B50602  24.590  24.765   7.331
 3957POPC   NC350603  21.728  34.259   5.341
 3957POPC   PO450604  21.119  34.364   5.542
 3957POPC   GL150605  21.378  34.618   5.826
 3957POPC   GL250606  21.652  34.858   5.718
 3957POPC   C1A50607  21.274  34.534   6.269
 3957POPC   D2A50608  20.961  34.504   6.583
 3957POPC   C3A50609  21.180  34.475   6.968
 3957POPC   C4A50610  21.475  34.225   7.207
 3957POPC   C1B50611  21.735  34.810   6.152
 3957POPC   C2B50612  21.588  34.779   6.583
 3957POPC   C3B50613  21.700  34.754   7.024
 3957POPC   C4B50614  21.404  34.748   7.352
 3958POPC   NC350615   7.518  39.363   5.282
 3958POPC   PO450616   7.246  38.842   5.597
 3958POPC   GL150617   7.424  39.177   5.839
 3958POPC   GL250618   7.730  39.265   5.734
 3958POPC   C1A50619   7.548  39.384   6.230
 3958POPC   D2A50620   7.724  39.582   6.606
 3958POPC   C3A50621   7.480  39.365   6.860
 3958POPC   C4A50622   7.386  39.097   7.165
 3958POPC   C1B50623   7.874  39.003   6.074
 3958POPC   C2B50624   7.682  38.954   6.490
 3958POPC   C3B50625   7.825  38.969   6.910
 3958POPC   C4B50626   7.752  38.714   7.264
 3959POPC   NC350627  26.450  29.364   5.664
 3959POPC   PO450628  25.771  29.231   5.601
 3959POPC   GL150629  25.822  29.228   6.009
 3959POPC   GL250630  26.041  29.501   5.922
 3959POPC   C1A50631  25.825  29.092   6.447
 3959POPC   D2A50632  26.032  28.842   6.747
 3959POPC   C3A50633  25.813  28.917   7.140
 3959POPC   C4A50634  25.916  29.249   7.425
 3959POPC   C1B50635  26.201  29.430   6.295
 3959POPC   C2B50636  26.168  29.645   6.641
 3959POPC   C3B50637  26.031  29.353   6.929
 3959POPC   C4B50638  26.308  29.058   7.135
 3960POPC   NC350639   0.058  12.882   5.202
 3960POPC   PO450640   0.505  13.276   5.573
 3960POPC   GL150641   0.628  12.978   5.894
 3960POPC   GL250642   0.582  13.230   6.134
 3960POPC   C1A50643   0.438  12.761   6.269
 3960POPC   D2A50644   0.700  12.887   6.592
 3960POPC   C3A50645   0.570  12.896   7.004
 3960POPC   C4A50646   0.453  12.539   7.206
 3960POPC   C1B50647   0.127  13.186   6.269
 3960POPC   C2B50648  44.926  12.841   6.467
 3960POPC   C3B50649   0.005  12.809   6.899
 3960POPC   C4B50650   0.126  13.035   7.246
 3961POPC   NC350651  21.000   6.360   5.409
 3961POPC   PO450652  20.726   6.968   5.344
 3961POPC   GL150653  20.651   6.626   5.697
 3961POPC   GL250654  20.299   6.490   5.809
 3961POPC   C1A50655  20.714   6.485   6.123
 3961POPC   D2A50656  20.538   6.463   6.529
 3961POPC   C3A50657  20.789   6.652   6.835
 3961POPC   C4A50658  20.829   6.478   7.236
 3961POPC   C1B50659  20.223   6.747   6.215
 3961POPC   C2B50660  20.191   6.818   6.684
 3961POPC   C3B50661  20.340   6.634   7.069
 3961POPC   C4B50662  20.114   6.561   7.412
 3962POPC   NC350663   9.846  37.388   5.309
 3962POPC   PO450664   9.518  37.935   5.278
 3962POPC   GL150665   9.699  37.761   5.665
 3962POPC   GL250666   9.460  37.492   5.747
 3962POPC   C1A50667   9.627  37.855   6.121
 3962POPC   D2A50668   9.340  37.759   6.497
 3962POPC   C3A50669   9.509  37.834   6.915
 3962POPC   C4A50670   9.732  37.873   7.297
 3962POPC   C1B50671   9.541  37.355   6.198
 3962POPC   C2B50672   9.558  37.317   6.662
 3962POPC   C3B50673   9.758  37.380   7.092
 3962POPC   C4B50674   9.831  37.467   7.564
 3963POPC   NC350675  36.918   0.002   5.073
 3963POPC   PO450676  37.324  44.587   5.414
 3963POPC   GL150677  36.930  44.599   5.700
 3963POPC   GL250678  36.770  44.256   5.753
 3963POPC   C1A50679  36.777  44.782   6.104
 3963POPC   D2A50680  36.736  44.748   6.538
 3963POPC   C3A50681  36.948   0.040   6.794
 3963POPC   C4A50682  36.910  44.905   7.209
 3963POPC   C1B50683  37.039  44.335   6.127
 3963POPC   C2B50684  37.010  44.245   6.563
 3963POPC   C3B50685  36.921  44.438   6.959
 3963POPC   C4B50686  37.175  44.478   7.329
 3964POPC   NC350687  42.583  13.005   5.416
 3964POPC   PO450688  42.140  12.553   5.335
 3964POPC   GL150689  42.278  12.752   5.755
 3964POPC   GL250690  42.306  13.143   5.808
 3964POPC   C1A50691  42.439  12.713   6.186
 3964POPC   D2A50692  42.634  13.017   6.504
 3964POPC   C3A50693  42.630  12.911   6.968
 3964POPC   C4A50694  42.447  13.190   7.304
 3964POPC   C1B50695  42.138  13.116   6.240
 3964POPC   C2B50696  42.166  12.812   6.631
 3964POPC   C3B50697  42.142  12.797   7.089
 3964POPC   C4B50698  41.886  13.105   7.223
 3965POPC   NC350699  11.157   5.526   5.508
 3965POPC   PO450700  11.572   5.101   5.225
 3965POPC   GL150701  11.147   5.085   5.728
 3965POPC   GL250702  11.031   4.741   5.853
 3965POPC   C1A50703  11.182   5.101   6.245
 3965POPC   D2A50704  11.420   5.313   6.659
 3965POPC   C3A50705  11.403   5.162   7.128
 3965POPC   C4A50706  11.628   5.266   7.537
 3965POPC   C1B50707  10.784   4.731   6.222
 3965POPC   C2B50708  10.882   4.795   6.663
 3965POPC   C3B50709  11.014   4.738   7.103
 3965POPC   C4B50710  11.417   4.637   7.258
 3966POPC   NC350711  16.262  30.915   5.553
 3966POPC   PO450712  16.784  30.427   5.429
 3966POPC   GL150713  16.633  30.594   5.839
 3966POPC   GL250714  16.606  30.948   5.933
 3966POPC   C1A50715  16.478  30.556   6.281
 3966POPC   D2A50716  16.727  30.519   6.654
 3966POPC   C3A50717  16.563  30.348   7.032
 3966POPC   C4A50718  16.386  30.549   7.368
 3966POPC   C1B50719  16.923  30.819   6.254
 3966POPC   C2B50720  17.042  30.913   6.707
 3966POPC   C3B50721  16.820  30.825   7.122
 3966POPC   C4B50722  16.561  31.022   7.523
 3967POPC   NC350723   6.076   4.611   5.459
 3967POPC   PO450724   5.637   4.138   5.601
 3967POPC   GL150725   5.971   4.122   5.871
 3967POPC   GL250726   5.975   4.436   5.911
 3967POPC   C1A50727   6.239   4.064   6.214
 3967POPC   D2A50728   6.190   4.314   6.591
 3967POPC   C3A50729   5.821   4.217   6.817
 3967POPC   C4A50730   5.830   4.108   7.230
 3967POPC   C1B50731   5.782   4.430   6.285
 3967POPC   C2B50732   5.684   4.695   6.624
 3967POPC   C3B50733   5.888   4.696   7.000
 3967POPC   C4B50734   5.844   4.654   7.405
 3968POPC   NC350735  44.914  31.840   5.402
 3968POPC   PO450736  44.800  32.522   5.247
 3968POPC   GL150737  44.794  32.341   5.634
 3968POPC   GL250738  44.438  32.437   5.711
 3968POPC   C1A50739  44.742  32.127   6.038
 3968POPC   D2A50740  44.462  32.138   6.398
 3968POPC   C3A50741  44.601  32.075   6.810
 3968POPC   C4A50742  44.901  32.085   7.136
 3968POPC   C1B50743  44.237  32.514   6.141
 3968POPC   C2B50744  44.269  32.599   6.610
 3968POPC   C3B50745  44.209  32.517   7.057
 3968POPC   C4B50746  44.424  32.188   7.293
 3969POPC   NC350747  35.635  29.493   5.069
 3969POPC   PO450748  35.238  29.903   5.420
 3969POPC   GL150749  35.365  29.920   5.829
 3969POPC   GL250750  35.017  29.945   5.913
 3969POPC   C1A50751  35.577  29.932   6.224
 3969POPC   D2A50752  35.392  29.779   6.626
 3969POPC   C3A50753  35.652  29.717   6.996
 3969POPC   C4A50754  35.697  30.029   7.287
 3969POPC   C1B50755  35.037  30.043   6.343
 3969POPC   C2B50756  35.044  30.164   6.762
 3969POPC   C3B50757  35.187  29.893   7.104
 3969POPC   C4B50758  35.066  29.879   7.525
 3970POPC   NC350759  40.869  42.185   5.089
 3970POPC   PO450760  40.839  42.774   5.419
 3970POPC   GL150761  40.885  42.524   5.738
 3970POPC   GL250762  40.700  42.252   5.893
 3970POPC   C1A50763  40.965  42.631   6.130
 3970POPC   D2A50764  41.172  42.610   6.495
 3970POPC   C3A50765  40.953  42.443   6.823
 3970POPC   C4A50766  41.031  42.552   7.227
 3970POPC   C1B50767  40.858  42.171   6.326
 3970POPC   C2B50768  40.616  42.047   6.685
 3970POPC   C3B50769  40.600  42.163   7.115
 3970POPC   C4B50770  41.006  42.050   7.183
 3971POPC   NC350771  44.103   6.007   5.680
 3971POPC   PO450772  44.512   5.572   5.414
 3971POPC   GL150773  44.617   5.766   5.818
 3971POPC   GL250774  44.480   6.064   6.000
 3971POPC   C1A50775  44.788   5.725   6.240
 3971POPC   D2A50776  44.645   5.530   6.597
 3971POPC   C3A50777  44.810   5.644   6.985
 3971POPC   C4A50778  44.893   5.834   7.414
 3971POPC   C1B50779  44.274   5.708   6.229
 3971POPC   C2B50780  44.152   5.656   6.628
 3971POPC   C3B50781  44.319   5.803   6.971
 3971POPC   C4B50782  44.443   5.627   7.353
 3972POPC   NC350783  38.075  32.566   5.558
 3972POPC   PO450784  38.408  32.030   5.266
 3972POPC   GL150785  38.386  32.053   5.735
 3972POPC   GL250786  38.469  32.393   5.836
 3972POPC   C1A50787  38.628  32.043   6.162
 3972POPC   D2A50788  38.818  32.140   6.601
 3972POPC   C3A50789  38.604  32.095   7.028
 3972POPC   C4A50790  38.674  32.207   7.480
 3972POPC   C1B50791  38.223  32.412   6.212
 3972POPC   C2B50792  38.202  32.619   6.606
 3972POPC   C3B50793  38.165  32.474   7.023
 3972POPC   C4B50794  38.232  32.546   7.450
 3973POPC   NC350795  30.445  19.840   5.412
 3973POPC   PO450796  30.992  19.876   5.040
 3973POPC   GL150797  30.929  19.926   5.576
 3973POPC   GL250798  30.719  19.669   5.794
 3973POPC   C1A50799  30.908  20.050   6.079
 3973POPC   D2A50800  30.713  19.904   6.489
 3973POPC   C3A50801  30.900  19.931   6.930
 3973POPC   C4A50802  30.957  19.535   7.148
 3973POPC   C1B50803  30.366  19.650   6.117
 3973POPC   C2B50804  30.237  19.679   6.546
 3973POPC   C3B50805  30.390  19.828   6.903
 3973POPC   C4B50806  30.537  19.934   7.309
 3974POPC   NC350807   0.597  16.683   5.237
 3974POPC   PO450808   0.270  17.276   5.237
 3974POPC   GL150809   0.460  17.031   5.634
 3974POPC   GL250810   0.501  16.652   5.755
 3974POPC   C1A50811   0.485  17.017   6.104
 3974POPC   D2A50812   0.271  16.941   6.484
 3974POPC   C3A50813   0.421  16.975   6.911
 3974POPC   C4A50814   0.343  16.749   7.263
 3974POPC   C1B50815   0.758  16.571   6.151
 3974POPC   C2B50816   0.638  16.607   6.593
 3974POPC   C3B50817   0.736  16.482   7.014
 3974POPC   C4B50818   1.019  16.450   7.400
 3975POPC   NC350819  44.791  44.186   5.430
 3975POPC   PO450820  44.322  43.720   5.071
 3975POPC   GL150821  44.424  43.766   5.539
 3975POPC   GL250822  44.785  43.704   5.634
 3975POPC   C1A50823  44.494  43.866   6.006
 3975POPC   D2A50824  44.595  43.845   6.456
 3975POPC   C3A50825  44.428  43.983   6.854
 3975POPC   C4A50826  44.768  44.117   7.141
 3975POPC   C1B50827  44.982  43.622   6.057
 3975POPC   C2B50828   0.081  43.564   6.508
 3975POPC   C3B50829  44.972  43.674   6.937
 3975POPC   C4B50830   0.094  43.498   7.323
 3976POPC   NC350831  17.786   6.269   5.396
 3976POPC   PO450832  17.489   6.900   5.453
 3976POPC   GL150833  17.450   6.534   5.721
 3976POPC   GL250834  17.753   6.438   5.898
 3976POPC   C1A50835  17.256   6.443   6.126
 3976POPC   D2A50836  17.255   6.476   6.588
 3976POPC   C3A50837  17.551   6.648   6.876
 3976POPC   C4A50838  17.418   6.558   7.302
 3976POPC   C1B50839  17.726   6.421   6.356
 3976POPC   C2B50840  17.808   6.222   6.738
 3976POPC   C3B50841  17.994   6.405   7.106
 3976POPC   C4B50842  17.877   6.427   7.566
 3977POPC   NC350843  20.023  31.755   5.497
 3977POPC   PO450844  19.736  31.221   5.305
 3977POPC   GL150845  19.679  31.401   5.716
 3977POPC   GL250846  19.795  31.106   5.898
 3977POPC   C1A50847  19.818  31.583   6.136
 3977POPC   D2A50848  19.737  31.772   6.558
 3977POPC   C3A50849  19.871  31.575   6.924
 3977POPC   C4A50850  19.781  31.372   7.307
 3977POPC   C1B50851  20.034  31.102   6.283
 3977POPC   C2B50852  19.984  31.118   6.729
 3977POPC   C3B50853  20.189  31.190   7.096
 3977POPC   C4B50854  20.223  31.187   7.578
 3978POPC   NC350855  18.898  18.641   5.540
 3978POPC   PO450856  18.886  19.309   5.541
 3978POPC   GL150857  19.217  19.201   5.832
 3978POPC   GL250858  19.054  18.902   5.952
 3978POPC   C1A50859  19.471  19.082   6.195
 3978POPC   D2A50860  19.187  18.845   6.469
 3978POPC   C3A50861  19.153  18.845   6.908
 3978POPC   C4A50862  19.095  19.092   7.275
 3978POPC   C1B50863  18.780  19.085   6.258
 3978POPC   C2B50864  18.838  19.235   6.686
 3978POPC   C3B50865  18.673  19.312   7.103
 3978POPC   C4B50866  18.639  19.075   7.518
 3979POPC   NC350867   0.495   8.456   5.502
 3979POPC   PO450868   0.353   7.819   5.481
 3979POPC   GL150869   0.476   8.073   5.853
 3979POPC   GL250870   0.837   8.105   5.848
 3979POPC   C1A50871   0.360   8.285   6.252
 3979POPC   D2A50872   0.432   8.619   6.579
 3979POPC   C3A50873   0.244   8.490   7.012
 3979POPC   C4A50874   0.210   8.054   7.176
 3979POPC   C1B50875   0.838   8.454   6.151
 3979POPC   C2B50876   0.958   8.571   6.575
 3979POPC   C3B50877   0.759   8.562   6.974
 3979POPC   C4B50878   0.604   8.359   7.366
 3980POPC   NC350879  23.386  37.957   5.290
 3980POPC   PO450880  23.915  37.480   5.448
 3980POPC   GL150881  23.838  37.671   5.807
 3980POPC   GL250882  23.486  37.681   5.729
 3980POPC   C1A50883  23.960  37.541   6.220
 3980POPC   D2A50884  24.075  37.548   6.662
 3980POPC   C3A50885  23.917  37.851   6.907
 3980POPC   C4A50886  23.887  37.553   7.208
 3980POPC   C1B50887  23.353  37.694   6.139
 3980POPC   C2B50888  23.565  37.687   6.504
 3980POPC   C3B50889  23.450  37.621   6.881
 3980POPC   C4B50890  23.462  37.860   7.210
 3981POPC   NC350891  15.924   1.785   5.070
 3981POPC   PO450892  15.594   2.268   5.454
 3981POPC   GL150893  15.927   2.206   5.733
 3981POPC   GL250894  16.156   1.946   5.534
 3981POPC   C1A50895  15.796   2.026   6.141
 3981POPC   D2A50896  15.805   2.095   6.574
 3981POPC   C3A50897  16.182   2.210   6.735
 3981POPC   C4A50898  16.203   2.199   7.162
 3981POPC   C1B50899  16.204   1.770   5.954
 3981POPC   C2B50900  16.085   1.668   6.402
 3981POPC   C3B50901  16.056   1.711   6.857
 3981POPC   C4B50902  16.327   1.710   7.222
 3982POPC   NC350903  44.771  41.968   5.639
 3982POPC   PO450904  44.374  41.393   5.518
 3982POPC   GL150905  44.453  41.613   5.879
 3982POPC   GL250906  44.785  41.503   5.884
 3982POPC   C1A50907  44.589  41.845   6.259
 3982POPC   D2A50908  44.609  42.073   6.656
 3982POPC   C3A50909  44.877  41.912   6.978
 3982POPC   C4A50910  44.882  41.478   7.135
 3982POPC   C1B50911  44.670  41.325   6.285
 3982POPC   C2B50912  44.517  41.356   6.721
 3982POPC   C3B50913  44.509  41.075   7.091
 3982POPC   C4B50914  44.694  41.147   7.502
 3983POPC   NC350915  10.145  21.993   5.413
 3983POPC   PO450916  10.414  22.665   5.446
 3983POPC   GL150917  10.601  22.291   5.704
 3983POPC   GL250918  10.642  21.960   5.644
 3983POPC   C1A50919  10.788  22.126   6.123
 3983POPC   D2A50920  10.912  22.045   6.576
 3983POPC   C3A50921  10.534  22.056   6.834
 3983POPC   C4A50922  10.342  22.178   7.204
 3983POPC   C1B50923  10.369  21.852   6.025
 3983POPC   C2B50924  10.218  21.852   6.483
 3983POPC   C3B50925  10.031  21.839   6.920
 3983POPC   C4B50926  10.121  21.766   7.387
 3984POPC   NC350927  25.611  22.002   5.487
 3984POPC   PO450928  25.540  22.697   5.446
 3984POPC   GL150929  25.614  22.395   5.796
 3984POPC   GL250930  25.277  22.254   5.858
 3984POPC   C1A50931  25.651  22.089   6.187
 3984POPC   D2A50932  25.635  22.250   6.635
 3984POPC   C3A50933  25.324  22.194   6.984
 3984POPC   C4A50934  25.230  22.423   7.368
 3984POPC   C1B50935  25.138  22.157   6.289
 3984POPC   C2B50936  25.030  21.912   6.678
 3984POPC   C3B50937  24.803  22.204   6.947
 3984POPC   C4B50938  24.905  22.602   6.962
 3985POPC   NC350939  30.219  23.162   5.384
 3985POPC   PO450940  30.211  23.794   5.306
 3985POPC   GL150941  30.048  23.664   5.712
 3985POPC   GL250942  30.291  23.864   5.871
 3985POPC   C1A50943  29.966  23.633   6.193
 3985POPC   D2A50944  29.789  23.705   6.618
 3985POPC   C3A50945  30.094  23.600   6.973
 3985POPC   C4A50946  30.050  23.725   7.426
 3985POPC   C1B50947  30.366  23.992   6.288
 3985POPC   C2B50948  30.390  23.983   6.738
 3985POPC   C3B50949  30.431  23.998   7.183
 3985POPC   C4B50950  30.362  24.032   7.680
 3986POPC   NC350951  34.196  30.586   5.339
 3986POPC   PO450952  33.490  30.700   5.270
 3986POPC   GL150953  33.747  30.713   5.641
 3986POPC   GL250954  33.603  31.031   5.713
 3986POPC   C1A50955  33.774  30.674   6.119
 3986POPC   D2A50956  34.098  30.642   6.496
 3986POPC   C3A50957  33.901  30.687   6.923
 3986POPC   C4A50958  33.736  30.413   7.266
 3986POPC   C1B50959  33.653  31.169   6.102
 3986POPC   C2B50960  33.517  31.025   6.460
 3986POPC   C3B50961  33.440  31.089   6.861
 3986POPC   C4B50962  33.521  30.892   7.263
 3987POPC   NC350963  16.736   4.532   5.166
 3987POPC   PO450964  16.268   4.192   5.522
 3987POPC   GL150965  16.626   4.421   5.733
 3987POPC   GL250966  16.975   4.314   5.807
 3987POPC   C1A50967  16.721   4.559   6.182
 3987POPC   D2A50968  16.812   4.478   6.640
 3987POPC   C3A50969  16.618   4.411   7.103
 3987POPC   C4A50970  16.272   4.625   7.367
 3987POPC   C1B50971  17.024   4.112   6.243
 3987POPC   C2B50972  16.899   3.974   6.679
 3987POPC   C3B50973  17.000   3.993   7.119
 3987POPC   C4B50974  16.812   3.951   7.538
 3988POPC   NC350975  27.582  17.684   5.437
 3988POPC   PO450976  28.075  17.135   5.489
 3988POPC   GL150977  27.702  17.292   5.759
 3988POPC   GL250978  27.828  17.602   5.885
 3988POPC   C1A50979  27.421  17.363   6.182
 3988POPC   D2A50980  27.281  17.267   6.658
 3988POPC   C3A50981  27.392  17.508   7.053
 3988POPC   C4A50982  27.629  17.864   7.027
 3988POPC   C1B50983  27.910  17.431   6.313
 3988POPC   C2B50984  27.817  17.452   6.759
 3988POPC   C3B50985  27.889  17.379   7.193
 3988POPC   C4B50986  28.032  17.326   7.620
 3989POPC   NC350987  35.826  41.304   5.402
 3989POPC   PO450988  35.917  40.644   5.466
 3989POPC   GL150989  36.142  40.711   5.821
 3989POPC   GL250990  36.285  41.042   5.742
 3989POPC   C1A50991  35.958  40.849   6.222
 3989POPC   D2A50992  35.879  40.694   6.666
 3989POPC   C3A50993  35.965  40.930   7.087
 3989POPC   C4A50994  36.001  40.751   7.529
 3989POPC   C1B50995  36.466  40.920   6.159
 3989POPC   C2B50996  36.309  40.957   6.574
 3989POPC   C3B50997  36.457  40.789   6.912
 3989POPC   C4B50998  36.444  40.828   7.280
 3990POPC   NC350999  27.035   5.507   5.603
 3990POPC   PO451000  27.283   4.916   5.420
 3990POPC   GL151001  26.969   5.001   5.764
 3990POPC   GL251002  26.697   4.764   5.838
 3990POPC   C1A51003  26.872   5.152   6.204
 3990POPC   D2A51004  26.879   5.359   6.624
 3990POPC   C3A51005  26.932   5.047   6.955
 3990POPC   C4A51006  27.123   5.142   7.362
 3990POPC   C1B51007  26.519   4.760   6.233
 3990POPC   C2B51008  26.464   5.043   6.559
 3990POPC   C3B51009  26.428   5.262   6.931
 3990POPC   C4B51010  26.579   5.115   7.328
 3991POPC   NC351011  29.738  16.747   5.358
 3991POPC   PO451012  30.265  16.966   5.657
 3991POPC   GL151013  29.869  16.971   5.839
 3991POPC   GL251014  29.898  16.635   5.894
 3991POPC   C1A51015  29.699  16.904   6.271
 3991POPC   D2A51016  29.678  16.752   6.686
 3991POPC   C3A51017  30.032  16.838   6.958
 3991POPC   C4A51018  30.005  17.073   7.367
 3991POPC   C1B51019  30.042  16.438   6.254
 3991POPC   C2B51020  29.873  16.227   6.569
 3991POPC   C3B51021  29.806  16.332   6.944
 3991POPC   C4B51022  30.029  16.415   7.256
 3992POPC   NC351023  41.196  37.987   5.335
 3992POPC   PO451024  40.730  37.472   5.462
 3992POPC   GL151025  40.743  37.584   5.876
 3992POPC   GL251026  40.845  37.944   5.791
 3992POPC   C1A51027  40.626  37.419   6.291
 3992POPC   D2A51028  40.549  37.566   6.723
 3992POPC   C3A51029  40.917  37.537   7.069
 3992POPC   C4A51030  40.902  37.466   7.542
 3992POPC   C1B51031  40.656  37.980   6.225
 3992POPC   C2B51032  40.766  38.031   6.679
 3992POPC   C3B51033  40.655  37.992   7.111
 3992POPC   C4B51034  40.976  37.958   7.436
 3993POPC   NC351035   8.873  30.983   5.408
 3993POPC   PO451036   8.989  31.674   5.375
 3993POPC   GL151037   9.010  31.384   5.764
 3993POPC   GL251038   8.681  31.195   5.833
 3993POPC   C1A51039   9.148  31.515   6.203
 3993POPC   D2A51040   9.334  31.633   6.648
 3993POPC   C3A51041   9.072  31.634   7.042
 3993POPC   C4A51042   9.056  31.705   7.513
 3993POPC   C1B51043   8.939  31.036   6.166
 3993POPC   C2B51044   9.083  31.181   6.582
 3993POPC   C3B51045   8.900  31.126   6.943
 3993POPC   C4B51046   8.715  31.318   7.288
 3994POPC   NC351047   6.894  26.989   5.379
 3994POPC   PO451048   6.312  26.816   5.544
 3994POPC   GL151049   6.623  26.930   5.808
 3994POPC   GL251050   6.782  26.608   5.806
 3994POPC   C1A51051   6.636  26.897   6.237
 3994POPC   D2A51052   6.407  26.874   6.620
 3994POPC   C3A51053   6.709  26.879   6.959
 3994POPC   C4A51054   6.964  27.204   7.151
 3994POPC   C1B51055   6.677  26.381   6.225
 3994POPC   C2B51056   6.413  26.344   6.587
 3994POPC   C3B51057   6.207  26.472   6.909
 3994POPC   C4B51058   6.440  26.556   7.259
 3995POPC   NC351059   5.609  33.924   5.523
 3995POPC   PO451060   5.640  33.253   5.686
 3995POPC   GL151061   5.734  33.625   5.913
 3995POPC   GL251062   6.011  33.854   5.847
 3995POPC   C1A51063   5.756  33.744   6.313
 3995POPC   D2A51064   5.728  33.906   6.691
 3995POPC   C3A51065   5.718  33.547   6.950
 3995POPC   C4A51066   5.836  33.546   7.352
 3995POPC   C1B51067   6.242  33.648   6.189
 3995POPC   C2B51068   6.210  33.755   6.638
 3995POPC   C3B51069   6.089  33.882   7.058
 3995POPC   C4B51070   6.338  33.749   7.379
 3996POPC   NC351071  20.579  20.784   5.357
 3996POPC   PO451072  20.837  20.250   5.723
 3996POPC   GL151073  20.581  20.583   5.828
 3996POPC   GL251074  20.808  20.877   5.791
 3996POPC   C1A51075  20.437  20.488   6.220
 3996POPC   D2A51076  20.358  20.611   6.625
 3996POPC   C3A51077  20.599  20.411   6.942
 3996POPC   C4A51078  20.634  20.546   7.377
 3996POPC   C1B51079  20.906  20.782   6.194
 3996POPC   C2B51080  20.798  20.984   6.552
 3996POPC   C3B51081  20.762  20.879   6.962
 3996POPC   C4B51082  20.982  20.917   7.319
 3997POPC   NC351083   2.211  28.716   5.475
 3997POPC   PO451084   1.887  28.158   5.211
 3997POPC   GL151085   2.028  28.233   5.678
 3997POPC   GL251086   2.242  28.476   5.912
 3997POPC   C1A51087   1.944  28.118   6.116
 3997POPC   D2A51088   1.812  28.136   6.563
 3997POPC   C3A51089   2.062  28.365   6.869
 3997POPC   C4A51090   2.158  28.136   7.232
 3997POPC   C1B51091   2.175  28.555   6.362
 3997POPC   C2B51092   2.477  28.659   6.707
 3997POPC   C3B51093   2.461  28.827   7.130
 3997POPC   C4B51094   2.096  28.654   7.357
 3998POPC   NC351095   8.204   1.109   5.352
 3998POPC   PO451096   8.524   1.676   5.675
 3998POPC   GL151097   8.371   1.269   5.822
 3998POPC   GL251098   7.993   1.236   5.815
 3998POPC   C1A51099   8.267   1.255   6.249
 3998POPC   D2A51100   8.395   1.501   6.576
 3998POPC   C3A51101   8.389   1.247   6.894
 3998POPC   C4A51102   8.364   1.053   7.241
 3998POPC   C1B51103   7.822   1.030   6.183
 3998POPC   C2B51104   8.012   0.954   6.602
 3998POPC   C3B51105   7.897   1.112   7.032
 3998POPC   C4B51106   7.706   1.040   7.444
 3999POPC   NC351107   1.665  36.519   5.440
 3999POPC   PO451108   2.319  36.418   5.393
 3999POPC   GL151109   2.070  36.127   5.725
 3999POPC   GL251110   2.194  35.770   5.823
 3999POPC   C1A51111   1.871  35.996   6.145
 3999POPC   D2A51112   1.723  36.116   6.550
 3999POPC   C3A51113   1.926  35.960   6.936
 3999POPC   C4A51114   1.882  36.069   7.369
 3999POPC   C1B51115   2.367  35.992   6.200
 3999POPC   C2B51116   2.305  36.273   6.582
 3999POPC   C3B51117   2.367  36.276   7.044
 3999POPC   C4B51118   2.486  35.901   7.240
 4000POPC   NC351119   2.946   8.814   5.435
 4000POPC   PO451120   2.434   9.235   5.444
 4000POPC   GL151121   2.573   8.929   5.804
 4000POPC   GL251122   2.925   8.898   5.923
 4000POPC   C1A51123   2.520   8.840   6.267
 4000POPC   D2A51124   2.283   8.908   6.676
 4000POPC   C3A51125   2.455   9.257   6.880
 4000POPC   C4A51126   2.645   9.310   7.269
 4000POPC   C1B51127   3.081   8.725   6.291
 4000POPC   C2B51128   3.148   8.880   6.708
 4000POPC   C3B51129   2.796   8.887   7.018
 4000POPC   C4B51130   2.813   8.662   7.412
 4001POPC   NC351131   0.239  19.004   5.294
 4001POPC   PO451132   0.900  18.813   5.319
 4001POPC   GL151133   0.589  18.848   5.688
 4001POPC   GL251134   0.373  19.144   5.774
 4001POPC   C1A51135   0.482  18.759   6.140
 4001POPC   D2A51136   0.696  18.737   6.550
 4001POPC   C3A51137   0.483  18.795   6.943
 4001POPC   C4A51138   0.460  19.028   7.338
 4001POPC   C1B51139   0.136  19.160   6.174
 4001POPC   C2B51140   0.291  19.128   6.588
 4001POPC   C3B51141   0.126  19.245   6.996
 4001POPC   C4B51142  44.960  19.145   7.387
 4002POPC   NC351143  18.469   3.160   5.367
 4002POPC   PO451144  18.072   2.597   5.189
 4002POPC   GL151145  18.117   2.588   5.655
 4002POPC   GL251146  18.449   2.689   5.715
 4002POPC   C1A51147  17.967   2.766   6.062
 4002POPC   D2A51148  18.005   2.889   6.508
 4002POPC   C3A51149  17.916   2.625   6.850
 4002POPC   C4A51150  18.018   2.651   7.259
 4002POPC   C1B51151  18.438   2.998   6.065
 4002POPC   C2B51152  18.505   3.018   6.501
 4002POPC   C3B51153  18.367   2.879   6.898
 4002POPC   C4B51154  18.476   2.942   7.285
 4003POPC   NC351155   1.574  35.569   5.663
 4003POPC   PO451156   2.205  35.425   5.405
 4003POPC   GL151157   2.201  35.209   5.806
 4003POPC   GL251158   1.842  35.127   5.903
 4003POPC   C1A51159   2.192  35.392   6.198
 4003POPC   D2A51160   2.086  35.681   6.519
 4003POPC   C3A51161   2.248  35.557   6.916
 4003POPC   C4A51162   2.061  35.567   7.322
 4003POPC   C1B51163   1.727  35.269   6.352
 4003POPC   C2B51164   1.725  35.345   6.814
 4003POPC   C3B51165   1.890  35.111   7.183
 4003POPC   C4B51166   1.836  35.176   7.639
 4004POPC   NC351167  35.085  41.418   5.384
 4004POPC   PO451168  35.601  41.696   5.512
 4004POPC   GL151169  35.327  41.477   5.834
 4004POPC   GL251170  35.086  41.732   5.810
 4004POPC   C1A51171  35.080  41.548   6.263
 4004POPC   D2A51172  35.076  41.801   6.608
 4004POPC   C3A51173  35.241  41.568   6.939
 4004POPC   C4A51174  35.625  41.377   7.158
 4004POPC   C1B51175  35.433  41.888   6.131
 4004POPC   C2B51176  35.568  42.090   6.504
 4004POPC   C3B51177  35.394  42.060   6.918
 4004POPC   C4B51178  35.361  41.860   7.330
 4005POPC   NC351179  19.721  15.730   5.236
 4005POPC   PO451180  20.155  16.258   5.442
 4005POPC   GL151181  19.989  15.921   5.676
 4005POPC   GL251182  19.619  15.846   5.731
 4005POPC   C1A51183  20.017  15.803   6.107
 4005POPC   D2A51184  19.886  15.936   6.523
 4005POPC   C3A51185  19.820  15.661   6.856
 4005POPC   C4A51186  19.955  15.802   7.251
 4005POPC   C1B51187  19.556  16.049   6.133
 4005POPC   C2B51188  19.403  16.193   6.549
 4005POPC   C3B51189  19.641  16.215   6.928
 4005POPC   C4B51190  19.949  16.318   7.222
 4006POPC   NC351191   8.921  35.699   5.418
 4006POPC   PO451192   9.190  36.302   5.463
 4006POPC   GL151193   8.924  36.147   5.771
 4006POPC   GL251194   9.083  35.830   5.870
 4006POPC   C1A51195   8.974  36.358   6.173
 4006POPC   D2A51196   9.192  36.318   6.593
 4006POPC   C3A51197   8.963  36.249   6.990
 4006POPC   C4A51198   9.133  36.356   7.379
 4006POPC   C1B51199   9.095  35.885   6.272
 4006POPC   C2B51200   8.868  35.909   6.599
 4006POPC   C3B51201   9.041  35.764   6.945
 4006POPC   C4B51202   9.139  35.840   7.359
 4007POPC   NC351203  31.941  10.086   5.413
 4007POPC   PO451204  32.259   9.502   5.431
 4007POPC   GL151205  32.258   9.674   5.852
 4007POPC   GL251206  32.208  10.012   5.840
 4007POPC   C1A51207  32.367   9.758   6.295
 4007POPC   D2A51208  32.487   9.934   6.706
 4007POPC   C3A51209  32.408   9.653   7.040
 4007POPC   C4A51210  32.066   9.431   7.263
 4007POPC   C1B51211  32.079  10.194   6.220
 4007POPC   C2B51212  31.943  10.202   6.600
 4007POPC   C3B51213  31.970   9.881   6.879
 4007POPC   C4B51214  32.007   9.933   7.274
 4008POPC   NC351215  23.557  28.538   5.379
 4008POPC   PO451216  24.156  28.309   5.452
 4008POPC   GL151217  23.887  28.502   5.779
 4008POPC   GL251218  23.507  28.405   5.855
 4008POPC   C1A51219  23.889  28.400   6.205
 4008POPC   D2A51220  23.816  28.274   6.608
 4008POPC   C3A51221  23.999  28.495   6.928
 4008POPC   C4A51222  23.924  28.358   7.309
 4008POPC   C1B51223  23.375  28.355   6.266
 4008POPC   C2B51224  23.425  28.578   6.620
 4008POPC   C3B51225  23.494  28.505   7.038
 4008POPC   C4B51226  23.400  28.338   7.431
 4009POPC   NC351227  39.189  26.065   5.024
 4009POPC   PO451228  39.400  25.985   5.607
 4009POPC   GL151229  39.192  26.179   5.897
 4009POPC   GL251230  39.430  26.415   6.017
 4009POPC   C1A51231  39.211  25.998   6.314
 4009POPC   D2A51232  39.055  25.888   6.702
 4009POPC   C3A51233  39.287  25.798   7.073
 4009POPC   C4A51234  38.956  25.776   7.356
 4009POPC   C1B51235  39.033  26.467   6.272
 4009POPC   C2B51236  39.013  26.398   6.732
 4009POPC   C3B51237  38.997  26.230   7.119
 4009POPC   C4B51238  39.324  26.163   7.456
 4010POPC   NC351239  19.570  37.326   5.564
 4010POPC   PO451240  20.143  37.720   5.406
 4010POPC   GL151241  19.932  37.657   5.791
 4010POPC   GL251242  19.602  37.809   5.768
 4010POPC   C1A51243  19.875  37.739   6.240
 4010POPC   D2A51244  20.066  37.714   6.653
 4010POPC   C3A51245  19.839  37.496   7.017
 4010POPC   C4A51246  19.643  37.386   7.451
 4010POPC   C1B51247  19.503  38.081   6.125
 4010POPC   C2B51248  19.729  38.192   6.490
 4010POPC   C3B51249  19.682  37.988   6.876
 4010POPC   C4B51250  19.762  37.922   7.295
 4011POPC   NC351251  31.289  15.818   5.451
 4011POPC   PO451252  31.805  16.234   5.487
 4011POPC   GL151253  31.712  15.899   5.770
 4011POPC   GL251254  31.357  15.955   5.919
 4011POPC   C1A51255  31.702  15.686   6.167
 4011POPC   D2A51256  31.637  15.921   6.536
 4011POPC   C3A51257  31.623  15.762   6.963
 4011POPC   C4A51258  31.517  15.964   7.356
 4011POPC   C1B51259  31.095  16.164   6.252
 4011POPC   C2B51260  30.934  16.305   6.686
 4011POPC   C3B51261  31.127  16.294   7.130
 4011POPC   C4B51262  31.175  16.237   7.624
 4012POPC   NC351263  18.665   5.354   5.562
 4012POPC   PO451264  18.087   4.892   5.425
 4012POPC   GL151265  18.441   4.854   5.702
 4012POPC   GL251266  18.643   5.058   5.970
 4012POPC   C1A51267  18.232   4.788   6.089
 4012POPC   D2A51268  18.037   4.967   6.466
 4012POPC   C3A51269  18.306   4.987   6.803
 4012POPC   C4A51270  18.302   4.898   7.231
 4012POPC   C1B51271  18.298   5.323   6.199
 4012POPC   C2B51272  18.114   5.470   6.617
 4012POPC   C3B51273  18.017   5.341   7.055
 4012POPC   C4B51274  18.281   5.531   7.366
 4013POPC   NC351275  20.061  16.703   5.405
 4013POPC   PO451276  19.419  16.934   5.431
 4013POPC   GL151277  19.661  16.747   5.727
 4013POPC   GL251278  19.694  16.383   5.749
 4013POPC   C1A51279  19.939  16.695   6.092
 4013POPC   D2A51280  19.847  16.466   6.481
 4013POPC   C3A51281  20.011  16.673   6.841
 4013POPC   C4A51282  19.897  16.839   7.226
 4013POPC   C1B51283  19.435  16.550   6.133
 4013POPC   C2B51284  19.298  16.754   6.498
 4013POPC   C3B51285  19.502  16.736   6.902
 4013POPC   C4B51286  19.417  16.536   7.277
 4014POPC   NC351287  34.040  21.400   5.414
 4014POPC   PO451288  33.410  21.706   5.433
 4014POPC   GL151289  33.598  21.390   5.677
 4014POPC   GL251290  33.783  21.626   5.823
 4014POPC   C1A51291  33.671  21.212   6.106
 4014POPC   D2A51292  33.493  21.277   6.537
 4014POPC   C3A51293  33.633  21.145   6.961
 4014POPC   C4A51294  33.808  21.309   7.334
 4014POPC   C1B51295  33.923  21.683   6.247
 4014POPC   C2B51296  33.998  21.891   6.612
 4014POPC   C3B51297  33.894  21.675   6.984
 4014POPC   C4B51298  33.706  21.795   7.430
 4015POPC   NC351299   8.873  42.765   5.603
 4015POPC   PO451300   9.144  43.385   5.561
 4015POPC   GL151301   9.102  43.136   5.882
 4015POPC   GL251302   9.351  42.883   5.759
 4015POPC   C1A51303   8.846  43.174   6.273
 4015POPC   D2A51304   8.603  43.091   6.680
 4015POPC   C3A51305   8.845  43.022   7.056
 4015POPC   C4A51306   9.110  43.345   7.258
 4015POPC   C1B51307   9.364  42.864   6.205
 4015POPC   C2B51308   9.142  42.899   6.590
 4015POPC   C3B51309   9.345  42.999   6.970
 4015POPC   C4B51310   9.282  42.851   7.375
 4016POPC   NC351311  20.546  11.860   5.661
 4016POPC   PO451312  20.884  12.435   5.447
 4016POPC   GL151313  20.621  12.352   5.830
 4016POPC   GL251314  20.246  12.373   5.767
 4016POPC   C1A51315  20.697  12.170   6.269
 4016POPC   D2A51316  20.687  11.802   6.564
 4016POPC   C3A51317  20.676  11.931   6.990
 4016POPC   C4A51318  20.907  12.148   7.296
 4016POPC   C1B51319  20.209  12.237   6.188
 4016POPC   C2B51320  20.242  12.100   6.588
 4016POPC   C3B51321  20.077  12.327   6.911
 4016POPC   C4B51322  20.441  12.367   7.160
 4017POPC   NC351323  10.792  32.388   5.466
 4017POPC   PO451324  10.293  32.064   5.439
 4017POPC   GL151325  10.313  32.392   5.788
 4017POPC   GL251326  10.627  32.626   5.888
 4017POPC   C1A51327  10.315  32.350   6.220
 4017POPC   D2A51328  10.203  32.501   6.595
 4017POPC   C3A51329  10.268  32.252   6.956
 4017POPC   C4A51330  10.548  32.027   7.193
 4017POPC   C1B51331  10.813  32.320   6.197
 4017POPC   C2B51332  10.663  32.238   6.605
 4017POPC   C3B51333  10.821  32.413   6.959
 4017POPC   C4B51334  11.002  32.247   7.316
 4018POPC   NC351335  18.269   1.267   5.252
 4018POPC   PO451336  18.657   0.902   5.663
 4018POPC   GL151337  18.505   1.170   5.959
 4018POPC   GL251338  18.252   1.331   5.778
 4018POPC   C1A51339  18.606   1.274   6.378
 4018POPC   D2A51340  18.323   1.413   6.681
 4018POPC   C3A51341  18.401   1.269   7.061
 4018POPC   C4A51342  18.633   1.508   7.318
 4018POPC   C1B51343  18.101   1.403   6.205
 4018POPC   C2B51344  17.867   1.244   6.565
 4018POPC   C3B51345  17.864   1.274   7.008
 4018POPC   C4B51346  18.034   1.163   7.427
 4019POPC   NC351347  25.025   2.747   5.320
 4019POPC   PO451348  25.567   2.944   5.431
 4019POPC   GL151349  25.331   2.727   5.775
 4019POPC   GL251350  25.072   2.998   5.764
 4019POPC   C1A51351  25.332   2.532   6.209
 4019POPC   D2A51352  25.071   2.586   6.609
 4019POPC   C3A51353  25.274   2.520   7.013
 4019POPC   C4A51354  25.167   2.424   7.399
 4019POPC   C1B51355  25.384   3.151   6.044
 4019POPC   C2B51356  25.265   3.011   6.409
 4019POPC   C3B51357  25.424   2.940   6.781
 4019POPC   C4B51358  25.350   3.023   7.211
 4020POPC   NC351359  33.713  19.501   5.450
 4020POPC   PO451360  33.964  20.186   5.351
 4020POPC   GL151361  33.735  20.009   5.711
 4020POPC   GL251362  33.969  19.748   5.829
 4020POPC   C1A51363  33.571  19.938   6.156
 4020POPC   D2A51364  33.773  19.835   6.566
 4020POPC   C3A51365  33.680  20.063   6.940
 4020POPC   C4A51366  33.564  20.064   7.369
 4020POPC   C1B51367  33.864  19.494   6.202
 4020POPC   C2B51368  33.985  19.355   6.633
 4020POPC   C3B51369  34.013  19.643   6.981
 4020POPC   C4B51370  33.850  19.664   7.430
 4021POPC   NC351371  24.338   9.507   5.302
 4021POPC   PO451372  24.540   8.805   5.239
 4021POPC   GL151373  24.384   8.795   5.693
 4021POPC   GL251374  24.701   8.743   5.839
 4021POPC   C1A51375  24.308   8.907   6.176
 4021POPC   D2A51376  24.385   9.153   6.588
 4021POPC   C3A51377  24.298   9.026   7.031
 4021POPC   C4A51378  24.448   8.682   7.226
 4021POPC   C1B51379  24.838   9.123   6.103
 4021POPC   C2B51380  24.903   9.279   6.543
 4021POPC   C3B51381  24.753   9.238   6.963
 4021POPC   C4B51382  24.796   9.044   7.366
 4022POPC   NC351383  11.431  33.017   5.484
 4022POPC   PO451384  10.995  33.515   5.308
 4022POPC   GL151385  11.151  33.342   5.754
 4022POPC   GL251386  11.090  32.952   5.844
 4022POPC   C1A51387  11.433  33.241   6.130
 4022POPC   D2A51388  11.559  33.068   6.539
 4022POPC   C3A51389  11.392  33.154   6.920
 4022POPC   C4A51390  11.362  33.125   7.355
 4022POPC   C1B51391  11.129  32.736   6.225
 4022POPC   C2B51392  11.109  32.801   6.655
 4022POPC   C3B51393  11.251  32.679   7.053
 4022POPC   C4B51394  11.019  32.749   7.409
 4023POPC   NC351395  26.598   2.177   5.494
 4023POPC   PO451396  25.890   2.009   5.539
 4023POPC   GL151397  26.183   2.060   5.837
 4023POPC   GL251398  26.142   2.391   5.829
 4023POPC   C1A51399  26.079   1.849   6.222
 4023POPC   D2A51400  25.857   1.685   6.579
 4023POPC   C3A51401  26.118   1.722   6.951
 4023POPC   C4A51402  26.170   1.924   7.359
 4023POPC   C1B51403  25.894   2.349   6.207
 4023POPC   C2B51404  25.844   2.195   6.637
 4023POPC   C3B51405  26.053   2.275   7.026
 4023POPC   C4B51406  26.092   2.453   7.465
 4024POPC   NC351407  37.427   7.553   5.462
 4024POPC   PO451408  37.653   6.931   5.186
 4024POPC   GL151409  37.801   7.091   5.652
 4024POPC   GL251410  37.900   7.435   5.687
 4024POPC   C1A51411  37.606   7.244   6.076
 4024POPC   D2A51412  37.448   7.513   6.416
 4024POPC   C3A51413  37.563   7.432   6.899
 4024POPC   C4A51414  37.485   7.491   7.350
 4024POPC   C1B51415  38.043   7.488   6.136
 4024POPC   C2B51416  37.931   7.460   6.543
 4024POPC   C3B51417  38.056   7.662   6.892
 4024POPC   C4B51418  38.005   7.576   7.287
 4025POPC   NC351419  39.078  14.643   5.322
 4025POPC   PO451420  39.334  14.038   5.414
 4025POPC   GL151421  39.282  14.391   5.730
 4025POPC   GL251422  39.538  14.630   5.792
 4025POPC   C1A51423  39.143  14.522   6.170
 4025POPC   D2A51424  39.232  14.403   6.617
 4025POPC   C3A51425  38.961  14.539   6.992
 4025POPC   C4A51426  39.108  14.288   7.362
 4025POPC   C1B51427  39.603  14.762   6.225
 4025POPC   C2B51428  39.558  14.780   6.683
 4025POPC   C3B51429  39.460  14.588   7.118
 4025POPC   C4B51430  39.301  14.704   7.579
 4026POPC   NC351431  18.698  25.434   5.628
 4026POPC   PO451432  19.347  25.093   5.493
 4026POPC   GL151433  19.096  25.137   5.847
 4026POPC   GL251434  19.185  25.495   5.850
 4026POPC   C1A51435  18.938  25.038   6.287
 4026POPC   D2A51436  19.035  24.818   6.697
 4026POPC   C3A51437  19.003  25.101   7.085
 4026POPC   C4A51438  18.667  25.386   7.250
 4026POPC   C1B51439  19.379  25.319   6.227
 4026POPC   C2B51440  19.269  25.273   6.648
 4026POPC   C3B51441  19.443  25.407   7.023
 4026POPC   C4B51442  19.479  25.188   7.378
 4027POPC   NC351443   2.011  16.280   5.504
 4027POPC   PO451444   1.950  15.656   5.224
 4027POPC   GL151445   2.008  15.783   5.672
 4027POPC   GL251446   2.317  15.972   5.737
 4027POPC   C1A51447   1.841  15.998   6.070
 4027POPC   D2A51448   2.001  15.973   6.487
 4027POPC   C3A51449   1.926  16.063   6.894
 4027POPC   C4A51450   1.876  15.727   7.162
 4027POPC   C1B51451   2.315  15.744   6.099
 4027POPC   C2B51452   2.483  15.830   6.477
 4027POPC   C3B51453   2.368  15.792   6.886
 4027POPC   C4B51454   2.393  15.646   7.275
 4028POPC   NC351455   8.082  35.476   5.458
 4028POPC   PO451456   8.578  35.012   5.508
 4028POPC   GL151457   8.337  35.225   5.857
 4028POPC   GL251458   8.372  35.583   5.870
 4028POPC   C1A51459   8.191  35.219   6.295
 4028POPC   D2A51460   8.298  35.061   6.710
 4028POPC   C3A51461   8.170  35.315   7.085
 4028POPC   C4A51462   7.995  35.181   7.516
 4028POPC   C1B51463   8.118  35.719   6.211
 4028POPC   C2B51464   8.033  35.606   6.640
 4028POPC   C3B51465   8.020  35.791   7.066
 4028POPC   C4B51466   8.316  35.711   7.433
 4029POPC   NC351467  18.829  20.778   5.443
 4029POPC   PO451468  19.474  20.743   5.646
 4029POPC   GL151469  19.142  20.536   5.859
 4029POPC   GL251470  18.921  20.779   5.988
 4029POPC   C1A51471  18.819  20.274   6.092
 4029POPC   D2A51472  18.662  20.320   6.522
 4029POPC   C3A51473  18.985  20.492   6.835
 4029POPC   C4A51474  18.925  20.534   7.297
 4029POPC   C1B51475  19.301  20.831   6.276
 4029POPC   C2B51476  19.387  20.918   6.712
 4029POPC   C3B51477  19.409  20.726   7.121
 4029POPC   C4B51478  19.301  20.770   7.549
 4030POPC   NC351479  30.761  24.913   5.596
 4030POPC   PO451480  30.687  24.348   5.156
 4030POPC   GL151481  30.703  24.417   5.604
 4030POPC   GL251482  30.381  24.572   5.717
 4030POPC   C1A51483  30.687  24.326   6.053
 4030POPC   D2A51484  30.914  24.279   6.449
 4030POPC   C3A51485  30.834  24.479   6.855
 4030POPC   C4A51486  30.888  24.298   7.258
 4030POPC   C1B51487  30.230  24.515   6.143
 4030POPC   C2B51488  30.411  24.455   6.531
 4030POPC   C3B51489  30.294  24.448   6.960
 4030POPC   C4B51490  30.433  24.449   7.405
 4031POPC   NC351491  23.362  34.034   5.410
 4031POPC   PO451492  23.970  33.781   5.480
 4031POPC   GL151493  23.874  33.565   5.856
 4031POPC   GL251494  24.197  33.343   5.930
 4031POPC   C1A51495  23.491  33.642   6.118
 4031POPC   D2A51496  23.482  33.665   6.583
 4031POPC   C3A51497  23.633  33.988   6.872
 4031POPC   C4A51498  23.327  33.942   7.158
 4031POPC   C1B51499  24.172  33.661   6.251
 4031POPC   C2B51500  24.015  33.680   6.690
 4031POPC   C3B51501  24.158  33.675   7.107
 4031POPC   C4B51502  24.073  33.599   7.543
 4032POPC   NC351503  32.249  32.922   5.117
 4032POPC   PO451504  32.041  32.798   5.646
 4032POPC   GL151505  32.304  32.993   5.903
 4032POPC   GL251506  32.289  33.307   5.724
 4032POPC   C1A51507  32.412  32.811   6.299
 4032POPC   D2A51508  32.350  33.011   6.680
 4032POPC   C3A51509  32.285  32.904   7.093
 4032POPC   C4A51510  32.517  33.039   7.395
 4032POPC   C1B51511  32.163  33.445   6.138
 4032POPC   C2B51512  32.046  33.400   6.562
 4032POPC   C3B51513  31.941  33.249   6.960
 4032POPC   C4B51514  32.053  33.315   7.379
 4033POPC   NC351515   3.805  14.689   5.439
 4033POPC   PO451516   4.503  14.483   5.417
 4033POPC   GL151517   4.471  14.429   5.825
 4033POPC   GL251518   4.396  14.774   5.848
 4033POPC   C1A51519   4.326  14.270   6.211
 4033POPC   D2A51520   4.180  14.123   6.592
 4033POPC   C3A51521   4.397  14.348   6.890
 4033POPC   C4A51522   4.361  14.349   7.295
 4033POPC   C1B51523   4.101  14.728   6.167
 4033POPC   C2B51524   4.102  14.666   6.618
 4033POPC   C3B51525   4.245  14.806   7.035
 4033POPC   C4B51526   4.395  14.789   7.485
 4034POPC   NC351527  37.389  33.342   5.443
 4034POPC   PO451528  37.674  32.700   5.372
 4034POPC   GL151529  37.741  32.915   5.789
 4034POPC   GL251530  38.023  33.154   5.752
 4034POPC   C1A51531  37.521  33.013   6.211
 4034POPC   D2A51532  37.500  33.275   6.604
 4034POPC   C3A51533  37.362  33.087   6.997
 4034POPC   C4A51534  37.473  33.114   7.459
 4034POPC   C1B51535  37.972  33.281   6.190
 4034POPC   C2B51536  37.978  33.097   6.615
 4034POPC   C3B51537  37.866  33.153   7.063
 4034POPC   C4B51538  37.969  33.198   7.509
 4035POPC   NC351539  40.080  21.250   5.363
 4035POPC   PO451540  39.541  21.181   5.117
 4035POPC   GL151541  39.704  21.446   5.638
 4035POPC   GL251542  39.948  21.223   5.829
 4035POPC   C1A51543  39.625  21.310   6.178
 4035POPC   D2A51544  39.504  21.354   6.584
 4035POPC   C3A51545  39.799  21.362   6.896
 4035POPC   C4A51546  39.687  21.515   7.307
 4035POPC   C1B51547  40.153  21.303   6.220
 4035POPC   C2B51548  40.277  21.182   6.602
 4035POPC   C3B51549  40.301  21.262   7.010
 4035POPC   C4B51550  40.389  21.099   7.404
 4036POPC   NC351551  12.506   0.610   5.111
 4036POPC   PO451552  12.093   0.220   5.492
 4036POPC   GL151553  12.147   0.350   5.948
 4036POPC   GL251554  11.956   0.654   5.922
 4036POPC   C1A51555  12.415   0.541   6.325
 4036POPC   D2A51556  12.296   0.780   6.728
 4036POPC   C3A51557  12.155   0.476   7.019
 4036POPC   C4A51558  12.339   0.074   7.122
 4036POPC   C1B51559  11.908   0.538   6.386
 4036POPC   C2B51560  11.733   0.718   6.749
 4036POPC   C3B51561  11.868   0.882   7.131
 4036POPC   C4B51562  12.194   0.837   7.438
 4037POPC   NC351563   7.838  21.844   5.405
 4037POPC   PO451564   8.299  21.436   5.396
 4037POPC   GL151565   8.419  21.403   5.824
 4037POPC   GL251566   8.058  21.269   5.846
 4037POPC   C1A51567   8.365  21.495   6.263
 4037POPC   D2A51568   8.080  21.369   6.605
 4037POPC   C3A51569   8.039  21.552   7.001
 4037POPC   C4A51570   7.728  21.790   7.176
 4037POPC   C1B51571   8.123  21.039   6.205
 4037POPC   C2B51572   8.036  20.857   6.610
 4037POPC   C3B51573   7.891  21.010   6.977
 4037POPC   C4B51574   8.201  20.947   7.215
 4038POPC   NC351575  38.345  17.576   5.385
 4038POPC   PO451576  38.994  17.313   5.569
 4038POPC   GL151577  38.631  17.486   5.810
 4038POPC   GL251578  38.411  17.810   5.816
 4038POPC   C1A51579  38.477  17.505   6.230
 4038POPC   D2A51580  38.312  17.239   6.564
 4038POPC   C3A51581  38.345  17.432   6.961
 4038POPC   C4A51582  38.068  17.612   7.229
 4038POPC   C1B51583  38.412  18.028   6.191
 4038POPC   C2B51584  38.322  17.928   6.610
 4038POPC   C3B51585  38.280  18.078   7.022
 4038POPC   C4B51586  38.552  17.817   7.236
 4039POPC   NC351587  13.132  21.996   5.467
 4039POPC   PO451588  13.844  22.010   5.513
 4039POPC   GL151589  13.508  22.162   5.772
 4039POPC   GL251590  13.442  21.861   5.869
 4039POPC   C1A51591  13.376  22.256   6.200
 4039POPC   D2A51592  13.714  22.341   6.505
 4039POPC   C3A51593  13.703  22.135   6.896
 4039POPC   C4A51594  13.484  22.224   7.268
 4039POPC   C1B51595  13.727  21.876   6.238
 4039POPC   C2B51596  13.953  21.708   6.609
 4039POPC   C3B51597  13.760  21.649   7.004
 4039POPC   C4B51598  13.314  21.768   7.128
 4040POPC   NC351599  39.127  16.960   5.292
 4040POPC   PO451600  39.361  16.394   5.716
 4040POPC   GL151601  39.080  16.542   6.011
 4040POPC   GL251602  39.004  16.225   6.141
 4040POPC   C1A51603  39.230  16.789   6.362
 4040POPC   D2A51604  39.429  17.173   6.556
 4040POPC   C3A51605  39.282  17.235   6.950
 4040POPC   C4A51606  39.100  16.932   7.204
 4040POPC   C1B51607  38.798  16.375   6.495
 4040POPC   C2B51608  38.987  16.637   6.801
 4040POPC   C3B51609  39.438  16.755   6.860
 4040POPC   C4B51610  39.611  16.708   7.266
 4041POPC   NC351611  28.753  16.574   5.366
 4041POPC   PO451612  29.312  16.913   5.261
 4041POPC   GL151613  29.374  16.999   5.692
 4041POPC   GL251614  29.411  16.646   5.772
 4041POPC   C1A51615  29.215  16.949   6.136
 4041POPC   D2A51616  29.002  16.999   6.539
 4041POPC   C3A51617  29.242  16.926   6.920
 4041POPC   C4A51618  29.140  16.822   7.369
 4041POPC   C1B51619  29.509  16.440   6.197
 4041POPC   C2B51620  29.357  16.354   6.628
 4041POPC   C3B51621  29.327  16.447   7.057
 4041POPC   C4B51622  29.621  16.723   7.231
 4042POPC   NC351623  10.933   8.429   5.354
 4042POPC   PO451624  11.642   8.321   5.162
 4042POPC   GL151625  11.364   8.159   5.585
 4042POPC   GL251626  11.114   8.383   5.831
 4042POPC   C1A51627  11.429   8.100   6.067
 4042POPC   D2A51628  11.228   8.116   6.464
 4042POPC   C3A51629  11.478   8.068   6.831
 4042POPC   C4A51630  11.391   8.298   7.191
 4042POPC   C1B51631  10.970   8.543   6.243
 4042POPC   C2B51632  10.854   8.429   6.670
 4042POPC   C3B51633  10.925   8.176   7.031
 4042POPC   C4B51634  10.845   8.253   7.475
 4043POPC   NC351635  21.630  15.313   5.412
 4043POPC   PO451636  21.108  14.908   5.180
 4043POPC   GL151637  21.203  15.039   5.602
 4043POPC   GL251638  21.050  15.316   5.806
 4043POPC   C1A51639  21.310  14.895   6.017
 4043POPC   D2A51640  21.521  15.004   6.428
 4043POPC   C3A51641  21.509  15.000   6.875
 4043POPC   C4A51642  21.539  15.205   7.289
 4043POPC   C1B51643  21.410  15.408   6.098
 4043POPC   C2B51644  21.426  15.491   6.547
 4043POPC   C3B51645  21.243  15.487   6.966
 4043POPC   C4B51646  21.375  15.676   7.387
 4044POPC   NC351647  22.066  27.270   5.410
 4044POPC   PO451648  22.294  27.911   5.424
 4044POPC   GL151649  22.167  27.775   5.828
 4044POPC   GL251650  22.251  27.440   5.846
 4044POPC   C1A51651  22.334  27.691   6.272
 4044POPC   D2A51652  22.590  27.708   6.648
 4044POPC   C3A51653  22.359  27.857   7.021
 4044POPC   C4A51654  21.962  27.743   7.198
 4044POPC   C1B51655  21.860  27.480   6.118
 4044POPC   C2B51656  21.906  27.504   6.572
 4044POPC   C3B51657  22.227  27.386   6.874
 4044POPC   C4B51658  22.280  27.319   7.320
 4045POPC   NC351659  28.960  40.324   5.348
 4045POPC   PO451660  29.376  39.758   5.500
 4045POPC   GL151661  29.463  39.897   5.877
 4045POPC   GL251662  29.320  40.224   5.830
 4045POPC   C1A51663  29.318  39.898   6.300
 4045POPC   D2A51664  29.306  39.840   6.732
 4045POPC   C3A51665  29.019  39.871   7.015
 4045POPC   C4A51666  29.217  40.011   7.317
 4045POPC   C1B51667  28.990  40.263   6.111
 4045POPC   C2B51668  28.981  40.477   6.518
 4045POPC   C3B51669  29.140  40.353   6.894
 4045POPC   C4B51670  29.058  40.508   7.276
 4046POPC   NC351671  24.557  23.180   5.373
 4046POPC   PO451672  24.596  22.505   5.180
 4046POPC   GL151673  24.503  22.674   5.670
 4046POPC   GL251674  24.673  22.957   5.820
 4046POPC   C1A51675  24.280  22.765   6.118
 4046POPC   D2A51676  24.235  23.096   6.478
 4046POPC   C3A51677  24.245  22.957   6.935
 4046POPC   C4A51678  24.507  22.754   7.247
 4046POPC   C1B51679  24.779  22.703   6.162
 4046POPC   C2B51680  24.750  22.958   6.532
 4046POPC   C3B51681  24.754  23.087   6.933
 4046POPC   C4B51682  24.559  23.262   7.267
 4047POPC   NC351683  25.864  36.738   5.312
 4047POPC   PO451684  26.321  37.231   5.370
 4047POPC   GL151685  26.109  36.976   5.696
 4047POPC   GL251686  26.038  36.584   5.762
 4047POPC   C1A51687  25.767  36.973   6.015
 4047POPC   D2A51688  25.681  36.811   6.451
 4047POPC   C3A51689  25.697  37.045   6.856
 4047POPC   C4A51690  25.838  36.866   7.265
 4047POPC   C1B51691  26.213  36.774   6.141
 4047POPC   C2B51692  26.302  36.649   6.541
 4047POPC   C3B51693  26.199  36.828   6.916
 4047POPC   C4B51694  26.338  36.722   7.331
 4048POPC   NC351695   7.492  29.261   5.371
 4048POPC   PO451696   7.310  28.632   5.347
 4048POPC   GL151697   7.443  28.915   5.773
 4048POPC   GL251698   7.300  29.262   5.828
 4048POPC   C1A51699   7.370  29.068   6.274
 4048POPC   D2A51700   7.410  29.307   6.674
 4048POPC   C3A51701   7.333  29.079   7.080
 4048POPC   C4A51702   7.427  28.943   7.514
 4048POPC   C1B51703   7.001  29.408   6.124
 4048POPC   C2B51704   7.044  29.639   6.466
 4048POPC   C3B51705   7.124  29.679   6.866
 4048POPC   C4B51706   7.125  29.536   7.245
 4049POPC   NC351707  34.719  23.537   5.688
 4049POPC   PO451708  34.323  23.992   5.380
 4049POPC   GL151709  34.480  24.060   5.778
 4049POPC   GL251710  34.850  24.031   5.789
 4049POPC   C1A51711  34.437  23.865   6.182
 4049POPC   D2A51712  34.552  23.599   6.509
 4049POPC   C3A51713  34.569  23.757   6.919
 4049POPC   C4A51714  34.325  23.983   7.197
 4049POPC   C1B51715  34.944  23.871   6.214
 4049POPC   C2B51716  35.186  23.861   6.562
 4049POPC   C3B51717  35.049  24.001   6.955
 4049POPC   C4B51718  34.965  23.711   7.259
 4050POPC   NC351719  14.643  31.096   5.295
 4050POPC   PO451720  14.311  30.390   5.392
 4050POPC   GL151721  14.397  30.683   5.777
 4050POPC   GL251722  14.725  30.856   5.743
 4050POPC   C1A51723  14.343  30.699   6.262
 4050POPC   D2A51724  14.344  30.519   6.709
 4050POPC   C3A51725  14.294  30.689   7.143
 4050POPC   C4A51726  13.980  30.652   7.490
 4050POPC   C1B51727  14.927  30.871   6.128
 4050POPC   C2B51728  14.759  30.823   6.513
 4050POPC   C3B51729  14.810  30.664   6.890
 4050POPC   C4B51730  14.804  30.870   7.267
 4051POPC   NC351731  23.529  27.264   5.456
 4051POPC   PO451732  24.132  27.452   5.545
 4051POPC   GL151733  23.826  27.609   5.834
 4051POPC   GL251734  23.829  27.983   5.780
 4051POPC   C1A51735  23.523  27.415   6.158
 4051POPC   D2A51736  23.466  27.189   6.569
 4051POPC   C3A51737  23.408  27.491   6.907
 4051POPC   C4A51738  23.761  27.533   7.174
 4051POPC   C1B51739  23.665  27.924   6.219
 4051POPC   C2B51740  23.747  27.776   6.654
 4051POPC   C3B51741  23.635  28.003   7.055
 4051POPC   C4B51742  23.489  27.845   7.489
 4052POPC   NC351743  31.304  26.440   5.464
 4052POPC   PO451744  31.516  27.020   5.354
 4052POPC   GL151745  31.526  26.783   5.786
 4052POPC   GL251746  31.782  26.962   5.921
 4052POPC   C1A51747  31.382  26.605   6.221
 4052POPC   D2A51748  31.356  26.760   6.677
 4052POPC   C3A51749  31.456  26.643   7.121
 4052POPC   C4A51750  31.138  26.809   7.436
 4052POPC   C1B51751  31.725  26.995   6.349
 4052POPC   C2B51752  31.858  26.825   6.718
 4052POPC   C3B51753  31.788  27.031   7.074
 4052POPC   C4B51754  31.607  27.098   7.441
 4053POPC   NC351755  33.563  27.097   5.353
 4053POPC   PO451756  34.179  26.797   5.422
 4053POPC   GL151757  33.855  26.765   5.730
 4053POPC   GL251758  33.777  27.084   5.818
 4053POPC   C1A51759  33.807  26.628   6.176
 4053POPC   D2A51760  33.571  26.519   6.566
 4053POPC   C3A51761  33.689  26.652   6.940
 4053POPC   C4A51762  34.019  26.633   7.216
 4053POPC   C1B51763  33.888  27.124   6.219
 4053POPC   C2B51764  33.816  27.025   6.609
 4053POPC   C3B51765  33.731  27.148   7.007
 4053POPC   C4B51766  33.613  26.933   7.355
 4054POPC   NC351767  18.852   1.322   5.610
 4054POPC   PO451768  19.479   1.165   5.264
 4054POPC   GL151769  19.349   1.194   5.702
 4054POPC   GL251770  19.290   1.555   5.752
 4054POPC   C1A51771  19.201   1.111   6.146
 4054POPC   D2A51772  19.288   1.074   6.587
 4054POPC   C3A51773  18.881   1.092   6.810
 4054POPC   C4A51774  18.803   0.993   7.228
 4054POPC   C1B51775  19.112   1.606   6.200
 4054POPC   C2B51776  19.098   1.553   6.658
 4054POPC   C3B51777  19.137   1.442   7.098
 4054POPC   C4B51778  19.256   1.692   7.434
 4055POPC   NC351779   8.158  14.074   5.399
 4055POPC   PO451780   8.448  14.736   5.523
 4055POPC   GL151781   8.199  14.410   5.811
 4055POPC   GL251782   7.908  14.193   5.848
 4055POPC   C1A51783   8.051  14.532   6.216
 4055POPC   D2A51784   8.317  14.717   6.526
 4055POPC   C3A51785   8.206  14.718   6.921
 4055POPC   C4A51786   8.202  14.577   7.307
 4055POPC   C1B51787   8.026  14.013   6.272
 4055POPC   C2B51788   8.152  14.218   6.631
 4055POPC   C3B51789   7.936  14.293   6.991
 4055POPC   C4B51790   8.036  14.081   7.343
 4056POPC   NC351791  43.639   8.501   5.524
 4056POPC   PO451792  43.699   7.943   5.170
 4056POPC   GL151793  43.930   8.088   5.625
 4056POPC   GL251794  44.155   7.876   5.787
 4056POPC   C1A51795  43.890   8.286   6.097
 4056POPC   D2A51796  43.935   8.271   6.561
 4056POPC   C3A51797  43.624   8.441   6.853
 4056POPC   C4A51798  43.285   8.587   7.077
 4056POPC   C1B51799  43.875   7.784   6.105
 4056POPC   C2B51800  43.956   7.713   6.519
 4056POPC   C3B51801  44.127   7.901   6.841
 4056POPC   C4B51802  43.870   8.053   7.146
 4057POPC   NC351803  40.190  33.669   5.623
 4057POPC   PO451804  39.653  33.952   5.510
 4057POPC   GL151805  39.912  34.029   5.855
 4057POPC   GL251806  39.792  33.666   5.945
 4057POPC   C1A51807  40.142  33.932   6.235
 4057POPC   D2A51808  40.171  33.605   6.543
 4057POPC   C3A51809  40.299  33.810   6.896
 4057POPC   C4A51810  40.118  33.880   7.264
 4057POPC   C1B51811  39.583  33.920   6.226
 4057POPC   C2B51812  39.771  34.037   6.598
 4057POPC   C3B51813  39.715  33.802   6.940
 4057POPC   C4B51814  39.554  33.863   7.318
 4058POPC   NC351815  22.000  17.747   5.579
 4058POPC   PO451816  22.432  17.246   5.476
 4058POPC   GL151817  22.181  17.334   5.831
 4058POPC   GL251818  22.370  17.606   5.925
 4058POPC   C1A51819  22.013  17.459   6.251
 4058POPC   D2A51820  22.173  17.230   6.611
 4058POPC   C3A51821  21.915  17.214   6.961
 4058POPC   C4A51822  21.938  17.456   7.326
 4058POPC   C1B51823  22.370  17.850   6.278
 4058POPC   C2B51824  22.490  17.724   6.653
 4058POPC   C3B51825  22.269  17.606   6.979
 4058POPC   C4B51826  22.257  17.886   7.316
 4059POPC   NC351827  29.224  40.976   5.156
 4059POPC   PO451828  29.424  40.399   5.209
 4059POPC   GL151829  29.306  40.692   5.600
 4059POPC   GL251830  29.115  41.035   5.672
 4059POPC   C1A51831  29.199  40.732   6.074
 4059POPC   D2A51832  29.387  40.790   6.488
 4059POPC   C3A51833  29.197  40.866   6.894
 4059POPC   C4A51834  29.327  40.934   7.333
 4059POPC   C1B51835  28.864  41.143   6.059
 4059POPC   C2B51836  28.864  41.012   6.486
 4059POPC   C3B51837  28.851  41.237   6.850
 4059POPC   C4B51838  28.837  41.045   7.242
 4060POPC   NC351839  43.935  33.431   5.300
 4060POPC   PO451840  43.924  34.106   5.532
 4060POPC   GL151841  43.839  33.698   5.761
 4060POPC   GL251842  43.637  33.896   6.006
 4060POPC   C1A51843  43.760  33.425   6.130
 4060POPC   D2A51844  43.600  33.603   6.503
 4060POPC   C3A51845  43.773  33.484   6.892
 4060POPC   C4A51846  43.907  33.648   7.289
 4060POPC   C1B51847  44.036  33.838   6.275
 4060POPC   C2B51848  44.134  33.859   6.746
 4060POPC   C3B51849  43.914  34.144   7.066
 4060POPC   C4B51850  43.610  34.469   7.290
 4061POPC   NC351851  25.029   4.216   5.626
 4061POPC   PO451852  25.617   4.421   5.438
 4061POPC   GL151853  25.416   4.453   5.850
 4061POPC   GL251854  25.352   4.089   5.980
 4061POPC   C1A51855  25.173   4.473   6.247
 4061POPC   D2A51856  25.357   4.261   6.569
 4061POPC   C3A51857  25.196   4.379   6.932
 4061POPC   C4A51858  24.967   4.114   7.231
 4061POPC   C1B51859  25.014   3.955   6.290
 4061POPC   C2B51860  25.071   3.881   6.758
 4061POPC   C3B51861  25.436   3.937   7.033
 4061POPC   C4B51862  25.464   3.985   7.489
 4062POPC   NC351863  34.939  22.993   5.357
 4062POPC   PO451864  34.315  22.828   5.527
 4062POPC   GL151865  34.632  23.017   5.788
 4062POPC   GL251866  34.800  22.707   5.776
 4062POPC   C1A51867  34.716  23.163   6.236
 4062POPC   D2A51868  34.384  23.103   6.541
 4062POPC   C3A51869  34.436  23.251   6.946
 4062POPC   C4A51870  34.212  23.114   7.307
 4062POPC   C1B51871  34.526  22.691   6.182
 4062POPC   C2B51872  34.607  22.655   6.641
 4062POPC   C3B51873  34.490  22.738   7.086
 4062POPC   C4B51874  34.809  22.710   7.413
 4063POPC   NC351875   0.484  38.584   5.237
 4063POPC   PO451876   0.116  38.162   5.520
 4063POPC   GL151877   0.360  38.548   5.755
 4063POPC   GL251878   0.126  38.809   5.886
 4063POPC   C1A51879   0.572  38.796   6.133
 4063POPC   D2A51880   0.691  38.629   6.557
 4063POPC   C3A51881   0.479  38.668   7.005
 4063POPC   C4A51882   0.465  38.404   7.432
 4063POPC   C1B51883   0.158  38.527   6.279
 4063POPC   C2B51884   0.187  38.348   6.722
 4063POPC   C3B51885   0.109  38.089   7.112
 4063POPC   C4B51886   0.294  37.905   7.477
 4064POPC   NC351887  11.686  35.422   5.452
 4064POPC   PO451888  11.147  34.996   5.316
 4064POPC   GL151889  11.226  35.281   5.703
 4064POPC   GL251890  11.278  35.644   5.688
 4064POPC   C1A51891  11.374  35.243   6.166
 4064POPC   D2A51892  11.497  35.191   6.618
 4064POPC   C3A51893  11.281  35.171   7.010
 4064POPC   C4A51894  11.276  35.046   7.467
 4064POPC   C1B51895  11.445  35.760   6.092
 4064POPC   C2B51896  11.475  35.929   6.498
 4064POPC   C3B51897  11.448  35.689   6.891
 4064POPC   C4B51898  11.258  35.611   7.282
 4065POPC   NC351899  44.804  21.559   5.376
 4065POPC   PO451900  44.394  21.082   5.479
 4065POPC   GL151901  44.600  21.320   5.808
 4065POPC   GL251902  44.923  21.172   5.720
 4065POPC   C1A51903  44.830  21.447   6.214
 4065POPC   D2A51904  44.943  21.575   6.665
 4065POPC   C3A51905  44.655  21.540   7.036
 4065POPC   C4A51906  44.504  21.171   7.284
 4065POPC   C1B51907  44.887  20.940   6.114
 4065POPC   C2B51908   0.051  21.054   6.538
 4065POPC   C3B51909  44.907  21.097   6.945
 4065POPC   C4B51910  44.983  21.275   7.357
 4066POPC   NC351911  15.357  11.798   5.272
 4066POPC   PO451912  15.149  12.349   5.355
 4066POPC   GL151913  15.134  12.183   5.749
 4066POPC   GL251914  15.420  11.982   5.784
 4066POPC   C1A51915  14.872  12.098   6.102
 4066POPC   D2A51916  14.927  11.910   6.514
 4066POPC   C3A51917  15.037  12.185   6.841
 4066POPC   C4A51918  14.909  11.959   7.189
 4066POPC   C1B51919  15.385  12.037   6.230
 4066POPC   C2B51920  15.460  11.976   6.660
 4066POPC   C3B51921  15.423  11.948   7.085
 4066POPC   C4B51922  15.442  11.638   7.380
 4067POPC   NC351923  13.168  29.841   5.252
 4067POPC   PO451924  12.551  29.831   5.352
 4067POPC   GL151925  12.706  29.785   5.778
 4067POPC   GL251926  13.037  30.002   5.787
 4067POPC   C1A51927  12.455  29.669   6.170
 4067POPC   D2A51928  12.456  29.550   6.616
 4067POPC   C3A51929  12.520  29.798   7.019
 4067POPC   C4A51930  12.748  29.732   7.411
 4067POPC   C1B51931  12.877  29.964   6.241
 4067POPC   C2B51932  12.906  29.838   6.678
 4067POPC   C3B51933  12.982  30.048   7.080
 4067POPC   C4B51934  12.899  30.225   7.527
 4068POPC   NC351935  41.349  18.628   5.419
 4068POPC   PO451936  41.229  18.017   5.397
 4068POPC   GL151937  41.577  18.224   5.658
 4068POPC   GL251938  41.463  18.501   5.897
 4068POPC   C1A51939  41.789  18.137   6.058
 4068POPC   D2A51940  41.585  18.034   6.446
 4068POPC   C3A51941  41.625  18.157   6.846
 4068POPC   C4A51942  41.826  17.997   7.184
 4068POPC   C1B51943  41.250  18.558   6.280
 4068POPC   C2B51944  41.304  18.744   6.681
 4068POPC   C3B51945  41.431  18.593   7.068
 4068POPC   C4B51946  41.350  18.462   7.485
 4069POPC   NC351947  28.823   8.326   5.219
 4069POPC   PO451948  29.403   7.990   5.308
 4069POPC   GL151949  29.169   8.126   5.654
 4069POPC   GL251950  28.842   8.285   5.705
 4069POPC   C1A51951  29.200   8.034   6.075
 4069POPC   D2A51952  29.185   8.289   6.443
 4069POPC   C3A51953  29.056   8.171   6.847
 4069POPC   C4A51954  29.222   8.441   7.136
 4069POPC   C1B51955  28.789   8.408   6.116
 4069POPC   C2B51956  28.650   8.304   6.528
 4069POPC   C3B51957  28.622   8.473   6.919
 4069POPC   C4B51958  28.750   8.348   7.315
 4070POPC   NC351959   2.307  42.094   5.543
 4070POPC   PO451960   1.929  41.482   5.455
 4070POPC   GL151961   2.155  41.605   5.823
 4070POPC   GL251962   2.429  41.393   5.884
 4070POPC   C1A51963   2.007  41.710   6.250
 4070POPC   D2A51964   2.187  41.861   6.642
 4070POPC   C3A51965   1.994  41.681   7.013
 4070POPC   C4A51966   2.220  41.789   7.368
 4070POPC   C1B51967   2.226  41.253   6.222
 4070POPC   C2B51968   2.146  41.342   6.630
 4070POPC   C3B51969   2.353  41.278   7.001
 4070POPC   C4B51970   2.250  41.280   7.428
 4071POPC   NC351971  23.405  19.713   5.277
 4071POPC   PO451972  24.061  19.870   5.309
 4071POPC   GL151973  23.766  19.822   5.673
 4071POPC   GL251974  23.680  20.179   5.733
 4071POPC   C1A51975  23.719  19.627   6.124
 4071POPC   D2A51976  23.814  19.776   6.560
 4071POPC   C3A51977  23.875  19.561   6.976
 4071POPC   C4A51978  23.681  19.681   7.389
 4071POPC   C1B51979  23.798  20.235   6.159
 4071POPC   C2B51980  23.651  20.252   6.574
 4071POPC   C3B51981  23.810  20.116   6.968
 4071POPC   C4B51982  23.618  20.248   7.336
 4072POPC   NC351983   5.500   2.406   5.430
 4072POPC   PO451984   5.176   2.956   5.440
 4072POPC   GL151985   5.131   2.682   5.813
 4072POPC   GL251986   5.482   2.689   5.873
 4072POPC   C1A51987   4.918   2.833   6.212
 4072POPC   D2A51988   4.884   2.905   6.650
 4072POPC   C3A51989   5.063   2.576   6.927
 4072POPC   C4A51990   5.065   2.641   7.366
 4072POPC   C1B51991   5.411   2.935   6.248
 4072POPC   C2B51992   5.406   2.876   6.686
 4072POPC   C3B51993   5.388   2.975   7.116
 4072POPC   C4B51994   5.423   2.956   7.567
 4073POPC   NC351995   1.145  43.158   5.345
 4073POPC   PO451996   1.637  42.925   5.478
 4073POPC   GL151997   1.271  42.932   5.803
 4073POPC   GL251998   0.995  43.208   5.822
 4073POPC   C1A51999   1.261  42.943   6.266
 4073POPC   D2A52000   1.183  43.130   6.688
 4073POPC   C3A52001   1.410  43.089   7.120
 4073POPC   C4A52002   1.567  43.043   7.557
 4073POPC   C1B52003   0.782  43.148   6.225
 4073POPC   C2B52004   0.685  43.307   6.639
 4073POPC   C3B52005   0.911  43.370   7.044
 4073POPC   C4B52006   1.108  43.716   7.309
 4074POPC   NC352007  28.250  24.875   5.013
 4074POPC   PO452008  28.446  24.408   5.444
 4074POPC   GL152009  28.271  24.508   5.794
 4074POPC   GL252010  28.365  24.841   5.789
 4074POPC   C1A52011  28.493  24.472   6.187
 4074POPC   D2A52012  28.565  24.655   6.587
 4074POPC   C3A52013  28.453  24.355   6.875
 4074POPC   C4A52014  28.559  24.316   7.278
 4074POPC   C1B52015  28.069  24.815   6.141
 4074POPC   C2B52016  28.081  24.559   6.507
 4074POPC   C3B52017  28.092  24.721   6.920
 4074POPC   C4B52018  27.881  24.891   7.272
 4075POPC   NC352019  43.271   1.074   5.447
 4075POPC   PO452020  42.844   1.515   5.351
 4075POPC   GL152021  43.076   1.461   5.775
 4075POPC   GL252022  43.265   1.173   5.938
 4075POPC   C1A52023  43.112   1.574   6.231
 4075POPC   D2A52024  43.187   1.495   6.687
 4075POPC   C3A52025  43.051   1.064   6.802
 4075POPC   C4A52026  42.940   0.867   7.185
 4075POPC   C1B52027  43.507   1.097   6.305
 4075POPC   C2B52028  43.570   0.910   6.713
 4075POPC   C3B52029  43.436   1.023   7.148
 4075POPC   C4B52030  43.319   0.777   7.552
 4076POPC   NC352031  44.155  24.626   5.388
 4076POPC   PO452032  43.664  24.114   5.442
 4076POPC   GL152033  43.895  24.391   5.774
 4076POPC   GL252034  43.671  24.272   6.033
 4076POPC   C1A52035  43.898  24.689   6.159
 4076POPC   D2A52036  43.772  24.536   6.563
 4076POPC   C3A52037  44.002  24.734   6.882
 4076POPC   C4A52038  43.873  24.846   7.256
 4076POPC   C1B52039  44.057  24.184   6.302
 4076POPC   C2B52040  44.142  24.243   6.770
 4076POPC   C3B52041  43.866  24.282   7.135
 4076POPC   C4B52042  43.929  24.143   7.581
 4077POPC   NC352043  26.603   8.458   5.493
 4077POPC   PO452044  27.079   8.000   5.532
 4077POPC   GL152045  26.897   8.207   5.852
 4077POPC   GL252046  26.523   8.142   5.883
 4077POPC   C1A52047  26.862   8.137   6.282
 4077POPC   D2A52048  26.548   8.039   6.618
 4077POPC   C3A52049  26.726   8.156   7.029
 4077POPC   C4A52050  27.032   8.036   7.320
 4077POPC   C1B52051  26.526   8.501   6.165
 4077POPC   C2B52052  26.699   8.523   6.587
 4077POPC   C3B52053  26.434   8.563   6.913
 4077POPC   C4B52054  26.404   8.465   7.328
 4078POPC   NC352055  22.755  44.860   5.637
 4078POPC   PO452056  22.943  44.239   5.424
 4078POPC   GL152057  23.091  44.499   5.815
 4078POPC   GL252058  23.160  44.906   5.902
 4078POPC   C1A52059  23.079  44.526   6.266
 4078POPC   D2A52060  23.261  44.636   6.653
 4078POPC   C3A52061  23.082  44.508   7.049
 4078POPC   C4A52062  22.853  44.478   7.464
 4078POPC   C1B52063  22.850  44.981   6.288
 4078POPC   C2B52064  22.868   0.013   6.747
 4078POPC   C3B52065  22.782  44.898   7.176
 4078POPC   C4B52066  22.921   0.058   7.596
 4079POPC   NC352067  30.453  30.974   5.513
 4079POPC   PO452068  29.825  31.247   5.394
 4079POPC   GL152069  29.980  31.415   5.792
 4079POPC   GL252070  30.293  31.639   5.802
 4079POPC   C1A52071  29.914  31.596   6.213
 4079POPC   D2A52072  29.868  31.871   6.544
 4079POPC   C3A52073  29.900  31.663   6.920
 4079POPC   C4A52074  29.750  31.631   7.300
 4079POPC   C1B52075  30.391  31.432   6.223
 4079POPC   C2B52076  30.165  31.361   6.622
 4079POPC   C3B52077  30.295  31.326   7.081
 4079POPC   C4B52078  30.430  30.981   7.403
 4080POPC   NC352079  32.120  19.793   5.487
 4080POPC   PO452080  32.496  20.241   5.299
 4080POPC   GL152081  32.353  20.165   5.742
 4080POPC   GL252082  32.513  19.842   5.870
 4080POPC   C1A52083  32.066  20.021   6.120
 4080POPC   D2A52084  31.837  19.911   6.506
 4080POPC   C3A52085  32.105  19.801   6.857
 4080POPC   C4A52086  31.922  19.809   7.258
 4080POPC   C1B52087  32.602  19.583   6.264
 4080POPC   C2B52088  32.460  19.463   6.714
 4080POPC   C3B52089  32.569  19.357   7.135
 4080POPC   C4B52090  32.736  19.580   7.529
 4081POPC   NC352091  15.473  39.213   5.437
 4081POPC   PO452092  14.832  39.413   5.525
 4081POPC   GL152093  15.094  39.112   5.751
 4081POPC   GL252094  15.384  39.292   5.918
 4081POPC   C1A52095  15.057  38.915   6.129
 4081POPC   D2A52096  14.819  38.925   6.509
 4081POPC   C3A52097  15.094  38.872   6.858
 4081POPC   C4A52098  15.050  38.983   7.267
 4081POPC   C1B52099  15.073  39.410   6.187
 4081POPC   C2B52100  15.303  39.182   6.510
 4081POPC   C3B52101  15.527  39.333   6.865
 4081POPC   C4B52102  15.358  39.535   7.247
 4082POPC   NC352103  28.179  32.617   5.405
 4082POPC   PO452104  28.418  33.218   5.541
 4082POPC   GL152105  28.267  32.917   5.860
 4082POPC   GL252106  28.508  32.614   5.824
 4082POPC   C1A52107  28.261  33.070   6.307
 4082POPC   D2A52108  28.424  33.341   6.663
 4082POPC   C3A52109  28.326  33.168   7.069
 4082POPC   C4A52110  27.990  32.881   7.239
 4082POPC   C1B52111  28.391  32.561   6.258
 4082POPC   C2B52112  28.435  32.716   6.691
 4082POPC   C3B52113  28.471  32.694   7.154
 4082POPC   C4B52114  28.552  32.984   7.511
 4083POPC   NC352115  11.538   0.805   5.271
 4083POPC   PO452116  11.280   1.336   5.494
 4083POPC   GL152117  11.339   1.245   5.905
 4083POPC   GL252118  11.495   0.911   5.784
 4083POPC   C1A52119  11.256   1.551   6.250
 4083POPC   D2A52120  11.066   1.502   6.671
 4083POPC   C3A52121  11.253   1.644   7.056
 4083POPC   C4A52122  11.409   1.398   7.396
 4083POPC   C1B52123  11.655   0.993   6.207
 4083POPC   C2B52124  11.408   1.120   6.538
 4083POPC   C3B52125  11.469   1.144   6.959
 4083POPC   C4B52126  11.381   0.867   7.340
 4084POPC   NC352127  30.285  18.371   5.446
 4084POPC   PO452128  29.671  18.572   5.199
 4084POPC   GL152129  29.645  18.317   5.704
 4084POPC   GL252130  30.024  18.187   5.841
 4084POPC   C1A52131  29.678  18.372   6.189
 4084POPC   D2A52132  29.623  18.137   6.597
 4084POPC   C3A52133  29.585  18.265   7.047
 4084POPC   C4A52134  29.689  18.517   7.434
 4084POPC   C1B52135  30.174  18.410   6.240
 4084POPC   C2B52136  30.082  18.329   6.660
 4084POPC   C3B52137  30.070  18.467   7.077
 4084POPC   C4B52138  30.196  18.283   7.450
 4085POPC   NC352139  35.961   6.535   5.109
 4085POPC   PO452140  36.384   6.921   5.459
 4085POPC   GL152141  36.107   6.911   5.839
 4085POPC   GL252142  35.802   7.094   5.866
 4085POPC   C1A52143  36.153   6.655   6.233
 4085POPC   D2A52144  36.096   6.341   6.578
 4085POPC   C3A52145  36.133   6.573   6.962
 4085POPC   C4A52146  36.192   6.670   7.424
 4085POPC   C1B52147  35.840   7.058   6.280
 4085POPC   C2B52148  36.071   7.047   6.646
 4085POPC   C3B52149  35.947   7.015   7.067
 4085POPC   C4B52150  35.709   6.713   7.287
 4086POPC   NC352151  21.306  17.694   5.236
 4086POPC   PO452152  21.684  17.289   5.631
 4086POPC   GL152153  21.566  17.590   5.893
 4086POPC   GL252154  21.240  17.564   5.782
 4086POPC   C1A52155  21.524  17.616   6.345
 4086POPC   D2A52156  21.787  17.674   6.702
 4086POPC   C3A52157  21.522  17.526   7.019
 4086POPC   C4A52158  21.442  17.731   7.345
 4086POPC   C1B52159  21.078  17.396   6.198
 4086POPC   C2B52160  21.020  17.505   6.660
 4086POPC   C3B52161  21.048  17.323   7.097
 4086POPC   C4B52162  21.073  17.468   7.536
 4087POPC   NC352163  26.075  10.427   5.048
 4087POPC   PO452164  25.843  10.666   5.582
 4087POPC   GL152165  25.958  10.655   5.978
 4087POPC   GL252166  26.190  10.400   5.890
 4087POPC   C1A52167  25.993  10.387   6.352
 4087POPC   D2A52168  26.204  10.488   6.677
 4087POPC   C3A52169  25.999  10.614   7.006
 4087POPC   C4A52170  26.101  10.353   7.293
 4087POPC   C1B52171  26.420  10.695   6.201
 4087POPC   C2B52172  26.574  10.857   6.602
 4087POPC   C3B52173  26.518  10.693   7.063
 4087POPC   C4B52174  26.445  10.636   7.532
 4088POPC   NC352175   6.634  15.210   5.470
 4088POPC   PO452176   6.848  14.606   5.480
 4088POPC   GL152177   6.610  14.819   5.845
 4088POPC   GL252178   6.776  15.142   5.942
 4088POPC   C1A52179   6.526  14.938   6.325
 4088POPC   D2A52180   6.742  15.158   6.649
 4088POPC   C3A52181   6.417  15.370   6.919
 4088POPC   C4A52182   6.209  15.162   7.274
 4088POPC   C1B52183   6.968  15.427   6.217
 4088POPC   C2B52184   6.919  15.648   6.592
 4088POPC   C3B52185   6.939  15.475   7.030
 4088POPC   C4B52186   6.635  15.417   7.388
 4089POPC   NC352187  21.188   4.753   5.468
 4089POPC   PO452188  21.482   5.357   5.383
 4089POPC   GL152189  21.392   5.211   5.792
 4089POPC   GL252190  21.438   4.857   5.894
 4089POPC   C1A52191  21.295   5.235   6.218
 4089POPC   D2A52192  21.478   5.033   6.555
 4089POPC   C3A52193  21.329   5.171   6.959
 4089POPC   C4A52194  21.531   5.018   7.321
 4089POPC   C1B52195  21.081   4.778   6.198
 4089POPC   C2B52196  20.977   5.004   6.595
 4089POPC   C3B52197  20.995   4.757   6.993
 4089POPC   C4B52198  21.145   4.728   7.402
 4090POPC   NC352199  33.878  39.685   5.327
 4090POPC   PO452200  33.457  40.124   5.329
 4090POPC   GL152201  33.599  39.942   5.733
 4090POPC   GL252202  33.443  39.638   5.674
 4090POPC   C1A52203  33.809  40.035   6.165
 4090POPC   D2A52204  33.708  40.274   6.567
 4090POPC   C3A52205  33.808  40.053   6.918
 4090POPC   C4A52206  33.808  40.055   7.299
 4090POPC   C1B52207  33.454  39.650   6.143
 4090POPC   C2B52208  33.592  39.761   6.574
 4090POPC   C3B52209  33.426  39.744   7.057
 4090POPC   C4B52210  33.479  39.730   7.546
 4091POPC   NC352211  38.788  32.288   5.275
 4091POPC   PO452212  39.373  32.136   5.463
 4091POPC   GL152213  39.188  32.187   5.803
 4091POPC   GL252214  38.978  32.431   5.743
 4091POPC   C1A52215  39.144  32.043   6.183
 4091POPC   D2A52216  39.227  31.790   6.521
 4091POPC   C3A52217  39.229  31.988   6.905
 4091POPC   C4A52218  39.190  32.180   7.330
 4091POPC   C1B52219  39.206  32.568   6.141
 4091POPC   C2B52220  39.283  32.361   6.546
 4091POPC   C3B52221  39.111  32.470   6.916
 4091POPC   C4B52222  39.144  32.703   7.242
 4092POPC   NC352223  29.717  38.061   5.337
 4092POPC   PO452224  30.217  37.645   5.286
 4092POPC   GL152225  30.136  37.646   5.723
 4092POPC   GL252226  29.797  37.768   5.781
 4092POPC   C1A52227  30.055  37.414   6.117
 4092POPC   D2A52228  29.961  37.303   6.578
 4092POPC   C3A52229  30.124  37.538   6.928
 4092POPC   C4A52230  30.145  37.977   7.133
 4092POPC   C1B52231  29.557  37.927   6.168
 4092POPC   C2B52232  29.389  37.943   6.603
 4092POPC   C3B52233  29.686  37.833   6.909
 4092POPC   C4B52234  29.699  37.531   7.240
 4093POPC   NC352235   3.896  35.409   5.374
 4093POPC   PO452236   3.195  35.323   5.306
 4093POPC   GL152237   3.283  35.504   5.715
 4093POPC   GL252238   3.622  35.448   5.794
 4093POPC   C1A52239   3.256  35.430   6.171
 4093POPC   D2A52240   3.425  35.251   6.559
 4093POPC   C3A52241   3.719  35.101   6.869
 4093POPC   C4A52242   3.517  35.168   7.277
 4093POPC   C1B52243   3.764  35.584   6.198
 4093POPC   C2B52244   3.641  35.762   6.589
 4093POPC   C3B52245   3.640  35.600   6.977
 4093POPC   C4B52246   3.914  35.570   7.285
 4094POPC   NC352247  40.414  39.866   5.514
 4094POPC   PO452248  40.774  39.263   5.275
 4094POPC   GL152249  40.773  39.373   5.729
 4094POPC   GL252250  40.489  39.218   5.788
 4094POPC   C1A52251  40.914  39.382   6.185
 4094POPC   D2A52252  41.121  39.354   6.575
 4094POPC   C3A52253  40.954  39.453   6.968
 4094POPC   C4A52254  40.945  39.691   7.343
 4094POPC   C1B52255  40.398  39.388   6.159
 4094POPC   C2B52256  40.462  39.229   6.556
 4094POPC   C3B52257  40.438  39.409   6.948
 4094POPC   C4B52258  40.597  39.329   7.329
 4095POPC   NC352259  24.592  17.507   5.174
 4095POPC   PO452260  24.434  17.832   5.714
 4095POPC   GL152261  24.460  17.521   6.011
 4095POPC   GL252262  24.275  17.162   6.039
 4095POPC   C1A52263  24.614  17.763   6.364
 4095POPC   D2A52264  24.842  17.969   6.709
 4095POPC   C3A52265  24.886  17.723   7.065
 4095POPC   C4A52266  24.542  17.712   7.254
 4095POPC   C1B52267  24.487  17.238   6.433
 4095POPC   C2B52268  24.408  17.504   6.773
 4095POPC   C3B52269  24.302  17.302   7.118
 4095POPC   C4B52270  24.536  17.226   7.461
 4096POPC   NC352271   3.925  26.841   5.432
 4096POPC   PO452272   4.642  26.944   5.531
 4096POPC   GL152273   4.490  26.869   5.915
 4096POPC   GL252274   4.162  26.687   5.881
 4096POPC   C1A52275   4.234  27.006   6.267
 4096POPC   D2A52276   4.038  26.840   6.620
 4096POPC   C3A52277   4.287  27.045   6.921
 4096POPC   C4A52278   4.297  26.988   7.351
 4096POPC   C1B52279   4.360  26.497   6.235
 4096POPC   C2B52280   4.475  26.562   6.651
 4096POPC   C3B52281   4.231  26.549   7.030
 4096POPC   C4B52282   4.256  26.220   7.298
 4097POPC   NC352283  20.656  10.139   5.059
 4097POPC   PO452284  20.788  10.633   5.465
 4097POPC   GL152285  20.700  10.546   5.876
 4097POPC   GL252286  21.034  10.426   5.995
 4097POPC   C1A52287  20.365  10.484   6.196
 4097POPC   D2A52288  20.517  10.420   6.597
 4097POPC   C3A52289  20.224  10.509   6.881
 4097POPC   C4A52290  20.328  10.638   7.237
 4097POPC   C1B52291  20.944  10.692   6.321
 4097POPC   C2B52292  20.793  10.852   6.704
 4097POPC   C3B52293  20.798  10.617   7.055
 4097POPC   C4B52294  21.110  10.587   7.373
 4098POPC   NC352295  39.680  32.355   5.722
 4098POPC   PO452296  40.296  32.395   5.443
 4098POPC   GL152297  40.158  32.106   5.796
 4098POPC   GL252298  39.797  31.910   5.880
 4098POPC   C1A52299  40.158  32.217   6.228
 4098POPC   D2A52300  40.128  32.044   6.617
 4098POPC   C3A52301  40.170  32.262   6.968
 4098POPC   C4A52302  40.049  32.500   7.308
 4098POPC   C1B52303  39.664  32.107   6.311
 4098POPC   C2B52304  39.782  32.436   6.639
 4098POPC   C3B52305  39.629  32.322   7.052
 4098POPC   C4B52306  39.614  31.875   7.193
 4099POPC   NC352307   9.877  24.113   5.539
 4099POPC   PO452308   9.755  23.415   5.499
 4099POPC   GL152309   9.606  23.629   5.861
 4099POPC   GL252310   9.531  24.002   5.898
 4099POPC   C1A52311   9.527  23.651   6.292
 4099POPC   D2A52312   9.460  24.004   6.563
 4099POPC   C3A52313   9.595  23.846   6.981
 4099POPC   C4A52314   9.878  23.566   7.166
 4099POPC   C1B52315   9.946  23.912   6.142
 4099POPC   C2B52316   9.968  23.819   6.563
 4099POPC   C3B52317  10.127  23.936   6.927
 4099POPC   C4B52318  10.309  23.835   7.295
 4100POPC   NC352319  43.184   1.942   5.312
 4100POPC   PO452320  42.466   2.016   5.300
 4100POPC   GL152321  42.818   2.024   5.668
 4100POPC   GL252322  43.175   1.966   5.809
 4100POPC   C1A52323  42.811   2.134   6.131
 4100POPC   D2A52324  42.937   1.963   6.527
 4100POPC   C3A52325  42.769   2.102   6.916
 4100POPC   C4A52326  42.786   1.815   7.251
 4100POPC   C1B52327  43.361   2.017   6.208
 4100POPC   C2B52328  43.410   2.047   6.649
 4100POPC   C3B52329  43.246   1.913   7.025
 4100POPC   C4B52330  43.416   2.202   7.290
 4101POPC   NC352331  29.028  43.167   5.316
 4101POPC   PO452332  29.659  43.176   5.388
 4101POPC   GL152333  29.359  43.348   5.729
 4101POPC   GL252334  29.073  43.096   5.815
 4101POPC   C1A52335  29.247  43.373   6.205
 4101POPC   D2A52336  29.255  43.089   6.598
 4101POPC   C3A52337  29.313  43.245   7.052
 4101POPC   C4A52338  29.371  42.851   7.376
 4101POPC   C1B52339  28.922  42.903   6.202
 4101POPC   C2B52340  28.754  42.859   6.616
 4101POPC   C3B52341  28.974  42.883   6.985
 4101POPC   C4B52342  28.909  43.071   7.355
 4102POPC   NC352343  15.632  21.599   5.121
 4102POPC   PO452344  15.057  21.479   5.485
 4102POPC   GL152345  15.113  21.445   5.879
 4102POPC   GL252346  15.374  21.185   5.820
 4102POPC   C1A52347  15.332  21.489   6.264
 4102POPC   D2A52348  15.299  21.457   6.691
 4102POPC   C3A52349  14.995  21.604   6.976
 4102POPC   C4A52350  15.141  21.499   7.377
 4102POPC   C1B52351  15.112  21.024   6.153
 4102POPC   C2B52352  15.158  20.943   6.584
 4102POPC   C3B52353  15.130  21.091   7.015
 4102POPC   C4B52354  15.311  21.015   7.388
 4103POPC   NC352355   2.493   5.757   5.648
 4103POPC   PO452356   3.025   6.090   5.585
 4103POPC   GL152357   2.934   5.889   5.976
 4103POPC   GL252358   3.117   5.587   6.104
 4103POPC   C1A52359   2.732   6.076   6.314
 4103POPC   D2A52360   2.725   6.060   6.745
 4103POPC   C3A52361   2.903   5.771   6.955
 4103POPC   C4A52362   2.839   5.962   7.299
 4103POPC   C1B52363   2.828   5.574   6.459
 4103POPC   C2B52364   2.471   5.566   6.728
 4103POPC   C3B52365   2.468   5.472   7.165
 4103POPC   C4B52366   2.795   5.465   7.440
 4104POPC   NC352367  41.147   0.072   5.384
 4104POPC   PO452368  41.102   0.745   5.519
 4104POPC   GL152369  40.850   0.532   5.835
 4104POPC   GL252370  40.731   0.210   5.781
 4104POPC   C1A52371  41.026   0.584   6.235
 4104POPC   D2A52372  40.897   0.819   6.621
 4104POPC   C3A52373  40.665   0.599   6.919
 4104POPC   C4A52374  40.836   0.649   7.262
 4104POPC   C1B52375  40.608   0.303   6.248
 4104POPC   C2B52376  40.917   0.279   6.618
 4104POPC   C3B52377  40.921   0.163   7.059
 4104POPC   C4B52378  40.545   0.180   7.341
 4105POPC   NC352379   2.996  37.524   5.417
 4105POPC   PO452380   2.603  38.123   5.361
 4105POPC   GL152381   2.773  37.917   5.724
 4105POPC   GL252382   2.545  37.625   5.770
 4105POPC   C1A52383   2.890  37.788   6.148
 4105POPC   D2A52384   2.704  37.843   6.595
 4105POPC   C3A52385   2.740  37.704   7.038
 4105POPC   C4A52386   2.551  37.780   7.474
 4105POPC   C1B52387   2.526  37.406   6.200
 4105POPC   C2B52388   2.595  37.263   6.655
 4105POPC   C3B52389   2.492  37.250   7.130
 4105POPC   C4B52390   2.331  37.269   7.600
 4106POPC   NC352391  36.662  41.367   5.385
 4106POPC   PO452392  36.919  41.997   5.307
 4106POPC   GL152393  36.901  41.979   5.750
 4106POPC   GL252394  36.858  41.627   5.767
 4106POPC   C1A52395  37.003  41.831   6.204
 4106POPC   D2A52396  36.851  41.650   6.604
 4106POPC   C3A52397  37.017  41.513   7.003
 4106POPC   C4A52398  36.868  41.732   7.355
 4106POPC   C1B52399  36.724  41.392   6.139
 4106POPC   C2B52400  36.756  41.163   6.524
 4106POPC   C3B52401  36.579  41.274   6.929
 4106POPC   C4B52402  36.708  41.248   7.353
 4107POPC   NC352403  27.335  25.970   5.606
 4107POPC   PO452404  27.883  26.305   5.509
 4107POPC   GL152405  27.683  26.140   5.904
 4107POPC   GL252406  27.667  25.755   5.934
 4107POPC   C1A52407  27.632  26.102   6.317
 4107POPC   D2A52408  27.387  26.277   6.585
 4107POPC   C3A52409  27.550  26.211   6.960
 4107POPC   C4A52410  27.439  26.132   7.359
 4107POPC   C1B52411  27.289  25.752   6.219
 4107POPC   C2B52412  27.288  25.777   6.662
 4107POPC   C3B52413  27.299  25.729   7.094
 4107POPC   C4B52414  27.374  25.641   7.550
 4108POPC   NC352415   8.735  11.964   5.507
 4108POPC   PO452416   9.248  12.344   5.501
 4108POPC   GL152417   9.134  12.086   5.881
 4108POPC   GL252418   8.831  11.875   5.995
 4108POPC   C1A52419   9.111  12.239   6.324
 4108POPC   D2A52420   8.937  12.364   6.749
 4108POPC   C3A52421   9.188  12.170   7.065
 4108POPC   C4A52422   9.072  11.858   7.368
 4108POPC   C1B52423   8.676  12.328   6.075
 4108POPC   C2B52424   8.492  12.432   6.478
 4108POPC   C3B52425   8.447  12.144   6.799
 4108POPC   C4B52426   8.683  12.132   7.182
 4109POPC   NC352427  11.829  21.233   5.386
 4109POPC   PO452428  12.423  21.484   5.575
 4109POPC   GL152429  12.372  21.254   5.913
 4109POPC   GL252430  12.268  20.979   5.706
 4109POPC   C1A52431  12.198  21.369   6.330
 4109POPC   D2A52432  11.772  21.350   6.516
 4109POPC   C3A52433  11.790  21.431   6.945
 4109POPC   C4A52434  12.231  21.500   7.084
 4109POPC   C1B52435  11.955  21.012   6.054
 4109POPC   C2B52436  11.997  20.902   6.487
 4109POPC   C3B52437  12.109  21.050   6.832
 4109POPC   C4B52438  12.091  21.014   7.243
 4110POPC   NC352439  15.657  12.866   5.145
 4110POPC   PO452440  15.124  12.905   5.439
 4110POPC   GL152441  15.162  12.704   5.782
 4110POPC   GL252442  15.492  12.828   5.824
 4110POPC   C1A52443  14.941  12.842   6.154
 4110POPC   D2A52444  15.072  13.014   6.545
 4110POPC   C3A52445  14.989  12.739   6.894
 4110POPC   C4A52446  15.065  12.843   7.312
 4110POPC   C1B52447  15.426  13.128   6.161
 4110POPC   C2B52448  15.551  13.220   6.573
 4110POPC   C3B52449  15.464  12.926   6.880
 4110POPC   C4B52450  15.591  12.943   7.264
 4111POPC   NC352451  43.913  43.502   5.102
 4111POPC   PO452452  43.721  43.847   5.593
 4111POPC   GL152453  44.018  43.992   5.888
 4111POPC   GL252454  43.751  44.156   6.049
 4111POPC   C1A52455  44.193  44.165   6.299
 4111POPC   D2A52456  43.993  44.294   6.661
 4111POPC   C3A52457  43.863  43.959   6.901
 4111POPC   C4A52458  44.019  43.676   7.162
 4111POPC   C1B52459  43.563  43.759   6.185
 4111POPC   C2B52460  43.657  43.619   6.551
 4111POPC   C3B52461  43.511  43.546   6.904
 4111POPC   C4B52462  43.493  43.718   7.269
 4112POPC   NC352463  42.653  25.083   5.313
 4112POPC   PO452464  42.062  25.411   5.297
 4112POPC   GL152465  42.270  25.186   5.674
 4112POPC   GL252466  42.535  25.320   5.745
 4112POPC   C1A52467  42.355  25.018   6.114
 4112POPC   D2A52468  42.464  25.231   6.510
 4112POPC   C3A52469  42.288  25.209   6.916
 4112POPC   C4A52470  42.376  25.017   7.287
 4112POPC   C1B52471  42.557  25.610   6.076
 4112POPC   C2B52472  42.396  25.719   6.459
 4112POPC   C3B52473  42.514  25.689   6.885
 4112POPC   C4B52474  42.546  25.523   7.290
 4113POPC   NC352475  41.713  12.795   5.269
 4113POPC   PO452476  41.317  12.602   5.735
 4113POPC   GL152477  41.760  12.653   5.780
 4113POPC   GL252478  41.817  13.022   5.728
 4113POPC   C1A52479  41.877  12.680   6.211
 4113POPC   D2A52480  41.638  12.873   6.567
 4113POPC   C3A52481  41.622  12.729   7.007
 4113POPC   C4A52482  41.764  12.663   7.449
 4113POPC   C1B52483  41.565  13.138   6.099
 4113POPC   C2B52484  41.462  13.356   6.504
 4113POPC   C3B52485  41.419  13.217   6.935
 4113POPC   C4B52486  41.280  13.118   7.346
 4114POPC   NC352487  23.060  34.914   5.521
 4114POPC   PO452488  22.872  34.273   5.454
 4114POPC   GL152489  22.713  34.442   5.832
 4114POPC   GL252490  22.633  34.772   5.771
 4114POPC   C1A52491  22.753  34.621   6.254
 4114POPC   D2A52492  23.034  34.694   6.588
 4114POPC   C3A52493  22.833  34.590   6.982
 4114POPC   C4A52494  23.054  34.735   7.376
 4114POPC   C1B52495  22.628  35.083   6.109
 4114POPC   C2B52496  22.635  35.049   6.549
 4114POPC   C3B52497  22.867  35.084   6.924
 4114POPC   C4B52498  22.569  34.964   7.218
 4115POPC   NC352499  37.076  32.031   5.092
 4115POPC   PO452500  36.698  32.485   5.345
 4115POPC   GL152501  36.639  32.203   5.684
 4115POPC   GL252502  36.975  32.056   5.718
 4115POPC   C1A52503  36.667  32.308   6.126
 4115POPC   D2A52504  36.869  32.402   6.522
 4115POPC   C3A52505  36.704  32.189   6.855
 4115POPC   C4A52506  36.516  32.110   7.236
 4115POPC   C1B52507  37.190  32.212   6.115
 4115POPC   C2B52508  37.358  32.239   6.531
 4115POPC   C3B52509  37.257  32.077   6.917
 4115POPC   C4B52510  37.254  32.137   7.335
 4116POPC   NC352511  24.488  28.638   5.469
 4116POPC   PO452512  24.851  28.093   5.657
 4116POPC   GL152513  24.547  28.332   5.855
 4116POPC   GL252514  24.265  28.184   5.956
 4116POPC   C1A52515  24.382  28.647   6.136
 4116POPC   D2A52516  24.302  28.452   6.515
 4116POPC   C3A52517  24.581  28.318   6.830
 4116POPC   C4A52518  24.433  28.510   7.230
 4116POPC   C1B52519  24.165  27.979   6.348
 4116POPC   C2B52520  24.195  27.979   6.824
 4116POPC   C3B52521  24.124  27.906   7.265
 4116POPC   C4B52522  24.252  28.174   7.650
 4117POPC   NC352523  23.087  26.023   5.395
 4117POPC   PO452524  23.722  25.900   5.261
 4117POPC   GL152525  23.790  25.976   5.734
 4117POPC   GL252526  24.122  26.124   5.850
 4117POPC   C1A52527  23.655  26.179   6.117
 4117POPC   D2A52528  23.536  26.023   6.502
 4117POPC   C3A52529  23.373  26.238   6.830
 4117POPC   C4A52530  23.310  26.063   7.220
 4117POPC   C1B52531  24.189  25.989   6.292
 4117POPC   C2B52532  24.437  25.981   6.687
 4117POPC   C3B52533  24.227  26.068   7.026
 4117POPC   C4B52534  23.775  25.965   7.051
 4118POPC   NC352535  20.696  22.653   5.277
 4118POPC   PO452536  20.338  22.146   5.301
 4118POPC   GL152537  20.546  22.247   5.731
 4118POPC   GL252538  20.831  22.506   5.763
 4118POPC   C1A52539  20.599  22.006   6.150
 4118POPC   D2A52540  20.436  21.867   6.576
 4118POPC   C3A52541  20.760  21.831   6.912
 4118POPC   C4A52542  20.723  21.958   7.338
 4118POPC   C1B52543  20.628  22.522   6.163
 4118POPC   C2B52544  20.689  22.335   6.545
 4118POPC   C3B52545  20.548  22.277   6.922
 4118POPC   C4B52546  20.485  22.454   7.300
 4119POPC   NC352547  28.754   6.821   5.400
 4119POPC   PO452548  28.299   6.373   5.295
 4119POPC   GL152549  28.547   6.479   5.725
 4119POPC   GL252550  28.495   6.270   6.066
 4119POPC   C1A52551  28.488   6.774   6.106
 4119POPC   D2A52552  28.588   6.559   6.512
 4119POPC   C3A52553  28.730   6.665   6.891
 4119POPC   C4A52554  28.665   6.746   7.285
 4119POPC   C1B52555  28.115   6.486   6.342
 4119POPC   C2B52556  28.133   6.660   6.749
 4119POPC   C3B52557  28.223   6.531   7.142
 4119POPC   C4B52558  28.415   6.194   7.340
 4120POPC   NC352559   6.438  30.239   5.316
 4120POPC   PO452560   6.889  29.855   5.578
 4120POPC   GL152561   6.731  29.816   5.976
 4120POPC   GL252562   6.388  29.946   5.917
 4120POPC   C1A52563   6.571  29.780   6.370
 4120POPC   D2A52564   6.540  30.071   6.701
 4120POPC   C3A52565   6.712  29.903   7.064
 4120POPC   C4A52566   6.975  30.009   7.383
 4120POPC   C1B52567   6.668  30.261   6.184
 4120POPC   C2B52568   6.688  30.531   6.516
 4120POPC   C3B52569   6.829  30.450   6.938
 4120POPC   C4B52570   6.534  30.345   7.228
 4121POPC   NC352571   4.109   9.886   5.219
 4121POPC   PO452572   4.416   9.351   5.264
 4121POPC   GL152573   4.474   9.648   5.602
 4121POPC   GL252574   4.134   9.640   5.717
 4121POPC   C1A52575   4.477   9.829   6.048
 4121POPC   D2A52576   4.417   9.664   6.483
 4121POPC   C3A52577   4.569   9.869   6.843
 4121POPC   C4A52578   4.399   9.714   7.220
 4121POPC   C1B52579   3.967   9.887   6.067
 4121POPC   C2B52580   4.098  10.091   6.439
 4121POPC   C3B52581   4.071  10.005   6.880
 4121POPC   C4B52582   3.895   9.905   7.274
 4122POPC   NC352583  13.095  33.143   5.440
 4122POPC   PO452584  12.548  32.805   5.223
 4122POPC   GL152585  12.717  32.818   5.663
 4122POPC   GL252586  12.822  33.099   5.877
 4122POPC   C1A52587  12.535  32.747   6.099
 4122POPC   D2A52588  12.755  32.917   6.455
 4122POPC   C3A52589  12.588  32.845   6.869
 4122POPC   C4A52590  12.846  32.800   7.242
 4122POPC   C1B52591  12.890  33.433   6.170
 4122POPC   C2B52592  13.035  33.443   6.578
 4122POPC   C3B52593  13.007  33.144   6.869
 4122POPC   C4B52594  12.770  33.316   7.201
 4123POPC   NC352595  28.806  11.674   5.323
 4123POPC   PO452596  29.288  11.219   5.346
 4123POPC   GL152597  29.231  11.155   5.770
 4123POPC   GL252598  29.174  11.500   5.817
 4123POPC   C1A52599  28.996  11.144   6.169
 4123POPC   D2A52600  28.807  11.156   6.591
 4123POPC   C3A52601  29.042  11.111   6.949
 4123POPC   C4A52602  29.055  11.178   7.355
 4123POPC   C1B52603  29.167  11.628   6.225
 4123POPC   C2B52604  29.489  11.717   6.499
 4123POPC   C3B52605  29.337  11.741   6.891
 4123POPC   C4B52606  29.377  11.549   7.266
 4124POPC   NC352607   1.403  42.518   5.503
 4124POPC   PO452608   1.070  41.978   5.330
 4124POPC   GL152609   1.171  42.119   5.766
 4124POPC   GL252610   1.045  42.445   5.865
 4124POPC   C1A52611   1.325  42.214   6.210
 4124POPC   D2A52612   1.171  42.363   6.629
 4124POPC   C3A52613   1.208  42.055   6.979
 4124POPC   C4A52614   1.553  41.922   7.191
 4124POPC   C1B52615   0.891  42.595   6.253
 4124POPC   C2B52616   0.794  42.788   6.649
 4124POPC   C3B52617   0.971  42.840   7.061
 4124POPC   C4B52618   1.349  42.553   7.097
 4125POPC   NC352619  40.298  37.540   5.581
 4125POPC   PO452620  39.870  37.915   5.210
 4125POPC   GL152621  39.840  37.787   5.704
 4125POPC   GL252622  39.816  37.465   5.887
 4125POPC   C1A52623  39.961  37.914   6.169
 4125POPC   D2A52624  40.259  38.014   6.553
 4125POPC   C3A52625  40.137  37.889   6.976
 4125POPC   C4A52626  39.698  37.717   7.007
 4125POPC   C1B52627  40.104  37.432   6.218
 4125POPC   C2B52628  40.002  37.561   6.605
 4125POPC   C3B52629  40.103  37.375   6.991
 4125POPC   C4B52630  40.433  37.530   7.206
 4126POPC   NC352631  29.630  38.665   5.503
 4126POPC   PO452632  30.156  38.251   5.267
 4126POPC   GL152633  30.004  38.341   5.725
 4126POPC   GL252634  29.655  38.265   5.808
 4126POPC   C1A52635  30.149  38.624   6.134
 4126POPC   D2A52636  29.986  38.741   6.565
 4126POPC   C3A52637  30.102  38.545   6.979
 4126POPC   C4A52638  29.915  38.512   7.415
 4126POPC   C1B52639  29.682  38.441   6.210
 4126POPC   C2B52640  29.564  38.439   6.637
 4126POPC   C3B52641  29.634  38.339   7.044
 4126POPC   C4B52642  29.684  38.045   7.373
 4127POPC   NC352643  23.280  12.516   5.168
 4127POPC   PO452644  22.759  12.878   5.385
 4127POPC   GL152645  22.677  12.698   5.814
 4127POPC   GL252646  22.969  12.910   5.865
 4127POPC   C1A52647  22.871  12.615   6.247
 4127POPC   D2A52648  22.833  12.947   6.547
 4127POPC   C3A52649  22.784  12.812   6.956
 4127POPC   C4A52650  22.950  12.827   7.343
 4127POPC   C1B52651  23.269  13.105   6.160
 4127POPC   C2B52652  23.258  13.227   6.592
 4127POPC   C3B52653  23.279  12.855   6.830
 4127POPC   C4B52654  23.432  12.887   7.196
 4128POPC   NC352655  10.757  44.241   5.421
 4128POPC   PO452656  10.163  43.929   5.446
 4128POPC   GL152657  10.266  43.767   5.867
 4128POPC   GL252658  10.152  43.401   5.913
 4128POPC   C1A52659  10.630  43.901   6.181
 4128POPC   D2A52660  10.954  43.935   6.534
 4128POPC   C3A52661  10.808  44.028   6.989
 4128POPC   C4A52662  10.387  44.094   7.129
 4128POPC   C1B52663  10.261  43.569   6.341
 4128POPC   C2B52664  10.481  43.754   6.679
 4128POPC   C3B52665  10.474  43.595   7.066
 4128POPC   C4B52666  10.094  43.398   7.213
 4129POPC   NC352667  29.323  10.112   5.753
 4129POPC   PO452668  29.261   9.618   5.379
 4129POPC   GL152669  29.103   9.650   5.834
 4129POPC   GL252670  28.851   9.913   5.919
 4129POPC   C1A52671  29.242   9.753   6.290
 4129POPC   D2A52672  29.351  10.028   6.629
 4129POPC   C3A52673  29.303   9.803   7.015
 4129POPC   C4A52674  29.310   9.784   7.473
 4129POPC   C1B52675  28.755   9.613   6.251
 4129POPC   C2B52676  28.876   9.666   6.683
 4129POPC   C3B52677  28.778   9.807   7.076
 4129POPC   C4B52678  28.791   9.710   7.491
 4130POPC   NC352679  23.511   6.135   5.337
 4130POPC   PO452680  24.117   5.734   5.341
 4130POPC   GL152681  23.865   5.939   5.723
 4130POPC   GL252682  23.508   6.072   5.837
 4130POPC   C1A52683  23.827   5.930   6.213
 4130POPC   D2A52684  23.495   5.836   6.565
 4130POPC   C3A52685  23.582   5.634   6.978
 4130POPC   C4A52686  23.715   5.688   7.421
 4130POPC   C1B52687  23.367   6.322   6.204
 4130POPC   C2B52688  23.240   6.275   6.641
 4130POPC   C3B52689  23.495   6.150   7.019
 4130POPC   C4B52690  23.543   6.161   7.476
 4131POPC   NC352691  43.300   5.433   5.518
 4131POPC   PO452692  43.064   4.740   5.432
 4131POPC   GL152693  42.980   4.938   5.867
 4131POPC   GL252694  42.881   5.306   5.857
 4131POPC   C1A52695  43.122   5.171   6.287
 4131POPC   D2A52696  43.396   5.347   6.642
 4131POPC   C3A52697  43.262   5.110   7.009
 4131POPC   C4A52698  42.830   4.917   6.970
 4131POPC   C1B52699  42.839   5.627   6.182
 4131POPC   C2B52700  42.791   5.770   6.592
 4131POPC   C3B52701  42.933   5.471   6.876
 4131POPC   C4B52702  42.984   5.491   7.313
 4132POPC   NC352703   7.392  36.401   5.379
 4132POPC   PO452704   7.765  35.811   5.439
 4132POPC   GL152705   7.605  36.072   5.755
 4132POPC   GL252706   7.247  36.125   5.778
 4132POPC   C1A52707   7.488  36.013   6.196
 4132POPC   D2A52708   7.302  36.137   6.593
 4132POPC   C3A52709   7.535  35.953   6.964
 4132POPC   C4A52710   7.666  36.083   7.405
 4132POPC   C1B52711   7.120  36.378   6.146
 4132POPC   C2B52712   7.049  36.617   6.533
 4132POPC   C3B52713   6.969  36.487   6.947
 4132POPC   C4B52714   7.215  36.252   7.212
 4133POPC   NC352715  31.615  14.017   5.077
 4133POPC   PO452716  31.616  13.536   5.562
 4133POPC   GL152717  31.555  13.612   5.962
 4133POPC   GL252718  31.224  13.560   5.944
 4133POPC   C1A52719  31.619  13.570   6.360
 4133POPC   D2A52720  31.759  13.812   6.644
 4133POPC   C3A52721  31.563  13.684   6.958
 4133POPC   C4A52722  31.684  13.756   7.321
 4133POPC   C1B52723  31.140  13.745   6.355
 4133POPC   C2B52724  31.231  13.991   6.732
 4133POPC   C3B52725  31.197  13.940   7.203
 4133POPC   C4B52726  31.254  13.500   7.387
 4134POPC   NC352727  23.248  15.578   5.720
 4134POPC   PO452728  22.909  16.001   5.308
 4134POPC   GL152729  22.887  15.968   5.755
 4134POPC   GL252730  22.733  15.670   5.835
 4134POPC   C1A52731  22.866  16.096   6.201
 4134POPC   D2A52732  22.671  16.051   6.629
 4134POPC   C3A52733  22.912  16.223   6.993
 4134POPC   C4A52734  23.007  16.259   7.446
 4134POPC   C1B52735  22.868  15.566   6.267
 4134POPC   C2B52736  22.647  15.421   6.619
 4134POPC   C3B52737  22.718  15.647   6.974
 4134POPC   C4B52738  22.757  15.858   7.327
 4135POPC   NC352739  41.962  28.661   5.088
 4135POPC   PO452740  42.207  28.132   5.428
 4135POPC   GL152741  42.463  28.279   5.772
 4135POPC   GL252742  42.183  28.132   5.963
 4135POPC   C1A52743  42.592  28.328   6.206
 4135POPC   D2A52744  42.352  28.169   6.568
 4135POPC   C3A52745  42.528  28.351   6.931
 4135POPC   C4A52746  42.674  28.263   7.306
 4135POPC   C1B52747  42.097  28.495   6.221
 4135POPC   C2B52748  41.911  28.513   6.597
 4135POPC   C3B52749  41.989  28.298   6.960
 4135POPC   C4B52750  42.123  28.387   7.359
 4136POPC   NC352751  36.623  36.480   5.584
 4136POPC   PO452752  36.987  35.915   5.433
 4136POPC   GL152753  36.813  36.025   5.802
 4136POPC   GL252754  37.024  36.303   5.840
 4136POPC   C1A52755  36.844  35.887   6.216
 4136POPC   D2A52756  36.730  35.910   6.622
 4136POPC   C3A52757  36.927  36.172   6.909
 4136POPC   C4A52758  36.846  35.982   7.296
 4136POPC   C1B52759  36.782  36.387   6.219
 4136POPC   C2B52760  36.536  36.418   6.615
 4136POPC   C3B52761  36.592  36.556   7.057
 4136POPC   C4B52762  36.948  36.488   7.386
 4137POPC   NC352763   1.543   3.811   5.533
 4137POPC   PO452764   2.060   3.477   5.256
 4137POPC   GL152765   1.986   3.519   5.717
 4137POPC   GL252766   1.894   3.191   5.802
 4137POPC   C1A52767   2.162   3.712   6.130
 4137POPC   D2A52768   1.960   3.744   6.554
 4137POPC   C3A52769   2.189   3.617   6.925
 4137POPC   C4A52770   2.362   3.936   7.173
 4137POPC   C1B52771   1.818   3.345   6.222
 4137POPC   C2B52772   1.939   3.234   6.652
 4137POPC   C3B52773   1.843   3.253   7.067
 4137POPC   C4B52774   1.959   3.096   7.469
 4138POPC   NC352775  35.055  19.979   5.314
 4138POPC   PO452776  35.594  19.581   5.277
 4138POPC   GL152777  35.373  19.738   5.712
 4138POPC   GL252778  35.637  19.763   5.970
 4138POPC   C1A52779  35.211  19.999   6.133
 4138POPC   D2A52780  35.357  20.142   6.578
 4138POPC   C3A52781  35.216  20.080   7.006
 4138POPC   C4A52782  35.419  19.975   7.426
 4138POPC   C1B52783  35.355  19.503   6.228
 4138POPC   C2B52784  35.229  19.633   6.654
 4138POPC   C3B52785  35.525  19.695   6.995
 4138POPC   C4B52786  35.493  19.481   7.395
 4139POPC   NC352787  41.333  22.376   5.363
 4139POPC   PO452788  41.659  21.733   5.402
 4139POPC   GL152789  41.504  22.045   5.790
 4139POPC   GL252790  41.303  22.368   5.860
 4139POPC   C1A52791  41.529  22.028   6.281
 4139POPC   D2A52792  41.286  21.978   6.682
 4139POPC   C3A52793  41.488  21.929   7.080
 4139POPC   C4A52794  41.758  22.067   7.418
 4139POPC   C1B52795  41.475  22.527   6.231
 4139POPC   C2B52796  41.524  22.433   6.659
 4139POPC   C3B52797  41.597  22.651   7.030
 4139POPC   C4B52798  41.569  22.551   7.417
 4140POPC   NC352799  18.551  32.019   5.408
 4140POPC   PO452800  18.191  32.619   5.436
 4140POPC   GL152801  18.255  32.270   5.727
 4140POPC   GL252802  18.058  32.025   5.846
 4140POPC   C1A52803  18.468  32.165   6.102
 4140POPC   D2A52804  18.515  32.462   6.413
 4140POPC   C3A52805  18.376  32.346   6.832
 4140POPC   C4A52806  18.346  32.104   7.208
 4140POPC   C1B52807  17.941  32.212   6.212
 4140POPC   C2B52808  18.006  32.065   6.626
 4140POPC   C3B52809  17.893  32.291   7.024
 4140POPC   C4B52810  17.928  32.326   7.487
 4141POPC   NC352811  21.431  38.562   5.242
 4141POPC   PO452812  21.224  39.299   5.321
 4141POPC   GL152813  21.456  39.175   5.714
 4141POPC   GL252814  21.323  39.465   5.891
 4141POPC   C1A52815  21.371  38.976   6.143
 4141POPC   D2A52816  21.223  38.913   6.596
 4141POPC   C3A52817  21.488  38.933   6.993
 4141POPC   C4A52818  21.605  39.155   7.422
 4141POPC   C1B52819  21.160  39.404   6.322
 4141POPC   C2B52820  21.250  39.398   6.772
 4141POPC   C3B52821  21.305  39.477   7.177
 4141POPC   C4B52822  21.673  39.654   7.373
 4142POPC   NC352823  37.230   0.989   5.148
 4142POPC   PO452824  36.596   1.269   5.350
 4142POPC   GL152825  36.902   1.078   5.683
 4142POPC   GL252826  37.088   1.395   5.631
 4142POPC   C1A52827  36.825   1.005   6.195
 4142POPC   D2A52828  36.570   1.085   6.571
 4142POPC   C3A52829  36.704   0.871   6.947
 4142POPC   C4A52830  37.040   0.908   7.262
 4142POPC   C1B52831  36.967   1.477   6.065
 4142POPC   C2B52832  36.910   1.505   6.530
 4142POPC   C3B52833  36.984   1.315   6.927
 4142POPC   C4B52834  36.993   1.449   7.341
 4143POPC   NC352835  32.127  42.380   5.394
 4143POPC   PO452836  31.828  41.852   5.628
 4143POPC   GL152837  32.000  42.177   5.909
 4143POPC   GL252838  32.324  42.318   5.871
 4143POPC   C1A52839  32.157  42.304   6.353
 4143POPC   D2A52840  32.452  42.258   6.690
 4143POPC   C3A52841  32.213  42.164   7.049
 4143POPC   C4A52842  31.926  42.261   7.349
 4143POPC   C1B52843  31.994  42.664   6.030
 4143POPC   C2B52844  31.889  42.735   6.475
 4143POPC   C3B52845  32.063  42.571   6.817
 4143POPC   C4B52846  32.265  42.636   7.213
 4144POPC   NC352847  44.010  29.476   5.170
 4144POPC   PO452848  44.175  28.924   5.551
 4144POPC   GL152849  44.032  29.132   5.889
 4144POPC   GL252850  43.730  29.199   5.808
 4144POPC   C1A52851  44.068  29.218   6.334
 4144POPC   D2A52852  43.887  29.132   6.730
 4144POPC   C3A52853  44.044  29.178   7.135
 4144POPC   C4A52854  43.880  28.788   7.270
 4144POPC   C1B52855  43.559  29.199   6.219
 4144POPC   C2B52856  43.397  29.306   6.620
 4144POPC   C3B52857  43.392  29.128   7.033
 4144POPC   C4B52858  43.609  29.172   7.432
 4145POPC   NC352859  28.877  42.353   5.419
 4145POPC   PO452860  29.476  42.430   5.327
 4145POPC   GL152861  29.326  42.342   5.714
 4145POPC   GL252862  29.167  42.043   5.734
 4145POPC   C1A52863  29.149  42.410   6.128
 4145POPC   D2A52864  29.192  42.573   6.554
 4145POPC   C3A52865  28.925  42.390   6.872
 4145POPC   C4A52866  29.031  42.282   7.295
 4145POPC   C1B52867  29.486  41.996   6.073
 4145POPC   C2B52868  29.555  42.191   6.493
 4145POPC   C3B52869  29.390  42.136   6.939
 4145POPC   C4B52870  29.369  41.906   7.358
 4146POPC   NC352871  23.542  40.554   5.198
 4146POPC   PO452872  23.923  41.069   5.273
 4146POPC   GL152873  23.888  40.691   5.607
 4146POPC   GL252874  23.532  40.635   5.729
 4146POPC   C1A52875  23.881  40.566   6.089
 4146POPC   D2A52876  23.930  40.409   6.523
 4146POPC   C3A52877  23.846  40.661   6.863
 4146POPC   C4A52878  23.700  40.664   7.269
 4146POPC   C1B52879  23.410  40.965   6.114
 4146POPC   C2B52880  23.451  41.128   6.593
 4146POPC   C3B52881  23.649  41.128   7.039
 4146POPC   C4B52882  23.788  41.091   7.514
 4147POPC   NC352883  14.645  11.102   5.361
 4147POPC   PO452884  14.066  11.540   5.429
 4147POPC   GL152885  14.275  11.317   5.754
 4147POPC   GL252886  13.950  11.218   5.828
 4147POPC   C1A52887  14.598  11.304   6.108
 4147POPC   D2A52888  14.783  11.397   6.530
 4147POPC   C3A52889  14.680  11.255   6.972
 4147POPC   C4A52890  14.767  11.498   7.368
 4147POPC   C1B52891  14.148  11.070   6.196
 4147POPC   C2B52892  14.369  11.061   6.580
 4147POPC   C3B52893  14.180  11.064   6.978
 4147POPC   C4B52894  14.319  11.255   7.358
 4148POPC   NC352895  44.175  14.787   5.481
 4148POPC   PO452896  43.904  14.181   5.390
 4148POPC   GL152897  43.790  14.294   5.832
 4148POPC   GL252898  43.821  13.936   5.901
 4148POPC   C1A52899  43.772  14.544   6.270
 4148POPC   D2A52900  43.890  14.803   6.672
 4148POPC   C3A52901  43.896  14.468   6.990
 4148POPC   C4A52902  43.900  14.335   7.434
 4148POPC   C1B52903  43.505  14.065   6.213
 4148POPC   C2B52904  43.499  14.220   6.634
 4148POPC   C3B52905  43.573  14.083   7.055
 4148POPC   C4B52906  43.423  14.124   7.468
 4149POPC   NC352907  17.851  39.358   5.502
 4149POPC   PO452908  18.505  39.054   5.382
 4149POPC   GL152909  18.308  39.237   5.731
 4149POPC   GL252910  18.048  38.962   5.785
 4149POPC   C1A52911  18.434  39.365   6.133
 4149POPC   D2A52912  18.441  39.114   6.491
 4149POPC   C3A52913  18.583  39.299   6.868
 4149POPC   C4A52914  18.601  39.157   7.273
 4149POPC   C1B52915  17.958  39.145   6.190
 4149POPC   C2B52916  18.008  39.332   6.592
 4149POPC   C3B52917  18.086  39.165   6.985
 4149POPC   C4B52918  18.088  38.940   7.369
 4150POPC   NC352919   1.030  17.983   5.434
 4150POPC   PO452920   1.050  17.347   5.603
 4150POPC   GL152921   1.158  17.645   5.893
 4150POPC   GL252922   0.957  17.941   5.948
 4150POPC   C1A52923   1.369  17.502   6.253
 4150POPC   D2A52924   1.253  17.259   6.586
 4150POPC   C3A52925   1.338  17.363   6.958
 4150POPC   C4A52926   1.474  17.126   7.219
 4150POPC   C1B52927   1.240  18.003   6.281
 4150POPC   C2B52928   1.249  17.797   6.676
 4150POPC   C3B52929   1.074  17.765   7.075
 4150POPC   C4B52930   1.179  17.842   7.507
 4151POPC   NC352931  21.956  10.956   5.409
 4151POPC   PO452932  21.377  11.295   5.254
 4151POPC   GL152933  21.313  11.212   5.732
 4151POPC   GL252934  21.070  10.932   5.842
 4151POPC   C1A52935  21.529  11.275   6.144
 4151POPC   D2A52936  21.660  11.402   6.585
 4151POPC   C3A52937  21.486  11.302   7.015
 4151POPC   C4A52938  21.477  11.223   7.493
 4151POPC   C1B52939  20.997  11.214   6.195
 4151POPC   C2B52940  21.120  11.497   6.534
 4151POPC   C3B52941  20.943  11.401   6.929
 4151POPC   C4B52942  21.080  11.057   7.204
 4152POPC   NC352943  15.860  19.595   5.431
 4152POPC   PO452944  16.206  20.260   5.453
 4152POPC   GL152945  15.825  20.166   5.699
 4152POPC   GL252946  15.920  19.854   5.864
 4152POPC   C1A52947  15.666  20.219   6.116
 4152POPC   D2A52948  15.826  19.916   6.433
 4152POPC   C3A52949  15.878  19.974   6.884
 4152POPC   C4A52950  16.226  19.895   7.133
 4152POPC   C1B52951  16.100  19.553   6.178
 4152POPC   C2B52952  16.141  19.505   6.636
 4152POPC   C3B52953  16.005  19.445   7.073
 4152POPC   C4B52954  15.937  19.229   7.489
 4153POPC   NC352955   7.626  10.592   5.387
 4153POPC   PO452956   6.988  10.555   5.313
 4153POPC   GL152957   7.239  10.504   5.721
 4153POPC   GL252958   7.333  10.858   5.762
 4153POPC   C1A52959   7.588  10.528   6.085
 4153POPC   D2A52960   7.796  10.491   6.529
 4153POPC   C3A52961   7.551  10.342   6.895
 4153POPC   C4A52962   7.360  10.404   7.349
 4153POPC   C1B52963   7.094  10.754   6.136
 4153POPC   C2B52964   7.052  10.915   6.527
 4153POPC   C3B52965   7.235  10.760   6.908
 4153POPC   C4B52966   7.150  10.872   7.321
 4154POPC   NC352967   6.011   5.599   5.602
 4154POPC   PO452968   5.920   5.011   5.203
 4154POPC   GL152969   5.918   4.989   5.729
 4154POPC   GL252970   5.611   4.837   5.914
 4154POPC   C1A52971   6.052   4.854   6.158
 4154POPC   D2A52972   6.182   4.836   6.575
 4154POPC   C3A52973   5.971   5.159   6.809
 4154POPC   C4A52974   5.990   5.141   7.255
 4154POPC   C1B52975   5.622   5.100   6.291
 4154POPC   C2B52976   5.438   5.199   6.653
 4154POPC   C3B52977   5.535   5.371   7.040
 4154POPC   C4B52978   5.498   5.028   7.299
 4155POPC   NC352979  35.803  37.036   5.394
 4155POPC   PO452980  35.345  36.632   5.714
 4155POPC   GL152981  35.483  36.842   5.966
 4155POPC   GL252982  35.537  37.169   5.831
 4155POPC   C1A52983  35.555  36.716   6.362
 4155POPC   D2A52984  35.671  36.684   6.740
 4155POPC   C3A52985  35.418  36.754   7.047
 4155POPC   C4A52986  35.441  36.574   7.426
 4155POPC   C1B52987  35.320  37.206   6.260
 4155POPC   C2B52988  35.409  37.145   6.693
 4155POPC   C3B52989  35.205  37.192   7.117
 4155POPC   C4B52990  35.298  37.046   7.552
 4156POPC   NC352991  17.897  32.924   5.630
 4156POPC   PO452992  17.399  33.384   5.477
 4156POPC   GL152993  17.416  33.099   5.808
 4156POPC   GL252994  17.156  32.811   5.810
 4156POPC   C1A52995  17.627  33.201   6.197
 4156POPC   D2A52996  17.645  32.972   6.565
 4156POPC   C3A52997  17.572  33.169   6.950
 4156POPC   C4A52998  17.482  33.288   7.355
 4156POPC   C1B52999  17.174  32.938   6.258
 4156POPC   C2B53000  17.155  32.944   6.712
 4156POPC   C3B53001  17.157  32.937   7.136
 4156POPC   C4B53002  17.221  32.904   7.572
 4157POPC   NC353003  37.505  43.335   5.335
 4157POPC   PO453004  38.070  42.956   5.532
 4157POPC   GL153005  37.685  43.028   5.745
 4157POPC   GL253006  37.775  43.341   5.809
 4157POPC   C1A53007  37.500  43.109   6.183
 4157POPC   D2A53008  37.528  43.333   6.622
 4157POPC   C3A53009  37.746  43.105   6.970
 4157POPC   C4A53010  37.716  42.980   7.424
 4157POPC   C1B53011  37.990  43.510   6.161
 4157POPC   C2B53012  38.062  43.288   6.538
 4157POPC   C3B53013  38.092  43.486   6.932
 4157POPC   C4B53014  38.031  43.587   7.355
 4158POPC   NC353015  15.025  22.456   5.386
 4158POPC   PO453016  15.480  21.996   5.340
 4158POPC   GL153017  15.171  21.945   5.710
 4158POPC   GL253018  14.915  22.109   5.737
 4158POPC   C1A53019  15.208  21.988   6.175
 4158POPC   D2A53020  15.046  21.932   6.591
 4158POPC   C3A53021  15.236  22.183   6.948
 4158POPC   C4A53022  15.407  22.295   7.373
 4158POPC   C1B53023  14.992  22.433   6.052
 4158POPC   C2B53024  15.084  22.457   6.481
 4158POPC   C3B53025  14.911  22.558   6.892
 4158POPC   C4B53026  14.914  22.478   7.318
 4159POPC   NC353027  22.420  44.199   5.506
 4159POPC   PO453028  22.387  44.966   5.386
 4159POPC   GL153029  22.298  44.688   5.779
 4159POPC   GL253030  22.003  44.482   5.833
 4159POPC   C1A53031  22.533  44.541   6.170
 4159POPC   D2A53032  22.461  44.735   6.566
 4159POPC   C3A53033  22.230  44.546   6.879
 4159POPC   C4A53034  22.379  44.540   7.270
 4159POPC   C1B53035  22.040  44.504   6.278
 4159POPC   C2B53036  21.839  44.340   6.613
 4159POPC   C3B53037  21.689  44.248   6.995
 4159POPC   C4B53038  21.934  44.284   7.333
 4160POPC   NC353039  10.581  36.752   5.073
 4160POPC   PO453040  10.286  37.275   5.417
 4160POPC   GL153041  10.474  37.146   5.821
 4160POPC   GL253042  10.403  36.805   6.000
 4160POPC   C1A53043  10.460  37.221   6.262
 4160POPC   D2A53044  10.447  36.880   6.570
 4160POPC   C3A53045  10.470  37.016   6.995
 4160POPC   C4A53046  10.462  36.828   7.413
 4160POPC   C1B53047  10.783  36.660   6.229
 4160POPC   C2B53048  10.965  36.691   6.645
 4160POPC   C3B53049  10.800  36.604   7.051
 4160POPC   C4B53050  10.981  36.443   7.410
 4161POPC   NC353051  18.070  30.338   5.456
 4161POPC   PO453052  18.048  29.623   5.481
 4161POPC   GL153053  18.167  29.907   5.814
 4161POPC   GL253054  17.941  30.191   5.920
 4161POPC   C1A53055  18.172  29.791   6.247
 4161POPC   D2A53056  17.831  29.705   6.530
 4161POPC   C3A53057  17.947  29.652   6.954
 4161POPC   C4A53058  18.346  29.683   7.182
 4161POPC   C1B53059  17.962  30.252   6.339
 4161POPC   C2B53060  18.164  30.059   6.703
 4161POPC   C3B53061  18.117  30.131   7.135
 4161POPC   C4B53062  18.493  30.146   7.381
 4162POPC   NC353063  33.229  23.882   5.516
 4162POPC   PO453064  32.601  23.919   5.446
 4162POPC   GL153065  32.832  23.801   5.837
 4162POPC   GL253066  33.072  23.494   5.844
 4162POPC   C1A53067  32.827  23.724   6.288
 4162POPC   D2A53068  33.116  23.958   6.590
 4162POPC   C3A53069  33.022  24.046   7.023
 4162POPC   C4A53070  32.826  23.800   7.317
 4162POPC   C1B53071  33.318  23.682   6.186
 4162POPC   C2B53072  33.536  23.639   6.587
 4162POPC   C3B53073  33.502  23.461   6.990
 4162POPC   C4B53074  33.298  23.631   7.327
 4163POPC   NC353075  40.453  22.424   5.836
 4163POPC   PO453076  40.925  22.145   5.473
 4163POPC   GL153077  40.973  21.967   5.885
 4163POPC   GL253078  40.629  21.870   5.847
 4163POPC   C1A53079  41.014  22.164   6.291
 4163POPC   D2A53080  40.801  22.189   6.709
 4163POPC   C3A53081  40.975  21.995   7.086
 4163POPC   C4A53082  41.204  22.348   7.133
 4163POPC   C1B53083  40.399  21.769   6.220
 4163POPC   C2B53084  40.352  21.954   6.641
 4163POPC   C3B53085  40.480  22.064   7.091
 4163POPC   C4B53086  40.413  21.988   7.545
 4164POPC   NC353087  19.029  28.761   5.368
 4164POPC   PO453088  18.761  29.325   5.393
 4164POPC   GL153089  18.989  29.142   5.736
 4164POPC   GL253090  19.234  28.865   5.841
 4164POPC   C1A53091  19.221  29.299   6.085
 4164POPC   D2A53092  19.388  29.033   6.420
 4164POPC   C3A53093  19.198  29.142   6.813
 4164POPC   C4A53094  19.186  29.390   7.181
 4164POPC   C1B53095  18.875  28.934   6.207
 4164POPC   C2B53096  18.708  28.984   6.658
 4164POPC   C3B53097  18.803  28.855   7.094
 4164POPC   C4B53098  19.248  28.870   7.252
 4165POPC   NC353099  12.995  13.942   5.020
 4165POPC   PO453100  12.812  13.381   5.290
 4165POPC   GL153101  12.758  13.512   5.755
 4165POPC   GL253102  12.971  13.807   5.839
 4165POPC   C1A53103  12.911  13.486   6.220
 4165POPC   D2A53104  12.692  13.494   6.606
 4165POPC   C3A53105  12.886  13.533   6.955
 4165POPC   C4A53106  12.817  13.355   7.308
 4165POPC   C1B53107  13.142  13.997   6.182
 4165POPC   C2B53108  13.074  13.863   6.577
 4165POPC   C3B53109  13.052  14.041   6.971
 4165POPC   C4B53110  13.039  13.873   7.365
 4166POPC   NC353111  40.166  36.658   5.469
 4166POPC   PO453112  39.883  37.238   5.449
 4166POPC   GL153113  39.882  36.959   5.802
 4166POPC   GL253114  40.203  37.070   5.876
 4166POPC   C1A53115  39.792  37.025   6.259
 4166POPC   D2A53116  39.703  37.159   6.712
 4166POPC   C3A53117  39.887  36.873   7.025
 4166POPC   C4A53118  40.157  37.010   7.362
 4166POPC   C1B53119  40.178  36.681   6.144
 4166POPC   C2B53120  40.224  36.572   6.582
 4166POPC   C3B53121  40.339  36.583   7.005
 4166POPC   C4B53122  40.096  36.497   7.331
 4167POPC   NC353123  32.845  27.092   5.600
 4167POPC   PO453124  33.267  26.636   5.369
 4167POPC   GL153125  33.049  26.650   5.784
 4167POPC   GL253126  33.294  26.917   5.803
 4167POPC   C1A53127  32.805  26.775   6.219
 4167POPC   D2A53128  32.762  26.984   6.674
 4167POPC   C3A53129  32.760  26.806   7.129
 4167POPC   C4A53130  32.671  26.795   7.621
 4167POPC   C1B53131  33.320  26.792   6.220
 4167POPC   C2B53132  33.300  27.005   6.613
 4167POPC   C3B53133  33.223  27.015   7.037
 4167POPC   C4B53134  33.117  26.981   7.476
 4168POPC   NC353135  33.641   6.531   5.237
 4168POPC   PO453136  34.074   6.944   5.424
 4168POPC   GL153137  33.848   6.771   5.783
 4168POPC   GL253138  33.567   6.527   5.742
 4168POPC   C1A53139  34.004   6.760   6.215
 4168POPC   D2A53140  33.779   6.831   6.592
 4168POPC   C3A53141  33.842   6.602   6.943
 4168POPC   C4A53142  33.586   6.641   7.277
 4168POPC   C1B53143  33.545   6.585   6.170
 4168POPC   C2B53144  33.559   6.384   6.540
 4168POPC   C3B53145  33.366   6.344   6.913
 4168POPC   C4B53146  33.475   6.128   7.264
 4169POPC   NC353147  20.203  44.793   5.336
 4169POPC   PO453148  19.659  44.651   5.405
 4169POPC   GL153149  19.980  44.681   5.777
 4169POPC   GL253150  20.004   0.040   5.753
 4169POPC   C1A53151  20.168  44.767   6.219
 4169POPC   D2A53152  19.970  44.806   6.645
 4169POPC   C3A53153  19.983  44.536   7.038
 4169POPC   C4A53154  19.810  44.406   7.485
 4169POPC   C1B53155  20.185   0.272   6.080
 4169POPC   C2B53156  20.150   0.287   6.554
 4169POPC   C3B53157  20.246   0.071   6.974
 4169POPC   C4B53158  20.396   0.249   7.355
 4170POPC   NC353159  15.472   9.616   5.586
 4170POPC   PO453160  14.829   9.806   5.390
 4170POPC   GL153161  14.946   9.757   5.815
 4170POPC   GL253162  15.198  10.009   5.794
 4170POPC   C1A53163  15.139   9.740   6.238
 4170POPC   D2A53164  15.388   9.780   6.617
 4170POPC   C3A53165  15.094   9.792   7.004
 4170POPC   C4A53166  15.064   9.524   7.370
 4170POPC   C1B53167  15.506  10.078   6.109
 4170POPC   C2B53168  15.543  10.253   6.515
 4170POPC   C3B53169  15.524  10.140   6.941
 4170POPC   C4B53170  15.204  10.280   7.193
 4171POPC   NC353171  20.229  35.183   5.447
 4171POPC   PO453172  20.896  35.228   5.469
 4171POPC   GL153173  20.829  35.129   5.857
 4171POPC   GL253174  20.525  34.955   5.818
 4171POPC   C1A53175  20.888  35.382   6.237
 4171POPC   D2A53176  20.668  35.268   6.578
 4171POPC   C3A53177  20.469  35.394   6.871
 4171POPC   C4A53178  20.696  35.466   7.198
 4171POPC   C1B53179  20.388  35.255   6.144
 4171POPC   C2B53180  20.151  35.192   6.519
 4171POPC   C3B53181  20.074  35.078   6.930
 4171POPC   C4B53182  20.270  35.216   7.330
 4172POPC   NC353183  31.851  18.951   5.390
 4172POPC   PO453184  31.208  18.926   5.404
 4172POPC   GL153185  31.495  18.870   5.758
 4172POPC   GL253186  31.721  19.159   5.828
 4172POPC   C1A53187  31.405  18.977   6.172
 4172POPC   D2A53188  31.513  18.880   6.558
 4172POPC   C3A53189  31.405  19.128   6.881
 4172POPC   C4A53190  31.352  19.082   7.291
 4172POPC   C1B53191  31.910  18.984   6.198
 4172POPC   C2B53192  32.010  18.733   6.547
 4172POPC   C3B53193  31.827  18.782   6.957
 4172POPC   C4B53194  31.821  18.905   7.373
 4173POPC   NC353195   9.897  34.083   5.441
 4173POPC   PO453196   9.422  33.587   5.469
 4173POPC   GL153197   9.599  33.881   5.795
 4173POPC   GL253198   9.897  33.732   5.909
 4173POPC   C1A53199   9.765  34.107   6.194
 4173POPC   D2A53200   9.991  33.965   6.560
 4173POPC   C3A53201   9.827  33.964   6.945
 4173POPC   C4A53202   9.532  33.742   7.202
 4173POPC   C1B53203  10.068  33.499   6.262
 4173POPC   C2B53204  10.272  33.469   6.662
 4173POPC   C3B53205  10.070  33.485   7.071
 4173POPC   C4B53206   9.912  33.541   7.471
 4174POPC   NC353207  10.001  39.217   5.296
 4174POPC   PO453208   9.583  39.642   5.571
 4174POPC   GL153209   9.731  39.266   5.720
 4174POPC   GL253210  10.045  39.397   5.774
 4174POPC   C1A53211   9.763  39.068   6.107
 4174POPC   D2A53212   9.721  39.241   6.510
 4174POPC   C3A53213   9.591  39.046   6.858
 4174POPC   C4A53214   9.639  39.199   7.232
 4174POPC   C1B53215   9.922  39.549   6.143
 4174POPC   C2B53216  10.096  39.593   6.539
 4174POPC   C3B53217   9.986  39.415   6.917
 4174POPC   C4B53218  10.197  39.443   7.286
 4175POPC   NC353219  35.218   2.300   5.544
 4175POPC   PO453220  35.463   2.771   5.284
 4175POPC   GL153221  35.311   2.877   5.735
 4175POPC   GL253222  35.081   2.626   5.911
 4175POPC   C1A53223  35.265   2.996   6.206
 4175POPC   D2A53224  35.398   2.977   6.643
 4175POPC   C3A53225  35.224   2.824   7.033
 4175POPC   C4A53226  35.453   2.986   7.382
 4175POPC   C1B53227  35.522   2.571   6.102
 4175POPC   C2B53228  35.737   2.519   6.501
 4175POPC   C3B53229  35.756   2.305   6.901
 4175POPC   C4B53230  35.506   2.455   7.292
 4176POPC   NC353231  28.861  20.444   5.360
 4176POPC   PO453232  29.545  20.672   5.434
 4176POPC   GL153233  29.430  20.528   5.824
 4176POPC   GL253234  29.085  20.418   5.822
 4176POPC   C1A53235  29.341  20.635   6.259
 4176POPC   D2A53236  29.075  20.889   6.532
 4176POPC   C3A53237  29.171  20.731   6.925
 4176POPC   C4A53238  29.111  20.845   7.345
 4176POPC   C1B53239  29.094  20.198   6.208
 4176POPC   C2B53240  28.975  20.349   6.626
 4176POPC   C3B53241  28.834  20.402   7.075
 4176POPC   C4B53242  28.861  20.157   7.465
 4177POPC   NC353243  30.194  14.395   5.008
 4177POPC   PO453244  29.702  14.330   5.499
 4177POPC   GL153245  29.834  14.450   5.883
 4177POPC   GL253246  30.120  14.603   5.879
 4177POPC   C1A53247  29.994  14.273   6.278
 4177POPC   D2A53248  29.995  14.308   6.739
 4177POPC   C3A53249  29.679  14.307   7.063
 4177POPC   C4A53250  29.624  14.202   7.515
 4177POPC   C1B53251  30.106  14.820   6.214
 4177POPC   C2B53252  30.233  14.739   6.602
 4177POPC   C3B53253  30.092  14.784   7.005
 4177POPC   C4B53254  29.980  14.577   7.371
 4178POPC   NC353255  34.320   9.758   5.443
 4178POPC   PO453256  34.976   9.575   5.580
 4178POPC   GL153257  34.728   9.589   5.982
 4178POPC   GL253258  34.399   9.777   5.961
 4178POPC   C1A53259  34.668   9.638   6.437
 4178POPC   D2A53260  34.921   9.915   6.698
 4178POPC   C3A53261  34.850   9.852   7.124
 4178POPC   C4A53262  34.817   9.480   7.412
 4178POPC   C1B53263  34.316  10.012   6.361
 4178POPC   C2B53264  34.347   9.916   6.811
 4178POPC   C3B53265  34.282   9.771   7.254
 4178POPC   C4B53266  34.195  10.033   7.639
 4179POPC   NC353267   3.342  27.350   5.434
 4179POPC   PO453268   3.493  26.653   5.322
 4179POPC   GL153269   3.634  26.591   5.765
 4179POPC   GL253270   3.342  26.454   5.832
 4179POPC   C1A53271   3.735  26.844   6.170
 4179POPC   D2A53272   3.550  27.043   6.559
 4179POPC   C3A53273   3.637  26.832   6.972
 4179POPC   C4A53274   3.802  26.887   7.374
 4179POPC   C1B53275   3.287  26.575   6.233
 4179POPC   C2B53276   3.507  26.506   6.595
 4179POPC   C3B53277   3.396  26.278   6.960
 4179POPC   C4B53278   3.324  26.223   7.412
 4180POPC   NC353279  41.212  39.489   5.479
 4180POPC   PO453280  41.705  38.997   5.453
 4180POPC   GL153281  41.584  39.255   5.807
 4180POPC   GL253282  41.243  39.164   5.853
 4180POPC   C1A53283  41.509  39.382   6.247
 4180POPC   D2A53284  41.616  39.422   6.698
 4180POPC   C3A53285  41.837  39.198   7.017
 4180POPC   C4A53286  41.882  39.246   7.466
 4180POPC   C1B53287  41.216  38.927   6.210
 4180POPC   C2B53288  41.378  38.925   6.614
 4180POPC   C3B53289  41.324  39.102   6.984
 4180POPC   C4B53290  41.439  39.415   7.230
 4181POPC   NC353291  42.179   0.677   5.327
 4181POPC   PO453292  42.547   0.105   5.441
 4181POPC   GL153293  42.192   0.243   5.714
 4181POPC   GL253294  42.397   0.521   5.755
 4181POPC   C1A53295  42.074   0.480   6.135
 4181POPC   D2A53296  42.133   0.720   6.545
 4181POPC   C3A53297  42.122   0.489   6.968
 4181POPC   C4A53298  42.188   0.511   7.462
 4181POPC   C1B53299  42.582   0.680   6.116
 4181POPC   C2B53300  42.631   0.870   6.526
 4181POPC   C3B53301  42.492   0.848   6.936
 4181POPC   C4B53302  42.604   0.484   7.174
 4182POPC   NC353303   2.885  20.214   5.511
 4182POPC   PO453304   2.402  19.707   5.462
 4182POPC   GL153305   2.573  19.885   5.768
 4182POPC   GL253306   2.904  19.736   5.789
 4182POPC   C1A53307   2.629  19.955   6.175
 4182POPC   D2A53308   2.781  19.777   6.554
 4182POPC   C3A53309   2.680  19.961   6.938
 4182POPC   C4A53310   2.668  19.691   7.303
 4182POPC   C1B53311   3.143  19.745   6.183
 4182POPC   C2B53312   3.292  19.776   6.625
 4182POPC   C3B53313   3.181  19.903   7.046
 4182POPC   C4B53314   3.163  19.849   7.480
 4183POPC   NC353315  20.704   7.457   5.243
 4183POPC   PO453316  20.697   8.127   5.552
 4183POPC   GL153317  20.618   7.709   5.730
 4183POPC   GL253318  20.850   7.379   5.715
 4183POPC   C1A53319  20.665   7.555   6.162
 4183POPC   D2A53320  20.471   7.511   6.561
 4183POPC   C3A53321  20.761   7.578   6.933
 4183POPC   C4A53322  20.565   7.474   7.324
 4183POPC   C1B53323  20.685   7.050   6.026
 4183POPC   C2B53324  20.628   7.008   6.481
 4183POPC   C3B53325  20.536   7.112   6.921
 4183POPC   C4B53326  20.772   6.985   7.265
 4184POPC   NC353327  17.994   3.726   5.484
 4184POPC   PO453328  18.554   4.002   5.432
 4184POPC   GL153329  18.386   3.806   5.805
 4184POPC   GL253330  18.270   3.434   5.839
 4184POPC   C1A53331  18.109   3.760   6.172
 4184POPC   D2A53332  18.099   3.367   6.385
 4184POPC   C3A53333  18.256   3.387   6.822
 4184POPC   C4A53334  18.228   3.403   7.313
 4184POPC   C1B53335  18.567   3.513   6.237
 4184POPC   C2B53336  18.752   3.431   6.659
 4184POPC   C3B53337  18.696   3.394   7.107
 4184POPC   C4B53338  18.683   3.313   7.563
 4185POPC   NC353339  26.124   9.981   5.500
 4185POPC   PO453340  25.618   9.710   5.396
 4185POPC   GL153341  25.855   9.642   5.818
 4185POPC   GL253342  26.147   9.435   5.924
 4185POPC   C1A53343  26.050   9.891   6.173
 4185POPC   D2A53344  26.258   9.947   6.575
 4185POPC   C3A53345  25.977  10.065   6.883
 4185POPC   C4A53346  25.810   9.950   7.307
 4185POPC   C1B53347  26.159   9.411   6.387
 4185POPC   C2B53348  26.041   9.541   6.808
 4185POPC   C3B53349  26.265   9.755   7.165
 4185POPC   C4B53350  26.435   9.596   7.542
 4186POPC   NC353351  15.123  27.828   5.396
 4186POPC   PO453352  14.773  27.323   5.319
 4186POPC   GL153353  14.871  27.542   5.722
 4186POPC   GL253354  14.754  27.922   5.742
 4186POPC   C1A53355  15.064  27.374   6.092
 4186POPC   D2A53356  15.397  27.441   6.385
 4186POPC   C3A53357  15.323  27.299   6.800
 4186POPC   C4A53358  15.316  27.487   7.227
 4186POPC   C1B53359  15.102  27.903   6.062
 4186POPC   C2B53360  15.289  27.974   6.466
 4186POPC   C3B53361  15.231  27.918   6.910
 4186POPC   C4B53362  15.079  27.962   7.333
 4187POPC   NC353363  19.362  27.015   5.442
 4187POPC   PO453364  18.648  27.106   5.438
 4187POPC   GL153365  18.978  27.104   5.796
 4187POPC   GL253366  19.111  26.733   5.829
 4187POPC   C1A53367  19.035  26.975   6.250
 4187POPC   D2A53368  19.250  26.891   6.603
 4187POPC   C3A53369  19.038  26.676   6.918
 4187POPC   C4A53370  18.789  26.844   7.251
 4187POPC   C1B53371  19.456  26.657   6.172
 4187POPC   C2B53372  19.436  26.419   6.563
 4187POPC   C3B53373  19.554  26.618   6.945
 4187POPC   C4B53374  19.381  26.431   7.289
 4188POPC   NC353375  19.724  17.354   5.409
 4188POPC   PO453376  20.096  17.824   5.657
 4188POPC   GL153377  19.923  17.499   5.901
 4188POPC   GL253378  19.959  17.154   5.806
 4188POPC   C1A53379  19.966  17.420   6.329
 4188POPC   D2A53380  20.056  17.607   6.712
 4188POPC   C3A53381  19.759  17.664   7.018
 4188POPC   C4A53382  20.049  17.534   7.338
 4188POPC   C1B53383  19.620  17.096   6.118
 4188POPC   C2B53384  19.747  16.984   6.507
 4188POPC   C3B53385  19.800  17.178   6.874
 4188POPC   C4B53386  19.616  17.248   7.259
 4189POPC   NC353387  19.488  12.800   5.233
 4189POPC   PO453388  20.116  12.894   5.418
 4189POPC   GL153389  19.967  12.823   5.875
 4189POPC   GL253390  19.811  13.133   6.047
 4189POPC   C1A53391  19.956  12.690   6.324
 4189POPC   D2A53392  19.744  12.879   6.704
 4189POPC   C3A53393  19.762  12.687   7.113
 4189POPC   C4A53394  19.549  12.640   7.515
 4189POPC   C1B53395  20.241  13.117   6.210
 4189POPC   C2B53396  20.280  12.962   6.636
 4189POPC   C3B53397  20.114  13.067   7.044
 4189POPC   C4B53398  19.748  13.269   7.206
 4190POPC   NC353399   2.152  37.846   5.376
 4190POPC   PO453400   2.158  37.264   5.613
 4190POPC   GL153401   2.027  37.631   5.853
 4190POPC   GL253402   1.726  37.855   5.801
 4190POPC   C1A53403   1.988  37.536   6.266
 4190POPC   D2A53404   2.231  37.594   6.589
 4190POPC   C3A53405   2.058  37.494   6.933
 4190POPC   C4A53406   2.088  37.631   7.333
 4190POPC   C1B53407   1.883  38.019   6.221
 4190POPC   C2B53408   1.774  37.863   6.659
 4190POPC   C3B53409   1.636  37.761   7.094
 4190POPC   C4B53410   1.702  37.857   7.565
 4191POPC   NC353411  32.247  16.243   5.369
 4191POPC   PO453412  32.547  15.654   5.447
 4191POPC   GL153413  32.254  15.913   5.783
 4191POPC   GL253414  32.159  16.283   5.857
 4191POPC   C1A53415  32.138  15.962   6.266
 4191POPC   D2A53416  32.031  15.600   6.554
 4191POPC   C3A53417  32.214  15.533   6.938
 4191POPC   C4A53418  32.387  15.835   7.186
 4191POPC   C1B53419  32.054  16.526   6.199
 4191POPC   C2B53420  31.965  16.362   6.581
 4191POPC   C3B53421  32.030  16.021   6.847
 4191POPC   C4B53422  31.985  16.135   7.271
 4192POPC   NC353423  14.975  35.005   5.127
 4192POPC   PO453424  15.415  34.541   5.424
 4192POPC   GL153425  15.129  34.513   5.755
 4192POPC   GL253426  15.377  34.607   5.940
 4192POPC   C1A53427  14.954  34.679   6.187
 4192POPC   D2A53428  15.189  34.747   6.537
 4192POPC   C3A53429  15.222  34.635   6.961
 4192POPC   C4A53430  15.041  34.527   7.379
 4192POPC   C1B53431  15.550  34.447   6.284
 4192POPC   C2B53432  15.711  34.612   6.645
 4192POPC   C3B53433  15.691  34.456   7.050
 4192POPC   C4B53434  15.544  34.701   7.378
 4193POPC   NC353435  39.501  23.102   5.375
 4193POPC   PO453436  39.130  22.601   5.569
 4193POPC   GL153437  39.254  22.932   5.836
 4193POPC   GL253438  38.932  23.139   5.905
 4193POPC   C1A53439  39.481  22.740   6.227
 4193POPC   D2A53440  39.385  22.415   6.570
 4193POPC   C3A53441  39.283  22.602   6.962
 4193POPC   C4A53442  39.439  22.971   7.188
 4193POPC   C1B53443  38.983  23.277   6.357
 4193POPC   C2B53444  39.150  23.280   6.805
 4193POPC   C3B53445  39.522  23.433   7.055
 4193POPC   C4B53446  39.661  23.363   7.527
 4194POPC   NC353447  29.662   9.899   5.329
 4194POPC   PO453448  30.260   9.630   5.338
 4194POPC   GL153449  30.125   9.907   5.675
 4194POPC   GL253450  29.884   9.651   5.749
 4194POPC   C1A53451  29.905  10.024   6.083
 4194POPC   D2A53452  29.779   9.749   6.415
 4194POPC   C3A53453  29.899   9.854   6.824
 4194POPC   C4A53454  29.774   9.821   7.224
 4194POPC   C1B53455  29.583   9.451   6.022
 4194POPC   C2B53456  29.573   9.281   6.467
 4194POPC   C3B53457  29.650   9.391   6.907
 4194POPC   C4B53458  29.594   9.356   7.370
 4195POPC   NC353459  29.721  15.754   5.472
 4195POPC   PO453460  29.950  16.355   5.483
 4195POPC   GL153461  30.118  16.098   5.854
 4195POPC   GL253462  30.024  15.745   5.878
 4195POPC   C1A53463  30.221  15.940   6.282
 4195POPC   D2A53464  29.987  15.686   6.558
 4195POPC   C3A53465  29.995  15.867   6.940
 4195POPC   C4A53466  30.249  15.958   7.283
 4195POPC   C1B53467  29.721  15.952   6.162
 4195POPC   C2B53468  29.507  15.869   6.565
 4195POPC   C3B53469  29.472  15.945   7.009
 4195POPC   C4B53470  29.589  16.164   7.395
 4196POPC   NC353471  43.930  41.558   5.475
 4196POPC   PO453472  43.507  41.048   5.734
 4196POPC   GL153473  43.742  41.372   5.964
 4196POPC   GL253474  44.059  41.234   5.874
 4196POPC   C1A53475  43.736  41.751   6.279
 4196POPC   D2A53476  43.740  41.856   6.733
 4196POPC   C3A53477  43.805  41.504   6.932
 4196POPC   C4A53478  43.626  41.353   7.286
 4196POPC   C1B53479  44.161  41.447   6.266
 4196POPC   C2B53480  44.201  41.762   6.574
 4196POPC   C3B53481  44.276  41.760   7.015
 4196POPC   C4B53482  44.178  41.407   7.271
 4197POPC   NC353483  28.769  41.435   5.463
 4197POPC   PO453484  28.197  41.064   5.497
 4197POPC   GL153485  28.362  41.330   5.857
 4197POPC   GL253486  28.361  41.698   5.804
 4197POPC   C1A53487  28.097  41.491   6.231
 4197POPC   D2A53488  27.962  41.416   6.663
 4197POPC   C3A53489  28.127  41.443   7.063
 4197POPC   C4A53490  28.539  41.458   7.201
 4197POPC   C1B53491  28.509  41.786   6.225
 4197POPC   C2B53492  28.508  41.545   6.575
 4197POPC   C3B53493  28.346  41.815   6.847
 4197POPC   C4B53494  28.218  41.932   7.242
 4198POPC   NC353495  39.862  18.242   5.579
 4198POPC   PO453496  40.468  18.464   5.561
 4198POPC   GL153497  40.146  18.569   5.848
 4198POPC   GL253498  40.196  18.190   5.975
 4198POPC   C1A53499  39.917  18.516   6.217
 4198POPC   D2A53500  40.262  18.485   6.503
 4198POPC   C3A53501  40.165  18.444   6.914
 4198POPC   C4A53502  39.899  18.643   7.199
 4198POPC   C1B53503  39.852  18.005   6.270
 4198POPC   C2B53504  39.775  18.054   6.739
 4198POPC   C3B53505  39.926  18.106   7.193
 4198POPC   C4B53506  40.317  18.156   7.431
 4199POPC   NC353507  16.127  23.832   5.556
 4199POPC   PO453508  15.678  23.446   5.706
 4199POPC   GL153509  15.796  23.797   5.970
 4199POPC   GL253510  16.132  24.002   6.023
 4199POPC   C1A53511  16.037  23.568   6.281
 4199POPC   D2A53512  16.078  23.305   6.640
 4199POPC   C3A53513  15.750  23.480   6.906
 4199POPC   C4A53514  15.825  23.649   7.298
 4199POPC   C1B53515  15.937  24.094   6.387
 4199POPC   C2B53516  15.940  23.975   6.816
 4199POPC   C3B53517  16.232  23.946   7.144
 4199POPC   C4B53518  16.240  23.915   7.578
 4200POPC   NC353519  30.588  34.990   5.449
 4200POPC   PO453520  30.874  34.448   5.113
 4200POPC   GL153521  30.806  34.502   5.620
 4200POPC   GL253522  30.511  34.641   5.812
 4200POPC   C1A53523  30.846  34.349   6.098
 4200POPC   D2A53524  31.084  34.339   6.535
 4200POPC   C3A53525  30.846  34.374   6.963
 4200POPC   C4A53526  30.710  34.398   7.429
 4200POPC   C1B53527  30.619  34.847   6.217
 4200POPC   C2B53528  30.766  34.809   6.671
 4200POPC   C3B53529  30.526  34.763   7.094
 4200POPC   C4B53530  30.371  34.793   7.535
 4201POPC   NC353531   0.610   7.478   5.328
 4201POPC   PO453532   0.076   7.044   5.318
 4201POPC   GL153533   0.327   7.197   5.688
 4201POPC   GL253534   0.142   7.456   5.863
 4201POPC   C1A53535   0.530   7.205   6.119
 4201POPC   D2A53536   0.470   7.373   6.519
 4201POPC   C3A53537   0.669   7.178   6.874
 4201POPC   C4A53538   0.583   7.328   7.316
 4201POPC   C1B53539   0.295   7.737   6.191
 4201POPC   C2B53540   0.315   7.887   6.615
 4201POPC   C3B53541   0.381   7.626   6.953
 4201POPC   C4B53542   0.104   7.431   7.222
 4202POPC   NC353543  44.930   3.693   5.013
 4202POPC   PO453544   0.345   3.383   5.464
 4202POPC   GL153545   0.501   3.465   5.885
 4202POPC   GL253546   0.613   3.808   5.813
 4202POPC   C1A53547   0.604   3.379   6.343
 4202POPC   D2A53548   0.271   3.447   6.682
 4202POPC   C3A53549   0.288   3.265   7.094
 4202POPC   C4A53550   0.552   3.597   7.294
 4202POPC   C1B53551   0.404   3.840   6.231
 4202POPC   C2B53552   0.207   4.020   6.576
 4202POPC   C3B53553   0.403   3.952   6.946
 4202POPC   C4B53554   0.112   3.741   7.108
 4203POPC   NC353555   0.110   4.486   5.596
 4203POPC   PO453556   0.221   4.982   5.161
 4203POPC   GL153557   0.226   4.993   5.689
 4203POPC   GL253558   0.109   4.806   5.971
 4203POPC   C1A53559   0.521   5.125   6.070
 4203POPC   D2A53560   0.567   5.476   6.373
 4203POPC   C3A53561   0.539   5.340   6.817
 4203POPC   C4A53562   0.654   5.252   7.260
 4203POPC   C1B53563   0.201   4.845   6.388
 4203POPC   C2B53564   0.587   4.808   6.558
 4203POPC   C3B53565   0.738   4.862   6.956
 4203POPC   C4B53566   0.341   4.861   7.216
 4204POPC   NC353567   4.770  37.920   5.281
 4204POPC   PO453568   4.075  37.934   5.265
 4204POPC   GL153569   4.150  38.030   5.716
 4204POPC   GL253570   4.533  38.063   5.802
 4204POPC   C1A53571   4.007  37.950   6.154
 4204POPC   D2A53572   4.222  37.803   6.532
 4204POPC   C3A53573   4.033  37.894   6.913
 4204POPC   C4A53574   4.178  37.742   7.266
 4204POPC   C1B53575   4.470  37.663   6.098
 4204POPC   C2B53576   4.475  37.353   6.507
 4204POPC   C3B53577   4.552  37.202   6.954
 4204POPC   C4B53578   4.725  37.395   7.322
 4205POPC   NC353579  28.330  26.410   5.543
 4205POPC   PO453580  28.241  27.087   5.362
 4205POPC   GL153581  28.405  26.873   5.731
 4205POPC   GL253582  28.104  26.741   5.903
 4205POPC   C1A53583  28.583  26.644   6.111
 4205POPC   D2A53584  28.693  26.449   6.507
 4205POPC   C3A53585  28.581  26.694   6.852
 4205POPC   C4A53586  28.527  26.529   7.232
 4205POPC   C1B53587  28.186  26.776   6.391
 4205POPC   C2B53588  28.064  26.810   6.837
 4205POPC   C3B53589  28.044  26.611   7.241
 4205POPC   C4B53590  28.145  26.730   7.676
 4206POPC   NC353591  38.304   9.078   5.572
 4206POPC   PO453592  38.425   8.501   5.363
 4206POPC   GL153593  38.555   8.744   5.853
 4206POPC   GL253594  38.832   8.607   6.062
 4206POPC   C1A53595  38.384   8.734   6.278
 4206POPC   D2A53596  38.295   8.540   6.660
 4206POPC   C3A53597  38.259   8.880   6.994
 4206POPC   C4A53598  38.442   9.292   7.122
 4206POPC   C1B53599  38.808   8.540   6.472
 4206POPC   C2B53600  38.718   8.764   6.834
 4206POPC   C3B53601  38.922   8.734   7.218
 4206POPC   C4B53602  39.211   8.993   7.452
 4207POPC   NC353603   6.362  42.501   5.533
 4207POPC   PO453604   6.702  42.022   5.220
 4207POPC   GL153605   6.594  42.077   5.712
 4207POPC   GL253606   6.724  42.379   5.888
 4207POPC   C1A53607   6.560  41.999   6.190
 4207POPC   D2A53608   6.816  42.170   6.541
 4207POPC   C3A53609   6.664  42.152   6.972
 4207POPC   C4A53610   6.673  42.459   7.291
 4207POPC   C1B53611   6.345  42.462   6.169
 4207POPC   C2B53612   6.380  42.446   6.586
 4207POPC   C3B53613   6.682  42.671   6.817
 4207POPC   C4B53614   6.426  42.859   7.122
 4208POPC   NC353615  13.151  14.930   5.031
 4208POPC   PO453616  12.600  15.200   5.401
 4208POPC   GL153617  12.682  15.112   5.831
 4208POPC   GL253618  12.999  14.994   5.798
 4208POPC   C1A53619  12.815  15.243   6.247
 4208POPC   D2A53620  12.644  15.197   6.650
 4208POPC   C3A53621  12.897  15.202   6.984
 4208POPC   C4A53622  13.100  15.594   7.006
 4208POPC   C1B53623  13.081  14.797   6.185
 4208POPC   C2B53624  13.118  14.935   6.598
 4208POPC   C3B53625  13.375  14.921   6.952
 4208POPC   C4B53626  13.300  14.725   7.325
 4209POPC   NC353627  43.079  41.155   5.615
 4209POPC   PO453628  42.884  41.802   5.526
 4209POPC   GL153629  43.078  41.901   5.928
 4209POPC   GL253630  43.420  41.778   5.842
 4209POPC   C1A53631  42.946  41.835   6.400
 4209POPC   D2A53632  42.913  41.776   6.869
 4209POPC   C3A53633  43.113  41.402   7.147
 4209POPC   C4A53634  42.987  41.414   7.589
 4209POPC   C1B53635  43.299  41.502   6.219
 4209POPC   C2B53636  43.339  41.552   6.682
 4209POPC   C3B53637  43.387  41.816   7.090
 4209POPC   C4B53638  43.400  41.726   7.548
 4210POPC   NC353639  25.021  35.985   5.392
 4210POPC   PO453640  25.595  36.381   5.488
 4210POPC   GL153641  25.391  36.060   5.795
 4210POPC   GL253642  25.379  35.686   5.736
 4210POPC   C1A53643  25.239  36.093   6.259
 4210POPC   D2A53644  25.003  36.327   6.597
 4210POPC   C3A53645  25.140  36.326   7.030
 4210POPC   C4A53646  24.977  36.075   7.303
 4210POPC   C1B53647  25.379  35.579   6.202
 4210POPC   C2B53648  25.505  35.706   6.654
 4210POPC   C3B53649  25.495  35.770   7.148
 4210POPC   C4B53650  25.458  35.608   7.618
 4211POPC   NC353651   1.294  40.137   5.572
 4211POPC   PO453652   1.007  39.492   5.426
 4211POPC   GL153653   0.888  39.805   5.769
 4211POPC   GL253654   1.060  40.085   6.003
 4211POPC   C1A53655   0.800  39.728   6.205
 4211POPC   D2A53656   1.140  39.874   6.501
 4211POPC   C3A53657   1.049  40.018   6.896
 4211POPC   C4A53658   0.942  39.696   7.139
 4211POPC   C1B53659   1.501  40.085   6.195
 4211POPC   C2B53660   1.665  40.022   6.598
 4211POPC   C3B53661   1.528  39.847   6.990
 4211POPC   C4B53662   1.301  39.926   7.415
 4212POPC   NC353663  10.568  20.186   5.460
 4212POPC   PO453664  10.214  20.796   5.428
 4212POPC   GL153665  10.397  20.618   5.772
 4212POPC   GL253666  10.795  20.511   5.788
 4212POPC   C1A53667  10.241  20.878   6.120
 4212POPC   D2A53668  10.095  20.758   6.511
 4212POPC   C3A53669  10.127  20.934   6.888
 4212POPC   C4A53670  10.348  20.790   7.252
 4212POPC   C1B53671  10.577  20.486   6.221
 4212POPC   C2B53672  10.416  20.358   6.615
 4212POPC   C3B53673  10.413  20.260   7.043
 4212POPC   C4B53674  10.354  20.298   7.469
 4213POPC   NC353675   9.710  38.285   5.515
 4213POPC   PO453676   9.616  38.929   5.252
 4213POPC   GL153677   9.581  38.758   5.707
 4213POPC   GL253678   9.863  38.606   5.872
 4213POPC   C1A53679   9.454  38.670   6.153
 4213POPC   D2A53680   9.744  38.697   6.493
 4213POPC   C3A53681   9.564  38.525   6.872
 4213POPC   C4A53682   9.673  38.631   7.291
 4213POPC   C1B53683   9.923  38.302   6.178
 4213POPC   C2B53684   9.764  38.144   6.554
 4213POPC   C3B53685   9.950  38.167   6.945
 4213POPC   C4B53686  10.078  38.277   7.347
 4214POPC   NC353687  31.830  12.373   5.506
 4214POPC   PO453688  32.187  12.978   5.430
 4214POPC   GL153689  32.113  12.723   5.774
 4214POPC   GL253690  32.389  12.528   5.919
 4214POPC   C1A53691  31.986  12.841   6.166
 4214POPC   D2A53692  31.768  13.093   6.470
 4214POPC   C3A53693  31.879  12.987   6.869
 4214POPC   C4A53694  32.179  13.059   7.161
 4214POPC   C1B53695  32.495  12.874   6.170
 4214POPC   C2B53696  32.296  12.879   6.588
 4214POPC   C3B53697  32.328  12.624   6.966
 4214POPC   C4B53698  32.650  12.847   7.186
 4215POPC   NC353699  42.025   8.348   5.453
 4215POPC   PO453700  42.609   8.074   5.379
 4215POPC   GL153701  42.340   8.032   5.754
 4215POPC   GL253702  42.296   8.393   5.874
 4215POPC   C1A53703  42.551   7.928   6.159
 4215POPC   D2A53704  42.606   8.095   6.574
 4215POPC   C3A53705  42.613   7.841   6.927
 4215POPC   C4A53706  42.525   8.080   7.269
 4215POPC   C1B53707  42.278   8.350   6.273
 4215POPC   C2B53708  42.045   8.187   6.561
 4215POPC   C3B53709  42.163   8.088   6.914
 4215POPC   C4B53710  42.012   7.982   7.292
 4216POPC   NC353711   9.767  44.165   5.304
 4216POPC   PO453712   9.858  43.499   5.142
 4216POPC   GL153713   9.802  43.640   5.630
 4216POPC   GL253714   9.679  43.922   5.739
 4216POPC   C1A53715   9.800  43.656   6.145
 4216POPC   D2A53716   9.667  43.700   6.575
 4216POPC   C3A53717   9.962  43.812   6.928
 4216POPC   C4A53718   9.911  44.120   7.280
 4216POPC   C1B53719   9.892  44.149   6.076
 4216POPC   C2B53720   9.768  44.219   6.503
 4216POPC   C3B53721   9.552  44.132   6.881
 4216POPC   C4B53722   9.291  43.897   7.146
 4217POPC   NC353723   6.560  34.107   5.276
 4217POPC   PO453724   6.311  34.778   5.282
 4217POPC   GL153725   6.487  34.666   5.699
 4217POPC   GL253726   6.814  34.521   5.644
 4217POPC   C1A53727   6.417  34.644   6.165
 4217POPC   D2A53728   6.664  34.553   6.541
 4217POPC   C3A53729   6.557  34.641   6.968
 4217POPC   C4A53730   6.850  34.715   7.288
 4217POPC   C1B53731   6.891  34.342   6.092
 4217POPC   C2B53732   7.091  34.254   6.512
 4217POPC   C3B53733   7.007  34.172   6.946
 4217POPC   C4B53734   7.089  34.286   7.379
 4218POPC   NC353735  10.414  30.029   5.437
 4218POPC   PO453736  10.866  30.345   5.751
 4218POPC   GL153737  10.664  30.017   5.937
 4218POPC   GL253738  10.930  29.748   5.967
 4218POPC   C1A53739  10.586  30.033   6.372
 4218POPC   D2A53740  10.556  30.250   6.759
 4218POPC   C3A53741  10.436  29.956   7.059
 4218POPC   C4A53742  10.047  29.902   7.321
 4218POPC   C1B53743  11.099  30.016   6.306
 4218POPC   C2B53744  10.987  30.000   6.737
 4218POPC   C3B53745  10.924  30.243   7.143
 4218POPC   C4B53746  10.867  30.420   7.600
 4219POPC   NC353747  17.545  23.345   5.363
 4219POPC   PO453748  17.230  23.889   5.285
 4219POPC   GL153749  17.497  23.777   5.673
 4219POPC   GL253750  17.427  23.451   5.878
 4219POPC   C1A53751  17.608  23.885   6.118
 4219POPC   D2A53752  17.351  24.016   6.488
 4219POPC   C3A53753  17.512  23.947   6.900
 4219POPC   C4A53754  17.520  23.656   7.222
 4219POPC   C1B53755  17.417  23.479   6.365
 4219POPC   C2B53756  17.760  23.593   6.646
 4219POPC   C3B53757  17.946  23.426   7.023
 4219POPC   C4B53758  17.933  23.496   7.483
 4220POPC   NC353759  32.080  18.262   5.133
 4220POPC   PO453760  32.009  18.587   5.683
 4220POPC   GL153761  32.120  18.132   5.757
 4220POPC   GL253762  32.491  18.060   5.760
 4220POPC   C1A53763  32.085  17.947   6.185
 4220POPC   D2A53764  32.272  17.998   6.612
 4220POPC   C3A53765  32.051  18.308   6.869
 4220POPC   C4A53766  32.096  18.442   7.280
 4220POPC   C1B53767  32.472  18.279   6.167
 4220POPC   C2B53768  32.471  18.501   6.563
 4220POPC   C3B53769  32.534  18.462   6.985
 4220POPC   C4B53770  32.604  18.109   7.192
 4221POPC   NC353771   5.904  16.704   5.367
 4221POPC   PO453772   5.487  17.120   5.442
 4221POPC   GL153773   5.730  16.921   5.810
 4221POPC   GL253774   6.092  16.748   5.858
 4221POPC   C1A53775   5.760  17.026   6.231
 4221POPC   D2A53776   5.481  16.941   6.560
 4221POPC   C3A53777   5.709  16.948   6.961
 4221POPC   C4A53778   5.889  16.777   7.334
 4221POPC   C1B53779   6.180  16.622   6.304
 4221POPC   C2B53780   6.324  16.392   6.708
 4221POPC   C3B53781   6.138  16.380   7.131
 4221POPC   C4B53782   6.236  16.408   7.615
 4222POPC   NC353783  43.598  43.344   5.527
 4222POPC   PO453784  44.215  43.027   5.343
 4222POPC   GL153785  43.965  43.061   5.737
 4222POPC   GL253786  43.966  43.446   5.863
 4222POPC   C1A53787  43.692  43.076   6.126
 4222POPC   D2A53788  43.826  43.151   6.543
 4222POPC   C3A53789  43.564  43.040   6.894
 4222POPC   C4A53790  43.604  43.214   7.296
 4222POPC   C1B53791  44.088  43.639   6.264
 4222POPC   C2B53792  44.151  43.533   6.696
 4222POPC   C3B53793  44.039  43.212   7.022
 4222POPC   C4B53794  44.048  43.065   7.488
 4223POPC   NC353795   1.673  10.012   5.552
 4223POPC   PO453796   2.108   9.738   5.212
 4223POPC   GL153797   2.129   9.694   5.724
 4223POPC   GL253798   1.833   9.670   5.996
 4223POPC   C1A53799   2.240   9.926   6.148
 4223POPC   D2A53800   2.361  10.173   6.540
 4223POPC   C3A53801   2.270   9.946   6.937
 4223POPC   C4A53802   2.231   9.591   7.201
 4223POPC   C1B53803   1.546  10.025   6.193
 4223POPC   C2B53804   1.561  10.263   6.596
 4223POPC   C3B53805   1.774  10.214   7.008
 4223POPC   C4B53806   1.818   9.870   7.294
 4224POPC   NC353807  25.073  40.554   5.408
 4224POPC   PO453808  25.452  41.084   5.379
 4224POPC   GL153809  25.294  40.850   5.750
 4224POPC   GL253810  25.454  40.520   5.762
 4224POPC   C1A53811  25.154  40.911   6.156
 4224POPC   D2A53812  25.294  41.053   6.547
 4224POPC   C3A53813  25.143  40.817   6.852
 4224POPC   C4A53814  25.008  40.938   7.237
 4224POPC   C1B53815  25.710  40.518   6.143
 4224POPC   C2B53816  25.798  40.366   6.563
 4224POPC   C3B53817  25.559  40.468   6.907
 4224POPC   C4B53818  25.371  40.596   7.255
 4225POPC   NC353819  39.547  30.722   5.216
 4225POPC   PO453820  40.211  30.623   5.420
 4225POPC   GL153821  40.077  30.683   5.823
 4225POPC   GL253822  40.103  30.315   5.863
 4225POPC   C1A53823  40.185  30.920   6.201
 4225POPC   D2A53824  40.117  30.789   6.603
 4225POPC   C3A53825  40.209  30.994   6.953
 4225POPC   C4A53826  40.169  30.845   7.322
 4225POPC   C1B53827  39.972  30.434   6.262
 4225POPC   C2B53828  39.827  30.377   6.681
 4225POPC   C3B53829  40.090  30.432   7.021
 4225POPC   C4B53830  39.971  30.412   7.480
 4226POPC   NC353831  34.695  29.787   5.461
 4226POPC   PO453832  34.272  30.275   5.719
 4226POPC   GL153833  34.481  29.953   5.957
 4226POPC   GL253834  34.621  29.620   5.926
 4226POPC   C1A53835  34.436  29.881   6.393
 4226POPC   D2A53836  34.271  30.161   6.680
 4226POPC   C3A53837  34.580  30.073   6.936
 4226POPC   C4A53838  34.799  30.202   7.240
 4226POPC   C1B53839  34.858  29.581   6.291
 4226POPC   C2B53840  34.866  29.691   6.735
 4226POPC   C3B53841  34.745  29.646   7.187
 4226POPC   C4B53842  34.734  29.547   7.673
 4227POPC   NC353843  12.291   2.133   5.322
 4227POPC   PO453844  11.805   1.642   5.245
 4227POPC   GL153845  12.047   1.765   5.701
 4227POPC   GL253846  12.175   2.114   5.825
 4227POPC   C1A53847  12.343   1.676   6.103
 4227POPC   D2A53848  12.489   1.799   6.537
 4227POPC   C3A53849  12.267   1.759   6.941
 4227POPC   C4A53850  12.328   1.871   7.380
 4227POPC   C1B53851  12.101   2.083   6.274
 4227POPC   C2B53852  12.122   2.223   6.685
 4227POPC   C3B53853  12.242   2.281   7.089
 4227POPC   C4B53854  12.269   2.345   7.525
 4228POPC   NC353855  30.803  37.137   5.401
 4228POPC   PO453856  30.794  36.416   5.324
 4228POPC   GL153857  30.577  36.715   5.581
 4228POPC   GL253858  30.874  36.802   5.775
 4228POPC   C1A53859  30.441  36.820   6.023
 4228POPC   D2A53860  30.431  37.142   6.366
 4228POPC   C3A53861  30.366  37.051   6.823
 4228POPC   C4A53862  30.607  36.936   7.198
 4228POPC   C1B53863  31.024  36.920   6.181
 4228POPC   C2B53864  30.861  37.003   6.621
 4228POPC   C3B53865  31.087  36.936   6.997
 4228POPC   C4B53866  31.115  37.038   7.438
 4229POPC   NC353867  41.744  16.742   5.358
 4229POPC   PO453868  41.044  16.709   5.400
 4229POPC   GL153869  41.364  16.823   5.739
 4229POPC   GL253870  41.201  17.001   6.035
 4229POPC   C1A53871  41.558  16.597   6.081
 4229POPC   D2A53872  41.332  16.516   6.455
 4229POPC   C3A53873  41.533  16.536   6.876
 4229POPC   C4A53874  41.382  16.486   7.257
 4229POPC   C1B53875  41.619  17.100   6.199
 4229POPC   C2B53876  41.769  16.909   6.599
 4229POPC   C3B53877  41.723  16.987   7.080
 4229POPC   C4B53878  41.960  16.814   7.436
 4230POPC   NC353879  38.627   6.183   5.483
 4230POPC   PO453880  38.323   6.853   5.435
 4230POPC   GL153881  38.251   6.632   5.819
 4230POPC   GL253882  38.300   6.264   5.866
 4230POPC   C1A53883  38.425   6.671   6.243
 4230POPC   D2A53884  38.640   6.648   6.646
 4230POPC   C3A53885  38.394   6.762   6.996
 4230POPC   C4A53886  38.496   6.750   7.440
 4230POPC   C1B53887  38.576   6.197   6.223
 4230POPC   C2B53888  38.461   6.156   6.652
 4230POPC   C3B53889  38.599   6.294   7.063
 4230POPC   C4B53890  38.336   6.288   7.444
 4231POPC   NC353891  22.887  35.560   5.350
 4231POPC   PO453892  23.413  35.174   5.371
 4231POPC   GL153893  23.290  35.239   5.823
 4231POPC   GL253894  22.956  35.418   5.849
 4231POPC   C1A53895  23.129  35.128   6.246
 4231POPC   D2A53896  22.990  35.435   6.544
 4231POPC   C3A53897  23.212  35.460   6.935
 4231POPC   C4A53898  23.214  35.225   7.312
 4231POPC   C1B53899  22.554  35.582   6.052
 4231POPC   C2B53900  22.344  35.487   6.463
 4231POPC   C3B53901  22.479  35.424   6.896
 4231POPC   C4B53902  22.764  35.490   7.241
 4232POPC   NC353903  20.837  34.722   5.477
 4232POPC   PO453904  20.464  34.107   5.507
 4232POPC   GL153905  20.538  34.435   5.824
 4232POPC   GL253906  20.877  34.582   5.955
 4232POPC   C1A53907  20.540  34.389   6.273
 4232POPC   D2A53908  20.403  34.293   6.656
 4232POPC   C3A53909  20.652  34.408   6.991
 4232POPC   C4A53910  20.526  34.246   7.390
 4232POPC   C1B53911  20.728  34.858   6.278
 4232POPC   C2B53912  20.512  34.804   6.668
 4232POPC   C3B53913  20.623  34.937   7.065
 4232POPC   C4B53914  21.054  35.045   7.166
 4233POPC   NC353915  36.428  38.783   5.331
 4233POPC   PO453916  35.981  38.231   5.344
 4233POPC   GL153917  36.108  38.488   5.669
 4233POPC   GL253918  35.778  38.631   5.720
 4233POPC   C1A53919  36.207  38.365   6.100
 4233POPC   D2A53920  36.025  38.186   6.513
 4233POPC   C3A53921  36.192  38.309   6.940
 4233POPC   C4A53922  36.489  38.065   7.216
 4233POPC   C1B53923  35.730  38.554   6.165
 4233POPC   C2B53924  35.867  38.666   6.577
 4233POPC   C3B53925  35.710  38.566   6.978
 4233POPC   C4B53926  35.740  38.314   7.349
 4234POPC   NC353927   8.621   8.483   5.545
 4234POPC   PO453928   9.096   7.966   5.478
 4234POPC   GL153929   8.892   8.100   5.833
 4234POPC   GL253930   8.562   8.004   5.765
 4234POPC   C1A53931   8.974   8.350   6.203
 4234POPC   D2A53932   9.234   8.425   6.559
 4234POPC   C3A53933   9.025   8.243   6.924
 4234POPC   C4A53934   9.158   8.193   7.354
 4234POPC   C1B53935   8.489   8.157   6.165
 4234POPC   C2B53936   8.659   8.080   6.563
 4234POPC   C3B53937   8.470   8.116   6.953
 4234POPC   C4B53938   8.662   8.280   7.301
 4235POPC   NC353939  28.000   5.994   5.405
 4235POPC   PO453940  27.364   5.708   5.358
 4235POPC   GL153941  27.607   5.811   5.684
 4235POPC   GL253942  27.815   5.586   5.771
 4235POPC   C1A53943  27.614   5.960   6.085
 4235POPC   D2A53944  27.851   6.031   6.455
 4235POPC   C3A53945  27.631   5.934   6.859
 4235POPC   C4A53946  27.770   5.955   7.258
 4235POPC   C1B53947  27.916   5.572   6.220
 4235POPC   C2B53948  28.006   5.608   6.685
 4235POPC   C3B53949  27.824   5.465   7.064
 4235POPC   C4B53950  27.900   5.497   7.543
 4236POPC   NC353951   4.610  30.994   5.486
 4236POPC   PO453952   5.161  30.715   5.212
 4236POPC   GL153953   5.088  30.863   5.687
 4236POPC   GL253954   4.808  30.687   5.911
 4236POPC   C1A53955   5.119  31.015   6.145
 4236POPC   D2A53956   4.831  30.866   6.493
 4236POPC   C3A53957   4.807  30.942   6.958
 4236POPC   C4A53958   4.866  30.713   7.370
 4236POPC   C1B53959   5.153  30.523   6.244
 4236POPC   C2B53960   5.385  30.475   6.672
 4236POPC   C3B53961   5.368  30.558   7.149
 4236POPC   C4B53962   5.234  30.427   7.580
 4237POPC   NC353963  27.715  44.774   5.255
 4237POPC   PO453964  27.302  44.330   5.609
 4237POPC   GL153965  27.556  44.626   5.788
 4237POPC   GL253966  27.519  44.965   5.735
 4237POPC   C1A53967  27.412  44.713   6.199
 4237POPC   D2A53968  27.541  44.557   6.592
 4237POPC   C3A53969  27.364  44.743   6.919
 4237POPC   C4A53970  27.256  44.423   7.127
 4237POPC   C1B53971  27.806   0.021   6.162
 4237POPC   C2B53972  27.762   0.011   6.634
 4237POPC   C3B53973  27.821  44.913   7.087
 4237POPC   C4B53974  27.802   0.042   7.522
 4238POPC   NC353975  39.410   6.781   5.654
 4238POPC   PO453976  39.108   6.234   5.447
 4238POPC   GL153977  38.901   6.450   5.827
 4238POPC   GL253978  38.731   6.800   5.830
 4238POPC   C1A53979  38.961   6.606   6.248
 4238POPC   D2A53980  39.175   6.450   6.616
 4238POPC   C3A53981  39.040   6.579   7.019
 4238POPC   C4A53982  39.302   6.882   7.163
 4238POPC   C1B53983  38.685   7.115   6.204
 4238POPC   C2B53984  38.840   7.147   6.646
 4238POPC   C3B53985  38.807   7.039   7.100
 4238POPC   C4B53986  38.948   7.009   7.538
 4239POPC   NC353987  17.424  28.784   5.563
 4239POPC   PO453988  17.569  28.239   5.255
 4239POPC   GL153989  17.542  28.317   5.737
 4239POPC   GL253990  17.805  28.504   5.885
 4239POPC   C1A53991  17.328  28.482   6.132
 4239POPC   D2A53992  17.196  28.505   6.567
 4239POPC   C3A53993  17.406  28.754   6.894
 4239POPC   C4A53994  17.515  28.603   7.333
 4239POPC   C1B53995  17.803  28.700   6.293
 4239POPC   C2B53996  17.809  28.511   6.691
 4239POPC   C3B53997  17.830  28.309   7.076
 4239POPC   C4B53998  17.983  28.466   7.458
 4240POPC   NC353999  15.880  34.522   5.320
 4240POPC   PO454000  16.339  34.923   5.444
 4240POPC   GL154001  16.190  34.558   5.768
 4240POPC   GL254002  15.835  34.366   5.800
 4240POPC   C1A54003  16.039  34.603   6.211
 4240POPC   D2A54004  16.204  34.870   6.544
 4240POPC   C3A54005  16.122  34.736   6.957
 4240POPC   C4A54006  16.048  34.630   7.379
 4240POPC   C1B54007  15.877  34.065   6.169
 4240POPC   C2B54008  15.911  34.098   6.638
 4240POPC   C3B54009  16.126  34.183   7.047
 4240POPC   C4B54010  16.016  34.127   7.491
 4241POPC   NC354011  38.005  42.512   5.411
 4241POPC   PO454012  37.453  42.154   5.586
 4241POPC   GL154013  37.854  42.236   5.833
 4241POPC   GL254014  37.942  42.599   5.896
 4241POPC   C1A54015  37.933  42.238   6.283
 4241POPC   D2A54016  37.632  42.331   6.623
 4241POPC   C3A54017  37.668  42.122   7.004
 4241POPC   C4A54018  37.667  42.180   7.445
 4241POPC   C1B54019  37.837  42.751   6.270
 4241POPC   C2B54020  37.983  42.712   6.657
 4241POPC   C3B54021  37.859  42.601   7.072
 4241POPC   C4B54022  37.407  42.600   7.099
 4242POPC   NC354023   7.768  40.189   5.320
 4242POPC   PO454024   7.295  39.771   5.304
 4242POPC   GL154025   7.515  39.964   5.697
 4242POPC   GL254026   7.713  39.746   5.902
 4242POPC   C1A54027   7.647  40.241   6.061
 4242POPC   D2A54028   7.677  40.090   6.507
 4242POPC   C3A54029   7.494  40.308   6.873
 4242POPC   C4A54030   7.415  40.264   7.297
 4242POPC   C1B54031   7.328  39.840   6.168
 4242POPC   C2B54032   7.182  39.660   6.545
 4242POPC   C3B54033   7.296  39.840   6.938
 4242POPC   C4B54034   7.445  39.615   7.304
 4243POPC   NC354035  43.432  30.671   5.552
 4243POPC   PO454036  42.839  30.875   5.575
 4243POPC   GL154037  43.097  30.794   5.928
 4243POPC   GL254038  43.250  30.481   5.986
 4243POPC   C1A54039  42.945  30.713   6.323
 4243POPC   D2A54040  42.988  30.451   6.670
 4243POPC   C3A54041  43.098  30.672   7.066
 4243POPC   C4A54042  43.110  30.743   7.531
 4243POPC   C1B54043  43.434  30.612   6.414
 4243POPC   C2B54044  43.381  30.936   6.740
 4243POPC   C3B54045  43.585  31.065   7.119
 4243POPC   C4B54046  43.542  31.019   7.594
 4244POPC   NC354047  34.199   8.781   5.341
 4244POPC   PO454048  34.781   8.752   5.491
 4244POPC   GL154049  34.560   8.933   5.826
 4244POPC   GL254050  34.455   9.271   5.697
 4244POPC   C1A54051  34.688   8.963   6.264
 4244POPC   D2A54052  34.876   9.182   6.626
 4244POPC   C3A54053  34.751   9.023   7.028
 4244POPC   C4A54054  34.773   8.909   7.475
 4244POPC   C1B54055  34.316   9.310   6.149
 4244POPC   C2B54056  34.375   9.238   6.589
 4244POPC   C3B54057  34.528   9.453   6.944
 4244POPC   C4B54058  34.386   9.229   7.331
 4245POPC   NC354059  29.823  42.732   5.363
 4245POPC   PO454060  30.015  42.082   5.180
 4245POPC   GL154061  29.884  42.333   5.652
 4245POPC   GL254062  30.131  42.561   5.820
 4245POPC   C1A54063  29.666  42.523   6.043
 4245POPC   D2A54064  29.788  42.707   6.452
 4245POPC   C3A54065  29.906  42.460   6.814
 4245POPC   C4A54066  29.688  42.481   7.202
 4245POPC   C1B54067  30.065  42.237   6.149
 4245POPC   C2B54068  30.151  42.024   6.509
 4245POPC   C3B54069  30.176  42.016   6.923
 4245POPC   C4B54070  29.841  41.989   7.189
 4246POPC   NC354071  17.752  10.418   5.479
 4246POPC   PO454072  17.147  10.719   5.399
 4246POPC   GL154073  17.280  10.593   5.838
 4246POPC   GL254074  17.474  10.303   5.880
 4246POPC   C1A54075  17.429  10.568   6.316
 4246POPC   D2A54076  17.755  10.493   6.676
 4246POPC   C3A54077  17.542  10.606   7.078
 4246POPC   C4A54078  17.148  10.851   7.131
 4246POPC   C1B54079  17.666  10.102   6.211
 4246POPC   C2B54080  17.482  10.051   6.600
 4246POPC   C3B54081  17.638  10.112   7.031
 4246POPC   C4B54082  17.761  10.215   7.439
 4247POPC   NC354083  19.624   8.888   5.428
 4247POPC   PO454084  20.236   9.173   5.297
 4247POPC   GL154085  20.067   9.087   5.752
 4247POPC   GL254086  19.689   9.042   5.891
 4247POPC   C1A54087  20.025   9.259   6.184
 4247POPC   D2A54088  19.709   9.332   6.486
 4247POPC   C3A54089  19.681   9.080   6.864
 4247POPC   C4A54090  19.899   9.155   7.251
 4247POPC   C1B54091  19.771   8.823   6.279
 4247POPC   C2B54092  20.095   8.824   6.588
 4247POPC   C3B54093  20.032   8.721   7.014
 4247POPC   C4B54094  19.678   8.707   7.280
 4248POPC   NC354095  24.244  18.222   5.069
 4248POPC   PO454096  23.623  18.283   5.436
 4248POPC   GL154097  23.726  18.268   5.857
 4248POPC   GL254098  23.936  18.565   5.770
 4248POPC   C1A54099  23.726  18.308   6.301
 4248POPC   D2A54100  23.812  18.089   6.673
 4248POPC   C3A54101  23.679  18.242   7.044
 4248POPC   C4A54102  23.669  18.042   7.410
 4248POPC   C1B54103  24.103  18.625   6.180
 4248POPC   C2B54104  24.129  18.488   6.618
 4248POPC   C3B54105  24.169  18.398   7.055
 4248POPC   C4B54106  23.876  18.649   7.300
 4249POPC   NC354107  18.722  31.104   5.073
 4249POPC   PO454108  18.303  30.760   5.466
 4249POPC   GL154109  18.123  30.713   5.872
 4249POPC   GL254110  18.098  31.067   5.966
 4249POPC   C1A54111  18.264  30.676   6.315
 4249POPC   D2A54112  18.104  30.569   6.725
 4249POPC   C3A54113  18.401  30.566   7.086
 4249POPC   C4A54114  18.305  30.607   7.537
 4249POPC   C1B54115  18.475  31.135   6.257
 4249POPC   C2B54116  18.409  31.104   6.684
 4249POPC   C3B54117  18.369  31.081   7.109
 4249POPC   C4B54118  18.631  31.007   7.440
 4250POPC   NC354119   0.654  20.578   5.350
 4250POPC   PO454120   0.015  20.417   5.428
 4250POPC   GL154121   0.301  20.536   5.798
 4250POPC   GL254122   0.673  20.481   5.851
 4250POPC   C1A54123   0.356  20.786   6.208
 4250POPC   D2A54124   0.390  20.679   6.659
 4250POPC   C3A54125   0.378  20.928   7.062
 4250POPC   C4A54126   0.370  20.904   7.535
 4250POPC   C1B54127   0.741  20.492   6.304
 4250POPC   C2B54128   0.789  20.358   6.716
 4250POPC   C3B54129   0.621  20.486   7.084
 4250POPC   C4B54130   0.736  20.525   7.468
 4251POPC   NC354131  42.840   6.459   5.395
 4251POPC   PO454132  42.410   6.885   5.144
 4251POPC   GL154133  42.378   6.577   5.557
 4251POPC   GL254134  42.078   6.588   5.699
 4251POPC   C1A54135  42.472   6.462   6.051
 4251POPC   D2A54136  42.488   6.743   6.456
 4251POPC   C3A54137  42.438   6.623   6.902
 4251POPC   C4A54138  42.214   6.805   7.261
 4251POPC   C1B54139  42.068   6.755   6.114
 4251POPC   C2B54140  42.000   6.587   6.508
 4251POPC   C3B54141  41.935   6.537   6.921
 4251POPC   C4B54142  42.044   6.345   7.307
 4252POPC   NC354143  42.086  31.752   5.606
 4252POPC   PO454144  42.635  31.422   5.439
 4252POPC   GL154145  42.502  31.534   5.896
 4252POPC   GL254146  42.140  31.407   5.996
 4252POPC   C1A54147  42.512  31.286   6.307
 4252POPC   D2A54148  42.196  31.161   6.610
 4252POPC   C3A54149  42.355  31.173   7.018
 4252POPC   C4A54150  42.647  31.479   7.237
 4252POPC   C1B54151  42.202  31.733   6.264
 4252POPC   C2B54152  42.422  31.682   6.629
 4252POPC   C3B54153  42.240  31.667   6.993
 4252POPC   C4B54154  42.229  31.797   7.385
 4253POPC   NC354155  22.772  37.230   5.288
 4253POPC   PO454156  23.226  36.764   5.338
 4253POPC   GL154157  23.022  36.784   5.746
 4253POPC   GL254158  22.851  37.088   5.773
 4253POPC   C1A54159  23.054  36.752   6.211
 4253POPC   D2A54160  22.797  36.838   6.586
 4253POPC   C3A54161  22.895  36.753   7.008
 4253POPC   C4A54162  23.185  36.904   7.249
 4253POPC   C1B54163  23.191  37.223   6.005
 4253POPC   C2B54164  23.214  37.230   6.445
 4253POPC   C3B54165  23.095  37.230   6.867
 4253POPC   C4B54166  23.122  37.451   7.251
 4254POPC   NC354167  21.784   4.309   5.115
 4254POPC   PO454168  22.280   4.022   5.358
 4254POPC   GL154169  22.050   4.249   5.662
 4254POPC   GL254170  22.269   4.132   5.852
 4254POPC   C1A54171  22.006   4.559   6.015
 4254POPC   D2A54172  22.207   4.708   6.417
 4254POPC   C3A54173  22.034   4.620   6.845
 4254POPC   C4A54174  22.237   4.471   7.234
 4254POPC   C1B54175  21.988   4.068   6.154
 4254POPC   C2B54176  21.877   4.231   6.538
 4254POPC   C3B54177  22.124   4.099   6.890
 4254POPC   C4B54178  21.969   4.042   7.286
 4255POPC   NC354179  41.056  17.039   5.078
 4255POPC   PO454180  40.555  16.991   5.516
 4255POPC   GL154181  40.716  16.836   5.869
 4255POPC   GL254182  40.444  16.646   5.946
 4255POPC   C1A54183  40.887  16.620   6.186
 4255POPC   D2A54184  40.761  16.769   6.549
 4255POPC   C3A54185  41.068  16.738   6.828
 4255POPC   C4A54186  41.142  16.911   7.184
 4255POPC   C1B54187  40.377  16.456   6.331
 4255POPC   C2B54188  40.326  16.619   6.749
 4255POPC   C3B54189  40.627  16.716   7.073
 4255POPC   C4B54190  40.911  16.351   7.144
 4256POPC   NC354191  35.452  22.217   5.257
 4256POPC   PO454192  35.268  21.638   5.550
 4256POPC   GL154193  35.368  21.959   5.888
 4256POPC   GL254194  35.581  22.256   5.813
 4256POPC   C1A54195  35.290  22.126   6.331
 4256POPC   D2A54196  35.091  22.451   6.632
 4256POPC   C3A54197  35.177  22.404   7.082
 4256POPC   C4A54198  35.167  22.096   7.435
 4256POPC   C1B54199  35.642  22.494   6.230
 4256POPC   C2B54200  35.594  22.381   6.667
 4256POPC   C3B54201  35.656  22.168   7.063
 4256POPC   C4B54202  35.565  22.427   7.413
 4257POPC   NC354203  18.600  32.891   5.494
 4257POPC   PO454204  19.127  33.403   5.432
 4257POPC   GL154205  19.221  33.119   5.819
 4257POPC   GL254206  19.156  32.724   5.756
 4257POPC   C1A54207  19.076  33.125   6.285
 4257POPC   D2A54208  18.902  32.867   6.651
 4257POPC   C3A54209  18.878  33.078   7.041
 4257POPC   C4A54210  19.189  33.068   7.337
 4257POPC   C1B54211  19.081  32.623   6.205
 4257POPC   C2B54212  19.350  32.651   6.589
 4257POPC   C3B54213  19.215  32.622   7.001
 4257POPC   C4B54214  18.757  32.572   7.082
 4258POPC   NC354215  20.712  19.250   5.371
 4258POPC   PO454216  20.963  18.722   5.376
 4258POPC   GL154217  20.719  18.918   5.763
 4258POPC   GL254218  20.911  19.247   5.843
 4258POPC   C1A54219  20.540  19.100   6.188
 4258POPC   D2A54220  20.363  19.242   6.599
 4258POPC   C3A54221  20.154  18.961   6.867
 4258POPC   C4A54222  20.262  18.973   7.282
 4258POPC   C1B54223  21.064  18.947   6.146
 4258POPC   C2B54224  20.844  18.818   6.517
 4258POPC   C3B54225  20.682  18.964   6.917
 4258POPC   C4B54226  20.634  19.344   7.142
 4259POPC   NC354227   3.467  31.290   5.350
 4259POPC   PO454228   3.621  31.877   5.461
 4259POPC   GL154229   3.506  31.567   5.826
 4259POPC   GL254230   3.233  31.322   5.811
 4259POPC   C1A54231   3.789  31.420   6.196
 4259POPC   D2A54232   4.025  31.294   6.575
 4259POPC   C3A54233   3.748  31.336   6.884
 4259POPC   C4A54234   3.542  31.632   7.073
 4259POPC   C1B54235   3.354  31.134   6.181
 4259POPC   C2B54236   3.372  31.423   6.511
 4259POPC   C3B54237   3.212  31.294   6.862
 4259POPC   C4B54238   3.379  31.077   7.167
 4260POPC   NC354239  33.605   9.160   5.555
 4260POPC   PO454240  33.798   8.585   5.396
 4260POPC   GL154241  33.829   8.752   5.798
 4260POPC   GL254242  34.019   9.039   5.832
 4260POPC   C1A54243  33.673   8.911   6.210
 4260POPC   D2A54244  33.901   9.032   6.595
 4260POPC   C3A54245  33.659   8.940   6.973
 4260POPC   C4A54246  33.493   9.300   7.188
 4260POPC   C1B54247  34.185   8.804   6.192
 4260POPC   C2B54248  34.339   8.726   6.615
 4260POPC   C3B54249  34.179   8.828   7.021
 4260POPC   C4B54250  33.868   8.565   7.277
 4261POPC   NC354251  38.049  36.577   5.466
 4261POPC   PO454252  37.690  37.117   5.426
 4261POPC   GL154253  37.456  37.008   5.761
 4261POPC   GL254254  37.177  36.783   5.679
 4261POPC   C1A54255  37.654  37.052   6.148
 4261POPC   D2A54256  38.027  36.902   6.356
 4261POPC   C3A54257  37.997  36.907   6.779
 4261POPC   C4A54258  37.963  36.765   7.200
 4261POPC   C1B54259  37.331  36.626   6.105
 4261POPC   C2B54260  37.552  36.700   6.505
 4261POPC   C3B54261  37.521  36.888   6.909
 4261POPC   C4B54262  37.458  36.712   7.296
 4262POPC   NC354263  21.236  20.962   5.410
 4262POPC   PO454264  21.558  21.540   5.410
 4262POPC   GL154265  21.249  21.448   5.699
 4262POPC   GL254266  21.433  21.717   5.856
 4262POPC   C1A54267  21.089  21.303   6.114
 4262POPC   D2A54268  21.290  21.363   6.546
 4262POPC   C3A54269  21.128  21.234   6.902
 4262POPC   C4A54270  21.299  21.313   7.287
 4262POPC   C1B54271  21.290  21.773   6.239
 4262POPC   C2B54272  21.529  21.798   6.608
 4262POPC   C3B54273  21.278  21.740   6.974
 4262POPC   C4B54274  21.523  21.778   7.300
 4263POPC   NC354275  44.480  27.071   5.032
 4263POPC   PO454276   0.137  27.177   5.144
 4263POPC   GL154277  44.817  26.954   5.584
 4263POPC   GL254278  44.471  27.091   5.792
 4263POPC   C1A54279  44.809  26.884   6.103
 4263POPC   D2A54280  44.540  26.826   6.507
 4263POPC   C3A54281  44.635  26.622   6.912
 4263POPC   C4A54282  44.969  26.715   7.164
 4263POPC   C1B54283  44.349  27.244   6.249
 4263POPC   C2B54284  44.359  27.256   6.719
 4263POPC   C3B54285  44.366  27.016   7.074
 4263POPC   C4B54286  44.181  26.656   7.221
 4264POPC   NC354287   3.803   4.248   5.112
 4264POPC   PO454288   3.281   4.568   5.422
 4264POPC   GL154289   3.544   4.410   5.711
 4264POPC   GL254290   3.650   4.697   5.913
 4264POPC   C1A54291   3.675   4.187   6.089
 4264POPC   D2A54292   3.513   4.003   6.474
 4264POPC   C3A54293   3.705   4.061   6.879
 4264POPC   C4A54294   3.521   4.129   7.264
 4264POPC   C1B54295   3.445   4.592   6.336
 4264POPC   C2B54296   3.461   4.606   6.808
 4264POPC   C3B54297   3.339   4.611   7.258
 4264POPC   C4B54298   3.284   4.753   7.699
 4265POPC   NC354299   4.190  34.453   5.395
 4265POPC   PO454300   3.892  35.018   5.650
 4265POPC   GL154301   4.063  34.592   5.871
 4265POPC   GL254302   3.915  34.228   5.792
 4265POPC   C1A54303   4.154  34.625   6.307
 4265POPC   D2A54304   4.222  34.963   6.623
 4265POPC   C3A54305   4.498  34.856   6.950
 4265POPC   C4A54306   4.379  34.545   7.207
 4265POPC   C1B54307   3.792  34.248   6.238
 4265POPC   C2B54308   3.922  34.347   6.696
 4265POPC   C3B54309   3.970  34.228   7.152
 4265POPC   C4B54310   4.179  34.198   7.560
 4266POPC   NC354311  37.848   4.703   5.591
 4266POPC   PO454312  37.577   5.375   5.458
 4266POPC   GL154313  37.640   5.158   5.798
 4266POPC   GL254314  37.414   4.853   5.826
 4266POPC   C1A54315  37.800   5.351   6.173
 4266POPC   D2A54316  37.825   5.233   6.577
 4266POPC   C3A54317  37.682   5.433   6.925
 4266POPC   C4A54318  37.867   5.354   7.285
 4266POPC   C1B54319  37.631   4.846   6.208
 4266POPC   C2B54320  37.464   4.833   6.605
 4266POPC   C3B54321  37.685   4.905   6.961
 4266POPC   C4B54322  37.577   4.918   7.342
 4267POPC   NC354323   7.882   7.964   5.319
 4267POPC   PO454324   8.169   8.599   5.383
 4267POPC   GL154325   8.060   8.400   5.759
 4267POPC   GL254326   8.052   8.031   5.805
 4267POPC   C1A54327   8.062   8.516   6.180
 4267POPC   D2A54328   8.242   8.417   6.559
 4267POPC   C3A54329   8.003   8.422   6.917
 4267POPC   C4A54330   8.157   8.356   7.301
 4267POPC   C1B54331   8.061   7.889   6.235
 4267POPC   C2B54332   7.898   7.991   6.651
 4267POPC   C3B54333   8.015   7.881   7.098
 4267POPC   C4B54334   8.355   7.890   7.444
 4268POPC   NC354335   5.813  32.465   5.344
 4268POPC   PO454336   5.724  31.777   5.303
 4268POPC   GL154337   5.898  32.015   5.697
 4268POPC   GL254338   5.688  32.323   5.829
 4268POPC   C1A54339   6.027  32.142   6.147
 4268POPC   D2A54340   5.759  32.302   6.487
 4268POPC   C3A54341   5.934  32.275   6.915
 4268POPC   C4A54342   6.050  32.516   7.298
 4268POPC   C1B54343   5.528  31.993   6.112
 4268POPC   C2B54344   5.453  31.889   6.544
 4268POPC   C3B54345   5.419  32.197   6.890
 4268POPC   C4B54346   5.622  32.214   7.306
 4269POPC   NC354347  14.918  20.128   5.427
 4269POPC   PO454348  15.417  19.647   5.491
 4269POPC   GL154349  15.311  19.979   5.784
 4269POPC   GL254350  15.018  19.778   5.831
 4269POPC   C1A54351  15.201  20.021   6.252
 4269POPC   D2A54352  15.389  20.037   6.683
 4269POPC   C3A54353  15.208  19.992   7.125
 4269POPC   C4A54354  15.258  20.104   7.570
 4269POPC   C1B54355  14.996  19.539   6.257
 4269POPC   C2B54356  15.011  19.676   6.702
 4269POPC   C3B54357  15.037  19.490   7.127
 4269POPC   C4B54358  15.228  19.137   7.383
 4270POPC   NC354359   6.152  17.996   5.136
 4270POPC   PO454360   6.707  18.284   5.433
 4270POPC   GL154361   6.817  18.319   5.817
 4270POPC   GL254362   7.094  18.096   5.919
 4270POPC   C1A54363   6.537  18.391   6.121
 4270POPC   D2A54364   6.308  18.139   6.369
 4270POPC   C3A54365   6.546  18.255   6.705
 4270POPC   C4A54366   6.523  18.321   7.139
 4270POPC   C1B54367   7.074  18.463   6.220
 4270POPC   C2B54368   6.927  18.603   6.644
 4270POPC   C3B54369   6.869  18.696   7.097
 4270POPC   C4B54370   7.004  18.420   7.458
 4271POPC   NC354371  27.631   2.985   5.399
 4271POPC   PO454372  27.414   2.421   5.130
 4271POPC   GL154373  27.422   2.603   5.618
 4271POPC   GL254374  27.699   2.589   5.855
 4271POPC   C1A54375  27.292   2.815   6.051
 4271POPC   D2A54376  27.466   2.687   6.464
 4271POPC   C3A54377  27.352   2.826   6.862
 4271POPC   C4A54378  27.617   2.714   7.168
 4271POPC   C1B54379  27.757   2.977   6.150
 4271POPC   C2B54380  27.837   3.046   6.612
 4271POPC   C3B54381  28.091   2.927   7.019
 4271POPC   C4B54382  28.099   2.589   7.352
 4272POPC   NC354383   1.667  13.726   4.951
 4272POPC   PO454384   2.120  13.503   5.427
 4272POPC   GL154385   2.117  13.556   5.861
 4272POPC   GL254386   2.390  13.767   5.842
 4272POPC   C1A54387   2.004  13.407   6.290
 4272POPC   D2A54388   2.231  13.353   6.679
 4272POPC   C3A54389   2.039  13.494   7.055
 4272POPC   C4A54390   1.605  13.444   7.177
 4272POPC   C1B54391   2.157  13.894   6.243
 4272POPC   C2B54392   2.087  14.013   6.711
 4272POPC   C3B54393   2.251  13.956   7.147
 4272POPC   C4B54394   2.162  13.810   7.576
 4273POPC   NC354395  21.704   3.896   5.566
 4273POPC   PO454396  21.347   4.374   5.255
 4273POPC   GL154397  21.490   4.353   5.714
 4273POPC   GL254398  21.266   4.128   5.887
 4273POPC   C1A54399  21.512   4.449   6.200
 4273POPC   D2A54400  21.271   4.514   6.603
 4273POPC   C3A54401  21.507   4.671   6.937
 4273POPC   C4A54402  21.738   4.519   7.260
 4273POPC   C1B54403  21.516   3.928   6.232
 4273POPC   C2B54404  21.511   3.852   6.665
 4273POPC   C3B54405  21.561   4.134   6.972
 4273POPC   C4B54406  21.197   4.295   7.169
 4274POPC   NC354407  30.351   9.173   5.333
 4274POPC   PO454408  29.754   8.924   5.371
 4274POPC   GL154409  29.809   8.832   5.781
 4274POPC   GL254410  29.994   9.147   5.806
 4274POPC   C1A54411  29.731   8.838   6.230
 4274POPC   D2A54412  29.942   8.921   6.622
 4274POPC   C3A54413  29.764   8.724   6.968
 4274POPC   C4A54414  29.440   8.919   7.153
 4274POPC   C1B54415  30.026   9.294   6.218
 4274POPC   C2B54416  30.129   9.408   6.632
 4274POPC   C3B54417  30.115   9.225   7.041
 4274POPC   C4B54418  30.081   9.455   7.423
 4275POPC   NC354419  25.950   8.287   5.349
 4275POPC   PO454420  25.473   7.893   5.429
 4275POPC   GL154421  25.860   8.044   5.786
 4275POPC   GL254422  26.059   8.401   5.836
 4275POPC   C1A54423  26.131   8.038   6.212
 4275POPC   D2A54424  26.053   7.869   6.653
 4275POPC   C3A54425  26.217   8.056   7.044
 4275POPC   C4A54426  26.040   8.128   7.453
 4275POPC   C1B54427  26.015   8.539   6.282
 4275POPC   C2B54428  25.987   8.389   6.702
 4275POPC   C3B54429  25.950   8.538   7.127
 4275POPC   C4B54430  26.013   8.740   7.544
 4276POPC   NC354431  38.931  32.973   5.482
 4276POPC   PO454432  39.510  32.723   5.516
 4276POPC   GL154433  39.329  32.986   5.853
 4276POPC   GL254434  39.073  33.255   5.902
 4276POPC   C1A54435  39.392  33.113   6.279
 4276POPC   D2A54436  39.234  32.853   6.586
 4276POPC   C3A54437  39.511  32.839   6.915
 4276POPC   C4A54438  39.448  33.201   7.197
 4276POPC   C1B54439  38.891  33.161   6.305
 4276POPC   C2B54440  38.990  33.271   6.714
 4276POPC   C3B54441  38.861  33.094   7.067
 4276POPC   C4B54442  38.827  33.244   7.454
 4277POPC   NC354443  25.940  23.810   5.396
 4277POPC   PO454444  26.633  23.706   5.465
 4277POPC   GL154445  26.279  23.555   5.759
 4277POPC   GL254446  25.882  23.519   5.869
 4277POPC   C1A54447  26.228  23.748   6.160
 4277POPC   D2A54448  26.104  23.590   6.552
 4277POPC   C3A54449  26.220  23.820   6.927
 4277POPC   C4A54450  26.096  23.428   7.092
 4277POPC   C1B54451  25.725  23.831   6.202
 4277POPC   C2B54452  25.804  23.994   6.641
 4277POPC   C3B54453  25.721  23.828   7.074
 4277POPC   C4B54454  25.831  23.925   7.505
 4278POPC   NC354455   0.735  13.730   5.418
 4278POPC   PO454456   0.125  14.068   5.427
 4278POPC   GL154457   0.147  13.808   5.843
 4278POPC   GL254458   0.484  13.697   5.842
 4278POPC   C1A54459   0.318  13.686   6.298
 4278POPC   D2A54460   0.284  13.472   6.676
 4278POPC   C3A54461   0.330  13.759   7.003
 4278POPC   C4A54462   0.482  13.415   7.227
 4278POPC   C1B54463   0.554  14.068   6.058
 4278POPC   C2B54464   0.684  14.028   6.476
 4278POPC   C3B54465   0.825  13.774   6.835
 4278POPC   C4B54466   0.783  13.860   7.274
 4279POPC   NC354467  35.549   3.225   5.356
 4279POPC   PO454468  35.298   3.884   5.329
 4279POPC   GL154469  35.375   3.633   5.711
 4279POPC   GL254470  35.096   3.366   5.654
 4279POPC   C1A54471  35.488   3.780   6.184
 4279POPC   D2A54472  35.600   3.490   6.561
 4279POPC   C3A54473  35.562   3.719   6.952
 4279POPC   C4A54474  35.179   3.853   7.118
 4279POPC   C1B54475  35.096   3.463   6.116
 4279POPC   C2B54476  35.086   3.422   6.579
 4279POPC   C3B54477  35.224   3.334   7.002
 4279POPC   C4B54478  35.035   3.252   7.416
 4280POPC   NC354479  36.981   2.426   5.407
 4280POPC   PO454480  36.646   2.965   5.396
 4280POPC   GL154481  36.842   2.838   5.760
 4280POPC   GL254482  37.204   2.787   5.763
 4280POPC   C1A54483  36.747   2.924   6.175
 4280POPC   D2A54484  36.681   2.654   6.500
 4280POPC   C3A54485  36.752   2.891   6.868
 4280POPC   C4A54486  36.763   2.798   7.292
 4280POPC   C1B54487  37.271   2.962   6.198
 4280POPC   C2B54488  37.232   3.026   6.676
 4280POPC   C3B54489  37.199   2.749   7.058
 4280POPC   C4B54490  37.217   2.713   7.553
 4281POPC   NC354491  11.049  36.956   5.422
 4281POPC   PO454492  11.683  36.656   5.498
 4281POPC   GL154493  11.422  36.862   5.872
 4281POPC   GL254494  11.052  36.946   5.915
 4281POPC   C1A54495  11.326  36.948   6.355
 4281POPC   D2A54496  11.367  37.276   6.714
 4281POPC   C3A54497  11.452  37.034   7.095
 4281POPC   C4A54498  11.317  36.612   7.055
 4281POPC   C1B54499  10.955  37.269   6.206
 4281POPC   C2B54500  10.855  37.191   6.626
 4281POPC   C3B54501  10.962  37.094   7.034
 4281POPC   C4B54502  11.036  37.331   7.381
 4282POPC   NC354503  17.809  33.468   5.291
 4282POPC   PO454504  17.667  34.121   5.323
 4282POPC   GL154505  17.668  33.969   5.811
 4282POPC   GL254506  17.543  33.660   5.860
 4282POPC   C1A54507  17.806  33.727   6.259
 4282POPC   D2A54508  17.812  33.487   6.634
 4282POPC   C3A54509  17.600  33.683   6.971
 4282POPC   C4A54510  17.630  34.089   7.190
 4282POPC   C1B54511  17.336  33.901   6.228
 4282POPC   C2B54512  17.393  34.034   6.652
 4282POPC   C3B54513  17.163  33.972   7.038
 4282POPC   C4B54514  17.283  33.757   7.398
 4283POPC   NC354515  11.191   3.884   5.232
 4283POPC   PO454516  11.192   3.192   5.358
 4283POPC   GL154517  11.275   3.348   5.747
 4283POPC   GL254518  11.594   3.196   5.779
 4283POPC   C1A54519  11.238   3.627   6.110
 4283POPC   D2A54520  11.380   3.838   6.482
 4283POPC   C3A54521  11.513   3.589   6.857
 4283POPC   C4A54522  11.419   3.771   7.273
 4283POPC   C1B54523  11.414   3.056   6.135
 4283POPC   C2B54524  11.202   3.260   6.475
 4283POPC   C3B54525  11.150   3.197   6.905
 4283POPC   C4B54526  11.358   3.264   7.290
 4284POPC   NC354527   7.994  18.069   5.280
 4284POPC   PO454528   8.565  18.358   5.427
 4284POPC   GL154529   8.373  18.507   5.820
 4284POPC   GL254530   8.060  18.605   5.934
 4284POPC   C1A54531   8.430  18.396   6.263
 4284POPC   D2A54532   8.604  18.042   6.500
 4284POPC   C3A54533   8.454  18.091   6.931
 4284POPC   C4A54534   8.533  18.282   7.332
 4284POPC   C1B54535   7.902  18.447   6.292
 4284POPC   C2B54536   7.933  18.094   6.516
 4284POPC   C3B54537   7.823  18.091   6.910
 4284POPC   C4B54538   8.044  18.349   7.180
 4285POPC   NC354539  27.819  21.682   5.405
 4285POPC   PO454540  27.697  22.398   5.497
 4285POPC   GL154541  27.481  22.370   5.873
 4285POPC   GL254542  27.309  22.009   5.929
 4285POPC   C1A54543  27.620  22.513   6.267
 4285POPC   D2A54544  27.820  22.585   6.650
 4285POPC   C3A54545  27.573  22.499   6.996
 4285POPC   C4A54546  27.811  22.369   7.302
 4285POPC   C1B54547  27.704  22.015   6.184
 4285POPC   C2B54548  27.864  22.070   6.617
 4285POPC   C3B54549  27.627  21.979   6.988
 4285POPC   C4B54550  27.406  21.814   7.321
 4286POPC   NC354551   7.636  31.878   5.544
 4286POPC   PO454552   7.457  31.223   5.322
 4286POPC   GL154553   7.325  31.331   5.731
 4286POPC   GL254554   7.157  31.643   5.724
 4286POPC   C1A54555   7.262  31.200   6.177
 4286POPC   D2A54556   7.308  31.444   6.578
 4286POPC   C3A54557   7.145  31.308   6.980
 4286POPC   C4A54558   7.457  31.148   7.276
 4286POPC   C1B54559   7.346  31.761   6.112
 4286POPC   C2B54560   7.260  31.971   6.491
 4286POPC   C3B54561   7.507  31.867   6.839
 4286POPC   C4B54562   7.474  31.650   7.223
 4287POPC   NC354563  25.523  32.705   5.480
 4287POPC   PO454564  25.482  33.360   5.334
 4287POPC   GL154565  25.461  33.172   5.740
 4287POPC   GL254566  25.192  32.945   5.824
 4287POPC   C1A54567  25.504  33.142   6.199
 4287POPC   D2A54568  25.295  32.963   6.550
 4287POPC   C3A54569  25.537  32.964   6.908
 4287POPC   C4A54570  25.321  33.063   7.246
 4287POPC   C1B54571  24.940  32.690   6.119
 4287POPC   C2B54572  24.781  32.747   6.572
 4287POPC   C3B54573  24.992  32.791   6.968
 4287POPC   C4B54574  25.033  32.676   7.414
 4288POPC   NC354575  12.437  38.176   5.483
 4288POPC   PO454576  12.101  37.544   5.577
 4288POPC   GL154577  12.219  37.892   5.890
 4288POPC   GL254578  12.603  37.870   5.832
 4288POPC   C1A54579  11.944  38.027   6.290
 4288POPC   D2A54580  11.792  38.120   6.763
 4288POPC   C3A54581  11.904  37.776   7.071
 4288POPC   C4A54582  11.894  37.299   7.139
 4288POPC   C1B54583  12.597  37.627   6.145
 4288POPC   C2B54584  12.295  37.586   6.424
 4288POPC   C3B54585  12.321  37.539   6.849
 4288POPC   C4B54586  12.368  37.482   7.251
 4289POPC   NC354587  32.619  24.967   5.549
 4289POPC   PO454588  32.131  25.415   5.513
 4289POPC   GL154589  32.208  25.089   5.835
 4289POPC   GL254590  32.510  25.042   6.042
 4289POPC   C1A54591  32.039  24.947   6.248
 4289POPC   D2A54592  32.078  25.219   6.600
 4289POPC   C3A54593  32.348  25.080   6.843
 4289POPC   C4A54594  32.160  25.184   7.189
 4289POPC   C1B54595  32.316  25.418   6.203
 4289POPC   C2B54596  32.389  25.653   6.552
 4289POPC   C3B54597  32.395  25.600   6.974
 4289POPC   C4B54598  32.663  25.298   7.180
 4290POPC   NC354599  12.067  18.034   5.502
 4290POPC   PO454600  12.695  18.332   5.662
 4290POPC   GL154601  12.373  18.062   5.903
 4290POPC   GL254602  12.043  18.313   5.926
 4290POPC   C1A54603  12.164  18.022   6.311
 4290POPC   D2A54604  12.014  18.385   6.510
 4290POPC   C3A54605  12.007  18.421   6.941
 4290POPC   C4A54606  12.355  18.419   7.187
 4290POPC   C1B54607  11.689  18.165   6.201
 4290POPC   C2B54608  11.634  17.976   6.579
 4290POPC   C3B54609  11.592  18.118   6.985
 4290POPC   C4B54610  11.710  18.234   7.358
 4291POPC   NC354611   1.265  25.826   5.484
 4291POPC   PO454612   1.568  26.513   5.416
 4291POPC   GL154613   1.343  26.303   5.785
 4291POPC   GL254614   1.467  25.978   5.925
 4291POPC   C1A54615   1.153  26.305   6.214
 4291POPC   D2A54616   1.023  26.216   6.636
 4291POPC   C3A54617   1.280  26.309   6.975
 4291POPC   C4A54618   1.186  26.232   7.358
 4291POPC   C1B54619   1.600  25.736   6.287
 4291POPC   C2B54620   1.407  25.668   6.726
 4291POPC   C3B54621   1.435  25.785   7.174
 4291POPC   C4B54622   1.660  25.553   7.508
 4292POPC   NC354623  18.030  23.764   5.387
 4292POPC   PO454624  18.595  24.085   5.632
 4292POPC   GL154625  18.276  23.797   5.854
 4292POPC   GL254626  17.959  23.561   5.835
 4292POPC   C1A54627  18.110  23.819   6.275
 4292POPC   D2A54628  18.232  23.987   6.658
 4292POPC   C3A54629  18.009  23.976   7.015
 4292POPC   C4A54630  18.278  23.741   7.211
 4292POPC   C1B54631  17.929  23.345   6.228
 4292POPC   C2B54632  18.232  23.371   6.600
 4292POPC   C3B54633  18.464  23.288   6.993
 4292POPC   C4B54634  18.449  23.229   7.445
 4293POPC   NC354635  29.683  20.205   5.432
 4293POPC   PO454636  29.595  19.549   5.606
 4293POPC   GL154637  29.895  19.702   5.904
 4293POPC   GL254638  30.071  19.991   5.771
 4293POPC   C1A54639  29.766  19.691   6.323
 4293POPC   D2A54640  29.630  19.467   6.668
 4293POPC   C3A54641  29.685  19.730   6.977
 4293POPC   C4A54642  30.019  19.708   7.241
 4293POPC   C1B54643  30.069  20.085   6.217
 4293POPC   C2B54644  29.915  20.066   6.666
 4293POPC   C3B54645  30.072  20.178   7.076
 4293POPC   C4B54646  30.095  20.094   7.560
 4294POPC   NC354647  30.916   2.421   5.598
 4294POPC   PO454648  30.604   1.982   5.268
 4294POPC   GL154649  30.524   2.073   5.732
 4294POPC   GL254650  30.858   1.954   5.819
 4294POPC   C1A54651  30.346   2.015   6.193
 4294POPC   D2A54652  30.302   1.734   6.584
 4294POPC   C3A54653  30.485   1.916   6.978
 4294POPC   C4A54654  30.496   2.355   7.030
 4294POPC   C1B54655  30.842   2.178   6.225
 4294POPC   C2B54656  30.849   2.201   6.675
 4294POPC   C3B54657  31.002   1.964   7.024
 4294POPC   C4B54658  30.885   1.584   7.274
 4295POPC   NC354659  23.778  34.856   4.991
 4295POPC   PO454660  23.656  34.434   5.488
 4295POPC   GL154661  23.492  34.722   5.843
 4295POPC   GL254662  23.154  34.707   5.962
 4295POPC   C1A54663  23.507  34.675   6.333
 4295POPC   D2A54664  23.921  34.809   6.509
 4295POPC   C3A54665  23.965  34.846   6.951
 4295POPC   C4A54666  23.792  34.495   7.145
 4295POPC   C1B54667  23.146  34.308   6.186
 4295POPC   C2B54668  23.217  34.193   6.619
 4295POPC   C3B54669  23.311  34.432   6.995
 4295POPC   C4B54670  23.401  34.367   7.439
 4296POPC   NC354671  38.210  16.644   5.049
 4296POPC   PO454672  37.597  16.538   5.412
 4296POPC   GL154673  37.409  16.692   5.829
 4296POPC   GL254674  37.206  16.425   5.970
 4296POPC   C1A54675  37.431  16.901   6.289
 4296POPC   D2A54676  37.654  16.965   6.723
 4296POPC   C3A54677  37.451  16.858   7.134
 4296POPC   C4A54678  37.423  17.097   7.557
 4296POPC   C1B54679  37.628  16.440   6.220
 4296POPC   C2B54680  37.895  16.503   6.582
 4296POPC   C3B54681  37.843  16.532   7.024
 4296POPC   C4B54682  37.922  16.238   7.387
 4297POPC   NC354683  23.708  16.445   5.531
 4297POPC   PO454684  24.110  16.968   5.579
 4297POPC   GL154685  23.784  16.998   5.919
 4297POPC   GL254686  23.636  16.658   5.993
 4297POPC   C1A54687  23.755  16.994   6.384
 4297POPC   D2A54688  23.745  16.560   6.521
 4297POPC   C3A54689  23.837  16.440   6.909
 4297POPC   C4A54690  23.950  16.441   7.328
 4297POPC   C1B54691  23.355  16.375   6.234
 4297POPC   C2B54692  23.298  16.379   6.670
 4297POPC   C3B54693  23.464  16.790   6.878
 4297POPC   C4B54694  23.615  16.826   7.280
 4298POPC   NC354695  34.812  28.073   5.422
 4298POPC   PO454696  34.151  28.397   5.327
 4298POPC   GL154697  34.523  28.466   5.612
 4298POPC   GL254698  34.408  28.692   5.809
 4298POPC   C1A54699  34.710  28.309   6.035
 4298POPC   D2A54700  34.689  28.309   6.496
 4298POPC   C3A54701  34.770  28.195   6.927
 4298POPC   C4A54702  34.662  28.345   7.335
 4298POPC   C1B54703  34.297  28.581   6.221
 4298POPC   C2B54704  34.156  28.357   6.553
 4298POPC   C3B54705  34.282  28.383   6.973
 4298POPC   C4B54706  34.282  28.768   7.191
 4299POPC   NC354707   5.258   8.367   5.400
 4299POPC   PO454708   4.702   8.008   5.411
 4299POPC   GL154709   5.006   8.082   5.748
 4299POPC   GL254710   5.286   7.863   5.778
 4299POPC   C1A54711   5.262   8.333   6.070
 4299POPC   D2A54712   5.153   8.472   6.492
 4299POPC   C3A54713   5.220   8.347   6.935
 4299POPC   C4A54714   4.843   8.413   7.180
 4299POPC   C1B54715   5.094   7.876   6.210
 4299POPC   C2B54716   5.266   7.936   6.615
 4299POPC   C3B54717   5.383   7.837   7.054
 4299POPC   C4B54718   5.043   7.963   7.317
 4300POPC   NC354719  29.626  36.512   5.481
 4300POPC   PO454720  28.932  36.207   5.532
 4300POPC   GL154721  29.296  36.265   5.781
 4300POPC   GL254722  29.205  36.610   5.787
 4300POPC   C1A54723  29.417  36.214   6.205
 4300POPC   D2A54724  29.185  36.017   6.531
 4300POPC   C3A54725  29.276  36.039   6.965
 4300POPC   C4A54726  28.945  35.828   7.220
 4300POPC   C1B54727  29.003  36.510   6.175
 4300POPC   C2B54728  29.079  36.499   6.623
 4300POPC   C3B54729  28.837  36.271   6.905
 4300POPC   C4B54730  28.648  36.379   7.267
 4301POPC   NC354731  12.998  34.132   5.562
 4301POPC   PO454732  13.202  34.783   5.463
 4301POPC   GL154733  12.980  34.610   5.888
 4301POPC   GL254734  12.675  34.819   6.015
 4301POPC   C1A54735  12.981  34.586   6.370
 4301POPC   D2A54736  12.859  34.847   6.740
 4301POPC   C3A54737  12.810  34.557   7.063
 4301POPC   C4A54738  13.140  34.279   7.199
 4301POPC   C1B54739  12.491  34.488   6.238
 4301POPC   C2B54740  12.513  34.486   6.640
 4301POPC   C3B54741  12.318  34.312   6.948
 4301POPC   C4B54742  12.181  34.658   7.190
 4302POPC   NC354743  26.730   3.774   5.642
 4302POPC   PO454744  27.182   3.283   5.434
 4302POPC   GL154745  27.066   3.416   5.831
 4302POPC   GL254746  27.227   3.724   5.878
 4302POPC   C1A54747  26.917   3.543   6.261
 4302POPC   D2A54748  26.664   3.414   6.626
 4302POPC   C3A54749  26.839   3.441   7.038
 4302POPC   C4A54750  26.799   3.729   7.354
 4302POPC   C1B54751  27.171   4.011   6.181
 4302POPC   C2B54752  27.293   3.800   6.535
 4302POPC   C3B54753  27.301   3.923   6.926
 4302POPC   C4B54754  27.304   3.645   7.236
 4303POPC   NC354755  28.862  19.635   5.482
 4303POPC   PO454756  29.225  20.166   5.376
 4303POPC   GL154757  29.216  19.923   5.760
 4303POPC   GL254758  29.523  20.038   5.881
 4303POPC   C1A54759  29.273  19.707   6.172
 4303POPC   D2A54760  29.177  19.386   6.468
 4303POPC   C3A54761  29.174  19.571   6.883
 4303POPC   C4A54762  29.244  19.690   7.282
 4303POPC   C1B54763  29.581  20.175   6.283
 4303POPC   C2B54764  29.378  19.989   6.621
 4303POPC   C3B54765  29.301  20.116   7.025
 4303POPC   C4B54766  29.641  20.057   7.352
 4304POPC   NC354767  22.410  24.262   5.270
 4304POPC   PO454768  21.790  24.548   5.185
 4304POPC   GL154769  22.060  24.516   5.613
 4304POPC   GL254770  22.290  24.249   5.762
 4304POPC   C1A54771  22.074  24.580   6.098
 4304POPC   D2A54772  22.189  24.505   6.539
 4304POPC   C3A54773  22.015  24.790   6.865
 4304POPC   C4A54774  22.257  24.645   7.176
 4304POPC   C1B54775  22.219  24.084   6.185
 4304POPC   C2B54776  22.352  23.957   6.585
 4304POPC   C3B54777  22.315  24.144   6.960
 4304POPC   C4B54778  22.473  24.148   7.374
 4305POPC   NC354779   0.877   1.408   5.423
 4305POPC   PO454780   0.187   1.279   5.233
 4305POPC   GL154781   0.396   1.324   5.686
 4305POPC   GL254782   0.700   1.104   5.809
 4305POPC   C1A54783   0.406   1.330   6.174
 4305POPC   D2A54784   0.364   1.009   6.531
 4305POPC   C3A54785   0.355   1.184   6.955
 4305POPC   C4A54786   0.603   1.518   7.121
 4305POPC   C1B54787   0.830   1.055   6.272
 4305POPC   C2B54788   0.815   1.174   6.741
 4305POPC   C3B54789   0.804   1.059   7.219
 4305POPC   C4B54790   0.772   0.973   7.700
 4306POPC   NC354791  25.315  28.087   5.468
 4306POPC   PO454792  25.151  28.681   5.082
 4306POPC   GL154793  25.159  28.574   5.608
 4306POPC   GL254794  24.888  28.809   5.756
 4306POPC   C1A54795  25.357  28.362   6.073
 4306POPC   D2A54796  25.577  28.243   6.506
 4306POPC   C3A54797  25.593  28.521   6.886
 4306POPC   C4A54798  25.460  28.471   7.346
 4306POPC   C1B54799  24.903  28.572   6.136
 4306POPC   C2B54800  25.081  28.476   6.536
 4306POPC   C3B54801  25.107  28.352   6.954
 4306POPC   C4B54802  24.939  28.441   7.327
 4307POPC   NC354803   3.885  42.256   5.034
 4307POPC   PO454804   4.362  42.274   5.480
 4307POPC   GL154805   4.277  42.080   5.921
 4307POPC   GL254806   3.937  42.140   6.030
 4307POPC   C1A54807   4.280  42.065   6.415
 4307POPC   D2A54808   4.148  42.317   6.812
 4307POPC   C3A54809   4.435  42.561   7.067
 4307POPC   C4A54810   4.424  42.652   7.509
 4307POPC   C1B54811   4.006  42.527   6.335
 4307POPC   C2B54812   4.069  42.806   6.738
 4307POPC   C3B54813   3.921  42.659   7.171
 4307POPC   C4B54814   3.906  42.639   7.635
 4308POPC   NC354815  37.444  31.385   5.412
 4308POPC   PO454816  38.043  30.957   5.277
 4308POPC   GL154817  37.864  31.119   5.726
 4308POPC   GL254818  37.526  31.286   5.891
 4308POPC   C1A54819  37.940  31.294   6.172
 4308POPC   D2A54820  37.979  31.587   6.509
 4308POPC   C3A54821  37.858  31.358   6.851
 4308POPC   C4A54822  37.768  31.372   7.250
 4308POPC   C1B54823  37.372  31.652   6.151
 4308POPC   C2B54824  37.468  31.696   6.597
 4308POPC   C3B54825  37.346  31.469   6.951
 4308POPC   C4B54826  37.307  31.632   7.339
 4309POPC   NC354827   3.354  34.975   5.562
 4309POPC   PO454828   3.738  34.481   5.343
 4309POPC   GL154829   3.572  34.590   5.778
 4309POPC   GL254830   3.256  34.513   5.908
 4309POPC   C1A54831   3.643  34.731   6.214
 4309POPC   D2A54832   3.385  34.562   6.547
 4309POPC   C3A54833   3.479  34.411   6.966
 4309POPC   C4A54834   3.746  34.682   7.193
 4309POPC   C1B54835   3.161  34.904   6.190
 4309POPC   C2B54836   2.982  34.937   6.578
 4309POPC   C3B54837   3.238  34.880   6.937
 4309POPC   C4B54838   3.259  34.681   7.346
 4310POPC   NC354839   4.833   2.463   5.409
 4310POPC   PO454840   4.364   2.928   5.175
 4310POPC   GL154841   4.296   2.950   5.624
 4310POPC   GL254842   4.611   2.809   5.769
 4310POPC   C1A54843   4.175   2.914   6.055
 4310POPC   D2A54844   4.410   2.803   6.426
 4310POPC   C3A54845   4.204   2.913   6.823
 4310POPC   C4A54846   4.360   2.828   7.224
 4310POPC   C1B54847   4.643   2.449   6.069
 4310POPC   C2B54848   4.767   2.396   6.489
 4310POPC   C3B54849   4.576   2.531   6.860
 4310POPC   C4B54850   4.578   2.353   7.278
 4311POPC   NC354851  36.719   9.617   5.453
 4311POPC   PO454852  37.330   9.828   5.570
 4311POPC   GL154853  36.927   9.849   5.865
 4311POPC   GL254854  36.613  10.069   5.866
 4311POPC   C1A54855  36.676   9.616   6.198
 4311POPC   D2A54856  36.694   9.392   6.618
 4311POPC   C3A54857  36.684   9.593   7.029
 4311POPC   C4A54858  37.006   9.884   7.185
 4311POPC   C1B54859  36.671  10.109   6.350
 4311POPC   C2B54860  36.472  10.219   6.768
 4311POPC   C3B54861  36.761  10.357   7.112
 4311POPC   C4B54862  37.015  10.289   7.519
 4312POPC   NC354863  14.928  26.199   5.341
 4312POPC   PO454864  15.555  26.148   5.541
 4312POPC   GL154865  15.302  25.926   5.822
 4312POPC   GL254866  14.945  25.896   5.760
 4312POPC   C1A54867  15.213  26.092   6.226
 4312POPC   D2A54868  15.440  26.322   6.511
 4312POPC   C3A54869  15.238  26.177   6.890
 4312POPC   C4A54870  15.205  26.419   7.248
 4312POPC   C1B54871  14.768  25.838   6.156
 4312POPC   C2B54872  14.754  26.061   6.535
 4312POPC   C3B54873  14.756  25.956   6.955
 4312POPC   C4B54874  14.955  25.982   7.346
 4313POPC   NC354875  17.762   7.257   5.548
 4313POPC   PO454876  18.431   7.209   5.581
 4313POPC   GL154877  18.178   7.545   5.791
 4313POPC   GL254878  17.940   7.336   6.026
 4313POPC   C1A54879  18.169   7.754   6.200
 4313POPC   D2A54880  18.116   7.484   6.560
 4313POPC   C3A54881  18.007   7.565   6.969
 4313POPC   C4A54882  18.126   7.314   7.330
 4313POPC   C1B54883  18.336   7.168   6.226
 4313POPC   C2B54884  18.487   6.982   6.618
 4313POPC   C3B54885  18.554   7.125   7.042
 4313POPC   C4B54886  18.565   6.975   7.458
 4314POPC   NC354887   3.010  42.287   5.397
 4314POPC   PO454888   2.463  42.546   5.507
 4314POPC   GL154889   2.659  42.329   5.854
 4314POPC   GL254890   3.001  42.349   5.915
 4314POPC   C1A54891   2.650  42.177   6.296
 4314POPC   D2A54892   2.644  42.378   6.731
 4314POPC   C3A54893   2.444  42.171   7.104
 4314POPC   C4A54894   2.672  41.989   7.488
 4314POPC   C1B54895   3.014  42.532   6.338
 4314POPC   C2B54896   3.128  42.579   6.769
 4314POPC   C3B54897   2.985  42.664   7.150
 4314POPC   C4B54898   2.939  42.906   7.485
 4315POPC   NC354899   7.613   0.718   5.344
 4315POPC   PO454900   7.146   0.259   5.346
 4315POPC   GL154901   7.342   0.408   5.714
 4315POPC   GL254902   7.646   0.201   5.747
 4315POPC   C1A54903   7.270   0.283   6.159
 4315POPC   D2A54904   7.422   0.103   6.533
 4315POPC   C3A54905   7.276   0.304   6.923
 4315POPC   C4A54906   7.087   0.449   7.317
 4315POPC   C1B54907   7.697   0.550   6.049
 4315POPC   C2B54908   7.537   0.651   6.445
 4315POPC   C3B54909   7.693   0.655   6.865
 4315POPC   C4B54910   7.580   0.533   7.260
 4316POPC   NC354911  33.088  23.178   5.420
 4316POPC   PO454912  32.966  22.552   5.139
 4316POPC   GL154913  32.891  22.664   5.628
 4316POPC   GL254914  33.094  22.908   5.823
 4316POPC   C1A54915  32.854  22.694   6.173
 4316POPC   D2A54916  33.275  22.701   6.430
 4316POPC   C3A54917  33.233  22.827   6.872
 4316POPC   C4A54918  32.941  22.675   7.211
 4316POPC   C1B54919  33.229  23.140   6.178
 4316POPC   C2B54920  33.109  23.363   6.536
 4316POPC   C3B54921  32.969  23.488   6.925
 4316POPC   C4B54922  33.076  23.183   7.234
 4317POPC   NC354923  36.462  31.325   5.352
 4317POPC   PO454924  37.066  31.572   5.168
 4317POPC   GL154925  36.932  31.456   5.587
 4317POPC   GL254926  36.661  31.649   5.750
 4317POPC   C1A54927  36.981  31.322   6.035
 4317POPC   D2A54928  37.174  31.247   6.451
 4317POPC   C3A54929  36.889  31.299   6.796
 4317POPC   C4A54930  36.932  31.284   7.250
 4317POPC   C1B54931  36.836  31.812   6.156
 4317POPC   C2B54932  36.965  31.795   6.592
 4317POPC   C3B54933  36.876  31.749   7.044
 4317POPC   C4B54934  36.799  31.756   7.476
 4318POPC   NC354935   1.560   7.363   5.039
 4318POPC   PO454936   1.022   7.337   5.454
 4318POPC   GL154937   0.940   7.347   5.860
 4318POPC   GL254938   0.676   7.597   5.827
 4318POPC   C1A54939   1.205   7.260   6.227
 4318POPC   D2A54940   1.450   7.158   6.632
 4318POPC   C3A54941   1.268   7.222   7.053
 4318POPC   C4A54942   1.488   7.329   7.497
 4318POPC   C1B54943   0.834   7.681   6.232
 4318POPC   C2B54944   0.961   7.500   6.611
 4318POPC   C3B54945   0.908   7.591   7.007
 4318POPC   C4B54946   1.120   7.656   7.331
 4319POPC   NC354947  12.582  19.647   5.267
 4319POPC   PO454948  13.184  19.910   5.457
 4319POPC   GL154949  12.870  19.909   5.777
 4319POPC   GL254950  12.549  20.024   5.663
 4319POPC   C1A54951  12.921  19.950   6.243
 4319POPC   D2A54952  13.130  19.811   6.617
 4319POPC   C3A54953  13.085  20.106   6.953
 4319POPC   C4A54954  13.006  19.961   7.331
 4319POPC   C1B54955  12.445  19.866   6.089
 4319POPC   C2B54956  12.471  19.733   6.518
 4319POPC   C3B54957  12.697  19.752   6.903
 4319POPC   C4B54958  12.550  19.746   7.296
 4320POPC   NC354959  37.927  39.502   5.600
 4320POPC   PO454960  37.500  39.031   5.405
 4320POPC   GL154961  37.593  39.032   5.845
 4320POPC   GL254962  37.936  39.064   5.861
 4320POPC   C1A54963  37.437  39.236   6.239
 4320POPC   D2A54964  37.149  39.155   6.596
 4320POPC   C3A54965  37.385  39.008   6.944
 4320POPC   C4A54966  37.654  39.198   7.151
 4320POPC   C1B54967  37.971  39.211   6.254
 4320POPC   C2B54968  37.821  39.177   6.658
 4320POPC   C3B54969  38.075  39.393   6.956
 4320POPC   C4B54970  37.911  39.552   7.351
 4321POPC   NC354971   3.306  11.151   5.625
 4321POPC   PO454972   2.785  11.481   5.326
 4321POPC   GL154973   2.836  11.388   5.805
 4321POPC   GL254974   3.123  11.312   6.048
 4321POPC   C1A54975   2.640  11.336   6.249
 4321POPC   D2A54976   2.645  11.638   6.597
 4321POPC   C3A54977   2.625  11.476   7.000
 4321POPC   C4A54978   2.502  11.073   7.079
 4321POPC   C1B54979   3.002  10.995   6.332
 4321POPC   C2B54980   2.856  11.107   6.700
 4321POPC   C3B54981   3.015  11.138   7.091
 4321POPC   C4B54982   2.841  10.987   7.451
 4322POPC   NC354983  28.170   0.592   5.368
 4322POPC   PO454984  27.991   0.045   5.531
 4322POPC   GL154985  28.268   0.293   5.781
 4322POPC   GL254986  28.189   0.671   5.848
 4322POPC   C1A54987  28.299   0.326   6.196
 4322POPC   D2A54988  28.091   0.380   6.513
 4322POPC   C3A54989  28.328   0.351   6.875
 4322POPC   C4A54990  28.218   0.196   7.272
 4322POPC   C1B54991  28.519   0.783   6.124
 4322POPC   C2B54992  28.496   0.718   6.540
 4322POPC   C3B54993  28.447   0.868   6.957
 4322POPC   C4B54994  28.417   0.659   7.305
 4323POPC   NC354995   1.725  29.528   5.152
 4323POPC   PO454996   2.168  29.958   5.268
 4323POPC   GL154997   1.982  30.082   5.688
 4323POPC   GL254998   1.759  29.810   5.807
 4323POPC   C1A54999   2.157  30.176   6.110
 4323POPC   D2A55000   2.122  29.910   6.472
 4323POPC   C3A55001   2.134  29.897   6.921
 4323POPC   C4A55002   2.004  30.189   7.224
 4323POPC   C1B55003   1.730  29.680   6.247
 4323POPC   C2B55004   1.823  29.544   6.699
 4323POPC   C3B55005   1.719  29.666   7.136
 4323POPC   C4B55006   1.703  29.481   7.565
 4324POPC   NC355007   9.560  43.265   5.396
 4324POPC   PO455008  10.100  42.936   5.549
 4324POPC   GL155009   9.836  42.990   5.916
 4324POPC   GL255010   9.608  43.274   5.907
 4324POPC   C1A55011   9.809  43.154   6.345
 4324POPC   D2A55012   9.988  43.311   6.699
 4324POPC   C3A55013   9.853  43.023   6.962
 4324POPC   C4A55014   9.705  43.105   7.333
 4324POPC   C1B55015   9.333  43.410   6.254
 4324POPC   C2B55016   9.239  43.408   6.691
 4324POPC   C3B55017   9.556  43.476   7.020
 4324POPC   C4B55018   9.689  43.661   7.411
 4325POPC   NC355019  40.152  23.244   5.544
 4325POPC   PO455020  39.845  22.674   5.274
 4325POPC   GL155021  39.788  22.809   5.715
 4325POPC   GL255022  39.962  22.573   5.940
 4325POPC   C1A55023  39.876  23.069   6.111
 4325POPC   D2A55024  40.175  23.224   6.439
 4325POPC   C3A55025  40.212  23.043   6.847
 4325POPC   C4A55026  39.940  23.101   7.178
 4325POPC   C1B55027  40.061  22.678   6.395
 4325POPC   C2B55028  39.766  22.747   6.746
 4325POPC   C3B55029  39.782  22.615   7.161
 4325POPC   C4B55030  40.174  22.669   7.367
 4326POPC   NC355031   8.490  26.716   5.242
 4326POPC   PO455032   8.138  27.285   5.266
 4326POPC   GL155033   8.006  27.035   5.722
 4326POPC   GL255034   8.132  26.658   5.740
 4326POPC   C1A55035   8.025  27.018   6.177
 4326POPC   D2A55036   7.926  26.901   6.599
 4326POPC   C3A55037   8.256  26.827   6.883
 4326POPC   C4A55038   8.175  26.758   7.295
 4326POPC   C1B55039   8.284  26.584   6.186
 4326POPC   C2B55040   8.169  26.422   6.593
 4326POPC   C3B55041   8.341  26.345   7.034
 4326POPC   C4B55042   8.404  26.333   7.478
 4327POPC   NC355043  12.146  10.841   5.367
 4327POPC   PO455044  11.908  10.126   5.371
 4327POPC   GL155045  11.990  10.226   5.814
 4327POPC   GL255046  12.164  10.554   5.863
 4327POPC   C1A55047  11.979  10.327   6.279
 4327POPC   D2A55048  12.191  10.507   6.654
 4327POPC   C3A55049  12.020  10.293   7.027
 4327POPC   C4A55050  12.137  10.339   7.462
 4327POPC   C1B55051  12.169  10.819   6.245
 4327POPC   C2B55052  11.943  10.968   6.618
 4327POPC   C3B55053  12.127  10.869   7.017
 4327POPC   C4B55054  11.954  10.822   7.417
 4328POPC   NC355055  38.388   0.496   5.487
 4328POPC   PO455056  37.861   0.147   5.768
 4328POPC   GL155057  38.277   0.307   5.988
 4328POPC   GL255058  38.620   0.493   5.929
 4328POPC   C1A55059  38.459   0.416   6.409
 4328POPC   D2A55060  38.643   0.170   6.699
 4328POPC   C3A55061  38.416   0.098   7.007
 4328POPC   C4A55062  38.638   0.366   7.250
 4328POPC   C1B55063  38.320   0.810   6.124
 4328POPC   C2B55064  38.218   0.873   6.569
 4328POPC   C3B55065  38.306   0.592   6.895
 4328POPC   C4B55066  38.157   0.596   7.308
 4329POPC   NC355067  39.680   7.407   5.688
 4329POPC   PO455068  40.174   7.492   5.194
 4329POPC   GL155069  40.178   7.358   5.702
 4329POPC   GL255070  40.307   7.080   5.875
 4329POPC   C1A55071  40.056   7.464   6.199
 4329POPC   D2A55072  39.884   7.166   6.526
 4329POPC   C3A55073  39.682   7.213   6.948
 4329POPC   C4A55074  39.792   7.443   7.286
 4329POPC   C1B55075  40.497   7.212   6.240
 4329POPC   C2B55076  40.358   7.335   6.642
 4329POPC   C3B55077  40.180   7.072   6.945
 4329POPC   C4B55078  40.177   7.081   7.355
 4330POPC   NC355079  32.676  10.196   5.340
 4330POPC   PO455080  32.960  10.806   5.328
 4330POPC   GL155081  32.986  10.679   5.747
 4330POPC   GL255082  33.114  10.357   5.739
 4330POPC   C1A55083  32.894  10.708   6.188
 4330POPC   D2A55084  33.054  10.944   6.557
 4330POPC   C3A55085  33.127  10.660   6.902
 4330POPC   C4A55086  32.768  10.533   7.149
 4330POPC   C1B55087  33.090  10.192   6.176
 4330POPC   C2B55088  32.964  10.256   6.632
 4330POPC   C3B55089  32.892  10.036   7.037
 4330POPC   C4B55090  32.877  10.048   7.531
 4331POPC   NC355091  27.389   7.630   5.474
 4331POPC   PO455092  27.922   7.191   5.500
 4331POPC   GL155093  27.762   7.482   5.803
 4331POPC   GL255094  27.394   7.383   5.920
 4331POPC   C1A55095  27.725   7.667   6.192
 4331POPC   D2A55096  27.519   7.523   6.566
 4331POPC   C3A55097  27.729   7.489   6.967
 4331POPC   C4A55098  27.982   7.397   7.323
 4331POPC   C1B55099  27.206   7.744   6.169
 4331POPC   C2B55100  27.171   7.921   6.614
 4331POPC   C3B55101  27.281   7.733   6.997
 4331POPC   C4B55102  27.552   7.824   7.318
 4332POPC   NC355103  27.271  32.346   5.085
 4332POPC   PO455104  26.680  31.976   5.114
 4332POPC   GL155105  26.832  31.900   5.724
 4332POPC   GL255106  26.948  32.262   5.844
 4332POPC   C1A55107  26.706  31.959   6.184
 4332POPC   D2A55108  26.625  32.235   6.561
 4332POPC   C3A55109  26.643  32.136   7.015
 4332POPC   C4A55110  26.528  32.465   7.324
 4332POPC   C1B55111  27.187  32.154   6.207
 4332POPC   C2B55112  27.140  32.133   6.641
 4332POPC   C3B55113  27.097  32.388   6.972
 4332POPC   C4B55114  27.005  32.273   7.404
 4333POPC   NC355115   3.230   1.304   4.860
 4333POPC   PO455116   2.860   1.232   5.396
 4333POPC   GL155117   2.761   1.383   5.780
 4333POPC   GL255118   2.449   1.212   5.865
 4333POPC   C1A55119   2.929   1.427   6.189
 4333POPC   D2A55120   2.909   1.149   6.577
 4333POPC   C3A55121   2.709   1.273   6.960
 4333POPC   C4A55122   2.621   1.117   7.379
 4333POPC   C1B55123   2.464   1.288   6.329
 4333POPC   C2B55124   2.251   1.347   6.699
 4333POPC   C3B55125   2.184   1.230   7.098
 4333POPC   C4B55126   2.185   1.412   7.492
 4334POPC   NC355127  10.126  19.594   5.351
 4334POPC   PO455128  10.785  19.733   5.562
 4334POPC   GL155129  10.418  19.817   5.764
 4334POPC   GL255130  10.594  20.065   5.956
 4334POPC   C1A55131  10.247  19.775   6.174
 4334POPC   D2A55132  10.481  19.848   6.540
 4334POPC   C3A55133  10.241  19.790   6.900
 4334POPC   C4A55134  10.359  19.687   7.289
 4334POPC   C1B55135  10.933  20.113   6.272
 4334POPC   C2B55136  10.986  19.808   6.592
 4334POPC   C3B55137  10.776  19.733   6.995
 4334POPC   C4B55138  10.748  20.000   7.375
 4335POPC   NC355139  19.538  28.590   5.118
 4335POPC   PO455140  20.035  28.197   5.404
 4335POPC   GL155141  19.937  28.135   5.847
 4335POPC   GL255142  19.665  28.423   5.847
 4335POPC   C1A55143  19.970  28.329   6.256
 4335POPC   D2A55144  19.666  28.557   6.511
 4335POPC   C3A55145  19.669  28.457   6.945
 4335POPC   C4A55146  20.014  28.464   7.243
 4335POPC   C1B55147  19.514  28.118   6.167
 4335POPC   C2B55148  19.704  27.941   6.518
 4335POPC   C3B55149  19.986  28.066   6.826
 4335POPC   C4B55150  19.788  28.011   7.204
 4336POPC   NC355151  22.519   4.433   5.350
 4336POPC   PO455152  23.104   4.048   5.324
 4336POPC   GL155153  23.022   4.248   5.726
 4336POPC   GL255154  22.713   4.391   5.834
 4336POPC   C1A55155  23.185   4.476   6.084
 4336POPC   D2A55156  23.009   4.393   6.483
 4336POPC   C3A55157  23.125   4.508   6.874
 4336POPC   C4A55158  22.978   4.513   7.332
 4336POPC   C1B55159  22.559   4.234   6.231
 4336POPC   C2B55160  22.612   4.084   6.617
 4336POPC   C3B55161  22.640   4.363   6.938
 4336POPC   C4B55162  22.555   4.090   7.240
 4337POPC   NC355163  44.981   2.884   5.310
 4337POPC   PO455164  44.369   2.708   5.513
 4337POPC   GL155165  44.648   2.917   5.835
 4337POPC   GL255166  44.965   3.157   5.763
 4337POPC   C1A55167  44.502   2.892   6.285
 4337POPC   D2A55168  44.431   3.158   6.651
 4337POPC   C3A55169  44.486   2.942   7.043
 4337POPC   C4A55170  44.431   2.701   7.471
 4337POPC   C1B55171   0.119   3.234   6.200
 4337POPC   C2B55172  44.923   3.049   6.576
 4337POPC   C3B55173  44.987   2.869   6.997
 4337POPC   C4B55174  44.830   3.012   7.417
 4338POPC   NC355175  42.711  26.476   5.539
 4338POPC   PO455176  43.099  27.014   5.447
 4338POPC   GL155177  43.043  26.779   5.840
 4338POPC   GL255178  42.855  26.503   6.015
 4338POPC   C1A55179  42.917  26.935   6.257
 4338POPC   D2A55180  42.945  27.165   6.635
 4338POPC   C3A55181  42.851  26.904   6.944
 4338POPC   C4A55182  42.967  26.952   7.318
 4338POPC   C1B55183  43.256  26.536   6.229
 4338POPC   C2B55184  43.354  26.754   6.601
 4338POPC   C3B55185  43.264  26.635   7.015
 4338POPC   C4B55186  43.169  26.489   7.439
 4339POPC   NC355187   9.186  24.426   5.199
 4339POPC   PO455188   9.811  24.548   5.385
 4339POPC   GL155189   9.659  24.533   5.777
 4339POPC   GL255190   9.940  24.764   5.838
 4339POPC   C1A55191   9.772  24.385   6.171
 4339POPC   D2A55192   9.985  24.362   6.541
 4339POPC   C3A55193   9.728  24.322   6.879
 4339POPC   C4A55194   9.901  24.252   7.247
 4339POPC   C1B55195   9.688  24.895   6.161
 4339POPC   C2B55196   9.879  24.938   6.554
 4339POPC   C3B55197   9.939  24.777   6.958
 4339POPC   C4B55198   9.603  24.680   7.244
 4340POPC   NC355199  35.058  15.811   5.427
 4340POPC   PO455200  35.591  16.228   5.380
 4340POPC   GL155201  35.296  16.147   5.727
 4340POPC   GL255202  35.386  15.813   5.815
 4340POPC   C1A55203  35.248  16.197   6.182
 4340POPC   D2A55204  35.409  16.355   6.607
 4340POPC   C3A55205  35.203  16.423   7.008
 4340POPC   C4A55206  35.310  16.192   7.377
 4340POPC   C1B55207  35.220  15.665   6.181
 4340POPC   C2B55208  35.337  15.707   6.588
 4340POPC   C3B55209  35.270  15.897   6.960
 4340POPC   C4B55210  35.033  15.639   7.207
 4341POPC   NC355211   8.977   0.686   5.388
 4341POPC   PO455212   8.845   0.059   5.412
 4341POPC   GL155213   9.082   0.262   5.757
 4341POPC   GL255214   9.075   0.577   5.884
 4341POPC   C1A55215   8.939   0.208   6.195
 4341POPC   D2A55216   8.843   0.416   6.597
 4341POPC   C3A55217   9.092   0.481   6.943
 4341POPC   C4A55218   8.846   0.378   7.260
 4341POPC   C1B55219   8.729   0.698   6.167
 4341POPC   C2B55220   8.550   0.901   6.544
 4341POPC   C3B55221   8.718   0.829   6.950
 4341POPC   C4B55222   8.955   0.882   7.327
 4342POPC   NC355223  14.160   2.403   5.590
 4342POPC   PO455224  13.822   1.841   5.434
 4342POPC   GL155225  13.865   2.043   5.797
 4342POPC   GL255226  13.532   2.105   5.804
 4342POPC   C1A55227  13.796   1.999   6.236
 4342POPC   D2A55228  13.526   1.715   6.514
 4342POPC   C3A55229  13.594   1.845   6.949
 4342POPC   C4A55230  13.642   2.088   7.291
 4342POPC   C1B55231  13.304   2.078   6.172
 4342POPC   C2B55232  13.414   2.198   6.608
 4342POPC   C3B55233  13.197   2.166   7.030
 4342POPC   C4B55234  13.172   2.058   7.445
 4343POPC   NC355235  38.081  40.952   5.594
 4343POPC   PO455236  38.658  40.629   5.291
 4343POPC   GL155237  38.550  40.731   5.714
 4343POPC   GL255238  38.712  41.006   5.833
 4343POPC   C1A55239  38.357  40.615   6.119
 4343POPC   D2A55240  38.239  40.693   6.552
 4343POPC   C3A55241  38.520  40.650   6.935
 4343POPC   C4A55242  38.390  40.662   7.387
 4343POPC   C1B55243  38.555  41.118   6.195
 4343POPC   C2B55244  38.630  41.072   6.609
 4343POPC   C3B55245  38.496  41.186   7.004
 4343POPC   C4B55246  38.616  41.097   7.396
 4344POPC   NC355247  15.348  35.674   5.364
 4344POPC   PO455248  15.185  36.348   5.385
 4344POPC   GL155249  15.115  35.975   5.711
 4344POPC   GL255250  15.257  36.164   5.948
 4344POPC   C1A55251  15.024  35.765   6.171
 4344POPC   D2A55252  14.978  35.887   6.649
 4344POPC   C3A55253  15.307  36.039   6.882
 4344POPC   C4A55254  15.341  36.138   7.269
 4344POPC   C1B55255  15.329  36.152   6.376
 4344POPC   C2B55256  15.117  36.450   6.635
 4344POPC   C3B55257  14.962  36.455   7.030
 4344POPC   C4B55258  14.964  36.539   7.445
 4345POPC   NC355259  24.028   5.297   5.511
 4345POPC   PO455260  23.414   4.978   5.522
 4345POPC   GL155261  23.578   4.821   5.921
 4345POPC   GL255262  23.925   4.950   5.950
 4345POPC   C1A55263  23.610   4.825   6.367
 4345POPC   D2A55264  23.829   5.121   6.629
 4345POPC   C3A55265  23.681   5.118   7.007
 4345POPC   C4A55266  23.373   4.832   7.154
 4345POPC   C1B55267  23.973   5.368   6.196
 4345POPC   C2B55268  23.980   5.620   6.592
 4345POPC   C3B55269  24.078   5.466   6.988
 4345POPC   C4B55270  23.997   5.281   7.375
 4346POPC   NC355271  24.048  11.925   5.414
 4346POPC   PO455272  23.358  12.083   5.287
 4346POPC   GL155273  23.552  11.972   5.728
 4346POPC   GL255274  23.421  11.686   5.943
 4346POPC   C1A55275  23.912  11.943   6.045
 4346POPC   D2A55276  24.009  11.981   6.474
 4346POPC   C3A55277  23.676  11.874   6.750
 4346POPC   C4A55278  23.850  11.963   7.136
 4346POPC   C1B55279  23.449  12.022   6.258
 4346POPC   C2B55280  23.296  12.315   6.577
 4346POPC   C3B55281  23.451  12.293   6.979
 4346POPC   C4B55282  23.375  11.999   7.309
 4347POPC   NC355283  31.993   9.088   5.405
 4347POPC   PO455284  32.570   8.949   5.579
 4347POPC   GL155285  32.301   9.161   5.849
 4347POPC   GL255286  31.931   9.264   5.878
 4347POPC   C1A55287  32.291   9.150   6.273
 4347POPC   D2A55288  32.402   8.888   6.606
 4347POPC   C3A55289  32.334   9.127   6.948
 4347POPC   C4A55290  32.547   9.207   7.307
 4347POPC   C1B55291  31.862   8.910   6.161
 4347POPC   C2B55292  31.874   8.925   6.606
 4347POPC   C3B55293  31.850   8.986   7.043
 4347POPC   C4B55294  32.090   8.928   7.390
 4348POPC   NC355295  12.621  26.736   5.567
 4348POPC   PO455296  13.096  26.456   5.206
 4348POPC   GL155297  13.131  26.639   5.668
 4348POPC   GL255298  13.222  26.962   5.857
 4348POPC   C1A55299  13.028  26.599   6.142
 4348POPC   D2A55300  13.150  26.584   6.583
 4348POPC   C3A55301  12.840  26.675   6.885
 4348POPC   C4A55302  12.928  26.761   7.269
 4348POPC   C1B55303  12.823  27.069   6.087
 4348POPC   C2B55304  12.649  26.960   6.480
 4348POPC   C3B55305  12.762  27.216   6.833
 4348POPC   C4B55306  12.928  27.255   7.242
 4349POPC   NC355307   2.971  11.895   5.577
 4349POPC   PO455308   2.364  11.643   5.756
 4349POPC   GL155309   2.546  12.039   5.948
 4349POPC   GL255310   2.923  12.151   6.009
 4349POPC   C1A55311   2.601  12.128   6.390
 4349POPC   D2A55312   2.956  12.050   6.657
 4349POPC   C3A55313   2.731  11.979   7.003
 4349POPC   C4A55314   2.759  12.307   7.191
 4349POPC   C1B55315   2.988  11.760   6.223
 4349POPC   C2B55316   3.179  11.561   6.593
 4349POPC   C3B55317   3.128  11.655   7.040
 4349POPC   C4B55318   3.090  11.964   7.393
 4350POPC   NC355319  15.598  41.940   5.416
 4350POPC   PO455320  14.936  41.749   5.334
 4350POPC   GL155321  15.168  41.748   5.724
 4350POPC   GL255322  15.471  41.533   5.719
 4350POPC   C1A55323  15.121  41.554   6.159
 4350POPC   D2A55324  14.788  41.461   6.472
 4350POPC   C3A55325  14.953  41.406   6.884
 4350POPC   C4A55326  15.134  41.608   7.228
 4350POPC   C1B55327  15.624  41.430   6.124
 4350POPC   C2B55328  15.601  41.643   6.505
 4350POPC   C3B55329  15.497  41.481   6.913
 4350POPC   C4B55330  15.462  41.243   7.341
 4351POPC   NC355331  33.520  37.100   5.477
 4351POPC   PO455332  33.006  36.607   5.369
 4351POPC   GL155333  32.855  36.829   5.748
 4351POPC   GL255334  33.183  36.917   5.840
 4351POPC   C1A55335  32.653  36.907   6.181
 4351POPC   D2A55336  32.457  36.809   6.605
 4351POPC   C3A55337  32.709  37.020   6.890
 4351POPC   C4A55338  32.976  36.913   7.166
 4351POPC   C1B55339  33.156  36.729   6.248
 4351POPC   C2B55340  33.207  36.763   6.705
 4351POPC   C3B55341  33.334  36.586   7.105
 4351POPC   C4B55342  33.251  36.721   7.575
 4352POPC   NC355343  21.710  19.297   5.347
 4352POPC   PO455344  21.819  18.605   5.374
 4352POPC   GL155345  21.615  18.858   5.742
 4352POPC   GL255346  21.431  19.212   5.760
 4352POPC   C1A55347  21.600  18.967   6.205
 4352POPC   D2A55348  21.348  18.984   6.583
 4352POPC   C3A55349  21.562  18.982   6.970
 4352POPC   C4A55350  21.167  18.857   7.147
 4352POPC   C1B55351  21.681  19.450   6.078
 4352POPC   C2B55352  21.626  19.401   6.532
 4352POPC   C3B55353  21.588  19.506   6.985
 4352POPC   C4B55354  21.471  19.453   7.439
 4353POPC   NC355355  17.989  28.234   5.466
 4353POPC   PO455356  18.564  28.668   5.488
 4353POPC   GL155357  18.327  28.515   5.854
 4353POPC   GL255358  18.220  28.172   5.944
 4353POPC   C1A55359  18.305  28.559   6.310
 4353POPC   D2A55360  18.259  28.752   6.715
 4353POPC   C3A55361  18.310  28.539   7.068
 4353POPC   C4A55362  18.469  28.508   7.496
 4353POPC   C1B55363  17.992  28.155   6.339
 4353POPC   C2B55364  18.220  28.139   6.756
 4353POPC   C3B55365  18.259  28.051   7.224
 4353POPC   C4B55366  18.107  27.998   7.619
 4354POPC   NC355367  23.437  21.068   5.505
 4354POPC   PO455368  22.764  20.826   5.509
 4354POPC   GL155369  23.076  20.888   5.828
 4354POPC   GL255370  22.825  20.691   6.006
 4354POPC   C1A55371  23.142  20.966   6.278
 4354POPC   D2A55372  22.861  20.735   6.548
 4354POPC   C3A55373  23.007  20.710   6.951
 4354POPC   C4A55374  23.301  20.770   7.253
 4354POPC   C1B55375  23.165  20.463   6.197
 4354POPC   C2B55376  23.134  20.245   6.576
 4354POPC   C3B55377  23.280  20.271   6.965
 4354POPC   C4B55378  23.111  20.323   7.359
 4355POPC   NC355379   3.909   6.793   5.270
 4355POPC   PO455380   4.290   6.311   5.426
 4355POPC   GL155381   4.250   6.538   5.812
 4355POPC   GL255382   4.088   6.817   5.770
 4355POPC   C1A55383   4.271   6.438   6.263
 4355POPC   D2A55384   4.162   6.197   6.654
 4355POPC   C3A55385   4.276   6.471   7.044
 4355POPC   C4A55386   4.159   6.738   7.430
 4355POPC   C1B55387   3.892   6.820   6.175
 4355POPC   C2B55388   3.999   6.716   6.612
 4355POPC   C3B55389   4.113   6.954   6.968
 4355POPC   C4B55390   3.948   7.225   7.271
 4356POPC   NC355391  15.028   0.485   5.465
 4356POPC   PO455392  15.434  44.982   5.499
 4356POPC   GL155393  15.242   0.222   5.866
 4356POPC   GL255394  14.895   0.140   5.868
 4356POPC   C1A55395  15.360   0.365   6.306
 4356POPC   D2A55396  15.438   0.112   6.702
 4356POPC   C3A55397  15.372   0.305   7.097
 4356POPC   C4A55398  15.614   0.661   7.256
 4356POPC   C1B55399  14.824   0.407   6.250
 4356POPC   C2B55400  14.969   0.701   6.562
 4356POPC   C3B55401  14.980   0.631   7.001
 4356POPC   C4B55402  14.856   0.297   7.239
 4357POPC   NC355403   5.897   2.150   5.046
 4357POPC   PO455404   5.511   1.655   5.146
 4357POPC   GL155405   5.689   1.930   5.567
 4357POPC   GL255406   5.877   2.253   5.728
 4357POPC   C1A55407   5.788   1.893   6.062
 4357POPC   D2A55408   5.671   1.958   6.495
 4357POPC   C3A55409   5.920   1.944   6.872
 4357POPC   C4A55410   6.043   1.798   7.280
 4357POPC   C1B55411   5.755   2.392   6.181
 4357POPC   C2B55412   5.635   2.439   6.624
 4357POPC   C3B55413   5.537   2.443   7.033
 4357POPC   C4B55414   5.782   2.231   7.333
 4358POPC   NC355415  30.239  10.673   5.621
 4358POPC   PO455416  29.650  10.351   5.526
 4358POPC   GL155417  29.755  10.632   5.874
 4358POPC   GL255418  29.776  11.015   5.757
 4358POPC   C1A55419  29.930  10.485   6.310
 4358POPC   D2A55420  30.154  10.285   6.695
 4358POPC   C3A55421  30.009  10.310   7.150
 4358POPC   C4A55422  29.688  10.618   7.405
 4358POPC   C1B55423  29.956  10.993   6.183
 4358POPC   C2B55424  29.726  10.867   6.557
 4358POPC   C3B55425  29.860  10.723   6.910
 4358POPC   C4B55426  30.003  10.944   7.238
 4359POPC   NC355427  19.324   3.223   5.416
 4359POPC   PO455428  18.717   3.449   5.613
 4359POPC   GL155429  18.949   3.360   5.928
 4359POPC   GL255430  19.230   3.506   5.837
 4359POPC   C1A55431  19.167   3.333   6.322
 4359POPC   D2A55432  19.469   3.318   6.636
 4359POPC   C3A55433  19.186   3.371   6.942
 4359POPC   C4A55434  19.154   3.528   7.348
 4359POPC   C1B55435  19.167   3.806   6.139
 4359POPC   C2B55436  18.904   3.876   6.466
 4359POPC   C3B55437  18.949   3.843   6.926
 4359POPC   C4B55438  18.953   3.980   7.359
 4360POPC   NC355439  35.642  37.991   5.145
 4360POPC   PO455440  35.423  37.399   5.331
 4360POPC   GL155441  35.522  37.667   5.678
 4360POPC   GL255442  35.216  37.722   5.858
 4360POPC   C1A55443  35.626  37.602   6.123
 4360POPC   D2A55444  35.681  37.783   6.526
 4360POPC   C3A55445  35.573  37.570   6.917
 4360POPC   C4A55446  35.542  37.862   7.233
 4360POPC   C1B55447  34.984  37.607   6.241
 4360POPC   C2B55448  35.013  37.472   6.677
 4360POPC   C3B55449  35.091  37.674   7.073
 4360POPC   C4B55450  35.106  37.604   7.506
 4361POPC   NC355451  25.075   3.776   5.195
 4361POPC   PO455452  25.664   3.707   5.355
 4361POPC   GL155453  25.419   3.574   5.722
 4361POPC   GL255454  25.095   3.712   5.717
 4361POPC   C1A55455  25.443   3.634   6.193
 4361POPC   D2A55456  25.579   3.385   6.544
 4361POPC   C3A55457  25.371   3.441   6.916
 4361POPC   C4A55458  25.507   3.507   7.328
 4361POPC   C1B55459  24.962   3.462   6.057
 4361POPC   C2B55460  25.033   3.452   6.484
 4361POPC   C3B55461  24.861   3.409   6.882
 4361POPC   C4B55462  24.917   3.288   7.296
 4362POPC   NC355463   8.182   4.423   5.116
 4362POPC   PO455464   8.473   4.053   5.616
 4362POPC   GL155465   8.332   4.314   5.969
 4362POPC   GL255466   8.214   4.629   5.831
 4362POPC   C1A55467   8.085   4.326   6.350
 4362POPC   D2A55468   8.008   4.232   6.786
 4362POPC   C3A55469   8.285   4.343   7.042
 4362POPC   C4A55470   8.472   4.201   7.391
 4362POPC   C1B55471   7.939   4.773   6.142
 4362POPC   C2B55472   7.714   4.732   6.512
 4362POPC   C3B55473   7.885   4.720   6.911
 4362POPC   C4B55474   7.808   4.454   7.227
 4363POPC   NC355475  13.768  11.977   5.031
 4363POPC   PO455476  13.417  11.357   5.299
 4363POPC   GL155477  13.443  11.201   5.726
 4363POPC   GL255478  13.477  11.483   5.961
 4363POPC   C1A55479  13.571  11.021   6.140
 4363POPC   D2A55480  13.351  11.068   6.545
 4363POPC   C3A55481  13.579  11.089   6.921
 4363POPC   C4A55482  13.511  11.369   7.228
 4363POPC   C1B55483  13.827  11.484   6.246
 4363POPC   C2B55484  13.912  11.366   6.656
 4363POPC   C3B55485  14.021  11.540   7.060
 4363POPC   C4B55486  13.897  11.499   7.527
 4364POPC   NC355487  27.349  20.329   5.056
 4364POPC   PO455488  27.811  20.459   5.502
 4364POPC   GL155489  27.568  20.513   5.886
 4364POPC   GL255490  27.484  20.190   5.832
 4364POPC   C1A55491  27.418  20.532   6.326
 4364POPC   D2A55492  27.769  20.418   6.613
 4364POPC   C3A55493  27.682  20.555   6.992
 4364POPC   C4A55494  27.310  20.814   7.119
 4364POPC   C1B55495  27.652  20.102   6.211
 4364POPC   C2B55496  27.388  20.053   6.558
 4364POPC   C3B55497  27.186  20.324   6.862
 4364POPC   C4B55498  27.323  20.330   7.297
 4365POPC   NC355499  35.769   5.672   5.576
 4365POPC   PO455500  35.616   6.269   5.266
 4365POPC   GL155501  35.534   6.120   5.717
 4365POPC   GL255502  35.290   5.847   5.748
 4365POPC   C1A55503  35.506   6.025   6.187
 4365POPC   D2A55504  35.288   6.240   6.527
 4365POPC   C3A55505  35.274   6.012   6.909
 4365POPC   C4A55506  35.611   5.823   7.142
 4365POPC   C1B55507  35.011   5.814   6.109
 4365POPC   C2B55508  34.930   5.826   6.532
 4365POPC   C3B55509  34.992   5.580   6.880
 4365POPC   C4B55510  35.111   5.685   7.269
 4366POPC   NC355511  12.280  33.535   5.597
 4366POPC   PO455512  12.689  33.959   5.212
 4366POPC   GL155513  12.314  34.019   5.570
 4366POPC   GL255514  11.974  33.933   5.694
 4366POPC   C1A55515  12.295  34.038   6.052
 4366POPC   D2A55516  12.411  34.020   6.491
 4366POPC   C3A55517  12.253  33.771   6.819
 4366POPC   C4A55518  12.120  33.822   7.231
 4366POPC   C1B55519  11.956  33.640   6.121
 4366POPC   C2B55520  11.669  33.653   6.460
 4366POPC   C3B55521  11.732  33.639   6.887
 4366POPC   C4B55522  11.708  33.499   7.291
 4367POPC   NC355523  30.366  36.240   5.339
 4367POPC   PO455524  29.698  36.034   5.475
 4367POPC   GL155525  29.827  36.154   5.874
 4367POPC   GL255526  30.115  36.337   5.784
 4367POPC   C1A55527  29.961  35.944   6.275
 4367POPC   D2A55528  30.086  36.081   6.707
 4367POPC   C3A55529  29.777  35.919   7.051
 4367POPC   C4A55530  29.715  36.092   7.496
 4367POPC   C1B55531  30.318  36.342   6.173
 4367POPC   C2B55532  30.424  36.631   6.517
 4367POPC   C3B55533  30.330  36.545   6.957
 4367POPC   C4B55534  30.117  36.255   7.203
 4368POPC   NC355535  32.823   8.573   5.474
 4368POPC   PO455536  33.156   9.227   5.584
 4368POPC   GL155537  33.082   8.849   5.805
 4368POPC   GL255538  33.345   8.560   5.752
 4368POPC   C1A55539  32.790   8.830   6.169
 4368POPC   D2A55540  32.913   9.022   6.543
 4368POPC   C3A55541  32.810   8.882   6.934
 4368POPC   C4A55542  33.050   9.007   7.295
 4368POPC   C1B55543  33.188   8.478   6.160
 4368POPC   C2B55544  33.277   8.626   6.546
 4368POPC   C3B55545  33.229   8.557   6.955
 4368POPC   C4B55546  33.362   8.557   7.340
 4369POPC   NC355547  33.432  13.093   5.605
 4369POPC   PO455548  33.786  12.516   5.436
 4369POPC   GL155549  33.799  12.713   5.824
 4369POPC   GL255550  33.460  12.560   5.842
 4369POPC   C1A55551  33.963  12.925   6.218
 4369POPC   D2A55552  33.851  12.812   6.653
 4369POPC   C3A55553  34.014  12.945   7.042
 4369POPC   C4A55554  33.738  13.172   7.299
 4369POPC   C1B55555  33.501  12.661   6.272
 4369POPC   C2B55556  33.469  12.446   6.661
 4369POPC   C3B55557  33.458  12.699   7.048
 4369POPC   C4B55558  33.663  12.697   7.442
 4370POPC   NC355559  36.590  34.487   5.551
 4370POPC   PO455560  35.936  34.869   5.602
 4370POPC   GL155561  36.249  34.663   5.897
 4370POPC   GL255562  36.552  34.836   5.927
 4370POPC   C1A55563  36.333  34.554   6.353
 4370POPC   D2A55564  36.080  34.739   6.691
 4370POPC   C3A55565  35.772  34.486   6.928
 4370POPC   C4A55566  35.878  34.197   7.268
 4370POPC   C1B55567  36.409  35.053   6.279
 4370POPC   C2B55568  36.580  34.954   6.668
 4370POPC   C3B55569  36.553  34.540   6.848
 4370POPC   C4B55570  36.222  34.557   7.166
 4371POPC   NC355571  40.831  35.411   5.313
 4371POPC   PO455572  40.903  34.755   5.370
 4371POPC   GL155573  40.643  35.003   5.679
 4371POPC   GL255574  40.661  35.364   5.782
 4371POPC   C1A55575  40.692  35.009   6.164
 4371POPC   D2A55576  40.833  35.200   6.558
 4371POPC   C3A55577  40.744  35.125   6.990
 4371POPC   C4A55578  40.992  35.417   7.271
 4371POPC   C1B55579  40.800  35.529   6.158
 4371POPC   C2B55580  40.783  35.726   6.526
 4371POPC   C3B55581  40.644  35.619   6.908
 4371POPC   C4B55582  40.598  35.741   7.300
 4372POPC   NC355583  19.656  25.437   5.340
 4372POPC   PO455584  20.292  25.409   5.579
 4372POPC   GL155585  19.916  25.525   5.766
 4372POPC   GL255586  19.700  25.237   5.824
 4372POPC   C1A55587  19.779  25.648   6.156
 4372POPC   D2A55588  19.760  25.430   6.565
 4372POPC   C3A55589  19.893  25.640   6.920
 4372POPC   C4A55590  19.839  25.556   7.334
 4372POPC   C1B55591  19.981  25.159   6.165
 4372POPC   C2B55592  19.949  24.914   6.535
 4372POPC   C3B55593  19.767  25.001   6.940
 4372POPC   C4B55594  19.970  25.074   7.329
 4373POPC   NC355595  10.943   7.362   5.477
 4373POPC   PO455596  11.549   7.560   5.529
 4373POPC   GL155597  11.323   7.385   5.830
 4373POPC   GL255598  11.182   7.700   5.912
 4373POPC   C1A55599  11.175   7.319   6.245
 4373POPC   D2A55600  11.249   7.593   6.608
 4373POPC   C3A55601  11.055   7.376   6.946
 4373POPC   C4A55602  11.204   7.301   7.346
 4373POPC   C1B55603  11.612   7.629   6.181
 4373POPC   C2B55604  11.845   7.665   6.585
 4373POPC   C3B55605  11.627   7.594   6.991
 4373POPC   C4B55606  11.264   7.781   7.183
 4374POPC   NC355607   7.715  12.270   5.344
 4374POPC   PO455608   8.279  11.949   5.425
 4374POPC   GL155609   8.251  12.121   5.818
 4374POPC   GL255610   7.916  11.996   5.942
 4374POPC   C1A55611   8.344  11.982   6.240
 4374POPC   D2A55612   8.028  11.890   6.525
 4374POPC   C3A55613   7.958  12.065   6.919
 4374POPC   C4A55614   8.187  12.037   7.265
 4374POPC   C1B55615   8.037  12.376   6.212
 4374POPC   C2B55616   8.009  12.517   6.648
 4374POPC   C3B55617   7.794  12.539   7.041
 4374POPC   C4B55618   7.735  12.247   7.368
 4375POPC   NC355619  40.267  44.976   5.380
 4375POPC   PO455620  40.106  44.286   5.254
 4375POPC   GL155621  40.173  44.529   5.640
 4375POPC   GL255622  40.519  44.447   5.694
 4375POPC   C1A55623  39.907  44.706   6.028
 4375POPC   D2A55624  39.928  44.796   6.503
 4375POPC   C3A55625  39.752  44.664   6.911
 4375POPC   C4A55626  40.059  44.844   7.229
 4375POPC   C1B55627  40.301  44.396   6.110
 4375POPC   C2B55628  40.364  44.508   6.524
 4375POPC   C3B55629  40.225  44.479   6.931
 4375POPC   C4B55630  39.935  44.262   7.210
 4376POPC   NC355631  15.936  23.241   5.390
 4376POPC   PO455632  16.248  22.634   5.395
 4376POPC   GL155633  16.070  22.876   5.729
 4376POPC   GL255634  15.889  22.620   5.877
 4376POPC   C1A55635  15.939  23.040   6.156
 4376POPC   D2A55636  15.921  22.789   6.525
 4376POPC   C3A55637  15.744  22.962   6.868
 4376POPC   C4A55638  15.914  23.129   7.230
 4376POPC   C1B55639  16.262  22.645   6.172
 4376POPC   C2B55640  16.406  22.651   6.585
 4376POPC   C3B55641  16.228  22.628   6.989
 4376POPC   C4B55642  16.281  22.563   7.448
 4377POPC   NC355643   4.585  28.345   5.293
 4377POPC   PO455644   4.549  29.041   5.432
 4377POPC   GL155645   4.618  28.698   5.762
 4377POPC   GL255646   4.347  28.412   5.782
 4377POPC   C1A55647   4.497  28.625   6.214
 4377POPC   D2A55648   4.303  28.417   6.612
 4377POPC   C3A55649   4.531  28.586   6.998
 4377POPC   C4A55650   4.805  28.668   7.353
 4377POPC   C1B55651   4.487  28.109   6.157
 4377POPC   C2B55652   4.614  27.944   6.585
 4377POPC   C3B55653   4.449  28.061   6.983
 4377POPC   C4B55654   4.094  28.321   7.124
 4378POPC   NC355655  29.927   1.073   5.401
 4378POPC   PO455656  29.890   1.662   5.387
 4378POPC   GL155657  29.725   1.454   5.804
 4378POPC   GL255658  30.001   1.269   5.879
 4378POPC   C1A55659  29.632   1.211   6.235
 4378POPC   D2A55660  29.793   0.962   6.643
 4378POPC   C3A55661  29.908   1.121   7.058
 4378POPC   C4A55662  30.053   1.259   7.461
 4378POPC   C1B55663  30.136   1.172   6.301
 4378POPC   C2B55664  30.275   1.245   6.707
 4378POPC   C3B55665  30.448   1.211   7.091
 4378POPC   C4B55666  30.328   0.814   7.179
 4379POPC   NC355667   0.009   6.018   5.257
 4379POPC   PO455668   0.444   5.522   5.429
 4379POPC   GL155669   0.479   5.662   5.849
 4379POPC   GL255670   0.129   5.748   5.843
 4379POPC   C1A55671   0.758   5.919   6.153
 4379POPC   D2A55672   0.819   6.225   6.510
 4379POPC   C3A55673   0.619   6.135   6.912
 4379POPC   C4A55674   0.557   5.742   7.143
 4379POPC   C1B55675   0.265   5.898   6.258
 4379POPC   C2B55676   0.224   5.797   6.681
 4379POPC   C3B55677   0.124   6.039   7.021
 4379POPC   C4B55678   0.306   6.113   7.384
 4380POPC   NC355679  19.391   5.384   5.446
 4380POPC   PO455680  19.786   4.695   5.410
 4380POPC   GL155681  19.874   5.029   5.794
 4380POPC   GL255682  19.680   5.356   5.876
 4380POPC   C1A55683  20.044   5.060   6.227
 4380POPC   D2A55684  20.124   4.838   6.630
 4380POPC   C3A55685  20.051   5.078   7.016
 4380POPC   C4A55686  19.931   5.065   7.444
 4380POPC   C1B55687  19.526   5.132   6.248
 4380POPC   C2B55688  19.630   5.022   6.683
 4380POPC   C3B55689  19.517   5.204   7.098
 4380POPC   C4B55690  19.516   5.331   7.554
 4381POPC   NC355691  31.361  38.529   5.023
 4381POPC   PO455692  31.569  38.366   5.640
 4381POPC   GL155693  31.426  38.467   6.015
 4381POPC   GL255694  31.207  38.184   5.959
 4381POPC   C1A55695  31.484  38.838   6.280
 4381POPC   D2A55696  31.852  38.886   6.558
 4381POPC   C3A55697  31.802  38.598   6.907
 4381POPC   C4A55698  31.546  38.761   7.220
 4381POPC   C1B55699  31.101  38.353   6.391
 4381POPC   C2B55700  31.082  38.422   6.847
 4381POPC   C3B55701  31.364  38.291   7.171
 4381POPC   C4B55702  31.704  38.027   7.089
 4382POPC   NC355703  37.187   4.980   5.396
 4382POPC   PO455704  36.676   5.362   5.213
 4382POPC   GL155705  36.821   5.257   5.662
 4382POPC   GL255706  37.149   5.366   5.766
 4382POPC   C1A55707  36.783   5.071   6.099
 4382POPC   D2A55708  36.937   4.943   6.514
 4382POPC   C3A55709  36.715   5.118   6.861
 4382POPC   C4A55710  36.767   4.935   7.257
 4382POPC   C1B55711  37.281   5.213   6.168
 4382POPC   C2B55712  37.281   5.323   6.582
 4382POPC   C3B55713  37.223   5.151   6.979
 4382POPC   C4B55714  37.348   5.353   7.330
 4383POPC   NC355715  29.074   1.546   5.172
 4383POPC   PO455716  29.463   1.197   5.456
 4383POPC   GL155717  29.243   1.232   5.897
 4383POPC   GL255718  28.949   1.022   5.979
 4383POPC   C1A55719  29.116   1.360   6.344
 4383POPC   D2A55720  29.328   1.144   6.637
 4383POPC   C3A55721  29.389   1.156   7.052
 4383POPC   C4A55722  29.596   1.480   7.270
 4383POPC   C1B55723  28.964   0.864   6.372
 4383POPC   C2B55724  28.838   1.065   6.714
 4383POPC   C3B55725  28.836   1.209   7.119
 4383POPC   C4B55726  29.101   1.112   7.460
 4384POPC   NC355727  11.621  42.311   5.411
 4384POPC   PO455728  10.957  42.434   5.431
 4384POPC   GL155729  11.267  42.322   5.792
 4384POPC   GL255730  11.424  42.592   5.795
 4384POPC   C1A55731  11.437  42.256   6.217
 4384POPC   D2A55732  11.277  42.209   6.653
 4384POPC   C3A55733  11.329  42.237   7.096
 4384POPC   C4A55734  11.216  41.877   7.376
 4384POPC   C1B55735  11.165  42.743   6.089
 4384POPC   C2B55736  11.198  42.701   6.523
 4384POPC   C3B55737  10.972  42.598   6.912
 4384POPC   C4B55738  11.100  42.654   7.332
 4385POPC   NC355739  33.403  33.828   5.590
 4385POPC   PO455740  32.722  34.047   5.479
 4385POPC   GL155741  32.902  33.897   5.844
 4385POPC   GL255742  33.055  33.621   5.895
 4385POPC   C1A55743  32.879  34.033   6.263
 4385POPC   D2A55744  32.768  34.083   6.675
 4385POPC   C3A55745  32.860  33.773   6.972
 4385POPC   C4A55746  32.776  33.927   7.370
 4385POPC   C1B55747  33.317  33.775   6.260
 4385POPC   C2B55748  33.318  33.801   6.711
 4385POPC   C3B55749  33.476  33.927   7.112
 4385POPC   C4B55750  33.246  33.758   7.441
 4386POPC   NC355751  34.813  19.057   5.456
 4386POPC   PO455752  34.182  19.404   5.480
 4386POPC   GL155753  34.441  19.176   5.780
 4386POPC   GL255754  34.441  18.826   5.840
 4386POPC   C1A55755  34.668  19.166   6.159
 4386POPC   D2A55756  34.581  19.082   6.594
 4386POPC   C3A55757  34.864  19.195   6.937
 4386POPC   C4A55758  34.591  19.365   7.253
 4386POPC   C1B55759  34.510  18.671   6.240
 4386POPC   C2B55760  34.799  18.628   6.559
 4386POPC   C3B55761  34.680  18.701   6.957
 4386POPC   C4B55762  34.717  18.866   7.372
 4387POPC   NC355763  41.675  11.221   5.290
 4387POPC   PO455764  41.263  11.688   5.333
 4387POPC   GL155765  41.351  11.551   5.793
 4387POPC   GL255766  41.683  11.388   5.773
 4387POPC   C1A55767  41.487  11.423   6.256
 4387POPC   D2A55768  41.601  11.398   6.734
 4387POPC   C3A55769  41.341  11.320   7.097
 4387POPC   C4A55770  41.357  11.445   7.546
 4387POPC   C1B55771  41.813  11.069   6.063
 4387POPC   C2B55772  41.599  10.958   6.445
 4387POPC   C3B55773  41.633  10.911   6.895
 4387POPC   C4B55774  41.810  11.075   7.267
 4388POPC   NC355775   5.800  44.096   5.418
 4388POPC   PO455776   5.487  43.564   5.369
 4388POPC   GL155777   5.718  43.611   5.793
 4388POPC   GL255778   6.114  43.637   5.790
 4388POPC   C1A55779   5.695  43.843   6.219
 4388POPC   D2A55780   5.546  44.036   6.623
 4388POPC   C3A55781   5.693  43.996   7.067
 4388POPC   C4A55782   5.656  43.729   7.465
 4388POPC   C1B55783   6.237  43.852   6.191
 4388POPC   C2B55784   6.060  44.095   6.529
 4388POPC   C3B55785   6.200  44.040   6.959
 4388POPC   C4B55786   6.095  43.999   7.406
 4389POPC   NC355787  44.227  27.794   5.409
 4389POPC   PO455788  43.682  27.411   5.235
 4389POPC   GL155789  43.911  27.413   5.637
 4389POPC   GL255790  43.591  27.354   5.798
 4389POPC   C1A55791  44.026  27.606   6.069
 4389POPC   D2A55792  43.942  27.464   6.522
 4389POPC   C3A55793  44.109  27.615   6.958
 4389POPC   C4A55794  43.979  27.596   7.372
 4389POPC   C1B55795  43.518  27.649   6.158
 4389POPC   C2B55796  43.623  27.845   6.546
 4389POPC   C3B55797  43.616  27.634   6.948
 4389POPC   C4B55798  43.539  27.906   7.242
 4390POPC   NC355799  21.934   8.580   5.440
 4390POPC   PO455800  22.156   7.941   5.208
 4390POPC   GL155801  22.060   8.048   5.652
 4390POPC   GL255802  22.437   8.052   5.729
 4390POPC   C1A55803  21.879   8.138   6.095
 4390POPC   D2A55804  21.812   8.096   6.560
 4390POPC   C3A55805  21.908   8.410   6.891
 4390POPC   C4A55806  22.061   8.294   7.319
 4390POPC   C1B55807  22.307   7.813   6.083
 4390POPC   C2B55808  22.299   7.831   6.512
 4390POPC   C3B55809  22.193   7.965   6.914
 4390POPC   C4B55810  22.507   8.101   7.204
 4391POPC   NC355811  16.710   2.317   5.384
 4391POPC   PO455812  16.941   1.689   5.415
 4391POPC   GL155813  16.670   1.897   5.692
 4391POPC   GL255814  16.962   2.085   5.765
 4391POPC   C1A55815  16.587   2.099   6.108
 4391POPC   D2A55816  16.776   2.017   6.510
 4391POPC   C3A55817  16.616   2.021   6.922
 4391POPC   C4A55818  16.664   2.143   7.354
 4391POPC   C1B55819  17.129   2.145   6.151
 4391POPC   C2B55820  17.260   2.246   6.563
 4391POPC   C3B55821  17.098   2.157   6.928
 4391POPC   C4B55822  17.135   1.908   7.287
 4392POPC   NC355823   3.075  40.712   5.370
 4392POPC   PO455824   2.851  41.240   5.192
 4392POPC   GL155825   2.828  41.110   5.665
 4392POPC   GL255826   2.874  40.772   5.814
 4392POPC   C1A55827   2.722  41.098   6.157
 4392POPC   D2A55828   2.465  40.941   6.536
 4392POPC   C3A55829   2.611  40.733   6.880
 4392POPC   C4A55830   2.685  40.794   7.296
 4392POPC   C1B55831   2.956  40.615   6.216
 4392POPC   C2B55832   2.983  40.501   6.636
 4392POPC   C3B55833   3.125  40.697   7.026
 4392POPC   C4B55834   3.119  40.501   7.446
 4393POPC   NC355835  16.112  37.350   5.457
 4393POPC   PO455836  15.963  36.685   5.260
 4393POPC   GL155837  15.883  36.895   5.670
 4393POPC   GL255838  16.196  37.043   5.856
 4393POPC   C1A55839  15.824  36.805   6.121
 4393POPC   D2A55840  16.082  36.887   6.481
 4393POPC   C3A55841  15.927  36.807   6.898
 4393POPC   C4A55842  16.008  36.872   7.345
 4393POPC   C1B55843  15.939  37.299   6.143
 4393POPC   C2B55844  15.789  37.305   6.546
 4393POPC   C3B55845  15.857  37.288   6.968
 4393POPC   C4B55846  15.552  37.049   7.202
 4394POPC   NC355847  19.441  32.366   5.411
 4394POPC   PO455848  18.780  32.467   5.376
 4394POPC   GL155849  18.901  32.186   5.761
 4394POPC   GL255850  19.267  32.090   5.791
 4394POPC   C1A55851  18.969  32.121   6.221
 4394POPC   D2A55852  18.951  32.326   6.635
 4394POPC   C3A55853  18.792  32.061   6.932
 4394POPC   C4A55854  18.983  32.026   7.295
 4394POPC   C1B55855  19.492  32.339   6.107
 4394POPC   C2B55856  19.415  32.150   6.489
 4394POPC   C3B55857  19.408  32.132   6.919
 4394POPC   C4B55858  19.438  32.257   7.322
 4395POPC   NC355859   9.075  11.029   5.408
 4395POPC   PO455860   8.650  11.526   5.409
 4395POPC   GL155861   8.806  11.332   5.778
 4395POPC   GL255862   9.174  11.235   5.881
 4395POPC   C1A55863   8.747  11.077   6.130
 4395POPC   D2A55864   8.894  11.269   6.508
 4395POPC   C3A55865   8.656  11.245   6.888
 4395POPC   C4A55866   8.922  11.383   7.222
 4395POPC   C1B55867   9.237  10.956   6.256
 4395POPC   C2B55868   9.338  11.013   6.714
 4395POPC   C3B55869   9.239  10.944   7.170
 4395POPC   C4B55870   9.284  10.660   7.531
 4396POPC   NC355871   6.234  33.012   5.141
 4396POPC   PO455872   6.627  33.315   5.534
 4396POPC   GL155873   6.706  33.297   5.939
 4396POPC   GL255874   7.046  33.399   5.955
 4396POPC   C1A55875   6.707  32.963   6.219
 4396POPC   D2A55876   6.476  32.820   6.549
 4396POPC   C3A55877   6.562  33.024   6.897
 4396POPC   C4A55878   6.435  32.931   7.294
 4396POPC   C1B55879   7.110  33.242   6.360
 4396POPC   C2B55880   7.008  33.236   6.769
 4396POPC   C3B55881   6.963  33.188   7.190
 4396POPC   C4B55882   6.939  32.864   7.478
 4397POPC   NC355883  34.831  20.859   5.359
 4397POPC   PO455884  34.519  20.310   5.568
 4397POPC   GL155885  34.508  20.719   5.750
 4397POPC   GL255886  34.806  20.895   5.869
 4397POPC   C1A55887  34.346  20.760   6.144
 4397POPC   D2A55888  34.408  20.480   6.488
 4397POPC   C3A55889  34.572  20.721   6.849
 4397POPC   C4A55890  34.386  20.784   7.237
 4397POPC   C1B55891  34.806  20.517   6.141
 4397POPC   C2B55892  34.883  20.310   6.552
 4397POPC   C3B55893  34.761  20.286   6.987
 4397POPC   C4B55894  34.848  20.591   7.301
 4398POPC   NC355895  43.714  30.211   5.333
 4398POPC   PO455896  44.277  29.891   5.317
 4398POPC   GL155897  44.032  29.964   5.683
 4398POPC   GL255898  43.841  29.690   5.673
 4398POPC   C1A55899  44.085  30.079   6.136
 4398POPC   D2A55900  43.765  30.056   6.385
 4398POPC   C3A55901  43.828  30.057   6.794
 4398POPC   C4A55902  43.745  30.046   7.192
 4398POPC   C1B55903  43.850  29.620   6.105
 4398POPC   C2B55904  43.841  29.602   6.570
 4398POPC   C3B55905  43.713  29.562   6.999
 4398POPC   C4B55906  43.857  29.595   7.441
 4399POPC   NC355907   7.574  13.243   5.527
 4399POPC   PO455908   7.385  12.749   5.079
 4399POPC   GL155909   7.298  12.800   5.650
 4399POPC   GL255910   7.220  13.112   5.836
 4399POPC   C1A55911   7.319  12.787   6.189
 4399POPC   D2A55912   7.554  12.787   6.634
 4399POPC   C3A55913   7.385  12.856   7.058
 4399POPC   C4A55914   6.953  12.693   7.186
 4399POPC   C1B55915   7.566  13.227   6.174
 4399POPC   C2B55916   7.414  13.278   6.591
 4399POPC   C3B55917   7.630  13.341   6.957
 4399POPC   C4B55918   7.593  13.241   7.339
 4400POPC   NC355919  15.803  20.591   5.377
 4400POPC   PO455920  16.340  20.815   5.659
 4400POPC   GL155921  16.007  20.625   5.847
 4400POPC   GL255922  15.652  20.736   5.845
 4400POPC   C1A55923  15.986  20.607   6.262
 4400POPC   D2A55924  16.281  20.751   6.559
 4400POPC   C3A55925  16.110  20.507   6.866
 4400POPC   C4A55926  15.984  20.491   7.262
 4400POPC   C1B55927  15.606  20.969   6.237
 4400POPC   C2B55928  15.771  20.902   6.650
 4400POPC   C3B55929  15.626  20.784   7.048
 4400POPC   C4B55930  15.817  20.965   7.411
 4401POPC   NC355931  13.861   1.354   5.397
 4401POPC   PO455932  13.301   1.606   5.164
 4401POPC   GL155933  13.439   1.558   5.632
 4401POPC   GL255934  13.460   1.168   5.696
 4401POPC   C1A55935  13.671   1.489   6.061
 4401POPC   D2A55936  13.658   1.192   6.445
 4401POPC   C3A55937  13.917   1.247   6.830
 4401POPC   C4A55938  13.824   1.456   7.236
 4401POPC   C1B55939  13.375   0.817   6.017
 4401POPC   C2B55940  13.384   0.701   6.465
 4401POPC   C3B55941  13.472   0.885   6.863
 4401POPC   C4B55942  13.443   1.058   7.297
 4402POPC   NC355943  23.102   1.528   5.290
 4402POPC   PO455944  22.779   0.886   5.372
 4402POPC   GL155945  22.869   0.907   5.757
 4402POPC   GL255946  22.664   1.214   5.862
 4402POPC   C1A55947  22.913   0.877   6.173
 4402POPC   D2A55948  22.777   1.159   6.459
 4402POPC   C3A55949  22.993   1.082   6.824
 4402POPC   C4A55950  23.017   0.875   7.216
 4402POPC   C1B55951  22.407   1.455   6.175
 4402POPC   C2B55952  22.523   1.618   6.549
 4402POPC   C3B55953  22.420   1.543   6.953
 4402POPC   C4B55954  22.658   1.285   7.212
 4403POPC   NC355955  33.104  21.349   5.359
 4403POPC   PO455956  32.951  22.028   5.282
 4403POPC   GL155957  32.959  21.755   5.697
 4403POPC   GL255958  33.129  21.461   5.853
 4403POPC   C1A55959  32.870  21.762   6.173
 4403POPC   D2A55960  32.957  21.857   6.626
 4403POPC   C3A55961  32.886  21.565   6.947
 4403POPC   C4A55962  32.655  21.438   7.281
 4403POPC   C1B55963  33.392  21.676   6.159
 4403POPC   C2B55964  33.483  21.788   6.587
 4403POPC   C3B55965  33.400  21.600   7.016
 4403POPC   C4B55966  33.180  21.679   7.418
 4404POPC   NC355967  42.562  19.956   5.419
 4404POPC   PO455968  42.225  19.428   5.336
 4404POPC   GL155969  42.113  19.607   5.778
 4404POPC   GL255970  42.351  19.878   5.856
 4404POPC   C1A55971  42.084  19.751   6.257
 4404POPC   D2A55972  42.096  19.532   6.651
 4404POPC   C3A55973  42.196  19.738   7.009
 4404POPC   C4A55974  42.544  19.733   7.270
 4404POPC   C1B55975  42.541  19.988   6.232
 4404POPC   C2B55976  42.580  19.870   6.695
 4404POPC   C3B55977  42.496  20.177   7.048
 4404POPC   C4B55978  42.700  20.177   7.467
 4405POPC   NC355979   8.970  35.071   5.263
 4405POPC   PO455980   9.381  35.599   5.511
 4405POPC   GL155981   9.145  35.300   5.724
 4405POPC   GL255982   8.820  35.373   5.804
 4405POPC   C1A55983   9.160  35.388   6.154
 4405POPC   D2A55984   9.216  35.465   6.556
 4405POPC   C3A55985   9.017  35.258   6.848
 4405POPC   C4A55986   9.157  35.315   7.255
 4405POPC   C1B55987   8.679  35.526   6.265
 4405POPC   C2B55988   8.557  35.512   6.721
 4405POPC   C3B55989   8.685  35.499   7.162
 4405POPC   C4B55990   8.771  35.611   7.628
 4406POPC   NC355991  32.347  30.878   5.386
 4406POPC   PO455992  31.917  30.504   5.550
 4406POPC   GL155993  32.199  30.726   5.852
 4406POPC   GL255994  32.045  31.035   5.781
 4406POPC   C1A55995  32.428  30.911   6.250
 4406POPC   D2A55996  32.568  30.768   6.687
 4406POPC   C3A55997  32.371  30.877   7.094
 4406POPC   C4A55998  32.147  30.714   7.490
 4406POPC   C1B55999  31.909  30.965   6.214
 4406POPC   C2B56000  32.074  30.946   6.649
 4406POPC   C3B56001  31.838  30.914   7.042
 4406POPC   C4B56002  31.787  31.071   7.441
 4407POPC   NC356003  25.962  36.128   5.372
 4407POPC   PO456004  26.505  35.780   5.418
 4407POPC   GL156005  26.298  36.088   5.753
 4407POPC   GL256006  25.931  35.950   5.845
 4407POPC   C1A56007  26.150  36.271   6.174
 4407POPC   D2A56008  26.331  36.120   6.573
 4407POPC   C3A56009  26.319  36.290   6.995
 4407POPC   C4A56010  26.359  36.014   7.377
 4407POPC   C1B56011  26.226  35.768   6.177
 4407POPC   C2B56012  26.158  35.624   6.616
 4407POPC   C3B56013  26.012  35.844   7.012
 4407POPC   C4B56014  25.897  35.834   7.484
 4408POPC   NC356015  30.920   5.595   5.287
 4408POPC   PO456016  30.598   6.130   5.543
 4408POPC   GL156017  30.875   5.927   5.829
 4408POPC   GL256018  31.013   5.569   5.792
 4408POPC   C1A56019  30.844   6.028   6.245
 4408POPC   D2A56020  30.632   6.235   6.573
 4408POPC   C3A56021  30.544   5.923   6.867
 4408POPC   C4A56022  30.600   6.006   7.280
 4408POPC   C1B56023  30.988   5.507   6.251
 4408POPC   C2B56024  31.101   5.788   6.603
 4408POPC   C3B56025  31.008   5.795   7.007
 4408POPC   C4B56026  30.732   5.512   7.206
 4409POPC   NC356027   5.156   9.917   5.444
 4409POPC   PO456028   4.958  10.526   5.533
 4409POPC   GL156029   5.090  10.738   5.908
 4409POPC   GL256030   4.773  10.785   6.090
 4409POPC   C1A56031   5.268  10.572   6.317
 4409POPC   D2A56032   5.058  10.369   6.667
 4409POPC   C3A56033   5.241  10.364   7.074
 4409POPC   C4A56034   5.168  10.159   7.468
 4409POPC   C1B56035   5.055  11.030   6.360
 4409POPC   C2B56036   5.109  10.904   6.776
 4409POPC   C3B56037   4.839  10.691   7.037
 4409POPC   C4B56038   4.904  10.786   7.424
 4410POPC   NC356039  13.272   0.546   5.376
 4410POPC   PO456040  13.881   0.874   5.434
 4410POPC   GL156041  13.696   0.555   5.718
 4410POPC   GL256042  13.996   0.590   5.872
 4410POPC   C1A56043  13.618   0.315   6.140
 4410POPC   D2A56044  13.827   0.208   6.557
 4410POPC   C3A56045  13.640   0.362   6.948
 4410POPC   C4A56046  13.342   0.546   7.221
 4410POPC   C1B56047  13.858   0.757   6.236
 4410POPC   C2B56048  13.928   0.729   6.652
 4410POPC   C3B56049  13.942   0.764   7.072
 4410POPC   C4B56050  13.888   0.485   7.419
 4411POPC   NC356051   3.985  13.115   5.488
 4411POPC   PO456052   4.305  12.544   5.584
 4411POPC   GL156053   4.349  12.980   5.813
 4411POPC   GL256054   3.995  13.077   5.999
 4411POPC   C1A56055   4.556  13.146   6.203
 4411POPC   D2A56056   4.354  13.100   6.643
 4411POPC   C3A56057   4.594  13.204   7.012
 4411POPC   C4A56058   4.733  13.002   7.405
 4411POPC   C1B56059   4.208  12.770   6.248
 4411POPC   C2B56060   4.593  12.675   6.462
 4411POPC   C3B56061   4.644  12.696   6.890
 4411POPC   C4B56062   4.253  12.818   7.100
 4412POPC   NC356063   6.048  24.362   5.422
 4412POPC   PO456064   5.450  24.253   5.121
 4412POPC   GL156065   5.593  24.557   5.552
 4412POPC   GL256066   5.920  24.760   5.709
 4412POPC   C1A56067   5.696  24.434   6.039
 4412POPC   D2A56068   5.594  24.165   6.432
 4412POPC   C3A56069   5.670  24.252   6.876
 4412POPC   C4A56070   5.665  24.664   7.139
 4412POPC   C1B56071   6.161  24.613   6.120
 4412POPC   C2B56072   6.064  24.401   6.523
 4412POPC   C3B56073   6.107  24.459   6.968
 4412POPC   C4B56074   6.166  24.820   7.191
 4413POPC   NC356075   7.817  26.821   5.334
 4413POPC   PO456076   7.228  26.909   5.086
 4413POPC   GL156077   7.294  26.675   5.558
 4413POPC   GL256078   7.613  26.713   5.778
 4413POPC   C1A56079   7.214  26.712   6.058
 4413POPC   D2A56080   7.464  26.989   6.363
 4413POPC   C3A56081   7.364  26.953   6.814
 4413POPC   C4A56082   7.513  27.141   7.184
 4413POPC   C1B56083   7.743  26.584   6.200
 4413POPC   C2B56084   7.595  26.513   6.628
 4413POPC   C3B56085   7.747  26.622   7.031
 4413POPC   C4B56086   7.869  26.361   7.381
 4414POPC   NC356087  11.237  30.191   5.515
 4414POPC   PO456088  11.407  29.567   5.434
 4414POPC   GL156089  11.453  29.560   5.877
 4414POPC   GL256090  11.431  29.906   5.893
 4414POPC   C1A56091  11.452  29.636   6.325
 4414POPC   D2A56092  11.605  29.803   6.708
 4414POPC   C3A56093  11.281  29.676   6.956
 4414POPC   C4A56094  10.856  29.684   7.135
 4414POPC   C1B56095  11.618  30.104   6.243
 4414POPC   C2B56096  11.557  30.365   6.592
 4414POPC   C3B56097  11.411  30.229   6.963
 4414POPC   C4B56098  11.531  29.946   7.290
 4415POPC   NC356099  12.301  32.539   5.504
 4415POPC   PO456100  11.869  31.993   5.403
 4415POPC   GL156101  12.028  32.233   5.806
 4415POPC   GL256102  11.976  32.616   5.899
 4415POPC   C1A56103  12.319  32.283   6.192
 4415POPC   D2A56104  12.389  32.118   6.629
 4415POPC   C3A56105  11.982  31.969   6.824
 4415POPC   C4A56106  11.856  32.016   7.251
 4415POPC   C1B56107  11.657  32.644   6.254
 4415POPC   C2B56108  11.649  32.589   6.725
 4415POPC   C3B56109  11.938  32.489   7.086
 4415POPC   C4B56110  11.906  32.576   7.543
 4416POPC   NC356111  41.119  12.019   5.057
 4416POPC   PO456112  40.681  12.052   5.500
 4416POPC   GL156113  40.807  12.151   5.887
 4416POPC   GL256114  41.056  11.967   5.873
 4416POPC   C1A56115  40.958  12.325   6.276
 4416POPC   D2A56116  40.745  12.334   6.685
 4416POPC   C3A56117  40.900  12.259   7.087
 4416POPC   C4A56118  40.768  11.932   7.371
 4416POPC   C1B56119  41.203  11.858   6.250
 4416POPC   C2B56120  41.145  11.960   6.689
 4416POPC   C3B56121  41.227  11.836   7.129
 4416POPC   C4B56122  41.239  11.936   7.569
 4417POPC   NC356123  38.595  41.806   5.417
 4417POPC   PO456124  38.461  41.155   5.395
 4417POPC   GL156125  38.364  41.398   5.760
 4417POPC   GL256126  38.679  41.527   5.837
 4417POPC   C1A56127  38.311  41.559   6.206
 4417POPC   D2A56128  38.502  41.579   6.635
 4417POPC   C3A56129  38.253  41.633   7.018
 4417POPC   C4A56130  38.055  41.279   7.257
 4417POPC   C1B56131  38.838  41.642   6.227
 4417POPC   C2B56132  39.021  41.448   6.606
 4417POPC   C3B56133  38.896  41.573   7.019
 4417POPC   C4B56134  38.773  41.564   7.425
 4418POPC   NC356135  39.584   1.838   5.521
 4418POPC   PO456136  40.197   2.165   5.452
 4418POPC   GL156137  40.214   1.877   5.809
 4418POPC   GL256138  39.983   1.592   5.727
 4418POPC   C1A56139  40.217   2.045   6.252
 4418POPC   D2A56140  39.807   2.113   6.471
 4418POPC   C3A56141  39.817   2.270   6.884
 4418POPC   C4A56142  39.946   2.166   7.284
 4418POPC   C1B56143  39.899   1.673   6.155
 4418POPC   C2B56144  39.807   1.580   6.547
 4418POPC   C3B56145  39.699   1.784   6.883
 4418POPC   C4B56146  39.730   1.727   7.284
 4419POPC   NC356147   2.572  31.130   5.383
 4419POPC   PO456148   2.661  30.429   5.391
 4419POPC   GL156149   2.923  30.607   5.788
 4419POPC   GL256150   2.715  30.879   5.856
 4419POPC   C1A56151   2.979  30.748   6.277
 4419POPC   D2A56152   2.707  30.705   6.670
 4419POPC   C3A56153   2.906  30.893   7.040
 4419POPC   C4A56154   3.071  30.695   7.406
 4419POPC   C1B56155   2.509  30.574   6.178
 4419POPC   C2B56156   2.534  30.237   6.511
 4419POPC   C3B56157   2.480  30.259   6.959
 4419POPC   C4B56158   2.518  30.611   7.215
 4420POPC   NC356159   7.413  23.447   5.462
 4420POPC   PO456160   7.686  24.058   5.315
 4420POPC   GL156161   7.612  23.974   5.782
 4420POPC   GL256162   7.300  23.769   5.837
 4420POPC   C1A56163   7.607  23.818   6.245
 4420POPC   D2A56164   7.571  23.458   6.568
 4420POPC   C3A56165   7.480  23.633   6.978
 4420POPC   C4A56166   7.208  24.013   7.081
 4420POPC   C1B56167   7.206  23.458   6.188
 4420POPC   C2B56168   6.901  23.347   6.504
 4420POPC   C3B56169   7.035  23.355   6.904
 4420POPC   C4B56170   7.064  23.581   7.288
 4421POPC   NC356171  11.471  41.155   5.532
 4421POPC   PO456172  11.435  41.873   5.564
 4421POPC   GL156173  11.158  41.673   5.894
 4421POPC   GL256174  10.938  41.425   5.676
 4421POPC   C1A56175  11.045  41.804   6.350
 4421POPC   D2A56176  11.075  41.765   6.821
 4421POPC   C3A56177  11.492  41.745   6.956
 4421POPC   C4A56178  11.672  41.499   7.265
 4421POPC   C1B56179  10.815  41.375   6.120
 4421POPC   C2B56180  11.113  41.274   6.421
 4421POPC   C3B56181  11.120  41.245   6.846
 4421POPC   C4B56182  11.176  41.374   7.247
 4422POPC   NC356183  10.949  24.873   5.606
 4422POPC   PO456184  11.416  25.424   5.478
 4422POPC   GL156185  11.289  25.488   5.898
 4422POPC   GL256186  11.383  25.128   5.902
 4422POPC   C1A56187  11.312  25.361   6.350
 4422POPC   D2A56188  11.204  25.178   6.751
 4422POPC   C3A56189  11.270  25.428   7.050
 4422POPC   C4A56190  11.107  25.496   7.427
 4422POPC   C1B56191  11.725  25.087   6.221
 4422POPC   C2B56192  11.727  25.176   6.673
 4422POPC   C3B56193  11.621  25.047   7.088
 4422POPC   C4B56194  11.248  24.973   7.265
 4423POPC   NC356195   4.323  32.701   5.633
 4423POPC   PO456196   4.718  33.114   5.324
 4423POPC   GL156197   4.477  33.282   5.785
 4423POPC   GL256198   4.135  33.122   5.859
 4423POPC   C1A56199   4.416  33.135   6.285
 4423POPC   D2A56200   4.258  33.228   6.702
 4423POPC   C3A56201   4.405  32.956   7.038
 4423POPC   C4A56202   4.568  33.063   7.442
 4423POPC   C1B56203   3.931  32.861   6.216
 4423POPC   C2B56204   4.027  32.754   6.670
 4423POPC   C3B56205   4.062  32.590   7.106
 4423POPC   C4B56206   4.095  32.866   7.492
 4424POPC   NC356207  24.074  29.333   5.459
 4424POPC   PO456208  23.464  28.994   5.221
 4424POPC   GL156209  23.685  28.993   5.669
 4424POPC   GL256210  24.045  28.997   5.838
 4424POPC   C1A56211  23.640  28.830   6.124
 4424POPC   D2A56212  23.891  28.811   6.517
 4424POPC   C3A56213  23.686  28.959   6.893
 4424POPC   C4A56214  23.447  29.320   7.050
 4424POPC   C1B56215  23.789  29.310   6.098
 4424POPC   C2B56216  23.703  29.409   6.562
 4424POPC   C3B56217  23.988  29.372   6.963
 4424POPC   C4B56218  24.147  28.953   7.169
 4425POPC   NC356219  21.687  22.626   5.413
 4425POPC   PO456220  22.291  22.784   5.574
 4425POPC   GL156221  22.246  23.009   5.935
 4425POPC   GL256222  21.959  23.255   5.919
 4425POPC   C1A56223  22.235  22.705   6.274
 4425POPC   D2A56224  22.020  22.571   6.633
 4425POPC   C3A56225  22.333  22.571   6.911
 4425POPC   C4A56226  22.387  22.806   7.242
 4425POPC   C1B56227  21.949  23.134   6.350
 4425POPC   C2B56228  22.263  23.065   6.653
 4425POPC   C3B56229  22.198  23.295   6.996
 4425POPC   C4B56230  22.145  23.230   7.393
 4426POPC   NC356231  36.365  19.369   5.545
 4426POPC   PO456232  36.991  19.119   5.336
 4426POPC   GL156233  36.860  18.964   5.772
 4426POPC   GL256234  36.551  18.906   5.850
 4426POPC   C1A56235  37.016  19.051   6.189
 4426POPC   D2A56236  37.069  19.355   6.517
 4426POPC   C3A56237  37.038  19.168   6.892
 4426POPC   C4A56238  37.291  19.043   7.219
 4426POPC   C1B56239  36.604  18.740   6.265
 4426POPC   C2B56240  36.636  18.889   6.719
 4426POPC   C3B56241  36.742  18.907   7.200
 4426POPC   C4B56242  36.615  18.946   7.670
 4427POPC   NC356243  27.570  42.200   5.485
 4427POPC   PO456244  27.530  41.589   5.457
 4427POPC   GL156245  27.303  41.528   5.795
 4427POPC   GL256246  27.328  41.898   5.854
 4427POPC   C1A56247  27.239  41.288   6.191
 4427POPC   D2A56248  27.513  41.256   6.498
 4427POPC   C3A56249  27.443  41.554   6.791
 4427POPC   C4A56250  27.464  41.502   7.232
 4427POPC   C1B56251  27.608  41.744   6.212
 4427POPC   C2B56252  27.915  41.897   6.541
 4427POPC   C3B56253  27.808  41.840   6.978
 4427POPC   C4B56254  27.418  42.008   7.118
 4428POPC   NC356255  35.904   0.923   5.381
 4428POPC   PO456256  36.239   0.342   5.433
 4428POPC   GL156257  36.172   0.452   5.842
 4428POPC   GL256258  36.152   0.801   5.874
 4428POPC   C1A56259  35.995   0.345   6.242
 4428POPC   D2A56260  35.797   0.495   6.628
 4428POPC   C3A56261  35.948   0.213   6.933
 4428POPC   C4A56262  35.962   0.080   7.343
 4428POPC   C1B56263  36.348   0.710   6.295
 4428POPC   C2B56264  36.295   0.603   6.753
 4428POPC   C3B56265  35.983   0.719   7.106
 4428POPC   C4B56266  36.157   0.819   7.525
 4429POPC   NC356267  21.968  39.192   5.492
 4429POPC   PO456268  22.604  38.852   5.486
 4429POPC   GL156269  22.367  39.012   5.835
 4429POPC   GL256270  22.248  39.351   5.921
 4429POPC   C1A56271  22.183  38.889   6.243
 4429POPC   D2A56272  22.067  38.947   6.690
 4429POPC   C3A56273  22.304  39.274   6.903
 4429POPC   C4A56274  22.612  39.342   7.227
 4429POPC   C1B56275  21.821  39.250   6.135
 4429POPC   C2B56276  21.649  39.193   6.548
 4429POPC   C3B56277  21.797  39.334   6.978
 4429POPC   C4B56278  22.091  39.350   7.370
 4430POPC   NC356279  26.266  37.657   5.520
 4430POPC   PO456280  25.647  37.724   5.664
 4430POPC   GL156281  26.016  37.857   5.941
 4430POPC   GL256282  26.377  37.753   6.013
 4430POPC   C1A56283  25.993  37.734   6.376
 4430POPC   D2A56284  25.689  37.540   6.636
 4430POPC   C3A56285  25.814  37.807   6.941
 4430POPC   C4A56286  26.219  37.830   7.170
 4430POPC   C1B56287  26.126  37.343   6.079
 4430POPC   C2B56288  26.099  37.156   6.487
 4430POPC   C3B56289  26.105  37.351   6.890
 4430POPC   C4B56290  25.855  37.407   7.242
 4431POPC   NC356291  15.202  10.063   5.260
 4431POPC   PO456292  14.913  10.707   5.368
 4431POPC   GL156293  15.060  10.506   5.731
 4431POPC   GL256294  14.784  10.347   5.894
 4431POPC   C1A56295  15.394  10.583   6.038
 4431POPC   D2A56296  15.492  10.772   6.446
 4431POPC   C3A56297  15.346  10.622   6.856
 4431POPC   C4A56298  15.329  10.751   7.323
 4431POPC   C1B56299  15.046  10.270   6.254
 4431POPC   C2B56300  15.050  10.188   6.682
 4431POPC   C3B56301  14.748  10.219   7.005
 4431POPC   C4B56302  14.758  10.432   7.399
 4432POPC   NC356303  36.267  23.300   5.223
 4432POPC   PO456304  36.832  23.318   5.645
 4432POPC   GL156305  36.960  23.076   5.929
 4432POPC   GL256306  36.784  22.778   5.806
 4432POPC   C1A56307  37.023  23.000   6.356
 4432POPC   D2A56308  36.756  23.139   6.668
 4432POPC   C3A56309  36.871  22.927   6.997
 4432POPC   C4A56310  36.973  23.158   7.313
 4432POPC   C1B56311  37.139  22.620   6.044
 4432POPC   C2B56312  37.196  22.527   6.497
 4432POPC   C3B56313  37.011  22.436   6.907
 4432POPC   C4B56314  36.962  22.527   7.369
 4433POPC   NC356315  22.623  23.088   5.516
 4433POPC   PO456316  22.877  22.449   5.368
 4433POPC   GL156317  22.780  22.677   5.746
 4433POPC   GL256318  23.100  22.818   5.874
 4433POPC   C1A56319  22.704  22.904   6.161
 4433POPC   D2A56320  22.933  23.029   6.506
 4433POPC   C3A56321  22.734  22.947   6.895
 4433POPC   C4A56322  22.651  23.239   7.216
 4433POPC   C1B56323  23.206  22.637   6.293
 4433POPC   C2B56324  23.181  22.679   6.777
 4433POPC   C3B56325  23.154  22.756   7.240
 4433POPC   C4B56326  23.282  22.865   7.718
 4434POPC   NC356327  26.145   5.639   5.534
 4434POPC   PO456328  25.754   6.134   5.385
 4434POPC   GL156329  25.967   6.073   5.771
 4434POPC   GL256330  26.339   6.062   5.751
 4434POPC   C1A56331  25.842   5.833   6.127
 4434POPC   D2A56332  25.852   6.000   6.520
 4434POPC   C3A56333  25.658   5.875   6.873
 4434POPC   C4A56334  25.766   5.618   7.205
 4434POPC   C1B56335  26.356   5.796   6.155
 4434POPC   C2B56336  26.388   5.626   6.563
 4434POPC   C3B56337  26.176   5.731   6.940
 4434POPC   C4B56338  26.348   5.577   7.322
 4435POPC   NC356339  42.659  40.334   5.489
 4435POPC   PO456340  42.492  39.613   5.456
 4435POPC   GL156341  42.497  39.936   5.771
 4435POPC   GL256342  42.212  40.161   5.702
 4435POPC   C1A56343  42.418  39.978   6.205
 4435POPC   D2A56344  42.571  40.221   6.552
 4435POPC   C3A56345  42.464  39.998   6.882
 4435POPC   C4A56346  42.341  39.961   7.263
 4435POPC   C1B56347  41.990  40.269   6.077
 4435POPC   C2B56348  41.978  40.073   6.491
 4435POPC   C3B56349  41.984  40.154   6.947
 4435POPC   C4B56350  42.100  40.423   7.321
 4436POPC   NC356351  25.778  20.846   5.258
 4436POPC   PO456352  25.708  21.541   5.430
 4436POPC   GL156353  25.857  21.651   5.848
 4436POPC   GL256354  26.117  21.369   5.889
 4436POPC   C1A56355  25.923  21.592   6.311
 4436POPC   D2A56356  25.993  21.268   6.652
 4436POPC   C3A56357  25.803  21.380   7.047
 4436POPC   C4A56358  25.805  21.617   7.412
 4436POPC   C1B56359  26.447  21.522   6.151
 4436POPC   C2B56360  26.538  21.581   6.595
 4436POPC   C3B56361  26.422  21.331   6.964
 4436POPC   C4B56362  26.214  21.288   7.372
 4437POPC   NC356363  29.071  32.389   5.424
 4437POPC   PO456364  29.381  31.811   5.201
 4437POPC   GL156365  29.261  31.975   5.678
 4437POPC   GL256366  29.455  32.299   5.778
 4437POPC   C1A56367  29.031  32.189   6.068
 4437POPC   D2A56368  28.914  32.128   6.504
 4437POPC   C3A56369  28.722  32.304   6.890
 4437POPC   C4A56370  28.910  32.211   7.286
 4437POPC   C1B56371  29.403  32.478   6.200
 4437POPC   C2B56372  29.213  32.618   6.578
 4437POPC   C3B56373  29.216  32.422   6.935
 4437POPC   C4B56374  29.450  32.485   7.279
 4438POPC   NC356375  10.752   3.248   5.497
 4438POPC   PO456376  10.741   3.895   5.339
 4438POPC   GL156377  10.535   3.683   5.692
 4438POPC   GL256378  10.853   3.658   5.793
 4438POPC   C1A56379  10.269   3.463   6.044
 4438POPC   D2A56380  10.170   3.292   6.475
 4438POPC   C3A56381  10.438   3.464   6.801
 4438POPC   C4A56382  10.482   3.359   7.216
 4438POPC   C1B56383  10.783   3.418   6.160
 4438POPC   C2B56384  10.851   3.660   6.510
 4438POPC   C3B56385  11.036   3.797   6.862
 4438POPC   C4B56386  10.945   3.578   7.195
 4439POPC   NC356387   8.666  26.417   5.676
 4439POPC   PO456388   8.978  26.750   5.183
 4439POPC   GL156389   8.991  26.886   5.647
 4439POPC   GL256390   9.137  26.598   5.811
 4439POPC   C1A56391   8.904  26.937   6.128
 4439POPC   D2A56392   8.573  26.920   6.469
 4439POPC   C3A56393   8.549  27.242   6.814
 4439POPC   C4A56394   8.616  27.069   7.214
 4439POPC   C1B56395   9.288  26.592   6.250
 4439POPC   C2B56396   9.080  26.731   6.613
 4439POPC   C3B56397   9.076  26.793   7.050
 4439POPC   C4B56398   9.282  26.498   7.360
 4440POPC   NC356399  23.055  31.309   5.228
 4440POPC   PO456400  22.761  31.857   5.459
 4440POPC   GL156401  22.860  31.459   5.712
 4440POPC   GL256402  23.191  31.396   5.829
 4440POPC   C1A56403  22.779  31.233   6.119
 4440POPC   D2A56404  22.744  31.354   6.550
 4440POPC   C3A56405  22.893  31.174   6.946
 4440POPC   C4A56406  22.772  31.309   7.387
 4440POPC   C1B56407  23.234  31.492   6.293
 4440POPC   C2B56408  23.284  31.522   6.746
 4440POPC   C3B56409  23.226  31.492   7.199
 4440POPC   C4B56410  23.203  31.392   7.663
 4441POPC   NC356411  40.247  22.453   5.230
 4441POPC   PO456412  39.835  21.939   5.332
 4441POPC   GL156413  40.032  22.070   5.735
 4441POPC   GL256414  40.151  21.715   5.736
 4441POPC   C1A56415  40.053  22.147   6.226
 4441POPC   D2A56416  39.852  22.234   6.579
 4441POPC   C3A56417  40.112  22.361   6.880
 4441POPC   C4A56418  40.035  22.183   7.268
 4441POPC   C1B56419  39.872  21.715   6.061
 4441POPC   C2B56420  39.926  21.680   6.495
 4441POPC   C3B56421  39.932  21.846   6.903
 4441POPC   C4B56422  40.155  21.683   7.226
 4442POPC   NC356423  33.531   4.858   5.506
 4442POPC   PO456424  34.042   5.161   5.552
 4442POPC   GL156425  33.956   5.308   5.902
 4442POPC   GL256426  33.603   5.281   5.857
 4442POPC   C1A56427  34.099   5.276   6.318
 4442POPC   D2A56428  33.951   5.023   6.669
 4442POPC   C3A56429  34.101   5.301   6.954
 4442POPC   C4A56430  34.176   5.296   7.359
 4442POPC   C1B56431  33.638   5.044   6.244
 4442POPC   C2B56432  33.423   5.010   6.647
 4442POPC   C3B56433  33.607   5.139   7.045
 4442POPC   C4B56434  33.689   4.750   7.185
 4443POPC   NC356435  35.649   2.193   5.163
 4443POPC   PO456436  35.176   1.839   5.523
 4443POPC   GL156437  35.326   1.975   5.913
 4443POPC   GL256438  35.623   2.175   5.793
 4443POPC   C1A56439  35.169   2.250   6.264
 4443POPC   D2A56440  35.245   2.456   6.657
 4443POPC   C3A56441  35.272   2.131   6.945
 4443POPC   C4A56442  35.054   1.742   7.071
 4443POPC   C1B56443  35.692   2.087   6.230
 4443POPC   C2B56444  35.448   1.837   6.521
 4443POPC   C3B56445  35.547   1.720   6.941
 4443POPC   C4B56446  35.661   1.969   7.277
 4444POPC   NC356447   3.976  12.233   5.453
 4444POPC   PO456448   4.369  11.739   5.354
 4444POPC   GL156449   4.301  11.861   5.798
 4444POPC   GL256450   4.550  12.128   5.824
 4444POPC   C1A56451   4.437  11.801   6.252
 4444POPC   D2A56452   4.205  11.851   6.619
 4444POPC   C3A56453   4.297  11.748   7.023
 4444POPC   C4A56454   4.218  12.001   7.377
 4444POPC   C1B56455   4.299  12.278   6.173
 4444POPC   C2B56456   4.152  12.359   6.571
 4444POPC   C3B56457   4.310  12.312   6.942
 4444POPC   C4B56458   4.520  12.415   7.307
 4445POPC   NC356459  38.170  29.716   5.706
 4445POPC   PO456460  37.715  30.116   5.373
 4445POPC   GL156461  37.732  30.071   5.819
 4445POPC   GL256462  37.597  29.742   5.851
 4445POPC   C1A56463  37.891  30.159   6.252
 4445POPC   D2A56464  37.663  30.147   6.670
 4445POPC   C3A56465  37.720  29.888   7.036
 4445POPC   C4A56466  38.031  29.919   7.365
 4445POPC   C1B56467  37.492  29.817   6.300
 4445POPC   C2B56468  37.350  29.706   6.728
 4445POPC   C3B56469  37.186  29.925   7.090
 4445POPC   C4B56470  37.154  29.759   7.514
 4446POPC   NC356471  12.293  25.823   5.627
 4446POPC   PO456472  12.214  26.290   5.178
 4446POPC   GL156473  11.904  26.146   5.630
 4446POPC   GL256474  11.953  26.348   5.956
 4446POPC   C1A56475  11.798  25.888   6.052
 4446POPC   D2A56476  11.887  25.981   6.499
 4446POPC   C3A56477  11.927  25.994   6.949
 4446POPC   C4A56478  11.917  26.380   7.186
 4446POPC   C1B56479  12.289  26.079   6.231
 4446POPC   C2B56480  12.470  25.835   6.534
 4446POPC   C3B56481  12.401  25.809   6.958
 4446POPC   C4B56482  12.368  26.125   7.228
 4447POPC   NC356483  39.741  16.141   5.674
 4447POPC   PO456484  39.240  16.029   5.276
 4447POPC   GL156485  39.116  15.927   5.734
 4447POPC   GL256486  39.393  15.859   5.895
 4447POPC   C1A56487  38.991  15.720   6.153
 4447POPC   D2A56488  39.018  15.859   6.565
 4447POPC   C3A56489  39.346  15.870   6.882
 4447POPC   C4A56490  39.011  15.939   7.222
 4447POPC   C1B56491  39.457  15.997   6.312
 4447POPC   C2B56492  39.327  16.308   6.614
 4447POPC   C3B56493  39.297  16.338   7.101
 4447POPC   C4B56494  39.529  16.203   7.474
 4448POPC   NC356495  19.889  22.059   5.278
 4448POPC   PO456496  19.373  21.733   5.545
 4448POPC   GL156497  19.753  22.003   5.775
 4448POPC   GL256498  19.979  22.308   5.707
 4448POPC   C1A56499  19.728  22.020   6.217
 4448POPC   D2A56500  19.410  21.845   6.461
 4448POPC   C3A56501  19.431  21.988   6.860
 4448POPC   C4A56502  19.725  22.064   7.192
 4448POPC   C1B56503  20.100  22.396   6.111
 4448POPC   C2B56504  20.066  22.307   6.535
 4448POPC   C3B56505  20.062  22.351   6.974
 4448POPC   C4B56506  20.236  21.972   7.193
 4449POPC   NC356507   3.226  12.921   5.602
 4449POPC   PO456508   3.739  12.632   5.356
 4449POPC   GL156509   3.609  12.603   5.810
 4449POPC   GL256510   3.285  12.567   6.008
 4449POPC   C1A56511   3.763  12.479   6.249
 4449POPC   D2A56512   3.869  12.791   6.623
 4449POPC   C3A56513   3.609  12.832   6.978
 4449POPC   C4A56514   3.496  12.587   7.320
 4449POPC   C1B56515   3.529  12.928   6.222
 4449POPC   C2B56516   3.647  13.261   6.520
 4449POPC   C3B56517   3.403  13.323   6.896
 4449POPC   C4B56518   3.215  13.074   7.234
 4450POPC   NC356519  21.470  16.169   5.428
 4450POPC   PO456520  21.272  15.611   5.456
 4450POPC   GL156521  21.569  15.768   5.749
 4450POPC   GL256522  21.260  15.936   5.896
 4450POPC   C1A56523  21.663  15.900   6.192
 4450POPC   D2A56524  21.348  15.994   6.507
 4450POPC   C3A56525  21.512  15.923   6.890
 4450POPC   C4A56526  21.451  16.149   7.218
 4450POPC   C1B56527  21.011  15.712   6.251
 4450POPC   C2B56528  20.884  15.846   6.699
 4450POPC   C3B56529  20.965  15.888   7.144
 4450POPC   C4B56530  20.873  15.742   7.576
 4451POPC   NC356531  24.342  37.730   5.474
 4451POPC   PO456532  24.658  37.187   5.716
 4451POPC   GL156533  24.560  37.559   5.943
 4451POPC   GL256534  24.329  37.851   5.971
 4451POPC   C1A56535  24.464  37.511   6.347
 4451POPC   D2A56536  24.523  37.264   6.698
 4451POPC   C3A56537  24.404  37.442   7.073
 4451POPC   C4A56538  24.752  37.510   7.329
 4451POPC   C1B56539  24.615  38.005   6.291
 4451POPC   C2B56540  24.550  37.850   6.737
 4451POPC   C3B56541  24.546  37.952   7.165
 4451POPC   C4B56542  24.256  37.790   7.450
 4452POPC   NC356543  11.871  37.124   5.494
 4452POPC   PO456544  12.467  36.888   5.387
 4452POPC   GL156545  12.275  37.014   5.772
 4452POPC   GL256546  12.041  36.738   5.858
 4452POPC   C1A56547  12.375  36.913   6.205
 4452POPC   D2A56548  12.238  36.692   6.558
 4452POPC   C3A56549  12.310  36.947   6.896
 4452POPC   C4A56550  12.267  36.992   7.301
 4452POPC   C1B56551  11.784  36.717   6.256
 4452POPC   C2B56552  11.748  36.807   6.718
 4452POPC   C3B56553  11.846  36.701   7.144
 4452POPC   C4B56554  11.887  36.806   7.570
 4453POPC   NC356555  39.734  30.084   5.566
 4453POPC   PO456556  40.198  29.624   5.367
 4453POPC   GL156557  40.089  29.793   5.785
 4453POPC   GL256558  40.030  29.535   5.957
 4453POPC   C1A56559  39.913  29.937   6.208
 4453POPC   D2A56560  40.147  30.012   6.538
 4453POPC   C3A56561  40.051  29.826   6.883
 4453POPC   C4A56562  39.802  30.022   7.159
 4453POPC   C1B56563  40.302  29.561   6.328
 4453POPC   C2B56564  40.355  29.404   6.764
 4453POPC   C3B56565  40.320  29.527   7.207
 4453POPC   C4B56566  40.092  29.435   7.622
 4454POPC   NC356567  35.086  37.733   5.359
 4454POPC   PO456568  34.421  37.868   5.223
 4454POPC   GL156569  34.370  37.751   5.702
 4454POPC   GL256570  34.625  37.921   5.944
 4454POPC   C1A56571  34.290  37.616   6.163
 4454POPC   D2A56572  34.509  37.473   6.524
 4454POPC   C3A56573  34.425  37.658   6.910
 4454POPC   C4A56574  34.623  37.572   7.277
 4454POPC   C1B56575  34.908  38.113   6.264
 4454POPC   C2B56576  34.967  37.991   6.678
 4454POPC   C3B56577  34.803  38.075   7.087
 4454POPC   C4B56578  34.783  37.984   7.537
 4455POPC   NC356579  28.520   4.589   5.584
 4455POPC   PO456580  28.590   3.966   5.604
 4455POPC   GL156581  28.663   4.083   5.984
 4455POPC   GL256582  28.406   4.320   6.011
 4455POPC   C1A56583  28.650   4.109   6.409
 4455POPC   D2A56584  28.335   4.332   6.615
 4455POPC   C3A56585  28.465   4.381   7.020
 4455POPC   C4A56586  28.641   4.270   7.421
 4455POPC   C1B56587  28.050   4.539   6.217
 4455POPC   C2B56588  27.856   4.627   6.614
 4455POPC   C3B56589  28.046   4.703   7.042
 4455POPC   C4B56590  28.315   4.687   7.425
 4456POPC   NC356591  35.990  14.929   5.199
 4456POPC   PO456592  36.354  15.430   5.382
 4456POPC   GL156593  36.003  15.362   5.694
 4456POPC   GL256594  35.931  14.998   5.697
 4456POPC   C1A56595  35.936  15.484   6.130
 4456POPC   D2A56596  36.161  15.290   6.482
 4456POPC   C3A56597  36.319  15.365   6.923
 4456POPC   C4A56598  36.484  14.967   7.118
 4456POPC   C1B56599  35.907  14.963   6.116
 4456POPC   C2B56600  35.754  14.922   6.520
 4456POPC   C3B56601  36.023  14.928   6.847
 4456POPC   C4B56602  35.976  15.022   7.244
 4457POPC   NC356603  19.851   1.035   5.009
 4457POPC   PO456604  20.421   1.457   5.318
 4457POPC   GL156605  20.168   1.426   5.794
 4457POPC   GL256606  19.809   1.474   5.736
 4457POPC   C1A56607  20.047   1.248   6.291
 4457POPC   D2A56608  19.979   1.310   6.772
 4457POPC   C3A56609  19.748   0.996   7.034
 4457POPC   C4A56610  19.300   0.936   7.097
 4457POPC   C1B56611  19.611   1.409   6.096
 4457POPC   C2B56612  19.582   1.520   6.468
 4457POPC   C3B56613  19.580   1.735   6.802
 4457POPC   C4B56614  19.675   1.509   7.143
 4458POPC   NC356615  35.739   9.804   5.515
 4458POPC   PO456616  36.355   9.981   5.406
 4458POPC   GL156617  36.234   9.716   5.733
 4458POPC   GL256618  36.070  10.029   5.841
 4458POPC   C1A56619  35.959   9.516   6.062
 4458POPC   D2A56620  35.775   9.709   6.430
 4458POPC   C3A56621  35.831   9.690   6.880
 4458POPC   C4A56622  35.892   9.533   7.311
 4458POPC   C1B56623  36.230   9.904   6.233
 4458POPC   C2B56624  36.293   9.744   6.662
 4458POPC   C3B56625  36.269   9.893   7.118
 4458POPC   C4B56626  36.590   9.974   7.458
 4459POPC   NC356627  13.575   9.060   5.357
 4459POPC   PO456628  13.790   8.405   5.400
 4459POPC   GL156629  13.695   8.704   5.742
 4459POPC   GL256630  13.911   9.014   5.787
 4459POPC   C1A56631  13.482   8.812   6.158
 4459POPC   D2A56632  13.412   9.060   6.559
 4459POPC   C3A56633  13.509   8.897   6.986
 4459POPC   C4A56634  13.638   9.068   7.385
 4459POPC   C1B56635  13.977   8.747   6.188
 4459POPC   C2B56636  13.887   8.791   6.656
 4459POPC   C3B56637  13.991   8.798   7.118
 4459POPC   C4B56638  13.931   8.640   7.566
 4460POPC   NC356639  22.278  18.571   5.529
 4460POPC   PO456640  22.187  19.288   5.362
 4460POPC   GL156641  22.093  19.116   5.779
 4460POPC   GL256642  22.377  18.892   5.909
 4460POPC   C1A56643  22.094  19.161   6.240
 4460POPC   D2A56644  21.965  19.051   6.630
 4460POPC   C3A56645  22.108  19.327   6.943
 4460POPC   C4A56646  21.931  19.297   7.331
 4460POPC   C1B56647  22.563  18.792   6.322
 4460POPC   C2B56648  22.487  19.016   6.697
 4460POPC   C3B56649  22.385  18.896   7.121
 4460POPC   C4B56650  22.551  18.753   7.558
 4461POPC   NC356651  12.721  25.129   5.391
 4461POPC   PO456652  13.013  25.696   5.273
 4461POPC   GL156653  12.953  25.431   5.706
 4461POPC   GL256654  13.104  25.089   5.747
 4461POPC   C1A56655  12.707  25.152   6.057
 4461POPC   D2A56656  12.479  25.229   6.428
 4461POPC   C3A56657  12.635  25.378   6.794
 4461POPC   C4A56658  12.456  25.383   7.199
 4461POPC   C1B56659  13.166  25.351   6.157
 4461POPC   C2B56660  13.066  25.183   6.537
 4461POPC   C3B56661  12.972  24.992   6.902
 4461POPC   C4B56662  12.954  25.251   7.226
 4462POPC   NC356663  44.474   4.554   5.094
 4462POPC   PO456664  44.822   4.116   5.555
 4462POPC   GL156665  44.658   4.350   5.853
 4462POPC   GL256666  44.636   4.670   5.865
 4462POPC   C1A56667  44.493   4.216   6.205
 4462POPC   D2A56668  44.674   4.083   6.569
 4462POPC   C3A56669  44.538   4.374   6.870
 4462POPC   C4A56670  44.538   4.345   7.284
 4462POPC   C1B56671  44.672   4.868   6.283
 4462POPC   C2B56672  44.652   4.873   6.750
 4462POPC   C3B56673  44.840   4.737   7.156
 4462POPC   C4B56674  44.907   4.906   7.587
 4463POPC   NC356675  29.570  24.443   5.436
 4463POPC   PO456676  29.308  25.060   5.587
 4463POPC   GL156677  29.173  24.631   5.734
 4463POPC   GL256678  28.810  24.570   5.788
 4463POPC   C1A56679  29.162  24.339   6.097
 4463POPC   D2A56680  29.005  24.405   6.508
 4463POPC   C3A56681  29.341  24.512   6.801
 4463POPC   C4A56682  29.341  24.588   7.262
 4463POPC   C1B56683  28.889  24.822   6.199
 4463POPC   C2B56684  29.009  24.881   6.666
 4463POPC   C3B56685  28.880  24.619   7.022
 4463POPC   C4B56686  28.884  24.672   7.500
 4464POPC   NC356687  33.065  27.910   5.068
 4464POPC   PO456688  33.144  27.334   5.347
 4464POPC   GL156689  33.347  27.427   5.729
 4464POPC   GL256690  33.385  27.804   5.777
 4464POPC   C1A56691  33.265  27.300   6.155
 4464POPC   D2A56692  33.006  27.443   6.480
 4464POPC   C3A56693  33.119  27.482   6.890
 4464POPC   C4A56694  32.905  27.399   7.283
 4464POPC   C1B56695  33.291  27.851   6.248
 4464POPC   C2B56696  33.340  27.933   6.700
 4464POPC   C3B56697  33.208  27.900   7.168
 4464POPC   C4B56698  32.919  27.855   7.547
 4465POPC   NC356699   7.661   5.802   5.346
 4465POPC   PO456700   7.216   6.063   5.568
 4465POPC   GL156701   7.480   5.897   5.855
 4465POPC   GL256702   7.446   5.590   5.796
 4465POPC   C1A56703   7.657   5.981   6.262
 4465POPC   D2A56704   7.538   6.104   6.685
 4465POPC   C3A56705   7.566   5.884   7.074
 4465POPC   C4A56706   7.224   5.849   7.387
 4465POPC   C1B56707   7.390   5.519   6.219
 4465POPC   C2B56708   7.380   5.616   6.647
 4465POPC   C3B56709   7.289   5.461   7.058
 4465POPC   C4B56710   7.576   5.468   7.389
 4466POPC   NC356711   6.976   8.404   5.367
 4466POPC   PO456712   6.744   7.816   5.564
 4466POPC   GL156713   6.612   7.980   5.895
 4466POPC   GL256714   6.829   8.239   5.870
 4466POPC   C1A56715   6.796   7.985   6.316
 4466POPC   D2A56716   6.597   7.975   6.680
 4466POPC   C3A56717   6.701   8.190   7.031
 4466POPC   C4A56718   6.704   8.227   7.459
 4466POPC   C1B56719   6.494   8.368   6.201
 4466POPC   C2B56720   6.496   8.480   6.604
 4466POPC   C3B56721   6.222   8.461   6.904
 4466POPC   C4B56722   6.270   8.413   7.299
 4467POPC   NC356723   9.878  15.845   5.143
 4467POPC   PO456724   9.552  16.225   5.629
 4467POPC   GL156725   9.844  15.881   5.734
 4467POPC   GL256726   9.963  16.117   5.949
 4467POPC   C1A56727   9.936  15.665   6.153
 4467POPC   D2A56728   9.653  15.679   6.512
 4467POPC   C3A56729   9.771  15.946   6.868
 4467POPC   C4A56730   9.866  15.836   7.299
 4467POPC   C1B56731   9.693  16.277   6.258
 4467POPC   C2B56732   9.785  16.424   6.631
 4467POPC   C3B56733   9.656  16.453   7.008
 4467POPC   C4B56734   9.814  16.337   7.381
 4468POPC   NC356735  23.653   1.944   5.209
 4468POPC   PO456736  23.008   1.920   5.511
 4468POPC   GL156737  22.867   2.040   5.880
 4468POPC   GL256738  22.645   1.765   5.877
 4468POPC   C1A56739  23.043   2.143   6.270
 4468POPC   D2A56740  22.905   2.048   6.666
 4468POPC   C3A56741  23.221   2.066   6.947
 4468POPC   C4A56742  23.024   2.107   7.311
 4468POPC   C1B56743  22.924   1.610   6.203
 4468POPC   C2B56744  23.054   1.561   6.643
 4468POPC   C3B56745  22.934   1.669   7.065
 4468POPC   C4B56746  23.132   1.652   7.502
 4469POPC   NC356747   6.344  12.546   5.420
 4469POPC   PO456748   6.791  12.097   5.282
 4469POPC   GL156749   6.714  12.140   5.744
 4469POPC   GL256750   6.516  12.383   5.965
 4469POPC   C1A56751   6.814  12.043   6.177
 4469POPC   D2A56752   6.743  11.698   6.438
 4469POPC   C3A56753   6.802  11.691   6.881
 4469POPC   C4A56754   6.857  11.979   7.215
 4469POPC   C1B56755   6.617  12.544   6.375
 4469POPC   C2B56756   6.499  12.338   6.757
 4469POPC   C3B56757   6.545  12.376   7.196
 4469POPC   C4B56758   6.435  12.437   7.621
 4470POPC   NC356759  24.828  12.313   5.612
 4470POPC   PO456760  25.349  12.064   5.203
 4470POPC   GL156761  25.222  11.921   5.702
 4470POPC   GL256762  25.070  11.626   5.841
 4470POPC   C1A56763  25.185  12.110   6.184
 4470POPC   D2A56764  25.414  12.269   6.570
 4470POPC   C3A56765  25.361  12.380   6.999
 4470POPC   C4A56766  25.438  12.166   7.386
 4470POPC   C1B56767  24.905  11.707   6.276
 4470POPC   C2B56768  24.890  11.968   6.609
 4470POPC   C3B56769  25.082  11.928   7.000
 4470POPC   C4B56770  24.898  12.243   7.235
 4471POPC   NC356771  16.984  25.091   5.431
 4471POPC   PO456772  16.391  24.881   5.316
 4471POPC   GL156773  16.562  25.057   5.751
 4471POPC   GL256774  16.694  25.398   5.708
 4471POPC   C1A56775  16.621  25.264   6.217
 4471POPC   D2A56776  16.360  25.327   6.642
 4471POPC   C3A56777  16.511  25.242   7.096
 4471POPC   C4A56778  16.956  25.114   7.207
 4471POPC   C1B56779  16.837  25.699   5.995
 4471POPC   C2B56780  16.835  25.765   6.421
 4471POPC   C3B56781  16.822  25.531   6.780
 4471POPC   C4B56782  16.895  25.610   7.183
 4472POPC   NC356783   7.536  37.100   5.285
 4472POPC   PO456784   7.750  36.523   5.133
 4472POPC   GL156785   7.745  36.735   5.575
 4472POPC   GL256786   7.382  36.788   5.702
 4472POPC   C1A56787   7.733  37.064   5.948
 4472POPC   D2A56788   7.541  37.262   6.349
 4472POPC   C3A56789   7.367  37.038   6.693
 4472POPC   C4A56790   7.647  36.997   7.008
 4472POPC   C1B56791   7.598  36.537   6.020
 4472POPC   C2B56792   7.655  36.593   6.452
 4472POPC   C3B56793   7.482  36.537   6.836
 4472POPC   C4B56794   7.639  36.527   7.193
 4473POPC   NC356795  41.235  32.199   5.489
 4473POPC   PO456796  41.659  32.708   5.305
 4473POPC   GL156797  41.610  32.387   5.766
 4473POPC   GL256798  41.636  32.001   5.796
 4473POPC   C1A56799  41.728  32.357   6.245
 4473POPC   D2A56800  41.835  32.522   6.695
 4473POPC   C3A56801  41.605  32.375   7.094
 4473POPC   C4A56802  41.447  32.517   7.535
 4473POPC   C1B56803  41.640  31.841   6.253
 4473POPC   C2B56804  41.569  31.998   6.699
 4473POPC   C3B56805  41.810  31.905   7.088
 4473POPC   C4B56806  41.792  31.984   7.562
 4474POPC   NC356807  15.225  13.351   5.556
 4474POPC   PO456808  15.485  13.993   5.376
 4474POPC   GL156809  15.254  13.912   5.793
 4474POPC   GL256810  15.390  13.599   5.954
 4474POPC   C1A56811  14.997  13.790   6.199
 4474POPC   D2A56812  15.118  13.534   6.523
 4474POPC   C3A56813  15.089  13.680   6.940
 4474POPC   C4A56814  14.989  13.367   7.229
 4474POPC   C1B56815  15.510  13.830   6.297
 4474POPC   C2B56816  15.568  13.717   6.736
 4474POPC   C3B56817  15.513  13.441   7.106
 4474POPC   C4B56818  15.637  13.558   7.526
 4475POPC   NC356819  21.322  12.605   5.430
 4475POPC   PO456820  21.828  13.048   5.282
 4475POPC   GL156821  21.705  13.067   5.712
 4475POPC   GL256822  21.345  13.018   5.727
 4475POPC   C1A56823  21.681  12.866   6.133
 4475POPC   D2A56824  21.510  12.718   6.523
 4475POPC   C3A56825  21.611  12.963   6.874
 4475POPC   C4A56826  21.357  12.863   7.209
 4475POPC   C1B56827  21.185  12.766   6.105
 4475POPC   C2B56828  20.984  12.702   6.517
 4475POPC   C3B56829  21.008  12.539   6.954
 4475POPC   C4B56830  20.920  12.669   7.394
 4476POPC   NC356831  38.096  27.501   5.325
 4476POPC   PO456832  38.757  27.611   5.248
 4476POPC   GL156833  38.650  27.538   5.741
 4476POPC   GL256834  38.403  27.802   5.942
 4476POPC   C1A56835  38.633  27.409   6.185
 4476POPC   D2A56836  38.652  27.582   6.606
 4476POPC   C3A56837  38.568  27.343   6.960
 4476POPC   C4A56838  38.559  27.519   7.333
 4476POPC   C1B56839  38.004  27.920   6.203
 4476POPC   C2B56840  37.875  27.856   6.629
 4476POPC   C3B56841  38.107  27.816   7.004
 4476POPC   C4B56842  38.287  27.960   7.380
 4477POPC   NC356843  24.379   8.383   5.343
 4477POPC   PO456844  24.706   7.768   5.341
 4477POPC   GL156845  24.510   7.906   5.714
 4477POPC   GL256846  24.173   8.003   5.652
 4477POPC   C1A56847  24.610   8.148   6.098
 4477POPC   D2A56848  24.717   8.015   6.520
 4477POPC   C3A56849  24.654   8.291   6.865
 4477POPC   C4A56850  24.592   8.201   7.283
 4477POPC   C1B56851  24.158   7.897   6.111
 4477POPC   C2B56852  24.259   7.761   6.519
 4477POPC   C3B56853  24.297   7.932   6.917
 4477POPC   C4B56854  24.206   7.806   7.318
 4478POPC   NC356855  19.192  40.390   5.425
 4478POPC   PO456856  18.874  39.917   5.531
 4478POPC   GL156857  19.156  40.096   5.857
 4478POPC   GL256858  19.509  40.222   5.805
 4478POPC   C1A56859  19.139  39.994   6.286
 4478POPC   D2A56860  18.906  39.838   6.633
 4478POPC   C3A56861  18.924  40.121   6.987
 4478POPC   C4A56862  18.946  39.989   7.456
 4478POPC   C1B56863  19.614  39.898   6.119
 4478POPC   C2B56864  19.524  39.760   6.562
 4478POPC   C3B56865  19.338  39.853   6.963
 4478POPC   C4B56866  19.402  40.139   7.316
 4479POPC   NC356867  38.610  38.181   5.536
 4479POPC   PO456868  38.308  37.642   5.272
 4479POPC   GL156869  38.358  37.758   5.702
 4479POPC   GL256870  38.121  38.051   5.717
 4479POPC   C1A56871  38.667  37.672   6.070
 4479POPC   D2A56872  38.784  37.527   6.512
 4479POPC   C3A56873  38.492  37.647   6.891
 4479POPC   C4A56874  38.569  37.769   7.323
 4479POPC   C1B56875  38.195  37.889   6.167
 4479POPC   C2B56876  38.155  37.978   6.623
 4479POPC   C3B56877  38.259  38.100   7.065
 4479POPC   C4B56878  38.226  38.091   7.545
 4480POPC   NC356879  37.271  37.176   5.274
 4480POPC   PO456880  36.712  36.911   5.436
 4480POPC   GL156881  36.745  37.035   5.846
 4480POPC   GL256882  37.017  37.260   5.814
 4480POPC   C1A56883  36.938  36.919   6.236
 4480POPC   D2A56884  37.057  36.607   6.573
 4480POPC   C3A56885  37.041  36.759   6.964
 4480POPC   C4A56886  36.807  36.985   7.245
 4480POPC   C1B56887  37.231  37.345   6.144
 4480POPC   C2B56888  37.305  37.167   6.519
 4480POPC   C3B56889  37.149  37.260   6.897
 4480POPC   C4B56890  37.288  37.176   7.305
 4481POPC   NC356891  39.463  42.250   5.591
 4481POPC   PO456892  38.783  42.195   5.576
 4481POPC   GL156893  39.046  42.126   5.878
 4481POPC   GL256894  39.107  42.473   5.897
 4481POPC   C1A56895  39.113  42.097   6.310
 4481POPC   D2A56896  38.895  41.935   6.658
 4481POPC   C3A56897  39.108  42.107   6.992
 4481POPC   C4A56898  39.557  42.163   7.085
 4481POPC   C1B56899  39.329  42.566   6.264
 4481POPC   C2B56900  39.359  42.443   6.678
 4481POPC   C3B56901  39.248  42.597   7.081
 4481POPC   C4B56902  39.277  42.779   7.474
 4482POPC   NC356903  12.408   8.688   5.358
 4482POPC   PO456904  13.107   8.950   5.320
 4482POPC   GL156905  12.880   8.915   5.737
 4482POPC   GL256906  12.655   8.648   5.790
 4482POPC   C1A56907  12.978   8.760   6.184
 4482POPC   D2A56908  13.100   8.648   6.622
 4482POPC   C3A56909  13.010   8.993   6.918
 4482POPC   C4A56910  13.132   9.016   7.353
 4482POPC   C1B56911  12.481   8.730   6.172
 4482POPC   C2B56912  12.620   8.900   6.546
 4482POPC   C3B56913  12.515   8.914   6.949
 4482POPC   C4B56914  12.631   8.947   7.335
 4483POPC   NC356915  41.717  37.162   5.116
 4483POPC   PO456916  41.342  36.724   5.332
 4483POPC   GL156917  41.271  36.862   5.745
 4483POPC   GL256918  41.067  36.621   5.889
 4483POPC   C1A56919  41.465  36.855   6.183
 4483POPC   D2A56920  41.602  37.047   6.581
 4483POPC   C3A56921  41.756  36.900   7.007
 4483POPC   C4A56922  41.662  37.154   7.402
 4483POPC   C1B56923  41.073  36.574   6.325
 4483POPC   C2B56924  41.277  36.627   6.758
 4483POPC   C3B56925  41.375  36.667   7.217
 4483POPC   C4B56926  41.375  36.763   7.633
 4484POPC   NC356927  32.416   3.871   5.418
 4484POPC   PO456928  32.090   3.228   5.414
 4484POPC   GL156929  32.259   3.358   5.799
 4484POPC   GL256930  32.207   3.692   5.838
 4484POPC   C1A56931  32.265   3.381   6.248
 4484POPC   D2A56932  32.023   3.475   6.620
 4484POPC   C3A56933  32.155   3.248   6.944
 4484POPC   C4A56934  32.239   3.133   7.321
 4484POPC   C1B56935  31.914   3.767   6.180
 4484POPC   C2B56936  31.879   3.980   6.583
 4484POPC   C3B56937  31.956   3.967   7.033
 4484POPC   C4B56938  31.965   3.589   7.288
 4485POPC   NC356939  24.775  41.993   5.547
 4485POPC   PO456940  24.146  41.685   5.494
 4485POPC   GL156941  24.347  41.718   5.915
 4485POPC   GL256942  24.710  41.678   6.003
 4485POPC   C1A56943  24.357  41.562   6.372
 4485POPC   D2A56944  24.319  41.473   6.818
 4485POPC   C3A56945  24.472  41.740   7.153
 4485POPC   C4A56946  24.500  41.617   7.562
 4485POPC   C1B56947  24.697  41.221   6.199
 4485POPC   C2B56948  24.678  41.103   6.676
 4485POPC   C3B56949  24.670  41.275   7.138
 4485POPC   C4B56950  24.850  41.240   7.619
 4486POPC   NC356951   1.593   8.295   5.373
 4486POPC   PO456952   2.067   7.888   5.469
 4486POPC   GL156953   2.120   8.076   5.853
 4486POPC   GL256954   1.920   8.387   5.806
 4486POPC   C1A56955   2.115   7.888   6.260
 4486POPC   D2A56956   2.297   8.011   6.642
 4486POPC   C3A56957   2.164   8.368   6.845
 4486POPC   C4A56958   2.343   8.586   7.189
 4486POPC   C1B56959   1.756   8.275   6.214
 4486POPC   C2B56960   1.754   8.022   6.600
 4486POPC   C3B56961   1.918   7.911   6.984
 4486POPC   C4B56962   1.837   8.252   7.235
 4487POPC   NC356963   5.186  33.207   5.501
 4487POPC   PO456964   4.723  32.853   5.801
 4487POPC   GL156965   5.052  32.734   6.010
 4487POPC   GL256966   5.358  32.751   5.790
 4487POPC   C1A56967   5.037  32.894   6.424
 4487POPC   D2A56968   4.786  33.125   6.720
 4487POPC   C3A56969   4.920  32.924   7.098
 4487POPC   C4A56970   5.107  33.081   7.467
 4487POPC   C1B56971   5.522  32.758   6.229
 4487POPC   C2B56972   5.476  32.777   6.721
 4487POPC   C3B56973   5.418  33.132   7.060
 4487POPC   C4B56974   5.334  33.511   7.347
 4488POPC   NC356975   3.236  41.427   5.524
 4488POPC   PO456976   2.750  41.910   5.457
 4488POPC   GL156977   2.708  41.828   5.874
 4488POPC   GL256978   2.913  41.555   5.918
 4488POPC   C1A56979   2.535  41.684   6.266
 4488POPC   D2A56980   2.633  41.452   6.595
 4488POPC   C3A56981   2.643  41.711   6.942
 4488POPC   C4A56982   2.677  41.522   7.315
 4488POPC   C1B56983   3.066  41.438   6.335
 4488POPC   C2B56984   2.980  41.067   6.600
 4488POPC   C3B56985   2.880  41.172   6.994
 4488POPC   C4B56986   3.159  41.332   7.294
 4489POPC   NC356987  24.054  42.146   5.471
 4489POPC   PO456988  24.606  42.474   5.437
 4489POPC   GL156989  24.719  42.621   5.818
 4489POPC   GL256990  24.626  42.289   5.944
 4489POPC   C1A56991  24.774  42.641   6.274
 4489POPC   D2A56992  24.529  42.464   6.610
 4489POPC   C3A56993  24.716  42.549   6.972
 4489POPC   C4A56994  24.563  42.403   7.328
 4489POPC   C1B56995  24.455  42.074   6.288
 4489POPC   C2B56996  24.631  41.936   6.693
 4489POPC   C3B56997  24.871  42.052   7.075
 4489POPC   C4B56998  24.825  42.027   7.530
 4490POPC   NC356999   5.479   7.165   5.316
 4490POPC   PO457000   6.021   7.509   5.456
 4490POPC   GL157001   6.156   7.467   5.834
 4490POPC   GL257002   6.038   7.145   5.901
 4490POPC   C1A57003   5.999   7.577   6.216
 4490POPC   D2A57004   6.237   7.606   6.591
 4490POPC   C3A57005   6.109   7.425   6.975
 4490POPC   C4A57006   5.814   7.558   7.296
 4490POPC   C1B57007   5.763   7.114   6.200
 4490POPC   C2B57008   5.779   7.291   6.567
 4490POPC   C3B57009   5.601   7.360   6.890
 4490POPC   C4B57010   5.795   7.044   7.160
 4491POPC   NC357011  34.924  28.851   5.357
 4491POPC   PO457012  34.423  29.325   5.446
 4491POPC   GL157013  34.393  29.185   5.853
 4491POPC   GL257014  34.751  29.086   5.840
 4491POPC   C1A57015  34.514  29.218   6.274
 4491POPC   D2A57016  34.729  29.216   6.632
 4491POPC   C3A57017  34.467  29.190   6.940
 4491POPC   C4A57018  34.627  29.174   7.319
 4491POPC   C1B57019  34.751  28.793   6.199
 4491POPC   C2B57020  34.546  28.757   6.628
 4491POPC   C3B57021  34.731  28.747   7.010
 4491POPC   C4B57022  35.049  28.909   7.256
 4492POPC   NC357023   9.352  22.627   5.385
 4492POPC   PO457024   8.951  22.002   5.462
 4492POPC   GL157025   9.107  22.118   5.858
 4492POPC   GL257026   8.772  22.083   5.941
 4492POPC   C1A57027   9.109  22.173   6.334
 4492POPC   D2A57028   8.973  22.027   6.758
 4492POPC   C3A57029   9.130  22.302   7.103
 4492POPC   C4A57030   9.311  22.261   7.517
 4492POPC   C1B57031   8.549  21.993   6.317
 4492POPC   C2B57032   8.305  21.869   6.658
 4492POPC   C3B57033   8.518  21.861   7.019
 4492POPC   C4B57034   8.654  22.109   7.361
 4493POPC   NC357035  27.326  34.882   5.714
 4493POPC   PO457036  27.819  34.333   5.520
 4493POPC   GL157037  27.795  34.673   5.797
 4493POPC   GL257038  27.534  34.468   5.922
 4493POPC   C1A57039  27.787  34.881   6.188
 4493POPC   D2A57040  27.587  34.941   6.576
 4493POPC   C3A57041  27.684  34.688   6.930
 4493POPC   C4A57042  27.673  34.875   7.347
 4493POPC   C1B57043  27.510  34.468   6.339
 4493POPC   C2B57044  27.453  34.191   6.664
 4493POPC   C3B57045  27.293  34.156   7.051
 4493POPC   C4B57046  27.307  34.511   7.334
 4494POPC   NC357047  22.678  17.680   5.505
 4494POPC   PO457048  23.195  17.280   5.515
 4494POPC   GL157049  23.052  17.514   5.838
 4494POPC   GL257050  22.766  17.297   5.877
 4494POPC   C1A57051  22.880  17.809   6.131
 4494POPC   D2A57052  22.939  17.981   6.538
 4494POPC   C3A57053  22.979  17.670   6.881
 4494POPC   C4A57054  22.711  17.658   7.237
 4494POPC   C1B57055  22.897  17.294   6.305
 4494POPC   C2B57056  22.706  17.252   6.716
 4494POPC   C3B57057  22.893  17.189   7.096
 4494POPC   C4B57058  23.326  17.234   7.161
 4495POPC   NC357059  32.009  38.277   5.494
 4495POPC   PO457060  32.360  38.870   5.269
 4495POPC   GL157061  32.153  38.759   5.688
 4495POPC   GL257062  32.335  38.471   5.870
 4495POPC   C1A57063  31.945  38.646   6.117
 4495POPC   D2A57064  32.299  38.554   6.429
 4495POPC   C3A57065  32.334  38.545   6.888
 4495POPC   C4A57066  32.112  38.299   7.194
 4495POPC   C1B57067  32.094  38.156   6.176
 4495POPC   C2B57068  32.058  38.137   6.654
 4495POPC   C3B57069  32.400  37.994   6.920
 4495POPC   C4B57070  32.377  37.848   7.347
 4496POPC   NC357071  19.307  16.445   5.389
 4496POPC   PO457072  18.705  16.734   5.303
 4496POPC   GL157073  18.830  16.562   5.721
 4496POPC   GL257074  19.120  16.739   5.789
 4496POPC   C1A57075  18.880  16.506   6.196
 4496POPC   D2A57076  18.774  16.790   6.574
 4496POPC   C3A57077  18.997  16.684   6.913
 4496POPC   C4A57078  18.870  16.592   7.280
 4496POPC   C1B57079  19.018  17.011   6.124
 4496POPC   C2B57080  19.042  17.240   6.498
 4496POPC   C3B57081  19.232  17.174   6.885
 4496POPC   C4B57082  19.187  17.001   7.295
 4497POPC   NC357083   2.368   6.567   5.380
 4497POPC   PO457084   1.805   7.004   5.261
 4497POPC   GL157085   1.995   6.924   5.660
 4497POPC   GL257086   2.003   6.554   5.740
 4497POPC   C1A57087   2.044   6.909   6.105
 4497POPC   D2A57088   1.992   6.704   6.493
 4497POPC   C3A57089   1.884   6.911   6.834
 4497POPC   C4A57090   2.057   6.760   7.204
 4497POPC   C1B57091   1.829   6.415   6.118
 4497POPC   C2B57092   1.802   6.230   6.516
 4497POPC   C3B57093   1.928   6.343   6.948
 4497POPC   C4B57094   2.055   6.260   7.395
 4498POPC   NC357095   9.301   9.210   5.638
 4498POPC   PO457096   8.775   8.913   5.505
 4498POPC   GL157097   8.960   8.840   5.868
 4498POPC   GL257098   8.892   9.198   5.937
 4498POPC   C1A57099   9.028   8.884   6.307
 4498POPC   D2A57100   8.907   9.191   6.584
 4498POPC   C3A57101   9.049   9.030   6.942
 4498POPC   C4A57102   8.971   8.682   7.181
 4498POPC   C1B57103   8.551   9.187   6.207
 4498POPC   C2B57104   8.391   8.997   6.584
 4498POPC   C3B57105   8.415   9.159   6.993
 4498POPC   C4B57106   8.712   9.197   7.278
 4499POPC   NC357107  39.553  22.329   5.419
 4499POPC   PO457108  39.073  21.816   5.267
 4499POPC   GL157109  39.186  21.986   5.659
 4499POPC   GL257110  39.518  21.913   5.735
 4499POPC   C1A57111  39.122  21.876   6.098
 4499POPC   D2A57112  38.982  22.126   6.431
 4499POPC   C3A57113  39.032  22.076   6.876
 4499POPC   C4A57114  38.980  22.176   7.324
 4499POPC   C1B57115  39.554  22.138   6.133
 4499POPC   C2B57116  39.461  21.884   6.505
 4499POPC   C3B57117  39.426  21.763   6.929
 4499POPC   C4B57118  39.555  22.176   7.054
 4500POPC   NC357119   9.516  36.021   5.626
 4500POPC   PO457120  10.096  36.298   5.517
 4500POPC   GL157121  10.065  35.933   5.788
 4500POPC   GL257122   9.818  35.690   5.843
 4500POPC   C1A57123   9.986  36.014   6.216
 4500POPC   D2A57124  10.066  36.287   6.574
 4500POPC   C3A57125   9.877  36.143   6.932
 4500POPC   C4A57126   9.472  36.130   7.093
 4500POPC   C1B57127   9.579  35.691   6.221
 4500POPC   C2B57128   9.521  35.863   6.635
 4500POPC   C3B57129   9.518  35.630   7.018
 4500POPC   C4B57130   9.634  35.731   7.438
 4501POPC   NC357131  26.424  32.005   5.494
 4501POPC   PO457132  25.894  32.439   5.370
 4501POPC   GL157133  26.058  32.279   5.769
 4501POPC   GL257134  25.935  31.960   5.845
 4501POPC   C1A57135  26.198  32.179   6.227
 4501POPC   D2A57136  25.962  32.216   6.630
 4501POPC   C3A57137  26.115  32.242   7.064
 4501POPC   C4A57138  26.165  32.172   7.538
 4501POPC   C1B57139  25.670  32.124   6.198
 4501POPC   C2B57140  25.470  32.019   6.595
 4501POPC   C3B57141  25.665  31.961   6.985
 4501POPC   C4B57142  25.683  32.097   7.392
 4502POPC   NC357143  37.270  29.059   5.726
 4502POPC   PO457144  37.903  29.337   5.552
 4502POPC   GL157145  37.877  29.141   5.967
 4502POPC   GL257146  37.719  28.813   5.971
 4502POPC   C1A57147  37.801  29.093   6.430
 4502POPC   D2A57148  37.748  29.004   6.886
 4502POPC   C3A57149  37.825  29.318   7.191
 4502POPC   C4A57150  37.441  29.488   7.210
 4502POPC   C1B57151  37.408  28.612   6.288
 4502POPC   C2B57152  37.309  28.616   6.751
 4502POPC   C3B57153  37.605  28.579   7.126
 4502POPC   C4B57154  37.804  28.841   7.412
 4503POPC   NC357155  10.599  42.735   5.511
 4503POPC   PO457156  10.165  42.177   5.693
 4503POPC   GL157157  10.437  42.416   5.940
 4503POPC   GL257158  10.781  42.459   5.904
 4503POPC   C1A57159  10.497  42.588   6.341
 4503POPC   D2A57160  10.231  42.684   6.682
 4503POPC   C3A57161  10.438  42.454   7.035
 4503POPC   C4A57162  10.321  42.275   7.463
 4503POPC   C1B57163  10.934  42.323   6.285
 4503POPC   C2B57164  10.764  42.176   6.674
 4503POPC   C3B57165  10.808  42.096   7.110
 4503POPC   C4B57166  10.839  42.222   7.529
 4504POPC   NC357167   8.701  27.287   5.311
 4504POPC   PO457168   9.178  27.703   5.408
 4504POPC   GL157169   9.127  27.411   5.747
 4504POPC   GL257170   8.796  27.364   5.832
 4504POPC   C1A57171   9.192  27.464   6.199
 4504POPC   D2A57172   9.001  27.229   6.557
 4504POPC   C3A57173   9.086  27.322   6.998
 4504POPC   C4A57174   9.174  27.759   7.111
 4504POPC   C1B57175   8.685  27.735   6.097
 4504POPC   C2B57176   8.753  28.021   6.460
 4504POPC   C3B57177   8.760  28.003   6.902
 4504POPC   C4B57178   8.704  27.626   7.186
 4505POPC   NC357179  32.612   7.064   5.465
 4505POPC   PO457180  32.016   6.606   5.401
 4505POPC   GL157181  32.039   6.700   5.822
 4505POPC   GL257182  32.381   6.596   5.803
 4505POPC   C1A57183  32.082   6.480   6.227
 4505POPC   D2A57184  32.286   6.483   6.637
 4505POPC   C3A57185  32.110   6.689   7.006
 4505POPC   C4A57186  32.197   7.144   7.073
 4505POPC   C1B57187  32.575   6.464   6.184
 4505POPC   C2B57188  32.737   6.745   6.487
 4505POPC   C3B57189  32.593   6.847   6.872
 4505POPC   C4B57190  32.588   6.675   7.267
 4506POPC   NC357191   7.232  24.150   5.277
 4506POPC   PO457192   7.422  24.767   5.434
 4506POPC   GL157193   7.501  24.557   5.817
 4506POPC   GL257194   7.251  24.341   5.744
 4506POPC   C1A57195   7.712  24.345   6.162
 4506POPC   D2A57196   7.893  24.157   6.551
 4506POPC   C3A57197   7.633  24.220   6.907
 4506POPC   C4A57198   7.578  24.370   7.337
 4506POPC   C1B57199   7.218  24.170   6.129
 4506POPC   C2B57200   7.225  24.114   6.552
 4506POPC   C3B57201   6.924  24.338   6.827
 4506POPC   C4B57202   7.065  24.465   7.265
 4507POPC   NC357203  18.222  11.357   5.486
 4507POPC   PO457204  18.782  10.976   5.617
 4507POPC   GL157205  18.384  11.065   5.874
 4507POPC   GL257206  17.983  11.173   5.891
 4507POPC   C1A57207  18.319  11.120   6.296
 4507POPC   D2A57208  18.524  11.186   6.669
 4507POPC   C3A57209  18.287  11.130   7.048
 4507POPC   C4A57210  18.565  11.392   7.306
 4507POPC   C1B57211  18.003  11.499   6.205
 4507POPC   C2B57212  17.956  11.325   6.634
 4507POPC   C3B57213  17.961  11.530   7.013
 4507POPC   C4B57214  18.255  11.801   7.172
 4508POPC   NC357215  34.864  12.855   5.522
 4508POPC   PO457216  35.501  12.893   5.494
 4508POPC   GL157217  35.258  13.151   5.817
 4508POPC   GL257218  35.169  12.840   5.938
 4508POPC   C1A57219  35.102  13.181   6.293
 4508POPC   D2A57220  35.304  13.013   6.677
 4508POPC   C3A57221  35.097  12.975   7.090
 4508POPC   C4A57222  35.369  12.997   7.449
 4508POPC   C1B57223  35.289  12.583   6.295
 4508POPC   C2B57224  35.517  12.490   6.678
 4508POPC   C3B57225  35.598  12.647   7.081
 4508POPC   C4B57226  35.283  12.517   7.298
 4509POPC   NC357227   8.366  21.003   5.520
 4509POPC   PO457228   7.941  20.504   5.450
 4509POPC   GL157229   8.152  20.665   5.840
 4509POPC   GL257230   8.507  20.573   5.777
 4509POPC   C1A57231   8.300  20.573   6.276
 4509POPC   D2A57232   8.101  20.325   6.596
 4509POPC   C3A57233   8.008  20.507   7.004
 4509POPC   C4A57234   8.108  20.496   7.440
 4509POPC   C1B57235   8.770  20.431   6.114
 4509POPC   C2B57236   8.781  20.636   6.496
 4509POPC   C3B57237   8.471  20.640   6.816
 4509POPC   C4B57238   8.566  20.593   7.237
 4510POPC   NC357239  16.557  41.548   5.396
 4510POPC   PO457240  15.912  41.549   5.379
 4510POPC   GL157241  16.002  41.519   5.789
 4510POPC   GL257242  15.989  41.170   5.825
 4510POPC   C1A57243  16.002  41.788   6.164
 4510POPC   D2A57244  15.996  41.978   6.574
 4510POPC   C3A57245  15.987  41.655   6.857
 4510POPC   C4A57246  15.869  41.574   7.242
 4510POPC   C1B57247  16.160  41.298   6.237
 4510POPC   C2B57248  16.381  41.447   6.618
 4510POPC   C3B57249  16.421  41.478   7.071
 4510POPC   C4B57250  16.195  41.186   7.337
 4511POPC   NC357251  14.453  43.190   5.325
 4511POPC   PO457252  14.835  42.638   5.364
 4511POPC   GL157253  14.557  42.863   5.729
 4511POPC   GL257254  14.231  43.114   5.777
 4511POPC   C1A57255  14.505  42.908   6.190
 4511POPC   D2A57256  14.754  42.677   6.499
 4511POPC   C3A57257  14.668  42.872   6.890
 4511POPC   C4A57258  14.425  42.981   7.237
 4511POPC   C1B57259  14.247  43.344   6.182
 4511POPC   C2B57260  14.270  43.183   6.630
 4511POPC   C3B57261  14.129  43.346   7.025
 4511POPC   C4B57262  14.228  43.648   7.374
 4512POPC   NC357263  21.706  29.368   5.383
 4512POPC   PO457264  21.060  29.099   5.519
 4512POPC   GL157265  21.144  28.947   5.914
 4512POPC   GL257266  21.464  28.806   5.823
 4512POPC   C1A57267  21.144  29.080   6.337
 4512POPC   D2A57268  21.330  28.915   6.690
 4512POPC   C3A57269  21.158  29.134   7.014
 4512POPC   C4A57270  21.329  29.134   7.408
 4512POPC   C1B57271  21.627  28.986   6.224
 4512POPC   C2B57272  21.725  29.292   6.568
 4512POPC   C3B57273  21.660  29.263   7.020
 4512POPC   C4B57274  21.861  29.102   7.399
 4513POPC   NC357275  40.858  19.805   5.395
 4513POPC   PO457276  40.338  19.456   5.568
 4513POPC   GL157277  40.604  19.709   5.820
 4513POPC   GL257278  40.649  20.061   5.823
 4513POPC   C1A57279  40.788  19.704   6.201
 4513POPC   D2A57280  41.108  19.764   6.532
 4513POPC   C3A57281  40.933  19.864   6.921
 4513POPC   C4A57282  41.111  19.595   7.202
 4513POPC   C1B57283  40.606  20.181   6.272
 4513POPC   C2B57284  40.503  19.891   6.613
 4513POPC   C3B57285  40.390  19.943   7.040
 4513POPC   C4B57286  40.438  20.058   7.475
 4514POPC   NC357287  44.253  14.144   5.678
 4514POPC   PO457288  44.683  14.608   5.504
 4514POPC   GL157289  44.851  14.604   5.878
 4514POPC   GL257290  44.932  14.280   5.842
 4514POPC   C1A57291  44.553  14.488   6.187
 4514POPC   D2A57292  44.247  14.445   6.538
 4514POPC   C3A57293  44.394  14.560   6.958
 4514POPC   C4A57294  44.361  14.245   7.293
 4514POPC   C1B57295  44.962  14.146   6.232
 4514POPC   C2B57296  44.756  14.313   6.614
 4514POPC   C3B57297  44.636  14.069   6.931
 4514POPC   C4B57298  44.951  14.015   7.242
 4515POPC   NC357299  15.525  38.556   5.473
 4515POPC   PO457300  16.055  38.377   5.240
 4515POPC   GL157301  16.066  38.482   5.702
 4515POPC   GL257302  15.797  38.313   5.830
 4515POPC   C1A57303  16.000  38.572   6.200
 4515POPC   D2A57304  16.172  38.652   6.624
 4515POPC   C3A57305  16.021  38.520   7.037
 4515POPC   C4A57306  15.834  38.670   7.421
 4515POPC   C1B57307  15.637  38.211   6.246
 4515POPC   C2B57308  15.756  38.258   6.682
 4515POPC   C3B57309  15.690  38.151   7.141
 4515POPC   C4B57310  15.984  38.223   7.516
 4516POPC   NC357311  43.266  24.747   5.183
 4516POPC   PO457312  43.042  25.367   5.225
 4516POPC   GL157313  43.273  25.128   5.573
 4516POPC   GL257314  43.012  25.214   5.736
 4516POPC   C1A57315  43.361  25.170   6.083
 4516POPC   D2A57316  43.376  25.407   6.510
 4516POPC   C3A57317  43.335  25.169   6.932
 4516POPC   C4A57318  43.564  25.259   7.323
 4516POPC   C1B57319  42.840  25.178   6.155
 4516POPC   C2B57320  42.947  25.109   6.587
 4516POPC   C3B57321  42.793  25.168   6.989
 4516POPC   C4B57322  43.023  25.293   7.381
 4517POPC   NC357323  11.769   7.902   5.316
 4517POPC   PO457324  12.166   8.347   5.565
 4517POPC   GL157325  11.853   8.201   5.781
 4517POPC   GL257326  11.657   8.492   5.830
 4517POPC   C1A57327  11.908   8.084   6.211
 4517POPC   D2A57328  12.178   8.136   6.550
 4517POPC   C3A57329  12.003   8.023   6.933
 4517POPC   C4A57330  12.258   8.041   7.270
 4517POPC   C1B57331  11.473   8.605   6.201
 4517POPC   C2B57332  11.659   8.423   6.531
 4517POPC   C3B57333  11.768   8.542   6.909
 4517POPC   C4B57334  11.865   8.398   7.286
 4518POPC   NC357335  17.620  12.049   5.090
 4518POPC   PO457336  17.572  12.329   5.659
 4518POPC   GL157337  17.258  12.099   5.843
 4518POPC   GL257338  17.064  12.412   5.835
 4518POPC   C1A57339  17.320  12.037   6.281
 4518POPC   D2A57340  17.606  12.239   6.606
 4518POPC   C3A57341  17.670  11.955   6.948
 4518POPC   C4A57342  17.605  11.759   7.302
 4518POPC   C1B57343  16.913  12.334   6.244
 4518POPC   C2B57344  17.079  12.240   6.686
 4518POPC   C3B57345  17.341  12.314   7.059
 4518POPC   C4B57346  17.496  12.300   7.496
 4519POPC   NC357347  40.929   9.785   5.419
 4519POPC   PO457348  40.535   9.495   5.866
 4519POPC   GL157349  40.972   9.721   5.935
 4519POPC   GL257350  41.018  10.089   5.925
 4519POPC   C1A57351  41.176   9.790   6.350
 4519POPC   D2A57352  40.891   9.621   6.662
 4519POPC   C3A57353  40.756   9.505   7.083
 4519POPC   C4A57354  40.476   9.136   7.224
 4519POPC   C1B57355  40.697   9.995   6.281
 4519POPC   C2B57356  40.589  10.034   6.718
 4519POPC   C3B57357  40.570   9.985   7.144
 4519POPC   C4B57358  40.801   9.901   7.472
 4520POPC   NC357359   5.620  42.545   5.435
 4520POPC   PO457360   6.098  42.107   5.610
 4520POPC   GL157361   5.832  42.297   5.868
 4520POPC   GL257362   5.942  42.616   5.894
 4520POPC   C1A57363   5.873  42.205   6.292
 4520POPC   D2A57364   5.631  42.143   6.636
 4520POPC   C3A57365   5.898  42.107   6.981
 4520POPC   C4A57366   5.792  42.112   7.410
 4520POPC   C1B57367   5.778  42.700   6.331
 4520POPC   C2B57368   5.899  42.581   6.742
 4520POPC   C3B57369   6.007  42.558   7.169
 4520POPC   C4B57370   6.034  42.836   7.481
 4521POPC   NC357371   9.048  19.343   5.268
 4521POPC   PO457372   8.796  19.967   5.360
 4521POPC   GL157373   8.903  19.762   5.737
 4521POPC   GL257374   9.047  20.090   5.823
 4521POPC   C1A57375   8.735  19.730   6.172
 4521POPC   D2A57376   8.854  19.565   6.574
 4521POPC   C3A57377   8.785  19.742   6.985
 4521POPC   C4A57378   8.999  19.667   7.378
 4521POPC   C1B57379   9.232  19.850   6.154
 4521POPC   C2B57380   9.285  19.921   6.570
 4521POPC   C3B57381   9.308  19.693   6.911
 4521POPC   C4B57382   9.481  19.834   7.274
 4522POPC   NC357383  35.476  11.723   5.372
 4522POPC   PO457384  35.298  11.184   5.373
 4522POPC   GL157385  35.361  11.342   5.795
 4522POPC   GL257386  35.178  11.636   5.766
 4522POPC   C1A57387  35.305  11.202   6.245
 4522POPC   D2A57388  35.572  11.102   6.623
 4522POPC   C3A57389  35.368  11.109   7.028
 4522POPC   C4A57390  35.023  10.877   7.178
 4522POPC   C1B57391  35.306  11.735   6.164
 4522POPC   C2B57392  35.532  11.614   6.543
 4522POPC   C3B57393  35.654  11.566   6.989
 4522POPC   C4B57394  35.772  11.622   7.428
 4523POPC   NC357395  35.928  26.382   5.429
 4523POPC   PO457396  36.392  25.837   5.454
 4523POPC   GL157397  36.166  26.043   5.767
 4523POPC   GL257398  35.805  25.978   5.793
 4523POPC   C1A57399  36.128  26.088   6.202
 4523POPC   D2A57400  36.112  25.902   6.584
 4523POPC   C3A57401  36.361  26.039   6.938
 4523POPC   C4A57402  36.269  25.908   7.356
 4523POPC   C1B57403  35.632  26.198   6.161
 4523POPC   C2B57404  35.750  26.254   6.600
 4523POPC   C3B57405  35.873  26.120   7.036
 4523POPC   C4B57406  36.115  26.397   7.346
 4524POPC   NC357407  20.401  27.864   5.459
 4524POPC   PO457408  20.911  27.482   5.552
 4524POPC   GL157409  20.662  27.647   5.881
 4524POPC   GL257410  20.310  27.504   5.833
 4524POPC   C1A57411  20.573  27.468   6.294
 4524POPC   D2A57412  20.449  27.367   6.715
 4524POPC   C3A57413  20.741  27.430   7.048
 4524POPC   C4A57414  20.883  27.822   7.104
 4524POPC   C1B57415  20.253  27.846   6.148
 4524POPC   C2B57416  20.417  27.885   6.584
 4524POPC   C3B57417  20.355  27.757   7.028
 4524POPC   C4B57418  20.216  27.853   7.418
 4525POPC   NC357419  41.833   3.114   5.475
 4525POPC   PO457420  41.659   2.512   5.325
 4525POPC   GL157421  41.498   2.674   5.707
 4525POPC   GL257422  41.189   2.476   5.728
 4525POPC   C1A57423  41.662   2.870   6.109
 4525POPC   D2A57424  41.755   2.703   6.537
 4525POPC   C3A57425  41.640   2.832   6.959
 4525POPC   C4A57426  41.775   2.994   7.365
 4525POPC   C1B57427  41.318   2.484   6.176
 4525POPC   C2B57428  41.222   2.616   6.603
 4525POPC   C3B57429  41.185   2.604   7.051
 4525POPC   C4B57430  41.253   2.946   7.358
 4526POPC   NC357431  35.369   4.908   5.561
 4526POPC   PO457432  34.975   5.514   5.496
 4526POPC   GL157433  35.131   5.343   5.873
 4526POPC   GL257434  35.220   5.021   6.035
 4526POPC   C1A57435  35.438   5.498   6.149
 4526POPC   D2A57436  35.428   5.589   6.570
 4526POPC   C3A57437  35.304   5.191   6.736
 4526POPC   C4A57438  35.237   5.163   7.162
 4526POPC   C1B57439  35.602   4.931   6.298
 4526POPC   C2B57440  35.639   4.695   6.702
 4526POPC   C3B57441  35.543   4.738   7.163
 4526POPC   C4B57442  35.148   4.745   7.447
 4527POPC   NC357443   1.703  12.972   4.982
 4527POPC   PO457444   2.084  12.507   5.338
 4527POPC   GL157445   1.988  12.769   5.682
 4527POPC   GL257446   1.674  12.681   5.800
 4527POPC   C1A57447   2.133  12.957   6.068
 4527POPC   D2A57448   2.012  12.884   6.491
 4527POPC   C3A57449   2.287  12.847   6.800
 4527POPC   C4A57450   2.123  12.999   7.154
 4527POPC   C1B57451   1.623  12.944   6.157
 4527POPC   C2B57452   1.604  13.199   6.541
 4527POPC   C3B57453   1.625  12.993   6.920
 4527POPC   C4B57454   1.859  12.615   6.978
 4528POPC   NC357455  30.428  37.963   5.006
 4528POPC   PO457456  30.832  37.710   5.477
 4528POPC   GL157457  30.651  37.653   5.876
 4528POPC   GL257458  30.603  37.296   5.892
 4528POPC   C1A57459  30.472  37.668   6.308
 4528POPC   D2A57460  30.620  37.479   6.706
 4528POPC   C3A57461  30.587  37.659   7.098
 4528POPC   C4A57462  30.538  37.873   7.461
 4528POPC   C1B57463  30.891  37.388   6.263
 4528POPC   C2B57464  31.127  37.440   6.683
 4528POPC   C3B57465  31.030  37.422   7.141
 4528POPC   C4B57466  31.161  37.499   7.647
 4529POPC   NC357467   3.984  30.723   5.179
 4529POPC   PO457468   4.498  30.522   5.496
 4529POPC   GL157469   4.199  30.726   5.747
 4529POPC   GL257470   3.860  30.559   5.662
 4529POPC   C1A57471   4.334  30.768   6.194
 4529POPC   D2A57472   4.319  30.837   6.647
 4529POPC   C3A57473   4.396  30.641   7.060
 4529POPC   C4A57474   4.390  30.884   7.452
 4529POPC   C1B57475   3.934  30.426   6.082
 4529POPC   C2B57476   4.085  30.409   6.495
 4529POPC   C3B57477   3.978  30.381   6.923
 4529POPC   C4B57478   3.778  30.130   7.211
 4530POPC   NC357479  43.624  26.356   5.627
 4530POPC   PO457480  43.929  25.821   5.375
 4530POPC   GL157481  43.929  25.976   5.795
 4530POPC   GL257482  43.786  25.662   5.925
 4530POPC   C1A57483  43.985  26.013   6.242
 4530POPC   D2A57484  43.835  25.713   6.550
 4530POPC   C3A57485  43.863  26.021   6.874
 4530POPC   C4A57486  44.013  26.169   7.256
 4530POPC   C1B57487  43.478  25.919   6.208
 4530POPC   C2B57488  43.357  25.920   6.654
 4530POPC   C3B57489  43.539  25.656   6.986
 4530POPC   C4B57490  43.693  25.774   7.401
 4531POPC   NC357491  36.028   7.265   5.447
 4531POPC   PO457492  36.403   7.729   5.592
 4531POPC   GL157493  36.381   7.357   5.806
 4531POPC   GL257494  36.097   7.488   5.923
 4531POPC   C1A57495  36.389   7.150   6.212
 4531POPC   D2A57496  36.617   7.220   6.610
 4531POPC   C3A57497  36.365   7.342   6.970
 4531POPC   C4A57498  36.336   7.154   7.376
 4531POPC   C1B57499  36.173   7.621   6.317
 4531POPC   C2B57500  35.929   7.568   6.678
 4531POPC   C3B57501  36.032   7.749   7.044
 4531POPC   C4B57502  36.060   7.582   7.445
 4532POPC   NC357503   6.933   5.245   5.499
 4532POPC   PO457504   6.484   4.820   5.377
 4532POPC   GL157505   6.453   4.938   5.810
 4532POPC   GL257506   6.816   5.003   5.956
 4532POPC   C1A57507   6.415   5.191   6.204
 4532POPC   D2A57508   6.630   5.080   6.583
 4532POPC   C3A57509   6.456   5.249   6.963
 4532POPC   C4A57510   6.382   4.867   7.111
 4532POPC   C1B57511   6.885   5.382   6.252
 4532POPC   C2B57512   6.896   5.469   6.722
 4532POPC   C3B57513   6.938   5.101   7.028
 4532POPC   C4B57514   6.938   5.100   7.473
 4533POPC   NC357515  13.828  42.410   5.362
 4533POPC   PO457516  13.213  42.540   5.444
 4533POPC   GL157517  13.437  42.564   5.835
 4533POPC   GL257518  13.612  42.239   5.836
 4533POPC   C1A57519  13.444  42.732   6.280
 4533POPC   D2A57520  13.315  42.398   6.539
 4533POPC   C3A57521  13.379  42.414   6.957
 4533POPC   C4A57522  13.447  42.080   7.218
 4533POPC   C1B57523  13.856  42.431   6.189
 4533POPC   C2B57524  13.797  42.507   6.649
 4533POPC   C3B57525  13.869  42.336   7.073
 4533POPC   C4B57526  13.875  42.206   7.504
 4534POPC   NC357527  39.040  29.872   5.358
 4534POPC   PO457528  39.612  29.662   5.677
 4534POPC   GL157529  39.463  29.823   5.993
 4534POPC   GL257530  39.237  30.045   5.848
 4534POPC   C1A57531  39.425  29.823   6.447
 4534POPC   D2A57532  39.103  30.007   6.712
 4534POPC   C3A57533  38.978  29.764   7.037
 4534POPC   C4A57534  39.302  29.688   7.298
 4534POPC   C1B57535  39.448  30.283   6.221
 4534POPC   C2B57536  39.329  30.464   6.627
 4534POPC   C3B57537  39.392  30.304   7.035
 4534POPC   C4B57538  39.090  30.230   7.325
 4535POPC   NC357539  22.490   0.444   5.409
 4535POPC   PO457540  21.950   0.857   5.507
 4535POPC   GL157541  21.917   0.531   5.801
 4535POPC   GL257542  22.149   0.212   5.777
 4535POPC   C1A57543  22.068   0.499   6.193
 4535POPC   D2A57544  21.910   0.465   6.554
 4535POPC   C3A57545  22.088   0.663   6.857
 4535POPC   C4A57546  22.120   0.532   7.254
 4535POPC   C1B57547  22.333   0.059   6.189
 4535POPC   C2B57548  22.386   0.234   6.659
 4535POPC   C3B57549  22.265   0.046   7.098
 4535POPC   C4B57550  22.242   0.163   7.597
 4536POPC   NC357551  16.197  27.357   5.487
 4536POPC   PO457552  15.507  27.560   5.455
 4536POPC   GL157553  15.728  27.743   5.861
 4536POPC   GL257554  16.099  27.814   5.832
 4536POPC   C1A57555  15.921  27.559   6.252
 4536POPC   D2A57556  15.835  27.224   6.564
 4536POPC   C3A57557  15.793  27.439   6.954
 4536POPC   C4A57558  15.815  27.455   7.391
 4536POPC   C1B57559  16.423  27.955   6.162
 4536POPC   C2B57560  16.485  27.920   6.619
 4536POPC   C3B57561  16.488  27.886   7.082
 4536POPC   C4B57562  16.168  27.798   7.387
 4537POPC   NC357563  30.643  23.860   5.095
 4537POPC   PO457564  31.106  23.465   5.369
 4537POPC   GL157565  30.745  23.555   5.655
 4537POPC   GL257566  30.714  23.911   5.599
 4537POPC   C1A57567  30.559  23.483   6.108
 4537POPC   D2A57568  30.351  23.519   6.521
 4537POPC   C3A57569  30.610  23.526   6.902
 4537POPC   C4A57570  30.955  23.307   7.128
 4537POPC   C1B57571  30.903  23.868   6.031
 4537POPC   C2B57572  30.814  23.776   6.474
 4537POPC   C3B57573  30.897  23.950   6.883
 4537POPC   C4B57574  31.120  23.789   7.244
 4538POPC   NC357575  21.007  11.034   5.337
 4538POPC   PO457576  20.931  11.601   5.670
 4538POPC   GL157577  20.627  11.365   5.842
 4538POPC   GL257578  20.584  11.040   5.704
 4538POPC   C1A57579  20.428  11.456   6.222
 4538POPC   D2A57580  20.566  11.289   6.588
 4538POPC   C3A57581  20.400  11.501   6.912
 4538POPC   C4A57582  20.537  11.567   7.325
 4538POPC   C1B57583  20.542  10.959   6.157
 4538POPC   C2B57584  20.260  10.875   6.502
 4538POPC   C3B57585  20.238  11.017   6.912
 4538POPC   C4B57586  20.578  11.087   7.168
 4539POPC   NC357587  44.352  32.540   5.118
 4539POPC   PO457588  43.861  32.401   5.567
 4539POPC   GL157589  43.700  32.233   5.912
 4539POPC   GL257590  43.723  31.880   5.895
 4539POPC   C1A57591  43.597  32.422   6.271
 4539POPC   D2A57592  43.766  32.607   6.613
 4539POPC   C3A57593  43.686  32.474   7.018
 4539POPC   C4A57594  43.628  32.687   7.439
 4539POPC   C1B57595  43.950  32.000   6.298
 4539POPC   C2B57596  44.068  32.104   6.735
 4539POPC   C3B57597  43.920  32.022   7.150
 4539POPC   C4B57598  43.968  32.282   7.512
 4540POPC   NC357599  22.491  26.390   5.497
 4540POPC   PO457600  22.810  25.765   5.648
 4540POPC   GL157601  22.836  26.095   5.912
 4540POPC   GL257602  23.203  26.179   5.882
 4540POPC   C1A57603  22.853  25.884   6.318
 4540POPC   D2A57604  23.086  25.828   6.695
 4540POPC   C3A57605  22.868  25.853   7.079
 4540POPC   C4A57606  22.880  26.169   7.441
 4540POPC   C1B57607  23.132  26.302   6.306
 4540POPC   C2B57608  22.784  26.350   6.545
 4540POPC   C3B57609  22.866  26.335   6.932
 4540POPC   C4B57610  22.671  26.555   7.199
 4541POPC   NC357611  22.793   6.732   5.180
 4541POPC   PO457612  22.892   6.088   5.269
 4541POPC   GL157613  23.044   6.326   5.663
 4541POPC   GL257614  23.030   6.693   5.643
 4541POPC   C1A57615  22.852   6.351   6.121
 4541POPC   D2A57616  22.661   6.492   6.534
 4541POPC   C3A57617  22.829   6.329   6.928
 4541POPC   C4A57618  23.106   6.363   7.271
 4541POPC   C1B57619  23.154   6.771   6.070
 4541POPC   C2B57620  23.162   6.775   6.517
 4541POPC   C3B57621  22.884   6.835   6.876
 4541POPC   C4B57622  22.734   6.789   7.284
 4542POPC   NC357623  30.901  14.471   5.343
 4542POPC   PO457624  30.281  14.593   5.419
 4542POPC   GL157625  30.567  14.380   5.750
 4542POPC   GL257626  30.889  14.499   5.868
 4542POPC   C1A57627  30.507  14.338   6.197
 4542POPC   D2A57628  30.684  14.494   6.571
 4542POPC   C3A57629  30.464  14.346   6.897
 4542POPC   C4A57630  30.472  14.391   7.300
 4542POPC   C1B57631  31.042  14.289   6.273
 4542POPC   C2B57632  31.188  14.487   6.673
 4542POPC   C3B57633  30.935  14.431   7.045
 4542POPC   C4B57634  30.848  14.704   7.437
 4543POPC   NC357635  25.816  43.240   5.372
 4543POPC   PO457636  26.340  42.930   5.644
 4543POPC   GL157637  26.282  43.263   5.930
 4543POPC   GL257638  25.946  43.307   5.861
 4543POPC   C1A57639  26.138  43.216   6.351
 4543POPC   D2A57640  26.035  42.784   6.589
 4543POPC   C3A57641  26.100  42.870   7.032
 4543POPC   C4A57642  26.035  43.295   7.008
 4543POPC   C1B57643  25.711  43.061   6.129
 4543POPC   C2B57644  25.679  43.143   6.570
 4543POPC   C3B57645  25.615  42.963   6.941
 4543POPC   C4B57646  25.747  43.067   7.386
 4544POPC   NC357647  28.685  31.757   5.469
 4544POPC   PO457648  28.054  31.544   5.571
 4544POPC   GL157649  28.270  31.581   5.928
 4544POPC   GL257650  28.592  31.450   5.904
 4544POPC   C1A57651  28.250  31.347   6.306
 4544POPC   D2A57652  28.179  31.567   6.658
 4544POPC   C3A57653  28.315  31.438   7.044
 4544POPC   C4A57654  28.205  31.640   7.424
 4544POPC   C1B57655  28.774  31.282   6.253
 4544POPC   C2B57656  28.669  31.329   6.655
 4544POPC   C3B57657  28.837  31.368   7.061
 4544POPC   C4B57658  28.657  31.418   7.478
 4545POPC   NC357659  36.611  13.629   5.421
 4545POPC   PO457660  35.957  13.696   5.340
 4545POPC   GL157661  36.043  13.780   5.784
 4545POPC   GL257662  36.398  13.834   5.885
 4545POPC   C1A57663  35.984  13.755   6.255
 4545POPC   D2A57664  36.126  13.660   6.671
 4545POPC   C3A57665  35.984  13.814   7.069
 4545POPC   C4A57666  36.198  14.041   7.397
 4545POPC   C1B57667  36.409  13.472   6.200
 4545POPC   C2B57668  36.440  13.258   6.627
 4545POPC   C3B57669  36.246  13.228   7.031
 4545POPC   C4B57670  35.929  13.006   7.259
 4546POPC   NC357671  31.909  10.922   5.590
 4546POPC   PO457672  32.291  10.430   5.226
 4546POPC   GL157673  32.474  10.513   5.713
 4546POPC   GL257674  32.643  10.273   5.864
 4546POPC   C1A57675  32.355  10.672   6.171
 4546POPC   D2A57676  32.187  10.937   6.564
 4546POPC   C3A57677  32.172  10.814   7.031
 4546POPC   C4A57678  31.974  10.955   7.424
 4546POPC   C1B57679  32.590  10.226   6.283
 4546POPC   C2B57680  32.437  10.456   6.639
 4546POPC   C3B57681  32.253  10.317   6.995
 4546POPC   C4B57682  32.463  10.138   7.278
 4547POPC   NC357683  29.730  44.436   5.138
 4547POPC   PO457684  30.140  44.866   5.443
 4547POPC   GL157685  29.797  44.620   5.672
 4547POPC   GL257686  29.758  44.288   5.664
 4547POPC   C1A57687  29.648  44.620   6.113
 4547POPC   D2A57688  29.860  44.824   6.454
 4547POPC   C3A57689  29.876  44.691   6.885
 4547POPC   C4A57690  30.032  44.397   7.203
 4547POPC   C1B57691  29.993  44.223   6.084
 4547POPC   C2B57692  29.999  44.290   6.556
 4547POPC   C3B57693  30.357  44.420   6.830
 4547POPC   C4B57694  30.538  44.399   7.255
 4548POPC   NC357695   5.910  20.300   5.175
 4548POPC   PO457696   5.656  19.739   5.376
 4548POPC   GL157697   5.799  19.914   5.747
 4548POPC   GL257698   5.457  20.020   5.807
 4548POPC   C1A57699   6.084  19.856   6.124
 4548POPC   D2A57700   6.145  19.601   6.503
 4548POPC   C3A57701   6.002  19.773   6.903
 4548POPC   C4A57702   6.184  19.799   7.289
 4548POPC   C1B57703   5.589  19.915   6.204
 4548POPC   C2B57704   5.616  19.745   6.565
 4548POPC   C3B57705   5.542  20.017   6.873
 4548POPC   C4B57706   5.681  20.052   7.242
 4549POPC   NC357707  24.026  19.073   5.361
 4549POPC   PO457708  23.419  19.255   5.317
 4549POPC   GL157709  23.617  18.991   5.693
 4549POPC   GL257710  23.426  18.691   5.860
 4549POPC   C1A57711  23.915  19.093   6.062
 4549POPC   D2A57712  23.922  19.266   6.507
 4549POPC   C3A57713  23.810  19.048   6.922
 4549POPC   C4A57714  23.762  19.173   7.380
 4549POPC   C1B57715  23.531  18.840   6.304
 4549POPC   C2B57716  23.391  19.231   6.561
 4549POPC   C3B57717  23.345  19.278   7.011
 4549POPC   C4B57718  23.374  18.864   7.210
 4550POPC   NC357719  28.100  39.875   5.193
 4550POPC   PO457720  28.473  39.327   5.526
 4550POPC   GL157721  28.487  39.206   5.949
 4550POPC   GL257722  28.507  38.878   5.930
 4550POPC   C1A57723  28.574  39.368   6.373
 4550POPC   D2A57724  28.818  39.531   6.709
 4550POPC   C3A57725  28.665  39.512   7.103
 4550POPC   C4A57726  28.360  39.265   7.242
 4550POPC   C1B57727  28.448  38.880   6.376
 4550POPC   C2B57728  28.408  38.881   6.820
 4550POPC   C3B57729  28.361  38.740   7.244
 4550POPC   C4B57730  28.488  38.943   7.647
 4551POPC   NC357731  26.809   2.897   5.400
 4551POPC   PO457732  27.039   2.304   5.577
 4551POPC   GL157733  26.910   2.620   5.804
 4551POPC   GL257734  26.612   2.558   5.903
 4551POPC   C1A57735  26.802   2.981   6.110
 4551POPC   D2A57736  26.597   2.909   6.519
 4551POPC   C3A57737  26.840   2.940   6.856
 4551POPC   C4A57738  26.818   2.974   7.269
 4551POPC   C1B57739  26.869   2.499   6.297
 4551POPC   C2B57740  26.764   2.392   6.734
 4551POPC   C3B57741  26.999   2.506   7.107
 4551POPC   C4B57742  27.179   2.668   7.502
 4552POPC   NC357743   8.258  17.126   5.486
 4552POPC   PO457744   8.621  16.548   5.462
 4552POPC   GL157745   8.267  16.606   5.734
 4552POPC   GL257746   7.979  16.423   5.634
 4552POPC   C1A57747   8.218  16.824   6.115
 4552POPC   D2A57748   8.430  16.794   6.493
 4552POPC   C3A57749   8.224  16.995   6.831
 4552POPC   C4A57750   8.310  16.922   7.270
 4552POPC   C1B57751   7.909  16.412   6.098
 4552POPC   C2B57752   7.961  16.605   6.517
 4552POPC   C3B57753   8.042  16.536   6.937
 4552POPC   C4B57754   7.903  16.611   7.356
 4553POPC   NC357755  36.851  33.850   5.338
 4553POPC   PO457756  37.493  33.762   5.289
 4553POPC   GL157757  37.213  33.768   5.732
 4553POPC   GL257758  36.839  33.968   5.834
 4553POPC   C1A57759  37.052  33.658   6.166
 4553POPC   D2A57760  36.856  33.891   6.538
 4553POPC   C3A57761  36.953  33.753   6.975
 4553POPC   C4A57762  36.957  33.984   7.377
 4553POPC   C1B57763  36.542  33.706   6.147
 4553POPC   C2B57764  36.470  33.531   6.592
 4553POPC   C3B57765  36.398  33.491   7.044
 4553POPC   C4B57766  36.664  33.577   7.385
 4554POPC   NC357767  39.130  30.953   5.589
 4554POPC   PO457768  39.370  30.331   5.398
 4554POPC   GL157769  39.349  30.555   5.812
 4554POPC   GL257770  39.565  30.838   5.861
 4554POPC   C1A57771  39.109  30.705   6.221
 4554POPC   D2A57772  39.118  30.947   6.645
 4554POPC   C3A57773  39.097  30.739   7.074
 4554POPC   C4A57774  39.023  30.841   7.536
 4554POPC   C1B57775  39.608  30.780   6.311
 4554POPC   C2B57776  39.633  30.874   6.732
 4554POPC   C3B57777  39.678  30.715   7.127
 4554POPC   C4B57778  39.515  30.669   7.548
 4555POPC   NC357779  35.654  21.559   5.310
 4555POPC   PO457780  35.191  21.090   5.533
 4555POPC   GL157781  35.524  21.240   5.842
 4555POPC   GL257782  35.724  21.572   5.809
 4555POPC   C1A57783  35.457  21.172   6.309
 4555POPC   D2A57784  35.097  21.198   6.607
 4555POPC   C3A57785  35.262  21.331   7.011
 4555POPC   C4A57786  35.627  21.150   7.234
 4555POPC   C1B57787  35.619  21.652   6.212
 4555POPC   C2B57788  35.348  21.664   6.575
 4555POPC   C3B57789  35.215  21.865   6.956
 4555POPC   C4B57790  35.480  21.721   7.285
 4556POPC   NC357791  10.920  25.044   4.944
 4556POPC   PO457792  10.571  25.211   5.426
 4556POPC   GL157793  10.475  25.275   5.816
 4556POPC   GL257794  10.727  25.556   5.796
 4556POPC   C1A57795  10.707  25.224   6.180
 4556POPC   D2A57796  10.821  24.994   6.487
 4556POPC   C3A57797  10.555  25.029   6.825
 4556POPC   C4A57798  10.802  25.227   7.118
 4556POPC   C1B57799  10.424  25.647   6.170
 4556POPC   C2B57800  10.500  25.491   6.584
 4556POPC   C3B57801  10.352  25.696   6.935
 4556POPC   C4B57802  10.247  25.649   7.335
 4557POPC   NC357803  18.722  39.476   5.486
 4557POPC   PO457804  19.416  39.154   5.445
 4557POPC   GL157805  19.149  39.333   5.769
 4557POPC   GL257806  18.844  39.111   5.844
 4557POPC   C1A57807  18.974  39.501   6.153
 4557POPC   D2A57808  18.951  39.241   6.494
 4557POPC   C3A57809  19.125  39.413   6.832
 4557POPC   C4A57810  18.902  39.615   7.128
 4557POPC   C1B57811  19.177  38.921   6.146
 4557POPC   C2B57812  19.250  38.821   6.609
 4557POPC   C3B57813  18.972  38.949   6.946
 4557POPC   C4B57814  19.118  39.177   7.302
 4558POPC   NC357815   7.150  26.117   5.359
 4558POPC   PO457816   7.794  26.361   5.433
 4558POPC   GL157817   7.502  26.211   5.788
 4558POPC   GL257818   7.316  25.905   5.893
 4558POPC   C1A57819   7.356  26.249   6.241
 4558POPC   D2A57820   7.325  26.007   6.624
 4558POPC   C3A57821   7.434  26.195   7.045
 4558POPC   C4A57822   7.363  26.397   7.452
 4558POPC   C1B57823   7.709  25.744   6.075
 4558POPC   C2B57824   7.757  25.581   6.518
 4558POPC   C3B57825   7.591  25.707   6.924
 4558POPC   C4B57826   7.766  25.618   7.279
 4559POPC   NC357827   0.608   5.082   5.391
 4559POPC   PO457828   1.207   4.889   5.300
 4559POPC   GL157829   1.278   4.930   5.766
 4559POPC   GL257830   1.453   5.274   5.830
 4559POPC   C1A57831   1.302   4.902   6.244
 4559POPC   D2A57832   1.443   5.238   6.566
 4559POPC   C3A57833   1.479   5.061   6.983
 4559POPC   C4A57834   1.210   4.753   7.145
 4559POPC   C1B57835   1.067   5.334   6.112
 4559POPC   C2B57836   0.945   5.154   6.532
 4559POPC   C3B57837   1.050   5.314   6.950
 4559POPC   C4B57838   1.036   5.580   7.326
 4560POPC   NC357839   4.226  14.084   5.442
 4560POPC   PO457840   4.474  13.484   5.449
 4560POPC   GL157841   4.231  13.514   5.850
 4560POPC   GL257842   4.183  13.865   5.929
 4560POPC   C1A57843   4.181  13.473   6.322
 4560POPC   D2A57844   4.437  13.621   6.706
 4560POPC   C3A57845   4.208  13.581   7.082
 4560POPC   C4A57846   3.943  13.226   6.974
 4560POPC   C1B57847   4.552  13.815   6.234
 4560POPC   C2B57848   4.708  14.044   6.632
 4560POPC   C3B57849   4.583  13.936   7.112
 4560POPC   C4B57850   4.515  13.947   7.593
 4561POPC   NC357851  29.827  35.131   5.511
 4561POPC   PO457852  30.473  35.412   5.590
 4561POPC   GL157853  30.163  35.282   5.876
 4561POPC   GL257854  30.099  34.947   5.953
 4561POPC   C1A57855  29.842  35.406   6.184
 4561POPC   D2A57856  29.701  35.233   6.579
 4561POPC   C3A57857  29.838  35.379   6.990
 4561POPC   C4A57858  29.896  35.566   7.415
 4561POPC   C1B57859  30.177  35.079   6.386
 4561POPC   C2B57860  30.244  35.104   6.829
 4561POPC   C3B57861  30.222  35.197   7.262
 4561POPC   C4B57862  29.952  35.105   7.653
 4562POPC   NC357863  28.348  42.498   5.616
 4562POPC   PO457864  28.709  41.923   5.502
 4562POPC   GL157865  28.661  42.164   5.889
 4562POPC   GL257866  28.273  42.181   6.006
 4562POPC   C1A57867  28.661  42.332   6.317
 4562POPC   D2A57868  28.327  42.234   6.587
 4562POPC   C3A57869  28.421  42.321   6.997
 4562POPC   C4A57870  28.619  42.628   7.231
 4562POPC   C1B57871  28.158  42.555   6.247
 4562POPC   C2B57872  28.232  42.753   6.665
 4562POPC   C3B57873  28.105  42.709   7.082
 4562POPC   C4B57874  28.185  42.570   7.500
 4563POPC   NC357875   8.925   1.456   5.582
 4563POPC   PO457876   9.223   1.935   5.185
 4563POPC   GL157877   9.296   1.883   5.692
 4563POPC   GL257878   9.309   2.201   5.922
 4563POPC   C1A57879   9.268   1.704   6.162
 4563POPC   D2A57880   9.348   1.694   6.660
 4563POPC   C3A57881   9.013   1.842   7.006
 4563POPC   C4A57882   9.033   1.809   7.485
 4563POPC   C1B57883   8.935   2.347   6.176
 4563POPC   C2B57884   8.770   2.251   6.585
 4563POPC   C3B57885   8.796   2.438   6.980
 4563POPC   C4B57886   8.865   2.266   7.359
 4564POPC   NC357887  43.010  33.054   5.334
 4564POPC   PO457888  43.554  33.272   5.537
 4564POPC   GL157889  43.227  33.046   5.797
 4564POPC   GL257890  42.917  33.249   5.813
 4564POPC   C1A57891  43.266  32.842   6.213
 4564POPC   D2A57892  43.167  32.867   6.663
 4564POPC   C3A57893  43.248  32.751   7.112
 4564POPC   C4A57894  43.199  32.982   7.520
 4564POPC   C1B57895  42.823  33.102   6.219
 4564POPC   C2B57896  42.692  33.078   6.625
 4564POPC   C3B57897  42.828  33.024   7.019
 4564POPC   C4B57898  42.725  33.122   7.417
 4565POPC   NC357899  18.634  33.595   5.550
 4565POPC   PO457900  18.188  33.295   5.107
 4565POPC   GL157901  18.137  33.679   5.589
 4565POPC   GL257902  18.154  34.033   5.662
 4565POPC   C1A57903  18.282  33.690   6.085
 4565POPC   D2A57904  18.283  33.396   6.469
 4565POPC   C3A57905  18.553  33.453   6.835
 4565POPC   C4A57906  18.590  33.785   7.098
 4565POPC   C1B57907  18.060  34.148   6.133
 4565POPC   C2B57908  18.169  33.920   6.565
 4565POPC   C3B57909  18.097  33.933   7.027
 4565POPC   C4B57910  18.059  34.218   7.412
 4566POPC   NC357911  25.335  31.128   5.231
 4566POPC   PO457912  25.478  31.789   5.340
 4566POPC   GL157913  25.448  31.747   5.800
 4566POPC   GL257914  25.131  31.580   5.793
 4566POPC   C1A57915  25.303  31.685   6.251
 4566POPC   D2A57916  25.188  31.465   6.616
 4566POPC   C3A57917  25.206  31.725   6.974
 4566POPC   C4A57918  25.488  31.593   7.298
 4566POPC   C1B57919  24.984  31.269   6.118
 4566POPC   C2B57920  24.848  31.112   6.535
 4566POPC   C3B57921  25.039  31.080   6.940
 4566POPC   C4B57922  25.029  31.357   7.282
 4567POPC   NC357923  28.585  21.434   5.531
 4567POPC   PO457924  27.920  21.128   5.509
 4567POPC   GL157925  28.282  21.124   5.786
 4567POPC   GL257926  28.172  20.897   5.970
 4567POPC   C1A57927  28.498  21.244   6.190
 4567POPC   D2A57928  28.347  21.391   6.597
 4567POPC   C3A57929  28.629  21.525   6.913
 4567POPC   C4A57930  28.518  21.654   7.322
 4567POPC   C1B57931  28.020  21.010   6.371
 4567POPC   C2B57932  28.143  20.944   6.794
 4567POPC   C3B57933  28.207  21.292   7.109
 4567POPC   C4B57934  27.852  21.549   7.236
 4568POPC   NC357935  11.344  37.940   5.257
 4568POPC   PO457936  11.430  38.601   5.268
 4568POPC   GL157937  11.300  38.589   5.719
 4568POPC   GL257938  11.045  38.435   5.838
 4568POPC   C1A57939  11.308  38.812   6.132
 4568POPC   D2A57940  11.372  38.640   6.537
 4568POPC   C3A57941  11.455  38.771   6.943
 4568POPC   C4A57942  11.665  38.545   7.285
 4568POPC   C1B57943  11.309  38.260   6.144
 4568POPC   C2B57944  11.232  38.155   6.566
 4568POPC   C3B57945  11.310  38.276   7.001
 4568POPC   C4B57946  11.462  38.064   7.370
 4569POPC   NC357947  20.696  25.551   5.364
 4569POPC   PO457948  20.480  26.239   5.237
 4569POPC   GL157949  20.504  26.233   5.688
 4569POPC   GL257950  20.500  25.864   5.765
 4569POPC   C1A57951  20.727  26.250   6.117
 4569POPC   D2A57952  20.930  26.354   6.556
 4569POPC   C3A57953  20.761  26.179   6.976
 4569POPC   C4A57954  20.414  26.340   7.261
 4569POPC   C1B57955  20.573  25.720   6.221
 4569POPC   C2B57956  20.431  25.537   6.658
 4569POPC   C3B57957  20.372  25.595   7.124
 4569POPC   C4B57958  20.461  25.879   7.499
 4570POPC   NC357959  25.287   0.096   5.297
 4570POPC   PO457960  25.339   0.605   5.625
 4570POPC   GL157961  25.394   0.212   5.834
 4570POPC   GL257962  25.060   0.057   5.761
 4570POPC   C1A57963  25.468   0.251   6.289
 4570POPC   D2A57964  25.213   0.578   6.506
 4570POPC   C3A57965  25.377   0.605   6.858
 4570POPC   C4A57966  25.496   0.409   7.191
 4570POPC   C1B57967  24.985   0.290   6.145
 4570POPC   C2B57968  25.050   0.106   6.565
 4570POPC   C3B57969  25.129   0.099   6.977
 4570POPC   C4B57970  25.005   0.328   7.316
 4571POPC   NC357971  17.833  25.301   5.507
 4571POPC   PO457972  17.122  25.563   5.338
 4571POPC   GL157973  17.299  25.408   5.723
 4571POPC   GL257974  17.410  25.053   5.694
 4571POPC   C1A57975  17.178  25.328   6.161
 4571POPC   D2A57976  17.287  25.538   6.546
 4571POPC   C3A57977  17.319  25.396   6.957
 4571POPC   C4A57978  17.672  25.285   7.167
 4571POPC   C1B57979  17.380  24.862   6.109
 4571POPC   C2B57980  17.484  25.001   6.539
 4571POPC   C3B57981  17.422  24.855   6.972
 4571POPC   C4B57982  17.419  24.900   7.433
 4572POPC   NC357983  25.376   4.790   5.261
 4572POPC   PO457984  25.064   5.416   5.291
 4572POPC   GL157985  25.207   5.304   5.724
 4572POPC   GL257986  25.228   4.936   5.777
 4572POPC   C1A57987  25.231   5.354   6.203
 4572POPC   D2A57988  25.209   5.157   6.647
 4572POPC   C3A57989  25.409   5.318   7.013
 4572POPC   C4A57990  25.575   5.216   7.448
 4572POPC   C1B57991  25.475   4.882   6.169
 4572POPC   C2B57992  25.543   4.758   6.618
 4572POPC   C3B57993  25.450   4.816   7.079
 4572POPC   C4B57994  25.154   4.579   7.390
 4573POPC   NC357995   3.047   4.150   5.483
 4573POPC   PO457996   2.519   4.538   5.438
 4573POPC   GL157997   2.784   4.447   5.790
 4573POPC   GL257998   3.098   4.633   5.901
 4573POPC   C1A57999   2.634   4.160   6.137
 4573POPC   D2A58000   2.464   4.310   6.524
 4573POPC   C3A58001   2.659   4.237   6.890
 4573POPC   C4A58002   2.554   4.385   7.330
 4573POPC   C1B58003   3.145   4.228   6.123
 4573POPC   C2B58004   2.990   4.030   6.499
 4573POPC   C3B58005   3.170   4.183   6.855
 4573POPC   C4B58006   3.016   4.200   7.248
 4574POPC   NC358007  37.123  19.553   5.119
 4574POPC   PO458008  36.544  19.880   5.361
 4574POPC   GL158009  36.709  19.757   5.747
 4574POPC   GL258010  36.846  19.458   5.715
 4574POPC   C1A58011  36.949  19.687   6.156
 4574POPC   D2A58012  36.871  19.897   6.544
 4574POPC   C3A58013  36.910  19.684   6.902
 4574POPC   C4A58014  36.951  19.830   7.282
 4574POPC   C1B58015  36.589  19.342   6.129
 4574POPC   C2B58016  36.576  19.460   6.553
 4574POPC   C3B58017  36.545  19.336   6.980
 4574POPC   C4B58018  36.736  19.370   7.392
 4575POPC   NC358019   8.224  29.315   5.406
 4575POPC   PO458020   7.900  28.724   5.307
 4575POPC   GL158021   8.183  28.873   5.697
 4575POPC   GL258022   8.163  29.188   5.888
 4575POPC   C1A58023   8.240  28.768   6.179
 4575POPC   D2A58024   8.078  28.705   6.634
 4575POPC   C3A58025   8.312  28.879   7.004
 4575POPC   C4A58026   8.335  29.339   7.117
 4575POPC   C1B58027   7.863  29.242   6.219
 4575POPC   C2B58028   7.875  29.484   6.598
 4575POPC   C3B58029   7.836  29.303   7.028
 4575POPC   C4B58030   7.885  28.923   7.299
 4576POPC   NC358031  20.673  36.223   5.206
 4576POPC   PO458032  20.087  35.979   5.325
 4576POPC   GL158033  20.410  36.072   5.668
 4576POPC   GL258034  20.591  36.367   5.769
 4576POPC   C1A58035  20.600  35.932   6.082
 4576POPC   D2A58036  20.452  35.739   6.481
 4576POPC   C3A58037  20.716  35.847   6.854
 4576POPC   C4A58038  20.711  35.971   7.281
 4576POPC   C1B58039  20.518  36.452   6.183
 4576POPC   C2B58040  20.571  36.246   6.575
 4576POPC   C3B58041  20.667  36.391   6.989
 4576POPC   C4B58042  20.941  36.404   7.404
 4577POPC   NC358043  42.438  41.919   5.537
 4577POPC   PO458044  42.003  41.375   5.320
 4577POPC   GL158045  41.865  41.466   5.759
 4577POPC   GL258046  42.064  41.741   5.830
 4577POPC   C1A58047  42.000  41.388   6.196
 4577POPC   D2A58048  42.368  41.419   6.470
 4577POPC   C3A58049  42.325  41.476   6.901
 4577POPC   C4A58050  42.634  41.503   7.201
 4577POPC   C1B58051  42.293  41.847   6.209
 4577POPC   C2B58052  42.435  41.928   6.644
 4577POPC   C3B58053  42.473  41.971   7.097
 4577POPC   C4B58054  42.183  41.980   7.460
 4578POPC   NC358055  32.299  24.255   5.479
 4578POPC   PO458056  31.884  24.703   5.621
 4578POPC   GL158057  32.318  24.592   5.854
 4578POPC   GL258058  32.360  24.213   5.978
 4578POPC   C1A58059  32.480  24.589   6.301
 4578POPC   D2A58060  32.329  24.318   6.655
 4578POPC   C3A58061  32.230  24.585   7.020
 4578POPC   C4A58062  32.536  24.804   7.240
 4578POPC   C1B58063  31.999  24.400   6.210
 4578POPC   C2B58064  31.863  24.521   6.606
 4578POPC   C3B58065  31.878  24.219   6.941
 4578POPC   C4B58066  32.093  24.132   7.329
 4579POPC   NC358067   8.739   7.676   5.410
 4579POPC   PO458068   8.933   7.059   5.336
 4579POPC   GL158069   8.901   7.277   5.762
 4579POPC   GL258070   9.048   7.597   5.828
 4579POPC   C1A58071   9.072   7.231   6.215
 4579POPC   D2A58072   9.374   7.129   6.569
 4579POPC   C3A58073   9.214   7.319   6.968
 4579POPC   C4A58074   8.798   7.228   7.066
 4579POPC   C1B58075   8.812   7.717   6.199
 4579POPC   C2B58076   8.795   7.556   6.642
 4579POPC   C3B58077   8.835   7.759   7.052
 4579POPC   C4B58078   9.112   7.694   7.387
 4580POPC   NC358079  34.844   5.963   5.464
 4580POPC   PO458080  34.282   5.648   5.419
 4580POPC   GL158081  34.529   5.693   5.814
 4580POPC   GL258082  34.603   6.054   5.894
 4580POPC   C1A58083  34.361   5.756   6.231
 4580POPC   D2A58084  34.447   5.993   6.575
 4580POPC   C3A58085  34.305   5.792   6.955
 4580POPC   C4A58086  34.597   5.548   7.216
 4580POPC   C1B58087  34.795   6.280   6.249
 4580POPC   C2B58088  34.804   6.343   6.687
 4580POPC   C3B58089  34.760   6.040   6.998
 4580POPC   C4B58090  34.508   6.082   7.349
 4581POPC   NC358091  17.110  34.157   5.379
 4581POPC   PO458092  16.707  33.572   5.315
 4581POPC   GL158093  16.704  33.710   5.733
 4581POPC   GL258094  17.053  33.711   5.740
 4581POPC   C1A58095  16.797  33.868   6.157
 4581POPC   D2A58096  16.932  33.835   6.580
 4581POPC   C3A58097  16.668  33.985   6.923
 4581POPC   C4A58098  16.747  33.825   7.336
 4581POPC   C1B58099  17.162  33.444   6.123
 4581POPC   C2B58100  17.300  33.439   6.560
 4581POPC   C3B58101  17.120  33.454   6.979
 4581POPC   C4B58102  16.982  33.339   7.387
 4582POPC   NC358103  39.493   3.502   5.752
 4582POPC   PO458104  39.942   3.445   5.226
 4582POPC   GL158105  40.013   3.557   5.741
 4582POPC   GL258106  40.049   3.280   5.952
 4582POPC   C1A58107  40.120   3.666   6.237
 4582POPC   D2A58108  39.956   3.732   6.693
 4582POPC   C3A58109  40.218   3.684   7.099
 4582POPC   C4A58110  40.181   3.440   7.484
 4582POPC   C1B58111  39.784   3.267   6.355
 4582POPC   C2B58112  39.787   3.273   6.817
 4582POPC   C3B58113  39.753   3.487   7.204
 4582POPC   C4B58114  39.669   3.509   7.631
 4583POPC   NC358115  35.208  43.327   5.501
 4583POPC   PO458116  35.446  42.679   5.609
 4583POPC   GL158117  35.314  42.851   5.955
 4583POPC   GL258118  35.448  43.203   5.933
 4583POPC   C1A58119  35.422  42.941   6.371
 4583POPC   D2A58120  35.431  43.255   6.651
 4583POPC   C3A58121  35.341  42.966   6.953
 4583POPC   C4A58122  35.583  42.753   7.237
 4583POPC   C1B58123  35.083  43.271   6.202
 4583POPC   C2B58124  34.910  43.259   6.646
 4583POPC   C3B58125  35.106  43.393   7.073
 4583POPC   C4B58126  35.597  43.383   7.134
 4584POPC   NC358127  20.944   4.130   5.342
 4584POPC   PO458128  20.717   4.701   5.538
 4584POPC   GL158129  20.697   4.538   5.930
 4584POPC   GL258130  20.746   4.174   5.866
 4584POPC   C1A58131  20.433   4.343   6.262
 4584POPC   D2A58132  20.478   4.145   6.679
 4584POPC   C3A58133  20.449   4.437   7.041
 4584POPC   C4A58134  20.698   4.494   7.415
 4584POPC   C1B58135  20.950   4.235   6.286
 4584POPC   C2B58136  21.004   4.071   6.708
 4584POPC   C3B58137  20.765   4.036   7.107
 4584POPC   C4B58138  20.808   3.988   7.544
 4585POPC   NC358139  12.441  40.961   5.467
 4585POPC   PO458140  12.915  40.571   5.153
 4585POPC   GL158141  12.948  40.681   5.639
 4585POPC   GL258142  12.878  41.033   5.711
 4585POPC   C1A58143  12.917  40.519   6.100
 4585POPC   D2A58144  12.831  40.675   6.529
 4585POPC   C3A58145  12.819  40.824   6.958
 4585POPC   C4A58146  12.688  40.526   7.276
 4585POPC   C1B58147  12.849  41.032   6.161
 4585POPC   C2B58148  12.907  41.209   6.591
 4585POPC   C3B58149  13.252  41.125   6.905
 4585POPC   C4B58150  13.194  41.107   7.342
 4586POPC   NC358151  37.804  34.043   5.100
 4586POPC   PO458152  37.709  34.650   5.415
 4586POPC   GL158153  37.911  34.605   5.800
 4586POPC   GL258154  37.871  34.978   5.855
 4586POPC   C1A58155  37.840  34.369   6.207
 4586POPC   D2A58156  37.752  34.080   6.546
 4586POPC   C3A58157  37.859  34.274   6.897
 4586POPC   C4A58158  37.666  34.355   7.268
 4586POPC   C1B58159  37.510  34.759   6.089
 4586POPC   C2B58160  37.576  34.705   6.536
 4586POPC   C3B58161  37.457  34.701   6.961
 4586POPC   C4B58162  37.447  34.850   7.397
 4587POPC   NC358163  31.815   3.586   5.524
 4587POPC   PO458164  31.162   3.493   5.353
 4587POPC   GL158165  31.330   3.419   5.757
 4587POPC   GL258166  31.439   3.760   5.840
 4587POPC   C1A58167  31.207   3.236   6.153
 4587POPC   D2A58168  31.026   3.119   6.564
 4587POPC   C3A58169  31.191   3.297   6.934
 4587POPC   C4A58170  31.270   3.145   7.377
 4587POPC   C1B58171  31.384   3.676   6.273
 4587POPC   C2B58172  31.523   3.610   6.687
 4587POPC   C3B58173  31.507   3.706   7.115
 4587POPC   C4B58174  31.533   3.578   7.561
 4588POPC   NC358175  19.222  38.701   5.412
 4588POPC   PO458176  18.758  38.259   5.110
 4588POPC   GL158177  18.869  38.345   5.543
 4588POPC   GL258178  18.730  38.651   5.624
 4588POPC   C1A58179  19.052  38.265   5.952
 4588POPC   D2A58180  19.090  38.369   6.399
 4588POPC   C3A58181  19.291  38.338   6.822
 4588POPC   C4A58182  19.255  38.026   7.155
 4588POPC   C1B58183  18.740  38.647   6.071
 4588POPC   C2B58184  18.771  38.742   6.502
 4588POPC   C3B58185  18.810  38.467   6.870
 4588POPC   C4B58186  19.051  38.564   7.254
 4589POPC   NC358187  24.786  25.417   5.582
 4589POPC   PO458188  25.308  25.128   5.386
 4589POPC   GL158189  25.509  25.235   5.826
 4589POPC   GL258190  25.280  25.458   5.936
 4589POPC   C1A58191  25.443  25.182   6.329
 4589POPC   D2A58192  25.207  25.258   6.760
 4589POPC   C3A58193  25.232  24.956   7.104
 4589POPC   C4A58194  25.541  24.947   7.438
 4589POPC   C1B58195  25.081  25.518   6.324
 4589POPC   C2B58196  25.055  25.773   6.683
 4589POPC   C3B58197  25.110  25.659   7.059
 4589POPC   C4B58198  25.345  25.418   7.312
 4590POPC   NC358199   2.770  19.446   5.381
 4590POPC   PO458200   2.432  18.874   5.271
 4590POPC   GL158201   2.531  18.887   5.737
 4590POPC   GL258202   2.721  19.206   5.813
 4590POPC   C1A58203   2.733  18.853   6.177
 4590POPC   D2A58204   2.855  18.654   6.569
 4590POPC   C3A58205   2.629  18.821   6.916
 4590POPC   C4A58206   2.893  18.965   7.195
 4590POPC   C1B58207   2.552  19.457   6.129
 4590POPC   C2B58208   2.513  19.312   6.532
 4590POPC   C3B58209   2.701  19.364   6.913
 4590POPC   C4B58210   2.468  19.205   7.250
 4591POPC   NC358211  18.869  17.872   5.403
 4591POPC   PO458212  19.289  18.395   5.506
 4591POPC   GL158213  19.193  18.065   5.789
 4591POPC   GL258214  18.880  18.183   5.856
 4591POPC   C1A58215  19.257  18.064   6.240
 4591POPC   D2A58216  19.512  18.385   6.474
 4591POPC   C3A58217  19.434  18.377   6.926
 4591POPC   C4A58218  19.289  18.054   7.256
 4591POPC   C1B58219  18.935  18.470   6.202
 4591POPC   C2B58220  19.027  18.389   6.633
 4591POPC   C3B58221  18.897  18.352   7.053
 4591POPC   C4B58222  18.909  18.640   7.385
 4592POPC   NC358223  30.297  42.413   5.357
 4592POPC   PO458224  30.841  41.916   5.486
 4592POPC   GL158225  30.828  42.150   5.855
 4592POPC   GL258226  30.479  42.195   5.791
 4592POPC   C1A58227  31.006  42.321   6.258
 4592POPC   D2A58228  30.842  42.605   6.601
 4592POPC   C3A58229  30.972  42.563   7.013
 4592POPC   C4A58230  31.082  42.143   7.059
 4592POPC   C1B58231  30.527  42.430   6.151
 4592POPC   C2B58232  30.342  42.514   6.526
 4592POPC   C3B58233  30.453  42.475   6.944
 4592POPC   C4B58234  30.197  42.420   7.266
 4593POPC   NC358235   4.621   4.976   5.379
 4593POPC   PO458236   3.966   5.304   5.454
 4593POPC   GL158237   4.320   5.233   5.764
 4593POPC   GL258238   4.258   4.853   5.770
 4593POPC   C1A58239   4.465   5.393   6.205
 4593POPC   D2A58240   4.346   5.223   6.665
 4593POPC   C3A58241   4.504   5.391   7.098
 4593POPC   C4A58242   4.504   5.570   7.580
 4593POPC   C1B58243   4.332   4.903   6.222
 4593POPC   C2B58244   4.427   4.699   6.626
 4593POPC   C3B58245   4.425   4.745   7.071
 4593POPC   C4B58246   4.212   4.683   7.512
 4594POPC   NC358247  37.261  23.229   5.510
 4594POPC   PO458248  37.470  22.587   5.468
 4594POPC   GL158249  37.634  22.632   5.852
 4594POPC   GL258250  37.639  22.998   5.805
 4594POPC   C1A58251  37.592  22.753   6.255
 4594POPC   D2A58252  37.540  23.025   6.565
 4594POPC   C3A58253  37.390  22.787   6.896
 4594POPC   C4A58254  37.442  22.651   7.291
 4594POPC   C1B58255  37.833  23.227   6.142
 4594POPC   C2B58256  38.035  23.172   6.528
 4594POPC   C3B58257  37.861  23.260   6.912
 4594POPC   C4B58258  37.727  23.090   7.302
 4595POPC   NC358259  10.231  43.437   5.403
 4595POPC   PO458260  10.819  43.163   5.451
 4595POPC   GL158261  10.571  43.110   5.849
 4595POPC   GL258262  10.654  43.402   6.024
 4595POPC   C1A58263  10.335  43.068   6.270
 4595POPC   D2A58264  10.486  43.189   6.708
 4595POPC   C3A58265  10.326  42.962   7.093
 4595POPC   C4A58266  10.171  42.952   7.514
 4595POPC   C1B58267  10.865  43.103   6.321
 4595POPC   C2B58268  11.015  43.106   6.761
 4595POPC   C3B58269  10.783  43.122   7.149
 4595POPC   C4B58270  10.530  43.314   7.470
 4596POPC   NC358271  22.988  33.107   5.438
 4596POPC   PO458272  22.445  33.470   5.687
 4596POPC   GL158273  22.706  33.151   5.867
 4596POPC   GL258274  23.099  33.140   5.953
 4596POPC   C1A58275  22.705  33.003   6.267
 4596POPC   D2A58276  22.826  32.856   6.643
 4596POPC   C3A58277  22.969  33.077   6.966
 4596POPC   C4A58278  22.792  33.079   7.344
 4596POPC   C1B58279  23.208  32.827   6.299
 4596POPC   C2B58280  23.247  32.563   6.710
 4596POPC   C3B58281  23.339  32.717   7.129
 4596POPC   C4B58282  23.361  33.099   7.346
 4597POPC   NC358283  21.709  26.835   5.262
 4597POPC   PO458284  22.406  26.869   5.534
 4597POPC   GL158285  22.111  26.945   5.831
 4597POPC   GL258286  21.867  26.673   5.824
 4597POPC   C1A58287  22.190  27.108   6.253
 4597POPC   D2A58288  22.054  26.927   6.639
 4597POPC   C3A58289  22.357  26.891   6.970
 4597POPC   C4A58290  22.309  26.818   7.422
 4597POPC   C1B58291  22.156  26.576   6.211
 4597POPC   C2B58292  22.202  26.419   6.667
 4597POPC   C3B58293  22.089  26.476   7.132
 4597POPC   C4B58294  21.970  26.474   7.586
 4598POPC   NC358295  27.596  36.591   5.151
 4598POPC   PO458296  27.852  36.074   5.563
 4598POPC   GL158297  27.693  36.144   5.932
 4598POPC   GL258298  27.407  36.228   5.815
 4598POPC   C1A58299  27.646  36.422   6.246
 4598POPC   D2A58300  27.529  36.539   6.622
 4598POPC   C3A58301  27.683  36.341   6.953
 4598POPC   C4A58302  27.563  36.420   7.356
 4598POPC   C1B58303  27.198  36.058   6.176
 4598POPC   C2B58304  27.224  36.143   6.600
 4598POPC   C3B58305  27.303  35.977   7.001
 4598POPC   C4B58306  27.442  35.603   7.204
 4599POPC   NC358307  36.782  27.236   5.650
 4599POPC   PO458308  36.879  27.935   5.565
 4599POPC   GL158309  37.151  27.670   5.844
 4599POPC   GL258310  37.275  27.312   5.778
 4599POPC   C1A58311  37.127  27.701   6.299
 4599POPC   D2A58312  36.854  27.763   6.679
 4599POPC   C3A58313  37.032  27.856   7.086
 4599POPC   C4A58314  37.301  27.698   7.381
 4599POPC   C1B58315  37.273  27.176   6.220
 4599POPC   C2B58316  37.215  27.311   6.662
 4599POPC   C3B58317  37.185  27.268   7.085
 4599POPC   C4B58318  36.765  27.348   7.191
 4600POPC   NC358319  22.832  41.812   5.378
 4600POPC   PO458320  22.626  41.222   5.535
 4600POPC   GL158321  22.894  41.393   5.856
 4600POPC   GL258322  23.028  41.738   5.827
 4600POPC   C1A58323  22.988  41.361   6.295
 4600POPC   D2A58324  22.682  41.331   6.619
 4600POPC   C3A58325  22.835  41.458   7.007
 4600POPC   C4A58326  23.154  41.222   7.227
 4600POPC   C1B58327  22.775  41.823   6.152
 4600POPC   C2B58328  22.864  41.806   6.565
 4600POPC   C3B58329  22.978  41.959   6.936
 4600POPC   C4B58330  22.672  41.881   7.230
 4601POPC   NC358331  39.467   4.972   5.058
 4601POPC   PO458332  39.267   5.059   5.665
 4601POPC   GL158333  39.086   5.145   5.983
 4601POPC   GL258334  38.823   5.368   5.915
 4601POPC   C1A58335  39.303   5.172   6.382
 4601POPC   D2A58336  39.205   4.982   6.749
 4601POPC   C3A58337  39.343   5.194   7.107
 4601POPC   C4A58338  39.319   4.846   7.396
 4601POPC   C1B58339  38.796   5.219   6.377
 4601POPC   C2B58340  38.735   5.181   6.837
 4601POPC   C3B58341  38.874   5.035   7.194
 4601POPC   C4B58342  38.986   5.304   7.470
 4602POPC   NC358343  43.652  28.749   5.539
 4602POPC   PO458344  44.117  28.282   5.377
 4602POPC   GL158345  43.861  28.323   5.728
 4602POPC   GL258346  44.040  28.580   5.907
 4602POPC   C1A58347  43.771  28.177   6.151
 4602POPC   D2A58348  43.839  28.326   6.569
 4602POPC   C3A58349  43.942  28.089   6.922
 4602POPC   C4A58350  44.106  28.334   7.231
 4602POPC   C1B58351  43.828  28.757   6.279
 4602POPC   C2B58352  43.566  28.752   6.678
 4602POPC   C3B58353  43.558  28.430   7.035
 4602POPC   C4B58354  43.690  28.338   7.484
 4603POPC   NC358355   1.746  25.275   5.569
 4603POPC   PO458356   1.137  25.370   5.473
 4603POPC   GL158357   1.130  25.531   5.900
 4603POPC   GL258358   0.969  25.879   5.912
 4603POPC   C1A58359   1.297  25.318   6.304
 4603POPC   D2A58360   1.282  25.157   6.757
 4603POPC   C3A58361   1.551  25.251   7.110
 4603POPC   C4A58362   1.573  25.052   7.544
 4603POPC   C1B58363   1.081  25.793   6.338
 4603POPC   C2B58364   0.879  25.438   6.573
 4603POPC   C3B58365   0.794  25.215   6.939
 4603POPC   C4B58366   1.067  25.418   7.192
 4604POPC   NC358367  23.870  24.808   5.595
 4604POPC   PO458368  24.395  25.217   5.393
 4604POPC   GL158369  24.516  25.058   5.807
 4604POPC   GL258370  24.778  24.808   5.762
 4604POPC   C1A58371  24.487  25.251   6.216
 4604POPC   D2A58372  24.192  25.354   6.565
 4604POPC   C3A58373  24.321  25.235   6.978
 4604POPC   C4A58374  24.326  25.182   7.403
 4604POPC   C1B58375  24.994  25.039   6.074
 4604POPC   C2B58376  24.868  25.025   6.474
 4604POPC   C3B58377  24.755  24.980   6.891
 4604POPC   C4B58378  24.820  25.241   7.234
 4605POPC   NC358379  21.738  32.638   5.336
 4605POPC   PO458380  22.280  33.096   5.250
 4605POPC   GL158381  22.202  33.019   5.707
 4605POPC   GL258382  22.024  32.732   5.745
 4605POPC   C1A58383  22.213  33.120   6.181
 4605POPC   D2A58384  22.058  33.235   6.606
 4605POPC   C3A58385  22.227  33.107   7.006
 4605POPC   C4A58386  22.307  33.216   7.444
 4605POPC   C1B58387  21.794  32.838   6.123
 4605POPC   C2B58388  21.819  32.715   6.544
 4605POPC   C3B58389  21.744  32.881   6.934
 4605POPC   C4B58390  21.932  32.851   7.347
 4606POPC   NC358391  16.740  19.016   5.406
 4606POPC   PO458392  16.287  19.460   5.531
 4606POPC   GL158393  16.518  19.204   5.834
 4606POPC   GL258394  16.500  18.869   5.886
 4606POPC   C1A58395  16.874  19.094   6.158
 4606POPC   D2A58396  16.971  18.894   6.575
 4606POPC   C3A58397  16.711  18.836   6.967
 4606POPC   C4A58398  16.748  19.007   7.413
 4606POPC   C1B58399  16.283  19.053   6.271
 4606POPC   C2B58400  16.155  18.994   6.730
 4606POPC   C3B58401  16.267  19.001   7.169
 4606POPC   C4B58402  16.284  18.806   7.588
 4607POPC   NC358403   2.739  26.631   5.385
 4607POPC   PO458404   2.979  27.160   5.657
 4607POPC   GL158405   2.805  26.861   5.925
 4607POPC   GL258406   2.823  26.513   5.865
 4607POPC   C1A58407   2.720  27.012   6.330
 4607POPC   D2A58408   2.471  27.085   6.688
 4607POPC   C3A58409   2.527  26.780   6.986
 4607POPC   C4A58410   2.830  26.986   7.222
 4607POPC   C1B58411   2.768  26.508   6.314
 4607POPC   C2B58412   3.005  26.674   6.684
 4607POPC   C3B58413   2.994  26.531   7.107
 4607POPC   C4B58414   2.614  26.349   7.284
 4608POPC   NC358415  40.911  24.701   5.462
 4608POPC   PO458416  40.548  24.067   5.567
 4608POPC   GL158417  40.797  24.340   5.805
 4608POPC   GL258418  40.571  24.635   5.857
 4608POPC   C1A58419  41.037  24.405   6.155
 4608POPC   D2A58420  41.246  24.456   6.510
 4608POPC   C3A58421  41.043  24.544   6.907
 4608POPC   C4A58422  41.056  24.491   7.338
 4608POPC   C1B58423  40.514  24.412   6.247
 4608POPC   C2B58424  40.608  24.427   6.669
 4608POPC   C3B58425  40.591  24.291   7.063
 4608POPC   C4B58426  40.565  24.670   7.164
 4609POPC   NC358427  28.196  19.802   5.120
 4609POPC   PO458428  27.517  19.942   5.281
 4609POPC   GL158429  27.521  19.687   5.666
 4609POPC   GL258430  27.866  19.510   5.703
 4609POPC   C1A58431  27.314  19.718   6.088
 4609POPC   D2A58432  27.436  19.525   6.476
 4609POPC   C3A58433  27.359  19.675   6.904
 4609POPC   C4A58434  27.497  19.854   7.299
 4609POPC   C1B58435  27.825  19.639   6.146
 4609POPC   C2B58436  27.872  19.812   6.584
 4609POPC   C3B58437  27.872  19.651   6.997
 4609POPC   C4B58438  27.630  19.359   7.230
 4610POPC   NC358439  37.971  24.260   5.415
 4610POPC   PO458440  37.541  23.626   5.463
 4610POPC   GL158441  37.623  23.829   5.829
 4610POPC   GL258442  37.774  24.118   5.861
 4610POPC   C1A58443  37.419  23.858   6.219
 4610POPC   D2A58444  37.650  23.589   6.524
 4610POPC   C3A58445  37.586  23.713   6.943
 4610POPC   C4A58446  37.839  23.631   7.278
 4610POPC   C1B58447  37.919  23.954   6.263
 4610POPC   C2B58448  38.037  23.893   6.687
 4610POPC   C3B58449  37.918  24.106   7.043
 4610POPC   C4B58450  37.975  24.064   7.498
 4611POPC   NC358451   3.430   3.418   5.526
 4611POPC   PO458452   3.897   3.812   5.200
 4611POPC   GL158453   3.797   3.862   5.670
 4611POPC   GL258454   3.424   3.897   5.752
 4611POPC   C1A58455   3.724   3.668   6.110
 4611POPC   D2A58456   3.747   3.354   6.446
 4611POPC   C3A58457   3.727   3.510   6.869
 4611POPC   C4A58458   3.549   3.341   7.268
 4611POPC   C1B58459   3.221   3.709   6.153
 4611POPC   C2B58460   3.251   3.576   6.608
 4611POPC   C3B58461   3.295   3.728   7.041
 4611POPC   C4B58462   3.180   3.761   7.479
 4612POPC   NC358463  21.137  39.758   5.440
 4612POPC   PO458464  21.599  40.222   5.410
 4612POPC   GL158465  21.433  39.987   5.789
 4612POPC   GL258466  21.256  40.237   5.972
 4612POPC   C1A58467  21.463  39.839   6.228
 4612POPC   D2A58468  21.356  40.121   6.555
 4612POPC   C3A58469  21.379  39.935   6.953
 4612POPC   C4A58470  21.198  39.955   7.354
 4612POPC   C1B58471  21.689  40.297   6.144
 4612POPC   C2B58472  21.875  40.184   6.535
 4612POPC   C3B58473  21.771  40.360   6.940
 4612POPC   C4B58474  21.689  40.144   7.330
 4613POPC   NC358475  26.647   1.211   5.384
 4613POPC   PO458476  27.194   0.935   5.555
 4613POPC   GL158477  26.944   1.209   5.808
 4613POPC   GL258478  26.619   1.008   5.873
 4613POPC   C1A58479  26.883   1.354   6.215
 4613POPC   D2A58480  26.726   1.166   6.579
 4613POPC   C3A58481  26.790   1.450   6.912
 4613POPC   C4A58482  26.891   1.348   7.310
 4613POPC   C1B58483  26.446   0.822   6.274
 4613POPC   C2B58484  26.428   0.781   6.746
 4613POPC   C3B58485  26.608   0.924   7.131
 4613POPC   C4B58486  26.652   0.656   7.461
 4614POPC   NC358487  39.705  19.639   5.492
 4614POPC   PO458488  40.199  19.852   5.056
 4614POPC   GL158489  40.182  19.939   5.599
 4614POPC   GL258490  39.867  20.072   5.741
 4614POPC   C1A58491  40.226  19.815   6.127
 4614POPC   D2A58492  40.239  19.445   6.463
 4614POPC   C3A58493  40.106  19.527   6.917
 4614POPC   C4A58494  40.107  19.638   7.382
 4614POPC   C1B58495  39.726  19.919   6.161
 4614POPC   C2B58496  39.832  19.761   6.562
 4614POPC   C3B58497  39.837  19.954   6.969
 4614POPC   C4B58498  39.979  20.134   7.332
 4615POPC   NC358499  24.571  32.541   5.394
 4615POPC   PO458500  24.443  31.890   5.386
 4615POPC   GL158501  24.402  32.161   5.710
 4615POPC   GL258502  24.754  32.078   5.792
 4615POPC   C1A58503  24.493  32.435   6.053
 4615POPC   D2A58504  24.703  32.280   6.396
 4615POPC   C3A58505  24.474  32.341   6.772
 4615POPC   C4A58506  24.675  32.433   7.147
 4615POPC   C1B58507  24.830  31.794   6.138
 4615POPC   C2B58508  24.860  31.838   6.581
 4615POPC   C3B58509  24.720  31.928   6.993
 4615POPC   C4B58510  24.828  31.799   7.402
 4616POPC   NC358511  11.340  33.841   5.204
 4616POPC   PO458512  11.889  33.544   5.363
 4616POPC   GL158513  11.609  33.593   5.749
 4616POPC   GL258514  11.338  33.816   5.713
 4616POPC   C1A58515  11.620  34.003   6.062
 4616POPC   D2A58516  11.459  34.185   6.429
 4616POPC   C3A58517  11.315  33.951   6.766
 4616POPC   C4A58518  11.439  33.936   7.183
 4616POPC   C1B58519  11.210  33.700   6.167
 4616POPC   C2B58520  11.196  33.468   6.573
 4616POPC   C3B58521  11.129  33.554   7.039
 4616POPC   C4B58522  10.889  33.874   7.241
 4617POPC   NC358523  22.936  12.362   5.548
 4617POPC   PO458524  22.849  11.627   5.568
 4617POPC   GL158525  22.978  11.936   5.859
 4617POPC   GL258526  22.680  12.150   5.921
 4617POPC   C1A58527  22.932  11.988   6.318
 4617POPC   D2A58528  22.687  11.976   6.688
 4617POPC   C3A58529  23.014  11.965   6.955
 4617POPC   C4A58530  22.996  12.348   7.181
 4617POPC   C1B58531  22.425  12.382   6.225
 4617POPC   C2B58532  22.491  12.571   6.624
 4617POPC   C3B58533  22.489  12.395   7.048
 4617POPC   C4B58534  22.595  12.004   7.241
 4618POPC   NC358535  20.626  41.214   5.289
 4618POPC   PO458536  20.358  41.781   5.391
 4618POPC   GL158537  20.595  41.664   5.770
 4618POPC   GL258538  20.716  41.969   5.963
 4618POPC   C1A58539  20.760  41.452   6.163
 4618POPC   D2A58540  20.528  41.378   6.523
 4618POPC   C3A58541  20.692  41.427   6.932
 4618POPC   C4A58542  20.343  41.493   7.212
 4618POPC   C1B58543  20.477  41.867   6.324
 4618POPC   C2B58544  20.426  41.828   6.785
 4618POPC   C3B58545  20.552  41.931   7.194
 4618POPC   C4B58546  20.548  41.756   7.611
 4619POPC   NC358547  25.607  24.752   5.354
 4619POPC   PO458548  24.930  24.477   5.371
 4619POPC   GL158549  25.176  24.453   5.758
 4619POPC   GL258550  24.975  24.187   5.899
 4619POPC   C1A58551  25.436  24.604   6.162
 4619POPC   D2A58552  25.379  24.776   6.617
 4619POPC   C3A58553  25.612  24.625   6.987
 4619POPC   C4A58554  25.383  24.356   7.294
 4619POPC   C1B58555  24.921  24.545   6.201
 4619POPC   C2B58556  24.773  24.546   6.620
 4619POPC   C3B58557  24.917  24.487   7.055
 4619POPC   C4B58558  24.897  24.216   7.434
 4620POPC   NC358559  44.748  13.808   5.416
 4620POPC   PO458560  44.785  13.130   5.501
 4620POPC   GL158561  44.711  13.482   5.830
 4620POPC   GL258562  44.624  13.881   5.901
 4620POPC   C1A58563  44.825  13.608   6.245
 4620POPC   D2A58564  44.920  13.815   6.612
 4620POPC   C3A58565  44.836  13.572   6.954
 4620POPC   C4A58566  44.986  13.516   7.337
 4620POPC   C1B58567  44.475  13.985   6.329
 4620POPC   C2B58568  44.402  13.676   6.630
 4620POPC   C3B58569  44.332  13.551   7.020
 4620POPC   C4B58570  44.529  13.770   7.361
 4621POPC   NC358571  29.273  21.050   5.508
 4621POPC   PO458572  29.005  21.691   5.460
 4621POPC   GL158573  29.067  21.442   5.798
 4621POPC   GL258574  29.417  21.447   5.828
 4621POPC   C1A58575  29.017  21.430   6.247
 4621POPC   D2A58576  29.105  21.557   6.675
 4621POPC   C3A58577  29.060  21.227   6.995
 4621POPC   C4A58578  28.860  21.259   7.416
 4621POPC   C1B58579  29.532  21.640   6.212
 4621POPC   C2B58580  29.633  21.473   6.623
 4621POPC   C3B58581  29.491  21.542   7.040
 4621POPC   C4B58582  29.373  21.333   7.425
 4622POPC   NC358583  44.199  17.051   5.516
 4622POPC   PO458584  43.816  16.503   5.349
 4622POPC   GL158585  43.864  16.749   5.744
 4622POPC   GL258586  43.626  16.966   5.932
 4622POPC   C1A58587  44.096  16.885   6.131
 4622POPC   D2A58588  43.834  17.049   6.421
 4622POPC   C3A58589  43.885  16.967   6.848
 4622POPC   C4A58590  44.066  16.877   7.246
 4622POPC   C1B58591  43.657  16.595   6.208
 4622POPC   C2B58592  43.851  16.498   6.625
 4622POPC   C3B58593  43.707  16.523   7.066
 4622POPC   C4B58594  43.409  16.402   7.377
 4623POPC   NC358595   5.565  14.664   5.453
 4623POPC   PO458596   6.180  15.024   5.534
 4623POPC   GL158597   5.748  15.060   5.744
 4623POPC   GL258598   5.583  15.391   5.821
 4623POPC   C1A58599   5.722  15.052   6.179
 4623POPC   D2A58600   5.978  15.094   6.546
 4623POPC   C3A58601   5.755  14.893   6.872
 4623POPC   C4A58602   5.732  14.960   7.318
 4623POPC   C1B58603   5.684  15.570   6.229
 4623POPC   C2B58604   5.869  15.604   6.642
 4623POPC   C3B58605   5.829  15.381   7.015
 4623POPC   C4B58606   5.632  15.437   7.434
 4624POPC   NC358607  35.577  19.147   5.124
 4624POPC   PO458608  35.192  18.831   5.609
 4624POPC   GL158609  35.293  18.954   6.001
 4624POPC   GL258610  34.983  18.785   6.084
 4624POPC   C1A58611  35.576  18.979   6.382
 4624POPC   D2A58612  35.656  19.357   6.617
 4624POPC   C3A58613  35.460  19.202   6.960
 4624POPC   C4A58614  35.660  18.823   7.066
 4624POPC   C1B58615  35.079  19.072   6.446
 4624POPC   C2B58616  35.240  18.812   6.736
 4624POPC   C3B58617  35.149  18.758   7.119
 4624POPC   C4B58618  35.301  19.014   7.409
 4625POPC   NC358619  27.314  40.305   5.525
 4625POPC   PO458620  27.942  40.173   5.516
 4625POPC   GL158621  27.620  40.069   5.871
 4625POPC   GL258622  27.266  39.914   5.843
 4625POPC   C1A58623  27.555  39.806   6.247
 4625POPC   D2A58624  27.468  39.840   6.683
 4625POPC   C3A58625  27.810  39.904   6.925
 4625POPC   C4A58626  27.921  40.176   7.285
 4625POPC   C1B58627  27.182  40.224   6.167
 4625POPC   C2B58628  27.296  40.321   6.589
 4625POPC   C3B58629  27.448  40.265   7.010
 4625POPC   C4B58630  27.376  40.327   7.427
 4626POPC   NC358631  34.778  17.364   4.987
 4626POPC   PO458632  34.639  17.811   5.462
 4626POPC   GL158633  34.589  17.579   5.830
 4626POPC   GL258634  34.288  17.761   5.895
 4626POPC   C1A58635  34.693  17.255   6.164
 4626POPC   D2A58636  34.809  17.080   6.592
 4626POPC   C3A58637  34.600  17.233   6.991
 4626POPC   C4A58638  34.418  17.561   7.249
 4626POPC   C1B58639  34.470  17.708   6.314
 4626POPC   C2B58640  34.410  17.792   6.732
 4626POPC   C3B58641  34.771  17.757   6.943
 4626POPC   C4B58642  34.884  17.869   7.321
 4627POPC   NC358643  28.071  10.600   5.323
 4627POPC   PO458644  27.401  10.586   5.367
 4627POPC   GL158645  27.637  10.486   5.779
 4627POPC   GL258646  27.858  10.185   5.797
 4627POPC   C1A58647  27.549  10.533   6.238
 4627POPC   D2A58648  27.544  10.684   6.661
 4627POPC   C3A58649  27.431  10.481   7.006
 4627POPC   C4A58650  27.449  10.831   7.197
 4627POPC   C1B58651  27.984  10.227   6.228
 4627POPC   C2B58652  27.755  10.224   6.618
 4627POPC   C3B58653  27.912  10.337   7.023
 4627POPC   C4B58654  27.858  10.160   7.420
 4628POPC   NC358655  25.747   7.403   5.462
 4628POPC   PO458656  26.267   7.929   5.488
 4628POPC   GL158657  26.155   7.631   5.860
 4628POPC   GL258658  26.004   7.265   5.882
 4628POPC   C1A58659  25.869   7.593   6.251
 4628POPC   D2A58660  25.751   7.286   6.579
 4628POPC   C3A58661  25.842   7.290   7.018
 4628POPC   C4A58662  25.903   7.681   7.236
 4628POPC   C1B58663  26.316   7.283   6.209
 4628POPC   C2B58664  26.438   7.516   6.539
 4628POPC   C3B58665  26.300   7.530   6.937
 4628POPC   C4B58666  26.303   7.251   7.247
 4629POPC   NC358667  44.342  29.471   5.580
 4629POPC   PO458668  44.656  28.966   5.290
 4629POPC   GL158669  44.639  29.067   5.824
 4629POPC   GL258670  44.485  29.298   6.033
 4629POPC   C1A58671  44.817  29.057   6.298
 4629POPC   D2A58672  44.715  29.426   6.609
 4629POPC   C3A58673  44.569  29.229   7.013
 4629POPC   C4A58674  44.835  28.944   7.243
 4629POPC   C1B58675  44.363  28.840   6.213
 4629POPC   C2B58676  44.311  28.622   6.619
 4629POPC   C3B58677  44.385  28.723   7.058
 4629POPC   C4B58678  44.385  28.943   7.443
 4630POPC   NC358679  23.052  30.405   5.611
 4630POPC   PO458680  22.724  30.923   5.273
 4630POPC   GL158681  22.904  30.901   5.741
 4630POPC   GL258682  22.816  30.679   6.071
 4630POPC   C1A58683  23.218  30.943   6.096
 4630POPC   D2A58684  23.273  31.039   6.534
 4630POPC   C3A58685  23.235  30.774   6.904
 4630POPC   C4A58686  23.250  30.976   7.309
 4630POPC   C1B58687  22.793  30.831   6.502
 4630POPC   C2B58688  22.439  30.935   6.768
 4630POPC   C3B58689  22.463  30.960   7.173
 4630POPC   C4B58690  22.832  30.666   7.224
 4631POPC   NC358691  15.554   7.685   5.263
 4631POPC   PO458692  15.097   7.144   5.275
 4631POPC   GL158693  15.127   7.313   5.713
 4631POPC   GL258694  15.436   7.528   5.758
 4631POPC   C1A58695  15.124   7.456   6.160
 4631POPC   D2A58696  15.288   7.624   6.555
 4631POPC   C3A58697  15.161   7.364   6.884
 4631POPC   C4A58698  15.078   7.380   7.315
 4631POPC   C1B58699  15.548   7.782   6.119
 4631POPC   C2B58700  15.636   7.997   6.507
 4631POPC   C3B58701  15.600   7.823   6.931
 4631POPC   C4B58702  15.407   7.814   7.331
 4632POPC   NC358703   5.632  41.085   5.625
 4632POPC   PO458704   5.996  41.437   5.229
 4632POPC   GL158705   5.957  41.530   5.679
 4632POPC   GL258706   6.092  41.230   5.852
 4632POPC   C1A58707   5.856  41.680   6.107
 4632POPC   D2A58708   5.952  41.709   6.555
 4632POPC   C3A58709   5.709  41.645   6.927
 4632POPC   C4A58710   5.940  41.670   7.257
 4632POPC   C1B58711   5.985  41.198   6.286
 4632POPC   C2B58712   5.787  41.203   6.677
 4632POPC   C3B58713   5.935  41.188   7.096
 4632POPC   C4B58714   5.717  41.277   7.467
 4633POPC   NC358715  12.995  11.091   5.260
 4633POPC   PO458716  12.388  11.321   5.422
 4633POPC   GL158717  12.777  11.227   5.707
 4633POPC   GL258718  13.011  11.484   5.730
 4633POPC   C1A58719  13.021  11.156   6.126
 4633POPC   D2A58720  12.868  11.277   6.559
 4633POPC   C3A58721  13.028  11.329   6.987
 4633POPC   C4A58722  12.960  11.497   7.418
 4633POPC   C1B58723  13.063  11.651   6.204
 4633POPC   C2B58724  13.254  11.625   6.639
 4633POPC   C3B58725  13.217  11.810   7.105
 4633POPC   C4B58726  13.405  11.700   7.585
 4634POPC   NC358727  11.613  13.299   5.481
 4634POPC   PO458728  11.205  13.831   5.441
 4634POPC   GL158729  11.278  13.578   5.810
 4634POPC   GL258730  11.018  13.821   5.919
 4634POPC   C1A58731  11.350  13.335   6.227
 4634POPC   D2A58732  11.224  13.497   6.662
 4634POPC   C3A58733  11.468  13.502   7.035
 4634POPC   C4A58734  11.448  13.106   7.249
 4634POPC   C1B58735  11.287  13.839   6.266
 4634POPC   C2B58736  11.534  13.896   6.643
 4634POPC   C3B58737  11.271  13.992   6.936
 4634POPC   C4B58738  11.220  14.012   7.319
 4635POPC   NC358739  31.238  38.684   5.597
 4635POPC   PO458740  31.544  39.149   5.160
 4635POPC   GL158741  31.563  39.225   5.612
 4635POPC   GL258742  31.666  38.914   5.775
 4635POPC   C1A58743  31.325  39.345   6.013
 4635POPC   D2A58744  31.096  39.443   6.415
 4635POPC   C3A58745  31.262  39.575   6.827
 4635POPC   C4A58746  31.176  39.380   7.243
 4635POPC   C1B58747  31.805  39.204   6.105
 4635POPC   C2B58748  31.627  39.364   6.492
 4635POPC   C3B58749  31.606  39.195   6.931
 4635POPC   C4B58750  31.778  39.201   7.350
 4636POPC   NC358751  17.099   7.137   5.383
 4636POPC   PO458752  17.571   7.678   5.606
 4636POPC   GL158753  17.341   7.332   5.832
 4636POPC   GL258754  17.536   7.005   5.938
 4636POPC   C1A58755  17.428   7.388   6.263
 4636POPC   D2A58756  17.610   7.645   6.577
 4636POPC   C3A58757  17.447   7.583   6.974
 4636POPC   C4A58758  17.619   7.281   7.161
 4636POPC   C1B58759  17.474   6.878   6.346
 4636POPC   C2B58760  17.403   7.123   6.710
 4636POPC   C3B58761  17.161   7.042   7.074
 4636POPC   C4B58762  17.276   7.032   7.489
 4637POPC   NC358763   3.603  20.001   5.484
 4637POPC   PO458764   3.224  19.465   5.424
 4637POPC   GL158765   3.551  19.562   5.778
 4637POPC   GL258766   3.945  19.510   5.771
 4637POPC   C1A58767   3.640  19.877   6.127
 4637POPC   D2A58768   3.514  20.192   6.412
 4637POPC   C3A58769   3.645  20.129   6.854
 4637POPC   C4A58770   3.651  19.956   7.271
 4637POPC   C1B58771   3.811  19.402   6.205
 4637POPC   C2B58772   3.779  19.582   6.622
 4637POPC   C3B58773   3.528  19.499   6.994
 4637POPC   C4B58774   3.608  19.425   7.438
 4638POPC   NC358775  41.956  42.728   5.468
 4638POPC   PO458776  42.538  42.897   5.094
 4638POPC   GL158777  42.430  43.004   5.549
 4638POPC   GL258778  42.392  42.724   5.754
 4638POPC   C1A58779  42.500  43.155   6.010
 4638POPC   D2A58780  42.783  43.259   6.365
 4638POPC   C3A58781  42.548  43.293   6.750
 4638POPC   C4A58782  42.680  43.097   7.116
 4638POPC   C1B58783  42.139  42.762   6.108
 4638POPC   C2B58784  42.231  42.948   6.494
 4638POPC   C3B58785  42.226  42.889   6.926
 4638POPC   C4B58786  42.217  42.972   7.348
 4639POPC   NC358787  21.521  44.044   5.234
 4639POPC   PO458788  20.965  43.685   5.164
 4639POPC   GL158789  21.254  43.745   5.602
 4639POPC   GL258790  21.490  44.069   5.732
 4639POPC   C1A58791  21.363  43.736   6.092
 4639POPC   D2A58792  21.564  43.567   6.503
 4639POPC   C3A58793  21.436  43.773   6.924
 4639POPC   C4A58794  21.600  43.858   7.346
 4639POPC   C1B58795  21.618  44.192   6.145
 4639POPC   C2B58796  21.394  44.107   6.549
 4639POPC   C3B58797  21.195  44.294   6.924
 4639POPC   C4B58798  21.157  44.104   7.335
 4640POPC   NC358799  27.051  27.897   5.398
 4640POPC   PO458800  26.505  27.451   5.416
 4640POPC   GL158801  26.676  27.702   5.719
 4640POPC   GL258802  26.953  27.508   5.851
 4640POPC   C1A58803  26.812  27.931   6.088
 4640POPC   D2A58804  26.982  27.679   6.417
 4640POPC   C3A58805  26.836  27.670   6.813
 4640POPC   C4A58806  26.769  27.683   7.230
 4640POPC   C1B58807  26.590  27.488   6.172
 4640POPC   C2B58808  26.405  27.495   6.581
 4640POPC   C3B58809  26.510  27.290   6.978
 4640POPC   C4B58810  26.809  27.172   7.285
 4641POPC   NC358811  23.464   0.126   5.358
 4641POPC   PO458812  23.768   0.741   5.350
 4641POPC   GL158813  23.589   0.511   5.699
 4641POPC   GL258814  23.342   0.711   5.875
 4641POPC   C1A58815  23.665   0.377   6.126
 4641POPC   D2A58816  23.871   0.225   6.496
 4641POPC   C3A58817  23.728   0.371   6.876
 4641POPC   C4A58818  23.753   0.332   7.299
 4641POPC   C1B58819  23.673   0.889   6.121
 4641POPC   C2B58820  23.856   0.776   6.560
 4641POPC   C3B58821  23.908   0.819   7.040
 4641POPC   C4B58822  23.520   0.795   7.302
 4642POPC   NC358823  36.740  17.916   5.450
 4642POPC   PO458824  37.176  18.488   5.476
 4642POPC   GL158825  36.921  18.467   5.820
 4642POPC   GL258826  36.572  18.377   5.838
 4642POPC   C1A58827  37.058  18.501   6.227
 4642POPC   D2A58828  36.847  18.419   6.584
 4642POPC   C3A58829  37.051  18.617   6.928
 4642POPC   C4A58830  37.064  18.556   7.378
 4642POPC   C1B58831  36.767  18.071   6.158
 4642POPC   C2B58832  37.098  17.948   6.473
 4642POPC   C3B58833  37.085  18.105   6.892
 4642POPC   C4B58834  36.676  18.272   7.057
 4643POPC   NC358835  16.579   1.342   5.442
 4643POPC   PO458836  17.082   0.880   5.542
 4643POPC   GL158837  16.920   1.080   5.935
 4643POPC   GL258838  16.869   1.443   5.879
 4643POPC   C1A58839  16.843   1.163   6.393
 4643POPC   D2A58840  16.593   0.994   6.743
 4643POPC   C3A58841  16.778   1.070   7.146
 4643POPC   C4A58842  17.041   1.314   7.471
 4643POPC   C1B58843  16.588   1.583   6.243
 4643POPC   C2B58844  16.564   1.539   6.714
 4643POPC   C3B58845  16.794   1.577   7.117
 4643POPC   C4B58846  16.753   1.714   7.584
 4644POPC   NC358847   0.759  21.353   5.443
 4644POPC   PO458848   1.161  21.895   5.486
 4644POPC   GL158849   1.053  21.595   5.810
 4644POPC   GL258850   1.151  21.262   5.796
 4644POPC   C1A58851   0.982  21.490   6.247
 4644POPC   D2A58852   1.172  21.344   6.630
 4644POPC   C3A58853   1.199  21.545   7.045
 4644POPC   C4A58854   0.897  21.584   7.354
 4644POPC   C1B58855   1.395  21.152   6.193
 4644POPC   C2B58856   1.504  20.960   6.644
 4644POPC   C3B58857   1.421  21.093   7.097
 4644POPC   C4B58858   1.660  21.347   7.448
 4645POPC   NC358859  41.752  26.623   5.300
 4645POPC   PO458860  41.540  25.955   5.257
 4645POPC   GL158861  41.547  26.041   5.718
 4645POPC   GL258862  41.452  25.688   5.776
 4645POPC   C1A58863  41.642  26.212   6.173
 4645POPC   D2A58864  41.505  26.091   6.612
 4645POPC   C3A58865  41.692  26.284   6.976
 4645POPC   C4A58866  41.457  26.413   7.329
 4645POPC   C1B58867  41.409  25.771   6.217
 4645POPC   C2B58868  41.498  25.599   6.660
 4645POPC   C3B58869  41.546  25.789   7.081
 4645POPC   C4B58870  41.631  25.746   7.534
 4646POPC   NC358871  23.258  40.166   5.573
 4646POPC   PO458872  23.154  39.526   5.546
 4646POPC   GL158873  22.874  39.853   5.757
 4646POPC   GL258874  22.728  40.195   5.605
 4646POPC   C1A58875  23.045  39.940   6.169
 4646POPC   D2A58876  23.252  39.790   6.532
 4646POPC   C3A58877  23.215  40.102   6.807
 4646POPC   C4A58878  23.116  40.193   7.216
 4646POPC   C1B58879  22.720  40.337   6.055
 4646POPC   C2B58880  22.907  40.361   6.470
 4646POPC   C3B58881  22.817  40.454   6.859
 4646POPC   C4B58882  22.647  40.400   7.224
 4647POPC   NC358883  42.969  21.227   5.413
 4647POPC   PO458884  43.189  21.854   5.593
 4647POPC   GL158885  43.115  21.451   5.889
 4647POPC   GL258886  42.817  21.187   5.897
 4647POPC   C1A58887  43.025  21.443   6.343
 4647POPC   D2A58888  42.872  21.728   6.700
 4647POPC   C3A58889  43.140  21.640   7.029
 4647POPC   C4A58890  43.204  21.270   7.155
 4647POPC   C1B58891  42.656  21.027   6.294
 4647POPC   C2B58892  42.853  21.094   6.681
 4647POPC   C3B58893  42.734  21.128   7.082
 4647POPC   C4B58894  42.904  21.093   7.516
 4648POPC   NC358895  23.091  24.897   5.451
 4648POPC   PO458896  22.852  24.276   5.198
 4648POPC   GL158897  22.781  24.383   5.647
 4648POPC   GL258898  23.113  24.434   5.781
 4648POPC   C1A58899  22.648  24.427   6.114
 4648POPC   D2A58900  22.834  24.395   6.557
 4648POPC   C3A58901  22.691  24.470   6.985
 4648POPC   C4A58902  22.700  24.576   7.468
 4648POPC   C1B58903  23.207  24.267   6.191
 4648POPC   C2B58904  23.389  24.438   6.567
 4648POPC   C3B58905  23.202  24.456   6.965
 4648POPC   C4B58906  23.200  24.623   7.383
 4649POPC   NC358907  27.207  42.640   5.069
 4649POPC   PO458908  27.845  42.614   5.464
 4649POPC   GL158909  27.770  42.478   5.864
 4649POPC   GL258910  27.393  42.460   5.882
 4649POPC   C1A58911  27.710  42.281   6.240
 4649POPC   D2A58912  27.524  42.249   6.621
 4649POPC   C3A58913  27.873  42.322   6.866
 4649POPC   C4A58914  27.837  42.280   7.291
 4649POPC   C1B58915  27.290  42.661   6.278
 4649POPC   C2B58916  27.237  42.738   6.724
 4649POPC   C3B58917  27.433  42.524   7.058
 4649POPC   C4B58918  27.311  42.514   7.483
 4650POPC   NC358919   0.280   0.486   5.172
 4650POPC   PO458920   0.741   0.150   5.500
 4650POPC   GL158921   0.480   0.402   5.785
 4650POPC   GL258922   0.142   0.308   5.837
 4650POPC   C1A58923   0.445   0.590   6.210
 4650POPC   D2A58924   0.248   0.508   6.624
 4650POPC   C3A58925   0.517   0.676   6.983
 4650POPC   C4A58926   0.803   0.570   7.353
 4650POPC   C1B58927   0.043   0.079   6.260
 4650POPC   C2B58928  44.956   0.077   6.737
 4650POPC   C3B58929   0.185   0.303   7.101
 4650POPC   C4B58930   0.445   0.246   7.521
 4651POPC   NC358931  15.567  12.412   5.525
 4651POPC   PO458932  16.089  12.736   5.238
 4651POPC   GL158933  15.964  12.878   5.640
 4651POPC   GL258934  16.013  12.555   5.770
 4651POPC   C1A58935  15.919  12.989   6.087
 4651POPC   D2A58936  15.877  12.816   6.504
 4651POPC   C3A58937  15.968  12.973   6.902
 4651POPC   C4A58938  16.067  12.727   7.225
 4651POPC   C1B58939  15.745  12.474   6.132
 4651POPC   C2B58940  15.499  12.482   6.512
 4651POPC   C3B58941  15.709  12.445   6.909
 4651POPC   C4B58942  15.433  12.457   7.210
 4652POPC   NC358943  11.567   6.405   5.266
 4652POPC   PO458944  11.144   5.984   5.454
 4652POPC   GL158945  11.296   5.992   5.853
 4652POPC   GL258946  11.629   6.143   5.734
 4652POPC   C1A58947  11.330   5.780   6.292
 4652POPC   D2A58948  11.452   5.839   6.748
 4652POPC   C3A58949  11.223   5.639   7.102
 4652POPC   C4A58950  11.147   5.488   7.565
 4652POPC   C1B58951  11.558   6.261   6.188
 4652POPC   C2B58952  11.164   6.254   6.455
 4652POPC   C3B58953  11.147   6.232   6.881
 4652POPC   C4B58954  11.446   6.194   7.192
 4653POPC   NC358955  36.681  28.356   5.520
 4653POPC   PO458956  37.380  28.509   5.366
 4653POPC   GL158957  37.117  28.507   5.795
 4653POPC   GL258958  37.059  28.173   5.984
 4653POPC   C1A58959  36.892  28.584   6.209
 4653POPC   D2A58960  36.992  28.243   6.494
 4653POPC   C3A58961  36.858  28.319   6.876
 4653POPC   C4A58962  37.125  28.450   7.199
 4653POPC   C1B58963  36.614  28.087   6.183
 4653POPC   C2B58964  36.402  28.032   6.606
 4653POPC   C3B58965  36.526  27.948   7.056
 4653POPC   C4B58966  36.644  28.327   7.332
 4654POPC   NC358967  15.142  29.483   5.380
 4654POPC   PO458968  15.266  30.102   5.469
 4654POPC   GL158969  15.239  29.795   5.787
 4654POPC   GL258970  14.910  29.622   5.816
 4654POPC   C1A58971  15.366  29.852   6.203
 4654POPC   D2A58972  15.395  30.074   6.562
 4654POPC   C3A58973  15.308  29.894   6.960
 4654POPC   C4A58974  15.096  30.012   7.381
 4654POPC   C1B58975  14.870  29.903   6.153
 4654POPC   C2B58976  14.938  29.785   6.581
 4654POPC   C3B58977  14.897  29.605   7.026
 4654POPC   C4B58978  14.810  29.619   7.476
 4655POPC   NC358979  22.563  28.867   5.502
 4655POPC   PO458980  23.155  28.349   5.457
 4655POPC   GL158981  22.939  28.272   5.822
 4655POPC   GL258982  22.786  28.580   5.838
 4655POPC   C1A58983  22.868  28.334   6.261
 4655POPC   D2A58984  22.916  28.642   6.561
 4655POPC   C3A58985  23.000  28.435   6.900
 4655POPC   C4A58986  22.922  28.422   7.299
 4655POPC   C1B58987  22.567  28.761   6.206
 4655POPC   C2B58988  22.437  28.743   6.694
 4655POPC   C3B58989  22.683  28.811   7.103
 4655POPC   C4B58990  22.783  28.859   7.584
 4656POPC   NC358991  22.870   8.773   5.504
 4656POPC   PO458992  23.392   9.107   5.238
 4656POPC   GL158993  23.390   9.001   5.715
 4656POPC   GL258994  23.319   8.685   5.731
 4656POPC   C1A58995  23.355   9.178   6.153
 4656POPC   D2A58996  23.135   9.310   6.552
 4656POPC   C3A58997  22.860   9.032   6.797
 4656POPC   C4A58998  22.979   8.959   7.237
 4656POPC   C1B58999  23.098   8.741   6.121
 4656POPC   C2B59000  23.281   8.780   6.521
 4656POPC   C3B59001  23.175   8.626   6.906
 4656POPC   C4B59002  23.339   8.594   7.298
 4657POPC   NC359003   6.536  17.866   5.571
 4657POPC   PO459004   6.972  17.328   5.565
 4657POPC   GL159005   6.873  17.633   5.858
 4657POPC   GL259006   6.549  17.476   5.894
 4657POPC   C1A59007   6.737  17.864   6.220
 4657POPC   D2A59008   6.523  17.704   6.560
 4657POPC   C3A59009   6.608  17.820   6.951
 4657POPC   C4A59010   6.422  17.641   7.263
 4657POPC   C1B59011   6.781  17.281   6.226
 4657POPC   C2B59012   6.808  17.293   6.637
 4657POPC   C3B59013   6.530  17.265   6.935
 4657POPC   C4B59014   6.639  17.195   7.350
 4658POPC   NC359015  21.265  37.482   5.358
 4658POPC   PO459016  21.300  38.123   5.408
 4658POPC   GL159017  21.580  37.776   5.714
 4658POPC   GL259018  21.801  37.936   5.990
 4658POPC   C1A59019  21.775  37.435   6.043
 4658POPC   D2A59020  21.735  37.247   6.483
 4658POPC   C3A59021  21.681  37.475   6.897
 4658POPC   C4A59022  21.389  37.566   7.210
 4658POPC   C1B59023  21.407  37.722   6.221
 4658POPC   C2B59024  21.245  37.509   6.603
 4658POPC   C3B59025  21.037  37.775   6.931
 4658POPC   C4B59026  21.027  37.933   7.353
 4659POPC   NC359027  30.800  31.966   5.332
 4659POPC   PO459028  30.815  31.269   5.531
 4659POPC   GL159029  30.812  31.439   5.913
 4659POPC   GL259030  30.831  31.757   5.802
 4659POPC   C1A59031  30.943  31.354   6.347
 4659POPC   D2A59032  30.663  31.293   6.706
 4659POPC   C3A59033  30.808  31.176   7.115
 4659POPC   C4A59034  30.939  30.960   7.500
 4659POPC   C1B59035  30.750  31.811   6.248
 4659POPC   C2B59036  30.880  31.758   6.663
 4659POPC   C3B59037  30.705  31.680   7.055
 4659POPC   C4B59038  30.736  31.915   7.442
 4660POPC   NC359039  22.468  34.478   5.352
 4660POPC   PO459040  21.896  34.743   5.259
 4660POPC   GL159041  22.118  34.671   5.665
 4660POPC   GL259042  21.911  34.407   5.834
 4660POPC   C1A59043  22.261  34.655   6.104
 4660POPC   D2A59044  22.084  34.646   6.505
 4660POPC   C3A59045  22.327  34.559   6.859
 4660POPC   C4A59046  22.150  34.640   7.265
 4660POPC   C1B59047  21.725  34.304   6.275
 4660POPC   C2B59048  21.725  34.300   6.748
 4660POPC   C3B59049  21.984  34.179   7.100
 4660POPC   C4B59050  22.411  34.193   7.198
 4661POPC   NC359051  26.761  37.086   5.353
 4661POPC   PO459052  26.332  36.477   5.347
 4661POPC   GL159053  26.556  36.686   5.756
 4661POPC   GL259054  26.901  36.805   5.768
 4661POPC   C1A59055  26.695  36.842   6.232
 4661POPC   D2A59056  26.615  37.042   6.653
 4661POPC   C3A59057  26.699  36.742   6.945
 4661POPC   C4A59058  26.860  36.821   7.320
 4661POPC   C1B59059  27.080  37.132   6.087
 4661POPC   C2B59060  27.045  37.338   6.508
 4661POPC   C3B59061  27.058  37.180   6.933
 4661POPC   C4B59062  26.972  37.304   7.328
 4662POPC   NC359063  16.394  21.167   5.371
 4662POPC   PO459064  16.894  21.632   5.499
 4662POPC   GL159065  16.684  21.584   5.917
 4662POPC   GL259066  16.488  21.269   5.926
 4662POPC   C1A59067  16.719  21.752   6.337
 4662POPC   D2A59068  17.050  21.552   6.600
 4662POPC   C3A59069  16.839  21.317   6.892
 4662POPC   C4A59070  16.496  21.606   7.010
 4662POPC   C1B59071  16.526  21.300   6.422
 4662POPC   C2B59072  16.216  21.242   6.738
 4662POPC   C3B59073  16.171  20.989   7.058
 4662POPC   C4B59074  16.527  21.158   7.269
 4663POPC   NC359075   0.178  40.575   5.554
 4663POPC   PO459076   0.509  40.031   5.189
 4663POPC   GL159077   0.454  40.099   5.677
 4663POPC   GL259078   0.354  39.796   5.904
 4663POPC   C1A59079   0.560  40.188   6.141
 4663POPC   D2A59080   0.628  40.017   6.584
 4663POPC   C3A59081   0.588  40.236   6.986
 4663POPC   C4A59082   0.506  40.209   7.442
 4663POPC   C1B59083   0.171  39.810   6.318
 4663POPC   C2B59084   0.268  39.682   6.755
 4663POPC   C3B59085   0.433  39.780   7.165
 4663POPC   C4B59086   0.230  39.822   7.588
 4664POPC   NC359087  21.382  20.259   5.639
 4664POPC   PO459088  21.370  19.635   5.345
 4664POPC   GL159089  21.485  19.769   5.743
 4664POPC   GL259090  21.191  19.686   5.855
 4664POPC   C1A59091  21.467  19.903   6.216
 4664POPC   D2A59092  21.318  19.781   6.629
 4664POPC   C3A59093  21.321  20.008   6.987
 4664POPC   C4A59094  21.359  19.962   7.372
 4664POPC   C1B59095  21.159  19.451   6.260
 4664POPC   C2B59096  20.986  19.386   6.699
 4664POPC   C3B59097  21.087  19.570   7.123
 4664POPC   C4B59098  21.013  19.649   7.579
 4665POPC   NC359099  42.793   5.103   5.405
 4665POPC   PO459100  42.309   4.683   5.184
 4665POPC   GL159101  42.496   4.745   5.629
 4665POPC   GL259102  42.369   5.100   5.699
 4665POPC   C1A59103  42.516   4.827   6.115
 4665POPC   D2A59104  42.466   4.797   6.608
 4665POPC   C3A59105  42.134   4.890   6.948
 4665POPC   C4A59106  41.915   5.203   7.189
 4665POPC   C1B59107  42.410   5.365   6.053
 4665POPC   C2B59108  42.613   5.273   6.453
 4665POPC   C3B59109  42.460   5.278   6.848
 4665POPC   C4B59110  42.450   5.253   7.246
 4666POPC   NC359111  32.426  14.211   5.272
 4666POPC   PO459112  32.590  14.771   5.221
 4666POPC   GL159113  32.431  14.547   5.655
 4666POPC   GL259114  32.186  14.237   5.735
 4666POPC   C1A59115  32.374  14.555   6.126
 4666POPC   D2A59116  32.055  14.645   6.454
 4666POPC   C3A59117  32.102  14.577   6.897
 4666POPC   C4A59118  32.103  14.419   7.324
 4666POPC   C1B59119  32.007  14.209   6.194
 4666POPC   C2B59120  32.163  14.121   6.632
 4666POPC   C3B59121  32.081  13.981   7.081
 4666POPC   C4B59122  32.110  13.953   7.563
 4667POPC   NC359123  26.008  13.240   5.434
 4667POPC   PO459124  26.223  12.640   5.443
 4667POPC   GL159125  25.993  12.728   5.842
 4667POPC   GL259126  26.007  13.102   5.929
 4667POPC   C1A59127  26.138  12.755   6.283
 4667POPC   D2A59128  26.038  12.974   6.650
 4667POPC   C3A59129  26.237  12.771   6.951
 4667POPC   C4A59130  26.173  12.810   7.357
 4667POPC   C1B59131  26.266  13.269   6.289
 4667POPC   C2B59132  26.279  13.415   6.729
 4667POPC   C3B59133  26.081  13.269   7.111
 4667POPC   C4B59134  26.189  13.330   7.548
 4668POPC   NC359135  41.500  14.357   5.430
 4668POPC   PO459136  41.625  14.993   5.332
 4668POPC   GL159137  41.596  14.783   5.726
 4668POPC   GL259138  41.269  14.660   5.768
 4668POPC   C1A59139  41.633  14.599   6.135
 4668POPC   D2A59140  41.557  14.749   6.508
 4668POPC   C3A59141  41.603  14.526   6.864
 4668POPC   C4A59142  41.570  14.667   7.247
 4668POPC   C1B59143  41.171  14.455   6.206
 4668POPC   C2B59144  41.135  14.529   6.637
 4668POPC   C3B59145  41.028  14.584   7.047
 4668POPC   C4B59146  41.172  14.381   7.412
 4669POPC   NC359147   6.469  21.022   5.150
 4669POPC   PO459148   6.626  21.555   5.450
 4669POPC   GL159149   6.941  21.374   5.778
 4669POPC   GL259150   6.871  21.044   5.861
 4669POPC   C1A59151   6.822  21.382   6.251
 4669POPC   D2A59152   6.623  21.286   6.683
 4669POPC   C3A59153   6.502  21.557   7.067
 4669POPC   C4A59154   6.265  21.485   7.471
 4669POPC   C1B59155   7.176  21.008   6.209
 4669POPC   C2B59156   7.117  21.162   6.653
 4669POPC   C3B59157   6.992  21.382   7.049
 4669POPC   C4B59158   7.131  21.259   7.457
 4670POPC   NC359159  41.951   8.945   5.344
 4670POPC   PO459160  41.415   9.182   5.505
 4670POPC   GL159161  41.461   8.844   5.825
 4670POPC   GL259162  41.834   8.712   5.825
 4670POPC   C1A59163  41.524   8.890   6.279
 4670POPC   D2A59164  41.822   9.145   6.539
 4670POPC   C3A59165  41.684   9.224   6.941
 4670POPC   C4A59166  41.468   9.207   7.331
 4670POPC   C1B59167  42.015   8.777   6.209
 4670POPC   C2B59168  42.104   8.717   6.624
 4670POPC   C3B59169  41.919   8.777   6.998
 4670POPC   C4B59170  41.520   8.725   7.226
 4671POPC   NC359171  20.803  23.993   5.643
 4671POPC   PO459172  21.417  23.798   5.457
 4671POPC   GL159173  21.176  23.688   5.825
 4671POPC   GL259174  20.930  23.422   5.793
 4671POPC   C1A59175  21.165  23.891   6.223
 4671POPC   D2A59176  21.441  23.785   6.532
 4671POPC   C3A59177  21.456  23.983   6.897
 4671POPC   C4A59178  21.397  23.655   7.179
 4671POPC   C1B59179  21.138  23.340   6.233
 4671POPC   C2B59180  21.102  23.213   6.697
 4671POPC   C3B59181  20.774  23.370   7.002
 4671POPC   C4B59182  20.940  23.536   7.361
 4672POPC   NC359183   2.650   1.571   5.188
 4672POPC   PO459184   2.815   2.239   5.379
 4672POPC   GL159185   2.752   2.182   5.842
 4672POPC   GL259186   2.521   2.440   5.901
 4672POPC   C1A59187   2.839   1.947   6.270
 4672POPC   D2A59188   2.914   1.663   6.638
 4672POPC   C3A59189   2.950   1.709   7.083
 4672POPC   C4A59190   3.065   1.401   7.447
 4672POPC   C1B59191   2.583   2.374   6.325
 4672POPC   C2B59192   2.663   2.244   6.723
 4672POPC   C3B59193   2.751   2.181   7.124
 4672POPC   C4B59194   3.010   2.420   7.379
 4673POPC   NC359195  39.541  18.927   5.055
 4673POPC   PO459196  39.468  18.464   5.517
 4673POPC   GL159197  39.461  18.201   5.884
 4673POPC   GL259198  39.169  18.059   5.823
 4673POPC   C1A59199  39.429  18.333   6.302
 4673POPC   D2A59200  39.257  18.219   6.686
 4673POPC   C3A59201  39.471  18.355   7.048
 4673POPC   C4A59202  39.343  18.483   7.437
 4673POPC   C1B59203  38.884  17.843   6.081
 4673POPC   C2B59204  38.840  17.954   6.501
 4673POPC   C3B59205  38.968  17.876   6.924
 4673POPC   C4B59206  38.988  18.092   7.324
 4674POPC   NC359207  38.146   1.386   5.101
 4674POPC   PO459208  38.536   0.986   5.523
 4674POPC   GL159209  38.478   1.246   5.913
 4674POPC   GL259210  38.362   1.559   5.835
 4674POPC   C1A59211  38.524   1.211   6.345
 4674POPC   D2A59212  38.729   0.905   6.585
 4674POPC   C3A59213  38.564   1.021   6.931
 4674POPC   C4A59214  38.254   1.091   7.157
 4674POPC   C1B59215  38.190   1.587   6.253
 4674POPC   C2B59216  38.267   1.468   6.723
 4674POPC   C3B59217  38.005   1.530   7.118
 4674POPC   C4B59218  38.037   1.414   7.544
 4675POPC   NC359219  44.289  40.942   5.459
 4675POPC   PO459220  44.854  40.566   5.226
 4675POPC   GL159221  44.700  40.705   5.652
 4675POPC   GL259222  44.787  41.055   5.603
 4675POPC   C1A59223  44.660  40.645   6.135
 4675POPC   D2A59224  44.713  40.472   6.574
 4675POPC   C3A59225  44.491  40.547   6.966
 4675POPC   C4A59226  44.558  40.281   7.343
 4675POPC   C1B59227  44.978  41.021   6.001
 4675POPC   C2B59228   0.007  40.927   6.468
 4675POPC   C3B59229   0.003  40.993   6.937
 4675POPC   C4B59230  44.843  40.721   7.285
 4676POPC   NC359231  36.007  44.884   5.468
 4676POPC   PO459232  36.417  44.359   5.372
 4676POPC   GL159233  36.345  44.562   5.822
 4676POPC   GL259234  36.418  44.923   5.768
 4676POPC   C1A59235  36.115  44.414   6.275
 4676POPC   D2A59236  35.988  44.312   6.745
 4676POPC   C3A59237  36.012  44.570   7.143
 4676POPC   C4A59238  36.209  44.452   7.520
 4676POPC   C1B59239  36.253  44.895   6.210
 4676POPC   C2B59240  36.224  44.779   6.661
 4676POPC   C3B59241  36.482  44.687   7.026
 4676POPC   C4B59242  36.432  44.927   7.405
 4677POPC   NC359243   1.762   5.556   5.470
 4677POPC   PO459244   2.188   6.115   5.512
 4677POPC   GL159245   2.103   6.035   5.921
 4677POPC   GL259246   2.009   5.700   5.889
 4677POPC   C1A59247   2.223   5.889   6.335
 4677POPC   D2A59248   2.056   5.862   6.738
 4677POPC   C3A59249   2.308   5.945   7.058
 4677POPC   C4A59250   2.023   5.726   7.288
 4677POPC   C1B59251   1.717   5.585   6.187
 4677POPC   C2B59252   1.580   5.728   6.584
 4677POPC   C3B59253   1.668   5.533   6.958
 4677POPC   C4B59254   1.547   5.563   7.377
 4678POPC   NC359255   4.720  34.086   5.397
 4678POPC   PO459256   5.234  33.676   5.436
 4678POPC   GL159257   5.107  33.950   5.784
 4678POPC   GL259258   5.404  34.045   5.970
 4678POPC   C1A59259   4.956  33.855   6.222
 4678POPC   D2A59260   5.107  33.508   6.512
 4678POPC   C3A59261   5.035  33.518   6.951
 4678POPC   C4A59262   4.906  33.864   7.201
 4678POPC   C1B59263   5.376  34.100   6.383
 4678POPC   C2B59264   5.107  34.017   6.723
 4678POPC   C3B59265   5.371  33.924   7.048
 4678POPC   C4B59266   5.506  34.028   7.416
 4679POPC   NC359267  10.029  13.382   5.421
 4679POPC   PO459268   9.697  12.756   5.230
 4679POPC   GL159269   9.728  12.998   5.604
 4679POPC   GL259270   9.564  12.745   5.798
 4679POPC   C1A59271   9.857  13.119   6.036
 4679POPC   D2A59272   9.673  12.995   6.430
 4679POPC   C3A59273   9.733  13.034   6.873
 4679POPC   C4A59274   9.768  12.790   7.252
 4679POPC   C1B59275   9.292  12.747   6.158
 4679POPC   C2B59276   9.337  12.644   6.587
 4679POPC   C3B59277   9.324  12.722   7.010
 4679POPC   C4B59278   9.362  12.508   7.392
 4680POPC   NC359279  36.613  24.738   5.430
 4680POPC   PO459280  35.960  24.351   5.401
 4680POPC   GL159281  36.239  24.458   5.752
 4680POPC   GL259282  36.030  24.646   5.930
 4680POPC   C1A59283  36.350  24.461   6.242
 4680POPC   D2A59284  36.085  24.405   6.623
 4680POPC   C3A59285  36.291  24.407   7.033
 4680POPC   C4A59286  36.413  24.425   7.484
 4680POPC   C1B59287  35.670  24.683   6.199
 4680POPC   C2B59288  35.646  24.675   6.652
 4680POPC   C3B59289  35.971  24.811   6.967
 4680POPC   C4B59290  36.036  24.771   7.423
 4681POPC   NC359291   4.530  10.675   5.627
 4681POPC   PO459292   4.026  10.242   5.496
 4681POPC   GL159293   4.184  10.329   5.892
 4681POPC   GL259294   4.077  10.659   5.886
 4681POPC   C1A59295   4.434  10.428   6.256
 4681POPC   D2A59296   4.283  10.540   6.655
 4681POPC   C3A59297   4.402  10.393   7.020
 4681POPC   C4A59298   4.067  10.376   7.283
 4681POPC   C1B59299   3.928  10.613   6.292
 4681POPC   C2B59300   3.920  10.897   6.662
 4681POPC   C3B59301   3.922  10.838   7.118
 4681POPC   C4B59302   3.831  10.780   7.562
 4682POPC   NC359303  11.281  43.250   5.353
 4682POPC   PO459304  11.756  42.817   5.492
 4682POPC   GL159305  11.498  43.093   5.835
 4682POPC   GL259306  11.136  43.212   5.855
 4682POPC   C1A59307  11.401  43.150   6.292
 4682POPC   D2A59308  11.603  43.050   6.640
 4682POPC   C3A59309  11.437  42.850   6.983
 4682POPC   C4A59310  11.262  43.144   7.238
 4682POPC   C1B59311  11.112  43.546   6.188
 4682POPC   C2B59312  11.260  43.539   6.625
 4682POPC   C3B59313  11.019  43.560   7.022
 4682POPC   C4B59314  11.023  43.538   7.488
 4683POPC   NC359315  31.111  21.456   5.288
 4683POPC   PO459316  30.450  21.088   5.404
 4683POPC   GL159317  30.750  21.212   5.708
 4683POPC   GL259318  30.714  21.549   5.860
 4683POPC   C1A59319  30.850  21.149   6.143
 4683POPC   D2A59320  30.780  21.419   6.492
 4683POPC   C3A59321  30.788  21.161   6.817
 4683POPC   C4A59322  30.737  21.229   7.242
 4683POPC   C1B59323  30.405  21.416   6.142
 4683POPC   C2B59324  30.265  21.553   6.544
 4683POPC   C3B59325  30.410  21.487   6.929
 4683POPC   C4B59326  30.304  21.505   7.335
 4684POPC   NC359327  11.757  27.567   5.467
 4684POPC   PO459328  12.374  27.838   5.153
 4684POPC   GL159329  12.165  27.840   5.639
 4684POPC   GL259330  12.212  27.487   5.798
 4684POPC   C1A59331  12.193  27.848   6.151
 4684POPC   D2A59332  11.996  27.644   6.539
 4684POPC   C3A59333  11.997  27.855   6.955
 4684POPC   C4A59334  11.997  27.653   7.366
 4684POPC   C1B59335  12.273  27.242   6.199
 4684POPC   C2B59336  12.212  27.167   6.662
 4684POPC   C3B59337  12.330  27.455   6.987
 4684POPC   C4B59338  12.480  27.417   7.387
 4685POPC   NC359339  26.211  21.579   5.445
 4685POPC   PO459340  26.060  22.251   5.458
 4685POPC   GL159341  26.066  22.154   5.868
 4685POPC   GL259342  26.306  21.905   5.840
 4685POPC   C1A59343  26.035  22.428   6.237
 4685POPC   D2A59344  26.278  22.524   6.601
 4685POPC   C3A59345  26.037  22.368   6.936
 4685POPC   C4A59346  25.788  22.029   7.092
 4685POPC   C1B59347  26.378  22.017   6.263
 4685POPC   C2B59348  26.069  22.012   6.549
 4685POPC   C3B59349  26.106  21.735   6.842
 4685POPC   C4B59350  26.239  21.775   7.234
 4686POPC   NC359351  25.656  44.813   5.644
 4686POPC   PO459352  26.190  44.408   5.376
 4686POPC   GL159353  26.156  44.501   5.784
 4686POPC   GL259354  25.874  44.316   5.867
 4686POPC   C1A59355  26.227  44.870   6.022
 4686POPC   D2A59356  26.127  44.964   6.442
 4686POPC   C3A59357  26.329  44.981   6.837
 4686POPC   C4A59358  26.062  44.902   7.210
 4686POPC   C1B59359  25.950  44.493   6.288
 4686POPC   C2B59360  25.960  44.589   6.748
 4686POPC   C3B59361  25.976  44.408   7.135
 4686POPC   C4B59362  25.712  44.374   7.500
 4687POPC   NC359363  19.479  34.833   5.387
 4687POPC   PO459364  20.185  34.713   5.465
 4687POPC   GL159365  19.848  34.779   5.746
 4687POPC   GL259366  20.023  35.006   5.895
 4687POPC   C1A59367  19.669  34.702   6.161
 4687POPC   D2A59368  19.542  34.495   6.562
 4687POPC   C3A59369  19.674  34.637   6.931
 4687POPC   C4A59370  19.759  34.322   7.187
 4687POPC   C1B59371  20.199  34.768   6.203
 4687POPC   C2B59372  20.045  34.646   6.591
 4687POPC   C3B59373  20.177  34.587   7.037
 4687POPC   C4B59374  19.934  34.808   7.339
 4688POPC   NC359375   6.554  17.197   5.433
 4688POPC   PO459376   6.334  16.574   5.407
 4688POPC   GL159377   6.656  16.621   5.751
 4688POPC   GL259378   6.611  16.947   5.884
 4688POPC   C1A59379   6.681  16.548   6.210
 4688POPC   D2A59380   6.582  16.852   6.538
 4688POPC   C3A59381   6.734  16.785   6.959
 4688POPC   C4A59382   6.667  16.403   7.175
 4688POPC   C1B59383   6.283  17.128   6.165
 4688POPC   C2B59384   6.125  17.104   6.590
 4688POPC   C3B59385   6.214  16.844   6.928
 4688POPC   C4B59386   6.381  16.788   7.348
 4689POPC   NC359387  25.896  31.639   5.466
 4689POPC   PO459388  25.919  31.000   5.399
 4689POPC   GL159389  26.091  31.226   5.780
 4689POPC   GL259390  25.804  31.358   5.862
 4689POPC   C1A59391  26.211  31.356   6.219
 4689POPC   D2A59392  26.371  31.474   6.671
 4689POPC   C3A59393  26.303  31.291   7.112
 4689POPC   C4A59394  25.949  31.183   7.387
 4689POPC   C1B59395  25.791  31.623   6.202
 4689POPC   C2B59396  25.688  31.507   6.605
 4689POPC   C3B59397  25.869  31.495   6.979
 4689POPC   C4B59398  26.134  31.756   7.238
 4690POPC   NC359399  32.109  21.452   5.357
 4690POPC   PO459400  32.681  21.147   5.323
 4690POPC   GL159401  32.407  21.240   5.739
 4690POPC   GL259402  32.125  21.098   5.953
 4690POPC   C1A59403  32.316  21.544   6.138
 4690POPC   D2A59404  32.440  21.760   6.566
 4690POPC   C3A59405  32.266  21.642   7.004
 4690POPC   C4A59406  32.269  21.685   7.496
 4690POPC   C1B59407  32.117  21.116   6.407
 4690POPC   C2B59408  32.038  21.181   6.856
 4690POPC   C3B59409  32.164  21.199   7.300
 4690POPC   C4B59410  32.071  21.100   7.763
 4691POPC   NC359411  33.116   7.373   5.142
 4691POPC   PO459412  32.686   7.475   5.688
 4691POPC   GL159413  32.936   7.325   6.009
 4691POPC   GL259414  33.265   7.499   6.131
 4691POPC   C1A59415  32.884   7.304   6.437
 4691POPC   D2A59416  33.083   7.592   6.693
 4691POPC   C3A59417  33.182   7.375   7.022
 4691POPC   C4A59418  33.359   7.472   7.388
 4691POPC   C1B59419  32.935   7.795   6.246
 4691POPC   C2B59420  32.595   7.740   6.525
 4691POPC   C3B59421  32.693   7.843   6.928
 4691POPC   C4B59422  32.904   7.690   7.280
 4692POPC   NC359423  20.378   9.535   5.542
 4692POPC   PO459424  20.930   9.892   5.349
 4692POPC   GL159425  20.716  10.054   5.730
 4692POPC   GL259426  20.707   9.765   5.889
 4692POPC   C1A59427  20.703  10.125   6.212
 4692POPC   D2A59428  20.717   9.858   6.554
 4692POPC   C3A59429  20.594  10.038   6.938
 4692POPC   C4A59430  20.390   9.688   7.121
 4692POPC   C1B59431  20.419   9.605   6.200
 4692POPC   C2B59432  20.242   9.498   6.595
 4692POPC   C3B59433  20.289   9.206   6.942
 4692POPC   C4B59434  20.375   9.257   7.385
 4693POPC   NC359435  16.808  34.868   5.486
 4693POPC   PO459436  16.713  34.225   5.606
 4693POPC   GL159437  16.748  34.541   5.884
 4693POPC   GL259438  17.066  34.707   5.900
 4693POPC   C1A59439  16.546  34.573   6.256
 4693POPC   D2A59440  16.383  34.366   6.620
 4693POPC   C3A59441  16.559  34.479   7.018
 4693POPC   C4A59442  16.489  34.292   7.430
 4693POPC   C1B59443  16.895  34.944   6.227
 4693POPC   C2B59444  16.741  34.839   6.649
 4693POPC   C3B59445  16.922  34.850   7.063
 4693POPC   C4B59446  16.914  34.567   7.404
 4694POPC   NC359447  11.415  15.035   5.266
 4694POPC   PO459448  11.057  15.637   5.440
 4694POPC   GL159449  11.161  15.312   5.739
 4694POPC   GL259450  10.878  15.049   5.787
 4694POPC   C1A59451  11.240  15.195   6.186
 4694POPC   D2A59452  11.183  15.060   6.622
 4694POPC   C3A59453  11.471  15.050   6.984
 4694POPC   C4A59454  11.570  15.362   7.300
 4694POPC   C1B59455  10.712  15.036   6.250
 4694POPC   C2B59456  10.690  15.040   6.730
 4694POPC   C3B59457  10.938  15.030   7.079
 4694POPC   C4B59458  10.844  14.754   7.338
 4695POPC   NC359459  44.419  34.119   5.316
 4695POPC   PO459460  44.593  33.461   5.522
 4695POPC   GL159461  44.738  33.630   5.897
 4695POPC   GL259462  44.816  33.941   5.860
 4695POPC   C1A59463  44.571  33.693   6.328
 4695POPC   D2A59464  44.598  33.469   6.705
 4695POPC   C3A59465  44.408  33.588   7.103
 4695POPC   C4A59466  44.330  33.941   7.377
 4695POPC   C1B59467  44.908  34.074   6.289
 4695POPC   C2B59468  44.848  33.931   6.740
 4695POPC   C3B59469  44.859  34.081   7.162
 4695POPC   C4B59470  44.734  34.213   7.560
 4696POPC   NC359471  21.806  23.532   5.510
 4696POPC   PO459472  22.424  23.817   5.436
 4696POPC   GL159473  22.197  23.725   5.824
 4696POPC   GL259474  21.869  23.947   5.801
 4696POPC   C1A59475  22.338  23.536   6.257
 4696POPC   D2A59476  22.619  23.460   6.653
 4696POPC   C3A59477  22.518  23.698   7.033
 4696POPC   C4A59478  22.268  23.698   7.411
 4696POPC   C1B59479  21.843  23.703   6.203
 4696POPC   C2B59480  21.965  23.602   6.638
 4696POPC   C3B59481  21.896  23.729   7.074
 4696POPC   C4B59482  21.774  23.661   7.552
 4697POPC   NC359483  12.269   7.121   5.231
 4697POPC   PO459484  11.922   6.643   5.402
 4697POPC   GL159485  12.043   6.857   5.787
 4697POPC   GL259486  12.391   7.023   5.728
 4697POPC   C1A59487  11.945   6.711   6.248
 4697POPC   D2A59488  11.859   6.823   6.693
 4697POPC   C3A59489  11.776   6.610   7.097
 4697POPC   C4A59490  12.008   6.695   7.495
 4697POPC   C1B59491  12.409   6.914   6.170
 4697POPC   C2B59492  12.359   6.779   6.604
 4697POPC   C3B59493  12.264   6.788   7.040
 4697POPC   C4B59494  12.360   7.081   7.339
 4698POPC   NC359495  19.577  27.990   5.531
 4698POPC   PO459496  20.048  27.507   5.357
 4698POPC   GL159497  19.810  27.587   5.694
 4698POPC   GL259498  19.590  27.339   5.745
 4698POPC   C1A59499  19.786  27.635   6.115
 4698POPC   D2A59500  20.044  27.421   6.400
 4698POPC   C3A59501  19.946  27.537   6.793
 4698POPC   C4A59502  19.900  27.509   7.211
 4698POPC   C1B59503  19.360  27.348   6.139
 4698POPC   C2B59504  19.473  27.463   6.574
 4698POPC   C3B59505  19.441  27.622   7.036
 4698POPC   C4B59506  19.498  27.388   7.483
 4699POPC   NC359507  36.141  27.894   5.417
 4699POPC   PO459508  36.316  27.210   5.519
 4699POPC   GL159509  36.132  27.556   5.843
 4699POPC   GL259510  36.023  27.938   5.886
 4699POPC   C1A59511  36.188  27.657   6.305
 4699POPC   D2A59512  35.970  27.486   6.685
 4699POPC   C3A59513  36.290  27.408   7.003
 4699POPC   C4A59514  36.360  27.594   7.408
 4699POPC   C1B59515  36.059  28.147   6.215
 4699POPC   C2B59516  35.843  28.058   6.526
 4699POPC   C3B59517  35.944  27.976   6.886
 4699POPC   C4B59518  35.918  27.708   7.176
 4700POPC   NC359519  14.260  34.476   5.604
 4700POPC   PO459520  14.529  34.936   5.255
 4700POPC   GL159521  14.650  34.807   5.738
 4700POPC   GL259522  14.657  34.433   5.879
 4700POPC   C1A59523  14.469  34.829   6.192
 4700POPC   D2A59524  14.252  34.597   6.541
 4700POPC   C3A59525  14.195  34.774   6.959
 4700POPC   C4A59526  14.121  34.512   7.344
 4700POPC   C1B59527  14.597  34.250   6.272
 4700POPC   C2B59528  14.758  34.445   6.604
 4700POPC   C3B59529  14.730  34.758   6.865
 4700POPC   C4B59530  14.591  34.667   7.251
 4701POPC   NC359531  23.123  22.008   5.373
 4701POPC   PO459532  22.490  21.805   5.517
 4701POPC   GL159533  22.822  22.055   5.776
 4701POPC   GL259534  23.106  22.297   5.803
 4701POPC   C1A59535  23.063  21.962   6.173
 4701POPC   D2A59536  23.101  22.170   6.576
 4701POPC   C3A59537  23.037  21.938   6.961
 4701POPC   C4A59538  22.838  21.894   7.305
 4701POPC   C1B59539  22.771  22.385   6.150
 4701POPC   C2B59540  22.721  22.539   6.559
 4701POPC   C3B59541  22.820  22.402   6.983
 4701POPC   C4B59542  22.622  22.359   7.348
 4702POPC   NC359543  18.892  21.668   5.594
 4702POPC   PO459544  19.091  22.181   5.111
 4702POPC   GL159545  19.099  22.152   5.611
 4702POPC   GL259546  19.404  22.334   5.645
 4702POPC   C1A59547  19.150  22.102   6.097
 4702POPC   D2A59548  19.009  22.164   6.564
 4702POPC   C3A59549  18.924  21.966   6.985
 4702POPC   C4A59550  18.878  22.024   7.445
 4702POPC   C1B59551  19.562  22.446   6.030
 4702POPC   C2B59552  19.479  22.403   6.474
 4702POPC   C3B59553  19.439  22.525   6.902
 4702POPC   C4B59554  19.264  22.278   7.247
 4703POPC   NC359555  29.943  19.264   5.652
 4703POPC   PO459556  29.997  18.643   5.664
 4703POPC   GL159557  29.686  18.819   5.911
 4703POPC   GL259558  29.995  18.923   6.086
 4703POPC   C1A59559  29.583  18.926   6.353
 4703POPC   D2A59560  29.921  18.815   6.681
 4703POPC   C3A59561  29.765  18.907   7.088
 4703POPC   C4A59562  29.561  19.292   7.186
 4703POPC   C1B59563  30.011  19.246   6.400
 4703POPC   C2B59564  30.078  19.286   6.875
 4703POPC   C3B59565  30.278  18.951   7.144
 4703POPC   C4B59566  30.113  18.767   7.548
 4704POPC   NC359567  37.320   5.781   5.496
 4704POPC   PO459568  37.950   6.099   5.498
 4704POPC   GL159569  37.860   5.925   5.880
 4704POPC   GL259570  37.530   5.728   5.949
 4704POPC   C1A59571  37.797   5.991   6.295
 4704POPC   D2A59572  37.592   5.722   6.506
 4704POPC   C3A59573  37.649   5.943   6.867
 4704POPC   C4A59574  37.887   5.896   7.220
 4704POPC   C1B59575  37.322   6.113   6.155
 4704POPC   C2B59576  37.235   6.389   6.499
 4704POPC   C3B59577  37.294   6.293   6.910
 4704POPC   C4B59578  37.585   6.358   7.204
 4705POPC   NC359579  12.199  42.717   5.552
 4705POPC   PO459580  12.026  42.076   5.346
 4705POPC   GL159581  11.832  42.275   5.848
 4705POPC   GL259582  11.925  42.642   5.951
 4705POPC   C1A59583  11.961  42.261   6.301
 4705POPC   D2A59584  12.333  42.185   6.561
 4705POPC   C3A59585  12.158  42.128   6.943
 4705POPC   C4A59586  12.184  42.229   7.344
 4705POPC   C1B59587  11.656  42.709   6.249
 4705POPC   C2B59588  11.687  42.536   6.650
 4705POPC   C3B59589  11.922  42.586   7.017
 4705POPC   C4B59590  11.755  42.529   7.418
 4706POPC   NC359591  27.860  18.468   5.442
 4706POPC   PO459592  27.326  18.050   5.252
 4706POPC   GL159593  27.431  18.271   5.682
 4706POPC   GL259594  27.131  18.255   5.892
 4706POPC   C1A59595  27.587  18.375   6.169
 4706POPC   D2A59596  27.738  18.165   6.603
 4706POPC   C3A59597  27.882  18.316   6.998
 4706POPC   C4A59598  27.725  18.192   7.415
 4706POPC   C1B59599  27.123  18.298   6.355
 4706POPC   C2B59600  27.383  18.506   6.656
 4706POPC   C3B59601  27.332  18.270   7.031
 4706POPC   C4B59602  27.197  17.988   7.399
 4707POPC   NC359603  10.404  36.175   5.188
 4707POPC   PO459604  10.641  36.740   5.532
 4707POPC   GL159605  10.538  36.362   5.776
 4707POPC   GL259606  10.545  36.033   5.669
 4707POPC   C1A59607  10.439  36.272   6.204
 4707POPC   D2A59608  10.570  36.373   6.633
 4707POPC   C3A59609  10.302  36.491   7.003
 4707POPC   C4A59610  10.484  36.303   7.376
 4707POPC   C1B59611  10.492  35.781   6.067
 4707POPC   C2B59612  10.552  35.855   6.518
 4707POPC   C3B59613  10.390  35.981   6.916
 4707POPC   C4B59614  10.515  35.755   7.253
 4708POPC   NC359615  28.956  39.527   5.575
 4708POPC   PO459616  29.346  39.002   5.311
 4708POPC   GL159617  29.341  39.168   5.717
 4708POPC   GL259618  29.006  39.098   5.859
 4708POPC   C1A59619  29.422  39.391   6.099
 4708POPC   D2A59620  29.236  39.383   6.489
 4708POPC   C3A59621  29.351  39.355   6.944
 4708POPC   C4A59622  29.137  39.489   7.349
 4708POPC   C1B59623  28.948  38.981   6.287
 4708POPC   C2B59624  28.911  39.028   6.726
 4708POPC   C3B59625  28.817  39.004   7.158
 4708POPC   C4B59626  28.853  38.641   7.412
 4709POPC   NC359627  30.663  11.009   5.299
 4709POPC   PO459628  30.960  11.651   5.415
 4709POPC   GL159629  30.807  11.352   5.710
 4709POPC   GL259630  30.995  11.049   5.680
 4709POPC   C1A59631  30.596  11.436   6.108
 4709POPC   D2A59632  30.437  11.241   6.457
 4709POPC   C3A59633  30.570  11.449   6.834
 4709POPC   C4A59634  30.723  11.469   7.235
 4709POPC   C1B59635  30.704  10.950   6.023
 4709POPC   C2B59636  30.817  10.848   6.450
 4709POPC   C3B59637  30.753  10.961   6.872
 4709POPC   C4B59638  30.994  10.954   7.260
 4710POPC   NC359639  30.326  17.372   5.415
 4710POPC   PO459640  29.705  17.676   5.309
 4710POPC   GL159641  29.807  17.514   5.732
 4710POPC   GL259642  30.129  17.675   5.822
 4710POPC   C1A59643  29.840  17.378   6.181
 4710POPC   D2A59644  29.942  17.221   6.609
 4710POPC   C3A59645  29.662  17.224   6.973
 4710POPC   C4A59646  29.696  17.494   7.329
 4710POPC   C1B59647  29.881  17.874   6.181
 4710POPC   C2B59648  30.019  17.800   6.572
 4710POPC   C3B59649  29.975  17.926   6.971
 4710POPC   C4B59650  30.231  17.791   7.281
 4711POPC   NC359651  31.474  11.511   5.393
 4711POPC   PO459652  31.434  10.833   5.517
 4711POPC   GL159653  31.520  11.195   5.819
 4711POPC   GL259654  31.284  11.463   5.846
 4711POPC   C1A59655  31.542  11.360   6.272
 4711POPC   D2A59656  31.428  11.107   6.607
 4711POPC   C3A59657  31.599  11.162   7.031
 4711POPC   C4A59658  31.723  11.464   7.334
 4711POPC   C1B59659  31.079  11.244   6.150
 4711POPC   C2B59660  30.955  11.357   6.521
 4711POPC   C3B59661  31.099  11.334   6.924
 4711POPC   C4B59662  31.208  11.412   7.340
 4712POPC   NC359663  25.544  20.141   5.433
 4712POPC   PO459664  26.095  20.509   5.195
 4712POPC   GL159665  26.079  20.513   5.657
 4712POPC   GL259666  26.372  20.276   5.697
 4712POPC   C1A59667  25.946  20.549   6.099
 4712POPC   D2A59668  25.700  20.581   6.498
 4712POPC   C3A59669  25.955  20.713   6.829
 4712POPC   C4A59670  25.917  20.913   7.204
 4712POPC   C1B59671  26.370  20.226   6.147
 4712POPC   C2B59672  26.158  20.338   6.511
 4712POPC   C3B59673  26.190  20.244   6.907
 4712POPC   C4B59674  26.014  20.426   7.255
 4713POPC   NC359675  29.720   0.104   5.533
 4713POPC   PO459676  30.155   0.649   5.420
 4713POPC   GL159677  29.917   0.747   5.800
 4713POPC   GL259678  29.643   0.539   5.810
 4713POPC   C1A59679  29.937   0.689   6.240
 4713POPC   D2A59680  30.242   0.719   6.584
 4713POPC   C3A59681  30.237   0.399   6.873
 4713POPC   C4A59682  30.154   0.327   7.303
 4713POPC   C1B59683  29.712   0.234   6.154
 4713POPC   C2B59684  29.737   0.311   6.579
 4713POPC   C3B59685  29.774   0.204   6.973
 4713POPC   C4B59686  29.807   0.629   7.070
 4714POPC   NC359687  24.933  36.923   5.463
 4714POPC   PO459688  25.476  36.895   5.132
 4714POPC   GL159689  25.443  36.868   5.615
 4714POPC   GL259690  25.259  37.154   5.803
 4714POPC   C1A59691  25.309  36.699   6.044
 4714POPC   D2A59692  25.033  36.810   6.404
 4714POPC   C3A59693  25.247  36.772   6.799
 4714POPC   C4A59694  25.328  36.918   7.220
 4714POPC   C1B59695  25.377  37.183   6.268
 4714POPC   C2B59696  25.239  37.270   6.682
 4714POPC   C3B59697  24.926  37.158   6.993
 4714POPC   C4B59698  24.875  37.029   7.418
 4715POPC   NC359699  34.251  12.527   5.513
 4715POPC   PO459700  34.543  13.169   5.421
 4715POPC   GL159701  34.613  13.128   5.873
 4715POPC   GL259702  34.444  12.791   5.915
 4715POPC   C1A59703  34.582  13.083   6.306
 4715POPC   D2A59704  34.375  12.771   6.515
 4715POPC   C3A59705  34.517  12.916   6.887
 4715POPC   C4A59706  34.502  12.968   7.297
 4715POPC   C1B59707  34.779  12.641   6.193
 4715POPC   C2B59708  34.911  12.673   6.644
 4715POPC   C3B59709  34.824  12.530   7.082
 4715POPC   C4B59710  34.849  12.612   7.525
 4716POPC   NC359711  29.356   5.359   5.360
 4716POPC   PO459712  28.906   4.847   5.480
 4716POPC   GL159713  29.102   4.958   5.796
 4716POPC   GL259714  29.025   5.308   5.766
 4716POPC   C1A59715  28.986   5.015   6.203
 4716POPC   D2A59716  28.804   5.062   6.560
 4716POPC   C3A59717  29.021   5.001   6.899
 4716POPC   C4A59718  28.878   5.284   7.221
 4716POPC   C1B59719  29.402   5.265   6.056
 4716POPC   C2B59720  29.339   5.281   6.489
 4716POPC   C3B59721  29.448   5.290   6.899
 4716POPC   C4B59722  29.355   5.105   7.266
 4717POPC   NC359723  44.455  30.243   5.632
 4717POPC   PO459724  44.845  30.707   5.431
 4717POPC   GL159725  44.689  30.695   5.879
 4717POPC   GL259726  44.815  30.381   5.994
 4717POPC   C1A59727  44.807  30.858   6.335
 4717POPC   D2A59728   0.098  30.874   6.722
 4717POPC   C3A59729  44.866  30.928   7.096
 4717POPC   C4A59730  44.493  30.686   7.197
 4717POPC   C1B59731  44.453  30.471   6.271
 4717POPC   C2B59732  44.443  30.602   6.684
 4717POPC   C3B59733  44.198  30.352   6.966
 4717POPC   C4B59734  44.045  30.407   7.363
 4718POPC   NC359735  26.703  36.197   5.369
 4718POPC   PO459736  27.361  36.067   5.330
 4718POPC   GL159737  27.019  35.932   5.669
 4718POPC   GL259738  26.904  36.279   5.815
 4718POPC   C1A59739  26.718  35.856   6.050
 4718POPC   D2A59740  26.779  35.870   6.522
 4718POPC   C3A59741  26.564  35.785   6.928
 4718POPC   C4A59742  26.854  35.862   7.269
 4718POPC   C1B59743  26.647  36.348   6.149
 4718POPC   C2B59744  26.760  36.402   6.545
 4718POPC   C3B59745  26.842  36.242   6.924
 4718POPC   C4B59746  26.720  36.354   7.309
 4719POPC   NC359747   3.295   8.107   5.282
 4719POPC   PO459748   3.813   8.478   5.385
 4719POPC   GL159749   3.562   8.229   5.745
 4719POPC   GL259750   3.359   7.959   5.779
 4719POPC   C1A59751   3.700   8.088   6.188
 4719POPC   D2A59752   3.904   8.192   6.599
 4719POPC   C3A59753   3.710   8.205   7.042
 4719POPC   C4A59754   3.685   8.328   7.534
 4719POPC   C1B59755   3.341   7.716   6.163
 4719POPC   C2B59756   3.426   7.866   6.577
 4719POPC   C3B59757   3.265   7.976   6.974
 4719POPC   C4B59758   3.446   7.905   7.415
 4720POPC   NC359759  43.533  19.476   5.649
 4720POPC   PO459760  42.894  19.653   5.451
 4720POPC   GL159761  42.901  19.895   5.827
 4720POPC   GL259762  43.282  19.897   5.899
 4720POPC   C1A59763  42.963  19.742   6.257
 4720POPC   D2A59764  43.200  19.823   6.576
 4720POPC   C3A59765  43.011  19.668   6.914
 4720POPC   C4A59766  43.030  19.834   7.300
 4720POPC   C1B59767  43.352  20.219   6.242
 4720POPC   C2B59768  43.435  20.268   6.695
 4720POPC   C3B59769  43.466  19.956   7.009
 4720POPC   C4B59770  43.489  19.924   7.445
 4721POPC   NC359771  27.962  27.478   5.376
 4721POPC   PO459772  27.346  27.534   5.378
 4721POPC   GL159773  27.400  27.761   5.749
 4721POPC   GL259774  27.712  27.623   5.819
 4721POPC   C1A59775  27.337  27.913   6.155
 4721POPC   D2A59776  27.457  27.747   6.571
 4721POPC   C3A59777  27.872  27.684   6.691
 4721POPC   C4A59778  27.905  27.581   7.141
 4721POPC   C1B59779  27.455  27.306   6.039
 4721POPC   C2B59780  27.316  27.279   6.465
 4721POPC   C3B59781  27.257  27.408   6.909
 4721POPC   C4B59782  27.350  27.116   7.235
 4722POPC   NC359783  15.804   2.672   5.387
 4722POPC   PO459784  16.169   3.270   5.362
 4722POPC   GL159785  16.058   2.967   5.729
 4722POPC   GL259786  15.763   2.742   5.874
 4722POPC   C1A59787  16.151   2.902   6.181
 4722POPC   D2A59788  16.341   2.813   6.596
 4722POPC   C3A59789  16.097   3.043   6.913
 4722POPC   C4A59790  15.786   2.867   7.205
 4722POPC   C1B59791  15.806   2.526   6.279
 4722POPC   C2B59792  15.856   2.599   6.731
 4722POPC   C3B59793  15.728   2.373   7.098
 4722POPC   C4B59794  15.719   2.488   7.558
 4723POPC   NC359795   9.378   4.880   5.086
 4723POPC   PO459796   9.048   5.392   5.284
 4723POPC   GL159797   9.033   5.187   5.702
 4723POPC   GL259798   9.034   5.471   5.855
 4723POPC   C1A59799   8.816   5.175   6.180
 4723POPC   D2A59800   8.676   5.066   6.598
 4723POPC   C3A59801   8.791   5.150   7.033
 4723POPC   C4A59802   8.769   4.804   7.333
 4723POPC   C1B59803   9.312   5.200   6.164
 4723POPC   C2B59804   9.418   5.027   6.603
 4723POPC   C3B59805   9.252   4.971   7.034
 4723POPC   C4B59806   9.269   5.055   7.472
 4724POPC   NC359807  17.659   2.632   5.396
 4724POPC   PO459808  16.982   2.688   5.378
 4724POPC   GL159809  17.308   2.513   5.744
 4724POPC   GL259810  17.483   2.847   5.852
 4724POPC   C1A59811  17.547   2.449   6.159
 4724POPC   D2A59812  17.517   2.713   6.527
 4724POPC   C3A59813  17.270   2.680   6.900
 4724POPC   C4A59814  17.518   2.719   7.283
 4724POPC   C1B59815  17.619   3.122   6.216
 4724POPC   C2B59816  17.669   3.261   6.660
 4724POPC   C3B59817  17.894   3.094   7.015
 4724POPC   C4B59818  17.840   3.090   7.435
 4725POPC   NC359819  27.539  35.736   5.668
 4725POPC   PO459820  27.822  35.179   5.332
 4725POPC   GL159821  27.797  35.267   5.798
 4725POPC   GL259822  28.028  35.564   5.722
 4725POPC   C1A59823  27.564  35.356   6.247
 4725POPC   D2A59824  27.542  35.490   6.705
 4725POPC   C3A59825  27.383  35.137   7.001
 4725POPC   C4A59826  27.219  35.116   7.401
 4725POPC   C1B59827  28.035  35.574   6.175
 4725POPC   C2B59828  27.992  35.278   6.523
 4725POPC   C3B59829  27.886  35.210   6.970
 4725POPC   C4B59830  27.975  35.520   7.251
 4726POPC   NC359831  29.975   3.465   5.267
 4726POPC   PO459832  29.585   3.882   5.652
 4726POPC   GL159833  29.759   3.588   5.897
 4726POPC   GL259834  30.064   3.457   5.796
 4726POPC   C1A59835  29.803   3.682   6.299
 4726POPC   D2A59836  30.023   3.655   6.638
 4726POPC   C3A59837  29.767   3.704   6.990
 4726POPC   C4A59838  29.733   3.505   7.373
 4726POPC   C1B59839  30.183   3.345   6.201
 4726POPC   C2B59840  30.067   3.166   6.641
 4726POPC   C3B59841  30.185   3.382   7.042
 4726POPC   C4B59842  30.424   3.233   7.405
 4727POPC   NC359843  17.054  11.748   5.489
 4727POPC   PO459844  16.518  11.273   5.421
 4727POPC   GL159845  16.714  11.474   5.808
 4727POPC   GL259846  17.061  11.470   5.940
 4727POPC   C1A59847  16.658  11.363   6.253
 4727POPC   D2A59848  16.408  11.184   6.544
 4727POPC   C3A59849  16.552  11.044   6.944
 4727POPC   C4A59850  16.353  11.252   7.266
 4727POPC   C1B59851  17.126  11.520   6.417
 4727POPC   C2B59852  16.961  11.343   6.807
 4727POPC   C3B59853  16.774  11.522   7.162
 4727POPC   C4B59854  16.979  11.539   7.565
 4728POPC   NC359855  29.007   7.685   5.430
 4728POPC   PO459856  29.062   7.063   5.152
 4728POPC   GL159857  29.267   7.282   5.654
 4728POPC   GL259858  29.485   7.596   5.692
 4728POPC   C1A59859  29.143   7.485   6.091
 4728POPC   D2A59860  29.249   7.353   6.526
 4728POPC   C3A59861  28.884   7.369   6.819
 4728POPC   C4A59862  28.937   7.326   7.251
 4728POPC   C1B59863  29.617   7.652   6.132
 4728POPC   C2B59864  29.432   7.842   6.516
 4728POPC   C3B59865  29.270   7.707   6.911
 4728POPC   C4B59866  29.416   7.560   7.272
 4729POPC   NC359867  21.038  14.492   5.356
 4729POPC   PO459868  21.433  13.962   5.191
 4729POPC   GL159869  21.434  14.214   5.628
 4729POPC   GL259870  21.528  14.590   5.664
 4729POPC   C1A59871  21.419  14.302   6.097
 4729POPC   D2A59872  21.162  14.581   6.396
 4729POPC   C3A59873  21.246  14.513   6.840
 4729POPC   C4A59874  21.403  14.654   7.238
 4729POPC   C1B59875  21.759  14.690   6.101
 4729POPC   C2B59876  21.659  14.510   6.513
 4729POPC   C3B59877  21.771  14.515   6.907
 4729POPC   C4B59878  21.912  14.570   7.325
 4730POPC   NC359879  34.739  11.644   5.448
 4730POPC   PO459880  34.424  11.020   5.431
 4730POPC   GL159881  34.521  11.277   5.736
 4730POPC   GL259882  34.876  11.221   5.708
 4730POPC   C1A59883  34.339  11.385   6.113
 4730POPC   D2A59884  34.517  11.404   6.520
 4730POPC   C3A59885  34.349  11.391   6.931
 4730POPC   C4A59886  34.559  11.204   7.272
 4730POPC   C1B59887  34.863  11.445   6.108
 4730POPC   C2B59888  34.997  11.553   6.522
 4730POPC   C3B59889  34.891  11.344   6.877
 4730POPC   C4B59890  35.008  11.424   7.226
 4731POPC   NC359891  19.274  19.588   5.511
 4731POPC   PO459892  19.004  20.250   5.449
 4731POPC   GL159893  19.217  20.024   5.810
 4731POPC   GL259894  18.985  19.752   5.890
 4731POPC   C1A59895  19.207  19.998   6.280
 4731POPC   D2A59896  18.849  19.855   6.486
 4731POPC   C3A59897  18.772  19.801   6.920
 4731POPC   C4A59898  18.782  20.033   7.314
 4731POPC   C1B59899  19.098  19.480   6.240
 4731POPC   C2B59900  19.339  19.358   6.590
 4731POPC   C3B59901  19.414  19.384   6.987
 4731POPC   C4B59902  19.111  19.588   7.227
 4732POPC   NC359903   9.816  30.776   5.147
 4732POPC   PO459904   9.310  30.980   5.571
 4732POPC   GL159905   9.678  30.819   5.860
 4732POPC   GL259906   9.826  30.466   5.936
 4732POPC   C1A59907   9.880  30.805   6.292
 4732POPC   D2A59908   9.821  30.620   6.694
 4732POPC   C3A59909   9.875  30.871   7.050
 4732POPC   C4A59910  10.134  30.906   7.444
 4732POPC   C1B59911   9.657  30.296   6.299
 4732POPC   C2B59912   9.409  30.306   6.648
 4732POPC   C3B59913   9.527  30.308   7.052
 4732POPC   C4B59914   9.515  30.646   7.343
 4733POPC   NC359915  13.120   7.277   5.144
 4733POPC   PO459916  12.525   7.441   5.435
 4733POPC   GL159917  12.620   7.582   5.777
 4733POPC   GL259918  12.937   7.733   5.627
 4733POPC   C1A59919  12.648   7.390   6.183
 4733POPC   D2A59920  12.760   7.102   6.498
 4733POPC   C3A59921  12.608   7.171   6.895
 4733POPC   C4A59922  12.856   7.352   7.231
 4733POPC   C1B59923  12.914   7.838   6.085
 4733POPC   C2B59924  13.038   7.645   6.463
 4733POPC   C3B59925  12.956   7.713   6.892
 4733POPC   C4B59926  12.807   7.885   7.304
 4734POPC   NC359927  14.115  38.035   5.527
 4734POPC   PO459928  14.721  37.723   5.446
 4734POPC   GL159929  14.510  37.864   5.833
 4734POPC   GL259930  14.717  38.049   6.029
 4734POPC   C1A59931  14.353  37.871   6.312
 4734POPC   D2A59932  14.407  38.177   6.675
 4734POPC   C3A59933  14.304  37.960   7.057
 4734POPC   C4A59934  14.122  37.547   7.028
 4734POPC   C1B59935  14.767  37.592   6.200
 4734POPC   C2B59936  14.746  37.366   6.619
 4734POPC   C3B59937  14.699  37.491   7.049
 4734POPC   C4B59938  14.770  37.891   7.243
 4735POPC   NC359939  27.430   3.742   5.411
 4735POPC   PO459940  27.956   3.354   5.463
 4735POPC   GL159941  27.621   3.361   5.767
 4735POPC   GL259942  27.741   3.671   5.835
 4735POPC   C1A59943  27.413   3.355   6.187
 4735POPC   D2A59944  27.153   3.138   6.481
 4735POPC   C3A59945  27.314   3.329   6.842
 4735POPC   C4A59946  27.709   3.254   7.084
 4735POPC   C1B59947  27.909   3.496   6.248
 4735POPC   C2B59948  27.762   3.565   6.682
 4735POPC   C3B59949  27.818   3.757   7.117
 4735POPC   C4B59950  27.826   3.902   7.564
 4736POPC   NC359951   4.782  11.551   5.432
 4736POPC   PO459952   5.100  12.142   5.416
 4736POPC   GL159953   5.114  11.814   5.730
 4736POPC   GL259954   4.813  11.692   5.905
 4736POPC   C1A59955   5.389  11.762   6.077
 4736POPC   D2A59956   5.373  12.053   6.418
 4736POPC   C3A59957   5.112  11.855   6.691
 4736POPC   C4A59958   5.186  11.905   7.104
 4736POPC   C1B59959   4.906  11.982   6.200
 4736POPC   C2B59960   4.673  12.172   6.533
 4736POPC   C3B59961   4.769  12.152   6.937
 4736POPC   C4B59962   4.709  11.915   7.269
 4737POPC   NC359963  28.883  25.631   5.247
 4737POPC   PO459964  28.398  25.176   5.342
 4737POPC   GL159965  28.308  25.338   5.753
 4737POPC   GL259966  28.067  25.538   5.699
 4737POPC   C1A59967  28.451  25.203   6.168
 4737POPC   D2A59968  28.258  25.074   6.556
 4737POPC   C3A59969  28.546  25.074   6.917
 4737POPC   C4A59970  28.456  24.810   7.273
 4737POPC   C1B59971  28.174  25.651   6.166
 4737POPC   C2B59972  28.371  25.570   6.595
 4737POPC   C3B59973  28.269  25.626   7.050
 4737POPC   C4B59974  28.233  25.268   7.332
 4738POPC   NC359975  30.347  16.509   5.663
 4738POPC   PO459976  30.606  17.003   5.249
 4738POPC   GL159977  30.762  16.810   5.707
 4738POPC   GL259978  30.854  16.428   5.788
 4738POPC   C1A59979  30.855  16.746   6.183
 4738POPC   D2A59980  30.624  16.724   6.603
 4738POPC   C3A59981  30.873  16.729   6.986
 4738POPC   C4A59982  30.856  16.613   7.436
 4738POPC   C1B59983  30.600  16.292   6.220
 4738POPC   C2B59984  30.393  16.256   6.655
 4738POPC   C3B59985  30.496  16.395   7.088
 4738POPC   C4B59986  30.413  16.404   7.583
 4739POPC   NC359987  16.442  24.418   5.328
 4739POPC   PO459988  17.030  24.638   5.544
 4739POPC   GL159989  16.681  24.566   5.839
 4739POPC   GL259990  16.545  24.243   5.814
 4739POPC   C1A59991  16.583  24.696   6.276
 4739POPC   D2A59992  16.421  24.510   6.692
 4739POPC   C3A59993  16.595  24.719   7.063
 4739POPC   C4A59994  17.022  24.627   7.238
 4739POPC   C1B59995  16.575  24.183   6.246
 4739POPC   C2B59996  16.819  24.170   6.616
 4739POPC   C3B59997  16.725  24.234   7.043
 4739POPC   C4B59998  16.692  23.990   7.388
 4740POPC   NC359999  40.444   8.244   5.749
 4740POPC   PO460000  40.972   7.987   5.424
 4740POPC   GL160001  40.995   8.118   5.832
 4740POPC   GL260002  41.020   8.477   5.743
 4740POPC   C1A60003  40.841   8.149   6.272
 4740POPC   D2A60004  40.631   8.429   6.577
 4740POPC   C3A60005  40.613   8.269   7.003
 4740POPC   C4A60006  40.386   8.296   7.408
 4740POPC   C1B60007  41.210   8.498   6.161
 4740POPC   C2B60008  41.152   8.376   6.624
 4740POPC   C3B60009  41.093   8.484   7.074
 4740POPC   C4B60010  40.916   8.231   7.457
 4741POPC   NC360011   9.928   0.976   5.494
 4741POPC   PO460012   9.365   1.436   5.388
 4741POPC   GL160013   9.622   1.348   5.791
 4741POPC   GL260014   9.664   0.978   5.908
 4741POPC   C1A60015   9.742   1.318   6.259
 4741POPC   D2A60016   9.669   1.037   6.606
 4741POPC   C3A60017   9.690   1.292   6.976
 4741POPC   C4A60018   9.373   1.529   7.185
 4741POPC   C1B60019   9.972   0.780   6.196
 4741POPC   C2B60020  10.022   0.665   6.618
 4741POPC   C3B60021   9.968   0.840   7.023
 4741POPC   C4B60022   9.863   1.025   7.416
 4742POPC   NC360023  36.640   8.822   5.564
 4742POPC   PO460024  37.009   9.263   5.258
 4742POPC   GL160025  37.139   9.037   5.662
 4742POPC   GL260026  37.015   9.334   5.824
 4742POPC   C1A60027  37.059   8.860   6.134
 4742POPC   D2A60028  36.682   8.946   6.370
 4742POPC   C3A60029  36.663   8.937   6.845
 4742POPC   C4A60030  36.867   8.687   7.134
 4742POPC   C1B60031  37.113   9.331   6.279
 4742POPC   C2B60032  37.126   9.046   6.656
 4742POPC   C3B60033  37.059   9.220   7.088
 4742POPC   C4B60034  37.385   9.362   7.415
 4743POPC   NC360035  10.358   5.628   5.656
 4743POPC   PO460036  10.296   6.275   5.413
 4743POPC   GL160037  10.463   6.156   5.823
 4743POPC   GL260038  10.825   6.253   5.853
 4743POPC   C1A60039  10.417   6.215   6.280
 4743POPC   D2A60040  10.639   6.289   6.684
 4743POPC   C3A60041  10.356   6.166   7.031
 4743POPC   C4A60042  10.211   5.904   7.381
 4743POPC   C1B60043  10.846   5.931   6.181
 4743POPC   C2B60044  10.923   5.830   6.635
 4743POPC   C3B60045  10.775   5.892   7.052
 4743POPC   C4B60046  10.658   5.654   7.413
 4744POPC   NC360047  20.749  29.446   5.101
 4744POPC   PO460048  20.573  29.967   5.533
 4744POPC   GL160049  20.555  29.720   5.900
 4744POPC   GL260050  20.396  29.427   5.796
 4744POPC   C1A60051  20.847  29.663   6.235
 4744POPC   D2A60052  20.960  29.943   6.560
 4744POPC   C3A60053  20.869  29.847   6.992
 4744POPC   C4A60054  20.701  29.940   7.428
 4744POPC   C1B60055  20.230  29.455   6.211
 4744POPC   C2B60056  20.415  29.718   6.528
 4744POPC   C3B60057  20.409  29.638   6.966
 4744POPC   C4B60058  20.222  29.793   7.314
 4745POPC   NC360059  11.974   3.887   5.447
 4745POPC   PO460060  12.068   3.249   5.450
 4745POPC   GL160061  11.998   3.512   5.831
 4745POPC   GL260062  11.679   3.708   5.856
 4745POPC   C1A60063  12.164   3.600   6.274
 4745POPC   D2A60064  12.030   3.519   6.722
 4745POPC   C3A60065  12.170   3.745   7.088
 4745POPC   C4A60066  12.288   3.738   7.546
 4745POPC   C1B60067  11.684   3.463   6.268
 4745POPC   C2B60068  11.715   3.138   6.570
 4745POPC   C3B60069  11.756   3.134   6.996
 4745POPC   C4B60070  11.825   3.471   7.299
 4746POPC   NC360071  19.742  10.538   5.123
 4746POPC   PO460072  19.120  10.502   5.397
 4746POPC   GL160073  19.029  10.521   5.836
 4746POPC   GL260074  19.272  10.231   5.892
 4746POPC   C1A60075  18.935  10.317   6.262
 4746POPC   D2A60076  19.300  10.147   6.521
 4746POPC   C3A60077  19.137  10.272   6.923
 4746POPC   C4A60078  18.913  10.512   7.212
 4746POPC   C1B60079  19.389  10.545   6.203
 4746POPC   C2B60080  19.305  10.662   6.580
 4746POPC   C3B60081  19.258  10.776   6.952
 4746POPC   C4B60082  19.344  10.772   7.345
 4747POPC   NC360083  33.401  10.592   5.372
 4747POPC   PO460084  33.991  10.122   5.409
 4747POPC   GL160085  33.884  10.366   5.771
 4747POPC   GL260086  33.580  10.181   5.803
 4747POPC   C1A60087  33.955  10.440   6.233
 4747POPC   D2A60088  33.932  10.233   6.639
 4747POPC   C3A60089  33.858  10.480   7.009
 4747POPC   C4A60090  34.110  10.496   7.384
 4747POPC   C1B60091  33.465  10.531   6.088
 4747POPC   C2B60092  33.463  10.462   6.537
 4747POPC   C3B60093  33.413  10.216   6.909
 4747POPC   C4B60094  33.248  10.308   7.286
 4748POPC   NC360095  33.493  26.284   5.557
 4748POPC   PO460096  33.836  25.739   5.532
 4748POPC   GL160097  33.602  25.851   5.866
 4748POPC   GL260098  33.918  25.831   6.048
 4748POPC   C1A60099  33.576  26.159   6.202
 4748POPC   D2A60100  33.825  26.050   6.577
 4748POPC   C3A60101  33.674  26.154   6.966
 4748POPC   C4A60102  33.851  26.184   7.350
 4748POPC   C1B60103  34.108  26.208   6.187
 4748POPC   C2B60104  34.310  26.253   6.616
 4748POPC   C3B60105  34.207  26.075   6.992
 4748POPC   C4B60106  34.022  25.702   7.139
 4749POPC   NC360107   3.744  38.244   5.410
 4749POPC   PO460108   3.459  37.609   5.420
 4749POPC   GL160109   3.609  37.793   5.770
 4749POPC   GL260110   3.314  38.036   5.741
 4749POPC   C1A60111   3.660  37.570   6.182
 4749POPC   D2A60112   3.716  37.728   6.556
 4749POPC   C3A60113   3.602  37.516   6.913
 4749POPC   C4A60114   3.748  37.489   7.350
 4749POPC   C1B60115   3.413  38.023   6.195
 4749POPC   C2B60116   3.235  37.861   6.607
 4749POPC   C3B60117   3.388  37.954   7.017
 4749POPC   C4B60118   3.730  38.005   7.328
 4750POPC   NC360119  11.405  36.265   5.440
 4750POPC   PO460120  10.972  36.552   5.176
 4750POPC   GL160121  11.031  36.470   5.691
 4750POPC   GL260122  11.039  36.102   5.797
 4750POPC   C1A60123  11.253  36.441   6.124
 4750POPC   D2A60124  11.418  36.459   6.556
 4750POPC   C3A60125  11.579  36.206   6.916
 4750POPC   C4A60126  11.355  36.108   7.251
 4750POPC   C1B60127  10.961  36.020   6.237
 4750POPC   C2B60128  11.024  36.114   6.676
 4750POPC   C3B60129  10.871  36.078   7.081
 4750POPC   C4B60130  10.923  35.926   7.521
 4751POPC   NC360131  23.166  18.456   5.443
 4751POPC   PO460132  22.633  18.048   5.209
 4751POPC   GL160133  22.840  18.148   5.685
 4751POPC   GL260134  23.199  18.051   5.776
 4751POPC   C1A60135  22.714  18.306   6.131
 4751POPC   D2A60136  22.505  18.273   6.528
 4751POPC   C3A60137  22.654  18.529   6.860
 4751POPC   C4A60138  22.947  18.553   7.178
 4751POPC   C1B60139  23.225  18.292   6.182
 4751POPC   C2B60140  23.329  18.295   6.645
 4751POPC   C3B60141  23.185  18.109   7.042
 4751POPC   C4B60142  23.141  17.931   7.456
 4752POPC   NC360143  29.432  10.784   5.433
 4752POPC   PO460144  28.938  10.313   5.582
 4752POPC   GL160145  29.222  10.581   5.875
 4752POPC   GL260146  29.419  10.349   6.175
 4752POPC   C1A60147  29.382  10.835   6.181
 4752POPC   D2A60148  29.133  10.754   6.540
 4752POPC   C3A60149  29.350  10.706   6.895
 4752POPC   C4A60150  29.216  10.704   7.285
 4752POPC   C1B60151  28.977  10.261   6.293
 4752POPC   C2B60152  28.804  10.189   6.685
 4752POPC   C3B60153  29.076  10.273   7.012
 4752POPC   C4B60154  29.513  10.256   7.098
 4753POPC   NC360155  10.245  31.600   5.376
 4753POPC   PO460156  10.929  31.655   5.360
 4753POPC   GL160157  10.713  31.648   5.763
 4753POPC   GL260158  10.648  32.007   5.823
 4753POPC   C1A60159  10.696  31.409   6.181
 4753POPC   D2A60160  10.747  31.250   6.631
 4753POPC   C3A60161  10.654  31.547   6.977
 4753POPC   C4A60162  10.435  31.550   7.365
 4753POPC   C1B60163  10.363  31.820   6.141
 4753POPC   C2B60164  10.346  31.591   6.539
 4753POPC   C3B60165  10.204  31.741   6.938
 4753POPC   C4B60166  10.002  31.805   7.335
 4754POPC   NC360167   8.312  27.672   5.506
 4754POPC   PO460168   8.481  27.013   5.601
 4754POPC   GL160169   8.285  27.393   5.922
 4754POPC   GL260170   7.920  27.528   5.803
 4754POPC   C1A60171   8.161  27.783   6.184
 4754POPC   D2A60172   8.230  28.021   6.566
 4754POPC   C3A60173   8.322  27.732   6.865
 4754POPC   C4A60174   8.222  27.619   7.273
 4754POPC   C1B60175   7.761  27.440   6.210
 4754POPC   C2B60176   8.010  27.411   6.604
 4754POPC   C3B60177   7.994  27.234   7.033
 4754POPC   C4B60178   8.055  27.201   7.506
 4755POPC   NC360179  24.288  42.857   5.416
 4755POPC   PO460180  24.663  43.413   5.247
 4755POPC   GL160181  24.735  43.146   5.670
 4755POPC   GL260182  24.422  43.070   5.854
 4755POPC   C1A60183  24.778  43.162   6.187
 4755POPC   D2A60184  24.582  42.990   6.583
 4755POPC   C3A60185  24.643  43.107   7.020
 4755POPC   C4A60186  24.723  42.863   7.380
 4755POPC   C1B60187  24.169  43.148   6.248
 4755POPC   C2B60188  24.161  43.275   6.708
 4755POPC   C3B60189  24.123  43.117   7.129
 4755POPC   C4B60190  23.957  43.193   7.553
 4756POPC   NC360191   7.987  14.791   5.536
 4756POPC   PO460192   8.099  15.409   5.290
 4756POPC   GL160193   8.171  15.263   5.736
 4756POPC   GL260194   7.909  15.421   5.944
 4756POPC   C1A60195   8.230  15.045   6.148
 4756POPC   D2A60196   8.038  15.147   6.582
 4756POPC   C3A60197   8.140  15.193   7.057
 4756POPC   C4A60198   8.360  15.026   7.473
 4756POPC   C1B60199   8.249  15.544   6.274
 4756POPC   C2B60200   8.518  15.458   6.671
 4756POPC   C3B60201   8.572  15.431   7.155
 4756POPC   C4B60202   8.474  15.497   7.630
 4757POPC   NC360203   7.039   5.927   5.165
 4757POPC   PO460204   6.335   5.806   5.299
 4757POPC   GL160205   6.521   5.811   5.716
 4757POPC   GL260206   6.888   5.706   5.719
 4757POPC   C1A60207   6.504   5.767   6.172
 4757POPC   D2A60208   6.382   5.574   6.569
 4757POPC   C3A60209   6.535   5.764   6.950
 4757POPC   C4A60210   6.812   5.570   7.265
 4757POPC   C1B60211   7.012   5.847   6.124
 4757POPC   C2B60212   6.911   5.950   6.525
 4757POPC   C3B60213   7.042   5.944   6.924
 4757POPC   C4B60214   6.775   6.117   7.245
 4758POPC   NC360215   9.702  18.031   5.163
 4758POPC   PO460216  10.011  18.564   5.440
 4758POPC   GL160217   9.688  18.362   5.731
 4758POPC   GL260218   9.773  18.635   5.932
 4758POPC   C1A60219   9.504  18.307   6.199
 4758POPC   D2A60220   9.693  18.617   6.491
 4758POPC   C3A60221   9.782  18.509   6.939
 4758POPC   C4A60222   9.800  18.113   7.155
 4758POPC   C1B60223  10.025  18.348   6.174
 4758POPC   C2B60224  10.120  18.294   6.602
 4758POPC   C3B60225  10.280  18.158   6.977
 4758POPC   C4B60226  10.232  18.304   7.396
 4759POPC   NC360227  43.145  29.599   5.486
 4759POPC   PO460228  43.267  30.246   5.460
 4759POPC   GL160229  43.431  30.013   5.856
 4759POPC   GL260230  43.354  29.643   5.953
 4759POPC   C1A60231  43.286  30.091   6.306
 4759POPC   D2A60232  43.367  29.852   6.681
 4759POPC   C3A60233  43.332  30.193   6.951
 4759POPC   C4A60234  43.172  30.259   7.343
 4759POPC   C1B60235  42.932  29.807   6.121
 4759POPC   C2B60236  42.868  29.943   6.596
 4759POPC   C3B60237  42.962  29.862   7.076
 4759POPC   C4B60238  42.701  29.995   7.474
 4760POPC   NC360239  27.784   2.250   5.393
 4760POPC   PO460240  27.687   1.609   5.345
 4760POPC   GL160241  27.607   1.796   5.731
 4760POPC   GL260242  27.474   2.114   5.779
 4760POPC   C1A60243  27.696   1.882   6.163
 4760POPC   D2A60244  27.744   2.102   6.541
 4760POPC   C3A60245  27.606   1.840   6.883
 4760POPC   C4A60246  27.636   1.767   7.326
 4760POPC   C1B60247  27.355   2.299   6.146
 4760POPC   C2B60248  27.232   2.222   6.551
 4760POPC   C3B60249  27.438   2.325   6.892
 4760POPC   C4B60250  27.385   2.231   7.298
 4761POPC   NC360251   0.563  15.684   5.258
 4761POPC   PO460252   0.348  16.319   5.403
 4761POPC   GL160253   0.305  16.151   5.807
 4761POPC   GL260254   0.483  15.844   5.776
 4761POPC   C1A60255   0.354  16.264   6.230
 4761POPC   D2A60256   0.455  16.119   6.635
 4761POPC   C3A60257   0.250  16.290   7.020
 4761POPC   C4A60258   0.482  16.288   7.429
 4761POPC   C1B60259   0.232  15.774   6.157
 4761POPC   C2B60260   0.237  15.626   6.561
 4761POPC   C3B60261   0.284  15.775   6.984
 4761POPC   C4B60262   0.025  15.904   7.312
 4762POPC   NC360263   7.073  38.677   5.199
 4762POPC   PO460264   6.519  38.381   5.386
 4762POPC   GL160265   6.741  38.277   5.768
 4762POPC   GL260266   6.456  38.391   5.921
 4762POPC   C1A60267   6.865  38.486   6.211
 4762POPC   D2A60268   6.581  38.774   6.441
 4762POPC   C3A60269   6.586  38.799   6.899
 4762POPC   C4A60270   6.714  38.520   7.234
 4762POPC   C1B60271   6.520  38.124   6.295
 4762POPC   C2B60272   6.628  38.239   6.722
 4762POPC   C3B60273   6.518  38.053   7.111
 4762POPC   C4B60274   6.622  38.115   7.570
 4763POPC   NC360275   7.232  18.385   5.508
 4763POPC   PO460276   7.939  18.533   5.462
 4763POPC   GL160277   7.589  18.670   5.752
 4763POPC   GL260278   7.551  18.356   5.936
 4763POPC   C1A60279   7.504  18.771   6.201
 4763POPC   D2A60280   7.458  18.480   6.561
 4763POPC   C3A60281   7.338  18.567   6.960
 4763POPC   C4A60282   7.521  18.390   7.281
 4763POPC   C1B60283   7.451  18.058   6.279
 4763POPC   C2B60284   7.077  18.075   6.574
 4763POPC   C3B60285   7.011  18.152   7.018
 4763POPC   C4B60286   7.213  17.964   7.399
 4764POPC   NC360287  27.046   6.847   5.311
 4764POPC   PO460288  26.601   6.353   5.343
 4764POPC   GL160289  26.759   6.352   5.752
 4764POPC   GL260290  27.014   6.513   5.724
 4764POPC   C1A60291  26.700   6.414   6.202
 4764POPC   D2A60292  26.418   6.621   6.487
 4764POPC   C3A60293  26.585   6.640   6.883
 4764POPC   C4A60294  26.789   6.371   7.147
 4764POPC   C1B60295  27.139   6.722   6.100
 4764POPC   C2B60296  27.142   6.547   6.509
 4764POPC   C3B60297  27.233   6.394   6.914
 4764POPC   C4B60298  27.161   6.749   7.174
 4765POPC   NC360299   7.204  30.823   5.247
 4765POPC   PO460300   7.615  30.455   5.514
 4765POPC   GL160301   7.536  30.805   5.798
 4765POPC   GL260302   7.202  30.830   5.756
 4765POPC   C1A60303   7.602  30.789   6.253
 4765POPC   D2A60304   7.561  30.365   6.497
 4765POPC   C3A60305   7.693  30.397   6.935
 4765POPC   C4A60306   7.677  30.700   7.276
 4765POPC   C1B60307   7.204  30.512   6.090
 4765POPC   C2B60308   7.165  30.667   6.512
 4765POPC   C3B60309   7.299  30.795   6.895
 4765POPC   C4B60310   7.037  30.858   7.234
 4766POPC   NC360311  17.254  12.519   5.368
 4766POPC   PO460312  16.761  12.080   5.344
 4766POPC   GL160313  16.731  12.020   5.797
 4766POPC   GL260314  16.561  12.326   5.856
 4766POPC   C1A60315  16.783  11.855   6.219
 4766POPC   D2A60316  16.716  11.760   6.664
 4766POPC   C3A60317  16.759  12.036   7.033
 4766POPC   C4A60318  17.132  11.886   7.222
 4766POPC   C1B60319  16.375  12.206   6.243
 4766POPC   C2B60320  16.380  12.135   6.690
 4766POPC   C3B60321  16.273  12.273   7.084
 4766POPC   C4B60322  16.522  12.504   7.345
 4767POPC   NC360323  22.485  29.598   5.442
 4767POPC   PO460324  22.080  29.055   5.487
 4767POPC   GL160325  22.231  29.115   5.897
 4767POPC   GL260326  22.552  29.252   5.832
 4767POPC   C1A60327  22.130  28.998   6.336
 4767POPC   D2A60328  21.912  28.840   6.716
 4767POPC   C3A60329  22.141  29.154   6.935
 4767POPC   C4A60330  22.434  29.219   7.231
 4767POPC   C1B60331  22.426  29.523   6.140
 4767POPC   C2B60332  22.209  29.492   6.524
 4767POPC   C3B60333  22.430  29.598   6.886
 4767POPC   C4B60334  22.625  29.681   7.288
 4768POPC   NC360335  23.210  32.120   5.358
 4768POPC   PO460336  22.847  32.645   5.437
 4768POPC   GL160337  22.927  32.276   5.782
 4768POPC   GL260338  23.136  31.934   5.818
 4768POPC   C1A60339  23.013  32.278   6.260
 4768POPC   D2A60340  22.733  32.347   6.625
 4768POPC   C3A60341  22.799  32.530   7.040
 4768POPC   C4A60342  22.727  32.289   7.405
 4768POPC   C1B60343  22.863  31.790   6.135
 4768POPC   C2B60344  22.922  31.842   6.574
 4768POPC   C3B60345  22.914  31.991   6.988
 4768POPC   C4B60346  23.213  32.233   7.178
 4769POPC   NC360347  22.824  14.111   5.426
 4769POPC   PO460348  22.837  14.800   5.637
 4769POPC   GL160349  22.858  14.565   5.996
 4769POPC   GL260350  22.710  14.230   5.911
 4769POPC   C1A60351  22.999  14.552   6.443
 4769POPC   D2A60352  23.289  14.328   6.719
 4769POPC   C3A60353  23.074  14.301   7.072
 4769POPC   C4A60354  22.740  14.578   7.179
 4769POPC   C1B60355  22.981  14.089   6.219
 4769POPC   C2B60356  22.765  13.998   6.603
 4769POPC   C3B60357  22.543  14.081   6.964
 4769POPC   C4B60358  22.747  14.018   7.322
 4770POPC   NC360359   7.021  21.791   5.474
 4770POPC   PO460360   7.332  21.179   5.278
 4770POPC   GL160361   7.446  21.183   5.722
 4770POPC   GL260362   7.462  21.527   5.702
 4770POPC   C1A60363   7.635  21.211   6.160
 4770POPC   D2A60364   7.570  21.443   6.561
 4770POPC   C3A60365   7.496  21.319   6.985
 4770POPC   C4A60366   7.651  21.304   7.391
 4770POPC   C1B60367   7.270  21.632   6.121
 4770POPC   C2B60368   7.107  21.664   6.564
 4770POPC   C3B60369   7.287  21.776   6.939
 4770POPC   C4B60370   7.275  21.740   7.400
 4771POPC   NC360371  31.308  37.999   5.449
 4771POPC   PO460372  31.650  37.424   5.460
 4771POPC   GL160373  31.582  37.719   5.768
 4771POPC   GL260374  31.216  37.632   5.835
 4771POPC   C1A60375  31.658  37.865   6.174
 4771POPC   D2A60376  31.573  37.525   6.458
 4771POPC   C3A60377  31.622  37.584   6.860
 4771POPC   C4A60378  31.480  37.600   7.268
 4771POPC   C1B60379  31.163  37.800   6.261
 4771POPC   C2B60380  31.357  37.968   6.617
 4771POPC   C3B60381  31.161  37.884   6.964
 4771POPC   C4B60382  31.018  37.881   7.354
 4772POPC   NC360383   4.197  33.243   5.357
 4772POPC   PO460384   4.258  33.994   5.374
 4772POPC   GL160385   4.400  34.120   5.784
 4772POPC   GL260386   4.591  33.826   5.838
 4772POPC   C1A60387   4.301  34.133   6.229
 4772POPC   D2A60388   4.019  33.855   6.511
 4772POPC   C3A60389   4.140  33.778   6.944
 4772POPC   C4A60390   4.451  34.047   7.122
 4772POPC   C1B60391   4.475  33.648   6.252
 4772POPC   C2B60392   4.617  33.666   6.689
 4772POPC   C3B60393   4.533  33.458   7.077
 4772POPC   C4B60394   4.105  33.315   7.221
 4773POPC   NC360395  14.507  11.696   5.474
 4773POPC   PO460396  14.101  12.216   5.384
 4773POPC   GL160397  14.240  12.199   5.785
 4773POPC   GL260398  14.042  12.491   5.866
 4773POPC   C1A60399  14.384  11.889   6.120
 4773POPC   D2A60400  14.320  11.589   6.456
 4773POPC   C3A60401  14.522  11.730   6.847
 4773POPC   C4A60402  14.387  11.866   7.239
 4773POPC   C1B60403  13.987  12.203   6.226
 4773POPC   C2B60404  14.144  12.060   6.617
 4773POPC   C3B60405  14.040  12.186   7.025
 4773POPC   C4B60406  14.271  12.341   7.399
 4774POPC   NC360407  25.659  42.322   5.380
 4774POPC   PO460408  26.313  42.130   5.545
 4774POPC   GL160409  26.039  42.384   5.778
 4774POPC   GL260410  25.727  42.175   5.870
 4774POPC   C1A60411  26.180  42.410   6.204
 4774POPC   D2A60412  26.003  42.276   6.580
 4774POPC   C3A60413  26.240  42.380   6.942
 4774POPC   C4A60414  26.111  42.481   7.367
 4774POPC   C1B60415  25.601  42.063   6.316
 4774POPC   C2B60416  25.606  42.016   6.777
 4774POPC   C3B60417  25.906  42.014   7.123
 4774POPC   C4B60418  25.853  42.070   7.572
 4775POPC   NC360419  22.037  11.906   5.425
 4775POPC   PO460420  22.482  12.352   5.430
 4775POPC   GL160421  22.189  12.162   5.820
 4775POPC   GL260422  22.247  11.770   5.872
 4775POPC   C1A60423  21.993  12.097   6.254
 4775POPC   D2A60424  22.185  12.167   6.669
 4775POPC   C3A60425  21.997  12.208   7.071
 4775POPC   C4A60426  22.179  12.341   7.476
 4775POPC   C1B60427  22.006  11.574   6.209
 4775POPC   C2B60428  22.088  11.677   6.602
 4775POPC   C3B60429  22.242  11.747   6.993
 4775POPC   C4B60430  22.089  11.836   7.420
 4776POPC   NC360431   1.630  28.547   5.321
 4776POPC   PO460432   0.928  28.419   5.315
 4776POPC   GL160433   1.116  28.229   5.712
 4776POPC   GL260434   1.490  28.292   5.806
 4776POPC   C1A60435   1.082  28.252   6.177
 4776POPC   D2A60436   1.081  28.505   6.571
 4776POPC   C3A60437   1.168  28.312   6.998
 4776POPC   C4A60438   1.018  28.205   7.422
 4776POPC   C1B60439   1.559  28.453   6.247
 4776POPC   C2B60440   1.696  28.677   6.609
 4776POPC   C3B60441   1.623  28.604   7.062
 4776POPC   C4B60442   1.645  28.168   7.206
 4777POPC   NC360443  12.157  12.311   5.303
 4777POPC   PO460444  11.923  12.939   5.414
 4777POPC   GL160445  12.144  12.851   5.763
 4777POPC   GL260446  12.121  13.196   5.821
 4777POPC   C1A60447  12.210  12.867   6.204
 4777POPC   D2A60448  12.016  12.804   6.608
 4777POPC   C3A60449  12.118  12.654   7.000
 4777POPC   C4A60450  12.331  12.918   7.280
 4777POPC   C1B60451  11.880  13.263   6.222
 4777POPC   C2B60452  11.715  13.238   6.642
 4777POPC   C3B60453  11.912  13.176   7.055
 4777POPC   C4B60454  11.834  13.349   7.491
 4778POPC   NC360455  13.125  44.922   5.475
 4778POPC   PO460456  12.678  44.418   5.612
 4778POPC   GL160457  12.974  44.548   5.915
 4778POPC   GL260458  13.009  44.897   5.964
 4778POPC   C1A60459  12.735  44.497   6.309
 4778POPC   D2A60460  12.450  44.396   6.650
 4778POPC   C3A60461  12.481  44.588   7.055
 4778POPC   C4A60462  12.512  44.435   7.451
 4778POPC   C1B60463  13.114  44.821   6.394
 4778POPC   C2B60464  12.923  44.673   6.779
 4778POPC   C3B60465  12.982  44.629   7.222
 4778POPC   C4B60466  13.221  44.854   7.551
 4779POPC   NC360467   1.554   2.135   5.303
 4779POPC   PO460468   0.925   1.864   5.295
 4779POPC   GL160469   1.135   2.076   5.639
 4779POPC   GL260470   1.422   1.837   5.719
 4779POPC   C1A60471   1.077   1.991   6.088
 4779POPC   D2A60472   0.969   2.146   6.504
 4779POPC   C3A60473   0.975   1.898   6.892
 4779POPC   C4A60474   1.223   2.122   7.205
 4779POPC   C1B60475   1.466   1.676   6.162
 4779POPC   C2B60476   1.417   1.852   6.583
 4779POPC   C3B60477   1.425   1.664   7.008
 4779POPC   C4B60478   1.707   1.464   7.296
 4780POPC   NC360479   4.768  36.840   5.147
 4780POPC   PO460480   4.394  37.260   5.491
 4780POPC   GL160481   4.381  36.902   5.796
 4780POPC   GL260482   4.508  37.126   6.041
 4780POPC   C1A60483   4.172  36.685   6.171
 4780POPC   D2A60484   3.950  36.771   6.571
 4780POPC   C3A60485   4.154  36.833   6.986
 4780POPC   C4A60486   4.335  36.761   7.393
 4780POPC   C1B60487   4.075  37.199   6.160
 4780POPC   C2B60488   3.965  37.288   6.566
 4780POPC   C3B60489   4.070  37.348   6.964
 4780POPC   C4B60490   4.201  37.240   7.373
 4781POPC   NC360491   7.277  11.530   5.390
 4781POPC   PO460492   7.802  11.014   5.544
 4781POPC   GL160493   7.625  11.307   5.836
 4781POPC   GL260494   7.349  11.549   5.922
 4781POPC   C1A60495   7.456  11.138   6.231
 4781POPC   D2A60496   7.610  11.000   6.630
 4781POPC   C3A60497   7.441  11.222   6.988
 4781POPC   C4A60498   7.210  11.487   7.245
 4781POPC   C1B60499   7.688  11.601   6.256
 4781POPC   C2B60500   7.683  11.558   6.713
 4781POPC   C3B60501   7.725  11.673   7.166
 4781POPC   C4B60502   7.598  11.538   7.587
 4782POPC   NC360503  25.987  22.696   5.349
 4782POPC   PO460504  25.959  23.316   5.405
 4782POPC   GL160505  25.991  23.013   5.787
 4782POPC   GL260506  26.191  22.670   5.812
 4782POPC   C1A60507  25.849  23.010   6.244
 4782POPC   D2A60508  25.830  22.763   6.612
 4782POPC   C3A60509  26.003  22.919   6.999
 4782POPC   C4A60510  25.974  22.912   7.435
 4782POPC   C1B60511  26.325  22.863   6.211
 4782POPC   C2B60512  26.360  23.045   6.646
 4782POPC   C3B60513  26.512  22.785   7.019
 4782POPC   C4B60514  26.282  22.515   7.339
 4783POPC   NC360515  25.611  38.914   5.425
 4783POPC   PO460516  25.188  38.416   5.415
 4783POPC   GL160517  25.344  38.347   5.835
 4783POPC   GL260518  25.691  38.241   5.786
 4783POPC   C1A60519  25.372  38.562   6.243
 4783POPC   D2A60520  25.196  38.771   6.611
 4783POPC   C3A60521  25.369  38.565   6.970
 4783POPC   C4A60522  25.608  38.552   7.339
 4783POPC   C1B60523  25.664  38.122   6.226
 4783POPC   C2B60524  25.695  38.350   6.613
 4783POPC   C3B60525  25.917  38.316   6.996
 4783POPC   C4B60526  25.830  38.078   7.374
 4784POPC   NC360527  12.823  21.271   5.490
 4784POPC   PO460528  12.768  21.911   5.211
 4784POPC   GL160529  12.801  21.799   5.770
 4784POPC   GL260530  12.822  21.488   5.940
 4784POPC   C1A60531  13.082  21.820   6.194
 4784POPC   D2A60532  13.292  21.669   6.603
 4784POPC   C3A60533  13.010  21.420   6.899
 4784POPC   C4A60534  12.756  21.536   7.240
 4784POPC   C1B60535  12.706  21.252   6.305
 4784POPC   C2B60536  12.538  21.291   6.712
 4784POPC   C3B60537  12.573  21.087   7.079
 4784POPC   C4B60538  12.838  21.024   7.389
 4785POPC   NC360539  35.813  36.037   5.200
 4785POPC   PO460540  36.251  36.419   5.349
 4785POPC   GL160541  36.177  36.252   5.749
 4785POPC   GL260542  36.301  35.918   5.764
 4785POPC   C1A60543  35.977  36.406   6.150
 4785POPC   D2A60544  35.752  36.226   6.509
 4785POPC   C3A60545  36.002  36.329   6.872
 4785POPC   C4A60546  35.954  36.147   7.271
 4785POPC   C1B60547  36.371  36.059   6.188
 4785POPC   C2B60548  36.234  35.987   6.597
 4785POPC   C3B60549  36.419  36.075   7.010
 4785POPC   C4B60550  36.447  36.260   7.444
 4786POPC   NC360551   9.254  38.682   5.058
 4786POPC   PO460552   9.194  38.282   5.580
 4786POPC   GL160553   9.033  38.540   5.904
 4786POPC   GL260554   8.735  38.401   5.942
 4786POPC   C1A60555   8.919  38.869   6.181
 4786POPC   D2A60556   9.226  39.041   6.463
 4786POPC   C3A60557   9.093  38.922   6.868
 4786POPC   C4A60558   9.140  38.599   7.164
 4786POPC   C1B60559   8.693  38.396   6.357
 4786POPC   C2B60560   8.899  38.443   6.730
 4786POPC   C3B60561   8.841  38.206   7.082
 4786POPC   C4B60562   8.804  38.273   7.490
 4787POPC   NC360563  16.227  39.277   5.479
 4787POPC   PO460564  15.675  38.911   5.720
 4787POPC   GL160565  16.049  38.985   5.858
 4787POPC   GL260566  15.935  39.333   5.910
 4787POPC   C1A60567  16.217  39.036   6.266
 4787POPC   D2A60568  15.978  39.139   6.651
 4787POPC   C3A60569  15.959  39.043   7.088
 4787POPC   C4A60570  15.554  39.064   7.288
 4787POPC   C1B60571  15.964  39.530   6.321
 4787POPC   C2B60572  16.069  39.643   6.754
 4787POPC   C3B60573  16.111  39.530   7.169
 4787POPC   C4B60574  15.812  39.444   7.466
 4788POPC   NC360575  38.433  18.359   5.289
 4788POPC   PO460576  38.761  17.793   5.390
 4788POPC   GL160577  38.699  18.198   5.702
 4788POPC   GL260578  38.385  18.364   5.806
 4788POPC   C1A60579  38.810  18.363   6.123
 4788POPC   D2A60580  38.574  18.391   6.513
 4788POPC   C3A60581  38.739  18.335   6.911
 4788POPC   C4A60582  38.533  18.522   7.242
 4788POPC   C1B60583  38.165  18.490   6.204
 4788POPC   C2B60584  38.018  18.372   6.610
 4788POPC   C3B60585  38.052  18.577   7.005
 4788POPC   C4B60586  38.074  18.415   7.412
 4789POPC   NC360587  22.297  31.932   5.421
 4789POPC   PO460588  21.955  31.298   5.262
 4789POPC   GL160589  22.056  31.251   5.702
 4789POPC   GL260590  22.349  31.446   5.716
 4789POPC   C1A60591  21.973  31.235   6.145
 4789POPC   D2A60592  22.218  31.314   6.530
 4789POPC   C3A60593  22.048  31.543   6.837
 4789POPC   C4A60594  21.806  31.397   7.161
 4789POPC   C1B60595  22.392  31.597   6.141
 4789POPC   C2B60596  22.430  31.782   6.558
 4789POPC   C3B60597  22.555  31.616   6.972
 4789POPC   C4B60598  22.290  31.449   7.288
 4790POPC   NC360599  18.791  36.232   5.271
 4790POPC   PO460600  18.180  35.866   5.441
 4790POPC   GL160601  18.417  36.016   5.790
 4790POPC   GL260602  18.283  35.704   5.962
 4790POPC   C1A60603  18.406  36.328   6.139
 4790POPC   D2A60604  18.228  36.276   6.568
 4790POPC   C3A60605  18.359  36.100   6.983
 4790POPC   C4A60606  18.287  36.221   7.409
 4790POPC   C1B60607  17.975  36.042   6.092
 4790POPC   C2B60608  17.739  36.092   6.440
 4790POPC   C3B60609  17.846  36.066   6.845
 4790POPC   C4B60610  17.886  35.871   7.213
 4791POPC   NC360611  17.000  28.308   5.339
 4791POPC   PO460612  16.484  27.767   5.501
 4791POPC   GL160613  16.802  28.063   5.789
 4791POPC   GL260614  16.702  28.438   5.899
 4791POPC   C1A60615  16.925  28.108   6.206
 4791POPC   D2A60616  16.705  28.375   6.490
 4791POPC   C3A60617  16.845  28.201   6.857
 4791POPC   C4A60618  17.179  28.335   7.079
 4791POPC   C1B60619  16.442  28.726   6.217
 4791POPC   C2B60620  16.344  28.837   6.648
 4791POPC   C3B60621  16.353  28.619   7.052
 4791POPC   C4B60622  16.708  28.424   7.296
 4792POPC   NC360623   2.792  14.735   5.553
 4792POPC   PO460624   2.770  15.329   5.345
 4792POPC   GL160625   2.895  15.176   5.814
 4792POPC   GL260626   3.097  14.862   5.925
 4792POPC   C1A60627   2.667  15.104   6.223
 4792POPC   D2A60628   2.565  15.343   6.605
 4792POPC   C3A60629   2.619  15.190   7.015
 4792POPC   C4A60630   2.769  15.342   7.423
 4792POPC   C1B60631   3.143  15.001   6.330
 4792POPC   C2B60632   3.071  15.213   6.698
 4792POPC   C3B60633   3.107  15.083   7.120
 4792POPC   C4B60634   3.085  14.910   7.539
 4793POPC   NC360635   8.395  32.614   5.516
 4793POPC   PO460636   8.076  32.000   5.438
 4793POPC   GL160637   8.052  32.355   5.812
 4793POPC   GL260638   8.378  32.532   6.000
 4793POPC   C1A60639   8.015  32.374   6.296
 4793POPC   D2A60640   8.053  32.626   6.675
 4793POPC   C3A60641   7.883  32.371   6.999
 4793POPC   C4A60642   7.920  31.926   7.166
 4793POPC   C1B60643   8.505  32.568   6.437
 4793POPC   C2B60644   8.408  32.286   6.796
 4793POPC   C3B60645   8.349  32.222   7.249
 4793POPC   C4B60646   8.356  32.431   7.700
 4794POPC   NC360647  12.151  36.455   5.425
 4794POPC   PO460648  11.669  35.888   5.446
 4794POPC   GL160649  11.922  36.141   5.747
 4794POPC   GL260650  12.283  36.009   5.797
 4794POPC   C1A60651  12.075  36.307   6.151
 4794POPC   D2A60652  11.915  36.284   6.556
 4794POPC   C3A60653  12.116  36.302   6.970
 4794POPC   C4A60654  12.339  36.010   7.275
 4794POPC   C1B60655  12.204  35.813   6.252
 4794POPC   C2B60656  12.170  35.853   6.741
 4794POPC   C3B60657  11.888  35.840   7.136
 4794POPC   C4B60658  12.077  35.649   7.527
 4795POPC   NC360659  38.836  35.470   5.535
 4795POPC   PO460660  39.487  35.208   5.365
 4795POPC   GL160661  39.367  35.283   5.788
 4795POPC   GL260662  39.276  35.628   5.784
 4795POPC   C1A60663  39.479  35.298   6.238
 4795POPC   D2A60664  39.451  35.105   6.655
 4795POPC   C3A60665  39.256  35.187   7.034
 4795POPC   C4A60666  39.369  35.491   7.362
 4795POPC   C1B60667  39.056  35.562   6.157
 4795POPC   C2B60668  39.020  35.416   6.573
 4795POPC   C3B60669  39.021  35.629   6.985
 4795POPC   C4B60670  39.039  35.903   7.316
 4796POPC   NC360671  25.236  27.302   5.392
 4796POPC   PO460672  25.684  27.815   5.316
 4796POPC   GL160673  25.501  27.619   5.716
 4796POPC   GL260674  25.135  27.662   5.803
 4796POPC   C1A60675  25.544  27.421   6.150
 4796POPC   D2A60676  25.386  27.385   6.597
 4796POPC   C3A60677  25.578  27.649   6.917
 4796POPC   C4A60678  25.494  28.041   7.067
 4796POPC   C1B60679  24.972  27.556   6.251
 4796POPC   C2B60680  24.892  27.392   6.701
 4796POPC   C3B60681  25.117  27.484   7.106
 4796POPC   C4B60682  24.902  27.557   7.510
 4797POPC   NC360683  36.180   7.934   5.264
 4797POPC   PO460684  36.452   8.427   5.437
 4797POPC   GL160685  36.247   8.203   5.792
 4797POPC   GL260686  35.982   7.971   5.757
 4797POPC   C1A60687  36.256   8.159   6.267
 4797POPC   D2A60688  36.258   8.470   6.627
 4797POPC   C3A60689  36.140   8.269   7.012
 4797POPC   C4A60690  36.061   8.109   7.429
 4797POPC   C1B60691  35.765   8.049   6.133
 4797POPC   C2B60692  35.810   8.229   6.560
 4797POPC   C3B60693  35.648   8.121   6.971
 4797POPC   C4B60694  35.633   7.864   7.343
 4798POPC   NC360695  42.515  14.360   5.491
 4798POPC   PO460696  41.884  14.105   5.467
 4798POPC   GL160697  42.163  14.178   5.820
 4798POPC   GL260698  42.013  14.491   5.840
 4798POPC   C1A60699  42.405  14.473   6.137
 4798POPC   D2A60700  42.498  14.648   6.536
 4798POPC   C3A60701  42.553  14.437   6.919
 4798POPC   C4A60702  42.476  14.194   7.283
 4798POPC   C1B60703  41.968  14.250   6.281
 4798POPC   C2B60704  42.075  14.374   6.703
 4798POPC   C3B60705  42.043  14.441   7.142
 4798POPC   C4B60706  41.966  14.021   7.309
 4799POPC   NC360707  39.740  44.534   5.369
 4799POPC   PO460708  39.157  44.567   5.396
 4799POPC   GL160709  39.400  44.731   5.748
 4799POPC   GL260710  39.108  44.915   5.796
 4799POPC   C1A60711  39.420  44.663   6.243
 4799POPC   D2A60712  39.183  44.509   6.627
 4799POPC   C3A60713  39.254  44.588   7.078
 4799POPC   C4A60714  39.072  44.603   7.501
 4799POPC   C1B60715  38.982   0.147   6.100
 4799POPC   C2B60716  39.046  44.970   6.467
 4799POPC   C3B60717  39.198   0.065   6.849
 4799POPC   C4B60718  39.038   0.042   7.231
 4800POPC   NC360719   3.211  14.367   5.114
 4800POPC   PO460720   3.771  14.194   5.399
 4800POPC   GL160721   3.745  14.198   5.833
 4800POPC   GL260722   3.498  14.480   5.888
 4800POPC   C1A60723   3.801  14.307   6.274
 4800POPC   D2A60724   3.664  14.447   6.668
 4800POPC   C3A60725   3.891  14.356   7.029
 4800POPC   C4A60726   3.913  14.621   7.377
 4800POPC   C1B60727   3.291  14.516   6.319
 4800POPC   C2B60728   3.252  14.714   6.755
 4800POPC   C3B60729   3.315  14.599   7.192
 4800POPC   C4B60730   3.076  14.383   7.545
 4801POPC   NC360731   5.098  15.542   5.355
 4801POPC   PO460732   5.057  14.874   5.279
 4801POPC   GL160733   5.145  15.153   5.695
 4801POPC   GL260734   4.843  15.292   5.814
 4801POPC   C1A60735   5.233  15.311   6.178
 4801POPC   D2A60736   5.483  15.252   6.584
 4801POPC   C3A60737   5.292  15.127   6.956
 4801POPC   C4A60738   5.176  15.231   7.352
 4801POPC   C1B60739   4.791  15.579   6.188
 4801POPC   C2B60740   4.825  15.472   6.628
 4801POPC   C3B60741   4.903  15.544   7.049
 4801POPC   C4B60742   4.863  15.566   7.544
 4802POPC   NC360743   8.625  42.127   5.377
 4802POPC   PO460744   9.219  42.462   5.539
 4802POPC   GL160745   8.980  42.308   5.870
 4802POPC   GL260746   9.160  42.017   5.923
 4802POPC   C1A60747   9.107  42.394   6.302
 4802POPC   D2A60748   9.299  42.293   6.697
 4802POPC   C3A60749   9.097  42.557   6.979
 4802POPC   C4A60750   8.853  42.542   7.330
 4802POPC   C1B60751   8.839  41.955   6.273
 4802POPC   C2B60752   8.838  41.943   6.731
 4802POPC   C3B60753   8.990  42.086   7.103
 4802POPC   C4B60754   8.881  42.082   7.531
 4803POPC   NC360755  13.333  40.516   5.323
 4803POPC   PO460756  13.595  39.878   5.339
 4803POPC   GL160757  13.517  40.003   5.725
 4803POPC   GL260758  13.588  39.707   5.843
 4803POPC   C1A60759  13.609  40.141   6.143
 4803POPC   D2A60760  13.454  40.031   6.577
 4803POPC   C3A60761  13.597  40.231   6.907
 4803POPC   C4A60762  13.581  40.232   7.316
 4803POPC   C1B60763  13.539  39.648   6.270
 4803POPC   C2B60764  13.814  39.679   6.635
 4803POPC   C3B60765  13.712  39.748   7.061
 4803POPC   C4B60766  13.775  39.773   7.491
 4804POPC   NC360767  25.134   7.709   5.158
 4804POPC   PO460768  24.826   8.261   5.492
 4804POPC   GL160769  25.056   8.358   5.843
 4804POPC   GL260770  25.397   8.282   5.782
 4804POPC   C1A60771  25.131   8.176   6.252
 4804POPC   D2A60772  25.135   8.319   6.676
 4804POPC   C3A60773  25.060   7.943   6.907
 4804POPC   C4A60774  24.928   7.819   7.292
 4804POPC   C1B60775  25.631   8.203   6.198
 4804POPC   C2B60776  25.575   8.046   6.615
 4804POPC   C3B60777  25.657   8.113   7.049
 4804POPC   C4B60778  25.425   7.945   7.385
 4805POPC   NC360779  21.330   9.413   5.196
 4805POPC   PO460780  21.738   9.874   5.422
 4805POPC   GL160781  21.552   9.810   5.845
 4805POPC   GL260782  21.211   9.870   5.797
 4805POPC   C1A60783  21.574   9.608   6.281
 4805POPC   D2A60784  21.583   9.303   6.598
 4805POPC   C3A60785  21.661   9.502   6.978
 4805POPC   C4A60786  21.381   9.797   7.173
 4805POPC   C1B60787  21.139   9.871   6.229
 4805POPC   C2B60788  21.213   9.737   6.658
 4805POPC   C3B60789  20.927   9.634   6.984
 4805POPC   C4B60790  20.836   9.818   7.351
 4806POPC   NC360791   6.559  29.534   5.607
 4806POPC   PO460792   6.964  28.995   5.568
 4806POPC   GL160793   6.598  29.123   5.899
 4806POPC   GL260794   6.330  29.428   6.031
 4806POPC   C1A60795   6.603  29.125   6.335
 4806POPC   D2A60796   6.912  29.169   6.615
 4806POPC   C3A60797   6.701  29.408   6.889
 4806POPC   C4A60798   6.818  29.137   7.170
 4806POPC   C1B60799   6.074  29.191   6.290
 4806POPC   C2B60800   6.208  28.849   6.544
 4806POPC   C3B60801   6.424  28.893   6.930
 4806POPC   C4B60802   6.304  29.254   7.184
 4807POPC   NC360803  32.500  26.252   5.665
 4807POPC   PO460804  31.785  26.353   5.534
 4807POPC   GL160805  31.962  26.105   5.889
 4807POPC   GL260806  32.157  25.800   5.865
 4807POPC   C1A60807  32.252  26.199   6.277
 4807POPC   D2A60808  32.574  26.166   6.586
 4807POPC   C3A60809  32.463  26.181   7.013
 4807POPC   C4A60810  32.383  26.490   7.334
 4807POPC   C1B60811  31.966  25.791   6.298
 4807POPC   C2B60812  32.037  25.959   6.744
 4807POPC   C3B60813  32.049  25.913   7.200
 4807POPC   C4B60814  32.231  25.607   7.503
 4808POPC   NC360815  30.953  32.952   5.395
 4808POPC   PO460816  30.282  33.015   5.337
 4808POPC   GL160817  30.619  33.162   5.715
 4808POPC   GL260818  30.707  32.853   5.842
 4808POPC   C1A60819  30.608  33.339   6.161
 4808POPC   D2A60820  30.707  33.312   6.606
 4808POPC   C3A60821  30.469  33.077   6.927
 4808POPC   C4A60822  30.541  32.920   7.341
 4808POPC   C1B60823  30.873  32.916   6.238
 4808POPC   C2B60824  30.757  32.773   6.638
 4808POPC   C3B60825  30.947  32.887   7.022
 4808POPC   C4B60826  31.295  32.649   7.217
 4809POPC   NC360827  44.497  19.291   5.458
 4809POPC   PO460828  44.946  18.847   5.620
 4809POPC   GL160829  44.574  18.955   5.855
 4809POPC   GL260830  44.479  19.322   5.949
 4809POPC   C1A60831  44.639  18.982   6.281
 4809POPC   D2A60832  44.787  19.073   6.671
 4809POPC   C3A60833  44.620  18.900   7.048
 4809POPC   C4A60834  44.249  18.805   7.278
 4809POPC   C1B60835  44.316  19.372   6.332
 4809POPC   C2B60836  44.273  19.090   6.636
 4809POPC   C3B60837  44.317  19.359   6.917
 4809POPC   C4B60838  44.581  19.388   7.191
 4810POPC   NC360839  30.937  35.587   5.580
 4810POPC   PO460840  31.118  34.945   5.525
 4810POPC   GL160841  30.914  35.121   5.905
 4810POPC   GL260842  30.735  35.447   6.024
 4810POPC   C1A60843  30.983  35.186   6.369
 4810POPC   D2A60844  30.650  35.339   6.610
 4810POPC   C3A60845  30.765  35.210   7.001
 4810POPC   C4A60846  30.705  35.146   7.402
 4810POPC   C1B60847  30.351  35.567   6.249
 4810POPC   C2B60848  30.124  35.575   6.622
 4810POPC   C3B60849  30.247  35.692   7.051
 4810POPC   C4B60850  30.627  35.625   7.271
 4811POPC   NC360851   9.931  14.949   5.585
 4811POPC   PO460852   9.695  15.455   5.298
 4811POPC   GL160853   9.542  15.296   5.696
 4811POPC   GL260854   9.442  14.933   5.794
 4811POPC   C1A60855   9.564  15.299   6.148
 4811POPC   D2A60856   9.684  15.150   6.588
 4811POPC   C3A60857   9.875  15.428   6.910
 4811POPC   C4A60858  10.086  15.369   7.290
 4811POPC   C1B60859   9.456  14.785   6.264
 4811POPC   C2B60860   9.466  14.711   6.756
 4811POPC   C3B60861   9.655  14.945   7.099
 4811POPC   C4B60862   9.671  15.159   7.506
 4812POPC   NC360863  11.616   7.098   5.433
 4812POPC   PO460864  11.192   6.602   5.111
 4812POPC   GL160865  11.245   6.485   5.633
 4812POPC   GL260866  11.556   6.667   5.752
 4812POPC   C1A60867  11.210   6.603   6.092
 4812POPC   D2A60868  11.377   6.739   6.484
 4812POPC   C3A60869  11.077   6.758   6.819
 4812POPC   C4A60870  11.259   6.685   7.212
 4812POPC   C1B60871  11.579   7.018   6.090
 4812POPC   C2B60872  11.608   7.217   6.514
 4812POPC   C3B60873  11.499   7.089   6.952
 4812POPC   C4B60874  11.623   7.004   7.384
 4813POPC   NC360875  14.839  32.072   5.209
 4813POPC   PO460876  14.225  32.304   5.368
 4813POPC   GL160877  14.332  32.159   5.762
 4813POPC   GL260878  14.656  32.269   5.720
 4813POPC   C1A60879  14.543  32.064   6.173
 4813POPC   D2A60880  14.620  32.209   6.579
 4813POPC   C3A60881  14.578  32.049   6.976
 4813POPC   C4A60882  14.301  32.262   7.276
 4813POPC   C1B60883  14.667  32.550   6.120
 4813POPC   C2B60884  14.849  32.646   6.532
 4813POPC   C3B60885  14.757  32.543   6.964
 4813POPC   C4B60886  14.677  32.575   7.399
 4814POPC   NC360887   1.989   3.120   4.965
 4814POPC   PO460888   1.851   2.504   5.352
 4814POPC   GL160889   2.069   2.716   5.729
 4814POPC   GL260890   1.779   2.645   5.903
 4814POPC   C1A60891   2.095   2.926   6.178
 4814POPC   D2A60892   1.848   2.747   6.545
 4814POPC   C3A60893   2.042   2.784   6.981
 4814POPC   C4A60894   2.259   2.706   7.381
 4814POPC   C1B60895   2.097   2.437   6.193
 4814POPC   C2B60896   2.150   2.268   6.624
 4814POPC   C3B60897   2.237   2.247   7.089
 4814POPC   C4B60898   2.051   2.261   7.520
 4815POPC   NC360899  11.451  10.261   5.510
 4815POPC   PO460900  10.992  10.683   5.248
 4815POPC   GL160901  11.321  10.700   5.781
 4815POPC   GL260902  11.669  10.637   5.794
 4815POPC   C1A60903  11.220  10.535   6.230
 4815POPC   D2A60904  11.190  10.703   6.662
 4815POPC   C3A60905  11.149  10.387   6.967
 4815POPC   C4A60906  11.276  10.262   7.381
 4815POPC   C1B60907  11.675  10.729   6.246
 4815POPC   C2B60908  11.669  10.505   6.670
 4815POPC   C3B60909  11.601  10.581   7.118
 4815POPC   C4B60910  11.252  10.754   7.364
 4816POPC   NC360911  22.020  36.893   5.068
 4816POPC   PO460912  22.393  37.266   5.571
 4816POPC   GL160913  22.189  36.937   5.752
 4816POPC   GL260914  22.490  36.727   5.723
 4816POPC   C1A60915  21.917  36.911   6.119
 4816POPC   D2A60916  21.805  36.715   6.514
 4816POPC   C3A60917  21.883  36.947   6.909
 4816POPC   C4A60918  21.865  36.716   7.304
 4816POPC   C1B60919  22.526  36.937   6.151
 4816POPC   C2B60920  22.290  36.931   6.545
 4816POPC   C3B60921  22.451  36.994   6.960
 4816POPC   C4B60922  22.642  37.103   7.371
 4817POPC   NC360923   4.397  38.233   5.088
 4817POPC   PO460924   3.974  38.665   5.291
 4817POPC   GL160925   4.154  38.564   5.736
 4817POPC   GL260926   4.525  38.644   5.799
 4817POPC   C1A60927   4.295  38.373   6.156
 4817POPC   D2A60928   4.174  38.314   6.580
 4817POPC   C3A60929   4.455  38.201   6.895
 4817POPC   C4A60930   4.282  38.251   7.267
 4817POPC   C1B60931   4.611  38.778   6.263
 4817POPC   C2B60932   4.594  38.654   6.732
 4817POPC   C3B60933   4.686  38.624   7.233
 4817POPC   C4B60934   4.982  38.659   7.650
 4818POPC   NC360935  19.852   9.585   4.842
 4818POPC   PO460936  19.450   9.399   5.399
 4818POPC   GL160937  19.748   9.535   5.752
 4818POPC   GL260938  19.946   9.831   5.651
 4818POPC   C1A60939  19.879   9.739   6.161
 4818POPC   D2A60940  19.739   9.857   6.569
 4818POPC   C3A60941  19.872   9.571   6.947
 4818POPC   C4A60942  19.988   9.618   7.433
 4818POPC   C1B60943  20.242  10.039   5.966
 4818POPC   C2B60944  20.234  10.019   6.440
 4818POPC   C3B60945  20.085  10.032   6.873
 4818POPC   C4B60946  20.191  10.132   7.278
 4819POPC   NC360947  43.653   6.797   5.455
 4819POPC   PO460948  43.675   6.112   5.502
 4819POPC   GL160949  43.711   6.427   5.866
 4819POPC   GL260950  43.743   6.811   5.962
 4819POPC   C1A60951  43.680   6.436   6.335
 4819POPC   D2A60952  43.654   6.771   6.641
 4819POPC   C3A60953  43.713   6.666   7.067
 4819POPC   C4A60954  44.095   6.569   7.242
 4819POPC   C1B60955  44.190   6.961   6.101
 4819POPC   C2B60956  44.411   7.034   6.501
 4819POPC   C3B60957  44.248   6.910   6.895
 4819POPC   C4B60958  43.946   7.104   7.181
 4820POPC   NC360959  18.213  14.711   5.342
 4820POPC   PO460960  18.673  14.374   4.986
 4820POPC   GL160961  18.630  14.495   5.550
 4820POPC   GL260962  18.331  14.379   5.725
 4820POPC   C1A60963  18.662  14.482   6.082
 4820POPC   D2A60964  18.406  14.587   6.508
 4820POPC   C3A60965  18.574  14.502   6.948
 4820POPC   C4A60966  18.503  14.654   7.387
 4820POPC   C1B60967  18.207  14.246   6.162
 4820POPC   C2B60968  18.048  14.225   6.594
 4820POPC   C3B60969  18.045  14.544   6.903
 4820POPC   C4B60970  18.182  14.308   7.242
 4821POPC   NC360971   8.856  10.074   5.402
 4821POPC   PO460972   9.366   9.627   5.375
 4821POPC   GL160973   9.104   9.663   5.763
 4821POPC   GL260974   8.752   9.683   5.779
 4821POPC   C1A60975   9.116   9.562   6.219
 4821POPC   D2A60976   8.844   9.705   6.520
 4821POPC   C3A60977   8.837   9.554   6.942
 4821POPC   C4A60978   9.171   9.432   7.244
 4821POPC   C1B60979   8.846  10.030   6.083
 4821POPC   C2B60980   8.794  10.209   6.494
 4821POPC   C3B60981   8.975  10.105   6.887
 4821POPC   C4B60982   8.988   9.908   7.279
 4822POPC   NC360983  26.211  27.081   5.393
 4822POPC   PO460984  25.979  26.483   5.471
 4822POPC   GL160985  26.018  26.799   5.774
 4822POPC   GL260986  26.317  26.638   5.904
 4822POPC   C1A60987  25.948  26.969   6.191
 4822POPC   D2A60988  26.091  26.872   6.622
 4822POPC   C3A60989  26.041  27.014   7.052
 4822POPC   C4A60990  25.808  26.897   7.473
 4822POPC   C1B60991  25.968  26.424   6.154
 4822POPC   C2B60992  25.804  26.453   6.587
 4822POPC   C3B60993  26.049  26.499   6.979
 4822POPC   C4B60994  26.191  26.551   7.426
 4823POPC   NC360995  24.030  34.683   5.605
 4823POPC   PO460996  24.653  34.364   5.460
 4823POPC   GL160997  24.511  34.573   5.828
 4823POPC   GL260998  24.559  34.913   5.711
 4823POPC   C1A60999  24.461  34.555   6.295
 4823POPC   D2A61000  24.760  34.354   6.625
 4823POPC   C3A61001  24.619  34.386   7.054
 4823POPC   C4A61002  24.276  34.579   7.273
 4823POPC   C1B61003  24.745  34.952   6.120
 4823POPC   C2B61004  24.695  34.900   6.570
 4823POPC   C3B61005  24.535  34.926   6.982
 4823POPC   C4B61006  24.727  34.799   7.354
 4824POPC   NC361007  28.616   5.206   5.405
 4824POPC   PO461008  28.062   5.534   5.322
 4824POPC   GL161009  28.252   5.317   5.757
 4824POPC   GL261010  28.551   5.047   5.866
 4824POPC   C1A61011  28.164   5.141   6.189
 4824POPC   D2A61012  28.390   5.340   6.507
 4824POPC   C3A61013  28.429   5.362   6.933
 4824POPC   C4A61014  28.183   5.168   7.254
 4824POPC   C1B61015  28.510   4.782   6.228
 4824POPC   C2B61016  28.334   4.840   6.626
 4824POPC   C3B61017  28.541   4.879   7.003
 4824POPC   C4B61018  28.808   4.762   7.315
 4825POPC   NC361019  13.944  41.253   5.431
 4825POPC   PO461020  13.531  41.664   5.194
 4825POPC   GL161021  13.520  41.609   5.709
 4825POPC   GL261022  13.825  41.737   5.906
 4825POPC   C1A61023  13.515  41.453   6.199
 4825POPC   D2A61024  13.604  41.489   6.678
 4825POPC   C3A61025  13.774  41.243   7.046
 4825POPC   C4A61026  14.007  41.336   7.460
 4825POPC   C1B61027  13.628  41.961   6.282
 4825POPC   C2B61028  13.627  42.010   6.729
 4825POPC   C3B61029  13.797  41.759   7.081
 4825POPC   C4B61030  13.419  41.556   7.259
 4826POPC   NC361031  10.931  21.753   5.196
 4826POPC   PO461032  11.437  21.462   5.409
 4826POPC   GL161033  11.242  21.605   5.797
 4826POPC   GL261034  11.055  21.311   5.884
 4826POPC   C1A61035  11.382  21.580   6.244
 4826POPC   D2A61036  11.308  21.466   6.682
 4826POPC   C3A61037  11.059  21.655   6.980
 4826POPC   C4A61038  11.411  21.653   7.235
 4826POPC   C1B61039  11.003  21.232   6.335
 4826POPC   C2B61040  11.158  20.989   6.677
 4826POPC   C3B61041  11.394  21.105   7.093
 4826POPC   C4B61042  11.221  20.981   7.522
 4827POPC   NC361043   8.769  21.480   5.416
 4827POPC   PO461044   9.432  21.418   5.381
 4827POPC   GL161045   9.172  21.542   5.786
 4827POPC   GL261046   8.953  21.287   5.898
 4827POPC   C1A61047   8.992  21.686   6.215
 4827POPC   D2A61048   8.738  21.572   6.602
 4827POPC   C3A61049   8.911  21.518   7.025
 4827POPC   C4A61050   9.102  21.831   7.267
 4827POPC   C1B61051   8.639  21.034   6.142
 4827POPC   C2B61052   8.502  21.078   6.556
 4827POPC   C3B61053   8.474  21.274   6.943
 4827POPC   C4B61054   8.669  21.137   7.313
 4828POPC   NC361055  42.074  44.712   5.488
 4828POPC   PO461056  42.636  44.288   5.368
 4828POPC   GL161057  42.491  44.398   5.805
 4828POPC   GL261058  42.354  44.744   5.904
 4828POPC   C1A61059  42.669  44.477   6.226
 4828POPC   D2A61060  42.547  44.314   6.614
 4828POPC   C3A61061  42.338  44.605   6.852
 4828POPC   C4A61062  42.469  44.603   7.239
 4828POPC   C1B61063  42.490   0.142   6.121
 4828POPC   C2B61064  42.513   0.357   6.520
 4828POPC   C3B61065  42.484   0.096   6.871
 4828POPC   C4B61066  42.251   0.054   7.239
 4829POPC   NC361067  25.788   9.277   5.446
 4829POPC   PO461068  26.214   8.698   5.366
 4829POPC   GL161069  26.078   8.950   5.719
 4829POPC   GL261070  25.757   9.090   5.920
 4829POPC   C1A61071  26.227   8.966   6.113
 4829POPC   D2A61072  26.405   8.919   6.488
 4829POPC   C3A61073  26.172   9.009   6.844
 4829POPC   C4A61074  26.386   8.969   7.241
 4829POPC   C1B61075  25.819   9.017   6.392
 4829POPC   C2B61076  25.660   8.811   6.753
 4829POPC   C3B61077  25.739   8.999   7.139
 4829POPC   C4B61078  26.032   9.309   7.262
 4830POPC   NC361079   9.099  37.766   5.427
 4830POPC   PO461080   8.556  38.140   5.456
 4830POPC   GL161081   8.776  37.918   5.786
 4830POPC   GL261082   8.897  37.567   5.851
 4830POPC   C1A61083   8.968  37.960   6.181
 4830POPC   D2A61084   8.811  37.924   6.590
 4830POPC   C3A61085   8.994  37.746   6.951
 4830POPC   C4A61086   8.611  37.758   7.151
 4830POPC   C1B61087   8.999  37.416   6.246
 4830POPC   C2B61088   8.884  37.350   6.651
 4830POPC   C3B61089   9.158  37.252   6.978
 4830POPC   C4B61090   9.326  37.510   7.283
 4831POPC   NC361091  32.170  34.160   5.435
 4831POPC   PO461092  32.036  34.855   5.498
 4831POPC   GL161093  32.119  34.528   5.800
 4831POPC   GL261094  32.476  34.365   5.818
 4831POPC   C1A61095  32.125  34.509   6.240
 4831POPC   D2A61096  32.339  34.330   6.555
 4831POPC   C3A61097  32.161  34.248   6.954
 4831POPC   C4A61098  32.245  34.460   7.376
 4831POPC   C1B61099  32.517  34.775   6.043
 4831POPC   C2B61100  32.413  34.873   6.492
 4831POPC   C3B61101  32.378  34.716   6.912
 4831POPC   C4B61102  32.515  34.928   7.261
 4832POPC   NC361103  24.156  22.513   5.334
 4832POPC   PO461104  23.515  22.244   5.410
 4832POPC   GL161105  23.517  21.986   5.813
 4832POPC   GL261106  23.886  22.009   5.848
 4832POPC   C1A61107  23.569  22.067   6.279
 4832POPC   D2A61108  23.558  22.390   6.582
 4832POPC   C3A61109  23.401  22.288   7.013
 4832POPC   C4A61110  23.320  22.039   7.388
 4832POPC   C1B61111  24.041  22.293   6.114
 4832POPC   C2B61112  24.105  22.189   6.518
 4832POPC   C3B61113  23.899  22.133   6.848
 4832POPC   C4B61114  23.832  22.129   7.256
 4833POPC   NC361115  14.797   2.903   5.381
 4833POPC   PO461116  15.336   2.774   5.255
 4833POPC   GL161117  15.251   2.693   5.702
 4833POPC   GL261118  15.376   2.395   5.879
 4833POPC   C1A61119  15.032   2.670   6.127
 4833POPC   D2A61120  14.925   2.543   6.562
 4833POPC   C3A61121  14.863   2.772   6.968
 4833POPC   C4A61122  14.803   2.817   7.430
 4833POPC   C1B61123  15.348   2.229   6.297
 4833POPC   C2B61124  15.376   2.349   6.713
 4833POPC   C3B61125  15.387   2.779   6.857
 4833POPC   C4B61126  15.256   2.986   7.247
 4834POPC   NC361127  22.024   5.280   5.316
 4834POPC   PO461128  22.085   4.596   5.305
 4834POPC   GL161129  22.202   4.931   5.675
 4834POPC   GL261130  21.923   5.180   5.790
 4834POPC   C1A61131  22.334   5.134   6.116
 4834POPC   D2A61132  22.491   5.283   6.538
 4834POPC   C3A61133  22.341   5.018   6.912
 4834POPC   C4A61134  22.071   4.920   7.320
 4834POPC   C1B61135  21.830   5.021   6.170
 4834POPC   C2B61136  21.984   5.161   6.537
 4834POPC   C3B61137  21.838   5.123   6.918
 4834POPC   C4B61138  21.877   5.370   7.265
 4835POPC   NC361139   3.296   2.268   5.496
 4835POPC   PO461140   3.700   1.775   5.393
 4835POPC   GL161141   3.563   1.922   5.821
 4835POPC   GL261142   3.878   2.062   5.859
 4835POPC   C1A61143   3.373   1.911   6.284
 4835POPC   D2A61144   3.162   2.165   6.620
 4835POPC   C3A61145   3.278   2.135   7.059
 4835POPC   C4A61146   3.388   1.784   7.330
 4835POPC   C1B61147   3.895   1.985   6.308
 4835POPC   C2B61148   3.720   2.091   6.700
 4835POPC   C3B61149   3.780   2.052   7.147
 4835POPC   C4B61150   3.732   2.072   7.591
 4836POPC   NC361151  13.125  12.601   5.415
 4836POPC   PO461152  12.464  12.636   5.410
 4836POPC   GL161153  12.783  12.904   5.686
 4836POPC   GL261154  13.099  12.741   5.894
 4836POPC   C1A61155  12.737  13.018   6.135
 4836POPC   D2A61156  12.585  12.862   6.540
 4836POPC   C3A61157  12.681  13.041   6.914
 4836POPC   C4A61158  12.829  12.802   7.237
 4836POPC   C1B61159  13.272  13.031   6.196
 4836POPC   C2B61160  13.064  13.116   6.585
 4836POPC   C3B61161  13.204  13.083   7.006
 4836POPC   C4B61162  13.187  13.041   7.483
 4837POPC   NC361163  11.941  39.575   5.233
 4837POPC   PO461164  11.625  40.087   5.300
 4837POPC   GL161165  11.952  39.981   5.647
 4837POPC   GL261166  12.303  39.781   5.608
 4837POPC   C1A61167  12.102  40.031   6.103
 4837POPC   D2A61168  12.054  40.189   6.549
 4837POPC   C3A61169  12.061  39.923   6.904
 4837POPC   C4A61170  11.815  39.895   7.244
 4837POPC   C1B61171  12.399  39.568   6.023
 4837POPC   C2B61172  12.280  39.643   6.477
 4837POPC   C3B61173  12.435  39.541   6.910
 4837POPC   C4B61174  12.280  39.655   7.315
 4838POPC   NC361175  32.929  42.718   5.248
 4838POPC   PO461176  33.025  43.361   5.399
 4838POPC   GL161177  33.032  42.975   5.724
 4838POPC   GL261178  33.387  42.938   5.897
 4838POPC   C1A61179  32.989  42.797   6.158
 4838POPC   D2A61180  32.926  42.961   6.546
 4838POPC   C3A61181  33.266  42.943   6.830
 4838POPC   C4A61182  33.103  42.893   7.210
 4838POPC   C1B61183  33.232  43.251   6.187
 4838POPC   C2B61184  33.198  43.415   6.618
 4838POPC   C3B61185  33.324  43.415   7.062
 4838POPC   C4B61186  33.289  43.473   7.524
 4839POPC   NC361187   8.456   3.465   5.028
 4839POPC   PO461188   8.023   3.977   5.204
 4839POPC   GL161189   7.935   3.639   5.571
 4839POPC   GL261190   8.047   3.810   5.905
 4839POPC   C1A61191   8.020   3.288   5.960
 4839POPC   D2A61192   8.207   3.419   6.381
 4839POPC   C3A61193   8.246   3.262   6.808
 4839POPC   C4A61194   8.215   3.478   7.260
 4839POPC   C1B61195   8.404   3.871   6.226
 4839POPC   C2B61196   8.472   4.052   6.615
 4839POPC   C3B61197   8.390   3.865   6.987
 4839POPC   C4B61198   8.012   3.962   7.274
 4840POPC   NC361199   4.981  38.829   5.639
 4840POPC   PO461200   5.459  39.241   5.324
 4840POPC   GL161201   5.181  39.291   5.750
 4840POPC   GL261202   5.006  39.615   5.852
 4840POPC   C1A61203   4.947  39.207   6.184
 4840POPC   D2A61204   5.151  39.264   6.596
 4840POPC   C3A61205   5.051  38.953   6.900
 4840POPC   C4A61206   4.953  39.043   7.311
 4840POPC   C1B61207   4.734  39.663   6.257
 4840POPC   C2B61208   4.749  39.539   6.715
 4840POPC   C3B61209   4.797  39.524   7.173
 4840POPC   C4B61210   4.541  39.538   7.586
 4841POPC   NC361211  31.588  20.705   5.480
 4841POPC   PO461212  31.789  20.122   5.517
 4841POPC   GL161213  31.587  20.398   5.883
 4841POPC   GL261214  31.313  20.710   5.889
 4841POPC   C1A61215  31.493  20.520   6.317
 4841POPC   D2A61216  31.495  20.367   6.698
 4841POPC   C3A61217  31.556  20.637   7.038
 4841POPC   C4A61218  31.773  20.679   7.410
 4841POPC   C1B61219  31.328  20.996   6.244
 4841POPC   C2B61220  31.204  20.845   6.656
 4841POPC   C3B61221  31.183  20.982   7.080
 4841POPC   C4B61222  31.183  20.784   7.462
 4842POPC   NC361223  28.080  30.172   5.403
 4842POPC   PO461224  28.528  29.620   5.374
 4842POPC   GL161225  28.262  29.805   5.739
 4842POPC   GL261226  28.274  30.172   5.860
 4842POPC   C1A61227  28.244  29.825   6.216
 4842POPC   D2A61228  28.233  30.131   6.568
 4842POPC   C3A61229  28.352  29.925   6.977
 4842POPC   C4A61230  28.462  29.824   7.424
 4842POPC   C1B61231  27.868  30.175   6.111
 4842POPC   C2B61232  27.742  30.313   6.536
 4842POPC   C3B61233  27.888  30.181   6.950
 4842POPC   C4B61234  28.198  30.366   7.225
 4843POPC   NC361235   6.736  32.087   5.410
 4843POPC   PO461236   6.299  32.595   5.322
 4843POPC   GL161237   6.440  32.432   5.727
 4843POPC   GL261238   6.426  32.082   5.842
 4843POPC   C1A61239   6.499  32.483   6.169
 4843POPC   D2A61240   6.282  32.339   6.543
 4843POPC   C3A61241   6.424  32.414   6.944
 4843POPC   C4A61242   6.614  32.161   7.236
 4843POPC   C1B61243   6.620  32.010   6.316
 4843POPC   C2B61244   6.842  32.180   6.717
 4843POPC   C3B61245   7.048  31.937   7.088
 4843POPC   C4B61246   7.169  31.898   7.569
 4844POPC   NC361247  43.597  22.018   5.438
 4844POPC   PO461248  44.048  22.560   5.451
 4844POPC   GL161249  43.939  22.330   5.801
 4844POPC   GL261250  43.804  22.012   5.887
 4844POPC   C1A61251  44.104  22.255   6.207
 4844POPC   D2A61252  43.963  21.982   6.551
 4844POPC   C3A61253  43.831  22.260   6.880
 4844POPC   C4A61254  43.995  22.485   7.234
 4844POPC   C1B61255  43.619  21.761   6.209
 4844POPC   C2B61256  43.434  21.690   6.603
 4844POPC   C3B61257  43.697  21.725   6.962
 4844POPC   C4B61258  43.787  21.988   7.313
 4845POPC   NC361259  30.899   3.127   5.446
 4845POPC   PO461260  30.500   2.619   5.691
 4845POPC   GL161261  30.564   2.938   5.923
 4845POPC   GL261262  30.925   2.914   5.902
 4845POPC   C1A61263  30.411   2.908   6.358
 4845POPC   D2A61264  30.210   2.702   6.726
 4845POPC   C3A61265  30.410   2.894   7.045
 4845POPC   C4A61266  30.846   2.976   7.141
 4845POPC   C1B61267  30.876   2.699   6.286
 4845POPC   C2B61268  30.754   2.696   6.725
 4845POPC   C3B61269  30.977   2.488   7.104
 4845POPC   C4B61270  31.088   2.488   7.551
 4846POPC   NC361271  11.710  29.224   5.544
 4846POPC   PO461272  12.353  28.889   5.575
 4846POPC   GL161273  12.391  29.200   5.900
 4846POPC   GL261274  12.050  29.277   5.906
 4846POPC   C1A61275  12.293  29.155   6.319
 4846POPC   D2A61276  12.002  28.907   6.533
 4846POPC   C3A61277  12.246  29.026   6.866
 4846POPC   C4A61278  12.240  29.166   7.256
 4846POPC   C1B61279  11.685  29.189   6.199
 4846POPC   C2B61280  11.486  29.239   6.633
 4846POPC   C3B61281  11.623  29.320   7.045
 4846POPC   C4B61282  11.802  29.525   7.406
 4847POPC   NC361283  43.206  27.406   5.178
 4847POPC   PO461284  42.852  27.829   5.603
 4847POPC   GL161285  43.070  27.631   5.895
 4847POPC   GL261286  43.075  27.286   5.878
 4847POPC   C1A61287  43.020  27.557   6.315
 4847POPC   D2A61288  43.180  27.662   6.705
 4847POPC   C3A61289  43.089  27.568   7.123
 4847POPC   C4A61290  42.726  27.373   7.118
 4847POPC   C1B61291  43.358  27.156   6.213
 4847POPC   C2B61292  43.482  27.248   6.618
 4847POPC   C3B61293  43.387  27.152   7.063
 4847POPC   C4B61294  43.494  27.415   7.430
 4848POPC   NC361295  26.329  32.749   5.327
 4848POPC   PO461296  26.089  33.351   5.508
 4848POPC   GL161297  25.961  33.150   5.866
 4848POPC   GL261298  25.951  32.827   5.726
 4848POPC   C1A61299  26.025  33.143   6.312
 4848POPC   D2A61300  25.839  33.322   6.663
 4848POPC   C3A61301  26.072  33.248   7.023
 4848POPC   C4A61302  25.813  33.105   7.339
 4848POPC   C1B61303  26.031  32.655   6.119
 4848POPC   C2B61304  26.216  32.674   6.533
 4848POPC   C3B61305  26.016  32.745   6.925
 4848POPC   C4B61306  26.043  32.657   7.352
 4849POPC   NC361307  20.166  14.056   5.135
 4849POPC   PO461308  19.606  14.426   5.344
 4849POPC   GL161309  19.691  14.231   5.749
 4849POPC   GL261310  19.920  14.504   5.795
 4849POPC   C1A61311  19.817  14.144   6.202
 4849POPC   D2A61312  19.614  14.271   6.591
 4849POPC   C3A61313  19.802  14.131   6.975
 4849POPC   C4A61314  19.725  14.231   7.446
 4849POPC   C1B61315  19.776  14.665   6.183
 4849POPC   C2B61316  19.871  14.717   6.628
 4849POPC   C3B61317  19.813  14.638   7.074
 4849POPC   C4B61318  20.079  14.845   7.348
 4850POPC   NC361319  22.627   7.864   5.258
 4850POPC   PO461320  23.095   8.318   5.466
 4850POPC   GL161321  22.870   8.353   5.832
 4850POPC   GL261322  22.972   8.028   5.898
 4850POPC   C1A61323  22.675   8.253   6.258
 4850POPC   D2A61324  22.829   8.292   6.710
 4850POPC   C3A61325  22.648   8.594   7.052
 4850POPC   C4A61326  22.741   8.589   7.518
 4850POPC   C1B61327  23.193   8.250   6.230
 4850POPC   C2B61328  23.371   8.249   6.594
 4850POPC   C3B61329  23.265   8.117   6.958
 4850POPC   C4B61330  22.985   8.248   7.230
 4851POPC   NC361331   3.077   7.255   5.578
 4851POPC   PO461332   2.756   6.820   5.182
 4851POPC   GL161333   2.797   6.726   5.641
 4851POPC   GL261334   2.479   6.795   5.841
 4851POPC   C1A61335   2.889   6.566   6.074
 4851POPC   D2A61336   3.002   6.795   6.454
 4851POPC   C3A61337   2.797   6.587   6.776
 4851POPC   C4A61338   2.926   6.448   7.168
 4851POPC   C1B61339   2.354   6.458   6.167
 4851POPC   C2B61340   2.328   6.341   6.630
 4851POPC   C3B61341   2.432   6.433   7.099
 4851POPC   C4B61342   2.535   6.293   7.561
 4852POPC   NC361343  40.709  14.332   5.131
 4852POPC   PO461344  40.438  14.818   5.569
 4852POPC   GL161345  40.771  14.582   5.915
 4852POPC   GL261346  40.974  14.249   5.788
 4852POPC   C1A61347  40.695  14.558   6.327
 4852POPC   D2A61348  40.706  14.779   6.653
 4852POPC   C3A61349  40.506  14.670   7.022
 4852POPC   C4A61350  40.669  14.826   7.394
 4852POPC   C1B61351  40.811  14.090   6.187
 4852POPC   C2B61352  40.865  14.105   6.652
 4852POPC   C3B61353  40.791  14.124   7.121
 4852POPC   C4B61354  40.361  14.207   7.261
 4853POPC   NC361355   7.279  22.432   5.371
 4853POPC   PO461356   7.412  21.866   5.226
 4853POPC   GL161357   7.419  22.029   5.696
 4853POPC   GL261358   7.154  22.175   5.820
 4853POPC   C1A61359   7.539  22.125   6.123
 4853POPC   D2A61360   7.536  21.956   6.512
 4853POPC   C3A61361   7.631  22.190   6.862
 4853POPC   C4A61362   7.366  22.202   7.203
 4853POPC   C1B61363   7.179  22.494   6.119
 4853POPC   C2B61364   7.417  22.506   6.493
 4853POPC   C3B61365   7.284  22.597   6.887
 4853POPC   C4B61366   7.062  22.603   7.279
 4854POPC   NC361367  31.374  23.957   5.451
 4854POPC   PO461368  31.916  23.541   5.294
 4854POPC   GL161369  31.809  23.423   5.751
 4854POPC   GL261370  31.448  23.514   5.803
 4854POPC   C1A61371  31.775  23.461   6.229
 4854POPC   D2A61372  31.443  23.612   6.532
 4854POPC   C3A61373  31.433  23.472   6.980
 4854POPC   C4A61374  31.520  23.422   7.439
 4854POPC   C1B61375  31.441  23.902   6.093
 4854POPC   C2B61376  31.501  24.159   6.455
 4854POPC   C3B61377  31.409  24.022   6.855
 4854POPC   C4B61378  31.394  24.221   7.239
 4855POPC   NC361379  24.173  36.274   5.449
 4855POPC   PO461380  24.714  36.137   5.083
 4855POPC   GL161381  24.608  36.111   5.656
 4855POPC   GL261382  24.288  36.161   5.913
 4855POPC   C1A61383  24.728  36.247   6.127
 4855POPC   D2A61384  24.509  36.196   6.537
 4855POPC   C3A61385  24.617  36.094   6.935
 4855POPC   C4A61386  24.630  36.440   7.207
 4855POPC   C1B61387  24.348  35.856   6.223
 4855POPC   C2B61388  24.297  35.732   6.648
 4855POPC   C3B61389  24.126  35.891   7.024
 4855POPC   C4B61390  24.278  36.082   7.385
 4856POPC   NC361391  37.473  17.312   5.134
 4856POPC   PO461392  38.009  17.165   5.592
 4856POPC   GL161393  37.952  17.593   5.739
 4856POPC   GL261394  37.620  17.720   5.659
 4856POPC   C1A61395  37.984  17.764   6.156
 4856POPC   D2A61396  37.813  17.877   6.570
 4856POPC   C3A61397  37.856  17.492   6.792
 4856POPC   C4A61398  37.669  17.308   7.149
 4856POPC   C1B61399  37.456  17.710   6.104
 4856POPC   C2B61400  37.425  17.542   6.525
 4856POPC   C3B61401  37.391  17.701   6.944
 4856POPC   C4B61402  37.260  17.544   7.335
 4857POPC   NC361403  38.603   3.129   5.489
 4857POPC   PO461404  38.347   2.530   5.449
 4857POPC   GL161405  38.466   2.725   5.828
 4857POPC   GL261406  38.217   2.979   5.798
 4857POPC   C1A61407  38.323   2.692   6.263
 4857POPC   D2A61408  38.155   2.663   6.687
 4857POPC   C3A61409  38.476   2.734   7.026
 4857POPC   C4A61410  38.426   2.589   7.476
 4857POPC   C1B61411  38.439   3.196   6.140
 4857POPC   C2B61412  38.471   3.080   6.579
 4857POPC   C3B61413  38.475   3.242   6.984
 4857POPC   C4B61414  38.483   3.081   7.415
 4858POPC   NC361415  25.673  30.599   5.444
 4858POPC   PO461416  26.322  30.561   5.575
 4858POPC   GL161417  26.039  30.728   5.851
 4858POPC   GL261418  25.729  30.842   5.870
 4858POPC   C1A61419  26.025  30.894   6.271
 4858POPC   D2A61420  26.025  31.078   6.682
 4858POPC   C3A61421  26.114  30.792   7.027
 4858POPC   C4A61422  26.128  30.712   7.475
 4858POPC   C1B61423  25.647  30.547   6.184
 4858POPC   C2B61424  25.771  30.594   6.602
 4858POPC   C3B61425  25.751  30.424   6.970
 4858POPC   C4B61426  25.643  30.638   7.314
 4859POPC   NC361427  11.332  28.471   5.425
 4859POPC   PO461428  10.988  27.945   5.214
 4859POPC   GL161429  10.956  28.235   5.666
 4859POPC   GL261430  10.919  28.620   5.709
 4859POPC   C1A61431  11.165  28.314   6.094
 4859POPC   D2A61432  11.427  28.293   6.517
 4859POPC   C3A61433  11.413  28.234   6.993
 4859POPC   C4A61434  11.805  28.273   7.264
 4859POPC   C1B61435  10.879  28.741   6.147
 4859POPC   C2B61436  10.932  28.436   6.527
 4859POPC   C3B61437  10.951  28.555   6.984
 4859POPC   C4B61438  10.973  28.520   7.447
 4860POPC   NC361439  34.364  16.753   5.169
 4860POPC   PO461440  34.951  17.052   5.274
 4860POPC   GL161441  34.843  16.974   5.722
 4860POPC   GL261442  34.471  17.027   5.743
 4860POPC   C1A61443  34.816  16.750   6.151
 4860POPC   D2A61444  34.914  16.571   6.578
 4860POPC   C3A61445  34.772  16.733   6.995
 4860POPC   C4A61446  34.818  16.881   7.440
 4860POPC   C1B61447  34.289  16.817   6.124
 4860POPC   C2B61448  34.391  16.527   6.489
 4860POPC   C3B61449  34.274  16.538   6.930
 4860POPC   C4B61450  34.335  16.832   7.280
 4861POPC   NC361451  32.486   3.034   5.230
 4861POPC   PO461452  33.116   2.995   5.510
 4861POPC   GL161453  33.081   2.816   5.915
 4861POPC   GL261454  32.782   2.604   5.967
 4861POPC   C1A61455  32.943   3.004   6.315
 4861POPC   D2A61456  33.080   3.038   6.733
 4861POPC   C3A61457  32.931   2.844   7.113
 4861POPC   C4A61458  33.069   2.891   7.509
 4861POPC   C1B61459  33.067   2.512   6.347
 4861POPC   C2B61460  33.141   2.520   6.799
 4861POPC   C3B61461  33.181   2.411   7.266
 4861POPC   C4B61462  32.978   2.128   7.573
 4862POPC   NC361463  10.721  35.230   5.271
 4862POPC   PO461464  10.241  35.697   5.213
 4862POPC   GL161465  10.408  35.524   5.604
 4862POPC   GL261466  10.769  35.574   5.661
 4862POPC   C1A61467  10.496  35.260   5.986
 4862POPC   D2A61468  10.574  35.340   6.422
 4862POPC   C3A61469  10.248  35.272   6.736
 4862POPC   C4A61470  10.356  35.263   7.176
 4862POPC   C1B61471  10.947  35.519   6.081
 4862POPC   C2B61472  11.095  35.569   6.499
 4862POPC   C3B61473  10.899  35.590   6.900
 4862POPC   C4B61474  10.851  35.314   7.261
 4863POPC   NC361475  30.346  44.248   5.458
 4863POPC   PO461476  30.458  43.586   5.361
 4863POPC   GL161477  30.492  43.643   5.778
 4863POPC   GL261478  30.805  43.535   5.826
 4863POPC   C1A61479  30.616  43.908   6.140
 4863POPC   D2A61480  30.431  43.996   6.543
 4863POPC   C3A61481  30.658  43.954   6.968
 4863POPC   C4A61482  30.601  43.929   7.440
 4863POPC   C1B61483  31.031  43.553   6.221
 4863POPC   C2B61484  30.957  43.583   6.659
 4863POPC   C3B61485  31.057  43.364   7.023
 4863POPC   C4B61486  31.022  43.681   7.330
 4864POPC   NC361487   8.307   2.458   5.424
 4864POPC   PO461488   8.522   3.156   5.373
 4864POPC   GL161489   8.356   2.946   5.811
 4864POPC   GL261490   8.029   2.761   5.898
 4864POPC   C1A61491   8.293   2.932   6.291
 4864POPC   D2A61492   8.511   2.690   6.601
 4864POPC   C3A61493   8.390   2.734   6.973
 4864POPC   C4A61494   8.285   2.991   7.239
 4864POPC   C1B61495   7.881   2.609   6.323
 4864POPC   C2B61496   7.940   2.618   6.793
 4864POPC   C3B61497   7.915   2.634   7.273
 4864POPC   C4B61498   7.656   2.657   7.646
 4865POPC   NC361499  22.349   1.079   5.429
 4865POPC   PO461500  22.186   1.593   5.044
 4865POPC   GL161501  22.144   1.450   5.662
 4865POPC   GL261502  22.147   1.117   5.882
 4865POPC   C1A61503  21.880   1.456   6.120
 4865POPC   D2A61504  21.677   1.503   6.548
 4865POPC   C3A61505  21.860   1.377   6.944
 4865POPC   C4A61506  22.145   1.099   7.133
 4865POPC   C1B61507  22.325   0.954   6.229
 4865POPC   C2B61508  22.277   1.137   6.619
 4865POPC   C3B61509  22.530   0.920   6.872
 4865POPC   C4B61510  22.527   0.816   7.283
 4866POPC   NC361511  36.254   2.596   5.425
 4866POPC   PO461512  35.976   3.176   5.531
 4866POPC   GL161513  35.851   2.894   5.853
 4866POPC   GL261514  35.979   2.534   5.859
 4866POPC   C1A61515  35.786   2.978   6.283
 4866POPC   D2A61516  35.906   3.050   6.683
 4866POPC   C3A61517  35.785   2.796   7.006
 4866POPC   C4A61518  35.965   2.796   7.424
 4866POPC   C1B61519  36.200   2.671   6.232
 4866POPC   C2B61520  36.210   2.561   6.658
 4866POPC   C3B61521  36.310   2.673   7.043
 4866POPC   C4B61522  36.365   2.459   7.404
 4867POPC   NC361523  11.749  37.845   5.661
 4867POPC   PO461524  11.279  37.488   5.352
 4867POPC   GL161525  11.231  37.475   5.783
 4867POPC   GL261526  11.242  37.855   5.797
 4867POPC   C1A61527  11.440  37.435   6.185
 4867POPC   D2A61528  11.539  37.760   6.473
 4867POPC   C3A61529  11.394  37.784   6.889
 4867POPC   C4A61530  11.447  37.546   7.206
 4867POPC   C1B61531  11.062  37.788   6.193
 4867POPC   C2B61532  10.977  37.690   6.607
 4867POPC   C3B61533  10.888  37.993   6.915
 4867POPC   C4B61534  11.024  37.841   7.297
 4868POPC   NC361535  12.184  30.122   5.308
 4868POPC   PO461536  11.983  29.482   5.242
 4868POPC   GL161537  11.897  29.722   5.666
 4868POPC   GL261538  11.906  30.093   5.779
 4868POPC   C1A61539  11.927  29.696   6.153
 4868POPC   D2A61540  11.948  29.434   6.558
 4868POPC   C3A61541  12.066  29.566   6.960
 4868POPC   C4A61542  12.029  29.961   7.155
 4868POPC   C1B61543  12.224  30.138   6.139
 4868POPC   C2B61544  12.462  30.109   6.563
 4868POPC   C3B61545  12.436  30.308   6.999
 4868POPC   C4B61546  12.413  30.129   7.441
 4869POPC   NC361547   2.088  39.714   5.207
 4869POPC   PO461548   1.738  40.182   5.483
 4869POPC   GL161549   1.972  40.049   5.855
 4869POPC   GL261550   2.163  39.735   5.810
 4869POPC   C1A61551   2.020  40.235   6.267
 4869POPC   D2A61552   2.168  40.446   6.641
 4869POPC   C3A61553   1.836  40.379   6.936
 4869POPC   C4A61554   1.743  40.151   7.318
 4869POPC   C1B61555   1.968  39.704   6.255
 4869POPC   C2B61556   1.996  39.673   6.725
 4869POPC   C3B61557   2.132  39.955   7.030
 4869POPC   C4B61558   2.194  39.993   7.459
 4870POPC   NC361559  40.126  28.451   5.413
 4870POPC   PO461560  39.542  28.194   5.458
 4870POPC   GL161561  39.784  28.263   5.827
 4870POPC   GL261562  39.677  28.607   5.865
 4870POPC   C1A61563  39.794  28.320   6.303
 4870POPC   D2A61564  40.094  28.348   6.713
 4870POPC   C3A61565  40.031  28.205   7.175
 4870POPC   C4A61566  39.792  28.014   7.504
 4870POPC   C1B61567  39.711  28.832   6.262
 4870POPC   C2B61568  39.716  28.700   6.661
 4870POPC   C3B61569  39.832  28.648   7.051
 4870POPC   C4B61570  39.661  28.670   7.417
 4871POPC   NC361571  24.000   1.154   5.520
 4871POPC   PO461572  23.529   1.490   5.101
 4871POPC   GL161573  23.484   1.452   5.601
 4871POPC   GL261574  23.495   1.119   5.623
 4871POPC   C1A61575  23.679   1.423   6.047
 4871POPC   D2A61576  23.951   1.241   6.367
 4871POPC   C3A61577  23.909   1.367   6.792
 4871POPC   C4A61578  23.779   1.283   7.236
 4871POPC   C1B61579  23.231   1.213   5.987
 4871POPC   C2B61580  23.370   1.193   6.427
 4871POPC   C3B61581  23.494   1.070   6.838
 4871POPC   C4B61582  23.293   1.314   7.165
 4872POPC   NC361583   4.783  42.516   5.447
 4872POPC   PO461584   5.345  42.188   5.338
 4872POPC   GL161585   5.242  42.344   5.756
 4872POPC   GL261586   5.426  42.634   5.902
 4872POPC   C1A61587   5.083  42.075   6.112
 4872POPC   D2A61588   5.135  41.973   6.587
 4872POPC   C3A61589   4.985  42.303   6.898
 4872POPC   C4A61590   4.872  42.413   7.327
 4872POPC   C1B61591   5.346  42.455   6.317
 4872POPC   C2B61592   5.396  42.662   6.717
 4872POPC   C3B61593   5.476  42.427   7.084
 4872POPC   C4B61594   5.382  42.026   7.063
 4873POPC   NC361595  41.077  28.678   5.363
 4873POPC   PO461596  40.542  28.241   5.444
 4873POPC   GL161597  40.713  28.409   5.841
 4873POPC   GL261598  40.865  28.764   5.828
 4873POPC   C1A61599  40.731  28.434   6.309
 4873POPC   D2A61600  40.653  28.659   6.703
 4873POPC   C3A61601  40.801  28.483   7.100
 4873POPC   C4A61602  40.563  28.062   7.171
 4873POPC   C1B61603  41.178  28.504   6.043
 4873POPC   C2B61604  41.213  28.291   6.441
 4873POPC   C3B61605  40.995  28.099   6.810
 4873POPC   C4B61606  41.079  28.055   7.255
 4874POPC   NC361607  37.273  30.033   5.499
 4874POPC   PO461608  36.948  29.411   5.386
 4874POPC   GL161609  36.974  29.688   5.799
 4874POPC   GL261610  37.131  29.992   5.983
 4874POPC   C1A61611  36.665  29.835   6.144
 4874POPC   D2A61612  36.910  29.848   6.525
 4874POPC   C3A61613  36.693  29.843   6.905
 4874POPC   C4A61614  36.724  29.992   7.312
 4874POPC   C1B61615  36.886  30.290   6.236
 4874POPC   C2B61616  36.693  30.299   6.616
 4874POPC   C3B61617  36.854  30.367   6.989
 4874POPC   C4B61618  36.599  30.482   7.305
 4875POPC   NC361619   8.385  38.865   5.251
 4875POPC   PO461620   8.016  39.441   5.270
 4875POPC   GL161621   8.218  39.240   5.659
 4875POPC   GL261622   8.203  39.540   5.830
 4875POPC   C1A61623   8.410  39.114   6.098
 4875POPC   D2A61624   8.197  39.013   6.499
 4875POPC   C3A61625   8.339  39.075   6.911
 4875POPC   C4A61626   8.156  39.031   7.315
 4875POPC   C1B61627   8.070  39.469   6.241
 4875POPC   C2B61628   8.303  39.519   6.624
 4875POPC   C3B61629   8.316  39.543   7.075
 4875POPC   C4B61630   7.901  39.441   7.146
 4876POPC   NC361631  11.087  27.584   5.498
 4876POPC   PO461632  11.634  27.998   5.625
 4876POPC   GL161633  11.259  27.858   5.896
 4876POPC   GL261634  11.199  27.486   5.983
 4876POPC   C1A61635  11.117  27.827   6.346
 4876POPC   D2A61636  11.334  27.489   6.598
 4876POPC   C3A61637  11.533  27.668   6.935
 4876POPC   C4A61638  11.548  27.856   7.329
 4876POPC   C1B61639  10.918  27.331   6.339
 4876POPC   C2B61640  10.875  27.420   6.804
 4876POPC   C3B61641  11.093  27.569   7.183
 4876POPC   C4B61642  11.080  27.280   7.529
 4877POPC   NC361643   0.606  31.622   5.614
 4877POPC   PO461644   1.161  31.364   5.160
 4877POPC   GL161645   1.126  31.335   5.665
 4877POPC   GL261646   0.934  31.061   5.732
 4877POPC   C1A61647   1.383  31.489   6.049
 4877POPC   D2A61648   1.455  31.784   6.411
 4877POPC   C3A61649   1.504  31.612   6.837
 4877POPC   C4A61650   1.364  31.562   7.231
 4877POPC   C1B61651   1.068  31.116   6.177
 4877POPC   C2B61652   1.142  31.325   6.584
 4877POPC   C3B61653   0.966  31.139   6.984
 4877POPC   C4B61654   0.900  31.290   7.402
 4878POPC   NC361655   4.090   5.822   5.428
 4878POPC   PO461656   4.693   5.683   5.553
 4878POPC   GL161657   4.438   5.957   5.836
 4878POPC   GL261658   4.084   6.066   5.860
 4878POPC   C1A61659   4.512   5.995   6.270
 4878POPC   D2A61660   4.402   5.731   6.599
 4878POPC   C3A61661   4.668   5.817   6.905
 4878POPC   C4A61662   4.370   5.954   7.202
 4878POPC   C1B61663   4.062   5.774   6.183
 4878POPC   C2B61664   3.874   5.720   6.588
 4878POPC   C3B61665   3.971   5.497   6.921
 4878POPC   C4B61666   4.075   5.567   7.320
 4879POPC   NC361667  22.732  39.323   5.466
 4879POPC   PO461668  23.422  39.018   5.507
 4879POPC   GL161669  23.026  39.069   5.815
 4879POPC   GL261670  22.800  39.365   5.953
 4879POPC   C1A61671  22.754  38.900   6.169
 4879POPC   D2A61672  22.618  38.934   6.612
 4879POPC   C3A61673  22.953  38.867   6.908
 4879POPC   C4A61674  23.128  39.183   7.172
 4879POPC   C1B61675  23.143  39.359   6.237
 4879POPC   C2B61676  23.210  39.302   6.684
 4879POPC   C3B61677  23.014  39.633   6.979
 4879POPC   C4B61678  22.689  39.876   7.201
 4880POPC   NC361679   9.074   5.864   5.378
 4880POPC   PO461680   8.454   5.738   5.662
 4880POPC   GL161681   8.843   5.945   5.895
 4880POPC   GL261682   9.234   5.945   5.839
 4880POPC   C1A61683   9.056   5.734   6.285
 4880POPC   D2A61684   9.054   5.438   6.643
 4880POPC   C3A61685   8.756   5.650   6.943
 4880POPC   C4A61686   8.867   5.997   7.202
 4880POPC   C1B61687   9.379   6.138   6.245
 4880POPC   C2B61688   9.364   5.933   6.671
 4880POPC   C3B61689   9.361   5.946   7.118
 4880POPC   C4B61690   9.233   6.253   7.465
 4881POPC   NC361691  42.440  24.155   5.621
 4881POPC   PO461692  42.246  23.504   5.433
 4881POPC   GL161693  42.526  23.483   5.807
 4881POPC   GL261694  42.669  23.814   5.910
 4881POPC   C1A61695  42.397  23.588   6.255
 4881POPC   D2A61696  42.306  23.818   6.634
 4881POPC   C3A61697  42.439  23.601   6.977
 4881POPC   C4A61698  42.103  23.440   7.102
 4881POPC   C1B61699  42.617  24.075   6.320
 4881POPC   C2B61700  42.646  24.163   6.791
 4881POPC   C3B61701  42.367  24.066   7.131
 4881POPC   C4B61702  42.386  23.745   7.475
 4882POPC   NC361703   8.097  18.064   5.795
 4882POPC   PO461704   8.284  17.583   5.364
 4882POPC   GL161705   8.013  17.542   5.771
 4882POPC   GL261706   8.218  17.318   5.964
 4882POPC   C1A61707   7.999  17.651   6.277
 4882POPC   D2A61708   8.264  17.683   6.680
 4882POPC   C3A61709   8.076  17.630   7.093
 4882POPC   C4A61710   7.883  17.217   7.195
 4882POPC   C1B61711   8.594  17.219   6.227
 4882POPC   C2B61712   8.698  17.207   6.674
 4882POPC   C3B61713   8.504  17.352   7.057
 4882POPC   C4B61714   8.546  17.726   7.265
 4883POPC   NC361715   0.010   5.355   5.381
 4883POPC   PO461716  44.782   4.731   5.378
 4883POPC   GL161717  44.554   5.086   5.591
 4883POPC   GL261718  44.773   5.190   5.794
 4883POPC   C1A61719  44.368   5.242   6.055
 4883POPC   D2A61720  44.273   5.161   6.510
 4883POPC   C3A61721  44.369   5.283   6.939
 4883POPC   C4A61722  44.689   5.209   7.234
 4883POPC   C1B61723   0.046   5.306   6.090
 4883POPC   C2B61724   0.097   5.328   6.503
 4883POPC   C3B61725   0.063   5.157   6.887
 4883POPC   C4B61726   0.169   5.396   7.242
 4884POPC   NC361727  12.588  23.509   5.517
 4884POPC   PO461728  12.812  22.908   5.271
 4884POPC   GL161729  12.845  22.912   5.778
 4884POPC   GL261730  12.748  23.207   5.974
 4884POPC   C1A61731  12.656  22.731   6.180
 4884POPC   D2A61732  12.791  22.683   6.622
 4884POPC   C3A61733  12.590  22.893   6.961
 4884POPC   C4A61734  12.351  22.763   7.309
 4884POPC   C1B61735  13.066  23.073   6.269
 4884POPC   C2B61736  13.251  23.150   6.680
 4884POPC   C3B61737  13.139  22.992   7.084
 4884POPC   C4B61738  13.176  23.102   7.540
 4885POPC   NC361739  28.093   8.340   5.497
 4885POPC   PO461740  28.583   7.922   5.329
 4885POPC   GL161741  28.445   7.956   5.754
 4885POPC   GL261742  28.764   7.804   5.847
 4885POPC   C1A61743  28.308   8.186   6.151
 4885POPC   D2A61744  28.176   8.063   6.588
 4885POPC   C3A61745  28.145   8.288   6.998
 4885POPC   C4A61746  28.031   7.913   7.202
 4885POPC   C1B61747  28.736   7.879   6.239
 4885POPC   C2B61748  28.586   7.754   6.600
 4885POPC   C3B61749  28.571   7.959   6.983
 4885POPC   C4B61750  28.908   7.852   7.267
 4886POPC   NC361751  31.774   8.029   5.284
 4886POPC   PO461752  31.150   8.358   5.270
 4886POPC   GL161753  31.394   8.219   5.698
 4886POPC   GL261754  31.697   7.962   5.784
 4886POPC   C1A61755  31.482   8.245   6.180
 4886POPC   D2A61756  31.329   8.364   6.604
 4886POPC   C3A61757  31.198   8.070   6.894
 4886POPC   C4A61758  31.286   8.105   7.300
 4886POPC   C1B61759  31.631   7.730   6.179
 4886POPC   C2B61760  31.626   7.933   6.585
 4886POPC   C3B61761  31.760   7.940   7.001
 4886POPC   C4B61762  31.643   7.768   7.399
 4887POPC   NC361763  43.458  12.687   5.346
 4887POPC   PO461764  42.847  12.694   5.609
 4887POPC   GL161765  43.131  12.890   5.858
 4887POPC   GL261766  42.839  12.967   6.038
 4887POPC   C1A61767  43.251  12.790   6.304
 4887POPC   D2A61768  43.026  12.681   6.697
 4887POPC   C3A61769  43.164  12.806   7.128
 4887POPC   C4A61770  43.410  12.752   7.535
 4887POPC   C1B61771  43.074  13.265   6.232
 4887POPC   C2B61772  43.103  13.214   6.643
 4887POPC   C3B61773  43.391  13.249   6.935
 4887POPC   C4B61774  43.376  13.241   7.405
 4888POPC   NC361775   5.642   6.281   5.603
 4888POPC   PO461776   6.055   6.764   5.250
 4888POPC   GL161777   5.824   6.751   5.666
 4888POPC   GL261778   5.524   6.920   5.796
 4888POPC   C1A61779   5.847   6.622   6.132
 4888POPC   D2A61780   5.777   6.765   6.586
 4888POPC   C3A61781   5.767   6.391   6.873
 4888POPC   C4A61782   5.758   6.404   7.271
 4888POPC   C1B61783   5.369   6.767   6.228
 4888POPC   C2B61784   5.370   6.472   6.570
 4888POPC   C3B61785   5.400   6.723   7.001
 4888POPC   C4B61786   5.466   6.792   7.460
 4889POPC   NC361787  16.956   6.151   5.318
 4889POPC   PO461788  16.658   6.818   5.381
 4889POPC   GL161789  16.888   6.879   5.778
 4889POPC   GL261790  16.580   6.732   5.884
 4889POPC   C1A61791  16.945   6.851   6.239
 4889POPC   D2A61792  16.635   6.741   6.541
 4889POPC   C3A61793  16.779   6.693   6.939
 4889POPC   C4A61794  16.460   6.451   7.131
 4889POPC   C1B61795  16.614   6.396   6.139
 4889POPC   C2B61796  16.810   6.265   6.490
 4889POPC   C3B61797  16.868   6.187   6.918
 4889POPC   C4B61798  16.933   6.365   7.315
 4890POPC   NC361799   2.207  20.149   5.453
 4890POPC   PO461800   1.955  19.667   5.103
 4890POPC   GL161801   1.906  19.756   5.618
 4890POPC   GL261802   1.581  19.966   5.753
 4890POPC   C1A61803   2.121  19.821   6.045
 4890POPC   D2A61804   2.270  19.773   6.493
 4890POPC   C3A61805   2.158  20.004   6.870
 4890POPC   C4A61806   2.326  20.070   7.295
 4890POPC   C1B61807   1.639  19.670   6.059
 4890POPC   C2B61808   1.767  19.734   6.447
 4890POPC   C3B61809   1.708  19.722   6.894
 4890POPC   C4B61810   1.832  19.945   7.278
 4891POPC   NC361811   1.596  12.341   5.433
 4891POPC   PO461812   1.061  11.955   5.154
 4891POPC   GL161813   1.003  11.997   5.688
 4891POPC   GL261814   1.166  12.339   5.760
 4891POPC   C1A61815   1.067  12.051   6.182
 4891POPC   D2A61816   1.309  12.095   6.605
 4891POPC   C3A61817   1.072  11.896   6.944
 4891POPC   C4A61818   1.162  11.814   7.372
 4891POPC   C1B61819   1.403  12.452   6.155
 4891POPC   C2B61820   1.605  12.552   6.530
 4891POPC   C3B61821   1.373  12.527   6.895
 4891POPC   C4B61822   1.375  12.226   7.187
 4892POPC   NC361823  15.525  30.492   5.408
 4892POPC   PO461824  16.154  30.476   5.712
 4892POPC   GL161825  15.788  30.628   5.874
 4892POPC   GL261826  15.870  30.982   5.931
 4892POPC   C1A61827  15.807  30.664   6.319
 4892POPC   D2A61828  16.006  30.818   6.687
 4892POPC   C3A61829  16.025  30.564   7.020
 4892POPC   C4A61830  15.869  30.483   7.420
 4892POPC   C1B61831  16.209  31.021   6.253
 4892POPC   C2B61832  16.503  31.008   6.621
 4892POPC   C3B61833  16.339  30.971   7.054
 4892POPC   C4B61834  16.020  30.977   7.381
 4893POPC   NC361835  15.650   1.822   5.544
 4893POPC   PO461836  16.132   1.437   5.313
 4893POPC   GL161837  15.925   1.401   5.732
 4893POPC   GL261838  15.570   1.361   5.775
 4893POPC   C1A61839  15.984   1.167   6.155
 4893POPC   D2A61840  16.103   0.894   6.538
 4893POPC   C3A61841  15.902   1.012   6.920
 4893POPC   C4A61842  16.252   1.232   7.069
 4893POPC   C1B61843  15.621   1.533   6.174
 4893POPC   C2B61844  15.698   1.337   6.561
 4893POPC   C3B61845  15.614   1.436   6.971
 4893POPC   C4B61846  15.870   1.489   7.291
 4894POPC   NC361847   9.577   1.677   5.019
 4894POPC   PO461848   9.951   2.102   5.377
 4894POPC   GL161849   9.850   1.839   5.736
 4894POPC   GL261850   9.824   2.112   5.910
 4894POPC   C1A61851  10.059   1.709   6.141
 4894POPC   D2A61852   9.970   1.665   6.612
 4894POPC   C3A61853   9.714   1.943   6.918
 4894POPC   C4A61854   9.743   1.843   7.363
 4894POPC   C1B61855   9.663   1.991   6.317
 4894POPC   C2B61856   9.312   2.178   6.490
 4894POPC   C3B61857   9.267   2.279   6.904
 4894POPC   C4B61858   9.359   2.154   7.309
 4895POPC   NC361859  10.733  29.032   5.458
 4895POPC   PO461860  10.312  29.577   5.512
 4895POPC   GL161861  10.391  29.217   5.788
 4895POPC   GL261862  10.727  29.255   5.919
 4895POPC   C1A61863  10.365  29.014   6.195
 4895POPC   D2A61864  10.227  29.174   6.598
 4895POPC   C3A61865  10.517  29.186   6.973
 4895POPC   C4A61866  10.725  28.942   7.289
 4895POPC   C1B61867  10.509  29.532   6.219
 4895POPC   C2B61868  10.482  29.623   6.660
 4895POPC   C3B61869  10.166  29.548   6.962
 4895POPC   C4B61870  10.403  29.515   7.348
 4896POPC   NC361871  25.637  28.850   5.394
 4896POPC   PO461872  25.264  29.494   5.446
 4896POPC   GL161873  25.323  29.323   5.847
 4896POPC   GL261874  25.387  28.972   5.843
 4896POPC   C1A61875  25.392  29.333   6.292
 4896POPC   D2A61876  25.648  29.542   6.626
 4896POPC   C3A61877  25.494  29.278   6.937
 4896POPC   C4A61878  25.022  29.298   7.047
 4896POPC   C1B61879  25.383  28.828   6.271
 4896POPC   C2B61880  25.204  28.960   6.669
 4896POPC   C3B61881  25.250  28.857   7.129
 4896POPC   C4B61882  25.170  28.818   7.601
 4897POPC   NC361883   6.878  20.125   5.312
 4897POPC   PO461884   6.203  20.103   5.485
 4897POPC   GL161885   6.446  19.813   5.779
 4897POPC   GL261886   6.785  19.833   5.738
 4897POPC   C1A61887   6.594  19.798   6.230
 4897POPC   D2A61888   6.446  19.978   6.633
 4897POPC   C3A61889   6.509  19.661   6.911
 4897POPC   C4A61890   6.895  19.599   7.085
 4897POPC   C1B61891   6.974  20.108   6.053
 4897POPC   C2B61892   6.874  20.238   6.474
 4897POPC   C3B61893   6.897  20.075   6.877
 4897POPC   C4B61894   6.624  20.054   7.221
 4898POPC   NC361895   3.085  16.393   5.549
 4898POPC   PO461896   2.419  16.473   5.560
 4898POPC   GL161897   2.610  16.713   5.877
 4898POPC   GL261898   2.905  16.858   5.690
 4898POPC   C1A61899   2.615  16.700   6.327
 4898POPC   D2A61900   2.907  16.848   6.650
 4898POPC   C3A61901   3.055  16.544   6.962
 4898POPC   C4A61902   2.770  16.578   7.310
 4898POPC   C1B61903   3.073  16.924   6.101
 4898POPC   C2B61904   3.208  17.217   6.420
 4898POPC   C3B61905   3.116  17.293   6.866
 4898POPC   C4B61906   3.063  17.010   7.217
 4899POPC   NC361907   8.959  14.578   5.437
 4899POPC   PO461908   8.623  13.953   5.287
 4899POPC   GL161909   8.804  14.077   5.716
 4899POPC   GL261910   8.711  14.399   5.834
 4899POPC   C1A61911   9.000  14.118   6.162
 4899POPC   D2A61912   9.178  14.395   6.488
 4899POPC   C3A61913   9.064  14.412   6.949
 4899POPC   C4A61914   8.984  14.041   7.204
 4899POPC   C1B61915   8.728  14.578   6.231
 4899POPC   C2B61916   8.673  14.374   6.613
 4899POPC   C3B61917   8.554  14.334   7.026
 4899POPC   C4B61918   8.692  14.710   7.220
 4900POPC   NC361919  18.718   7.536   5.439
 4900POPC   PO461920  19.317   7.381   5.176
 4900POPC   GL161921  19.256   7.434   5.633
 4900POPC   GL261922  19.249   7.777   5.684
 4900POPC   C1A61923  19.014   7.443   6.051
 4900POPC   D2A61924  18.768   7.370   6.436
 4900POPC   C3A61925  18.997   7.315   6.819
 4900POPC   C4A61926  18.944   7.421   7.233
 4900POPC   C1B61927  19.272   7.881   6.134
 4900POPC   C2B61928  19.078   7.762   6.510
 4900POPC   C3B61929  19.013   7.828   6.924
 4900POPC   C4B61930  19.306   7.774   7.258
 4901POPC   NC361931  32.965   4.700   5.308
 4901POPC   PO461932  33.352   5.271   5.416
 4901POPC   GL161933  33.124   5.090   5.756
 4901POPC   GL261934  32.844   4.879   5.810
 4901POPC   C1A61935  33.143   5.155   6.199
 4901POPC   D2A61936  33.199   5.458   6.523
 4901POPC   C3A61937  33.105   5.324   6.933
 4901POPC   C4A61938  33.169   4.916   7.115
 4901POPC   C1B61939  32.701   4.917   6.242
 4901POPC   C2B61940  32.879   4.944   6.655
 4901POPC   C3B61941  32.674   4.880   7.045
 4901POPC   C4B61942  32.461   5.218   7.186
 4902POPC   NC361943  31.577  32.768   5.686
 4902POPC   PO461944  31.231  33.327   5.395
 4902POPC   GL161945  31.425  33.254   5.799
 4902POPC   GL261946  31.787  33.260   5.810
 4902POPC   C1A61947  31.384  33.067   6.226
 4902POPC   D2A61948  31.186  33.076   6.601
 4902POPC   C3A61949  31.415  33.073   6.955
 4902POPC   C4A61950  31.259  33.194   7.304
 4902POPC   C1B61951  31.895  33.030   6.222
 4902POPC   C2B61952  31.743  32.948   6.592
 4902POPC   C3B61953  31.807  32.756   6.992
 4902POPC   C4B61954  31.690  32.951   7.375
 4903POPC   NC361955  29.613  12.191   5.608
 4903POPC   PO461956  28.979  12.170   5.358
 4903POPC   GL161957  28.879  11.959   5.754
 4903POPC   GL261958  29.223  12.018   5.905
 4903POPC   C1A61959  28.777  11.961   6.193
 4903POPC   D2A61960  29.040  12.003   6.553
 4903POPC   C3A61961  28.889  12.082   6.941
 4903POPC   C4A61962  29.132  11.983   7.307
 4903POPC   C1B61963  29.527  12.165   6.262
 4903POPC   C2B61964  29.638  12.157   6.719
 4903POPC   C3B61965  29.693  12.426   7.084
 4903POPC   C4B61966  29.479  12.324   7.505
 4904POPC   NC361967   6.103  31.508   5.342
 4904POPC   PO461968   5.496  31.186   5.582
 4904POPC   GL161969   5.787  31.490   5.803
 4904POPC   GL261970   6.165  31.437   5.842
 4904POPC   C1A61971   5.892  31.656   6.229
 4904POPC   D2A61972   6.020  31.850   6.620
 4904POPC   C3A61973   5.732  31.775   6.985
 4904POPC   C4A61974   5.799  31.754   7.432
 4904POPC   C1B61975   6.016  31.167   6.194
 4904POPC   C2B61976   5.910  31.172   6.611
 4904POPC   C3B61977   6.162  31.092   6.976
 4904POPC   C4B61978   6.116  31.371   7.312
 4905POPC   NC361979   2.617  35.181   5.471
 4905POPC   PO461980   2.872  35.806   5.615
 4905POPC   GL161981   2.650  35.525   5.854
 4905POPC   GL261982   2.863  35.227   5.914
 4905POPC   C1A61983   2.668  35.543   6.276
 4905POPC   D2A61984   2.946  35.457   6.604
 4905POPC   C3A61985   2.802  35.529   7.010
 4905POPC   C4A61986   2.538  35.389   7.316
 4905POPC   C1B61987   2.576  35.046   6.218
 4905POPC   C2B61988   2.455  35.180   6.628
 4905POPC   C3B61989   2.687  35.018   6.996
 4905POPC   C4B61990   2.975  35.104   7.307
 4906POPC   NC361991  23.699  13.967   5.461
 4906POPC   PO461992  24.089  13.323   5.466
 4906POPC   GL161993  23.896  13.607   5.786
 4906POPC   GL261994  23.508  13.595   5.839
 4906POPC   C1A61995  23.891  13.644   6.217
 4906POPC   D2A61996  23.657  13.545   6.548
 4906POPC   C3A61997  23.797  13.555   6.951
 4906POPC   C4A61998  23.534  13.368   7.330
 4906POPC   C1B61999  23.494  13.950   6.135
 4906POPC   C2B62000  23.692  14.083   6.501
 4906POPC   C3B62001  23.708  14.055   6.940
 4906POPC   C4B62002  23.654  13.871   7.363
 4907POPC   NC362003  20.393  20.114   5.653
 4907POPC   PO462004  19.713  19.788   5.472
 4907POPC   GL162005  19.699  19.810   5.857
 4907POPC   GL262006  20.054  19.783   5.861
 4907POPC   C1A62007  19.588  19.652   6.228
 4907POPC   D2A62008  19.631  19.908   6.578
 4907POPC   C3A62009  19.766  19.787   6.960
 4907POPC   C4A62010  19.560  19.795   7.308
 4907POPC   C1B62011  20.042  19.962   6.257
 4907POPC   C2B62012  20.142  19.727   6.625
 4907POPC   C3B62013  20.267  19.678   7.037
 4907POPC   C4B62014  20.036  19.756   7.417
 4908POPC   NC362015  37.525  44.138   5.352
 4908POPC   PO462016  37.908  43.605   5.361
 4908POPC   GL162017  37.510  43.724   5.670
 4908POPC   GL262018  37.698  43.890   5.844
 4908POPC   C1A62019  37.486  43.607   6.174
 4908POPC   D2A62020  37.806  43.783   6.531
 4908POPC   C3A62021  37.704  43.883   6.929
 4908POPC   C4A62022  37.528  43.611   7.177
 4908POPC   C1B62023  37.531  44.098   6.224
 4908POPC   C2B62024  37.576  44.305   6.554
 4908POPC   C3B62025  37.406  44.292   6.910
 4908POPC   C4B62026  37.650  44.310   7.244
 4909POPC   NC362027  11.352   9.270   5.430
 4909POPC   PO462028  11.324   8.677   5.483
 4909POPC   GL162029  11.298   8.911   5.817
 4909POPC   GL262030  11.625   9.001   5.780
 4909POPC   C1A62031  11.122   9.066   6.182
 4909POPC   D2A62032  11.255   9.129   6.589
 4909POPC   C3A62033  11.277   8.736   6.800
 4909POPC   C4A62034  11.030   8.653   7.161
 4909POPC   C1B62035  11.648   9.100   6.184
 4909POPC   C2B62036  11.723   8.932   6.550
 4909POPC   C3B62037  11.662   9.079   6.954
 4909POPC   C4B62038  11.514   8.807   7.265
 4910POPC   NC362039  21.691  20.295   5.081
 4910POPC   PO462040  21.088  20.479   5.337
 4910POPC   GL162041  21.274  20.686   5.833
 4910POPC   GL262042  21.459  20.997   5.876
 4910POPC   C1A62043  21.572  20.502   6.191
 4910POPC   D2A62044  21.487  20.279   6.585
 4910POPC   C3A62045  21.620  20.436   6.995
 4910POPC   C4A62046  21.483  20.766   7.262
 4910POPC   C1B62047  21.376  20.934   6.324
 4910POPC   C2B62048  21.236  20.746   6.729
 4910POPC   C3B62049  21.097  20.470   7.062
 4910POPC   C4B62050  21.178  20.419   7.504
 4911POPC   NC362051   3.103  36.687   5.238
 4911POPC   PO462052   2.687  37.213   5.244
 4911POPC   GL162053   2.661  37.108   5.712
 4911POPC   GL262054   2.604  36.744   5.740
 4911POPC   C1A62055   2.849  36.990   6.142
 4911POPC   D2A62056   3.046  36.889   6.531
 4911POPC   C3A62057   2.797  36.868   6.893
 4911POPC   C4A62058   2.923  36.927   7.279
 4911POPC   C1B62059   2.362  36.904   6.113
 4911POPC   C2B62060   2.429  36.789   6.525
 4911POPC   C3B62061   2.297  36.803   6.929
 4911POPC   C4B62062   2.428  36.778   7.366
 4912POPC   NC362063  27.325  30.568   5.321
 4912POPC   PO462064  27.265  31.236   5.351
 4912POPC   GL162065  27.309  30.952   5.751
 4912POPC   GL262066  27.465  30.600   5.822
 4912POPC   C1A62067  27.467  30.995   6.216
 4912POPC   D2A62068  27.442  30.823   6.658
 4912POPC   C3A62069  27.561  31.032   7.043
 4912POPC   C4A62070  27.379  31.001   7.485
 4912POPC   C1B62071  27.303  30.483   6.257
 4912POPC   C2B62072  27.270  30.341   6.709
 4912POPC   C3B62073  27.505  30.481   7.084
 4912POPC   C4B62074  27.783  30.701   7.372
 4913POPC   NC362075   1.290  20.400   5.543
 4913POPC   PO462076   0.928  20.922   5.477
 4913POPC   GL162077   1.138  20.751   5.874
 4913POPC   GL262078   1.510  20.602   5.947
 4913POPC   C1A62079   1.178  20.719   6.317
 4913POPC   D2A62080   1.284  20.461   6.638
 4913POPC   C3A62081   1.138  20.619   7.058
 4913POPC   C4A62082   1.257  20.766   7.492
 4913POPC   C1B62083   1.596  20.214   6.215
 4913POPC   C2B62084   1.724  20.185   6.641
 4913POPC   C3B62085   1.462  20.158   6.998
 4913POPC   C4B62086   1.545  20.409   7.306
 4914POPC   NC362087   6.723  13.612   5.155
 4914POPC   PO462088   6.145  13.648   5.481
 4914POPC   GL162089   6.455  13.682   5.847
 4914POPC   GL262090   6.781  13.644   5.727
 4914POPC   C1A62091   6.599  13.515   6.260
 4914POPC   D2A62092   6.894  13.420   6.590
 4914POPC   C3A62093   6.714  13.557   6.922
 4914POPC   C4A62094   6.654  13.600   7.309
 4914POPC   C1B62095   6.897  13.897   6.096
 4914POPC   C2B62096   6.775  13.930   6.568
 4914POPC   C3B62097   6.906  14.014   7.040
 4914POPC   C4B62098   6.915  13.972   7.522
 4915POPC   NC362099   4.465  20.286   5.434
 4915POPC   PO462100   4.211  20.970   5.454
 4915POPC   GL162101   4.172  20.630   5.753
 4915POPC   GL262102   4.517  20.535   5.875
 4915POPC   C1A62103   4.037  20.332   6.086
 4915POPC   D2A62104   4.232  20.239   6.488
 4915POPC   C3A62105   4.114  20.416   6.886
 4915POPC   C4A62106   4.086  20.241   7.271
 4915POPC   C1B62107   4.854  20.452   6.179
 4915POPC   C2B62108   4.817  20.613   6.565
 4915POPC   C3B62109   4.524  20.725   6.874
 4915POPC   C4B62110   4.504  20.546   7.259
 4916POPC   NC362111  23.983  31.733   5.429
 4916POPC   PO462112  23.511  31.322   5.160
 4916POPC   GL162113  23.668  31.313   5.633
 4916POPC   GL262114  23.965  31.427   5.830
 4916POPC   C1A62115  23.623  31.225   6.103
 4916POPC   D2A62116  23.764  31.183   6.517
 4916POPC   C3A62117  23.570  31.163   6.948
 4916POPC   C4A62118  23.671  31.245   7.391
 4916POPC   C1B62119  24.017  31.554   6.259
 4916POPC   C2B62120  23.847  31.646   6.669
 4916POPC   C3B62121  23.950  31.506   7.064
 4916POPC   C4B62122  23.952  31.779   7.433
 4917POPC   NC362123  38.355  33.514   5.411
 4917POPC   PO462124  38.145  34.175   5.408
 4917POPC   GL162125  38.401  33.931   5.722
 4917POPC   GL262126  38.287  33.601   5.882
 4917POPC   C1A62127  38.481  34.005   6.177
 4917POPC   D2A62128  38.249  34.193   6.529
 4917POPC   C3A62129  38.314  33.971   6.933
 4917POPC   C4A62130  38.490  33.926   7.371
 4917POPC   C1B62131  38.514  33.490   6.217
 4917POPC   C2B62132  38.699  33.668   6.581
 4917POPC   C3B62133  38.649  33.575   6.997
 4917POPC   C4B62134  38.271  33.468   7.172
 4918POPC   NC362135  44.733  23.851   5.353
 4918POPC   PO462136  44.325  23.384   5.614
 4918POPC   GL162137  44.454  23.712   5.792
 4918POPC   GL262138  44.808  23.755   5.863
 4918POPC   C1A62139  44.433  23.840   6.215
 4918POPC   D2A62140  44.510  23.891   6.632
 4918POPC   C3A62141  44.685  23.530   6.862
 4918POPC   C4A62142  44.889  23.449   7.294
 4918POPC   C1B62143  44.915  23.979   6.287
 4918POPC   C2B62144  44.946  24.117   6.746
 4918POPC   C3B62145  44.771  23.948   7.145
 4918POPC   C4B62146  44.927  23.887   7.592
 4919POPC   NC362147  33.273  30.367   5.024
 4919POPC   PO462148  32.770  30.775   5.204
 4919POPC   GL162149  32.984  30.870   5.607
 4919POPC   GL262150  32.723  30.779   5.838
 4919POPC   C1A62151  33.185  30.865   6.066
 4919POPC   D2A62152  32.996  31.010   6.515
 4919POPC   C3A62153  33.001  30.849   6.979
 4919POPC   C4A62154  32.805  30.921   7.391
 4919POPC   C1B62155  32.820  30.558   6.264
 4919POPC   C2B62156  32.944  30.415   6.705
 4919POPC   C3B62157  32.707  30.442   7.120
 4919POPC   C4B62158  32.617  30.488   7.575
 4920POPC   NC362159   0.069  40.727   4.871
 4920POPC   PO462160   0.456  40.980   5.366
 4920POPC   GL162161   0.478  40.945   5.789
 4920POPC   GL262162   0.740  41.171   5.807
 4920POPC   C1A62163   0.366  40.704   6.161
 4920POPC   D2A62164   0.565  40.542   6.504
 4920POPC   C3A62165   0.424  40.716   6.841
 4920POPC   C4A62166   0.312  40.609   7.209
 4920POPC   C1B62167   0.781  40.969   6.220
 4920POPC   C2B62168   0.886  40.913   6.619
 4920POPC   C3B62169   0.925  40.619   6.913
 4920POPC   C4B62170   0.808  40.793   7.277
 4921POPC   NC362171  29.091  37.417   5.483
 4921POPC   PO462172  29.514  36.976   5.564
 4921POPC   GL162173  29.165  37.113   5.869
 4921POPC   GL262174  28.839  37.027   5.716
 4921POPC   C1A62175  29.094  36.998   6.279
 4921POPC   D2A62176  29.460  36.766   6.431
 4921POPC   C3A62177  29.444  36.812   6.872
 4921POPC   C4A62178  29.386  37.095   7.217
 4921POPC   C1B62179  28.609  36.847   6.076
 4921POPC   C2B62180  28.573  36.618   6.499
 4921POPC   C3B62181  28.741  36.767   6.907
 4921POPC   C4B62182  29.073  36.667   7.211
 4922POPC   NC362183   1.596  44.451   5.133
 4922POPC   PO462184   1.054  44.355   5.401
 4922POPC   GL162185   1.217  44.525   5.786
 4922POPC   GL262186   1.577  44.608   5.707
 4922POPC   C1A62187   1.055  44.631   6.236
 4922POPC   D2A62188   0.921  44.485   6.674
 4922POPC   C3A62189   1.029  44.670   7.087
 4922POPC   C4A62190   1.218  44.934   7.417
 4922POPC   C1B62191   1.561  44.505   6.179
 4922POPC   C2B62192   1.449  44.532   6.647
 4922POPC   C3B62193   1.542  44.641   7.090
 4922POPC   C4B62194   1.433  44.496   7.513
 4923POPC   NC362195   0.575  28.226   5.546
 4923POPC   PO462196   0.013  28.615   5.670
 4923POPC   GL162197   0.383  28.556   5.906
 4923POPC   GL262198   0.181  28.327   6.060
 4923POPC   C1A62199   0.609  28.445   6.297
 4923POPC   D2A62200   0.411  28.196   6.624
 4923POPC   C3A62201   0.381  28.486   6.951
 4923POPC   C4A62202   0.608  28.547   7.330
 4923POPC   C1B62203  44.977  27.973   6.210
 4923POPC   C2B62204   0.009  27.812   6.595
 4923POPC   C3B62205   0.043  28.058   6.949
 4923POPC   C4B62206   0.376  28.085   7.263
 4924POPC   NC362207  19.313  33.847   5.390
 4924POPC   PO462208  18.698  34.061   5.546
 4924POPC   GL162209  19.040  33.949   5.802
 4924POPC   GL262210  19.182  33.650   5.853
 4924POPC   C1A62211  18.997  33.944   6.224
 4924POPC   D2A62212  18.821  33.789   6.566
 4924POPC   C3A62213  19.048  33.907   6.903
 4924POPC   C4A62214  18.976  34.045   7.316
 4924POPC   C1B62215  19.377  33.566   6.206
 4924POPC   C2B62216  19.287  33.491   6.618
 4924POPC   C3B62217  19.311  33.473   7.030
 4924POPC   C4B62218  19.000  33.539   7.278
 4925POPC   NC362219   8.005   7.105   5.502
 4925POPC   PO462220   8.278   7.730   5.417
 4925POPC   GL162221   8.328   7.534   5.811
 4925POPC   GL262222   7.973   7.503   5.869
 4925POPC   C1A62223   8.362   7.460   6.272
 4925POPC   D2A62224   8.310   7.711   6.662
 4925POPC   C3A62225   8.372   7.521   7.052
 4925POPC   C4A62226   8.294   7.101   7.152
 4925POPC   C1B62227   7.915   7.189   6.196
 4925POPC   C2B62228   7.948   6.940   6.566
 4925POPC   C3B62229   7.826   7.032   6.997
 4925POPC   C4B62230   7.684   7.303   7.298
 4926POPC   NC362231  10.127  41.781   5.443
 4926POPC   PO462232   9.540  41.375   5.469
 4926POPC   GL162233   9.681  41.597   5.824
 4926POPC   GL262234  10.019  41.728   5.927
 4926POPC   C1A62235   9.683  41.577   6.272
 4926POPC   D2A62236   9.933  41.742   6.604
 4926POPC   C3A62237   9.782  41.580   6.987
 4926POPC   C4A62238   9.779  41.638   7.427
 4926POPC   C1B62239  10.003  41.257   6.023
 4926POPC   C2B62240   9.968  41.196   6.471
 4926POPC   C3B62241  10.217  41.348   6.785
 4926POPC   C4B62242  10.193  41.359   7.207
 4927POPC   NC362243  21.086  36.622   5.322
 4927POPC   PO462244  21.561  37.127   5.261
 4927POPC   GL162245  21.547  37.108   5.716
 4927POPC   GL262246  21.444  36.759   5.854
 4927POPC   C1A62247  21.318  37.197   6.116
 4927POPC   D2A62248  21.312  36.917   6.452
 4927POPC   C3A62249  21.383  37.066   6.847
 4927POPC   C4A62250  21.435  37.069   7.286
 4927POPC   C1B62251  21.026  36.669   6.088
 4927POPC   C2B62252  20.911  36.622   6.550
 4927POPC   C3B62253  21.050  36.720   6.994
 4927POPC   C4B62254  21.394  36.550   7.226
 4928POPC   NC362255   6.931  10.140   5.491
 4928POPC   PO462256   6.790   9.491   5.430
 4928POPC   GL162257   6.859   9.639   5.843
 4928POPC   GL262258   6.608   9.904   5.877
 4928POPC   C1A62259   6.812   9.627   6.303
 4928POPC   D2A62260   6.963   9.905   6.592
 4928POPC   C3A62261   6.745   9.853   6.955
 4928POPC   C4A62262   6.970   9.573   7.190
 4928POPC   C1B62263   6.337   9.615   6.143
 4928POPC   C2B62264   6.265   9.586   6.622
 4928POPC   C3B62265   6.265   9.457   7.082
 4928POPC   C4B62266   6.063   9.648   7.422
 4929POPC   NC362267  35.771  24.793   5.517
 4929POPC   PO462268  35.253  24.297   5.377
 4929POPC   GL162269  35.367  24.500   5.767
 4929POPC   GL262270  35.658  24.323   5.853
 4929POPC   C1A62271  35.157  24.605   6.172
 4929POPC   D2A62272  35.108  24.369   6.584
 4929POPC   C3A62273  35.293  24.469   7.000
 4929POPC   C4A62274  35.195  24.602   7.425
 4929POPC   C1B62275  35.487  24.219   6.283
 4929POPC   C2B62276  35.584  24.140   6.713
 4929POPC   C3B62277  35.792  24.315   7.043
 4929POPC   C4B62278  35.664  24.431   7.427
 4930POPC   NC362279   4.606  27.345   5.303
 4930POPC   PO462280   3.915  27.364   5.371
 4930POPC   GL162281   4.201  27.545   5.712
 4930POPC   GL262282   4.246  27.911   5.689
 4930POPC   C1A62283   4.398  27.580   6.147
 4930POPC   D2A62284   4.494  27.365   6.532
 4930POPC   C3A62285   4.378  27.559   6.902
 4930POPC   C4A62286   4.277  27.481   7.312
 4930POPC   C1B62287   4.007  27.913   6.081
 4930POPC   C2B62288   4.133  27.816   6.518
 4930POPC   C3B62289   3.956  27.851   6.944
 4930POPC   C4B62290   3.837  27.720   7.365
 4931POPC   NC362291  43.081  10.270   5.422
 4931POPC   PO462292  43.020   9.563   5.531
 4931POPC   GL162293  42.955   9.921   5.772
 4931POPC   GL262294  43.254   9.813   5.949
 4931POPC   C1A62295  42.824   9.968   6.163
 4931POPC   D2A62296  43.013   9.623   6.442
 4931POPC   C3A62297  42.905   9.596   6.890
 4931POPC   C4A62298  42.853   9.923   7.216
 4931POPC   C1B62299  43.548   9.702   6.292
 4931POPC   C2B62300  43.477   9.587   6.715
 4931POPC   C3B62301  43.365   9.745   7.108
 4931POPC   C4B62302  43.597   9.608   7.448
 4932POPC   NC362303  25.865   3.285   5.403
 4932POPC   PO462304  26.290   3.668   5.557
 4932POPC   GL162305  25.939   3.583   5.802
 4932POPC   GL262306  25.802   3.866   5.904
 4932POPC   C1A62307  25.906   3.342   6.164
 4932POPC   D2A62308  26.126   3.473   6.555
 4932POPC   C3A62309  25.892   3.577   6.909
 4932POPC   C4A62310  26.026   3.451   7.321
 4932POPC   C1B62311  26.141   3.867   6.215
 4932POPC   C2B62312  26.377   3.918   6.636
 4932POPC   C3B62313  26.370   3.729   7.068
 4932POPC   C4B62314  26.328   3.803   7.553
 4933POPC   NC362315   3.507  29.478   5.393
 4933POPC   PO462316   3.574  30.160   5.372
 4933POPC   GL162317   3.528  30.137   5.782
 4933POPC   GL262318   3.674  29.817   5.768
 4933POPC   C1A62319   3.603  30.062   6.217
 4933POPC   D2A62320   3.748  30.046   6.625
 4933POPC   C3A62321   3.407  30.154   6.883
 4933POPC   C4A62322   3.285  30.166   7.312
 4933POPC   C1B62323   3.625  29.573   6.079
 4933POPC   C2B62324   3.759  29.559   6.491
 4933POPC   C3B62325   3.522  29.647   6.853
 4933POPC   C4B62326   3.331  29.684   7.221
 4934POPC   NC362327  25.691  12.292   5.441
 4934POPC   PO462328  25.952  11.680   5.507
 4934POPC   GL162329  25.916  12.010   5.833
 4934POPC   GL262330  25.620  12.166   5.926
 4934POPC   C1A62331  26.036  12.024   6.283
 4934POPC   D2A62332  26.342  12.058   6.652
 4934POPC   C3A62333  26.268  11.956   7.071
 4934POPC   C4A62334  25.894  11.971   7.285
 4934POPC   C1B62335  25.734  12.453   6.231
 4934POPC   C2B62336  25.946  12.401   6.654
 4934POPC   C3B62337  25.885  12.432   7.116
 4934POPC   C4B62338  25.962  12.387   7.580
 4935POPC   NC362339   1.106   4.461   5.507
 4935POPC   PO462340   1.079   3.769   5.541
 4935POPC   GL162341   1.221   4.027   5.880
 4935POPC   GL262342   0.946   4.214   5.937
 4935POPC   C1A62343   1.381   4.375   6.162
 4935POPC   D2A62344   1.591   4.297   6.512
 4935POPC   C3A62345   1.495   4.437   6.876
 4935POPC   C4A62346   1.524   4.333   7.277
 4935POPC   C1B62347   0.909   4.572   6.211
 4935POPC   C2B62348   1.072   4.612   6.627
 4935POPC   C3B62349   0.990   4.328   6.972
 4935POPC   C4B62350   1.022   4.317   7.394
 4936POPC   NC362351   7.570   6.722   5.459
 4936POPC   PO462352   7.004   6.412   5.182
 4936POPC   GL162353   7.126   6.590   5.668
 4936POPC   GL262354   7.443   6.408   5.856
 4936POPC   C1A62355   7.208   6.752   6.124
 4936POPC   D2A62356   7.572   6.617   6.395
 4936POPC   C3A62357   7.654   6.571   6.835
 4936POPC   C4A62358   7.711   6.613   7.271
 4936POPC   C1B62359   7.240   6.268   6.270
 4936POPC   C2B62360   7.162   6.444   6.714
 4936POPC   C3B62361   7.287   6.336   7.172
 4936POPC   C4B62362   7.261   6.265   7.651
 4937POPC   NC362363  44.331   4.116   5.543
 4937POPC   PO462364  44.052   4.693   5.284
 4937POPC   GL162365  43.934   4.423   5.713
 4937POPC   GL262366  43.725   4.622   5.965
 4937POPC   C1A62367  43.984   4.151   6.123
 4937POPC   D2A62368  44.157   4.129   6.574
 4937POPC   C3A62369  44.056   4.257   6.986
 4937POPC   C4A62370  43.706   4.151   7.287
 4937POPC   C1B62371  43.699   4.449   6.406
 4937POPC   C2B62372  43.606   4.395   6.838
 4937POPC   C3B62373  43.757   4.667   7.163
 4937POPC   C4B62374  43.563   4.983   7.399
 4938POPC   NC362375   4.702  29.637   5.365
 4938POPC   PO462376   4.005  29.548   5.488
 4938POPC   GL162377   4.204  29.274   5.856
 4938POPC   GL262378   4.150  28.895   5.864
 4938POPC   C1A62379   4.549  29.138   6.154
 4938POPC   D2A62380   4.597  28.971   6.593
 4938POPC   C3A62381   4.294  29.242   6.809
 4938POPC   C4A62382   4.228  29.343   7.222
 4938POPC   C1B62383   3.988  28.646   6.215
 4938POPC   C2B62384   4.009  28.843   6.616
 4938POPC   C3B62385   4.077  28.826   7.053
 4938POPC   C4B62386   4.064  28.935   7.473
 4939POPC   NC362387  10.935  19.279   5.597
 4939POPC   PO462388  11.471  19.562   5.325
 4939POPC   GL162389  11.482  19.275   5.711
 4939POPC   GL262390  11.304  18.931   5.742
 4939POPC   C1A62391  11.392  19.216   6.166
 4939POPC   D2A62392  11.468  19.038   6.565
 4939POPC   C3A62393  11.342  19.244   6.912
 4939POPC   C4A62394  11.487  19.280   7.301
 4939POPC   C1B62395  11.026  18.841   6.129
 4939POPC   C2B62396  11.067  18.690   6.539
 4939POPC   C3B62397  11.087  18.783   6.969
 4939POPC   C4B62398  11.042  18.920   7.376
 4940POPC   NC362399   7.121   7.570   5.457
 4940POPC   PO462400   7.473   8.185   5.312
 4940POPC   GL162401   7.563   8.232   5.720
 4940POPC   GL262402   7.297   8.445   5.772
 4940POPC   C1A62403   7.663   8.200   6.145
 4940POPC   D2A62404   7.652   8.427   6.526
 4940POPC   C3A62405   7.526   8.228   6.919
 4940POPC   C4A62406   7.679   8.166   7.334
 4940POPC   C1B62407   7.189   8.410   6.199
 4940POPC   C2B62408   7.002   8.383   6.593
 4940POPC   C3B62409   7.117   8.521   6.967
 4940POPC   C4B62410   7.188   8.270   7.327
 4941POPC   NC362411  27.202  10.937   5.611
 4941POPC   PO462412  27.520  11.566   5.519
 4941POPC   GL162413  27.373  11.350   5.855
 4941POPC   GL262414  27.042  11.441   5.834
 4941POPC   C1A62415  27.465  11.079   6.186
 4941POPC   D2A62416  27.809  11.038   6.428
 4941POPC   C3A62417  27.797  11.076   6.886
 4941POPC   C4A62418  28.031  11.191   7.259
 4941POPC   C1B62419  27.172  11.584   6.259
 4941POPC   C2B62420  27.393  11.365   6.591
 4941POPC   C3B62421  27.258  11.236   6.964
 4941POPC   C4B62422  27.468  11.308   7.337
 4942POPC   NC362423  30.744  22.338   5.409
 4942POPC   PO462424  31.063  21.792   5.606
 4942POPC   GL162425  30.887  22.161   5.866
 4942POPC   GL262426  30.499  22.223   5.840
 4942POPC   C1A62427  30.829  22.300   6.292
 4942POPC   D2A62428  30.892  21.932   6.569
 4942POPC   C3A62429  30.919  22.008   7.001
 4942POPC   C4A62430  30.747  22.371   7.224
 4942POPC   C1B62431  30.516  21.917   6.166
 4942POPC   C2B62432  30.365  22.066   6.535
 4942POPC   C3B62433  30.415  22.337   6.853
 4942POPC   C4B62434  30.423  21.987   7.143
 4943POPC   NC362435  35.600  23.179   5.487
 4943POPC   PO462436  35.176  22.603   5.306
 4943POPC   GL162437  35.328  22.808   5.738
 4943POPC   GL262438  35.135  23.076   5.868
 4943POPC   C1A62439  35.550  23.010   6.158
 4943POPC   D2A62440  35.750  22.913   6.584
 4943POPC   C3A62441  35.472  22.798   6.923
 4943POPC   C4A62442  35.295  22.869   7.302
 4943POPC   C1B62443  35.077  22.778   6.196
 4943POPC   C2B62444  35.146  22.951   6.565
 4943POPC   C3B62445  34.944  22.922   6.938
 4943POPC   C4B62446  34.862  23.213   7.257
 4944POPC   NC362447   6.593   9.078   5.366
 4944POPC   PO462448   6.494   8.385   5.359
 4944POPC   GL162449   6.702   8.711   5.663
 4944POPC   GL262450   6.658   8.699   5.886
 4944POPC   C1A62451   6.647   9.165   5.998
 4944POPC   D2A62452   6.482   9.171   6.423
 4944POPC   C3A62453   6.689   9.344   6.802
 4944POPC   C4A62454   6.685   9.170   7.232
 4944POPC   C1B62455   6.818   8.764   6.284
 4944POPC   C2B62456   6.805   8.865   6.697
 4944POPC   C3B62457   6.656   8.696   7.078
 4944POPC   C4B62458   6.943   8.707   7.400
 4945POPC   NC362459  11.177  11.015   4.987
 4945POPC   PO462460  11.323  11.541   5.429
 4945POPC   GL162461  11.360  11.370   5.842
 4945POPC   GL262462  11.034  11.347   5.871
 4945POPC   C1A62463  11.507  11.212   6.203
 4945POPC   D2A62464  11.558  11.365   6.603
 4945POPC   C3A62465  11.571  11.086   6.974
 4945POPC   C4A62466  11.541  11.151   7.416
 4945POPC   C1B62467  11.160  11.614   6.230
 4945POPC   C2B62468  11.134  11.773   6.645
 4945POPC   C3B62469  11.082  11.631   7.074
 4945POPC   C4B62470  11.055  11.191   7.201
 4946POPC   NC362471  26.469  33.644   5.489
 4946POPC   PO462472  26.764  32.948   5.334
 4946POPC   GL162473  26.802  33.184   5.725
 4946POPC   GL262474  26.475  33.256   5.831
 4946POPC   C1A62475  26.812  33.009   6.155
 4946POPC   D2A62476  26.971  33.046   6.583
 4946POPC   C3A62477  26.756  32.773   6.871
 4946POPC   C4A62478  26.917  32.793   7.261
 4946POPC   C1B62479  26.490  33.383   6.253
 4946POPC   C2B62480  26.458  33.139   6.649
 4946POPC   C3B62481  26.618  33.261   7.067
 4946POPC   C4B62482  26.580  33.571   7.426
 4947POPC   NC362483  35.588  36.276   5.601
 4947POPC   PO462484  34.841  36.364   5.457
 4947POPC   GL162485  35.007  36.251   5.859
 4947POPC   GL262486  34.963  35.902   5.996
 4947POPC   C1A62487  35.240  36.285   6.262
 4947POPC   D2A62488  35.252  36.367   6.689
 4947POPC   C3A62489  35.521  36.267   6.999
 4947POPC   C4A62490  35.424  36.051   7.305
 4947POPC   C1B62491  35.251  35.767   6.346
 4947POPC   C2B62492  35.380  35.839   6.795
 4947POPC   C3B62493  35.724  35.701   7.111
 4947POPC   C4B62494  35.679  35.725   7.603
 4948POPC   NC362495   9.696  12.332   5.396
 4948POPC   PO462496  10.088  11.838   5.305
 4948POPC   GL162497   9.722  11.897   5.686
 4948POPC   GL262498   9.434  11.646   5.671
 4948POPC   C1A62499   9.602  12.194   6.077
 4948POPC   D2A62500   9.823  12.516   6.367
 4948POPC   C3A62501   9.770  12.487   6.827
 4948POPC   C4A62502   9.812  12.287   7.241
 4948POPC   C1B62503   9.366  11.679   6.117
 4948POPC   C2B62504   9.264  11.787   6.541
 4948POPC   C3B62505   9.284  11.663   6.957
 4948POPC   C4B62506   9.608  11.817   7.246
 4949POPC   NC362507  21.728  41.882   5.540
 4949POPC   PO462508  22.340  41.686   5.367
 4949POPC   GL162509  22.426  41.650   5.828
 4949POPC   GL262510  22.066  41.658   5.958
 4949POPC   C1A62511  22.411  41.323   6.192
 4949POPC   D2A62512  22.102  41.223   6.538
 4949POPC   C3A62513  22.304  41.210   6.940
 4949POPC   C4A62514  22.329  41.507   7.268
 4949POPC   C1B62515  22.298  41.808   6.332
 4949POPC   C2B62516  22.334  41.702   6.763
 4949POPC   C3B62517  21.930  41.605   6.940
 4949POPC   C4B62518  21.815  41.686   7.354
 4950POPC   NC362519  34.262  13.501   5.279
 4950POPC   PO462520  34.145  14.150   5.307
 4950POPC   GL162521  34.262  13.899   5.749
 4950POPC   GL262522  34.229  13.519   5.783
 4950POPC   C1A62523  34.613  13.710   6.076
 4950POPC   D2A62524  34.743  13.523   6.516
 4950POPC   C3A62525  34.739  13.776   6.931
 4950POPC   C4A62526  34.682  13.636   7.372
 4950POPC   C1B62527  34.226  13.426   6.213
 4950POPC   C2B62528  34.182  13.231   6.601
 4950POPC   C3B62529  34.366  13.420   6.929
 4950POPC   C4B62530  34.209  13.383   7.304
 4951POPC   NC362531  11.370   4.752   5.461
 4951POPC   PO462532  11.600   4.104   5.308
 4951POPC   GL162533  11.310   4.243   5.662
 4951POPC   GL262534  11.480   4.490   5.892
 4951POPC   C1A62535  11.144   4.137   6.096
 4951POPC   D2A62536  10.819   4.251   6.403
 4951POPC   C3A62537  10.851   4.293   6.840
 4951POPC   C4A62538  11.140   4.201   7.181
 4951POPC   C1B62539  11.276   4.580   6.322
 4951POPC   C2B62540  11.351   4.405   6.757
 4951POPC   C3B62541  11.657   4.209   7.080
 4951POPC   C4B62542  11.736   4.314   7.513
 4952POPC   NC362543  15.862  38.005   5.434
 4952POPC   PO462544  15.638  37.331   5.521
 4952POPC   GL162545  15.868  37.642   5.781
 4952POPC   GL262546  15.627  37.840   5.856
 4952POPC   C1A62547  16.071  37.911   6.096
 4952POPC   D2A62548  16.107  37.750   6.493
 4952POPC   C3A62549  16.192  37.968   6.856
 4952POPC   C4A62550  16.077  37.808   7.240
 4952POPC   C1B62551  15.631  37.698   6.264
 4952POPC   C2B62552  15.609  37.764   6.717
 4952POPC   C3B62553  15.589  37.645   7.159
 4952POPC   C4B62554  15.716  37.809   7.565
 4953POPC   NC362555  36.501  32.916   5.271
 4953POPC   PO462556  35.920  33.262   5.446
 4953POPC   GL162557  35.972  33.188   5.877
 4953POPC   GL262558  36.298  33.060   5.832
 4953POPC   C1A62559  36.164  33.236   6.305
 4953POPC   D2A62560  35.983  33.320   6.722
 4953POPC   C3A62561  36.123  33.033   7.047
 4953POPC   C4A62562  36.502  33.002   7.299
 4953POPC   C1B62563  36.424  32.797   6.204
 4953POPC   C2B62564  36.524  32.857   6.657
 4953POPC   C3B62565  36.369  32.582   7.005
 4953POPC   C4B62566  36.393  32.543   7.471
 4954POPC   NC362567   7.911  11.650   5.524
 4954POPC   PO462568   8.266  11.048   5.208
 4954POPC   GL162569   8.248  11.295   5.660
 4954POPC   GL262570   8.344  11.616   5.808
 4954POPC   C1A62571   8.076  11.238   6.109
 4954POPC   D2A62572   8.122  11.365   6.537
 4954POPC   C3A62573   7.967  11.209   6.947
 4954POPC   C4A62574   8.069  11.343   7.338
 4954POPC   C1B62575   8.512  11.510   6.195
 4954POPC   C2B62576   8.533  11.667   6.601
 4954POPC   C3B62577   8.275  11.643   6.950
 4954POPC   C4B62578   8.495  11.639   7.320
 4955POPC   NC362579   7.775  32.445   5.321
 4955POPC   PO462580   7.219  31.999   5.345
 4955POPC   GL162581   7.256  32.169   5.767
 4955POPC   GL262582   6.954  32.090   5.929
 4955POPC   C1A62583   7.512  32.303   6.132
 4955POPC   D2A62584   7.579  32.421   6.574
 4955POPC   C3A62585   7.306  32.352   6.887
 4955POPC   C4A62586   7.478  32.175   7.246
 4955POPC   C1B62587   7.023  32.398   6.266
 4955POPC   C2B62588   6.975  32.701   6.598
 4955POPC   C3B62589   6.865  32.627   7.026
 4955POPC   C4B62590   7.043  32.385   7.367
 4956POPC   NC362591   5.521  43.146   5.554
 4956POPC   PO462592   6.070  42.865   5.463
 4956POPC   GL162593   6.024  43.118   5.823
 4956POPC   GL262594   5.717  43.077   6.006
 4956POPC   C1A62595   6.177  42.968   6.214
 4956POPC   D2A62596   6.289  42.966   6.632
 4956POPC   C3A62597   5.985  43.062   6.928
 4956POPC   C4A62598   5.623  42.901   7.138
 4956POPC   C1B62599   5.948  43.416   6.235
 4956POPC   C2B62600   5.887  43.628   6.648
 4956POPC   C3B62601   5.986  43.578   7.077
 4956POPC   C4B62602   5.862  43.287   7.363
 4957POPC   NC362603  39.511  27.720   5.523
 4957POPC   PO462604  40.124  27.599   5.239
 4957POPC   GL162605  40.053  27.818   5.620
 4957POPC   GL262606  40.007  27.505   5.765
 4957POPC   C1A62607  40.087  27.914   6.082
 4957POPC   D2A62608  39.930  27.887   6.525
 4957POPC   C3A62609  40.189  27.826   6.867
 4957POPC   C4A62610  40.123  27.705   7.285
 4957POPC   C1B62611  40.030  27.416   6.194
 4957POPC   C2B62612  40.044  27.388   6.632
 4957POPC   C3B62613  39.888  27.319   7.047
 4957POPC   C4B62614  39.912  27.174   7.483
 4958POPC   NC362615  38.874   5.154   5.449
 4958POPC   PO462616  38.269   4.798   5.377
 4958POPC   GL162617  38.374   5.124   5.677
 4958POPC   GL262618  38.603   4.924   5.814
 4958POPC   C1A62619  38.345   5.279   6.119
 4958POPC   D2A62620  38.333   5.096   6.543
 4958POPC   C3A62621  38.241   5.349   6.915
 4958POPC   C4A62622  38.524   5.419   7.283
 4958POPC   C1B62623  38.675   4.730   6.167
 4958POPC   C2B62624  38.776   4.745   6.583
 4958POPC   C3B62625  38.609   4.680   6.954
 4958POPC   C4B62626  38.359   4.954   7.208
 4959POPC   NC362627  33.641  20.510   5.467
 4959POPC   PO462628  32.971  20.513   5.548
 4959POPC   GL162629  33.297  20.729   5.800
 4959POPC   GL262630  33.415  20.419   5.960
 4959POPC   C1A62631  33.360  20.834   6.249
 4959POPC   D2A62632  33.309  20.519   6.588
 4959POPC   C3A62633  33.122  20.751   6.937
 4959POPC   C4A62634  32.823  20.975   7.187
 4959POPC   C1B62635  32.970  20.526   6.176
 4959POPC   C2B62636  32.780  20.519   6.578
 4959POPC   C3B62637  32.895  20.272   6.907
 4959POPC   C4B62638  32.669  20.489   7.194
 4960POPC   NC362639  25.114  34.358   5.356
 4960POPC   PO462640  25.560  34.785   5.491
 4960POPC   GL162641  25.371  34.511   5.778
 4960POPC   GL262642  25.021  34.639   5.766
 4960POPC   C1A62643  25.520  34.451   6.190
 4960POPC   D2A62644  25.659  34.693   6.540
 4960POPC   C3A62645  25.537  34.559   6.919
 4960POPC   C4A62646  25.488  34.771   7.295
 4960POPC   C1B62647  24.992  34.511   6.176
 4960POPC   C2B62648  25.154  34.694   6.537
 4960POPC   C3B62649  25.035  34.680   6.957
 4960POPC   C4B62650  25.126  34.353   7.243
 4961POPC   NC362651  17.847  31.315   5.511
 4961POPC   PO462652  17.357  31.871   5.454
 4961POPC   GL162653  17.521  31.664   5.770
 4961POPC   GL262654  17.277  31.491   6.009
 4961POPC   C1A62655  17.771  31.693   6.091
 4961POPC   D2A62656  17.655  31.541   6.465
 4961POPC   C3A62657  17.623  31.802   6.819
 4961POPC   C4A62658  17.793  31.860   7.243
 4961POPC   C1B62659  17.379  31.124   6.309
 4961POPC   C2B62660  17.486  31.162   6.760
 4961POPC   C3B62661  17.630  31.381   7.123
 4961POPC   C4B62662  17.388  31.631   7.432
 4962POPC   NC362663   9.484   9.244   5.136
 4962POPC   PO462664   9.724   8.699   5.272
 4962POPC   GL162665   9.687   8.774   5.726
 4962POPC   GL262666  10.023   8.675   5.853
 4962POPC   C1A62667   9.537   8.905   6.171
 4962POPC   D2A62668   9.432   9.235   6.502
 4962POPC   C3A62669   9.534   9.189   6.947
 4962POPC   C4A62670   9.592   8.877   7.278
 4962POPC   C1B62671  10.052   8.946   6.236
 4962POPC   C2B62672   9.984   9.148   6.651
 4962POPC   C3B62673  10.012   9.191   7.122
 4962POPC   C4B62674  10.037   9.002   7.552
 4963POPC   NC362675   4.258   8.342   5.412
 4963POPC   PO462676   4.263   7.642   5.431
 4963POPC   GL162677   4.248   7.940   5.768
 4963POPC   GL262678   4.042   8.251   5.844
 4963POPC   C1A62679   4.206   7.942   6.206
 4963POPC   D2A62680   4.442   8.125   6.501
 4963POPC   C3A62681   4.313   7.966   6.850
 4963POPC   C4A62682   4.573   7.903   7.180
 4963POPC   C1B62683   4.209   8.474   6.173
 4963POPC   C2B62684   4.238   8.595   6.595
 4963POPC   C3B62685   4.355   8.439   7.012
 4963POPC   C4B62686   4.134   8.147   7.311
 4964POPC   NC362687  25.579  26.716   5.417
 4964POPC   PO462688  24.958  26.913   5.475
 4964POPC   GL162689  25.160  26.709   5.823
 4964POPC   GL262690  25.528  26.607   5.899
 4964POPC   C1A62691  25.103  26.531   6.244
 4964POPC   D2A62692  25.264  26.561   6.681
 4964POPC   C3A62693  25.102  26.855   7.024
 4964POPC   C4A62694  24.839  26.759   7.430
 4964POPC   C1B62695  25.441  26.915   6.199
 4964POPC   C2B62696  25.596  26.926   6.588
 4964POPC   C3B62697  25.609  26.774   6.987
 4964POPC   C4B62698  25.523  27.169   7.133
 4965POPC   NC362699   2.152  30.416   5.323
 4965POPC   PO462700   1.507  30.551   5.415
 4965POPC   GL162701   1.820  30.749   5.757
 4965POPC   GL262702   2.178  30.939   5.715
 4965POPC   C1A62703   2.000  30.685   6.187
 4965POPC   D2A62704   2.067  30.429   6.565
 4965POPC   C3A62705   2.070  30.631   6.948
 4965POPC   C4A62706   1.718  30.704   7.207
 4965POPC   C1B62707   2.349  31.078   6.134
 4965POPC   C2B62708   2.265  30.973   6.557
 4965POPC   C3B62709   2.385  31.047   6.978
 4965POPC   C4B62710   2.153  30.992   7.319
 4966POPC   NC362711  36.818  25.602   5.434
 4966POPC   PO462712  36.920  25.022   5.218
 4966POPC   GL162713  36.799  25.134   5.708
 4966POPC   GL262714  37.007  25.433   5.891
 4966POPC   C1A62715  36.911  25.036   6.184
 4966POPC   D2A62716  37.197  25.246   6.510
 4966POPC   C3A62717  37.050  25.337   6.966
 4966POPC   C4A62718  36.819  25.162   7.318
 4966POPC   C1B62719  36.724  25.626   6.231
 4966POPC   C2B62720  36.566  25.646   6.679
 4966POPC   C3B62721  36.614  25.605   7.139
 4966POPC   C4B62722  36.515  25.499   7.599
 4967POPC   NC362723  21.312  18.423   5.316
 4967POPC   PO462724  21.734  17.918   5.229
 4967POPC   GL162725  21.399  18.025   5.629
 4967POPC   GL262726  21.347  18.378   5.806
 4967POPC   C1A62727  21.250  17.981   6.095
 4967POPC   D2A62728  21.458  18.121   6.498
 4967POPC   C3A62729  21.336  17.995   6.904
 4967POPC   C4A62730  20.987  17.817   7.092
 4967POPC   C1B62731  21.622  18.463   6.136
 4967POPC   C2B62732  21.681  18.588   6.564
 4967POPC   C3B62733  21.421  18.498   6.874
 4967POPC   C4B62734  21.484  18.475   7.282
 4968POPC   NC362735  22.036  40.168   5.284
 4968POPC   PO462736  22.282  39.539   5.438
 4968POPC   GL162737  22.286  39.926   5.735
 4968POPC   GL262738  21.943  40.069   5.766
 4968POPC   C1A62739  22.232  40.184   6.152
 4968POPC   D2A62740  22.397  40.359   6.514
 4968POPC   C3A62741  22.282  40.185   6.911
 4968POPC   C4A62742  22.141  40.343   7.325
 4968POPC   C1B62743  21.943  39.757   6.091
 4968POPC   C2B62744  21.843  39.662   6.533
 4968POPC   C3B62745  21.886  39.841   6.940
 4968POPC   C4B62746  22.183  39.831   7.263
 4969POPC   NC362747  30.147  14.175   5.558
 4969POPC   PO462748  29.833  13.622   5.419
 4969POPC   GL162749  30.079  13.695   5.761
 4969POPC   GL262750  29.836  13.933   5.875
 4969POPC   C1A62751  30.233  13.647   6.199
 4969POPC   D2A62752  30.014  13.337   6.470
 4969POPC   C3A62753  29.974  13.308   6.915
 4969POPC   C4A62754  30.282  13.351   7.207
 4969POPC   C1B62755  29.754  13.789   6.288
 4969POPC   C2B62756  29.911  13.795   6.724
 4969POPC   C3B62757  29.703  13.792   7.146
 4969POPC   C4B62758  29.523  13.655   7.554
 4970POPC   NC362759  39.265   0.041   5.332
 4970POPC   PO462760  39.414   0.781   5.312
 4970POPC   GL162761  39.289   0.643   5.729
 4970POPC   GL262762  39.431   0.319   5.715
 4970POPC   C1A62763  39.305   0.546   6.184
 4970POPC   D2A62764  38.984   0.478   6.498
 4970POPC   C3A62765  39.022   0.559   6.945
 4970POPC   C4A62766  39.441   0.533   7.117
 4970POPC   C1B62767  39.554   0.111   6.058
 4970POPC   C2B62768  39.550   0.148   6.475
 4970POPC   C3B62769  39.729   0.173   6.866
 4970POPC   C4B62770  39.571   0.042   7.226
 4971POPC   NC362771  37.991  23.553   5.550
 4971POPC   PO462772  38.437  24.044   5.379
 4971POPC   GL162773  38.476  23.723   5.700
 4971POPC   GL262774  38.245  23.893   5.888
 4971POPC   C1A62775  38.617  23.558   6.114
 4971POPC   D2A62776  38.450  23.517   6.573
 4971POPC   C3A62777  38.694  23.514   6.985
 4971POPC   C4A62778  38.639  23.559   7.452
 4971POPC   C1B62779  38.433  23.997   6.313
 4971POPC   C2B62780  38.531  23.993   6.768
 4971POPC   C3B62781  38.357  23.880   7.166
 4971POPC   C4B62782  38.494  24.067   7.545
 4972POPC   NC362783   1.349  38.127   5.383
 4972POPC   PO462784   0.947  38.649   5.258
 4972POPC   GL162785   1.103  38.495   5.698
 4972POPC   GL262786   1.458  38.356   5.817
 4972POPC   C1A62787   1.074  38.565   6.166
 4972POPC   D2A62788   1.250  38.619   6.584
 4972POPC   C3A62789   0.982  38.538   6.967
 4972POPC   C4A62790   0.824  38.764   7.373
 4972POPC   C1B62791   1.586  38.424   6.226
 4972POPC   C2B62792   1.765  38.402   6.628
 4972POPC   C3B62793   1.515  38.521   7.003
 4972POPC   C4B62794   1.268  38.522   7.381
 4973POPC   NC362795  21.401   3.183   5.414
 4973POPC   PO462796  21.264   3.841   5.467
 4973POPC   GL162797  21.353   3.606   5.869
 4973POPC   GL262798  21.571   3.263   5.876
 4973POPC   C1A62799  21.089   3.682   6.307
 4973POPC   D2A62800  20.995   3.534   6.748
 4973POPC   C3A62801  21.209   3.771   7.077
 4973POPC   C4A62802  21.576   3.688   7.268
 4973POPC   C1B62803  21.267   3.230   6.189
 4973POPC   C2B62804  21.517   3.368   6.512
 4973POPC   C3B62805  21.548   3.297   6.923
 4973POPC   C4B62806  21.225   3.271   7.162
 4974POPC   NC362807  17.495   4.189   4.910
 4974POPC   PO462808  17.428   4.195   5.569
 4974POPC   GL162809  17.486   4.358   5.914
 4974POPC   GL262810  17.327   4.695   5.877
 4974POPC   C1A62811  17.560   4.146   6.293
 4974POPC   D2A62812  17.819   4.246   6.627
 4974POPC   C3A62813  17.667   4.083   7.006
 4974POPC   C4A62814  17.556   4.366   7.291
 4974POPC   C1B62815  17.241   4.560   6.308
 4974POPC   C2B62816  17.292   4.321   6.689
 4974POPC   C3B62817  17.133   4.500   7.040
 4974POPC   C4B62818  17.076   4.371   7.453
 4975POPC   NC362819  43.588   9.150   5.217
 4975POPC   PO462820  44.126   8.795   5.475
 4975POPC   GL162821  44.000   9.104   5.804
 4975POPC   GL262822  43.965   8.790   5.979
 4975POPC   C1A62823  43.846   9.242   6.271
 4975POPC   D2A62824  43.978   9.382   6.719
 4975POPC   C3A62825  43.839   9.212   7.118
 4975POPC   C4A62826  43.687   8.831   7.276
 4975POPC   C1B62827  44.229   8.641   6.321
 4975POPC   C2B62828  44.041   8.772   6.712
 4975POPC   C3B62829  44.072   8.531   7.076
 4975POPC   C4B62830  44.091   8.398   7.491
 4976POPC   NC362831  18.213  18.029   5.657
 4976POPC   PO462832  18.577  17.473   5.459
 4976POPC   GL162833  18.325  17.561   5.836
 4976POPC   GL262834  18.590  17.773   5.931
 4976POPC   C1A62835  18.294  17.715   6.336
 4976POPC   D2A62836  18.328  17.775   6.828
 4976POPC   C3A62837  18.048  17.601   7.160
 4976POPC   C4A62838  17.889  17.528   7.597
 4976POPC   C1B62839  18.618  17.340   6.155
 4976POPC   C2B62840  18.430  17.226   6.528
 4976POPC   C3B62841  18.390  17.248   6.951
 4976POPC   C4B62842  18.745  17.092   7.101
 4977POPC   NC362843  34.787  24.151   5.297
 4977POPC   PO462844  34.573  24.760   5.311
 4977POPC   GL162845  34.658  24.539   5.700
 4977POPC   GL262846  34.348  24.583   5.860
 4977POPC   C1A62847  34.695  24.333   6.157
 4977POPC   D2A62848  34.658  24.129   6.560
 4977POPC   C3A62849  34.461  24.361   6.880
 4977POPC   C4A62850  34.695  24.331   7.245
 4977POPC   C1B62851  34.665  24.831   6.138
 4977POPC   C2B62852  34.711  24.687   6.562
 4977POPC   C3B62853  34.666  24.822   7.005
 4977POPC   C4B62854  34.285  24.769   7.238
 4978POPC   NC362855  27.473  37.322   5.337
 4978POPC   PO462856  27.765  37.942   5.254
 4978POPC   GL162857  27.511  37.799   5.658
 4978POPC   GL262858  27.448  38.120   5.797
 4978POPC   C1A62859  27.354  37.579   6.088
 4978POPC   D2A62860  27.566  37.377   6.488
 4978POPC   C3A62861  27.531  37.500   6.939
 4978POPC   C4A62862  27.339  37.643   7.330
 4978POPC   C1B62863  27.605  38.006   6.202
 4978POPC   C2B62864  27.392  37.857   6.569
 4978POPC   C3B62865  27.413  38.016   6.983
 4978POPC   C4B62866  27.581  38.119   7.353
 4979POPC   NC362867  43.934  19.654   5.250
 4979POPC   PO462868  44.149  19.005   5.327
 4979POPC   GL162869  44.076  19.084   5.734
 4979POPC   GL262870  43.724  19.056   5.879
 4979POPC   C1A62871  44.118  18.942   6.157
 4979POPC   D2A62872  43.800  19.137   6.428
 4979POPC   C3A62873  43.846  19.140   6.908
 4979POPC   C4A62874  44.022  19.251   7.311
 4979POPC   C1B62875  43.384  18.915   6.155
 4979POPC   C2B62876  43.405  18.872   6.616
 4979POPC   C3B62877  43.464  18.862   7.068
 4979POPC   C4B62878  43.747  18.710   7.419
 4980POPC   NC362879  30.177   6.940   5.476
 4980POPC   PO462880  29.732   6.417   5.474
 4980POPC   GL162881  29.943   6.536   5.827
 4980POPC   GL262882  29.877   6.889   5.892
 4980POPC   C1A62883  29.863   6.553   6.267
 4980POPC   D2A62884  30.079   6.688   6.593
 4980POPC   C3A62885  29.956   6.552   6.968
 4980POPC   C4A62886  29.643   6.755   7.155
 4980POPC   C1B62887  30.277   6.876   6.147
 4980POPC   C2B62888  30.363   7.121   6.535
 4980POPC   C3B62889  30.130   7.129   6.911
 4980POPC   C4B62890  30.186   6.883   7.268
 4981POPC   NC362891  28.837  25.090   5.561
 4981POPC   PO462892  29.327  25.547   5.310
 4981POPC   GL162893  29.095  25.511   5.736
 4981POPC   GL262894  28.759  25.548   5.763
 4981POPC   C1A62895  29.064  25.314   6.155
 4981POPC   D2A62896  28.843  25.335   6.533
 4981POPC   C3A62897  29.153  25.339   6.848
 4981POPC   C4A62898  29.029  25.067   7.185
 4981POPC   C1B62899  28.695  25.665   6.176
 4981POPC   C2B62900  28.829  25.845   6.575
 4981POPC   C3B62901  28.759  25.620   6.981
 4981POPC   C4B62902  28.832  25.514   7.417
 4982POPC   NC362903  24.266   7.577   5.359
 4982POPC   PO462904  24.414   6.965   5.445
 4982POPC   GL162905  24.486   7.339   5.762
 4982POPC   GL262906  24.167   7.478   5.844
 4982POPC   C1A62907  24.630   7.619   6.141
 4982POPC   D2A62908  24.720   7.503   6.608
 4982POPC   C3A62909  24.497   7.458   7.036
 4982POPC   C4A62910  24.572   7.530   7.506
 4982POPC   C1B62911  24.250   7.314   6.249
 4982POPC   C2B62912  24.049   7.160   6.599
 4982POPC   C3B62913  24.187   7.028   7.009
 4982POPC   C4B62914  24.119   7.281   7.395
 4983POPC   NC362915  11.222  11.999   5.137
 4983POPC   PO462916  11.793  12.099   5.522
 4983POPC   GL162917  11.353  12.148   5.669
 4983POPC   GL262918  11.419  11.869   5.862
 4983POPC   C1A62919  11.156  12.235   6.098
 4983POPC   D2A62920  11.377  12.256   6.475
 4983POPC   C3A62921  11.290  12.191   6.897
 4983POPC   C4A62922  11.228  12.198   7.295
 4983POPC   C1B62923  11.645  11.785   6.269
 4983POPC   C2B62924  11.638  11.856   6.729
 4983POPC   C3B62925  11.567  11.771   7.170
 4983POPC   C4B62926  11.647  12.039   7.535
 4984POPC   NC362927  20.298   5.803   5.398
 4984POPC   PO462928  19.663   5.773   5.093
 4984POPC   GL162929  19.770   5.846   5.614
 4984POPC   GL262930  20.105   5.998   5.811
 4984POPC   C1A62931  19.732   5.849   6.110
 4984POPC   D2A62932  19.629   6.060   6.520
 4984POPC   C3A62933  19.731   5.884   6.935
 4984POPC   C4A62934  19.894   5.541   7.214
 4984POPC   C1B62935  20.316   6.086   6.220
 4984POPC   C2B62936  20.160   6.140   6.673
 4984POPC   C3B62937  20.191   6.082   7.144
 4984POPC   C4B62938  20.185   5.818   7.528
 4985POPC   NC362939  23.652   4.589   5.475
 4985POPC   PO462940  23.889   3.973   5.329
 4985POPC   GL162941  23.873   4.191   5.715
 4985POPC   GL262942  23.509   4.136   5.658
 4985POPC   C1A62943  23.984   4.405   6.124
 4985POPC   D2A62944  24.093   4.685   6.491
 4985POPC   C3A62945  23.826   4.623   6.846
 4985POPC   C4A62946  23.933   4.274   7.099
 4985POPC   C1B62947  23.528   4.088   6.089
 4985POPC   C2B62948  23.558   4.308   6.459
 4985POPC   C3B62949  23.511   4.163   6.851
 4985POPC   C4B62950  23.448   4.321   7.245
 4986POPC   NC362951  43.944  21.092   5.586
 4986POPC   PO462952  43.986  21.756   5.417
 4986POPC   GL162953  44.009  21.557   5.783
 4986POPC   GL262954  43.643  21.474   5.794
 4986POPC   C1A62955  44.037  21.430   6.192
 4986POPC   D2A62956  43.862  21.408   6.584
 4986POPC   C3A62957  44.154  21.378   6.910
 4986POPC   C4A62958  44.063  21.397   7.308
 4986POPC   C1B62959  43.528  21.258   6.199
 4986POPC   C2B62960  43.420  21.139   6.650
 4986POPC   C3B62961  43.674  21.195   7.043
 4986POPC   C4B62962  43.576  21.513   7.400
 4987POPC   NC362963   0.705  42.271   5.479
 4987POPC   PO462964   0.048  42.597   5.428
 4987POPC   GL162965   0.215  42.306   5.800
 4987POPC   GL262966   0.547  42.373   5.938
 4987POPC   C1A62967   0.262  42.138   6.250
 4987POPC   D2A62968   0.446  42.400   6.570
 4987POPC   C3A62969   0.342  42.205   6.957
 4987POPC   C4A62970   0.210  42.397   7.322
 4987POPC   C1B62971   0.792  42.083   6.231
 4987POPC   C2B62972   0.778  42.040   6.695
 4987POPC   C3B62973   0.810  42.374   7.010
 4987POPC   C4B62974   0.716  42.500   7.432
 4988POPC   NC362975  17.978  13.156   5.159
 4988POPC   PO462976  18.419  12.817   5.452
 4988POPC   GL162977  18.424  12.677   5.838
 4988POPC   GL262978  18.425  13.008   5.967
 4988POPC   C1A62979  18.174  12.606   6.198
 4988POPC   D2A62980  17.949  12.677   6.602
 4988POPC   C3A62981  18.211  12.737   6.979
 4988POPC   C4A62982  18.167  12.661   7.418
 4988POPC   C1B62983  18.082  13.135   6.234
 4988POPC   C2B62984  18.183  13.323   6.610
 4988POPC   C3B62985  18.077  13.265   7.009
 4988POPC   C4B62986  18.318  13.155   7.366
 4989POPC   NC362987  32.556  17.134   5.036
 4989POPC   PO462988  32.267  16.711   5.436
 4989POPC   GL162989  32.093  16.920   5.848
 4989POPC   GL262990  32.405  16.882   5.937
 4989POPC   C1A62991  32.158  17.004   6.345
 4989POPC   D2A62992  32.532  16.887   6.617
 4989POPC   C3A62993  32.377  16.858   7.035
 4989POPC   C4A62994  31.918  16.730   7.051
 4989POPC   C1B62995  32.554  16.510   6.118
 4989POPC   C2B62996  32.500  16.356   6.523
 4989POPC   C3B62997  32.352  16.375   6.935
 4989POPC   C4B62998  32.465  16.336   7.337
 4990POPC   NC362999  30.116   4.985   5.442
 4990POPC   PO463000  30.727   5.155   5.362
 4990POPC   GL163001  30.565   5.033   5.809
 4990POPC   GL263002  30.335   4.739   5.845
 4990POPC   C1A63003  30.628   5.107   6.285
 4990POPC   D2A63004  30.741   5.350   6.683
 4990POPC   C3A63005  30.889   5.051   6.970
 4990POPC   C4A63006  30.907   4.965   7.392
 4990POPC   C1B63007  30.201   4.800   6.295
 4990POPC   C2B63008  30.334   4.961   6.729
 4990POPC   C3B63009  30.440   4.899   7.186
 4990POPC   C4B63010  30.372   4.791   7.660
 4991POPC   NC363011  27.300   2.029   5.321
 4991POPC   PO463012  26.742   1.683   5.399
 4991POPC   GL163013  27.023   1.820   5.754
 4991POPC   GL263014  26.795   2.078   5.960
 4991POPC   C1A63015  27.144   1.825   6.208
 4991POPC   D2A63016  26.862   1.854   6.579
 4991POPC   C3A63017  27.077   1.941   6.986
 4991POPC   C4A63018  27.134   1.796   7.417
 4991POPC   C1B63019  26.451   2.212   6.245
 4991POPC   C2B63020  26.356   2.025   6.628
 4991POPC   C3B63021  26.564   1.953   7.009
 4991POPC   C4B63022  26.536   2.318   7.222
 4992POPC   NC363023  19.010  14.741   5.325
 4992POPC   PO463024  18.896  14.073   5.515
 4992POPC   GL163025  19.182  14.385   5.677
 4992POPC   GL263026  19.031  14.701   5.815
 4992POPC   C1A63027  19.336  14.347   6.106
 4992POPC   D2A63028  19.084  14.249   6.473
 4992POPC   C3A63029  19.188  14.298   6.905
 4992POPC   C4A63030  19.010  14.564   7.229
 4992POPC   C1B63031  19.309  14.872   6.088
 4992POPC   C2B63032  19.366  14.699   6.482
 4992POPC   C3B63033  19.352  14.785   6.875
 4992POPC   C4B63034  19.356  14.956   7.263
 4993POPC   NC363035  24.591  39.398   5.506
 4993POPC   PO463036  24.276  38.822   5.356
 4993POPC   GL163037  24.360  38.948   5.837
 4993POPC   GL263038  24.409  39.307   5.984
 4993POPC   C1A63039  24.550  38.941   6.287
 4993POPC   D2A63040  24.381  39.175   6.637
 4993POPC   C3A63041  24.569  39.081   7.034
 4993POPC   C4A63042  24.395  39.081   7.438
 4993POPC   C1B63043  24.651  39.514   6.294
 4993POPC   C2B63044  24.575  39.635   6.722
 4993POPC   C3B63045  24.490  39.563   7.172
 4993POPC   C4B63046  24.307  39.837   7.478
 4994POPC   NC363047  24.520  27.130   5.442
 4994POPC   PO463048  24.331  26.473   5.509
 4994POPC   GL163049  24.349  26.805   5.838
 4994POPC   GL263050  24.679  26.948   5.886
 4994POPC   C1A63051  24.407  26.821   6.295
 4994POPC   D2A63052  24.407  26.494   6.612
 4994POPC   C3A63053  24.237  26.597   6.996
 4994POPC   C4A63054  24.340  26.890   7.303
 4994POPC   C1B63055  24.936  27.025   6.220
 4994POPC   C2B63056  24.831  26.823   6.582
 4994POPC   C3B63057  24.541  26.987   6.836
 4994POPC   C4B63058  24.737  27.171   7.175
 4995POPC   NC363059  10.202   9.241   5.522
 4995POPC   PO463060  10.609   8.773   5.319
 4995POPC   GL163061  10.501   8.893   5.756
 4995POPC   GL263062  10.696   9.189   5.858
 4995POPC   C1A63063  10.559   8.844   6.210
 4995POPC   D2A63064  10.771   8.930   6.586
 4995POPC   C3A63065  10.462   9.075   6.876
 4995POPC   C4A63066  10.482   9.052   7.312
 4995POPC   C1B63067  10.757   9.421   6.271
 4995POPC   C2B63068  10.829   9.424   6.724
 4995POPC   C3B63069  10.934   9.139   7.065
 4995POPC   C4B63070  10.930   9.191   7.550
 4996POPC   NC363071  36.631  21.536   5.525
 4996POPC   PO463072  37.252  21.613   5.536
 4996POPC   GL163073  36.979  21.226   5.760
 4996POPC   GL263074  36.596  21.105   5.838
 4996POPC   C1A63075  36.909  21.236   6.219
 4996POPC   D2A63076  37.030  21.493   6.551
 4996POPC   C3A63077  36.743  21.523   6.890
 4996POPC   C4A63078  36.911  21.582   7.279
 4996POPC   C1B63079  36.661  20.811   6.259
 4996POPC   C2B63080  36.811  20.913   6.699
 4996POPC   C3B63081  36.686  21.051   7.140
 4996POPC   C4B63082  36.840  21.171   7.571
 4997POPC   NC363083   2.596  15.701   5.153
 4997POPC   PO463084   3.128  16.108   5.198
 4997POPC   GL163085   2.817  15.973   5.580
 4997POPC   GL263086   2.724  15.662   5.724
 4997POPC   C1A63087   2.713  16.093   6.055
 4997POPC   D2A63088   2.906  16.269   6.467
 4997POPC   C3A63089   2.768  16.113   6.874
 4997POPC   C4A63090   2.557  16.128   7.248
 4997POPC   C1B63091   2.814  15.588   6.156
 4997POPC   C2B63092   2.962  15.723   6.556
 4997POPC   C3B63093   2.894  15.614   6.978
 4997POPC   C4B63094   2.971  15.811   7.349
 4998POPC   NC363095   6.429  44.335   5.498
 4998POPC   PO463096   6.587  43.721   5.467
 4998POPC   GL163097   6.657  43.818   5.877
 4998POPC   GL263098   6.766  44.145   5.815
 4998POPC   C1A63099   6.761  43.788   6.320
 4998POPC   D2A63100   7.079  43.620   6.598
 4998POPC   C3A63101   6.858  43.621   6.981
 4998POPC   C4A63102   6.919  43.738   7.419
 4998POPC   C1B63103   6.697  44.429   6.153
 4998POPC   C2B63104   6.551  44.257   6.518
 4998POPC   C3B63105   6.710  44.097   6.884
 4998POPC   C4B63106   6.607  44.115   7.289
 4999POPC   NC363107  40.997  17.143   5.590
 4999POPC   PO463108  40.540  17.596   5.417
 4999POPC   GL163109  40.627  17.410   5.820
 4999POPC   GL263110  40.941  17.623   5.812
 4999POPC   C1A63111  40.752  17.205   6.231
 4999POPC   D2A63112  41.029  17.201   6.596
 4999POPC   C3A63113  40.793  17.223   6.996
 4999POPC   C4A63114  40.643  17.475   7.343
 4999POPC   C1B63115  40.730  17.728   6.209
 4999POPC   C2B63116  40.685  17.586   6.630
 4999POPC   C3B63117  40.860  17.768   6.990
 4999POPC   C4B63118  40.808  17.946   7.395
 5000POPC   NC363119  13.266  39.531   5.357
 5000POPC   PO463120  13.465  38.900   5.512
 5000POPC   GL163121  13.677  39.222   5.710
 5000POPC   GL263122  13.418  39.233   5.949
 5000POPC   C1A63123  13.902  39.356   6.093
 5000POPC   D2A63124  13.800  39.161   6.512
 5000POPC   C3A63125  13.908  39.280   6.937
 5000POPC   C4A63126  13.792  39.283   7.365
 5000POPC   C1B63127  13.220  39.279   6.377
 5000POPC   C2B63128  13.383  39.385   6.762
 5000POPC   C3B63129  13.301  39.427   7.180
 5000POPC   C4B63130  13.275  39.812   7.344
 5001POPC   NC363131  26.214  19.401   5.505
 5001POPC   PO463132  25.626  19.655   5.420
 5001POPC   GL163133  25.894  19.740   5.739
 5001POPC   GL263134  25.920  20.057   5.800
 5001POPC   C1A63135  26.005  19.630   6.135
 5001POPC   D2A63136  26.147  19.839   6.471
 5001POPC   C3A63137  25.952  19.744   6.840
 5001POPC   C4A63138  26.051  19.904   7.255
 5001POPC   C1B63139  25.758  20.082   6.195
 5001POPC   C2B63140  25.658  20.083   6.593
 5001POPC   C3B63141  25.678  20.151   7.002
 5001POPC   C4B63142  25.623  20.158   7.433
 5002POPC   NC363143  41.385  38.623   5.397
 5002POPC   PO463144  40.807  38.265   5.217
 5002POPC   GL163145  40.934  38.462   5.657
 5002POPC   GL263146  40.871  38.838   5.701
 5002POPC   C1A63147  40.910  38.452   6.153
 5002POPC   D2A63148  40.575  38.472   6.517
 5002POPC   C3A63149  40.754  38.478   6.968
 5002POPC   C4A63150  41.129  38.676   7.142
 5002POPC   C1B63151  40.699  38.917   6.145
 5002POPC   C2B63152  40.859  38.900   6.579
 5002POPC   C3B63153  40.742  38.985   6.988
 5002POPC   C4B63154  40.658  38.797   7.397
 5003POPC   NC363155  42.011  39.399   5.471
 5003POPC   PO463156  42.439  38.893   5.468
 5003POPC   GL163157  42.460  39.259   5.847
 5003POPC   GL263158  42.211  39.538   5.912
 5003POPC   C1A63159  42.480  39.390   6.317
 5003POPC   D2A63160  42.155  39.197   6.605
 5003POPC   C3A63161  42.272  38.953   6.987
 5003POPC   C4A63162  42.352  39.068   7.417
 5003POPC   C1B63163  41.986  39.595   6.315
 5003POPC   C2B63164  42.065  39.662   6.780
 5003POPC   C3B63165  42.279  39.475   7.125
 5003POPC   C4B63166  42.262  39.563   7.584
 5004POPC   NC363167  41.148   6.818   5.528
 5004POPC   PO463168  40.590   6.470   5.474
 5004POPC   GL163169  40.684   6.715   5.852
 5004POPC   GL263170  40.837   7.049   5.869
 5004POPC   C1A63171  40.645   6.720   6.303
 5004POPC   D2A63172  40.725   6.992   6.648
 5004POPC   C3A63173  40.589   6.762   6.989
 5004POPC   C4A63174  40.638   6.381   7.215
 5004POPC   C1B63175  41.134   6.804   6.164
 5004POPC   C2B63176  41.133   6.652   6.553
 5004POPC   C3B63177  41.112   6.836   6.920
 5004POPC   C4B63178  41.048   6.957   7.292
 5005POPC   NC363179  15.242  23.337   5.589
 5005POPC   PO463180  15.427  22.697   5.403
 5005POPC   GL163181  15.198  22.825   5.758
 5005POPC   GL263182  15.496  22.981   5.895
 5005POPC   C1A63183  15.044  22.933   6.184
 5005POPC   D2A63184  15.191  22.941   6.632
 5005POPC   C3A63185  14.878  23.064   6.955
 5005POPC   C4A63186  14.955  22.968   7.387
 5005POPC   C1B63187  15.493  22.653   6.229
 5005POPC   C2B63188  15.527  22.522   6.695
 5005POPC   C3B63189  15.337  22.730   7.083
 5005POPC   C4B63190  15.401  23.165   7.229
 5006POPC   NC363191  27.988  25.863   5.325
 5006POPC   PO463192  28.493  26.161   5.198
 5006POPC   GL163193  28.437  25.938   5.664
 5006POPC   GL263194  28.158  26.019   5.828
 5006POPC   C1A63195  28.545  26.127   6.122
 5006POPC   D2A63196  28.342  26.065   6.534
 5006POPC   C3A63197  28.574  26.123   6.905
 5006POPC   C4A63198  28.598  25.988   7.304
 5006POPC   C1B63199  28.079  26.313   6.180
 5006POPC   C2B63200  27.933  26.369   6.626
 5006POPC   C3B63201  28.082  26.165   7.003
 5006POPC   C4B63202  28.110  26.086   7.448
 5007POPC   NC363203  21.139   8.005   5.632
 5007POPC   PO463204  21.260   7.499   5.245
 5007POPC   GL163205  21.349   7.545   5.706
 5007POPC   GL263206  21.593   7.805   5.811
 5007POPC   C1A63207  21.188   7.385   6.111
 5007POPC   D2A63208  21.312   7.306   6.547
 5007POPC   C3A63209  21.066   7.112   6.859
 5007POPC   C4A63210  21.227   7.217   7.266
 5007POPC   C1B63211  21.575   7.713   6.262
 5007POPC   C2B63212  21.383   7.798   6.686
 5007POPC   C3B63213  21.492   7.657   7.109
 5007POPC   C4B63214  21.878   7.782   7.326
 5008POPC   NC363215  14.884  20.973   5.476
 5008POPC   PO463216  15.347  20.524   5.424
 5008POPC   GL163217  15.141  20.588   5.786
 5008POPC   GL263218  14.908  20.303   5.903
 5008POPC   C1A63219  15.254  20.538   6.206
 5008POPC   D2A63220  14.970  20.403   6.516
 5008POPC   C3A63221  15.219  20.487   6.854
 5008POPC   C4A63222  15.207  20.509   7.251
 5008POPC   C1B63223  14.757  20.667   6.110
 5008POPC   C2B63224  14.634  20.821   6.491
 5008POPC   C3B63225  14.783  20.744   6.880
 5008POPC   C4B63226  14.786  20.761   7.274
 5009POPC   NC363227  11.361  31.525   5.419
 5009POPC   PO463228  11.088  31.009   5.585
 5009POPC   GL163229  11.174  31.359   5.877
 5009POPC   GL263230  11.547  31.333   5.871
 5009POPC   C1A63231  11.201  31.371   6.334
 5009POPC   D2A63232  11.323  31.191   6.725
 5009POPC   C3A63233  11.091  31.333   7.027
 5009POPC   C4A63234  10.892  31.322   7.415
 5009POPC   C1B63235  11.499  31.727   6.107
 5009POPC   C2B63236  11.388  31.812   6.555
 5009POPC   C3B63237  11.570  31.648   6.933
 5009POPC   C4B63238  11.542  31.295   7.224
 5010POPC   NC363239  22.392  25.610   5.485
 5010POPC   PO463240  22.558  24.927   5.349
 5010POPC   GL163241  22.740  25.177   5.719
 5010POPC   GL263242  22.815  24.862   5.880
 5010POPC   C1A63243  23.039  25.279   6.103
 5010POPC   D2A63244  23.240  25.317   6.538
 5010POPC   C3A63245  22.908  25.360   6.855
 5010POPC   C4A63246  22.801  25.394   7.283
 5010POPC   C1B63247  23.025  24.774   6.272
 5010POPC   C2B63248  23.027  24.862   6.713
 5010POPC   C3B63249  22.851  24.917   7.129
 5010POPC   C4B63250  22.967  25.012   7.579
 5011POPC   NC363251  36.585  35.668   5.420
 5011POPC   PO463252  36.754  34.943   5.461
 5011POPC   GL163253  36.976  35.148   5.805
 5011POPC   GL263254  36.957  35.518   5.781
 5011POPC   C1A63255  36.932  35.107   6.250
 5011POPC   D2A63256  36.836  35.414   6.546
 5011POPC   C3A63257  36.715  35.367   6.980
 5011POPC   C4A63258  37.033  35.250   7.264
 5011POPC   C1B63259  37.198  35.548   6.153
 5011POPC   C2B63260  37.223  35.738   6.562
 5011POPC   C3B63261  37.159  35.685   6.994
 5011POPC   C4B63262  37.279  35.700   7.433
 5012POPC   NC363263  19.911  24.043   5.546
 5012POPC   PO463264  19.960  24.703   5.155
 5012POPC   GL163265  19.721  24.723   5.607
 5012POPC   GL263266  19.555  24.409   5.727
 5012POPC   C1A63267  19.805  24.670   6.085
 5012POPC   D2A63268  19.907  24.345   6.404
 5012POPC   C3A63269  20.001  24.446   6.789
 5012POPC   C4A63270  20.041  24.605   7.147
 5012POPC   C1B63271  19.521  24.190   6.115
 5012POPC   C2B63272  19.522  23.985   6.514
 5012POPC   C3B63273  19.538  24.208   6.839
 5012POPC   C4B63274  19.683  24.240   7.210
 5013POPC   NC363275   0.065  40.147   5.239
 5013POPC   PO463276  44.489  40.265   5.436
 5013POPC   GL163277  44.648  40.224   5.835
 5013POPC   GL263278  44.958  40.136   5.803
 5013POPC   C1A63279  44.593  40.082   6.245
 5013POPC   D2A63280  44.782  39.945   6.628
 5013POPC   C3A63281  44.507  40.034   6.916
 5013POPC   C4A63282  44.377  39.758   7.208
 5013POPC   C1B63283   0.057  40.303   6.218
 5013POPC   C2B63284   0.177  40.268   6.660
 5013POPC   C3B63285   0.050  40.169   7.063
 5013POPC   C4B63286  44.908  39.780   7.143
 5014POPC   NC363287  21.479   0.703   5.538
 5014POPC   PO463288  21.390   0.041   5.364
 5014POPC   GL163289  21.281   0.297   5.801
 5014POPC   GL263290  21.216   0.686   5.960
 5014POPC   C1A63291  21.535   0.371   6.196
 5014POPC   D2A63292  21.516   0.158   6.602
 5014POPC   C3A63293  21.586   0.398   6.956
 5014POPC   C4A63294  21.450   0.473   7.366
 5014POPC   C1B63295  21.052   0.505   6.324
 5014POPC   C2B63296  21.090   0.433   6.771
 5014POPC   C3B63297  20.983   0.321   7.207
 5014POPC   C4B63298  20.997   0.587   7.618
 5015POPC   NC363299  31.423  40.501   5.448
 5015POPC   PO463300  31.843  40.254   5.917
 5015POPC   GL163301  31.598  40.571   5.920
 5015POPC   GL263302  31.699  40.833   5.755
 5015POPC   C1A63303  31.324  40.763   6.158
 5015POPC   D2A63304  31.206  40.630   6.528
 5015POPC   C3A63305  31.462  40.673   6.875
 5015POPC   C4A63306  31.307  40.726   7.269
 5015POPC   C1B63307  31.773  40.995   6.178
 5015POPC   C2B63308  31.651  41.102   6.614
 5015POPC   C3B63309  31.793  41.027   7.065
 5015POPC   C4B63310  31.638  41.021   7.516
 5016POPC   NC363311  33.340  32.181   5.324
 5016POPC   PO463312  33.921  31.769   5.391
 5016POPC   GL163313  33.876  32.003   5.786
 5016POPC   GL263314  33.642  32.281   5.737
 5016POPC   C1A63315  33.852  32.077   6.218
 5016POPC   D2A63316  34.071  32.082   6.568
 5016POPC   C3A63317  33.892  32.209   6.920
 5016POPC   C4A63318  33.924  32.144   7.321
 5016POPC   C1B63319  33.787  32.536   6.058
 5016POPC   C2B63320  33.830  32.540   6.466
 5016POPC   C3B63321  34.128  32.623   6.734
 5016POPC   C4B63322  34.043  32.678   7.159
 5017POPC   NC363323  13.884  12.640   5.384
 5017POPC   PO463324  13.309  13.032   5.527
 5017POPC   GL163325  13.630  12.861   5.796
 5017POPC   GL263326  13.946  13.006   5.779
 5017POPC   C1A63327  13.763  12.726   6.215
 5017POPC   D2A63328  13.580  12.869   6.603
 5017POPC   C3A63329  13.814  12.701   6.951
 5017POPC   C4A63330  13.815  12.507   7.355
 5017POPC   C1B63331  13.835  13.214   6.160
 5017POPC   C2B63332  13.951  13.275   6.575
 5017POPC   C3B63333  13.728  13.229   6.942
 5017POPC   C4B63334  13.668  13.050   7.302
 5018POPC   NC363335  12.424  13.132   5.376
 5018POPC   PO463336  11.918  13.685   5.430
 5018POPC   GL163337  11.817  13.629   5.834
 5018POPC   GL263338  12.186  13.683   5.935
 5018POPC   C1A63339  11.792  13.763   6.233
 5018POPC   D2A63340  12.121  13.716   6.527
 5018POPC   C3A63341  11.950  13.702   6.936
 5018POPC   C4A63342  12.117  13.756   7.347
 5018POPC   C1B63343  12.378  13.384   6.220
 5018POPC   C2B63344  12.255  13.245   6.650
 5018POPC   C3B63345  12.370  13.416   7.061
 5018POPC   C4B63346  12.339  13.351   7.529
 5019POPC   NC363347  41.762  34.090   5.580
 5019POPC   PO463348  41.274  33.618   5.444
 5019POPC   GL163349  41.478  33.735   5.811
 5019POPC   GL263350  41.858  33.632   5.816
 5019POPC   C1A63351  41.378  33.907   6.192
 5019POPC   D2A63352  41.184  33.812   6.550
 5019POPC   C3A63353  41.406  33.838   6.899
 5019POPC   C4A63354  41.244  33.858   7.262
 5019POPC   C1B63355  41.875  33.845   6.202
 5019POPC   C2B63356  41.854  33.943   6.638
 5019POPC   C3B63357  41.911  33.998   7.064
 5019POPC   C4B63358  41.731  33.753   7.401
 5020POPC   NC363359  33.967  28.307   4.888
 5020POPC   PO463360  33.570  28.246   5.473
 5020POPC   GL163361  33.866  28.516   5.739
 5020POPC   GL263362  34.070  28.320   5.869
 5020POPC   C1A63363  33.791  28.591   6.192
 5020POPC   D2A63364  33.628  28.344   6.519
 5020POPC   C3A63365  33.776  28.519   6.860
 5020POPC   C4A63366  33.842  28.540   7.244
 5020POPC   C1B63367  33.797  28.069   6.117
 5020POPC   C2B63368  33.851  27.881   6.502
 5020POPC   C3B63369  33.920  28.019   6.871
 5020POPC   C4B63370  33.975  28.048   7.268
 5021POPC   NC363371  26.960  21.458   5.315
 5021POPC   PO463372  26.371  21.138   5.389
 5021POPC   GL163373  26.695  21.266   5.756
 5021POPC   GL263374  26.961  21.543   5.834
 5021POPC   C1A63375  26.872  21.228   6.215
 5021POPC   D2A63376  27.065  21.354   6.602
 5021POPC   C3A63377  26.936  21.151   7.007
 5021POPC   C4A63378  26.974  21.069   7.460
 5021POPC   C1B63379  26.908  21.760   6.244
 5021POPC   C2B63380  26.956  21.873   6.661
 5021POPC   C3B63381  27.030  21.646   7.037
 5021POPC   C4B63382  26.712  21.520   7.335
 5022POPC   NC363383  35.590  31.309   5.157
 5022POPC   PO463384  36.140  31.654   5.346
 5022POPC   GL163385  36.171  31.515   5.764
 5022POPC   GL263386  36.179  31.860   5.887
 5022POPC   C1A63387  36.400  31.506   6.195
 5022POPC   D2A63388  36.442  31.840   6.529
 5022POPC   C3A63389  36.335  31.715   6.957
 5022POPC   C4A63390  36.443  31.420   7.271
 5022POPC   C1B63391  35.892  31.621   6.177
 5022POPC   C2B63392  35.966  31.544   6.605
 5022POPC   C3B63393  35.801  31.722   6.976
 5022POPC   C4B63394  35.915  31.472   7.301
 5023POPC   NC363395  35.073  25.752   5.515
 5023POPC   PO463396  35.488  26.263   5.494
 5023POPC   GL163397  35.223  26.137   5.800
 5023POPC   GL263398  35.336  25.814   5.970
 5023POPC   C1A63399  35.096  26.207   6.177
 5023POPC   D2A63400  35.278  26.040   6.510
 5023POPC   C3A63401  35.323  26.285   6.874
 5023POPC   C4A63402  35.556  26.466   7.214
 5023POPC   C1B63403  35.639  25.720   6.344
 5023POPC   C2B63404  35.588  25.756   6.787
 5023POPC   C3B63405  35.133  25.821   6.953
 5023POPC   C4B63406  35.405  25.938   7.258
 5024POPC   NC363407  22.422  19.684   5.322
 5024POPC   PO463408  22.126  20.274   5.202
 5024POPC   GL163409  21.899  20.011   5.533
 5024POPC   GL263410  21.982  19.647   5.659
 5024POPC   C1A63411  21.912  20.016   6.012
 5024POPC   D2A63412  21.921  19.792   6.429
 5024POPC   C3A63413  21.822  19.957   6.843
 5024POPC   C4A63414  21.838  19.855   7.278
 5024POPC   C1B63415  22.246  19.608   6.054
 5024POPC   C2B63416  22.357  19.550   6.530
 5024POPC   C3B63417  22.341  19.816   6.891
 5024POPC   C4B63418  22.309  19.692   7.299
 5025POPC   NC363419  16.192  43.236   5.418
 5025POPC   PO463420  15.586  43.282   5.410
 5025POPC   GL163421  15.802  43.149   5.785
 5025POPC   GL263422  16.022  42.868   5.779
 5025POPC   C1A63423  15.907  43.367   6.168
 5025POPC   D2A63424  15.723  43.586   6.502
 5025POPC   C3A63425  15.877  43.529   6.903
 5025POPC   C4A63426  16.065  43.194   7.136
 5025POPC   C1B63427  15.963  42.867   6.253
 5025POPC   C2B63428  16.149  43.055   6.635
 5025POPC   C3B63429  16.434  42.913   6.952
 5025POPC   C4B63430  16.346  42.827   7.403
 5026POPC   NC363431  21.228   7.085   5.442
 5026POPC   PO463432  21.469   6.502   5.297
 5026POPC   GL163433  21.520   6.479   5.744
 5026POPC   GL263434  21.446   6.825   5.853
 5026POPC   C1A63435  21.301   6.440   6.158
 5026POPC   D2A63436  21.238   6.767   6.484
 5026POPC   C3A63437  21.292   6.589   6.888
 5026POPC   C4A63438  21.298   6.721   7.259
 5026POPC   C1B63439  21.619   7.088   6.199
 5026POPC   C2B63440  21.783   7.092   6.594
 5026POPC   C3B63441  21.574   7.028   6.943
 5026POPC   C4B63442  21.748   6.977   7.354
 5027POPC   NC363443  38.995   2.530   5.501
 5027POPC   PO463444  39.061   3.175   5.437
 5027POPC   GL163445  39.251   2.858   5.774
 5027POPC   GL263446  38.996   2.684   5.987
 5027POPC   C1A63447  39.497   2.559   6.089
 5027POPC   D2A63448  39.565   2.603   6.562
 5027POPC   C3A63449  39.184   2.632   6.857
 5027POPC   C4A63450  38.919   2.601   7.259
 5027POPC   C1B63451  39.247   2.976   6.262
 5027POPC   C2B63452  39.333   3.096   6.671
 5027POPC   C3B63453  39.447   3.026   7.102
 5027POPC   C4B63454  39.338   3.117   7.506
 5028POPC   NC363455   4.841  18.756   5.180
 5028POPC   PO463456   5.427  19.052   5.320
 5028POPC   GL163457   5.050  18.995   5.594
 5028POPC   GL263458   5.288  19.109   5.822
 5028POPC   C1A63459   4.851  19.011   6.045
 5028POPC   D2A63460   5.097  18.890   6.431
 5028POPC   C3A63461   4.891  18.942   6.826
 5028POPC   C4A63462   4.927  18.961   7.252
 5028POPC   C1B63463   5.269  19.419   6.143
 5028POPC   C2B63464   5.334  19.316   6.562
 5028POPC   C3B63465   5.402  19.049   6.895
 5028POPC   C4B63466   5.364  19.199   7.292
 5029POPC   NC363467   5.702  11.158   5.441
 5029POPC   PO463468   5.994  11.762   5.426
 5029POPC   GL163469   6.100  11.528   5.788
 5029POPC   GL263470   6.223  11.173   5.715
 5029POPC   C1A63471   5.903  11.567   6.188
 5029POPC   D2A63472   5.654  11.636   6.547
 5029POPC   C3A63473   5.852  11.439   6.885
 5029POPC   C4A63474   6.019  11.557   7.236
 5029POPC   C1B63475   5.997  11.074   6.104
 5029POPC   C2B63476   6.088  11.124   6.537
 5029POPC   C3B63477   6.038  10.942   6.944
 5029POPC   C4B63478   5.655  11.030   7.174
 5030POPC   NC363479  32.903  39.596   5.532
 5030POPC   PO463480  32.797  40.276   5.622
 5030POPC   GL163481  33.156  40.211   5.808
 5030POPC   GL263482  33.055  39.884   5.913
 5030POPC   C1A63483  33.319  40.164   6.236
 5030POPC   D2A63484  33.103  39.916   6.556
 5030POPC   C3A63485  33.074  40.096   6.979
 5030POPC   C4A63486  33.006  39.975   7.422
 5030POPC   C1B63487  32.700  39.879   6.184
 5030POPC   C2B63488  32.591  39.863   6.623
 5030POPC   C3B63489  32.766  39.706   6.993
 5030POPC   C4B63490  32.601  39.657   7.385
 5031POPC   NC363491  44.491  30.298   5.122
 5031POPC   PO463492  44.758  29.714   5.510
 5031POPC   GL163493  44.767  29.867   5.906
 5031POPC   GL263494  44.448  29.808   5.938
 5031POPC   C1A63495  44.700  29.997   6.342
 5031POPC   D2A63496  44.842  29.972   6.760
 5031POPC   C3A63497  44.618  30.075   7.126
 5031POPC   C4A63498  44.720  29.663   7.212
 5031POPC   C1B63499  44.317  29.668   6.336
 5031POPC   C2B63500  44.311  29.894   6.702
 5031POPC   C3B63501  44.192  29.791   7.107
 5031POPC   C4B63502  44.212  29.950   7.534
 5032POPC   NC363503   6.631  18.800   5.488
 5032POPC   PO463504   6.628  19.503   5.398
 5032POPC   GL163505   6.721  19.256   5.801
 5032POPC   GL263506   6.816  18.877   5.957
 5032POPC   C1A63507   6.710  19.296   6.251
 5032POPC   D2A63508   6.840  19.107   6.622
 5032POPC   C3A63509   6.626  19.167   6.967
 5032POPC   C4A63510   6.754  19.174   7.343
 5032POPC   C1B63511   6.395  18.899   6.134
 5032POPC   C2B63512   6.321  19.012   6.546
 5032POPC   C3B63513   6.366  18.741   6.894
 5032POPC   C4B63514   6.416  18.815   7.308
 5033POPC   NC363515   3.156  31.927   5.537
 5033POPC   PO463516   2.516  32.190   5.389
 5033POPC   GL163517   2.748  32.195   5.771
 5033POPC   GL263518   2.788  31.876   5.888
 5033POPC   C1A63519   2.886  32.305   6.178
 5033POPC   D2A63520   2.667  32.448   6.522
 5033POPC   C3A63521   2.736  32.296   6.911
 5033POPC   C4A63522   2.832  32.460   7.309
 5033POPC   C1B63523   2.916  31.787   6.317
 5033POPC   C2B63524   2.834  31.770   6.763
 5033POPC   C3B63525   2.655  31.876   7.170
 5033POPC   C4B63526   2.876  31.994   7.524
 5034POPC   NC363527  13.586  29.520   5.611
 5034POPC   PO463528  13.453  30.204   5.406
 5034POPC   GL163529  13.576  30.005   5.773
 5034POPC   GL263530  13.933  29.892   5.731
 5034POPC   C1A63531  13.377  29.836   6.165
 5034POPC   D2A63532  13.387  30.024   6.587
 5034POPC   C3A63533  13.481  29.845   6.960
 5034POPC   C4A63534  13.749  29.917   7.298
 5034POPC   C1B63535  13.887  29.935   6.180
 5034POPC   C2B63536  13.944  30.198   6.532
 5034POPC   C3B63537  13.917  30.284   6.972
 5034POPC   C4B63538  14.164  30.205   7.351
 5035POPC   NC363539  29.952  20.915   5.368
 5035POPC   PO463540  30.216  20.299   5.377
 5035POPC   GL163541  30.000  20.520   5.709
 5035POPC   GL263542  30.242  20.774   5.781
 5035POPC   C1A63543  29.869  20.590   6.131
 5035POPC   D2A63544  29.956  20.577   6.562
 5035POPC   C3A63545  29.683  20.476   6.926
 5035POPC   C4A63546  29.866  20.537   7.360
 5035POPC   C1B63547  30.360  20.909   6.199
 5035POPC   C2B63548  30.498  20.761   6.609
 5035POPC   C3B63549  30.227  20.723   6.977
 5035POPC   C4B63550  30.302  20.968   7.328
 5036POPC   NC363551  17.742  34.564   5.201
 5036POPC   PO463552  18.330  34.852   5.484
 5036POPC   GL163553  18.307  34.715   5.861
 5036POPC   GL263554  18.434  34.390   5.885
 5036POPC   C1A63555  18.111  34.666   6.235
 5036POPC   D2A63556  18.141  34.438   6.590
 5036POPC   C3A63557  18.301  34.684   6.893
 5036POPC   C4A63558  18.290  34.704   7.329
 5036POPC   C1B63559  18.546  34.176   6.293
 5036POPC   C2B63560  18.573  34.202   6.752
 5036POPC   C3B63561  18.490  34.265   7.169
 5036POPC   C4B63562  18.520  34.250   7.615
 5037POPC   NC363563  35.206  16.549   5.377
 5037POPC   PO463564  35.358  17.179   5.586
 5037POPC   GL163565  35.337  16.807   5.814
 5037POPC   GL263566  35.595  16.560   5.796
 5037POPC   C1A63567  35.328  16.706   6.229
 5037POPC   D2A63568  35.306  16.894   6.596
 5037POPC   C3A63569  35.548  16.807   6.899
 5037POPC   C4A63570  35.223  16.944   7.158
 5037POPC   C1B63571  35.756  16.425   6.220
 5037POPC   C2B63572  35.921  16.483   6.649
 5037POPC   C3B63573  35.735  16.371   7.054
 5037POPC   C4B63574  35.556  16.623   7.389
 5038POPC   NC363575  43.835   0.811   5.538
 5038POPC   PO463576  43.569   1.435   5.572
 5038POPC   GL163577  43.835   1.205   5.855
 5038POPC   GL263578  44.053   1.443   6.017
 5038POPC   C1A63579  43.990   0.933   6.198
 5038POPC   D2A63580  44.065   1.150   6.597
 5038POPC   C3A63581  43.973   1.000   7.018
 5038POPC   C4A63582  43.843   1.333   7.291
 5038POPC   C1B63583  44.301   1.668   6.335
 5038POPC   C2B63584  44.222   1.628   6.780
 5038POPC   C3B63585  44.209   1.684   7.211
 5038POPC   C4B63586  43.978   1.733   7.594
 5039POPC   NC363587  33.282  32.862   5.365
 5039POPC   PO463588  32.610  33.060   5.362
 5039POPC   GL163589  32.776  33.170   5.778
 5039POPC   GL263590  33.097  33.151   5.740
 5039POPC   C1A63591  32.862  33.093   6.214
 5039POPC   D2A63592  32.877  32.803   6.546
 5039POPC   C3A63593  32.872  32.999   6.937
 5039POPC   C4A63594  33.198  32.891   7.260
 5039POPC   C1B63595  33.350  33.270   6.117
 5039POPC   C2B63596  33.228  33.309   6.561
 5039POPC   C3B63597  33.270  33.387   7.019
 5039POPC   C4B63598  32.930  33.365   7.284
 5040POPC   NC363599  41.636  24.120   5.354
 5040POPC   PO463600  41.322  23.570   5.529
 5040POPC   GL163601  41.480  23.902   5.833
 5040POPC   GL263602  41.872  24.028   5.791
 5040POPC   C1A63603  41.345  23.953   6.293
 5040POPC   D2A63604  41.314  24.010   6.752
 5040POPC   C3A63605  41.343  23.638   6.999
 5040POPC   C4A63606  41.669  23.577   7.292
 5040POPC   C1B63607  42.073  24.036   6.201
 5040POPC   C2B63608  41.821  24.030   6.580
 5040POPC   C3B63609  41.801  23.969   7.001
 5040POPC   C4B63610  41.944  24.041   7.407
 5041POPC   NC363611  37.735  44.746   5.590
 5041POPC   PO463612  38.005  44.229   5.397
 5041POPC   GL163613  37.876  44.352   5.841
 5041POPC   GL263614  37.495  44.361   5.823
 5041POPC   C1A63615  37.951  44.592   6.245
 5041POPC   D2A63616  37.799  44.794   6.659
 5041POPC   C3A63617  38.034  44.734   7.072
 5041POPC   C4A63618  38.058  44.546   7.496
 5041POPC   C1B63619  37.441  44.646   6.174
 5041POPC   C2B63620  37.255  44.707   6.564
 5041POPC   C3B63621  37.368  44.797   6.973
 5041POPC   C4B63622  37.582  44.801   7.341
 5042POPC   NC363623  14.688  21.767   5.404
 5042POPC   PO463624  14.228  21.209   5.370
 5042POPC   GL163625  14.551  21.305   5.684
 5042POPC   GL263626  14.616  21.619   5.875
 5042POPC   C1A63627  14.622  21.166   6.101
 5042POPC   D2A63628  14.842  21.371   6.436
 5042POPC   C3A63629  14.658  21.248   6.787
 5042POPC   C4A63630  14.545  21.178   7.167
 5042POPC   C1B63631  14.392  21.602   6.271
 5042POPC   C2B63632  14.489  21.736   6.665
 5042POPC   C3B63633  14.277  21.815   7.047
 5042POPC   C4B63634  14.149  21.605   7.415
 5043POPC   NC363635  32.782  31.222   5.122
 5043POPC   PO463636  33.204  31.660   5.374
 5043POPC   GL163637  33.143  31.351   5.710
 5043POPC   GL263638  32.791  31.305   5.806
 5043POPC   C1A63639  33.188  31.354   6.168
 5043POPC   D2A63640  33.094  31.586   6.539
 5043POPC   C3A63641  33.099  31.624   6.972
 5043POPC   C4A63642  33.134  31.284   7.221
 5043POPC   C1B63643  32.690  31.381   6.258
 5043POPC   C2B63644  32.513  31.292   6.686
 5043POPC   C3B63645  32.633  31.367   7.113
 5043POPC   C4B63646  32.501  31.667   7.422
 5044POPC   NC363647  10.382   4.899   5.409
 5044POPC   PO463648  10.730   5.393   5.596
 5044POPC   GL163649  10.620   5.079   5.854
 5044POPC   GL263650  10.256   5.126   5.859
 5044POPC   C1A63651  10.687   5.242   6.267
 5044POPC   D2A63652  10.915   5.317   6.633
 5044POPC   C3A63653  10.721   5.370   6.991
 5044POPC   C4A63654  10.800   5.169   7.352
 5044POPC   C1B63655  10.302   4.922   6.240
 5044POPC   C2B63656  10.427   5.072   6.670
 5044POPC   C3B63657  10.511   4.850   7.028
 5044POPC   C4B63658  10.107   4.770   7.139
 5045POPC   NC363659  24.960  16.621   4.904
 5045POPC   PO463660  24.964  17.209   5.118
 5045POPC   GL163661  24.988  16.926   5.555
 5045POPC   GL263662  25.350  16.757   5.664
 5045POPC   C1A63663  25.031  16.881   6.052
 5045POPC   D2A63664  25.149  17.031   6.515
 5045POPC   C3A63665  25.114  16.829   6.955
 5045POPC   C4A63666  24.918  16.464   7.183
 5045POPC   C1B63667  25.535  16.894   6.119
 5045POPC   C2B63668  25.565  16.752   6.578
 5045POPC   C3B63669  25.612  16.738   7.032
 5045POPC   C4B63670  25.487  17.022   7.340
 5046POPC   NC363671  38.384  31.373   5.293
 5046POPC   PO463672  37.915  31.680   5.605
 5046POPC   GL163673  38.272  31.444   5.803
 5046POPC   GL263674  38.644  31.434   5.741
 5046POPC   C1A63675  38.431  31.494   6.212
 5046POPC   D2A63676  38.475  31.746   6.546
 5046POPC   C3A63677  38.358  31.514   6.876
 5046POPC   C4A63678  38.154  31.681   7.201
 5046POPC   C1B63679  38.714  31.094   6.077
 5046POPC   C2B63680  38.510  31.028   6.467
 5046POPC   C3B63681  38.663  31.091   6.869
 5046POPC   C4B63682  38.711  31.292   7.221
 5047POPC   NC363683  33.829   5.571   5.450
 5047POPC   PO463684  33.485   6.136   5.399
 5047POPC   GL163685  33.727   6.028   5.774
 5047POPC   GL263686  34.016   5.812   5.857
 5047POPC   C1A63687  33.825   6.129   6.196
 5047POPC   D2A63688  33.956   5.892   6.543
 5047POPC   C3A63689  33.833   6.093   6.873
 5047POPC   C4A63690  33.998   6.084   7.241
 5047POPC   C1B63691  33.707   5.630   6.190
 5047POPC   C2B63692  33.696   5.461   6.622
 5047POPC   C3B63693  33.699   5.639   7.043
 5047POPC   C4B63694  33.715   5.489   7.475
 5048POPC   NC363695   6.348  14.490   5.451
 5048POPC   PO463696   6.841  14.052   5.176
 5048POPC   GL163697   6.691  14.137   5.643
 5048POPC   GL263698   6.876  14.373   5.915
 5048POPC   C1A63699   6.471  14.138   6.062
 5048POPC   D2A63700   6.608  14.386   6.435
 5048POPC   C3A63701   6.439  14.226   6.854
 5048POPC   C4A63702   6.567  14.275   7.297
 5048POPC   C1B63703   7.108  14.304   6.294
 5048POPC   C2B63704   7.071  14.360   6.700
 5048POPC   C3B63705   6.748  14.643   6.860
 5048POPC   C4B63706   6.705  14.980   7.130
 5049POPC   NC363707  17.090  20.544   5.335
 5049POPC   PO463708  17.694  20.881   5.342
 5049POPC   GL163709  17.422  20.794   5.664
 5049POPC   GL263710  17.445  20.442   5.732
 5049POPC   C1A63711  17.470  20.814   6.129
 5049POPC   D2A63712  17.681  20.737   6.535
 5049POPC   C3A63713  17.695  21.010   6.880
 5049POPC   C4A63714  17.639  20.854   7.274
 5049POPC   C1B63715  17.343  20.322   6.163
 5049POPC   C2B63716  17.235  20.511   6.581
 5049POPC   C3B63717  17.461  20.475   6.973
 5049POPC   C4B63718  17.325  20.473   7.432
 5050POPC   NC363719  19.522  30.890   5.514
 5050POPC   PO463720  19.980  30.480   5.259
 5050POPC   GL163721  20.016  30.580   5.703
 5050POPC   GL263722  19.700  30.581   5.856
 5050POPC   C1A63723  20.118  30.459   6.144
 5050POPC   D2A63724  20.043  30.644   6.549
 5050POPC   C3A63725  20.029  30.474   6.963
 5050POPC   C4A63726  20.117  30.744   7.326
 5050POPC   C1B63727  19.620  30.745   6.256
 5050POPC   C2B63728  19.559  30.804   6.689
 5050POPC   C3B63729  19.682  30.892   7.119
 5050POPC   C4B63730  19.705  30.944   7.602
 5051POPC   NC363731  40.280   9.217   5.586
 5051POPC   PO463732  39.675   9.527   5.401
 5051POPC   GL163733  39.830   9.469   5.812
 5051POPC   GL263734  40.069   9.728   5.866
 5051POPC   C1A63735  39.850   9.526   6.291
 5051POPC   D2A63736  39.940   9.752   6.670
 5051POPC   C3A63737  40.288   9.620   6.877
 5051POPC   C4A63738  40.160   9.525   7.262
 5051POPC   C1B63739  40.152   9.987   6.253
 5051POPC   C2B63740  40.286  10.366   6.497
 5051POPC   C3B63741  40.281  10.375   6.966
 5051POPC   C4B63742  40.056  10.010   7.130
 5052POPC   NC363743  25.675  29.687   5.582
 5052POPC   PO463744  26.318  29.732   5.396
 5052POPC   GL163745  26.194  29.979   5.790
 5052POPC   GL263746  25.903  30.232   5.805
 5052POPC   C1A63747  25.984  29.899   6.202
 5052POPC   D2A63748  25.812  30.089   6.535
 5052POPC   C3A63749  25.882  29.934   6.936
 5052POPC   C4A63750  26.166  29.726   7.236
 5052POPC   C1B63751  26.147  30.385   6.206
 5052POPC   C2B63752  26.370  30.507   6.592
 5052POPC   C3B63753  26.385  30.210   6.955
 5052POPC   C4B63754  26.087  30.228   7.299
 5053POPC   NC363755  43.991  10.284   5.563
 5053POPC   PO463756  43.927   9.567   5.482
 5053POPC   GL163757  43.958   9.621   5.914
 5053POPC   GL263758  43.757   9.902   5.853
 5053POPC   C1A63759  44.119   9.701   6.339
 5053POPC   D2A63760  44.272   9.819   6.789
 5053POPC   C3A63761  44.062   9.676   7.190
 5053POPC   C4A63762  44.053   9.699   7.665
 5053POPC   C1B63763  43.824  10.154   6.207
 5053POPC   C2B63764  43.801  10.010   6.617
 5053POPC   C3B63765  43.907  10.140   6.988
 5053POPC   C4B63766  43.692  10.100   7.341
 5054POPC   NC363767  24.962  24.018   5.409
 5054POPC   PO463768  25.510  23.682   5.550
 5054POPC   GL163769  25.111  23.646   5.762
 5054POPC   GL263770  25.120  23.307   5.901
 5054POPC   C1A63771  25.088  23.749   6.196
 5054POPC   D2A63772  25.366  23.718   6.574
 5054POPC   C3A63773  25.261  23.582   6.968
 5054POPC   C4A63774  25.219  23.869   7.267
 5054POPC   C1B63775  25.486  23.369   6.232
 5054POPC   C2B63776  25.686  23.315   6.711
 5054POPC   C3B63777  25.616  23.304   7.198
 5054POPC   C4B63778  25.479  23.573   7.569
 5055POPC   NC363779  31.996  39.255   5.286
 5055POPC   PO463780  32.661  39.201   5.579
 5055POPC   GL163781  32.545  39.384   5.910
 5055POPC   GL263782  32.189  39.295   5.789
 5055POPC   C1A63783  32.501  39.427   6.354
 5055POPC   D2A63784  32.765  39.281   6.669
 5055POPC   C3A63785  32.595  39.235   7.092
 5055POPC   C4A63786  32.280  39.256   7.418
 5055POPC   C1B63787  32.278  39.013   6.157
 5055POPC   C2B63788  32.344  39.013   6.629
 5055POPC   C3B63789  32.117  38.992   7.015
 5055POPC   C4B63790  32.038  38.766   7.401
 5056POPC   NC363791  35.318  40.447   5.330
 5056POPC   PO463792  35.397  41.079   5.355
 5056POPC   GL163793  35.312  40.798   5.714
 5056POPC   GL263794  35.039  41.025   5.735
 5056POPC   C1A63795  35.232  40.567   6.151
 5056POPC   D2A63796  35.314  40.705   6.594
 5056POPC   C3A63797  35.502  40.670   7.014
 5056POPC   C4A63798  35.162  40.542   7.286
 5056POPC   C1B63799  35.178  41.069   6.149
 5056POPC   C2B63800  35.005  41.108   6.563
 5056POPC   C3B63801  35.219  41.073   6.965
 5056POPC   C4B63802  35.060  41.047   7.354
 5057POPC   NC363803  23.802  30.968   5.254
 5057POPC   PO463804  23.587  30.411   5.565
 5057POPC   GL163805  23.635  30.776   5.808
 5057POPC   GL263806  23.955  30.887   5.759
 5057POPC   C1A63807  23.713  30.734   6.247
 5057POPC   D2A63808  23.697  30.703   6.677
 5057POPC   C3A63809  23.683  30.384   6.956
 5057POPC   C4A63810  23.748  30.729   7.234
 5057POPC   C1B63811  24.123  31.039   6.127
 5057POPC   C2B63812  24.163  30.870   6.517
 5057POPC   C3B63813  24.042  31.015   6.903
 5057POPC   C4B63814  24.159  31.040   7.280
 5058POPC   NC363815  44.253  26.168   5.397
 5058POPC   PO463816  44.909  25.994   5.472
 5058POPC   GL163817  44.660  25.819   5.818
 5058POPC   GL263818  44.326  25.664   5.710
 5058POPC   C1A63819  44.654  25.940   6.234
 5058POPC   D2A63820  44.664  26.232   6.573
 5058POPC   C3A63821  44.887  26.173   6.971
 5058POPC   C4A63822  44.672  26.207   7.376
 5058POPC   C1B63823  44.256  25.591   6.167
 5058POPC   C2B63824  44.337  25.788   6.592
 5058POPC   C3B63825  44.392  26.021   6.966
 5058POPC   C4B63826  44.405  25.788   7.365
 5059POPC   NC363827  11.325  44.465   5.341
 5059POPC   PO463828  11.309   0.127   5.149
 5059POPC   GL163829  11.260  44.922   5.599
 5059POPC   GL263830  11.176  44.596   5.803
 5059POPC   C1A63831  11.358   0.001   6.054
 5059POPC   D2A63832  11.174  44.914   6.477
 5059POPC   C3A63833  11.434  44.788   6.840
 5059POPC   C4A63834  11.343  44.973   7.262
 5059POPC   C1B63835  11.346  44.498   6.236
 5059POPC   C2B63836  11.109  44.415   6.637
 5059POPC   C3B63837  11.141  44.438   7.074
 5059POPC   C4B63838  11.519  44.485   7.263
 5060POPC   NC363839   0.657  33.270   5.098
 5060POPC   PO463840   0.742  32.729   5.459
 5060POPC   GL163841   0.759  32.955   5.840
 5060POPC   GL263842   0.467  33.054   5.796
 5060POPC   C1A63843   0.715  33.013   6.295
 5060POPC   D2A63844   0.807  33.126   6.718
 5060POPC   C3A63845   0.565  32.974   7.019
 5060POPC   C4A63846   0.369  33.261   7.289
 5060POPC   C1B63847   0.250  32.858   6.164
 5060POPC   C2B63848   0.280  32.744   6.634
 5060POPC   C3B63849   0.059  32.921   7.028
 5060POPC   C4B63850  44.877  33.345   7.122
 5061POPC   NC363851  30.148   2.047   5.345
 5061POPC   PO463852  29.469   2.228   5.616
 5061POPC   GL163853  29.716   2.055   5.936
 5061POPC   GL263854  30.010   1.885   5.838
 5061POPC   C1A63855  29.841   2.139   6.370
 5061POPC   D2A63856  30.171   2.212   6.663
 5061POPC   C3A63857  30.007   2.119   7.050
 5061POPC   C4A63858  29.662   1.896   6.994
 5061POPC   C1B63859  29.902   1.650   6.243
 5061POPC   C2B63860  29.825   1.496   6.682
 5061POPC   C3B63861  30.089   1.596   7.055
 5061POPC   C4B63862  30.403   1.629   7.413
 5062POPC   NC363863  14.605  28.259   5.347
 5062POPC   PO463864  14.131  28.522   5.117
 5062POPC   GL163865  14.249  28.369   5.676
 5062POPC   GL263866  14.607  28.445   5.814
 5062POPC   C1A63867  14.265  28.585   6.163
 5062POPC   D2A63868  14.341  28.401   6.607
 5062POPC   C3A63869  14.280  28.632   7.039
 5062POPC   C4A63870  14.393  28.536   7.492
 5062POPC   C1B63871  14.542  28.156   6.158
 5062POPC   C2B63872  14.768  28.083   6.555
 5062POPC   C3B63873  14.709  27.981   6.976
 5062POPC   C4B63874  14.549  28.078   7.385
 5063POPC   NC363875  27.641   5.328   5.314
 5063POPC   PO463876  28.142   4.859   5.551
 5063POPC   GL163877  27.799   5.075   5.832
 5063POPC   GL263878  27.453   5.225   5.782
 5063POPC   C1A63879  27.609   5.014   6.247
 5063POPC   D2A63880  27.358   4.916   6.623
 5063POPC   C3A63881  27.598   4.946   6.997
 5063POPC   C4A63882  27.642   5.099   7.394
 5063POPC   C1B63883  27.401   5.496   6.138
 5063POPC   C2B63884  27.504   5.490   6.564
 5063POPC   C3B63885  27.329   5.377   6.946
 5063POPC   C4B63886  27.401   5.598   7.302
 5064POPC   NC363887  15.724  40.180   5.399
 5064POPC   PO463888  15.820  39.529   5.421
 5064POPC   GL163889  15.861  39.842   5.800
 5064POPC   GL263890  15.666  40.150   5.901
 5064POPC   C1A63891  16.092  40.000   6.181
 5064POPC   D2A63892  15.936  40.119   6.591
 5064POPC   C3A63893  16.217  40.148   6.927
 5064POPC   C4A63894  16.262  40.008   7.316
 5064POPC   C1B63895  15.436  40.269   6.277
 5064POPC   C2B63896  15.397  40.163   6.694
 5064POPC   C3B63897  15.626  39.847   6.897
 5064POPC   C4B63898  15.760  39.907   7.281
 5065POPC   NC363899  34.991  17.445   5.528
 5065POPC   PO463900  35.539  17.908   5.444
 5065POPC   GL163901  35.270  17.785   5.768
 5065POPC   GL263902  35.442  17.524   5.937
 5065POPC   C1A63903  35.004  17.673   6.139
 5065POPC   D2A63904  35.222  17.360   6.425
 5065POPC   C3A63905  35.133  17.385   6.899
 5065POPC   C4A63906  35.386  17.524   7.292
 5065POPC   C1B63907  35.660  17.158   6.143
 5065POPC   C2B63908  35.767  17.120   6.546
 5065POPC   C3B63909  35.639  17.318   6.893
 5065POPC   C4B63910  35.676  17.107   7.294
 5066POPC   NC363911   9.071   3.103   5.448
 5066POPC   PO463912   8.997   2.358   5.532
 5066POPC   GL163913   9.153   2.678   5.740
 5066POPC   GL263914   8.834   2.784   5.784
 5066POPC   C1A63915   9.277   2.757   6.151
 5066POPC   D2A63916   9.109   2.657   6.567
 5066POPC   C3A63917   9.340   2.817   6.901
 5066POPC   C4A63918   9.208   2.644   7.268
 5066POPC   C1B63919   8.782   2.847   6.205
 5066POPC   C2B63920   8.820   3.083   6.615
 5066POPC   C3B63921   8.862   2.954   7.048
 5066POPC   C4B63922   8.716   2.747   7.409
 5067POPC   NC363923  44.378  12.362   5.540
 5067POPC   PO463924  43.999  11.886   5.195
 5067POPC   GL163925  43.930  12.108   5.627
 5067POPC   GL263926  44.192  12.073   5.895
 5067POPC   C1A63927  43.713  12.188   6.053
 5067POPC   D2A63928  43.846  12.298   6.501
 5067POPC   C3A63929  43.725  12.083   6.897
 5067POPC   C4A63930  44.028  12.180   7.218
 5067POPC   C1B63931  44.099  11.894   6.273
 5067POPC   C2B63932  44.164  11.906   6.700
 5067POPC   C3B63933  44.112  11.703   7.076
 5067POPC   C4B63934  43.827  11.527   7.325
 5068POPC   NC363935   3.943  42.039   5.523
 5068POPC   PO463936   3.505  42.522   5.221
 5068POPC   GL163937   3.474  42.256   5.679
 5068POPC   GL263938   3.248  41.937   5.741
 5068POPC   C1A63939   3.481  42.280   6.189
 5068POPC   D2A63940   3.786  42.110   6.525
 5068POPC   C3A63941   3.669  42.055   6.964
 5068POPC   C4A63942   3.412  42.363   7.157
 5068POPC   C1B63943   3.105  41.934   6.194
 5068POPC   C2B63944   3.053  42.095   6.630
 5068POPC   C3B63945   2.962  42.143   7.093
 5068POPC   C4B63946   3.102  42.262   7.555
 5069POPC   NC363947   6.784   6.232   5.563
 5069POPC   PO463948   6.654   6.830   5.534
 5069POPC   GL163949   6.638   6.605   5.897
 5069POPC   GL263950   6.286   6.674   5.864
 5069POPC   C1A63951   6.776   6.473   6.321
 5069POPC   D2A63952   6.664   6.559   6.761
 5069POPC   C3A63953   6.879   6.644   7.122
 5069POPC   C4A63954   6.978   6.925   7.451
 5069POPC   C1B63955   6.318   6.749   6.297
 5069POPC   C2B63956   6.195   6.490   6.647
 5069POPC   C3B63957   6.210   6.655   7.098
 5069POPC   C4B63958   6.472   6.831   7.460
 5070POPC   NC363959  20.929  33.937   5.534
 5070POPC   PO463960  21.574  33.799   5.322
 5070POPC   GL163961  21.472  33.781   5.750
 5070POPC   GL263962  21.493  34.115   5.807
 5070POPC   C1A63963  21.623  33.781   6.197
 5070POPC   D2A63964  21.869  33.742   6.577
 5070POPC   C3A63965  21.661  33.791   6.983
 5070POPC   C4A63966  21.338  33.656   7.286
 5070POPC   C1B63967  21.188  34.054   6.138
 5070POPC   C2B63968  21.313  34.083   6.550
 5070POPC   C3B63969  21.160  33.949   6.912
 5070POPC   C4B63970  20.995  34.065   7.305
 5071POPC   NC363971  37.682  21.672   5.387
 5071POPC   PO463972  37.749  21.025   5.262
 5071POPC   GL163973  37.804  21.233   5.649
 5071POPC   GL263974  37.492  21.219   5.771
 5071POPC   C1A63975  37.894  21.403   6.061
 5071POPC   D2A63976  37.845  21.259   6.504
 5071POPC   C3A63977  37.638  21.509   6.818
 5071POPC   C4A63978  37.895  21.502   7.186
 5071POPC   C1B63979  37.412  21.293   6.214
 5071POPC   C2B63980  37.342  21.081   6.615
 5071POPC   C3B63981  37.164  21.244   6.992
 5071POPC   C4B63982  37.316  21.270   7.416
 5072POPC   NC363983  35.219  14.184   5.525
 5072POPC   PO463984  35.671  14.652   5.406
 5072POPC   GL163985  35.767  14.489   5.816
 5072POPC   GL263986  35.654  14.131   5.842
 5072POPC   C1A63987  35.691  14.472   6.287
 5072POPC   D2A63988  35.321  14.314   6.553
 5072POPC   C3A63989  35.311  14.348   6.984
 5072POPC   C4A63990  35.354  14.517   7.398
 5072POPC   C1B63991  35.540  13.985   6.245
 5072POPC   C2B63992  35.667  13.952   6.684
 5072POPC   C3B63993  35.446  13.861   7.080
 5072POPC   C4B63994  35.111  13.988   7.365
 5073POPC   NC363995  32.672  15.214   5.291
 5073POPC   PO463996  33.277  15.362   5.397
 5073POPC   GL163997  33.099  15.218   5.789
 5073POPC   GL263998  33.208  14.928   5.944
 5073POPC   C1A63999  32.973  15.315   6.214
 5073POPC   D2A64000  32.895  15.181   6.623
 5073POPC   C3A64001  32.767  15.467   6.916
 5073POPC   C4A64002  32.949  15.422   7.337
 5073POPC   C1B64003  33.451  14.869   6.309
 5073POPC   C2B64004  33.326  14.912   6.700
 5073POPC   C3B64005  33.035  14.907   7.048
 5073POPC   C4B64006  33.274  14.871   7.388
 5074POPC   NC364007  40.361  38.212   5.118
 5074POPC   PO464008  39.947  38.735   5.334
 5074POPC   GL164009  39.970  38.555   5.751
 5074POPC   GL264010  39.720  38.309   5.704
 5074POPC   C1A64011  40.170  38.406   6.153
 5074POPC   D2A64012  40.029  38.469   6.567
 5074POPC   C3A64013  40.252  38.397   6.957
 5074POPC   C4A64014  40.186  38.512   7.388
 5074POPC   C1B64015  39.653  38.330   6.146
 5074POPC   C2B64016  39.652  38.107   6.544
 5074POPC   C3B64017  39.761  38.229   6.937
 5074POPC   C4B64018  39.807  38.110   7.339
 5075POPC   NC364019  16.366  30.205   5.416
 5075POPC   PO464020  16.355  29.526   5.366
 5075POPC   GL164021  16.548  29.701   5.762
 5075POPC   GL264022  16.562  30.075   5.876
 5075POPC   C1A64023  16.790  29.685   6.159
 5075POPC   D2A64024  16.943  29.424   6.491
 5075POPC   C3A64025  16.855  29.644   6.863
 5075POPC   C4A64026  16.916  29.964   7.160
 5075POPC   C1B64027  16.906  30.229   6.177
 5075POPC   C2B64028  17.070  30.144   6.613
 5075POPC   C3B64029  17.133  30.397   6.981
 5075POPC   C4B64030  16.957  30.406   7.401
 5076POPC   NC364031  20.970  44.845   5.471
 5076POPC   PO464032  20.457  44.399   5.372
 5076POPC   GL164033  20.684  44.491   5.715
 5076POPC   GL264034  20.517  44.781   5.837
 5076POPC   C1A64035  20.687  44.404   6.156
 5076POPC   D2A64036  20.771  44.603   6.544
 5076POPC   C3A64037  20.490  44.537   6.866
 5076POPC   C4A64038  20.719  44.288   7.136
 5076POPC   C1B64039  20.929  44.851   6.091
 5076POPC   C2B64040  21.059   0.007   6.476
 5076POPC   C3B64041  20.746   0.058   6.813
 5076POPC   C4B64042  20.684  44.863   7.206
 5077POPC   NC364043  44.067   5.162   5.382
 5077POPC   PO464044  43.479   5.054   5.711
 5077POPC   GL164045  43.870   5.127   5.890
 5077POPC   GL264046  44.133   4.884   5.792
 5077POPC   C1A64047  43.864   4.968   6.306
 5077POPC   D2A64048  43.668   4.892   6.689
 5077POPC   C3A64049  43.801   5.181   6.974
 5077POPC   C4A64050  44.036   5.294   7.327
 5077POPC   C1B64051  44.207   4.629   6.120
 5077POPC   C2B64052  44.216   4.624   6.527
 5077POPC   C3B64053  44.151   4.803   6.881
 5077POPC   C4B64054  44.331   4.844   7.244
 5078POPC   NC364055  31.208  18.494   5.546
 5078POPC   PO464056  31.657  18.041   5.282
 5078POPC   GL164057  31.597  18.186   5.712
 5078POPC   GL264058  31.275  18.031   5.798
 5078POPC   C1A64059  31.511  18.438   6.118
 5078POPC   D2A64060  31.623  18.369   6.546
 5078POPC   C3A64061  31.371  18.494   6.884
 5078POPC   C4A64062  31.580  18.444   7.266
 5078POPC   C1B64063  31.014  18.179   6.151
 5078POPC   C2B64064  31.061  18.155   6.600
 5078POPC   C3B64065  31.115  17.997   7.017
 5078POPC   C4B64066  31.152  18.196   7.384
 5079POPC   NC364067   1.969  17.893   5.315
 5079POPC   PO464068   1.922  17.242   5.537
 5079POPC   GL164069   2.173  17.388   5.883
 5079POPC   GL264070   2.254  17.061   6.053
 5079POPC   C1A64071   2.070  17.779   6.163
 5079POPC   D2A64072   1.749  17.765   6.497
 5079POPC   C3A64073   1.822  17.433   6.807
 5079POPC   C4A64074   1.790  17.537   7.231
 5079POPC   C1B64075   2.167  17.341   6.400
 5079POPC   C2B64076   2.257  17.683   6.683
 5079POPC   C3B64077   2.293  17.505   7.104
 5079POPC   C4B64078   2.149  17.317   7.518
 5080POPC   NC364079   7.231  30.159   5.469
 5080POPC   PO464080   7.551  29.630   5.066
 5080POPC   GL164081   7.411  29.719   5.619
 5080POPC   GL264082   7.563  30.017   5.822
 5080POPC   C1A64083   7.496  29.611   6.137
 5080POPC   D2A64084   7.505  29.858   6.535
 5080POPC   C3A64085   7.614  29.764   6.951
 5080POPC   C4A64086   7.480  29.911   7.332
 5080POPC   C1B64087   7.194  30.013   6.135
 5080POPC   C2B64088   7.047  30.146   6.535
 5080POPC   C3B64089   7.246  30.157   6.913
 5080POPC   C4B64090   7.272  30.406   7.243
 5081POPC   NC364091  40.862  11.618   5.546
 5081POPC   PO464092  40.951  10.896   5.388
 5081POPC   GL164093  40.907  11.134   5.765
 5081POPC   GL264094  40.558  11.174   5.760
 5081POPC   C1A64095  40.980  11.368   6.168
 5081POPC   D2A64096  41.113  11.427   6.604
 5081POPC   C3A64097  40.852  11.557   6.931
 5081POPC   C4A64098  40.876  11.433   7.344
 5081POPC   C1B64099  40.618  11.003   6.195
 5081POPC   C2B64100  40.655  11.167   6.637
 5081POPC   C3B64101  40.462  11.249   7.086
 5081POPC   C4B64102  40.348  11.637   7.336
 5082POPC   NC364103  23.246   0.745   5.372
 5082POPC   PO464104  22.985   0.120   5.319
 5082POPC   GL164105  22.987   0.371   5.693
 5082POPC   GL264106  22.678   0.309   5.864
 5082POPC   C1A64107  23.117   0.384   6.159
 5082POPC   D2A64108  23.335   0.671   6.447
 5082POPC   C3A64109  23.268   0.595   6.877
 5082POPC   C4A64110  23.170   0.274   7.190
 5082POPC   C1B64111  22.594   0.493   6.242
 5082POPC   C2B64112  22.826   0.593   6.588
 5082POPC   C3B64113  22.761   0.474   6.974
 5082POPC   C4B64114  22.607   0.336   7.327
 5083POPC   NC364115   6.326  25.919   5.346
 5083POPC   PO464116   5.674  26.050   5.469
 5083POPC   GL164117   5.652  25.855   5.885
 5083POPC   GL264118   5.982  26.021   5.910
 5083POPC   C1A64119   5.673  25.887   6.368
 5083POPC   D2A64120   5.394  26.013   6.697
 5083POPC   C3A64121   5.628  26.073   7.058
 5083POPC   C4A64122   5.966  26.195   7.250
 5083POPC   C1B64123   6.021  26.229   6.307
 5083POPC   C2B64124   6.029  26.007   6.736
 5083POPC   C3B64125   6.075  25.719   7.116
 5083POPC   C4B64126   5.980  25.772   7.598
 5084POPC   NC364127  20.478  17.780   5.391
 5084POPC   PO464128  20.976  17.279   5.360
 5084POPC   GL164129  20.750  17.493   5.717
 5084POPC   GL264130  20.416  17.435   5.813
 5084POPC   C1A64131  20.704  17.746   6.110
 5084POPC   D2A64132  20.508  17.519   6.459
 5084POPC   C3A64133  20.545  17.597   6.917
 5084POPC   C4A64134  20.596  17.495   7.350
 5084POPC   C1B64135  20.324  17.113   6.159
 5084POPC   C2B64136  20.245  17.111   6.623
 5084POPC   C3B64137  20.307  17.144   7.045
 5084POPC   C4B64138  20.285  17.096   7.469
 5085POPC   NC364139   6.734  22.713   5.427
 5085POPC   PO464140   7.033  23.257   5.595
 5085POPC   GL164141   6.911  23.124   5.924
 5085POPC   GL264142   6.614  23.007   5.833
 5085POPC   C1A64143   6.869  22.883   6.252
 5085POPC   D2A64144   6.900  22.617   6.539
 5085POPC   C3A64145   6.858  22.873   6.875
 5085POPC   C4A64146   6.742  23.065   7.225
 5085POPC   C1B64147   6.494  23.239   6.213
 5085POPC   C2B64148   6.439  23.140   6.663
 5085POPC   C3B64149   6.274  23.147   7.095
 5085POPC   C4B64150   6.373  23.126   7.581
 5086POPC   NC364151  38.756  42.649   5.542
 5086POPC   PO464152  38.325  42.222   5.269
 5086POPC   GL164153  38.365  42.337   5.779
 5086POPC   GL264154  38.434  41.988   5.927
 5086POPC   C1A64155  38.688  42.346   6.178
 5086POPC   D2A64156  38.825  42.417   6.607
 5086POPC   C3A64157  38.622  42.307   7.003
 5086POPC   C4A64158  38.352  42.585   7.224
 5086POPC   C1B64159  38.386  42.031   6.414
 5086POPC   C2B64160  38.159  42.242   6.763
 5086POPC   C3B64161  38.135  42.132   7.196
 5086POPC   C4B64162  38.371  41.880   7.470
 5087POPC   NC364163  19.628  18.054   5.472
 5087POPC   PO464164  20.217  18.135   5.238
 5087POPC   GL164165  20.009  18.307   5.727
 5087POPC   GL264166  19.742  18.063   5.949
 5087POPC   C1A64167  19.971  18.439   6.216
 5087POPC   D2A64168  20.184  18.488   6.652
 5087POPC   C3A64169  19.918  18.530   7.049
 5087POPC   C4A64170  19.594  18.431   7.394
 5087POPC   C1B64171  19.934  17.933   6.316
 5087POPC   C2B64172  19.866  18.089   6.704
 5087POPC   C3B64173  20.074  18.055   7.054
 5087POPC   C4B64174  19.837  17.995   7.399
 5088POPC   NC364175  34.450  41.021   5.340
 5088POPC   PO464176  34.890  40.552   5.496
 5088POPC   GL164177  34.593  40.811   5.808
 5088POPC   GL264178  34.274  41.071   5.812
 5088POPC   C1A64179  34.762  40.767   6.227
 5088POPC   D2A64180  34.808  40.561   6.591
 5088POPC   C3A64181  34.816  40.772   6.947
 5088POPC   C4A64182  34.619  40.520   7.206
 5088POPC   C1B64183  34.279  40.914   6.218
 5088POPC   C2B64184  34.458  40.998   6.603
 5088POPC   C3B64185  34.314  40.903   6.994
 5088POPC   C4B64186  34.557  41.029   7.334
 5089POPC   NC364187  29.992   5.342   5.015
 5089POPC   PO464188  29.656   5.030   5.434
 5089POPC   GL164189  29.814   5.189   5.791
 5089POPC   GL264190  29.788   4.861   5.956
 5089POPC   C1A64191  29.914   5.264   6.222
 5089POPC   D2A64192  29.812   5.056   6.591
 5089POPC   C3A64193  29.991   5.247   6.956
 5089POPC   C4A64194  30.027   5.077   7.390
 5089POPC   C1B64195  29.447   4.773   6.248
 5089POPC   C2B64196  29.423   4.728   6.701
 5089POPC   C3B64197  29.718   4.820   7.072
 5089POPC   C4B64198  29.630   4.795   7.561
 5090POPC   NC364199  32.540  12.664   5.456
 5090POPC   PO464200  32.997  13.192   5.492
 5090POPC   GL164201  33.035  12.853   5.819
 5090POPC   GL264202  32.917  12.548   5.840
 5090POPC   C1A64203  33.003  12.831   6.266
 5090POPC   D2A64204  33.058  12.745   6.697
 5090POPC   C3A64205  33.075  13.055   7.020
 5090POPC   C4A64206  33.275  13.029   7.426
 5090POPC   C1B64207  32.750  12.380   6.244
 5090POPC   C2B64208  32.688  12.383   6.698
 5090POPC   C3B64209  32.920  12.421   7.100
 5090POPC   C4B64210  32.690  12.416   7.505
 5091POPC   NC364211  37.947  22.635   5.444
 5091POPC   PO464212  37.655  22.063   5.159
 5091POPC   GL164213  37.665  22.129   5.659
 5091POPC   GL264214  37.603  21.803   5.874
 5091POPC   C1A64215  37.879  22.224   6.104
 5091POPC   D2A64216  38.126  22.017   6.484
 5091POPC   C3A64217  37.984  22.030   6.940
 5091POPC   C4A64218  37.854  22.351   7.279
 5091POPC   C1B64219  37.645  21.789   6.333
 5091POPC   C2B64220  37.624  22.179   6.566
 5091POPC   C3B64221  37.496  22.252   6.945
 5091POPC   C4B64222  37.586  21.890   7.233
 5092POPC   NC364223  39.731  14.147   5.229
 5092POPC   PO464224  40.322  13.911   5.497
 5092POPC   GL164225  40.079  13.716   5.805
 5092POPC   GL264226  39.953  13.367   5.756
 5092POPC   C1A64227  39.785  13.730   6.129
 5092POPC   D2A64228  39.684  13.839   6.550
 5092POPC   C3A64229  39.900  13.628   6.883
 5092POPC   C4A64230  40.162  13.725   7.249
 5092POPC   C1B64231  40.160  13.340   6.153
 5092POPC   C2B64232  40.435  13.255   6.493
 5092POPC   C3B64233  40.327  13.354   6.897
 5092POPC   C4B64234  40.016  13.236   7.215
 5093POPC   NC364235   4.148  17.627   5.537
 5093POPC   PO464236   4.581  17.234   5.170
 5093POPC   GL164237   4.695  17.320   5.730
 5093POPC   GL264238   4.518  17.610   5.876
 5093POPC   C1A64239   4.439  17.232   6.203
 5093POPC   D2A64240   4.153  17.324   6.549
 5093POPC   C3A64241   4.251  17.200   6.972
 5093POPC   C4A64242   4.348  17.290   7.388
 5093POPC   C1B64243   4.159  17.729   6.182
 5093POPC   C2B64244   3.956  17.781   6.590
 5093POPC   C3B64245   4.146  17.717   6.994
 5093POPC   C4B64246   3.918  17.693   7.364
 5094POPC   NC364247  33.622  31.404   5.372
 5094POPC   PO464248  34.152  31.090   5.575
 5094POPC   GL164249  33.946  31.460   5.806
 5094POPC   GL264250  33.582  31.592   5.834
 5094POPC   C1A64251  33.921  31.583   6.240
 5094POPC   D2A64252  33.676  31.517   6.617
 5094POPC   C3A64253  34.000  31.574   6.918
 5094POPC   C4A64254  34.197  31.284   7.208
 5094POPC   C1B64255  33.442  31.790   6.222
 5094POPC   C2B64256  33.501  31.998   6.654
 5094POPC   C3B64257  33.567  31.821   7.086
 5094POPC   C4B64258  33.647  31.386   7.213
 5095POPC   NC364259  25.010  44.161   5.519
 5095POPC   PO464260  25.513  43.673   5.418
 5095POPC   GL164261  25.295  43.785   5.794
 5095POPC   GL264262  25.407  44.114   5.828
 5095POPC   C1A64263  25.148  43.902   6.221
 5095POPC   D2A64264  24.976  43.861   6.624
 5095POPC   C3A64265  25.256  43.905   6.936
 5095POPC   C4A64266  25.158  43.755   7.340
 5095POPC   C1B64267  25.459  44.322   6.228
 5095POPC   C2B64268  25.607  44.205   6.643
 5095POPC   C3B64269  25.474  44.416   7.012
 5095POPC   C4B64270  25.250  44.253   7.344
 5096POPC   NC364271  33.226  42.171   5.469
 5096POPC   PO464272  32.596  42.430   5.353
 5096POPC   GL164273  32.816  42.485   5.764
 5096POPC   GL264274  33.170  42.398   5.913
 5096POPC   C1A64275  32.729  42.364   6.219
 5096POPC   D2A64276  33.092  42.375   6.494
 5096POPC   C3A64277  32.961  42.514   6.875
 5096POPC   C4A64278  32.692  42.334   7.147
 5096POPC   C1B64279  33.037  41.972   6.133
 5096POPC   C2B64280  32.813  41.930   6.542
 5096POPC   C3B64281  33.013  41.928   6.945
 5096POPC   C4B64282  33.204  42.223   7.228
 5097POPC   NC364283  39.641  31.778   5.393
 5097POPC   PO464284  39.515  31.132   5.420
 5097POPC   GL164285  39.376  31.343   5.809
 5097POPC   GL264286  39.235  31.673   5.765
 5097POPC   C1A64287  39.262  31.203   6.215
 5097POPC   D2A64288  39.460  31.333   6.580
 5097POPC   C3A64289  39.307  31.476   6.948
 5097POPC   C4A64290  39.274  31.198   7.264
 5097POPC   C1B64291  38.938  31.583   6.119
 5097POPC   C2B64292  38.877  31.407   6.519
 5097POPC   C3B64293  38.843  31.653   6.876
 5097POPC   C4B64294  38.959  31.743   7.275
 5098POPC   NC364295  23.202  43.958   5.690
 5098POPC   PO464296  22.535  43.740   5.549
 5098POPC   GL164297  22.734  43.916   5.887
 5098POPC   GL264298  22.947  43.604   5.961
 5098POPC   C1A64299  22.852  44.054   6.310
 5098POPC   D2A64300  22.768  44.343   6.659
 5098POPC   C3A64301  22.695  44.147   7.062
 5098POPC   C4A64302  23.085  44.032   7.277
 5098POPC   C1B64303  22.605  43.581   6.257
 5098POPC   C2B64304  22.628  43.735   6.673
 5098POPC   C3B64305  22.895  43.658   6.997
 5098POPC   C4B64306  23.090  43.342   7.262
 5099POPC   NC364307  38.647  36.441   5.605
 5099POPC   PO464308  39.016  35.883   5.434
 5099POPC   GL164309  39.164  36.143   5.756
 5099POPC   GL264310  39.527  36.080   5.863
 5099POPC   C1A64311  39.053  36.142   6.169
 5099POPC   D2A64312  39.017  35.930   6.561
 5099POPC   C3A64313  38.865  36.167   6.907
 5099POPC   C4A64314  39.146  36.386   7.196
 5099POPC   C1B64315  39.460  35.851   6.269
 5099POPC   C2B64316  39.447  35.673   6.696
 5099POPC   C3B64317  39.515  35.906   7.088
 5099POPC   C4B64318  39.514  35.939   7.548
 5100POPC   NC364319   5.790  22.611   5.114
 5100POPC   PO464320   5.787  21.952   5.365
 5100POPC   GL164321   5.770  22.128   5.777
 5100POPC   GL264322   5.471  21.944   5.835
 5100POPC   C1A64323   5.888  22.277   6.221
 5100POPC   D2A64324   6.048  22.115   6.620
 5100POPC   C3A64325   6.081  22.423   6.975
 5100POPC   C4A64326   6.162  22.700   7.344
 5100POPC   C1B64327   5.406  22.093   6.245
 5100POPC   C2B64328   5.539  22.242   6.637
 5100POPC   C3B64329   5.697  22.047   7.005
 5100POPC   C4B64330   5.717  22.335   7.326
 5101POPC   NC364331  17.406  22.552   5.463
 5101POPC   PO464332  17.111  23.136   5.345
 5101POPC   GL164333  17.113  23.023   5.793
 5101POPC   GL264334  17.086  22.675   5.866
 5101POPC   C1A64335  17.389  22.991   6.188
 5101POPC   D2A64336  17.669  23.046   6.555
 5101POPC   C3A64337  17.505  23.214   6.895
 5101POPC   C4A64338  17.597  23.153   7.287
 5101POPC   C1B64339  17.255  22.499   6.267
 5101POPC   C2B64340  17.423  22.601   6.665
 5101POPC   C3B64341  17.603  22.712   7.054
 5101POPC   C4B64342  17.704  22.657   7.470
 5102POPC   NC364343  15.560  14.456   5.401
 5102POPC   PO464344  16.186  14.226   5.400
 5102POPC   GL164345  16.006  14.427   5.738
 5102POPC   GL264346  16.258  14.709   5.761
 5102POPC   C1A64347  15.748  14.392   6.129
 5102POPC   D2A64348  15.674  14.224   6.562
 5102POPC   C3A64349  15.747  14.482   6.908
 5102POPC   C4A64350  15.590  14.554   7.309
 5102POPC   C1B64351  16.283  14.479   6.172
 5102POPC   C2B64352  16.193  14.339   6.585
 5102POPC   C3B64353  16.247  14.385   7.034
 5102POPC   C4B64354  16.070  14.764   7.214
 5103POPC   NC364355  14.079   0.191   5.554
 5103POPC   PO464356  14.338  44.512   5.444
 5103POPC   GL164357  14.229  44.615   5.829
 5103POPC   GL264358  14.412  44.916   5.856
 5103POPC   C1A64359  14.401  44.462   6.214
 5103POPC   D2A64360  14.446  44.195   6.565
 5103POPC   C3A64361  14.303  44.360   6.943
 5103POPC   C4A64362  14.361  44.515   7.318
 5103POPC   C1B64363  14.576  44.948   6.264
 5103POPC   C2B64364  14.558  44.747   6.677
 5103POPC   C3B64365  14.529  44.935   7.084
 5103POPC   C4B64366  14.639  44.904   7.534
 5104POPC   NC364367   6.448  11.824   5.406
 5104POPC   PO464368   6.862  11.277   5.320
 5104POPC   GL164369   6.744  11.283   5.767
 5104POPC   GL264370   6.614  11.629   5.858
 5104POPC   C1A64371   6.953  11.298   6.180
 5104POPC   D2A64372   7.169  11.423   6.582
 5104POPC   C3A64373   6.943  11.204   6.921
 5104POPC   C4A64374   6.780  11.216   7.303
 5104POPC   C1B64375   6.420  11.377   6.174
 5104POPC   C2B64376   6.582  11.239   6.564
 5104POPC   C3B64377   6.412  11.337   6.955
 5104POPC   C4B64378   6.501  11.623   7.305
 5105POPC   NC364379  32.622  43.590   5.409
 5105POPC   PO464380  32.089  43.367   5.345
 5105POPC   GL164381  32.168  43.082   5.718
 5105POPC   GL264382  32.325  42.770   5.653
 5105POPC   C1A64383  32.148  43.119   6.202
 5105POPC   D2A64384  31.930  43.238   6.584
 5105POPC   C3A64385  31.985  43.033   6.981
 5105POPC   C4A64386  31.954  43.237   7.384
 5105POPC   C1B64387  32.500  42.790   6.040
 5105POPC   C2B64388  32.436  42.741   6.475
 5105POPC   C3B64389  32.565  42.844   6.886
 5105POPC   C4B64390  32.428  43.125   7.202
 5106POPC   NC364391  23.594  23.327   5.479
 5106POPC   PO464392  23.748  23.979   5.371
 5106POPC   GL164393  23.745  23.803   5.757
 5106POPC   GL264394  23.446  24.012   5.805
 5106POPC   C1A64395  23.878  23.557   6.119
 5106POPC   D2A64396  23.797  23.450   6.540
 5106POPC   C3A64397  23.852  23.604   6.975
 5106POPC   C4A64398  23.502  23.465   7.195
 5106POPC   C1B64399  23.385  23.751   6.152
 5106POPC   C2B64400  23.392  23.911   6.556
 5106POPC   C3B64401  23.424  23.933   6.990
 5106POPC   C4B64402  23.461  24.206   7.321
 5107POPC   NC364403  38.242   8.088   5.450
 5107POPC   PO464404  38.862   8.368   5.635
 5107POPC   GL164405  38.511   8.241   5.850
 5107POPC   GL264406  38.162   8.450   5.807
 5107POPC   C1A64407  38.430   8.226   6.258
 5107POPC   D2A64408  38.205   8.013   6.542
 5107POPC   C3A64409  38.470   7.973   6.871
 5107POPC   C4A64410  38.436   7.906   7.307
 5107POPC   C1B64411  37.960   8.442   6.202
 5107POPC   C2B64412  37.808   8.363   6.599
 5107POPC   C3B64413  38.018   8.270   6.990
 5107POPC   C4B64414  38.423   8.419   7.145
 5108POPC   NC364415   3.991  11.455   5.310
 5108POPC   PO464416   4.619  11.091   5.407
 5108POPC   GL164417   4.369  11.356   5.711
 5108POPC   GL264418   4.352  11.087   5.879
 5108POPC   C1A64419   4.125  11.444   6.138
 5108POPC   D2A64420   4.271  11.341   6.578
 5108POPC   C3A64421   4.028  11.315   6.950
 5108POPC   C4A64422   4.222  11.282   7.354
 5108POPC   C1B64423   4.315  10.938   6.269
 5108POPC   C2B64424   4.602  10.921   6.595
 5108POPC   C3B64425   4.414  10.969   6.978
 5108POPC   C4B64426   4.382  10.792   7.380
 5109POPC   NC364427  32.716   9.389   5.535
 5109POPC   PO464428  33.133   9.986   5.389
 5109POPC   GL164429  33.087   9.759   5.754
 5109POPC   GL264430  32.760   9.778   5.900
 5109POPC   C1A64431  33.190   9.680   6.188
 5109POPC   D2A64432  32.983   9.748   6.585
 5109POPC   C3A64433  33.268   9.707   6.947
 5109POPC   C4A64434  33.358   9.825   7.374
 5109POPC   C1B64435  32.731   9.411   6.187
 5109POPC   C2B64436  32.584   9.405   6.606
 5109POPC   C3B64437  32.852   9.390   6.942
 5109POPC   C4B64438  32.882   9.595   7.311
 5110POPC   NC364439  31.857  41.398   5.533
 5110POPC   PO464440  32.467  41.170   5.472
 5110POPC   GL164441  32.285  41.447   5.835
 5110POPC   GL264442  32.340  41.798   5.803
 5110POPC   C1A64443  32.160  41.309   6.277
 5110POPC   D2A64444  32.181  41.073   6.679
 5110POPC   C3A64445  32.257  41.353   7.041
 5110POPC   C4A64446  32.105  41.758   7.300
 5110POPC   C1B64447  32.150  41.808   6.232
 5110POPC   C2B64448  32.190  41.742   6.681
 5110POPC   C3B64449  32.525  41.795   6.981
 5110POPC   C4B64450  32.667  41.886   7.404
 5111POPC   NC364451  26.283  18.456   5.185
 5111POPC   PO464452  25.701  18.133   5.375
 5111POPC   GL164453  25.881  18.185   5.846
 5111POPC   GL264454  26.159  18.025   5.957
 5111POPC   C1A64455  25.820  18.487   6.260
 5111POPC   D2A64456  25.787  18.723   6.712
 5111POPC   C3A64457  25.866  18.450   7.120
 5111POPC   C4A64458  26.180  18.478   7.454
 5111POPC   C1B64459  26.238  18.205   6.314
 5111POPC   C2B64460  26.146  18.352   6.692
 5111POPC   C3B64461  26.301  18.202   7.042
 5111POPC   C4B64462  26.132  17.966   7.379
 5112POPC   NC364463  40.536  27.735   5.403
 5112POPC   PO464464  41.166  27.530   5.282
 5112POPC   GL164465  40.927  27.640   5.741
 5112POPC   GL264466  40.540  27.543   5.915
 5112POPC   C1A64467  40.811  27.869   6.174
 5112POPC   D2A64468  40.544  27.603   6.483
 5112POPC   C3A64469  40.836  27.331   6.727
 5112POPC   C4A64470  40.916  27.511   7.124
 5112POPC   C1B64471  40.475  27.143   6.212
 5112POPC   C2B64472  40.415  27.045   6.673
 5112POPC   C3B64473  40.412  27.381   7.008
 5112POPC   C4B64474  40.423  27.352   7.472
 5113POPC   NC364475  11.577  14.126   5.374
 5113POPC   PO464476  11.096  14.649   5.289
 5113POPC   GL164477  11.123  14.302   5.653
 5113POPC   GL264478  11.434  14.110   5.850
 5113POPC   C1A64479  11.034  14.320   6.095
 5113POPC   D2A64480  11.061  14.214   6.523
 5113POPC   C3A64481  11.001  14.560   6.810
 5113POPC   C4A64482  11.240  14.528   7.169
 5113POPC   C1B64483  11.586  14.261   6.265
 5113POPC   C2B64484  11.512  14.404   6.701
 5113POPC   C3B64485  11.666  14.286   7.095
 5113POPC   C4B64486  11.717  14.668   7.338
 5114POPC   NC364487  33.144  11.240   5.323
 5114POPC   PO464488  32.487  11.303   5.527
 5114POPC   GL164489  32.867  11.212   5.802
 5114POPC   GL264490  33.222  11.397   5.790
 5114POPC   C1A64491  32.956  11.390   6.224
 5114POPC   D2A64492  33.046  11.595   6.612
 5114POPC   C3A64493  33.297  11.341   6.836
 5114POPC   C4A64494  33.027  11.113   7.103
 5114POPC   C1B64495  33.324  11.040   6.091
 5114POPC   C2B64496  33.564  10.972   6.508
 5114POPC   C3B64497  33.571  10.928   6.985
 5114POPC   C4B64498  33.463  11.255   7.331
 5115POPC   NC364499  36.397  23.436   5.701
 5115POPC   PO464500  36.013  22.945   5.418
 5115POPC   GL164501  35.988  23.137   5.843
 5115POPC   GL264502  36.290  22.963   5.880
 5115POPC   C1A64503  36.088  23.227   6.311
 5115POPC   D2A64504  36.277  22.950   6.664
 5115POPC   C3A64505  36.175  23.021   7.077
 5115POPC   C4A64506  35.749  23.166   7.141
 5115POPC   C1B64507  36.537  22.935   6.226
 5115POPC   C2B64508  36.678  22.637   6.528
 5115POPC   C3B64509  36.497  22.535   6.914
 5115POPC   C4B64510  36.508  22.721   7.310
 5116POPC   NC364511   1.065  27.727   5.412
 5116POPC   PO464512   0.526  27.544   5.605
 5116POPC   GL164513   0.980  27.429   5.815
 5116POPC   GL264514   1.252  27.724   5.877
 5116POPC   C1A64515   1.257  27.340   6.203
 5116POPC   D2A64516   1.260  27.590   6.606
 5116POPC   C3A64517   1.187  27.369   6.987
 5116POPC   C4A64518   1.020  27.390   7.396
 5116POPC   C1B64519   0.948  27.747   6.219
 5116POPC   C2B64520   0.861  27.955   6.614
 5116POPC   C3B64521   0.923  27.839   7.049
 5116POPC   C4B64522   1.298  27.795   7.248
 5117POPC   NC364523   8.791  38.529   5.458
 5117POPC   PO464524   8.091  38.464   5.368
 5117POPC   GL164525   8.250  38.432   5.787
 5117POPC   GL264526   8.313  38.107   5.962
 5117POPC   C1A64527   8.217  38.568   6.223
 5117POPC   D2A64528   7.991  38.530   6.637
 5117POPC   C3A64529   8.212  38.614   7.032
 5117POPC   C4A64530   8.634  38.690   7.162
 5117POPC   C1B64531   8.287  38.065   6.411
 5117POPC   C2B64532   8.420  38.215   6.802
 5117POPC   C3B64533   8.352  38.182   7.263
 5117POPC   C4B64534   8.030  38.139   7.578
 5118POPC   NC364535   5.850  34.797   5.135
 5118POPC   PO464536   5.447  34.370   5.578
 5118POPC   GL164537   5.815  34.337   5.792
 5118POPC   GL264538   5.965  34.630   5.656
 5118POPC   C1A64539   5.897  34.224   6.215
 5118POPC   D2A64540   6.128  34.280   6.597
 5118POPC   C3A64541   5.862  34.342   6.940
 5118POPC   C4A64542   6.089  34.380   7.287
 5118POPC   C1B64543   5.890  34.764   6.095
 5118POPC   C2B64544   6.052  34.810   6.510
 5118POPC   C3B64545   6.067  34.834   6.958
 5118POPC   C4B64546   5.730  34.752   7.257
 5119POPC   NC364547  39.495  38.687   5.272
 5119POPC   PO464548  39.060  38.281   5.509
 5119POPC   GL164549  39.255  38.534   5.834
 5119POPC   GL264550  39.509  38.798   5.761
 5119POPC   C1A64551  39.160  38.748   6.224
 5119POPC   D2A64552  39.065  38.976   6.622
 5119POPC   C3A64553  38.901  38.745   6.964
 5119POPC   C4A64554  39.052  38.565   7.323
 5119POPC   C1B64555  39.679  38.834   6.139
 5119POPC   C2B64556  39.557  38.666   6.541
 5119POPC   C3B64557  39.413  38.587   6.935
 5119POPC   C4B64558  39.682  38.612   7.285
 5120POPC   NC364559   2.105  18.569   5.447
 5120POPC   PO464560   1.570  18.151   5.316
 5120POPC   GL164561   1.719  18.324   5.722
 5120POPC   GL264562   2.055  18.182   5.809
 5120POPC   C1A64563   1.779  18.339   6.197
 5120POPC   D2A64564   2.044  18.186   6.539
 5120POPC   C3A64565   1.904  17.995   6.953
 5120POPC   C4A64566   2.136  17.931   7.354
 5120POPC   C1B64567   2.284  18.471   6.099
 5120POPC   C2B64568   2.329  18.629   6.541
 5120POPC   C3B64569   2.183  18.452   6.965
 5120POPC   C4B64570   2.196  18.441   7.423
 5121POPC   NC364571   7.684   8.607   5.381
 5121POPC   PO464572   7.075   8.895   5.389
 5121POPC   GL164573   7.424   8.924   5.700
 5121POPC   GL264574   7.132   8.922   5.913
 5121POPC   C1A64575   7.569   8.766   6.123
 5121POPC   D2A64576   7.318   8.817   6.534
 5121POPC   C3A64577   7.565   8.765   6.915
 5121POPC   C4A64578   7.506   8.660   7.318
 5121POPC   C1B64579   7.097   9.207   6.256
 5121POPC   C2B64580   7.190   9.334   6.675
 5121POPC   C3B64581   7.145   9.054   7.026
 5121POPC   C4B64582   7.178   9.182   7.433
 5122POPC   NC364583  30.285  24.237   5.356
 5122POPC   PO464584  29.929  24.751   5.383
 5122POPC   GL164585  29.856  24.609   5.817
 5122POPC   GL264586  29.958  24.251   5.755
 5122POPC   C1A64587  29.642  24.604   6.244
 5122POPC   D2A64588  29.878  24.714   6.626
 5122POPC   C3A64589  29.800  24.577   7.027
 5122POPC   C4A64590  30.053  24.775   7.309
 5122POPC   C1B64591  29.866  24.141   6.173
 5122POPC   C2B64592  29.751  24.216   6.597
 5122POPC   C3B64593  29.932  24.080   6.971
 5122POPC   C4B64594  29.987  24.225   7.360
 5123POPC   NC364595  29.370  18.773   5.478
 5123POPC   PO464596  28.824  19.217   5.296
 5123POPC   GL164597  28.933  19.069   5.725
 5123POPC   GL264598  28.931  19.355   5.976
 5123POPC   C1A64599  29.097  18.889   6.127
 5123POPC   D2A64600  28.945  18.939   6.542
 5123POPC   C3A64601  29.221  19.048   6.880
 5123POPC   C4A64602  29.289  18.854   7.294
 5123POPC   C1B64603  28.672  19.378   6.381
 5123POPC   C2B64604  28.728  19.320   6.842
 5123POPC   C3B64605  28.949  19.268   7.258
 5123POPC   C4B64606  29.232  19.288   7.595
 5124POPC   NC364607  44.888   1.507   5.526
 5124POPC   PO464608  44.216   1.186   5.454
 5124POPC   GL164609  44.480   1.236   5.798
 5124POPC   GL264610  44.790   1.049   5.845
 5124POPC   C1A64611  44.438   1.184   6.224
 5124POPC   D2A64612  44.565   1.274   6.604
 5124POPC   C3A64613  44.495   0.972   6.905
 5124POPC   C4A64614  44.415   1.227   7.213
 5124POPC   C1B64615  44.892   1.389   6.170
 5124POPC   C2B64616   0.047   1.404   6.584
 5124POPC   C3B64617  44.881   1.354   7.009
 5124POPC   C4B64618   0.066   1.562   7.330
 5125POPC   NC364619  38.393  26.546   5.299
 5125POPC   PO464620  37.985  27.043   5.316
 5125POPC   GL164621  38.187  26.862   5.718
 5125POPC   GL264622  38.541  26.788   5.747
 5125POPC   C1A64623  38.279  26.977   6.163
 5125POPC   D2A64624  38.373  27.061   6.562
 5125POPC   C3A64625  38.274  26.894   6.963
 5125POPC   C4A64626  38.415  27.021   7.377
 5125POPC   C1B64627  38.537  26.542   6.130
 5125POPC   C2B64628  38.634  26.645   6.537
 5125POPC   C3B64629  38.515  26.430   6.905
 5125POPC   C4B64630  38.541  26.529   7.306
 5126POPC   NC364631  10.173   8.548   5.338
 5126POPC   PO464632  10.696   8.018   5.280
 5126POPC   GL164633  10.695   8.080   5.734
 5126POPC   GL264634  10.577   8.400   5.853
 5126POPC   C1A64635  10.772   8.055   6.198
 5126POPC   D2A64636  10.549   8.003   6.603
 5126POPC   C3A64637  10.664   7.754   6.967
 5126POPC   C4A64638  10.449   8.056   7.209
 5126POPC   C1B64639  10.332   8.377   6.258
 5126POPC   C2B64640  10.344   8.592   6.672
 5126POPC   C3B64641  10.531   8.565   7.099
 5126POPC   C4B64642  10.354   8.462   7.517
 5127POPC   NC364643  25.002   1.010   5.585
 5127POPC   PO464644  25.388   1.449   5.212
 5127POPC   GL164645  25.440   1.390   5.741
 5127POPC   GL264646  25.433   1.042   5.908
 5127POPC   C1A64647  25.373   1.399   6.258
 5127POPC   D2A64648  25.371   1.110   6.659
 5127POPC   C3A64649  25.262   1.326   7.059
 5127POPC   C4A64650  25.363   1.575   7.428
 5127POPC   C1B64651  25.057   0.986   6.235
 5127POPC   C2B64652  24.858   0.943   6.668
 5127POPC   C3B64653  25.025   0.864   7.104
 5127POPC   C4B64654  25.512   0.928   7.237
 5128POPC   NC364655  16.361   8.235   5.479
 5128POPC   PO464656  15.642   8.437   5.510
 5128POPC   GL164657  15.823   8.206   5.809
 5128POPC   GL264658  15.818   7.885   5.688
 5128POPC   C1A64659  15.928   8.384   6.215
 5128POPC   D2A64660  15.696   8.496   6.589
 5128POPC   C3A64661  15.811   8.400   6.990
 5128POPC   C4A64662  16.103   8.320   7.328
 5128POPC   C1B64663  16.054   7.862   6.098
 5128POPC   C2B64664  16.159   8.038   6.508
 5128POPC   C3B64665  16.085   7.983   6.930
 5128POPC   C4B64666  15.952   7.817   7.349
 5129POPC   NC364667  11.728   0.318   5.205
 5129POPC   PO464668  11.130   0.666   5.416
 5129POPC   GL164669  11.149   0.397   5.751
 5129POPC   GL264670  11.526   0.372   5.686
 5129POPC   C1A64671  10.998   0.347   6.187
 5129POPC   D2A64672  11.068   0.730   6.435
 5129POPC   C3A64673  11.217   0.710   6.852
 5129POPC   C4A64674  11.090   0.428   7.182
 5129POPC   C1B64675  11.484   0.515   6.107
 5129POPC   C2B64676  11.438   0.350   6.489
 5129POPC   C3B64677  11.491   0.282   6.886
 5129POPC   C4B64678  11.676   0.416   7.216
 5130POPC   NC364679  10.223  23.343   5.520
 5130POPC   PO464680  10.314  24.001   5.447
 5130POPC   GL164681  10.429  23.811   5.871
 5130POPC   GL264682  10.404  23.477   5.977
 5130POPC   C1A64683  10.741  23.738   6.243
 5130POPC   D2A64684  10.778  23.462   6.602
 5130POPC   C3A64685  10.660  23.740   6.907
 5130POPC   C4A64686  10.834  23.762   7.281
 5130POPC   C1B64687   9.984  23.398   6.167
 5130POPC   C2B64688   9.878  23.308   6.604
 5130POPC   C3B64689  10.242  23.425   6.856
 5130POPC   C4B64690  10.506  23.371   7.219
 5131POPC   NC364691  21.173   2.435   5.297
 5131POPC   PO464692  21.663   2.775   5.463
 5131POPC   GL164693  21.555   2.731   5.874
 5131POPC   GL264694  21.222   2.878   5.826
 5131POPC   C1A64695  21.498   2.812   6.316
 5131POPC   D2A64696  21.229   2.966   6.659
 5131POPC   C3A64697  21.423   2.790   6.976
 5131POPC   C4A64698  21.514   2.941   7.387
 5131POPC   C1B64699  21.007   2.761   6.241
 5131POPC   C2B64700  21.175   2.457   6.578
 5131POPC   C3B64701  21.097   2.373   7.022
 5131POPC   C4B64702  21.038   2.760   7.285
 5132POPC   NC364703  13.473  25.779   5.274
 5132POPC   PO464704  13.822  25.166   5.376
 5132POPC   GL164705  13.796  25.429   5.715
 5132POPC   GL264706  13.462  25.449   5.714
 5132POPC   C1A64707  13.700  25.559   6.161
 5132POPC   D2A64708  13.458  25.641   6.551
 5132POPC   C3A64709  13.416  25.363   6.889
 5132POPC   C4A64710  13.838  25.190   7.043
 5132POPC   C1B64711  13.551  25.065   6.037
 5132POPC   C2B64712  13.589  25.022   6.516
 5132POPC   C3B64713  13.471  24.862   6.964
 5132POPC   C4B64714  13.432  25.105   7.339
 5133POPC   NC364715  35.047  31.089   5.403
 5133POPC   PO464716  35.270  31.652   5.254
 5133POPC   GL164717  35.310  31.725   5.722
 5133POPC   GL264718  35.652  31.887   5.776
 5133POPC   C1A64719  35.355  31.458   6.114
 5133POPC   D2A64720  35.307  31.188   6.517
 5133POPC   C3A64721  35.578  31.259   6.890
 5133POPC   C4A64722  35.415  31.370   7.296
 5133POPC   C1B64723  35.501  31.954   6.211
 5133POPC   C2B64724  35.470  31.687   6.554
 5133POPC   C3B64725  35.284  31.685   6.928
 5133POPC   C4B64726  35.264  31.897   7.279
 5134POPC   NC364727  42.755  16.917   5.633
 5134POPC   PO464728  42.224  16.927   5.264
 5134POPC   GL164729  42.138  16.841   5.704
 5134POPC   GL264730  42.351  17.060   5.892
 5134POPC   C1A64731  42.088  16.686   6.158
 5134POPC   D2A64732  42.301  16.695   6.577
 5134POPC   C3A64733  42.064  16.615   6.950
 5134POPC   C4A64734  42.172  16.355   7.302
 5134POPC   C1B64735  42.594  17.078   6.311
 5134POPC   C2B64736  42.695  17.021   6.768
 5134POPC   C3B64737  42.580  16.713   7.094
 5134POPC   C4B64738  42.469  16.793   7.516
 5135POPC   NC364739  38.248  28.788   5.604
 5135POPC   PO464740  38.459  29.449   5.420
 5135POPC   GL164741  38.361  29.259   5.825
 5135POPC   GL264742  38.569  29.081   6.026
 5135POPC   C1A64743  38.230  29.354   6.285
 5135POPC   D2A64744  38.223  29.249   6.748
 5135POPC   C3A64745  38.665  29.244   6.926
 5135POPC   C4A64746  38.802  29.377   7.352
 5135POPC   C1B64747  38.230  28.831   6.249
 5135POPC   C2B64748  38.087  28.708   6.655
 5135POPC   C3B64749  38.189  28.814   7.072
 5135POPC   C4B64750  38.314  29.187   7.290
 5136POPC   NC364751   8.939  20.398   5.343
 5136POPC   PO464752   8.824  21.011   5.488
 5136POPC   GL164753   8.986  20.777   5.821
 5136POPC   GL264754   9.257  20.565   5.887
 5136POPC   C1A64755   9.121  20.906   6.222
 5136POPC   D2A64756   9.013  21.128   6.592
 5136POPC   C3A64757   8.910  20.880   6.936
 5136POPC   C4A64758   9.078  20.613   7.257
 5136POPC   C1B64759   9.260  20.387   6.294
 5136POPC   C2B64760   9.206  20.425   6.749
 5136POPC   C3B64761   9.112  20.137   7.091
 5136POPC   C4B64762   9.170  20.127   7.570
 5137POPC   NC364763  11.165  25.843   5.495
 5137POPC   PO464764  11.455  26.424   5.489
 5137POPC   GL164765  11.392  26.125   5.873
 5137POPC   GL264766  11.043  26.050   5.944
 5137POPC   C1A64767  11.378  25.950   6.341
 5137POPC   D2A64768  11.535  25.688   6.706
 5137POPC   C3A64769  11.452  25.890   7.115
 5137POPC   C4A64770  11.681  26.015   7.480
 5137POPC   C1B64771  10.937  25.704   6.231
 5137POPC   C2B64772  11.002  25.631   6.654
 5137POPC   C3B64773  10.847  25.734   7.038
 5137POPC   C4B64774  10.986  25.973   7.353
 5138POPC   NC364775  14.103  26.490   5.586
 5138POPC   PO464776  13.932  25.915   5.296
 5138POPC   GL164777  13.675  25.934   5.718
 5138POPC   GL264778  13.284  25.960   5.692
 5138POPC   C1A64779  13.746  26.087   6.136
 5138POPC   D2A64780  13.960  25.927   6.488
 5138POPC   C3A64781  13.729  25.980   6.858
 5138POPC   C4A64782  13.722  25.669   7.161
 5138POPC   C1B64783  13.267  25.857   6.108
 5138POPC   C2B64784  13.331  26.124   6.465
 5138POPC   C3B64785  13.239  26.153   6.897
 5138POPC   C4B64786  13.295  25.937   7.275
 5139POPC   NC364787  11.730   1.349   5.587
 5139POPC   PO464788  12.211   0.995   5.368
 5139POPC   GL164789  12.281   1.063   5.829
 5139POPC   GL264790  12.059   1.301   5.948
 5139POPC   C1A64791  12.160   0.969   6.278
 5139POPC   D2A64792  11.926   1.181   6.630
 5139POPC   C3A64793  12.197   1.231   6.982
 5139POPC   C4A64794  12.552   0.982   7.140
 5139POPC   C1B64795  11.787   1.534   6.232
 5139POPC   C2B64796  11.594   1.602   6.633
 5139POPC   C3B64797  11.777   1.537   7.027
 5139POPC   C4B64798  11.889   1.638   7.414
 5140POPC   NC364799  44.257  11.467   5.110
 5140POPC   PO464800  43.774  11.622   5.658
 5140POPC   GL164801  44.036  11.319   5.896
 5140POPC   GL264802  43.791  11.107   6.055
 5140POPC   C1A64803  44.112  11.382   6.333
 5140POPC   D2A64804  43.842  11.492   6.676
 5140POPC   C3A64805  43.953  11.196   6.966
 5140POPC   C4A64806  43.979  11.025   7.352
 5140POPC   C1B64807  43.529  11.086   6.393
 5140POPC   C2B64808  43.532  10.956   6.792
 5140POPC   C3B64809  43.439  11.237   7.108
 5140POPC   C4B64810  43.491  11.197   7.515
 5141POPC   NC364811  12.429   0.627   5.616
 5141POPC   PO464812  12.889   0.265   5.283
 5141POPC   GL164813  12.936   0.419   5.758
 5141POPC   GL264814  12.683   0.299   5.963
 5141POPC   C1A64815  12.871   0.750   6.143
 5141POPC   D2A64816  12.810   0.917   6.589
 5141POPC   C3A64817  12.855   0.614   6.954
 5141POPC   C4A64818  12.588   0.483   7.325
 5141POPC   C1B64819  13.095   0.313   6.245
 5141POPC   C2B64820  13.201   0.243   6.705
 5141POPC   C3B64821  13.035   0.145   7.140
 5141POPC   C4B64822  13.015   0.330   7.567
 5142POPC   NC364823   1.689  33.273   5.352
 5142POPC   PO464824   2.312  32.882   5.357
 5142POPC   GL164825   2.155  33.191   5.717
 5142POPC   GL264826   1.793  33.280   5.853
 5142POPC   C1A64827   2.191  33.186   6.200
 5142POPC   D2A64828   2.138  33.289   6.657
 5142POPC   C3A64829   2.059  32.922   6.902
 5142POPC   C4A64830   2.060  32.820   7.294
 5142POPC   C1B64831   1.612  33.300   6.277
 5142POPC   C2B64832   1.645  33.164   6.721
 5142POPC   C3B64833   1.803  33.316   7.129
 5142POPC   C4B64834   1.664  33.212   7.606
 5143POPC   NC364835   0.067  27.827   5.319
 5143POPC   PO464836  44.563  27.387   5.386
 5143POPC   GL164837  44.501  27.606   5.774
 5143POPC   GL264838  44.815  27.687   5.789
 5143POPC   C1A64839  44.501  27.789   6.176
 5143POPC   D2A64840  44.349  27.768   6.547
 5143POPC   C3A64841  44.614  27.696   6.905
 5143POPC   C4A64842  44.485  27.456   7.265
 5143POPC   C1B64843  44.804  27.397   6.119
 5143POPC   C2B64844  44.801  27.347   6.519
 5143POPC   C3B64845  44.840  27.234   6.941
 5143POPC   C4B64846   0.035  27.580   7.200
 5144POPC   NC364847  14.059  20.775   5.356
 5144POPC   PO464848  14.689  20.551   5.447
 5144POPC   GL164849  14.414  20.664   5.734
 5144POPC   GL264850  14.386  20.331   5.880
 5144POPC   C1A64851  14.247  20.768   6.132
 5144POPC   D2A64852  14.133  20.640   6.550
 5144POPC   C3A64853  14.289  20.819   6.898
 5144POPC   C4A64854  14.255  20.788   7.314
 5144POPC   C1B64855  14.447  20.334   6.319
 5144POPC   C2B64856  14.493  20.349   6.745
 5144POPC   C3B64857  14.470  20.369   7.146
 5144POPC   C4B64858  14.779  20.288   7.464
 5145POPC   NC364859  12.693  40.224   5.351
 5145POPC   PO464860  12.771  39.601   5.347
 5145POPC   GL164861  12.851  39.876   5.691
 5145POPC   GL264862  13.047  40.185   5.726
 5145POPC   C1A64863  12.626  40.031   6.037
 5145POPC   D2A64864  12.520  40.282   6.366
 5145POPC   C3A64865  12.526  40.036   6.745
 5145POPC   C4A64866  12.595  40.039   7.174
 5145POPC   C1B64867  13.117  40.025   6.160
 5145POPC   C2B64868  12.979  40.172   6.584
 5145POPC   C3B64869  13.072  40.170   7.045
 5145POPC   C4B64870  13.016  40.215   7.529
 5146POPC   NC364871  26.472   9.106   5.356
 5146POPC   PO464872  27.010   8.758   5.485
 5146POPC   GL164873  26.896   8.720   5.858
 5146POPC   GL264874  26.594   8.871   5.801
 5146POPC   C1A64875  26.924   8.849   6.255
 5146POPC   D2A64876  27.101   9.043   6.589
 5146POPC   C3A64877  26.818   8.930   6.877
 5146POPC   C4A64878  26.832   8.697   7.226
 5146POPC   C1B64879  26.650   9.242   6.077
 5146POPC   C2B64880  26.661   9.360   6.533
 5146POPC   C3B64881  26.556   9.365   6.967
 5146POPC   C4B64882  26.916   9.262   7.251
 5147POPC   NC364883  20.526  38.987   5.262
 5147POPC   PO464884  20.840  39.449   5.669
 5147POPC   GL164885  20.545  39.230   5.850
 5147POPC   GL264886  20.418  38.918   5.856
 5147POPC   C1A64887  20.419  39.321   6.247
 5147POPC   D2A64888  20.463  39.564   6.601
 5147POPC   C3A64889  20.429  39.325   6.947
 5147POPC   C4A64890  20.532  39.405   7.310
 5147POPC   C1B64891  20.793  38.969   6.208
 5147POPC   C2B64892  20.791  39.169   6.626
 5147POPC   C3B64893  20.923  39.139   7.074
 5147POPC   C4B64894  20.901  39.187   7.551
 5148POPC   NC364895  43.727  20.628   5.155
 5148POPC   PO464896  44.068  20.638   5.661
 5148POPC   GL164897  43.784  20.505   5.991
 5148POPC   GL264898  44.062  20.328   6.119
 5148POPC   C1A64899  43.673  20.701   6.418
 5148POPC   D2A64900  43.992  20.913   6.715
 5148POPC   C3A64901  44.022  20.804   7.156
 5148POPC   C4A64902  43.768  20.467   7.343
 5148POPC   C1B64903  43.877  20.213   6.458
 5148POPC   C2B64904  43.954  20.154   6.864
 5148POPC   C3B64905  44.248  20.329   7.146
 5148POPC   C4B64906  44.293  20.252   7.606
 5149POPC   NC364907  40.751  33.474   5.450
 5149POPC   PO464908  40.983  33.035   5.098
 5149POPC   GL164909  41.046  33.119   5.628
 5149POPC   GL264910  40.735  32.978   5.810
 5149POPC   C1A64911  41.107  33.019   6.133
 5149POPC   D2A64912  40.824  32.819   6.477
 5149POPC   C3A64913  40.877  32.912   6.921
 5149POPC   C4A64914  41.084  32.992   7.309
 5149POPC   C1B64915  40.619  33.215   6.222
 5149POPC   C2B64916  40.561  33.259   6.678
 5149POPC   C3B64917  40.461  33.287   7.120
 5149POPC   C4B64918  40.647  33.087   7.503
 5150POPC   NC364919  16.869  10.201   5.395
 5150POPC   PO464920  16.843   9.482   5.291
 5150POPC   GL164921  16.603   9.737   5.624
 5150POPC   GL264922  16.748   9.997   5.860
 5150POPC   C1A64923  16.368   9.710   6.039
 5150POPC   D2A64924  16.501   9.691   6.497
 5150POPC   C3A64925  16.352   9.683   6.965
 5150POPC   C4A64926  16.353   9.819   7.442
 5150POPC   C1B64927  16.850   9.568   6.083
 5150POPC   C2B64928  16.875   9.363   6.477
 5150POPC   C3B64929  16.836   9.502   6.907
 5150POPC   C4B64930  16.919   9.665   7.329
 5151POPC   NC364931  44.607  42.796   5.521
 5151POPC   PO464932  44.978  43.313   5.385
 5151POPC   GL164933  44.785  43.198   5.789
 5151POPC   GL264934  44.452  43.287   5.766
 5151POPC   C1A64935  44.556  42.912   6.150
 5151POPC   D2A64936  44.306  43.000   6.553
 5151POPC   C3A64937  44.484  43.008   6.990
 5151POPC   C4A64938  44.565  43.032   7.429
 5151POPC   C1B64939  44.549  43.397   6.229
 5151POPC   C2B64940  44.632  43.396   6.686
 5151POPC   C3B64941  44.522  43.517   7.116
 5151POPC   C4B64942  44.346  43.497   7.517
 5152POPC   NC364943  20.615  40.604   5.335
 5152POPC   PO464944  20.396  41.144   5.671
 5152POPC   GL164945  20.637  40.791   5.835
 5152POPC   GL264946  20.895  40.523   5.751
 5152POPC   C1A64947  20.862  40.861   6.211
 5152POPC   D2A64948  20.893  41.021   6.623
 5152POPC   C3A64949  20.471  40.976   6.829
 5152POPC   C4A64950  20.576  41.022   7.227
 5152POPC   C1B64951  20.729  40.376   6.174
 5152POPC   C2B64952  20.484  40.529   6.556
 5152POPC   C3B64953  20.539  40.515   7.038
 5152POPC   C4B64954  20.834  40.563   7.396
 5153POPC   NC364955  17.071  31.503   5.530
 5153POPC   PO464956  16.450  31.369   5.445
 5153POPC   GL164957  16.583  31.704   5.760
 5153POPC   GL264958  16.734  31.445   5.909
 5153POPC   C1A64959  16.752  31.826   6.227
 5153POPC   D2A64960  16.657  31.627   6.660
 5153POPC   C3A64961  16.668  31.860   7.036
 5153POPC   C4A64962  16.579  31.756   7.453
 5153POPC   C1B64963  16.873  31.322   6.302
 5153POPC   C2B64964  17.157  31.501   6.595
 5153POPC   C3B64965  17.110  31.433   7.024
 5153POPC   C4B64966  16.701  31.334   7.132
 5154POPC   NC364967  42.759  39.225   5.443
 5154POPC   PO464968  43.436  39.286   5.502
 5154POPC   GL164969  43.246  39.502   5.887
 5154POPC   GL264970  42.913  39.612   5.778
 5154POPC   C1A64971  43.188  39.420   6.350
 5154POPC   D2A64972  43.001  39.258   6.757
 5154POPC   C3A64973  43.099  39.101   7.201
 5154POPC   C4A64974  43.030  38.841   7.615
 5154POPC   C1B64975  42.904  39.803   6.180
 5154POPC   C2B64976  42.825  39.751   6.607
 5154POPC   C3B64977  42.780  39.618   7.037
 5154POPC   C4B64978  43.158  39.617   7.255
 5155POPC   NC364979  41.347   1.353   5.382
 5155POPC   PO464980  41.915   0.933   5.600
 5155POPC   GL164981  41.698   0.994   5.963
 5155POPC   GL264982  41.406   1.144   5.841
 5155POPC   C1A64983  41.707   1.157   6.358
 5155POPC   D2A64984  41.793   1.043   6.748
 5155POPC   C3A64985  41.657   1.239   7.092
 5155POPC   C4A64986  41.587   1.050   7.474
 5155POPC   C1B64987  41.327   1.503   6.164
 5155POPC   C2B64988  41.540   1.600   6.572
 5155POPC   C3B64989  41.390   1.649   7.035
 5155POPC   C4B64990  41.500   1.531   7.512
 5156POPC   NC364991  39.802   7.773   5.144
 5156POPC   PO464992  40.250   7.846   5.655
 5156POPC   GL164993  39.946   8.106   5.859
 5156POPC   GL264994  39.675   7.900   5.855
 5156POPC   C1A64995  39.878   8.132   6.304
 5156POPC   D2A64996  40.129   8.306   6.648
 5156POPC   C3A64997  40.132   8.077   7.008
 5156POPC   C4A64998  39.893   8.347   7.229
 5156POPC   C1B64999  39.475   7.788   6.267
 5156POPC   C2B65000  39.463   7.815   6.734
 5156POPC   C3B65001  39.642   7.894   7.140
 5156POPC   C4B65002  39.582   8.116   7.543
 5157POPC   NC365003   6.286   7.111   5.463
 5157POPC   PO465004   6.824   7.395   5.146
 5157POPC   GL165005   6.667   7.351   5.686
 5157POPC   GL265006   6.550   7.114   5.931
 5157POPC   C1A65007   6.560   7.540   6.172
 5157POPC   D2A65008   6.732   7.463   6.629
 5157POPC   C3A65009   6.577   7.636   7.053
 5157POPC   C4A65010   6.396   7.783   7.440
 5157POPC   C1B65011   6.786   6.996   6.294
 5157POPC   C2B65012   6.929   6.997   6.731
 5157POPC   C3B65013   6.671   7.135   7.094
 5157POPC   C4B65014   6.746   7.388   7.489
 5158POPC   NC365015   5.289  21.944   5.352
 5158POPC   PO465016   5.376  22.588   5.404
 5158POPC   GL165017   5.093  22.275   5.704
 5158POPC   GL265018   4.937  21.879   5.696
 5158POPC   C1A65019   4.918  22.148   6.119
 5158POPC   D2A65020   4.987  22.196   6.560
 5158POPC   C3A65021   5.191  21.913   6.830
 5158POPC   C4A65022   5.235  22.177   7.177
 5158POPC   C1B65023   4.678  21.696   6.069
 5158POPC   C2B65024   4.774  21.699   6.560
 5158POPC   C3B65025   4.735  21.820   7.037
 5158POPC   C4B65026   4.975  21.829   7.439
 5159POPC   NC365027   4.823  37.178   5.641
 5159POPC   PO465028   5.222  36.731   5.306
 5159POPC   GL165029   5.190  36.792   5.749
 5159POPC   GL265030   4.862  36.687   5.818
 5159POPC   C1A65031   5.145  36.960   6.192
 5159POPC   D2A65032   5.042  36.850   6.629
 5159POPC   C3A65033   5.068  37.131   6.998
 5159POPC   C4A65034   5.206  36.895   7.361
 5159POPC   C1B65035   4.691  36.705   6.230
 5159POPC   C2B65036   4.538  36.798   6.644
 5159POPC   C3B65037   4.734  36.727   7.090
 5159POPC   C4B65038   4.800  36.717   7.599
 5160POPC   NC365039   5.362  31.157   5.149
 5160POPC   PO465040   4.781  31.481   5.456
 5160POPC   GL165041   4.984  31.395   5.842
 5160POPC   GL265042   5.293  31.542   6.026
 5160POPC   C1A65043   4.869  31.439   6.277
 5160POPC   D2A65044   5.113  31.488   6.650
 5160POPC   C3A65045   4.888  31.468   7.034
 5160POPC   C4A65046   4.949  31.230   7.377
 5160POPC   C1B65047   5.506  31.320   6.317
 5160POPC   C2B65048   5.374  30.999   6.602
 5160POPC   C3B65049   5.296  31.077   7.022
 5160POPC   C4B65050   5.407  31.428   7.303
 5161POPC   NC365051   9.200  29.144   5.579
 5161POPC   PO465052   8.618  29.066   5.410
 5161POPC   GL165053   8.818  28.966   5.864
 5161POPC   GL265054   9.095  28.694   5.800
 5161POPC   C1A65055   9.080  29.213   6.227
 5161POPC   D2A65056   9.174  29.409   6.651
 5161POPC   C3A65057   9.034  29.128   6.943
 5161POPC   C4A65058   8.752  29.059   7.247
 5161POPC   C1B65059   9.310  28.756   6.210
 5161POPC   C2B65060   9.399  28.949   6.600
 5161POPC   C3B65061   9.423  28.795   7.010
 5161POPC   C4B65062   9.218  28.883   7.372
 5162POPC   NC365063  32.466  10.867   5.347
 5162POPC   PO465064  31.907  11.342   5.323
 5162POPC   GL165065  32.023  11.444   5.791
 5162POPC   GL265066  32.366  11.557   5.943
 5162POPC   C1A65067  32.035  11.405   6.279
 5162POPC   D2A65068  32.199  11.549   6.669
 5162POPC   C3A65069  32.127  11.335   7.043
 5162POPC   C4A65070  32.219  11.515   7.434
 5162POPC   C1B65071  32.489  11.185   6.192
 5162POPC   C2B65072  32.633  11.260   6.608
 5162POPC   C3B65073  32.634  11.437   7.002
 5162POPC   C4B65074  32.543  11.075   7.273
 5163POPC   NC365075  44.623   6.935   5.357
 5163POPC   PO465076  44.267   6.365   5.429
 5163POPC   GL165077  44.630   6.478   5.672
 5163POPC   GL265078  44.891   6.229   5.748
 5163POPC   C1A65079  44.654   6.688   6.079
 5163POPC   D2A65080  44.531   6.524   6.496
 5163POPC   C3A65081  44.779   6.656   6.852
 5163POPC   C4A65082  44.575   6.712   7.244
 5163POPC   C1B65083  44.895   6.247   6.222
 5163POPC   C2B65084  44.739   6.063   6.648
 5163POPC   C3B65085  44.631   6.194   7.090
 5163POPC   C4B65086  44.821   6.339   7.475
 5164POPC   NC365087  17.286   3.763   5.493
 5164POPC   PO465088  17.857   3.293   5.531
 5164POPC   GL165089  17.642   3.522   5.847
 5164POPC   GL265090  17.296   3.390   5.895
 5164POPC   C1A65091  17.639   3.631   6.286
 5164POPC   D2A65092  17.898   3.752   6.652
 5164POPC   C3A65093  17.829   3.592   7.052
 5164POPC   C4A65094  17.676   3.586   7.482
 5164POPC   C1B65095  17.126   3.610   6.288
 5164POPC   C2B65096  17.359   3.789   6.682
 5164POPC   C3B65097  17.325   3.607   7.088
 5164POPC   C4B65098  17.396   3.179   7.103
 5165POPC   NC365099  39.071  27.280   5.348
 5165POPC   PO465100  39.073  27.858   5.621
 5165POPC   GL165101  39.167  27.515   5.909
 5165POPC   GL265102  39.521  27.372   5.925
 5165POPC   C1A65103  39.114  27.549   6.373
 5165POPC   D2A65104  39.125  27.841   6.760
 5165POPC   C3A65105  39.009  27.610   7.059
 5165POPC   C4A65106  39.192  27.250   6.924
 5165POPC   C1B65107  39.591  27.674   6.206
 5165POPC   C2B65108  39.554  27.572   6.646
 5165POPC   C3B65109  39.654  27.782   7.014
 5165POPC   C4B65110  39.588  27.554   7.393
 5166POPC   NC365111   2.463  39.292   5.479
 5166POPC   PO465112   2.932  38.835   5.291
 5166POPC   GL165113   2.967  38.990   5.753
 5166POPC   GL265114   2.908  39.359   5.770
 5166POPC   C1A65115   2.907  39.086   6.220
 5166POPC   D2A65116   2.546  39.090   6.568
 5166POPC   C3A65117   2.661  39.116   7.018
 5166POPC   C4A65118   2.966  39.428   7.150
 5166POPC   C1B65119   2.790  39.577   6.164
 5166POPC   C2B65120   2.876  39.477   6.589
 5166POPC   C3B65121   2.504  39.553   6.797
 5166POPC   C4B65122   2.379  39.528   7.198
 5167POPC   NC365123  34.319  15.843   5.452
 5167POPC   PO465124  34.842  16.239   5.330
 5167POPC   GL165125  34.761  16.140   5.761
 5167POPC   GL265126  34.857  15.834   5.894
 5167POPC   C1A65127  34.735  16.225   6.214
 5167POPC   D2A65128  34.956  16.074   6.588
 5167POPC   C3A65129  34.731  16.214   6.937
 5167POPC   C4A65130  34.643  15.937   7.241
 5167POPC   C1B65131  34.712  15.717   6.304
 5167POPC   C2B65132  34.439  15.965   6.583
 5167POPC   C3B65133  34.253  15.815   6.945
 5167POPC   C4B65134  34.251  15.655   7.353
 5168POPC   NC365135   4.564  25.629   5.391
 5168POPC   PO465136   3.933  25.491   5.275
 5168POPC   GL165137   4.183  25.448   5.695
 5168POPC   GL265138   4.480  25.231   5.728
 5168POPC   C1A65139   4.384  25.558   6.124
 5168POPC   D2A65140   4.481  25.551   6.604
 5168POPC   C3A65141   4.182  25.268   6.813
 5168POPC   C4A65142   4.025  25.007   7.146
 5168POPC   C1B65143   4.660  25.117   6.148
 5168POPC   C2B65144   4.524  24.949   6.572
 5168POPC   C3B65145   4.525  24.936   7.034
 5168POPC   C4B65146   4.513  25.383   7.168
 5169POPC   NC365147  37.906   3.722   5.404
 5169POPC   PO465148  37.529   3.105   5.427
 5169POPC   GL165149  37.481   3.365   5.808
 5169POPC   GL265150  37.552   3.734   5.802
 5169POPC   C1A65151  37.566   3.395   6.273
 5169POPC   D2A65152  37.734   3.664   6.619
 5169POPC   C3A65153  37.845   3.536   7.035
 5169POPC   C4A65154  37.678   3.486   7.438
 5169POPC   C1B65155  37.573   3.934   6.203
 5169POPC   C2B65156  37.318   4.022   6.586
 5169POPC   C3B65157  37.468   3.889   6.998
 5169POPC   C4B65158  37.643   3.982   7.390
 5170POPC   NC365159  22.609   5.749   5.141
 5170POPC   PO465160  23.292   5.720   5.407
 5170POPC   GL165161  23.045   5.820   5.761
 5170POPC   GL265162  22.755   5.671   5.669
 5170POPC   C1A65163  23.081   5.889   6.222
 5170POPC   D2A65164  22.930   5.675   6.601
 5170POPC   C3A65165  23.090   5.853   6.948
 5170POPC   C4A65166  23.208   5.813   7.354
 5170POPC   C1B65167  22.652   5.638   6.117
 5170POPC   C2B65168  22.561   5.979   6.421
 5170POPC   C3B65169  22.456   5.998   6.863
 5170POPC   C4B65170  22.677   5.860   7.246
 5171POPC   NC365171  14.561  31.763   5.534
 5171POPC   PO465172  14.194  31.270   5.376
 5171POPC   GL165173  14.354  31.333   5.737
 5171POPC   GL265174  14.113  31.623   5.762
 5171POPC   C1A65175  14.510  31.165   6.113
 5171POPC   D2A65176  14.322  31.215   6.505
 5171POPC   C3A65177  14.509  31.092   6.890
 5171POPC   C4A65178  14.502  31.276   7.301
 5171POPC   C1B65179  14.303  31.632   6.171
 5171POPC   C2B65180  14.461  31.718   6.560
 5171POPC   C3B65181  14.313  31.563   6.914
 5171POPC   C4B65182  14.295  31.750   7.270
 5172POPC   NC365183  13.448   3.027   5.271
 5172POPC   PO465184  13.746   2.449   5.382
 5172POPC   GL165185  13.690   2.587   5.782
 5172POPC   GL265186  13.963   2.759   5.918
 5172POPC   C1A65187  13.615   2.489   6.214
 5172POPC   D2A65188  13.489   2.707   6.596
 5172POPC   C3A65189  13.549   2.517   6.981
 5172POPC   C4A65190  13.512   2.622   7.370
 5172POPC   C1B65191  14.113   2.563   6.319
 5172POPC   C2B65192  14.006   2.527   6.766
 5172POPC   C3B65193  13.955   2.775   7.160
 5172POPC   C4B65194  14.298   2.907   7.418
 5173POPC   NC365195  18.056  29.214   5.279
 5173POPC   PO465196  17.304  29.221   5.436
 5173POPC   GL165197  17.333  29.200   5.874
 5173POPC   GL265198  17.647  29.210   5.897
 5173POPC   C1A65199  17.372  28.999   6.288
 5173POPC   D2A65200  17.392  29.216   6.647
 5173POPC   C3A65201  17.118  29.196   6.968
 5173POPC   C4A65202  17.426  29.128   7.263
 5173POPC   C1B65203  17.821  29.249   6.306
 5173POPC   C2B65204  17.874  29.071   6.700
 5173POPC   C3B65205  17.882  28.870   7.104
 5173POPC   C4B65206  17.795  28.946   7.566
 5174POPC   NC365207  28.173   7.604   5.455
 5174POPC   PO465208  28.778   7.265   5.599
 5174POPC   GL165209  28.431   7.424   5.842
 5174POPC   GL265210  28.182   7.198   5.969
 5174POPC   C1A65211  28.243   7.670   6.171
 5174POPC   D2A65212  28.050   7.433   6.514
 5174POPC   C3A65213  28.224   7.542   6.879
 5174POPC   C4A65214  28.479   7.501   7.188
 5174POPC   C1B65215  28.515   7.259   6.318
 5174POPC   C2B65216  28.467   7.075   6.704
 5174POPC   C3B65217  28.288   7.041   7.083
 5174POPC   C4B65218  28.381   7.091   7.523
 5175POPC   NC365219  24.750  38.635   5.360
 5175POPC   PO465220  24.232  38.185   5.595
 5175POPC   GL165221  24.452  38.377   5.940
 5175POPC   GL265222  24.807  38.464   5.854
 5175POPC   C1A65223  24.365  38.469   6.379
 5175POPC   D2A65224  24.612  38.654   6.750
 5175POPC   C3A65225  24.441  38.591   7.197
 5175POPC   C4A65226  24.455  38.283   7.576
 5175POPC   C1B65227  24.863  38.493   6.304
 5175POPC   C2B65228  24.911  38.218   6.675
 5175POPC   C3B65229  24.911  38.307   7.103
 5175POPC   C4B65230  24.937  38.727   7.199
 5176POPC   NC365231   3.760  20.987   5.535
 5176POPC   PO465232   3.300  20.432   5.539
 5176POPC   GL165233   3.586  20.615   5.844
 5176POPC   GL265234   3.415  20.920   5.930
 5176POPC   C1A65235   3.810  20.767   6.227
 5176POPC   D2A65236   3.719  20.604   6.619
 5176POPC   C3A65237   3.749  20.806   6.980
 5176POPC   C4A65238   3.670  20.577   7.317
 5176POPC   C1B65239   3.301  20.663   6.297
 5176POPC   C2B65240   3.155  20.744   6.718
 5176POPC   C3B65241   3.250  20.848   7.153
 5176POPC   C4B65242   3.310  20.866   7.601
 5177POPC   NC365243  18.148  24.874   5.087
 5177POPC   PO465244  18.294  25.143   5.669
 5177POPC   GL165245  18.170  25.260   6.047
 5177POPC   GL265246  17.834  25.120   5.992
 5177POPC   C1A65247  18.541  25.392   6.302
 5177POPC   D2A65248  18.712  25.302   6.693
 5177POPC   C3A65249  18.321  25.282   6.900
 5177POPC   C4A65250  18.159  25.276   7.309
 5177POPC   C1B65251  17.706  25.453   6.249
 5177POPC   C2B65252  17.835  25.386   6.676
 5177POPC   C3B65253  17.932  24.955   6.840
 5177POPC   C4B65254  17.872  24.814   7.252
 5178POPC   NC365255   0.666  12.100   5.341
 5178POPC   PO465256   0.459  12.712   5.409
 5178POPC   GL165257   0.446  12.431   5.802
 5178POPC   GL265258   0.262  12.082   5.798
 5178POPC   C1A65259   0.507  12.251   6.241
 5178POPC   D2A65260   0.449  12.408   6.683
 5178POPC   C3A65261   0.473  12.045   6.986
 5178POPC   C4A65262   0.661  11.663   7.208
 5178POPC   C1B65263   0.032  11.927   6.182
 5178POPC   C2B65264   0.153  11.827   6.599
 5178POPC   C3B65265  44.987  11.824   7.005
 5178POPC   C4B65266   0.194  11.799   7.366
 5179POPC   NC365267  13.949  36.142   5.522
 5179POPC   PO465268  13.308  36.448   5.406
 5179POPC   GL165269  13.500  36.210   5.777
 5179POPC   GL265270  13.549  36.416   6.018
 5179POPC   C1A65271  13.595  35.936   6.177
 5179POPC   D2A65272  13.519  36.097   6.593
 5179POPC   C3A65273  13.648  35.900   6.965
 5179POPC   C4A65274  13.373  35.841   7.321
 5179POPC   C1B65275  13.946  36.552   6.202
 5179POPC   C2B65276  14.121  36.474   6.637
 5179POPC   C3B65277  13.991  36.322   7.057
 5179POPC   C4B65278  13.606  36.297   7.284
 5180POPC   NC365279  24.650  21.850   5.374
 5180POPC   PO465280  24.774  21.199   5.526
 5180POPC   GL165281  24.610  21.490   5.832
 5180POPC   GL265282  24.308  21.671   5.791
 5180POPC   C1A65283  24.444  21.357   6.240
 5180POPC   D2A65284  24.629  21.403   6.645
 5180POPC   C3A65285  24.387  21.335   6.964
 5180POPC   C4A65286  24.449  21.261   7.372
 5180POPC   C1B65287  24.243  21.822   6.191
 5180POPC   C2B65288  24.101  21.606   6.567
 5180POPC   C3B65289  24.023  21.669   6.991
 5180POPC   C4B65290  24.131  21.716   7.421
 5181POPC   NC365291  13.466  19.541   5.418
 5181POPC   PO465292  13.712  20.230   5.324
 5181POPC   GL165293  13.765  20.028   5.751
 5181POPC   GL265294  13.796  19.686   5.773
 5181POPC   C1A65295  13.613  19.951   6.206
 5181POPC   D2A65296  13.660  19.765   6.631
 5181POPC   C3A65297  13.583  19.977   7.029
 5181POPC   C4A65298  13.478  19.863   7.497
 5181POPC   C1B65299  13.885  19.507   6.174
 5181POPC   C2B65300  14.122  19.578   6.541
 5181POPC   C3B65301  13.988  19.444   6.907
 5181POPC   C4B65302  13.879  19.621   7.277
 5182POPC   NC365303  22.496  15.056   5.454
 5182POPC   PO465304  21.890  14.844   5.283
 5182POPC   GL165305  22.085  14.945   5.768
 5182POPC   GL265306  22.465  14.978   5.941
 5182POPC   C1A65307  21.934  15.195   6.155
 5182POPC   D2A65308  22.056  15.378   6.568
 5182POPC   C3A65309  21.791  15.461   6.920
 5182POPC   C4A65310  22.016  15.381   7.292
 5182POPC   C1B65311  22.373  14.999   6.356
 5182POPC   C2B65312  22.028  14.855   6.583
 5182POPC   C3B65313  21.995  14.969   6.999
 5182POPC   C4B65314  22.318  14.933   7.280
 5183POPC   NC365315  22.466  16.083   5.446
 5183POPC   PO465316  21.990  15.628   5.436
 5183POPC   GL165317  22.216  15.748   5.781
 5183POPC   GL265318  22.032  16.052   5.804
 5183POPC   C1A65319  22.338  15.651   6.208
 5183POPC   D2A65320  22.174  15.882   6.556
 5183POPC   C3A65321  22.214  15.754   6.988
 5183POPC   C4A65322  21.888  15.887   7.281
 5183POPC   C1B65323  22.334  16.175   6.126
 5183POPC   C2B65324  22.265  16.384   6.514
 5183POPC   C3B65325  22.148  16.255   6.920
 5183POPC   C4B65326  22.357  16.182   7.284
 5184POPC   NC365327  16.266  32.549   5.641
 5184POPC   PO465328  15.857  33.063   5.452
 5184POPC   GL165329  16.038  32.971   5.827
 5184POPC   GL265330  15.799  32.691   5.845
 5184POPC   C1A65331  16.202  33.125   6.221
 5184POPC   D2A65332  16.301  33.170   6.662
 5184POPC   C3A65333  16.157  32.909   6.995
 5184POPC   C4A65334  16.107  33.216   7.303
 5184POPC   C1B65335  15.672  32.996   6.179
 5184POPC   C2B65336  15.802  33.026   6.610
 5184POPC   C3B65337  15.610  32.985   7.005
 5184POPC   C4B65338  15.784  32.829   7.363
 5185POPC   NC365339  21.994  33.427   5.448
 5185POPC   PO465340  22.203  34.098   5.393
 5185POPC   GL165341  21.987  33.888   5.742
 5185POPC   GL265342  22.021  33.557   5.957
 5185POPC   C1A65343  22.121  34.018   6.151
 5185POPC   D2A65344  22.184  34.145   6.571
 5185POPC   C3A65345  22.320  33.822   6.840
 5185POPC   C4A65346  22.119  33.641   7.204
 5185POPC   C1B65347  22.349  33.594   6.327
 5185POPC   C2B65348  22.569  33.343   6.641
 5185POPC   C3B65349  22.600  33.436   7.055
 5185POPC   C4B65350  22.640  33.764   7.260
 5186POPC   NC365351  19.549  12.237   5.557
 5186POPC   PO465352  20.102  11.898   5.502
 5186POPC   GL165353  19.892  12.003   5.885
 5186POPC   GL265354  19.752  12.337   5.999
 5186POPC   C1A65355  19.981  11.776   6.271
 5186POPC   D2A65356  19.851  11.804   6.713
 5186POPC   C3A65357  20.090  11.855   7.092
 5186POPC   C4A65358  19.903  11.918   7.476
 5186POPC   C1B65359  19.724  12.214   6.430
 5186POPC   C2B65360  19.457  12.135   6.803
 5186POPC   C3B65361  19.562  12.220   7.243
 5186POPC   C4B65362  19.492  12.197   7.753
 5187POPC   NC365363  35.800  18.293   5.361
 5187POPC   PO465364  36.463  18.270   5.320
 5187POPC   GL165365  36.190  18.050   5.673
 5187POPC   GL265366  35.834  18.109   5.842
 5187POPC   C1A65367  36.249  18.006   6.123
 5187POPC   D2A65368  36.345  18.269   6.478
 5187POPC   C3A65369  36.188  18.033   6.810
 5187POPC   C4A65370  36.336  17.850   7.181
 5187POPC   C1B65371  35.915  18.427   6.177
 5187POPC   C2B65372  35.805  18.506   6.629
 5187POPC   C3B65373  35.958  18.399   7.068
 5187POPC   C4B65374  35.948  18.618   7.444
 5188POPC   NC365375  13.900  14.244   5.318
 5188POPC   PO465376  13.276  14.263   5.212
 5188POPC   GL165377  13.532  14.263   5.689
 5188POPC   GL265378  13.797  14.527   5.748
 5188POPC   C1A65379  13.467  14.449   6.151
 5188POPC   D2A65380  13.575  14.599   6.588
 5188POPC   C3A65381  13.460  14.368   6.973
 5188POPC   C4A65382  13.535  13.964   7.183
 5188POPC   C1B65383  13.944  14.718   6.166
 5188POPC   C2B65384  14.081  14.724   6.597
 5188POPC   C3B65385  13.903  14.643   7.004
 5188POPC   C4B65386  13.767  14.524   7.426
 5189POPC   NC365387  33.508  17.249   5.317
 5189POPC   PO465388  33.646  17.919   5.402
 5189POPC   GL165389  33.744  17.723   5.836
 5189POPC   GL265390  33.572  17.405   5.817
 5189POPC   C1A65391  33.972  17.563   6.239
 5189POPC   D2A65392  34.066  17.427   6.678
 5189POPC   C3A65393  33.868  17.683   7.030
 5189POPC   C4A65394  33.490  17.988   7.127
 5189POPC   C1B65395  33.493  17.412   6.256
 5189POPC   C2B65396  33.603  17.196   6.646
 5189POPC   C3B65397  33.511  17.240   7.079
 5189POPC   C4B65398  33.522  17.096   7.516
 5190POPC   NC365399  17.440  25.952   5.205
 5190POPC   PO465400  17.878  26.531   5.178
 5190POPC   GL165401  17.720  26.252   5.592
 5190POPC   GL265402  17.461  25.962   5.695
 5190POPC   C1A65403  17.653  26.233   6.086
 5190POPC   D2A65404  17.730  26.356   6.549
 5190POPC   C3A65405  17.687  26.137   6.980
 5190POPC   C4A65406  17.657  26.259   7.462
 5190POPC   C1B65407  17.342  25.817   6.091
 5190POPC   C2B65408  17.323  26.044   6.483
 5190POPC   C3B65409  17.179  25.932   6.882
 5190POPC   C4B65410  17.334  25.869   7.283
 5191POPC   NC365411   7.857   9.888   5.411
 5191POPC   PO465412   8.424  10.236   5.447
 5191POPC   GL165413   8.283   9.918   5.795
 5191POPC   GL265414   7.997   9.664   5.848
 5191POPC   C1A65415   8.407   9.696   6.185
 5191POPC   D2A65416   8.361   9.538   6.606
 5191POPC   C3A65417   8.488   9.915   6.813
 5191POPC   C4A65418   8.507  10.097   7.166
 5191POPC   C1B65419   7.884   9.691   6.292
 5191POPC   C2B65420   8.012   9.946   6.636
 5191POPC   C3B65421   8.042   9.880   7.072
 5191POPC   C4B65422   7.714  10.045   7.299
 5192POPC   NC365423   0.099   4.547   5.070
 5192POPC   PO465424   0.573   4.625   5.550
 5192POPC   GL165425   0.458   4.323   5.898
 5192POPC   GL265426   0.129   4.133   5.954
 5192POPC   C1A65427   0.446   4.378   6.288
 5192POPC   D2A65428   0.660   4.271   6.589
 5192POPC   C3A65429   0.470   4.447   6.909
 5192POPC   C4A65430   0.516   4.373   7.303
 5192POPC   C1B65431  44.949   4.412   6.272
 5192POPC   C2B65432   0.007   4.483   6.712
 5192POPC   C3B65433   0.026   4.263   7.128
 5192POPC   C4B65434  44.944   4.386   7.584
 5193POPC   NC365435  23.155   3.713   5.630
 5193POPC   PO465436  22.722   3.206   5.437
 5193POPC   GL165437  22.706   3.470   5.844
 5193POPC   GL265438  22.697   3.849   5.812
 5193POPC   C1A65439  22.835   3.509   6.320
 5193POPC   D2A65440  23.071   3.378   6.718
 5193POPC   C3A65441  22.918   3.542   7.108
 5193POPC   C4A65442  22.786   3.563   7.530
 5193POPC   C1B65443  23.001   3.975   6.192
 5193POPC   C2B65444  23.108   3.904   6.652
 5193POPC   C3B65445  23.043   4.041   7.099
 5193POPC   C4B65446  22.926   4.064   7.567
 5194POPC   NC365447  13.798  18.698   5.517
 5194POPC   PO465448  13.922  19.394   5.346
 5194POPC   GL165449  13.701  19.171   5.695
 5194POPC   GL265450  13.327  19.154   5.745
 5194POPC   C1A65451  13.666  19.041   6.136
 5194POPC   D2A65452  13.654  19.236   6.556
 5194POPC   C3A65453  13.777  18.967   6.904
 5194POPC   C4A65454  13.765  18.905   7.355
 5194POPC   C1B65455  13.138  19.056   6.165
 5194POPC   C2B65456  13.187  18.986   6.614
 5194POPC   C3B65457  13.271  18.901   7.075
 5194POPC   C4B65458  13.380  18.503   7.289
 5195POPC   NC365459  15.119  37.460   5.480
 5195POPC   PO465460  15.377  38.101   5.491
 5195POPC   GL165461  15.133  37.880   5.805
 5195POPC   GL265462  15.221  37.548   5.968
 5195POPC   C1A65463  15.172  37.972   6.247
 5195POPC   D2A65464  14.897  37.928   6.602
 5195POPC   C3A65465  15.137  37.753   6.932
 5195POPC   C4A65466  15.236  37.879   7.404
 5195POPC   C1B65467  15.210  37.502   6.450
 5195POPC   C2B65468  15.348  37.310   6.811
 5195POPC   C3B65469  15.157  37.349   7.227
 5195POPC   C4B65470  14.916  37.517   7.556
 5196POPC   NC365471  13.980  22.371   5.771
 5196POPC   PO465472  14.521  22.277   5.364
 5196POPC   GL165473  14.424  22.105   5.790
 5196POPC   GL265474  14.170  21.912   5.923
 5196POPC   C1A65475  14.671  22.030   6.182
 5196POPC   D2A65476  14.636  22.262   6.544
 5196POPC   C3A65477  14.700  22.103   6.943
 5196POPC   C4A65478  14.453  22.276   7.236
 5196POPC   C1B65479  14.188  22.089   6.354
 5196POPC   C2B65480  14.182  22.277   6.774
 5196POPC   C3B65481  13.993  22.472   7.151
 5196POPC   C4B65482  13.965  22.073   7.372
 5197POPC   NC365483  25.882  34.450   5.404
 5197POPC   PO465484  26.456  34.820   5.474
 5197POPC   GL165485  26.228  34.521   5.771
 5197POPC   GL265486  25.891  34.649   5.863
 5197POPC   C1A65487  26.124  34.332   6.186
 5197POPC   D2A65488  25.883  34.234   6.543
 5197POPC   C3A65489  26.075  34.298   6.945
 5197POPC   C4A65490  25.929  34.520   7.267
 5197POPC   C1B65491  25.961  34.882   6.197
 5197POPC   C2B65492  26.143  35.086   6.529
 5197POPC   C3B65493  25.970  34.894   6.894
 5197POPC   C4B65494  26.054  35.024   7.278
 5198POPC   NC365495   5.558  40.374   5.102
 5198POPC   PO465496   5.797  39.872   5.522
 5198POPC   GL165497   5.988  39.985   5.892
 5198POPC   GL265498   6.031  39.608   5.948
 5198POPC   C1A65499   5.878  40.283   6.252
 5198POPC   D2A65500   6.107  40.293   6.648
 5198POPC   C3A65501   5.971  40.314   7.075
 5198POPC   C4A65502   6.123  39.993   7.409
 5198POPC   C1B65503   5.624  39.668   6.172
 5198POPC   C2B65504   5.589  39.952   6.536
 5198POPC   C3B65505   5.690  39.907   6.972
 5198POPC   C4B65506   5.671  39.770   7.377
 5199POPC   NC365507  27.296   9.177   5.546
 5199POPC   PO465508  27.782   8.711   5.512
 5199POPC   GL165509  27.766   8.917   5.877
 5199POPC   GL265510  27.437   9.041   6.024
 5199POPC   C1A65511  27.798   8.735   6.269
 5199POPC   D2A65512  27.606   8.874   6.615
 5199POPC   C3A65513  27.641   8.729   7.017
 5199POPC   C4A65514  27.290   8.926   7.156
 5199POPC   C1B65515  27.776   9.260   6.267
 5199POPC   C2B65516  28.007   9.251   6.670
 5199POPC   C3B65517  27.899   9.185   7.122
 5199POPC   C4B65518  27.921   9.203   7.584
 5200POPC   NC365519   1.727  13.727   5.550
 5200POPC   PO465520   1.107  13.471   5.346
 5200POPC   GL165521   0.971  13.467   5.788
 5200POPC   GL265522   1.289  13.656   5.885
 5200POPC   C1A65523   0.866  13.632   6.196
 5200POPC   D2A65524   1.196  13.700   6.488
 5200POPC   C3A65525   1.232  13.423   6.814
 5200POPC   C4A65526   0.978  13.389   7.180
 5200POPC   C1B65527   1.622  13.765   6.223
 5200POPC   C2B65528   1.696  13.689   6.688
 5200POPC   C3B65529   1.753  13.918   7.099
 5200POPC   C4B65530   1.638  13.849   7.534
 5201POPC   NC365531  29.761  41.246   5.449
 5201POPC   PO465532  29.994  41.854   5.642
 5201POPC   GL165533  30.008  41.554   5.921
 5201POPC   GL265534  29.675  41.473   5.892
 5201POPC   C1A65535  30.204  41.524   6.328
 5201POPC   D2A65536  30.465  41.628   6.684
 5201POPC   C3A65537  30.326  41.483   7.058
 5201POPC   C4A65538  29.965  41.461   7.270
 5201POPC   C1B65539  29.764  41.245   6.262
 5201POPC   C2B65540  29.854  41.336   6.704
 5201POPC   C3B65541  29.559  41.267   7.041
 5201POPC   C4B65542  29.476  41.414   7.485
 5202POPC   NC365543  28.055  44.597   5.597
 5202POPC   PO465544  28.624  44.688   5.100
 5202POPC   GL165545  28.533  44.753   5.635
 5202POPC   GL265546  28.777  44.506   5.815
 5202POPC   C1A65547  28.548  44.888   6.089
 5202POPC   D2A65548  28.280  44.888   6.485
 5202POPC   C3A65549  28.467  44.813   6.900
 5202POPC   C4A65550  28.495  44.775   7.351
 5202POPC   C1B65551  28.601  44.375   6.229
 5202POPC   C2B65552  28.398  44.283   6.631
 5202POPC   C3B65553  28.236  44.357   7.056
 5202POPC   C4B65554  28.452  44.285   7.421
 5203POPC   NC365555   5.833  28.883   5.386
 5203POPC   PO465556   6.104  29.505   5.564
 5203POPC   GL165557   5.869  29.200   5.805
 5203POPC   GL265558   6.115  28.931   5.813
 5203POPC   C1A65559   5.562  29.199   6.150
 5203POPC   D2A65560   5.645  29.439   6.540
 5203POPC   C3A65561   5.558  29.291   6.977
 5203POPC   C4A65562   5.820  29.242   7.376
 5203POPC   C1B65563   5.859  28.767   6.139
 5203POPC   C2B65564   5.675  28.913   6.567
 5203POPC   C3B65565   5.900  28.894   6.977
 5203POPC   C4B65566   6.108  28.832   7.384
 5204POPC   NC365567   2.523   7.911   5.517
 5204POPC   PO465568   2.925   8.376   5.306
 5204POPC   GL165569   2.763   8.414   5.738
 5204POPC   GL265570   3.077   8.402   5.850
 5204POPC   C1A65571   2.699   8.335   6.214
 5204POPC   D2A65572   2.855   8.076   6.593
 5204POPC   C3A65573   2.675   8.036   7.013
 5204POPC   C4A65574   2.771   8.121   7.454
 5204POPC   C1B65575   3.201   8.207   6.219
 5204POPC   C2B65576   3.289   8.366   6.616
 5204POPC   C3B65577   3.036   8.436   6.968
 5204POPC   C4B65578   3.217   8.354   7.333
 5205POPC   NC365579  10.827   6.457   5.351
 5205POPC   PO465580  11.177   6.978   5.564
 5205POPC   GL165581  10.832   6.768   5.820
 5205POPC   GL265582  10.474   6.683   5.777
 5205POPC   C1A65583  10.749   6.635   6.286
 5205POPC   D2A65584  10.563   6.869   6.656
 5205POPC   C3A65585  10.482   6.680   7.033
 5205POPC   C4A65586  10.797   6.432   7.162
 5205POPC   C1B65587  10.260   6.718   6.214
 5205POPC   C2B65588  10.169   6.537   6.621
 5205POPC   C3B65589   9.994   6.524   7.036
 5205POPC   C4B65590  10.156   6.423   7.445
 5206POPC   NC365591  18.549   0.457   5.515
 5206POPC   PO465592  17.952   0.512   5.219
 5206POPC   GL165593  18.033   0.538   5.672
 5206POPC   GL265594  18.035   0.867   5.862
 5206POPC   C1A65595  18.139   0.428   6.117
 5206POPC   D2A65596  18.389   0.488   6.512
 5206POPC   C3A65597  18.254   0.360   6.944
 5206POPC   C4A65598  18.338   0.259   7.399
 5206POPC   C1B65599  18.200   0.918   6.311
 5206POPC   C2B65600  18.182   0.885   6.785
 5206POPC   C3B65601  18.321   0.780   7.216
 5206POPC   C4B65602  18.128   0.700   7.614
 5207POPC   NC365603  40.421  36.007   5.435
 5207POPC   PO465604  39.786  36.379   5.432
 5207POPC   GL165605  39.987  36.335   5.834
 5207POPC   GL265606  40.079  36.021   5.812
 5207POPC   C1A65607  40.054  36.175   6.283
 5207POPC   D2A65608  39.855  35.974   6.625
 5207POPC   C3A65609  39.868  36.282   6.934
 5207POPC   C4A65610  39.622  36.383   7.292
 5207POPC   C1B65611  40.388  35.829   6.128
 5207POPC   C2B65612  40.280  35.718   6.560
 5207POPC   C3B65613  40.211  35.893   7.000
 5207POPC   C4B65614  39.994  35.997   7.377
 5208POPC   NC365615  13.031  18.057   5.485
 5208POPC   PO465616  13.315  18.684   5.515
 5208POPC   GL165617  13.165  18.427   5.884
 5208POPC   GL265618  13.008  18.085   5.993
 5208POPC   C1A65619  12.985  18.543   6.299
 5208POPC   D2A65620  13.061  18.524   6.765
 5208POPC   C3A65621  12.884  18.381   7.139
 5208POPC   C4A65622  13.115  18.035   7.355
 5208POPC   C1B65623  12.675  18.124   6.316
 5208POPC   C2B65624  12.476  18.206   6.701
 5208POPC   C3B65625  12.568  17.978   7.035
 5208POPC   C4B65626  12.706  17.699   7.290
 5209POPC   NC365627   8.257   0.016   5.207
 5209POPC   PO465628   8.059   0.656   5.253
 5209POPC   GL165629   8.016   0.730   5.694
 5209POPC   GL265630   8.137   0.376   5.744
 5209POPC   C1A65631   8.209   0.717   6.129
 5209POPC   D2A65632   8.363   0.436   6.453
 5209POPC   C3A65633   8.260   0.583   6.878
 5209POPC   C4A65634   8.058   0.647   7.264
 5209POPC   C1B65635   8.036   0.170   6.139
 5209POPC   C2B65636   7.897   0.290   6.555
 5209POPC   C3B65637   7.875   0.196   6.986
 5209POPC   C4B65638   7.591  44.950   7.213
 5210POPC   NC365639  13.853  23.947   5.609
 5210POPC   PO465640  14.209  23.516   5.263
 5210POPC   GL165641  14.345  23.556   5.752
 5210POPC   GL265642  14.262  23.892   5.901
 5210POPC   C1A65643  14.605  23.643   6.172
 5210POPC   D2A65644  14.574  23.573   6.648
 5210POPC   C3A65645  14.349  23.772   6.988
 5210POPC   C4A65646  14.540  23.678   7.392
 5210POPC   C1B65647  14.000  24.139   6.225
 5210POPC   C2B65648  13.959  24.071   6.678
 5210POPC   C3B65649  13.973  24.119   7.125
 5210POPC   C4B65650  14.099  23.913   7.477
 5211POPC   NC365651   8.555  15.276   5.395
 5211POPC   PO465652   9.181  14.978   5.333
 5211POPC   GL165653   9.001  15.251   5.676
 5211POPC   GL265654   8.699  15.089   5.853
 5211POPC   C1A65655   9.018  15.493   6.079
 5211POPC   D2A65656   9.182  15.347   6.473
 5211POPC   C3A65657   9.018  15.390   6.860
 5211POPC   C4A65658   9.357  15.369   7.158
 5211POPC   C1B65659   8.732  15.107   6.314
 5211POPC   C2B65660   8.971  14.872   6.634
 5211POPC   C3B65661   9.122  14.923   7.060
 5211POPC   C4B65662   9.250  14.879   7.472
 5212POPC   NC365663  26.671  12.492   5.453
 5212POPC   PO465664  26.740  11.823   5.312
 5212POPC   GL165665  26.805  11.900   5.772
 5212POPC   GL265666  26.424  11.884   5.804
 5212POPC   C1A65667  27.052  12.097   6.163
 5212POPC   D2A65668  27.175  12.284   6.592
 5212POPC   C3A65669  26.919  12.320   7.006
 5212POPC   C4A65670  26.874  12.592   7.413
 5212POPC   C1B65671  26.556  12.061   6.198
 5212POPC   C2B65672  26.819  11.890   6.568
 5212POPC   C3B65673  26.831  11.788   7.014
 5212POPC   C4B65674  26.645  11.897   7.427
 5213POPC   NC365675  32.767  31.772   5.535
 5213POPC   PO465676  32.955  32.462   5.416
 5213POPC   GL165677  33.131  32.430   5.768
 5213POPC   GL265678  32.943  32.689   5.905
 5213POPC   C1A65679  33.315  32.288   6.136
 5213POPC   D2A65680  33.058  32.084   6.418
 5213POPC   C3A65681  32.998  32.316   6.771
 5213POPC   C4A65682  33.211  32.237   7.140
 5213POPC   C1B65683  32.765  32.428   6.195
 5213POPC   C2B65684  32.514  32.320   6.527
 5213POPC   C3B65685  32.547  32.553   6.855
 5213POPC   C4B65686  32.800  32.582   7.218
 5214POPC   NC365687   2.571  13.642   5.369
 5214POPC   PO465688   2.814  13.082   5.488
 5214POPC   GL165689   2.786  13.426   5.818
 5214POPC   GL265690   2.905  13.765   5.747
 5214POPC   C1A65691   2.526  13.479   6.227
 5214POPC   D2A65692   2.531  13.795   6.579
 5214POPC   C3A65693   2.573  13.609   6.986
 5214POPC   C4A65694   2.962  13.506   7.142
 5214POPC   C1B65695   2.941  13.777   6.204
 5214POPC   C2B65696   2.936  14.134   6.499
 5214POPC   C3B65697   2.925  13.992   6.911
 5214POPC   C4B65698   2.735  14.044   7.299
 5215POPC   NC365699   4.511  16.553   5.371
 5215POPC   PO465700   4.239  17.176   5.610
 5215POPC   GL165701   4.418  16.812   5.800
 5215POPC   GL265702   4.137  16.558   5.833
 5215POPC   C1A65703   4.544  16.654   6.207
 5215POPC   D2A65704   4.399  16.887   6.593
 5215POPC   C3A65705   4.474  16.727   7.012
 5215POPC   C4A65706   4.528  16.814   7.461
 5215POPC   C1B65707   4.067  16.848   6.183
 5215POPC   C2B65708   3.868  16.893   6.562
 5215POPC   C3B65709   3.976  16.727   6.906
 5215POPC   C4B65710   4.058  16.821   7.303
 5216POPC   NC365711  20.178  27.054   5.340
 5216POPC   PO465712  20.690  26.756   5.525
 5216POPC   GL165713  20.703  26.737   5.898
 5216POPC   GL265714  20.748  27.119   5.937
 5216POPC   C1A65715  20.674  26.739   6.312
 5216POPC   D2A65716  20.824  27.071   6.541
 5216POPC   C3A65717  20.678  26.944   6.922
 5216POPC   C4A65718  20.803  26.650   7.203
 5216POPC   C1B65719  20.326  27.055   6.092
 5216POPC   C2B65720  20.239  26.936   6.513
 5216POPC   C3B65721  20.127  27.046   6.932
 5216POPC   C4B65722  20.306  26.846   7.271
 5217POPC   NC365723  41.703  24.820   5.501
 5217POPC   PO465724  41.221  24.330   5.435
 5217POPC   GL165725  41.498  24.412   5.759
 5217POPC   GL265726  41.327  24.679   5.832
 5217POPC   C1A65727  41.648  24.325   6.170
 5217POPC   D2A65728  41.747  24.531   6.584
 5217POPC   C3A65729  41.535  24.432   6.934
 5217POPC   C4A65730  41.630  24.481   7.325
 5217POPC   C1B65731  41.552  24.807   6.219
 5217POPC   C2B65732  41.400  24.923   6.672
 5217POPC   C3B65733  41.407  24.898   7.145
 5217POPC   C4B65734  41.742  24.925   7.510
 5218POPC   NC365735  21.389  21.948   5.339
 5218POPC   PO465736  21.190  22.614   5.389
 5218POPC   GL165737  21.337  22.339   5.716
 5218POPC   GL265738  21.086  22.072   5.776
 5218POPC   C1A65739  21.557  22.174   6.074
 5218POPC   D2A65740  21.585  22.310   6.523
 5218POPC   C3A65741  21.550  22.189   6.952
 5218POPC   C4A65742  21.565  22.414   7.336
 5218POPC   C1B65743  21.076  22.264   6.199
 5218POPC   C2B65744  21.107  22.073   6.613
 5218POPC   C3B65745  21.047  22.245   7.019
 5218POPC   C4B65746  21.178  22.131   7.403
 5219POPC   NC365747  37.511   0.414   5.611
 5219POPC   PO465748  38.027   0.799   5.360
 5219POPC   GL165749  37.969   0.656   5.789
 5219POPC   GL265750  37.731   0.807   5.948
 5219POPC   C1A65751  37.943   0.524   6.296
 5219POPC   D2A65752  37.802   0.600   6.711
 5219POPC   C3A65753  37.910   0.253   6.956
 5219POPC   C4A65754  37.791   0.239   7.357
 5219POPC   C1B65755  37.445   0.613   6.272
 5219POPC   C2B65756  37.460   0.239   6.554
 5219POPC   C3B65757  37.394   0.299   6.968
 5219POPC   C4B65758  37.273   0.207   7.363
 5220POPC   NC365759  31.248  31.298   5.675
 5220POPC   PO465760  31.528  31.780   5.360
 5220POPC   GL165761  31.603  31.658   5.793
 5220POPC   GL265762  31.278  31.672   6.037
 5220POPC   C1A65763  31.703  31.480   6.212
 5220POPC   D2A65764  31.471  31.638   6.569
 5220POPC   C3A65765  31.198  31.378   6.836
 5220POPC   C4A65766  31.323  31.103   7.199
 5220POPC   C1B65767  31.583  31.987   6.174
 5220POPC   C2B65768  31.769  32.109   6.550
 5220POPC   C3B65769  31.797  31.865   6.906
 5220POPC   C4B65770  31.633  31.492   7.090
 5221POPC   NC365771  37.900   2.820   5.396
 5221POPC   PO465772  37.417   2.285   5.369
 5221POPC   GL165773  37.659   2.504   5.749
 5221POPC   GL265774  37.700   2.899   5.871
 5221POPC   C1A65775  37.838   2.537   6.179
 5221POPC   D2A65776  37.640   2.762   6.484
 5221POPC   C3A65777  37.671   2.737   6.885
 5221POPC   C4A65778  37.590   2.993   7.266
 5221POPC   C1B65779  37.956   3.072   6.235
 5221POPC   C2B65780  37.947   3.164   6.689
 5221POPC   C3B65781  38.055   2.998   7.103
 5221POPC   C4B65782  38.022   2.532   7.193
 5222POPC   NC365783  38.020  16.677   5.569
 5222POPC   PO465784  38.594  16.462   5.232
 5222POPC   GL165785  38.570  16.606   5.670
 5222POPC   GL265786  38.502  16.978   5.663
 5222POPC   C1A65787  38.453  16.511   6.108
 5222POPC   D2A65788  38.379  16.706   6.507
 5222POPC   C3A65789  38.473  16.499   6.886
 5222POPC   C4A65790  38.288  16.569   7.278
 5222POPC   C1B65791  38.704  16.983   6.085
 5222POPC   C2B65792  38.795  17.003   6.515
 5222POPC   C3B65793  38.615  16.987   6.909
 5222POPC   C4B65794  38.601  16.981   7.321
 5223POPC   NC365795  34.465  42.079   5.501
 5223POPC   PO465796  34.635  41.437   5.278
 5223POPC   GL165797  34.672  41.390   5.714
 5223POPC   GL265798  34.398  41.614   5.817
 5223POPC   C1A65799  34.689  41.254   6.142
 5223POPC   D2A65800  34.640  41.475   6.557
 5223POPC   C3A65801  34.770  41.317   6.975
 5223POPC   C4A65802  34.949  41.539   7.359
 5223POPC   C1B65803  34.223  41.418   6.194
 5223POPC   C2B65804  34.130  41.497   6.584
 5223POPC   C3B65805  34.265  41.413   6.978
 5223POPC   C4B65806  34.445  41.543   7.367
 5224POPC   NC365807  18.633   6.788   5.512
 5224POPC   PO465808  18.250   6.303   5.367
 5224POPC   GL165809  18.246   6.525   5.764
 5224POPC   GL265810  18.049   6.849   5.718
 5224POPC   C1A65811  18.340   6.463   6.215
 5224POPC   D2A65812  18.171   6.561   6.627
 5224POPC   C3A65813  18.445   6.614   6.999
 5224POPC   C4A65814  18.364   6.521   7.441
 5224POPC   C1B65815  17.971   6.823   6.153
 5224POPC   C2B65816  17.926   7.015   6.545
 5224POPC   C3B65817  18.047   6.969   6.952
 5224POPC   C4B65818  17.816   6.852   7.285
 5225POPC   NC365819  31.130   8.743   5.008
 5225POPC   PO465820  31.511   9.057   5.489
 5225POPC   GL165821  31.433   9.055   5.906
 5225POPC   GL265822  31.472   8.690   5.921
 5225POPC   C1A65823  31.530   9.268   6.323
 5225POPC   D2A65824  31.207   9.447   6.591
 5225POPC   C3A65825  31.147   9.312   6.991
 5225POPC   C4A65826  31.436   9.143   7.287
 5225POPC   C1B65827  31.315   8.794   6.335
 5225POPC   C2B65828  31.376   8.874   6.789
 5225POPC   C3B65829  31.467   8.636   7.170
 5225POPC   C4B65830  31.667   8.730   7.594
 5226POPC   NC365831   3.909   7.337   5.434
 5226POPC   PO465832   3.264   7.642   5.386
 5226POPC   GL165833   3.517   7.457   5.754
 5226POPC   GL265834   3.805   7.678   5.856
 5226POPC   C1A65835   3.528   7.210   6.168
 5226POPC   D2A65836   3.671   7.183   6.639
 5226POPC   C3A65837   3.443   7.481   6.961
 5226POPC   C4A65838   3.069   7.620   7.258
 5226POPC   C1B65839   3.832   7.599   6.320
 5226POPC   C2B65840   3.878   7.695   6.762
 5226POPC   C3B65841   3.863   7.723   7.211
 5226POPC   C4B65842   3.794   7.544   7.648
 5227POPC   NC365843  35.556   1.530   5.398
 5227POPC   PO465844  35.486   0.950   5.184
 5227POPC   GL165845  35.416   1.024   5.627
 5227POPC   GL265846  35.689   1.137   5.802
 5227POPC   C1A65847  35.281   1.002   6.092
 5227POPC   D2A65848  35.189   1.346   6.438
 5227POPC   C3A65849  35.265   1.285   6.893
 5227POPC   C4A65850  35.188   1.103   7.309
 5227POPC   C1B65851  35.639   1.349   6.191
 5227POPC   C2B65852  35.759   1.413   6.616
 5227POPC   C3B65853  35.751   1.233   7.032
 5227POPC   C4B65854  35.702   1.027   7.446
 5228POPC   NC365855  37.242  29.093   5.158
 5228POPC   PO465856  36.839  28.885   5.609
 5228POPC   GL165857  36.723  29.062   5.947
 5228POPC   GL265858  36.573  29.382   5.882
 5228POPC   C1A65859  36.552  29.018   6.361
 5228POPC   D2A65860  36.567  28.747   6.712
 5228POPC   C3A65861  36.898  28.884   6.999
 5228POPC   C4A65862  37.301  28.987   7.189
 5228POPC   C1B65863  36.919  29.412   6.227
 5228POPC   C2B65864  36.978  29.288   6.641
 5228POPC   C3B65865  36.974  29.420   7.041
 5228POPC   C4B65866  36.667  29.495   7.302
 5229POPC   NC365867   7.947  40.814   5.502
 5229POPC   PO465868   8.619  40.985   5.482
 5229POPC   GL165869   8.349  40.800   5.846
 5229POPC   GL265870   8.057  40.539   5.899
 5229POPC   C1A65871   8.109  41.007   6.210
 5229POPC   D2A65872   7.862  40.956   6.609
 5229POPC   C3A65873   8.114  40.873   6.996
 5229POPC   C4A65874   8.574  40.967   7.060
 5229POPC   C1B65875   8.019  40.486   6.326
 5229POPC   C2B65876   7.988  40.435   6.742
 5229POPC   C3B65877   7.894  40.438   7.158
 5229POPC   C4B65878   7.869  40.689   7.495
 5230POPC   NC365879   7.445  17.347   5.548
 5230POPC   PO465880   7.649  17.995   5.601
 5230POPC   GL165881   7.518  17.646   5.955
 5230POPC   GL265882   7.247  17.334   5.998
 5230POPC   C1A65883   7.655  17.294   6.268
 5230POPC   D2A65884   7.855  17.352   6.681
 5230POPC   C3A65885   7.602  17.621   6.951
 5230POPC   C4A65886   7.443  17.463   7.309
 5230POPC   C1B65887   7.182  17.591   6.340
 5230POPC   C2B65888   7.303  17.340   6.673
 5230POPC   C3B65889   7.116  17.163   7.038
 5230POPC   C4B65890   6.951  17.560   7.216
 5231POPC   NC365891  15.419  32.241   5.351
 5231POPC   PO465892  15.004  31.843   5.578
 5231POPC   GL165893  15.121  32.189   5.853
 5231POPC   GL265894  15.363  32.415   5.825
 5231POPC   C1A65895  15.050  32.232   6.281
 5231POPC   D2A65896  15.019  31.878   6.562
 5231POPC   C3A65897  15.153  32.041   6.945
 5231POPC   C4A65898  14.956  32.132   7.338
 5231POPC   C1B65899  15.565  32.441   6.230
 5231POPC   C2B65900  15.407  32.531   6.650
 5231POPC   C3B65901  15.453  32.489   7.095
 5231POPC   C4B65902  15.283  32.465   7.519
 5232POPC   NC365903  24.248  40.253   5.472
 5232POPC   PO465904  24.702  39.809   5.326
 5232POPC   GL165905  24.606  39.889   5.819
 5232POPC   GL265906  24.610  40.249   5.865
 5232POPC   C1A65907  24.786  40.029   6.276
 5232POPC   D2A65908  24.726  40.310   6.652
 5232POPC   C3A65909  24.660  40.035   7.019
 5232POPC   C4A65910  24.834  39.866   7.417
 5232POPC   C1B65911  24.346  40.297   6.235
 5232POPC   C2B65912  24.280  40.068   6.637
 5232POPC   C3B65913  24.200  40.298   7.009
 5232POPC   C4B65914  24.018  40.246   7.399
 5233POPC   NC365915   8.825   1.938   5.427
 5233POPC   PO465916   8.230   2.021   5.261
 5233POPC   GL165917   8.250   2.093   5.773
 5233POPC   GL265918   8.585   2.230   5.807
 5233POPC   C1A65919   8.170   1.875   6.215
 5233POPC   D2A65920   8.017   1.853   6.666
 5233POPC   C3A65921   8.151   1.677   7.061
 5233POPC   C4A65922   8.047   1.915   7.424
 5233POPC   C1B65923   8.382   2.435   6.152
 5233POPC   C2B65924   8.228   2.284   6.544
 5233POPC   C3B65925   8.360   2.154   6.957
 5233POPC   C4B65926   8.354   2.376   7.327
 5234POPC   NC365927  24.542  19.937   5.340
 5234POPC   PO465928  24.772  19.293   5.445
 5234POPC   GL165929  24.468  19.404   5.781
 5234POPC   GL265930  24.357  19.780   5.784
 5234POPC   C1A65931  24.390  19.520   6.234
 5234POPC   D2A65932  24.282  19.624   6.654
 5234POPC   C3A65933  24.446  19.452   7.037
 5234POPC   C4A65934  24.602  19.685   7.387
 5234POPC   C1B65935  24.316  20.126   6.111
 5234POPC   C2B65936  24.170  20.158   6.549
 5234POPC   C3B65937  24.321  20.022   6.958
 5234POPC   C4B65938  24.143  19.850   7.313
 5235POPC   NC365939  37.990   5.622   5.449
 5235POPC   PO465940  38.661   5.719   5.365
 5235POPC   GL165941  38.465   5.758   5.784
 5235POPC   GL265942  38.783   5.892   5.862
 5235POPC   C1A65943  38.248   5.786   6.217
 5235POPC   D2A65944  38.090   5.774   6.670
 5235POPC   C3A65945  38.357   5.846   7.055
 5235POPC   C4A65946  38.308   5.802   7.520
 5235POPC   C1B65947  38.740   5.714   6.252
 5235POPC   C2B65948  38.589   5.628   6.637
 5235POPC   C3B65949  38.854   5.660   6.998
 5235POPC   C4B65950  38.793   5.915   7.366
 5236POPC   NC365951  30.707   4.675   5.449
 5236POPC   PO465952  30.430   4.073   5.415
 5236POPC   GL165953  30.544   4.207   5.804
 5236POPC   GL265954  30.885   4.241   5.733
 5236POPC   C1A65955  30.567   4.419   6.198
 5236POPC   D2A65956  30.701   4.658   6.580
 5236POPC   C3A65957  30.512   4.449   6.966
 5236POPC   C4A65958  30.700   4.499   7.407
 5236POPC   C1B65959  31.050   4.194   6.142
 5236POPC   C2B65960  30.868   4.186   6.553
 5236POPC   C3B65961  31.008   4.353   6.936
 5236POPC   C4B65962  31.031   4.125   7.307
 5237POPC   NC365963  11.005  19.627   5.167
 5237POPC   PO465964  11.074  20.294   5.340
 5237POPC   GL165965  11.100  20.075   5.760
 5237POPC   GL265966  11.289  20.294   5.905
 5237POPC   C1A65967  11.281  19.757   6.100
 5237POPC   D2A65968  11.452  19.621   6.544
 5237POPC   C3A65969  11.296  19.752   6.991
 5237POPC   C4A65970  11.152  19.658   7.394
 5237POPC   C1B65971  11.493  20.193   6.277
 5237POPC   C2B65972  11.425  20.145   6.699
 5237POPC   C3B65973  11.686  20.129   7.076
 5237POPC   C4B65974  11.649  20.207   7.546
 5238POPC   NC365975   8.238  37.288   5.387
 5238POPC   PO465976   8.263  36.677   5.478
 5238POPC   GL165977   8.173  36.780   5.871
 5238POPC   GL265978   8.254  37.119   5.872
 5238POPC   C1A65979   8.070  36.894   6.297
 5238POPC   D2A65980   7.997  37.180   6.624
 5238POPC   C3A65981   8.163  36.891   6.899
 5238POPC   C4A65982   8.093  36.704   7.255
 5238POPC   C1B65983   8.520  37.156   6.228
 5238POPC   C2B65984   8.618  36.918   6.583
 5238POPC   C3B65985   8.680  37.000   6.990
 5238POPC   C4B65986   8.459  37.022   7.347
 5239POPC   NC365987   1.522  10.661   5.338
 5239POPC   PO465988   2.199  10.688   5.510
 5239POPC   GL165989   1.948  10.586   5.854
 5239POPC   GL265990   1.591  10.473   5.830
 5239POPC   C1A65991   1.967  10.389   6.249
 5239POPC   D2A65992   1.981  10.564   6.648
 5239POPC   C3A65993   2.261  10.467   6.963
 5239POPC   C4A65994   2.188  10.241   7.343
 5239POPC   C1B65995   1.603  10.762   6.196
 5239POPC   C2B65996   1.662  10.962   6.609
 5239POPC   C3B65997   1.592  10.688   6.977
 5239POPC   C4B65998   1.823  10.609   7.356
 5240POPC   NC365999   5.353   5.052   5.531
 5240POPC   PO466000   4.917   5.260   5.148
 5240POPC   GL166001   4.929   5.256   5.696
 5240POPC   GL266002   4.767   4.970   5.909
 5240POPC   C1A66003   5.105   5.275   6.163
 5240POPC   D2A66004   4.875   5.157   6.573
 5240POPC   C3A66005   5.030   5.207   7.023
 5240POPC   C4A66006   4.972   5.411   7.436
 5240POPC   C1B66007   5.068   4.769   6.235
 5240POPC   C2B66008   5.170   4.736   6.695
 5240POPC   C3B66009   4.942   4.698   7.085
 5240POPC   C4B66010   5.037   4.902   7.472
 5241POPC   NC366011  42.907  22.225   5.431
 5241POPC   PO466012  43.527  22.457   5.263
 5241POPC   GL166013  43.430  22.407   5.745
 5241POPC   GL266014  43.080  22.332   5.884
 5241POPC   C1A66015  43.453  22.248   6.203
 5241POPC   D2A66016  43.149  22.151   6.533
 5241POPC   C3A66017  43.335  22.100   6.936
 5241POPC   C4A66018  43.283  21.988   7.382
 5241POPC   C1B66019  42.843  22.554   6.205
 5241POPC   C2B66020  42.846  22.557   6.660
 5241POPC   C3B66021  42.842  22.221   6.971
 5241POPC   C4B66022  42.751  21.894   7.248
 5242POPC   NC366023  41.181  15.071   5.353
 5242POPC   PO466024  41.665  15.537   5.458
 5242POPC   GL166025  41.637  15.301   5.796
 5242POPC   GL266026  41.344  15.226   5.803
 5242POPC   C1A66027  41.489  15.370   6.260
 5242POPC   D2A66028  41.688  15.244   6.608
 5242POPC   C3A66029  41.695  15.473   6.959
 5242POPC   C4A66030  41.621  15.201   7.311
 5242POPC   C1B66031  41.238  14.961   6.146
 5242POPC   C2B66032  41.154  15.047   6.552
 5242POPC   C3B66033  41.339  14.990   6.924
 5242POPC   C4B66034  41.161  14.985   7.334
 5243POPC   NC366035  41.664  40.333   5.396
 5243POPC   PO466036  41.637  39.680   5.530
 5243POPC   GL166037  41.345  39.885   5.763
 5243POPC   GL266038  41.559  40.119   5.857
 5243POPC   C1A66039  41.230  39.829   6.174
 5243POPC   D2A66040  41.486  39.887   6.528
 5243POPC   C3A66041  41.326  39.812   6.927
 5243POPC   C4A66042  41.391  39.892   7.377
 5243POPC   C1B66043  41.474  40.327   6.238
 5243POPC   C2B66044  41.616  40.390   6.655
 5243POPC   C3B66045  41.534  40.321   7.092
 5243POPC   C4B66046  41.663  40.270   7.517
 5244POPC   NC366047  35.063  26.513   5.447
 5244POPC   PO466048  35.453  27.080   5.547
 5244POPC   GL166049  35.202  26.865   5.815
 5244POPC   GL266050  35.414  26.598   5.937
 5244POPC   C1A66051  35.210  27.001   6.230
 5244POPC   D2A66052  35.561  27.175   6.435
 5244POPC   C3A66053  35.483  27.214   6.841
 5244POPC   C4A66054  35.425  26.948   7.180
 5244POPC   C1B66055  35.357  26.561   6.413
 5244POPC   C2B66056  35.200  26.770   6.758
 5244POPC   C3B66057  35.040  26.602   7.154
 5244POPC   C4B66058  35.152  26.758   7.561
 5245POPC   NC366059   0.431   6.698   5.313
 5245POPC   PO466060   0.343   6.110   5.555
 5245POPC   GL166061   0.364   6.471   5.793
 5245POPC   GL266062   0.090   6.707   5.704
 5245POPC   C1A66063   0.419   6.444   6.240
 5245POPC   D2A66064   0.201   6.338   6.623
 5245POPC   C3A66065   0.283   6.534   7.022
 5245POPC   C4A66066   0.531   6.843   7.209
 5245POPC   C1B66067   0.139   6.874   6.115
 5245POPC   C2B66068   0.334   6.872   6.530
 5245POPC   C3B66069   0.187   7.045   6.890
 5245POPC   C4B66070   0.017   6.931   7.255
 5246POPC   NC366071  38.963   0.888   5.391
 5246POPC   PO466072  39.452   1.410   5.354
 5246POPC   GL166073  39.289   1.189   5.688
 5246POPC   GL266074  38.953   1.273   5.753
 5246POPC   C1A66075  39.309   1.065   6.126
 5246POPC   D2A66076  39.511   1.135   6.541
 5246POPC   C3A66077  39.319   1.061   6.958
 5246POPC   C4A66078  39.374   1.362   7.322
 5246POPC   C1B66079  38.947   1.427   6.213
 5246POPC   C2B66080  38.868   1.390   6.695
 5246POPC   C3B66081  38.913   1.280   7.151
 5246POPC   C4B66082  38.834   0.878   7.346
 5247POPC   NC366083  23.779  41.499   5.305
 5247POPC   PO466084  23.311  41.914   5.308
 5247POPC   GL166085  23.519  41.779   5.702
 5247POPC   GL266086  23.815  41.883   5.836
 5247POPC   C1A66087  23.422  41.785   6.172
 5247POPC   D2A66088  23.481  41.945   6.611
 5247POPC   C3A66089  23.374  41.619   6.935
 5247POPC   C4A66090  23.556  41.534   7.336
 5247POPC   C1B66091  23.968  41.893   6.240
 5247POPC   C2B66092  24.095  41.912   6.661
 5247POPC   C3B66093  23.897  41.742   7.001
 5247POPC   C4B66094  24.061  41.460   7.281
 5248POPC   NC366095  11.548  15.787   5.425
 5248POPC   PO466096  11.219  16.355   5.281
 5248POPC   GL166097  11.456  16.255   5.669
 5248POPC   GL266098  11.245  15.991   5.799
 5248POPC   C1A66099  11.622  16.156   6.094
 5248POPC   D2A66100  11.250  16.118   6.368
 5248POPC   C3A66101  11.218  16.133   6.816
 5248POPC   C4A66102  11.369  16.314   7.195
 5248POPC   C1B66103  11.378  15.685   6.123
 5248POPC   C2B66104  11.187  15.620   6.552
 5248POPC   C3B66105  11.155  15.494   6.986
 5248POPC   C4B66106  11.190  15.820   7.306
 5249POPC   NC366107  14.787  41.398   5.635
 5249POPC   PO466108  14.543  40.910   5.262
 5249POPC   GL166109  14.449  40.953   5.711
 5249POPC   GL266110  14.512  40.656   5.863
 5249POPC   C1A66111  14.340  41.045   6.177
 5249POPC   D2A66112  14.397  41.129   6.658
 5249POPC   C3A66113  14.173  40.908   7.040
 5249POPC   C4A66114  14.041  40.575   7.372
 5249POPC   C1B66115  14.472  40.553   6.319
 5249POPC   C2B66116  14.551  40.634   6.767
 5249POPC   C3B66117  14.537  40.601   7.232
 5249POPC   C4B66118  14.726  40.672   7.699
 5250POPC   NC366119  21.966  13.475   5.415
 5250POPC   PO466120  22.451  13.900   5.584
 5250POPC   GL166121  22.215  13.916   5.923
 5250POPC   GL266122  22.195  13.576   5.879
 5250POPC   C1A66123  22.059  13.733   6.343
 5250POPC   D2A66124  22.337  13.689   6.678
 5250POPC   C3A66125  22.296  13.631   7.108
 5250POPC   C4A66126  22.293  13.848   7.444
 5250POPC   C1B66127  21.976  13.283   6.091
 5250POPC   C2B66128  21.770  13.280   6.474
 5250POPC   C3B66129  21.872  13.483   6.841
 5250POPC   C4B66130  21.987  13.227   7.169
 5251POPC   NC366131  25.028  39.638   5.058
 5251POPC   PO466132  25.488  40.086   5.332
 5251POPC   GL166133  25.193  40.058   5.691
 5251POPC   GL266134  25.054  39.709   5.677
 5251POPC   C1A66135  25.282  40.176   6.126
 5251POPC   D2A66136  25.238  40.428   6.495
 5251POPC   C3A66137  25.167  40.135   6.837
 5251POPC   C4A66138  25.291  40.051   7.234
 5251POPC   C1B66139  25.149  39.662   6.122
 5251POPC   C2B66140  25.068  39.697   6.560
 5251POPC   C3B66141  25.012  39.638   6.988
 5251POPC   C4B66142  25.217  39.529   7.355
 5252POPC   NC366143   0.762  10.803   5.401
 5252POPC   PO466144   1.280  10.256   5.427
 5252POPC   GL166145   1.134  10.216   5.809
 5252POPC   GL266146   0.908  10.466   5.772
 5252POPC   C1A66147   1.191  10.434   6.205
 5252POPC   D2A66148   1.248  10.653   6.589
 5252POPC   C3A66149   1.161  10.426   6.984
 5252POPC   C4A66150   1.362  10.380   7.408
 5252POPC   C1B66151   0.840  10.821   6.074
 5252POPC   C2B66152   0.962  11.054   6.458
 5252POPC   C3B66153   0.945  10.905   6.914
 5252POPC   C4B66154   1.078  10.797   7.330
 5253POPC   NC366155  12.875   1.460   5.288
 5253POPC   PO466156  12.847   0.775   5.406
 5253POPC   GL166157  12.817   1.061   5.749
 5253POPC   GL266158  12.982   1.371   5.774
 5253POPC   C1A66159  12.650   1.219   6.154
 5253POPC   D2A66160  12.431   1.302   6.530
 5253POPC   C3A66161  12.680   1.389   6.868
 5253POPC   C4A66162  13.016   1.140   7.044
 5253POPC   C1B66163  13.190   1.280   6.148
 5253POPC   C2B66164  13.158   1.317   6.573
 5253POPC   C3B66165  13.428   1.385   6.909
 5253POPC   C4B66166  13.323   1.566   7.330
 5254POPC   NC366167   0.906  13.063   5.467
 5254POPC   PO466168   1.453  12.766   5.313
 5254POPC   GL166169   1.358  13.097   5.709
 5254POPC   GL266170   1.160  12.853   5.871
 5254POPC   C1A66171   1.207  13.231   6.185
 5254POPC   D2A66172   1.207  12.876   6.498
 5254POPC   C3A66173   1.090  12.947   6.935
 5254POPC   C4A66174   1.196  12.998   7.390
 5254POPC   C1B66175   0.902  12.603   6.127
 5254POPC   C2B66176   0.939  12.427   6.515
 5254POPC   C3B66177   0.887  12.368   6.930
 5254POPC   C4B66178   0.969  12.576   7.253
 5255POPC   NC366179  34.538   6.926   5.428
 5255POPC   PO466180  34.909   6.412   5.567
 5255POPC   GL166181  34.705   6.691   5.882
 5255POPC   GL266182  34.350   6.670   5.833
 5255POPC   C1A66183  34.533   6.757   6.313
 5255POPC   D2A66184  34.281   6.861   6.667
 5255POPC   C3A66185  34.547   6.873   7.008
 5255POPC   C4A66186  34.739   6.540   7.179
 5255POPC   C1B66187  34.283   6.339   6.146
 5255POPC   C2B66188  34.113   6.384   6.546
 5255POPC   C3B66189  34.317   6.352   6.917
 5255POPC   C4B66190  34.235   6.529   7.275
 5256POPC   NC366191   4.489  17.690   5.138
 5256POPC   PO466192   5.139  17.587   5.366
 5256POPC   GL166193   5.231  17.463   5.762
 5256POPC   GL266194   5.046  17.714   5.937
 5256POPC   C1A66195   5.299  17.292   6.176
 5256POPC   D2A66196   5.116  17.317   6.587
 5256POPC   C3A66197   5.275  17.211   6.974
 5256POPC   C4A66198   5.233  17.544   7.224
 5256POPC   C1B66199   4.814  17.559   6.278
 5256POPC   C2B66200   4.587  17.560   6.683
 5256POPC   C3B66201   4.687  17.585   7.137
 5256POPC   C4B66202   4.850  17.608   7.597
 5257POPC   NC366203  19.843  42.817   5.278
 5257POPC   PO466204  20.063  43.387   5.477
 5257POPC   GL166205  20.046  43.083   5.851
 5257POPC   GL266206  19.984  42.722   5.870
 5257POPC   C1A66207  19.923  43.108   6.289
 5257POPC   D2A66208  19.643  43.026   6.651
 5257POPC   C3A66209  19.867  43.137   7.028
 5257POPC   C4A66210  20.008  43.480   7.305
 5257POPC   C1B66211  19.953  42.604   6.336
 5257POPC   C2B66212  19.943  42.632   6.807
 5257POPC   C3B66213  19.994  42.603   7.275
 5257POPC   C4B66214  20.164  42.679   7.709
 5258POPC   NC366215  13.778  11.034   5.363
 5258POPC   PO466216  13.366  10.425   5.378
 5258POPC   GL166217  13.668  10.442   5.755
 5258POPC   GL266218  13.866  10.725   5.766
 5258POPC   C1A66219  13.678  10.183   6.139
 5258POPC   D2A66220  13.739  10.216   6.587
 5258POPC   C3A66221  13.538  10.597   6.737
 5258POPC   C4A66222  13.413  10.675   7.161
 5258POPC   C1B66223  13.906  10.629   6.212
 5258POPC   C2B66224  14.057  10.642   6.619
 5258POPC   C3B66225  13.944  10.601   7.054
 5258POPC   C4B66226  13.829  10.926   7.356
 5259POPC   NC366227   6.695  16.207   5.425
 5259POPC   PO466228   6.481  15.612   5.600
 5259POPC   GL166229   6.618  15.963   5.858
 5259POPC   GL266230   6.334  16.235   5.829
 5259POPC   C1A66231   6.893  16.067   6.209
 5259POPC   D2A66232   6.823  16.244   6.617
 5259POPC   C3A66233   6.716  15.959   6.938
 5259POPC   C4A66234   6.859  15.881   7.329
 5259POPC   C1B66235   6.371  16.133   6.264
 5259POPC   C2B66236   6.379  15.816   6.563
 5259POPC   C3B66237   6.212  15.875   6.949
 5259POPC   C4B66238   6.382  16.014   7.341
 5260POPC   NC366239  17.214  14.748   5.377
 5260POPC   PO466240  17.877  14.980   5.543
 5260POPC   GL166241  17.531  15.036   5.853
 5260POPC   GL266242  17.451  15.391   5.891
 5260POPC   C1A66243  17.601  15.001   6.311
 5260POPC   D2A66244  17.941  15.006   6.626
 5260POPC   C3A66245  17.822  15.066   7.056
 5260POPC   C4A66246  17.366  15.083   7.159
 5260POPC   C1B66247  17.313  15.411   6.342
 5260POPC   C2B66248  17.527  15.347   6.729
 5260POPC   C3B66249  17.562  15.537   7.124
 5260POPC   C4B66250  17.175  15.600   7.374
 5261POPC   NC366251  22.824  13.347   5.418
 5261POPC   PO466252  23.238  13.849   5.455
 5261POPC   GL166253  22.900  13.748   5.792
 5261POPC   GL266254  22.940  13.417   5.907
 5261POPC   C1A66255  22.625  13.701   6.189
 5261POPC   D2A66256  22.755  13.452   6.532
 5261POPC   C3A66257  22.791  13.577   6.949
 5261POPC   C4A66258  23.053  13.255   7.097
 5261POPC   C1B66259  23.151  13.596   6.234
 5261POPC   C2B66260  23.235  13.816   6.586
 5261POPC   C3B66261  23.313  13.695   6.967
 5261POPC   C4B66262  23.134  13.696   7.342
 5262POPC   NC366263  23.275  42.335   5.088
 5262POPC   PO466264  23.872  42.609   5.404
 5262POPC   GL166265  23.737  42.397   5.778
 5262POPC   GL266266  24.073  42.329   5.950
 5262POPC   C1A66267  23.609  42.273   6.181
 5262POPC   D2A66268  23.917  42.344   6.486
 5262POPC   C3A66269  23.764  42.287   6.889
 5262POPC   C4A66270  23.521  42.056   7.177
 5262POPC   C1B66271  24.266  42.639   6.198
 5262POPC   C2B66272  24.123  42.783   6.619
 5262POPC   C3B66273  24.191  42.586   7.009
 5262POPC   C4B66274  24.193  42.149   7.106
 5263POPC   NC366275  34.164  24.497   5.390
 5263POPC   PO466276  33.545  24.184   5.275
 5263POPC   GL166277  33.754  24.518   5.644
 5263POPC   GL266278  33.964  24.234   5.781
 5263POPC   C1A66279  33.787  24.614   6.131
 5263POPC   D2A66280  33.983  24.564   6.577
 5263POPC   C3A66281  33.809  24.727   6.993
 5263POPC   C4A66282  33.798  24.800   7.464
 5263POPC   C1B66283  34.153  24.263   6.201
 5263POPC   C2B66284  34.155  24.035   6.616
 5263POPC   C3B66285  33.951  24.223   6.966
 5263POPC   C4B66286  34.013  24.350   7.376
 5264POPC   NC366287   8.696   6.701   5.182
 5264POPC   PO466288   8.037   6.621   5.445
 5264POPC   GL166289   8.115   6.763   5.848
 5264POPC   GL266290   7.776   6.788   5.942
 5264POPC   C1A66291   8.334   6.866   6.221
 5264POPC   D2A66292   8.384   6.591   6.563
 5264POPC   C3A66293   8.154   6.647   6.926
 5264POPC   C4A66294   8.263   6.609   7.319
 5264POPC   C1B66295   7.996   6.444   6.216
 5264POPC   C2B66296   8.034   6.234   6.635
 5264POPC   C3B66297   7.961   6.199   7.098
 5264POPC   C4B66298   7.984   6.278   7.563
 5265POPC   NC366299  27.393  22.753   5.490
 5265POPC   PO466300  27.978  23.026   5.489
 5265POPC   GL166301  27.728  22.956   5.879
 5265POPC   GL266302  27.992  22.769   6.004
 5265POPC   C1A66303  27.694  23.009   6.375
 5265POPC   D2A66304  27.463  23.216   6.711
 5265POPC   C3A66305  27.418  23.022   7.122
 5265POPC   C4A66306  27.552  22.752   7.488
 5265POPC   C1B66307  28.096  23.226   6.175
 5265POPC   C2B66308  27.969  23.409   6.599
 5265POPC   C3B66309  28.033  23.226   7.036
 5265POPC   C4B66310  27.930  22.838   7.148
 5266POPC   NC366311   7.710  38.450   5.642
 5266POPC   PO466312   7.120  38.226   5.335
 5266POPC   GL166313   7.243  38.363   5.830
 5266POPC   GL266314   7.466  38.679   6.010
 5266POPC   C1A66315   7.332  38.300   6.291
 5266POPC   D2A66316   7.149  38.251   6.686
 5266POPC   C3A66317   7.451  38.138   6.986
 5266POPC   C4A66318   7.876  38.248   7.065
 5266POPC   C1B66319   7.200  38.893   6.281
 5266POPC   C2B66320   7.058  38.750   6.689
 5266POPC   C3B66321   7.228  38.615   7.111
 5266POPC   C4B66322   7.332  38.763   7.561
 5267POPC   NC366323  14.366   0.946   5.357
 5267POPC   PO466324  14.541   0.287   5.517
 5267POPC   GL166325  14.480   0.448   5.870
 5267POPC   GL266326  14.742   0.691   5.833
 5267POPC   C1A66327  14.263   0.384   6.261
 5267POPC   D2A66328  14.411   0.255   6.660
 5267POPC   C3A66329  14.152   0.284   7.010
 5267POPC   C4A66330  14.381   0.375   7.389
 5267POPC   C1B66331  14.528   0.867   6.157
 5267POPC   C2B66332  14.438   0.765   6.561
 5267POPC   C3B66333  14.468   0.695   6.990
 5267POPC   C4B66334  14.359   0.954   7.326
 5268POPC   NC366335  13.802  43.818   5.097
 5268POPC   PO466336  13.338  43.528   5.529
 5268POPC   GL166337  13.527  43.862   5.812
 5268POPC   GL266338  13.867  43.993   5.703
 5268POPC   C1A66339  13.537  44.012   6.258
 5268POPC   D2A66340  13.758  44.105   6.628
 5268POPC   C3A66341  13.438  44.123   6.941
 5268POPC   C4A66342  13.386  43.847   7.260
 5268POPC   C1B66343  13.969  43.803   6.117
 5268POPC   C2B66344  13.913  43.612   6.511
 5268POPC   C3B66345  13.774  43.696   6.932
 5268POPC   C4B66346  13.892  44.037   7.189
 5269POPC   NC366347  41.971  38.609   5.444
 5269POPC   PO466348  41.406  38.250   5.662
 5269POPC   GL166349  41.669  38.452   5.909
 5269POPC   GL266350  41.546  38.747   5.869
 5269POPC   C1A66351  41.502  38.507   6.344
 5269POPC   D2A66352  41.144  38.458   6.645
 5269POPC   C3A66353  41.209  38.188   7.042
 5269POPC   C4A66354  41.412  38.200   7.491
 5269POPC   C1B66355  41.764  38.937   6.221
 5269POPC   C2B66356  41.856  38.786   6.645
 5269POPC   C3B66357  41.661  38.707   7.038
 5269POPC   C4B66358  41.948  38.740   7.374
 5270POPC   NC366359  29.902  13.148   5.588
 5270POPC   PO466360  30.377  12.841   5.255
 5270POPC   GL166361  30.196  12.797   5.846
 5270POPC   GL266362  29.929  12.494   5.940
 5270POPC   C1A66363  30.017  12.854   6.292
 5270POPC   D2A66364  29.694  12.658   6.553
 5270POPC   C3A66365  29.539  12.888   6.948
 5270POPC   C4A66366  29.536  12.813   7.395
 5270POPC   C1B66367  30.258  12.404   6.215
 5270POPC   C2B66368  30.327  12.553   6.624
 5270POPC   C3B66369  30.044  12.785   6.893
 5270POPC   C4B66370  30.094  12.883   7.308
 5271POPC   NC366371  42.669   9.232   5.603
 5271POPC   PO466372  42.313   8.706   5.463
 5271POPC   GL166373  42.310   8.932   5.809
 5271POPC   GL266374  42.658   8.777   5.850
 5271POPC   C1A66375  42.194   9.231   6.158
 5271POPC   D2A66376  42.355   9.185   6.578
 5271POPC   C3A66377  42.391   9.053   6.975
 5271POPC   C4A66378  42.070   9.145   7.295
 5271POPC   C1B66379  42.514   8.818   6.261
 5271POPC   C2B66380  42.594   8.623   6.628
 5271POPC   C3B66381  42.417   8.519   6.992
 5271POPC   C4B66382  42.378   8.732   7.359
 5272POPC   NC366383  44.991  31.183   5.505
 5272POPC   PO466384  44.422  31.602   5.353
 5272POPC   GL166385  44.611  31.475   5.723
 5272POPC   GL266386  44.502  31.113   5.629
 5272POPC   C1A66387  44.728  31.572   6.188
 5272POPC   D2A66388  44.845  31.337   6.580
 5272POPC   C3A66389  44.812  31.594   6.971
 5272POPC   C4A66390  44.656  31.726   7.378
 5272POPC   C1B66391  44.498  31.138   6.075
 5272POPC   C2B66392  44.366  31.126   6.509
 5272POPC   C3B66393  44.460  31.224   6.921
 5272POPC   C4B66394  44.465  31.178   7.343
 5273POPC   NC366395  30.711  43.186   5.444
 5273POPC   PO466396  30.738  42.490   5.435
 5273POPC   GL166397  30.612  42.788   5.796
 5273POPC   GL266398  30.449  43.135   5.852
 5273POPC   C1A66399  30.603  42.909   6.260
 5273POPC   D2A66400  30.775  43.116   6.603
 5273POPC   C3A66401  30.606  42.976   6.955
 5273POPC   C4A66402  30.776  43.009   7.321
 5273POPC   C1B66403  30.541  43.413   6.248
 5273POPC   C2B66404  30.439  43.507   6.685
 5273POPC   C3B66405  30.577  43.473   7.126
 5273POPC   C4B66406  30.637  43.426   7.578
 5274POPC   NC366407  31.960  37.662   5.226
 5274POPC   PO466408  32.422  38.051   5.571
 5274POPC   GL166409  32.278  37.759   5.863
 5274POPC   GL266410  32.093  37.509   5.700
 5274POPC   C1A66411  32.447  37.404   6.103
 5274POPC   D2A66412  32.442  37.298   6.527
 5274POPC   C3A66413  32.650  37.516   6.857
 5274POPC   C4A66414  32.485  37.358   7.247
 5274POPC   C1B66415  31.933  37.436   6.097
 5274POPC   C2B66416  32.068  37.651   6.464
 5274POPC   C3B66417  32.135  37.569   6.891
 5274POPC   C4B66418  31.965  37.465   7.269
 5275POPC   NC366419   8.135  36.299   5.272
 5275POPC   PO466420   8.464  35.708   5.332
 5275POPC   GL166421   8.192  35.997   5.669
 5275POPC   GL266422   8.405  36.258   5.765
 5275POPC   C1A66423   8.005  36.205   6.085
 5275POPC   D2A66424   7.846  36.102   6.535
 5275POPC   C3A66425   7.999  36.317   6.889
 5275POPC   C4A66426   8.184  36.216   7.282
 5275POPC   C1B66427   8.536  36.046   6.165
 5275POPC   C2B66428   8.357  35.999   6.597
 5275POPC   C3B66429   8.530  35.960   7.007
 5275POPC   C4B66430   8.676  36.082   7.423
 5276POPC   NC366431   0.176  12.946   5.687
 5276POPC   PO466432  44.616  12.680   5.276
 5276POPC   GL166433  44.504  12.785   5.758
 5276POPC   GL266434  44.765  12.849   5.960
 5276POPC   C1A66435  44.323  12.676   6.174
 5276POPC   D2A66436  44.204  12.707   6.603
 5276POPC   C3A66437  44.538  12.546   6.868
 5276POPC   C4A66438  44.628  12.673   7.286
 5276POPC   C1B66439  44.572  13.144   6.183
 5276POPC   C2B66440  44.671  13.262   6.569
 5276POPC   C3B66441  44.567  13.077   6.890
 5276POPC   C4B66442  44.613  13.198   7.272
 5277POPC   NC366443  37.251  22.228   5.289
 5277POPC   PO466444  36.590  22.134   5.327
 5277POPC   GL166445  36.844  22.275   5.696
 5277POPC   GL266446  37.154  22.099   5.763
 5277POPC   C1A66447  36.795  22.269   6.165
 5277POPC   D2A66448  36.511  22.144   6.515
 5277POPC   C3A66449  36.685  22.037   6.917
 5277POPC   C4A66450  36.660  22.011   7.349
 5277POPC   C1B66451  37.333  22.164   6.145
 5277POPC   C2B66452  37.125  22.019   6.529
 5277POPC   C3B66453  37.185  21.829   6.910
 5277POPC   C4B66454  37.132  22.075   7.250
 5278POPC   NC366455  18.882  12.833   5.442
 5278POPC   PO466456  19.523  12.694   5.676
 5278POPC   GL166457  19.327  12.989   5.906
 5278POPC   GL266458  18.967  12.904   5.939
 5278POPC   C1A66459  19.259  12.949   6.368
 5278POPC   D2A66460  18.982  12.770   6.699
 5278POPC   C3A66461  19.235  12.634   7.035
 5278POPC   C4A66462  19.342  12.985   7.161
 5278POPC   C1B66463  18.732  12.682   6.250
 5278POPC   C2B66464  18.453  12.894   6.521
 5278POPC   C3B66465  18.583  13.045   6.895
 5278POPC   C4B66466  18.724  12.688   7.160
 5279POPC   NC366467  42.835  29.066   5.359
 5279POPC   PO466468  43.555  29.402   5.368
 5279POPC   GL166469  43.226  29.175   5.738
 5279POPC   GL266470  42.856  29.301   5.826
 5279POPC   C1A66471  43.082  29.016   6.166
 5279POPC   D2A66472  43.055  28.899   6.600
 5279POPC   C3A66473  42.725  28.986   6.889
 5279POPC   C4A66474  42.906  29.064   7.266
 5279POPC   C1B66475  42.736  29.371   6.271
 5279POPC   C2B66476  42.878  29.432   6.696
 5279POPC   C3B66477  42.653  29.474   7.093
 5279POPC   C4B66478  42.821  29.507   7.521
 5280POPC   NC366479  16.618   9.057   5.271
 5280POPC   PO466480  17.028   8.510   5.438
 5280POPC   GL166481  16.738   8.776   5.735
 5280POPC   GL266482  16.681   9.172   5.765
 5280POPC   C1A66483  16.844   8.907   6.183
 5280POPC   D2A66484  16.592   8.949   6.568
 5280POPC   C3A66485  16.811   8.992   6.953
 5280POPC   C4A66486  16.723   8.773   7.306
 5280POPC   C1B66487  16.442   9.229   6.164
 5280POPC   C2B66488  16.183   9.309   6.542
 5280POPC   C3B66489  16.310   9.171   6.948
 5280POPC   C4B66490  16.529   9.317   7.297
 5281POPC   NC366491  15.491  24.162   5.439
 5281POPC   PO466492  16.086  24.316   5.613
 5281POPC   GL166493  16.143  24.660   5.878
 5281POPC   GL266494  15.802  24.830   5.932
 5281POPC   C1A66495  16.085  24.593   6.317
 5281POPC   D2A66496  15.868  24.495   6.696
 5281POPC   C3A66497  16.063  24.441   7.078
 5281POPC   C4A66498  16.310  24.403   7.414
 5281POPC   C1B66499  15.578  24.661   6.300
 5281POPC   C2B66500  15.458  24.780   6.733
 5281POPC   C3B66501  15.615  24.769   7.159
 5281POPC   C4B66502  15.832  24.597   7.553
 5282POPC   NC366503  43.648  11.195   5.578
 5282POPC   PO466504  43.061  11.360   5.355
 5282POPC   GL166505  43.222  11.320   5.804
 5282POPC   GL266506  43.231  10.944   5.748
 5282POPC   C1A66507  43.142  11.409   6.260
 5282POPC   D2A66508  43.116  11.257   6.687
 5282POPC   C3A66509  43.115  11.636   6.943
 5282POPC   C4A66510  43.411  11.815   7.240
 5282POPC   C1B66511  43.094  10.923   6.142
 5282POPC   C2B66512  42.774  10.979   6.419
 5282POPC   C3B66513  42.656  11.040   6.839
 5282POPC   C4B66514  42.921  11.223   7.171
 5283POPC   NC366515  23.282  14.835   5.732
 5283POPC   PO466516  23.568  15.416   5.437
 5283POPC   GL166517  23.743  15.438   5.837
 5283POPC   GL266518  23.774  15.086   5.832
 5283POPC   C1A66519  23.797  15.611   6.247
 5283POPC   D2A66520  23.944  15.509   6.681
 5283POPC   C3A66521  23.601  15.375   6.952
 5283POPC   C4A66522  23.489  15.082   7.278
 5283POPC   C1B66523  23.986  15.122   6.228
 5283POPC   C2B66524  23.941  14.968   6.660
 5283POPC   C3B66525  24.002  15.080   7.098
 5283POPC   C4B66526  24.040  15.518   7.223
 5284POPC   NC366527  19.686  39.529   5.305
 5284POPC   PO466528  19.859  40.058   5.433
 5284POPC   GL166529  20.030  40.149   5.804
 5284POPC   GL266530  20.082  39.844   5.913
 5284POPC   C1A66531  20.105  40.283   6.204
 5284POPC   D2A66532  20.008  40.063   6.555
 5284POPC   C3A66533  20.100  40.293   6.891
 5284POPC   C4A66534  19.865  40.297   7.229
 5284POPC   C1B66535  20.012  39.626   6.286
 5284POPC   C2B66536  19.973  39.544   6.713
 5284POPC   C3B66537  19.830  39.849   7.002
 5284POPC   C4B66538  19.801  39.831   7.445
 5285POPC   NC366539  36.874  44.379   5.238
 5285POPC   PO466540  37.157  43.712   5.285
 5285POPC   GL166541  36.983  43.748   5.738
 5285POPC   GL266542  36.610  43.745   5.756
 5285POPC   C1A66543  37.025  43.841   6.210
 5285POPC   D2A66544  37.283  43.805   6.613
 5285POPC   C3A66545  37.084  43.899   7.009
 5285POPC   C4A66546  36.824  44.072   7.332
 5285POPC   C1B66547  36.549  43.625   6.191
 5285POPC   C2B66548  36.758  43.633   6.614
 5285POPC   C3B66549  36.595  43.695   7.053
 5285POPC   C4B66550  36.662  43.618   7.512
 5286POPC   NC366551  12.287   9.665   5.529
 5286POPC   PO466552  11.803   9.252   5.347
 5286POPC   GL166553  11.934   9.401   5.790
 5286POPC   GL266554  12.256   9.504   5.991
 5286POPC   C1A66555  11.815   9.584   6.192
 5286POPC   D2A66556  12.092   9.586   6.521
 5286POPC   C3A66557  11.973   9.775   6.907
 5286POPC   C4A66558  11.737   9.584   7.188
 5286POPC   C1B66559  12.223   9.906   6.139
 5286POPC   C2B66560  12.292  10.030   6.565
 5286POPC   C3B66561  12.479   9.857   6.902
 5286POPC   C4B66562  12.371   9.899   7.314
 5287POPC   NC366563   0.570   2.117   5.124
 5287POPC   PO466564   0.198   2.183   5.702
 5287POPC   GL166565   0.457   2.272   6.091
 5287POPC   GL266566   0.852   2.444   6.074
 5287POPC   C1A66567   0.592   1.891   6.286
 5287POPC   D2A66568   0.532   1.596   6.609
 5287POPC   C3A66569   0.233   1.777   6.885
 5287POPC   C4A66570   0.395   1.951   7.265
 5287POPC   C1B66571   0.662   2.569   6.436
 5287POPC   C2B66572   0.289   2.388   6.596
 5287POPC   C3B66573   0.555   2.183   6.844
 5287POPC   C4B66574   0.748   2.347   7.212
 5288POPC   NC366575  22.727  21.296   5.441
 5288POPC   PO466576  23.359  21.580   5.394
 5288POPC   GL166577  23.132  21.599   5.777
 5288POPC   GL266578  22.764  21.563   5.869
 5288POPC   C1A66579  23.172  21.466   6.195
 5288POPC   D2A66580  23.075  21.610   6.596
 5288POPC   C3A66581  23.227  21.449   7.040
 5288POPC   C4A66582  23.151  21.557   7.516
 5288POPC   C1B66583  22.723  21.211   6.096
 5288POPC   C2B66584  22.723  21.227   6.524
 5288POPC   C3B66585  22.730  21.408   6.933
 5288POPC   C4B66586  22.918  21.122   7.266
 5289POPC   NC366587  21.972  37.310   5.407
 5289POPC   PO466588  22.051  38.019   5.522
 5289POPC   GL166589  22.353  37.978   5.848
 5289POPC   GL266590  22.216  37.629   5.878
 5289POPC   C1A66591  22.305  37.898   6.291
 5289POPC   D2A66592  21.905  37.773   6.494
 5289POPC   C3A66593  21.941  37.912   6.941
 5289POPC   C4A66594  22.240  37.793   7.241
 5289POPC   C1B66595  22.229  37.376   6.286
 5289POPC   C2B66596  22.162  37.393   6.763
 5289POPC   C3B66597  22.150  37.291   7.219
 5289POPC   C4B66598  22.280  37.460   7.645
 5290POPC   NC366599   7.550  34.021   5.394
 5290POPC   PO466600   7.290  33.391   5.502
 5290POPC   GL166601   7.481  33.660   5.837
 5290POPC   GL266602   7.678  33.978   5.868
 5290POPC   C1A66603   7.370  33.823   6.269
 5290POPC   D2A66604   7.045  33.744   6.591
 5290POPC   C3A66605   7.149  33.655   7.011
 5290POPC   C4A66606   7.196  33.567   7.470
 5290POPC   C1B66607   7.979  33.952   6.146
 5290POPC   C2B66608   7.835  33.921   6.560
 5290POPC   C3B66609   7.480  34.000   6.797
 5290POPC   C4B66610   7.447  33.982   7.232
 5291POPC   NC366611   6.077   3.923   5.421
 5291POPC   PO466612   5.575   3.528   5.335
 5291POPC   GL166613   5.713   3.651   5.765
 5291POPC   GL266614   6.070   3.620   5.841
 5291POPC   C1A66615   5.691   3.630   6.230
 5291POPC   D2A66616   5.837   3.335   6.558
 5291POPC   C3A66617   5.680   3.382   6.973
 5291POPC   C4A66618   5.766   3.281   7.386
 5291POPC   C1B66619   6.225   3.539   6.262
 5291POPC   C2B66620   6.192   3.718   6.698
 5291POPC   C3B66621   6.104   3.655   7.160
 5291POPC   C4B66622   6.243   3.902   7.529
 5292POPC   NC366623  40.346  19.408   5.110
 5292POPC   PO466624  39.905  18.940   5.341
 5292POPC   GL166625  39.989  19.112   5.781
 5292POPC   GL266626  39.935  19.447   5.910
 5292POPC   C1A66627  40.035  19.005   6.230
 5292POPC   D2A66628  39.891  18.818   6.622
 5292POPC   C3A66629  40.086  19.015   6.903
 5292POPC   C4A66630  40.169  19.142   7.265
 5292POPC   C1B66631  39.671  19.355   6.279
 5292POPC   C2B66632  39.655  19.264   6.736
 5292POPC   C3B66633  39.704  19.340   7.194
 5292POPC   C4B66634  39.739  19.371   7.666
 5293POPC   NC366635   1.326  11.627   5.349
 5293POPC   PO466636   1.189  10.970   5.355
 5293POPC   GL166637   1.313  10.968   5.796
 5293POPC   GL266638   1.043  11.212   5.830
 5293POPC   C1A66639   1.396  11.231   6.205
 5293POPC   D2A66640   1.333  11.593   6.503
 5293POPC   C3A66641   1.476  11.559   6.955
 5293POPC   C4A66642   1.540  11.143   7.170
 5293POPC   C1B66643   0.920  11.559   6.094
 5293POPC   C2B66644   0.813  11.697   6.508
 5293POPC   C3B66645   0.945  11.422   6.820
 5293POPC   C4B66646   1.072  11.341   7.211
 5294POPC   NC366647  19.397  37.001   5.066
 5294POPC   PO466648  19.962  36.961   5.470
 5294POPC   GL166649  19.993  37.154   5.850
 5294POPC   GL266650  19.682  37.002   5.939
 5294POPC   C1A66651  19.917  37.239   6.307
 5294POPC   D2A66652  19.953  36.994   6.657
 5294POPC   C3A66653  19.615  37.044   6.883
 5294POPC   C4A66654  19.867  37.004   7.211
 5294POPC   C1B66655  19.851  36.725   6.232
 5294POPC   C2B66656  19.627  36.604   6.605
 5294POPC   C3B66657  19.800  36.547   6.981
 5294POPC   C4B66658  19.956  36.497   7.377
 5295POPC   NC366659   2.117   7.434   5.414
 5295POPC   PO466660   1.495   7.750   5.292
 5295POPC   GL166661   1.645   7.458   5.702
 5295POPC   GL266662   1.960   7.582   5.864
 5295POPC   C1A66663   1.723   7.308   6.202
 5295POPC   D2A66664   1.926   7.497   6.602
 5295POPC   C3A66665   1.858   7.383   7.070
 5295POPC   C4A66666   2.061   7.610   7.436
 5295POPC   C1B66667   2.245   7.396   6.150
 5295POPC   C2B66668   2.295   7.111   6.506
 5295POPC   C3B66669   2.423   6.931   6.882
 5295POPC   C4B66670   2.433   7.106   7.281
 5296POPC   NC366671   5.107  24.027   5.375
 5296POPC   PO466672   5.236  23.402   5.480
 5296POPC   GL166673   5.101  23.654   5.837
 5296POPC   GL266674   4.866  23.924   5.827
 5296POPC   C1A66675   5.060  23.632   6.282
 5296POPC   D2A66676   5.201  23.855   6.628
 5296POPC   C3A66677   5.114  23.642   7.005
 5296POPC   C4A66678   5.086  23.799   7.401
 5296POPC   C1B66679   4.674  23.969   6.259
 5296POPC   C2B66680   4.698  23.849   6.721
 5296POPC   C3B66681   4.622  23.839   7.187
 5296POPC   C4B66682   4.650  23.843   7.656
 5297POPC   NC366683   3.184   9.651   5.516
 5297POPC   PO466684   3.664   9.963   5.020
 5297POPC   GL166685   3.658   9.853   5.575
 5297POPC   GL266686   3.652   9.466   5.693
 5297POPC   C1A66687   3.461   9.764   6.081
 5297POPC   D2A66688   3.128   9.776   6.443
 5297POPC   C3A66689   3.290   9.812   6.885
 5297POPC   C4A66690   3.531   9.564   7.172
 5297POPC   C1B66691   3.828   9.404   6.135
 5297POPC   C2B66692   3.890   9.615   6.563
 5297POPC   C3B66693   3.993   9.472   7.009
 5297POPC   C4B66694   3.949   9.462   7.515
 5298POPC   NC366695  11.575  23.381   5.548
 5298POPC   PO466696  11.448  22.723   5.482
 5298POPC   GL166697  11.398  22.969   5.828
 5298POPC   GL266698  11.053  23.054   5.795
 5298POPC   C1A66699  11.343  22.887   6.268
 5298POPC   D2A66700  11.478  22.752   6.674
 5298POPC   C3A66701  11.475  23.058   6.987
 5298POPC   C4A66702  11.379  23.026   7.415
 5298POPC   C1B66703  10.858  23.087   6.228
 5298POPC   C2B66704  11.004  22.984   6.662
 5298POPC   C3B66705  10.990  23.205   7.059
 5298POPC   C4B66706  10.921  23.269   7.499
 5299POPC   NC366707  31.153  42.290   5.491
 5299POPC   PO466708  31.726  42.633   5.380
 5299POPC   GL166709  31.595  42.453   5.762
 5299POPC   GL266710  31.447  42.140   5.888
 5299POPC   C1A66711  31.505  42.542   6.198
 5299POPC   D2A66712  31.369  42.417   6.609
 5299POPC   C3A66713  31.571  42.544   6.972
 5299POPC   C4A66714  31.380  42.449   7.337
 5299POPC   C1B66715  31.680  42.058   6.295
 5299POPC   C2B66716  31.797  42.105   6.733
 5299POPC   C3B66717  31.570  41.995   7.118
 5299POPC   C4B66718  31.542  42.039   7.581
 5300POPC   NC366719  42.184  10.667   5.616
 5300POPC   PO466720  42.627  10.271   5.337
 5300POPC   GL166721  42.629  10.417   5.778
 5300POPC   GL266722  42.685  10.759   5.859
 5300POPC   C1A66723  42.412  10.475   6.197
 5300POPC   D2A66724  42.521  10.587   6.606
 5300POPC   C3A66725  42.298  10.391   6.891
 5300POPC   C4A66726  42.483  10.284   7.245
 5300POPC   C1B66727  42.350  10.980   6.144
 5300POPC   C2B66728  42.102  10.866   6.480
 5300POPC   C3B66729  42.151  10.883   6.898
 5300POPC   C4B66730  42.161  10.684   7.279
 5301POPC   NC366731  35.407  38.677   5.355
 5301POPC   PO466732  35.198  38.103   5.082
 5301POPC   GL166733  35.450  38.177   5.582
 5301POPC   GL266734  35.297  38.450   5.794
 5301POPC   C1A66735  35.445  38.103   6.117
 5301POPC   D2A66736  35.471  38.302   6.569
 5301POPC   C3A66737  35.280  38.255   7.013
 5301POPC   C4A66738  35.248  38.185   7.488
 5301POPC   C1B66739  35.218  38.656   6.196
 5301POPC   C2B66740  35.368  38.814   6.586
 5301POPC   C3B66741  35.246  38.773   7.001
 5301POPC   C4B66742  35.037  38.617   7.339
 5302POPC   NC366743  35.282  14.930   5.458
 5302POPC   PO466744  35.497  15.491   5.437
 5302POPC   GL166745  35.491  15.267   5.870
 5302POPC   GL266746  35.463  14.890   5.913
 5302POPC   C1A66747  35.317  15.191   6.314
 5302POPC   D2A66748  34.963  15.284   6.637
 5302POPC   C3A66749  35.115  15.165   7.035
 5302POPC   C4A66750  35.505  15.411   7.084
 5302POPC   C1B66751  35.220  14.694   6.215
 5302POPC   C2B66752  35.239  14.804   6.663
 5302POPC   C3B66753  35.534  14.821   7.003
 5302POPC   C4B66754  35.486  15.010   7.391
 5303POPC   NC366755   8.460  16.105   5.458
 5303POPC   PO466756   7.779  16.023   5.334
 5303POPC   GL166757   8.003  15.892   5.726
 5303POPC   GL266758   8.257  16.085   5.916
 5303POPC   C1A66759   7.876  15.905   6.180
 5303POPC   D2A66760   8.129  16.121   6.516
 5303POPC   C3A66761   8.259  15.869   6.870
 5303POPC   C4A66762   8.070  15.664   7.222
 5303POPC   C1B66763   8.471  16.366   6.192
 5303POPC   C2B66764   8.646  16.305   6.618
 5303POPC   C3B66765   8.489  16.299   7.052
 5303POPC   C4B66766   8.099  16.162   7.280
 5304POPC   NC366767  36.428  29.054   5.490
 5304POPC   PO466768  35.749  29.066   5.618
 5304POPC   GL166769  36.069  29.249   5.830
 5304POPC   GL266770  36.236  28.937   5.927
 5304POPC   C1A66771  36.200  29.369   6.240
 5304POPC   D2A66772  36.501  29.512   6.535
 5304POPC   C3A66773  36.490  29.239   6.887
 5304POPC   C4A66774  36.205  29.282   7.237
 5304POPC   C1B66775  35.988  28.898   6.245
 5304POPC   C2B66776  36.018  29.067   6.650
 5304POPC   C3B66777  36.064  28.863   7.013
 5304POPC   C4B66778  36.438  28.813   7.223
 5305POPC   NC366779  16.431  28.227   5.519
 5305POPC   PO466780  15.808  28.502   5.448
 5305POPC   GL166781  15.985  28.307   5.778
 5305POPC   GL266782  16.209  28.570   5.810
 5305POPC   C1A66783  15.978  28.199   6.222
 5305POPC   D2A66784  16.190  28.355   6.608
 5305POPC   C3A66785  16.060  28.184   7.019
 5305POPC   C4A66786  15.710  27.918   7.165
 5305POPC   C1B66787  15.905  28.695   6.094
 5305POPC   C2B66788  15.853  28.751   6.520
 5305POPC   C3B66789  15.824  28.728   6.953
 5305POPC   C4B66790  15.881  28.529   7.368
 5306POPC   NC366791  12.019   5.092   5.295
 5306POPC   PO466792  11.628   4.989   5.773
 5306POPC   GL166793  12.037   5.009   5.831
 5306POPC   GL266794  12.052   5.357   5.757
 5306POPC   C1A66795  12.165   5.000   6.264
 5306POPC   D2A66796  11.904   5.094   6.624
 5306POPC   C3A66797  12.116   5.099   7.002
 5306POPC   C4A66798  11.853   4.921   7.257
 5306POPC   C1B66799  12.170   5.503   6.186
 5306POPC   C2B66800  12.151   5.533   6.647
 5306POPC   C3B66801  11.832   5.524   6.996
 5306POPC   C4B66802  12.033   5.567   7.390
 5307POPC   NC366803  13.648  10.055   5.429
 5307POPC   PO466804  13.893   9.399   5.407
 5307POPC   GL166805  13.656   9.522   5.758
 5307POPC   GL266806  13.285   9.377   5.671
 5307POPC   C1A66807  13.899   9.729   6.121
 5307POPC   D2A66808  13.913   9.724   6.578
 5307POPC   C3A66809  13.898   9.894   6.981
 5307POPC   C4A66810  13.672   9.530   7.158
 5307POPC   C1B66811  13.149   9.575   6.064
 5307POPC   C2B66812  13.407   9.775   6.392
 5307POPC   C3B66813  13.422   9.832   6.825
 5307POPC   C4B66814  13.467  10.186   7.043
 5308POPC   NC366815  30.376  40.732   5.403
 5308POPC   PO466816  30.971  40.310   5.431
 5308POPC   GL166817  30.799  40.666   5.758
 5308POPC   GL266818  30.422  40.676   5.905
 5308POPC   C1A66819  30.806  40.834   6.203
 5308POPC   D2A66820  30.674  40.608   6.572
 5308POPC   C3A66821  30.897  40.675   6.928
 5308POPC   C4A66822  30.799  41.024   7.122
 5308POPC   C1B66823  30.203  40.496   6.306
 5308POPC   C2B66824  30.199  40.510   6.767
 5308POPC   C3B66825  30.438  40.600   7.147
 5308POPC   C4B66826  30.523  40.594   7.583
 5309POPC   NC366827   9.409  15.792   5.455
 5309POPC   PO466828   8.707  15.702   5.523
 5309POPC   GL166829   8.750  15.944   5.855
 5309POPC   GL266830   9.066  16.079   5.773
 5309POPC   C1A66831   8.641  15.885   6.264
 5309POPC   D2A66832   8.940  15.834   6.547
 5309POPC   C3A66833   8.772  15.857   6.921
 5309POPC   C4A66834   8.993  15.725   7.252
 5309POPC   C1B66835   9.006  16.270   6.201
 5309POPC   C2B66836   9.208  16.305   6.617
 5309POPC   C3B66837   9.004  16.296   7.011
 5309POPC   C4B66838   8.883  16.196   7.434
 5310POPC   NC366839  25.315   6.753   5.391
 5310POPC   PO466840  24.827   6.333   5.711
 5310POPC   GL166841  25.132   6.641   5.869
 5310POPC   GL266842  25.503   6.612   5.847
 5310POPC   C1A66843  25.264   6.795   6.261
 5310POPC   D2A66844  25.559   6.816   6.573
 5310POPC   C3A66845  25.373   6.692   6.930
 5310POPC   C4A66846  25.295   6.999   7.178
 5310POPC   C1B66847  25.742   6.478   6.217
 5310POPC   C2B66848  25.941   6.487   6.651
 5310POPC   C3B66849  25.766   6.375   7.058
 5310POPC   C4B66850  25.606   6.082   7.363
 5311POPC   NC366851  13.103  31.575   5.449
 5311POPC   PO466852  12.501  31.303   5.373
 5311POPC   GL166853  12.713  31.540   5.755
 5311POPC   GL266854  12.923  31.220   5.754
 5311POPC   C1A66855  12.958  31.468   6.176
 5311POPC   D2A66856  12.821  31.234   6.528
 5311POPC   C3A66857  12.979  31.400   6.908
 5311POPC   C4A66858  12.919  31.599   7.291
 5311POPC   C1B66859  13.086  30.945   6.067
 5311POPC   C2B66860  13.130  30.832   6.530
 5311POPC   C3B66861  13.200  30.937   6.965
 5311POPC   C4B66862  13.243  31.226   7.327
 5312POPC   NC366863   4.314  19.402   5.208
 5312POPC   PO466864   4.069  19.981   5.415
 5312POPC   GL166865   4.222  19.967   5.788
 5312POPC   GL266866   4.463  19.722   5.792
 5312POPC   C1A66867   4.135  19.806   6.193
 5312POPC   D2A66868   4.353  19.737   6.557
 5312POPC   C3A66869   4.119  19.882   6.891
 5312POPC   C4A66870   3.999  19.582   7.153
 5312POPC   C1B66871   4.586  20.023   6.140
 5312POPC   C2B66872   4.721  20.108   6.584
 5312POPC   C3B66873   4.569  20.094   7.019
 5312POPC   C4B66874   4.476  19.717   7.276
 5313POPC   NC366875  14.517  10.367   5.463
 5313POPC   PO466876  14.226  10.934   5.409
 5313POPC   GL166877  14.384  10.751   5.810
 5313POPC   GL266878  14.249  10.405   5.906
 5313POPC   C1A66879  14.495  10.665   6.249
 5313POPC   D2A66880  14.751  10.612   6.600
 5313POPC   C3A66881  14.462  10.638   6.930
 5313POPC   C4A66882  14.369  10.749   7.330
 5313POPC   C1B66883  14.181  10.195   6.313
 5313POPC   C2B66884  14.269  10.180   6.770
 5313POPC   C3B66885  14.287  10.249   7.239
 5313POPC   C4B66886  14.158  10.436   7.676
 5314POPC   NC366887   5.547  26.373   5.780
 5314POPC   PO466888   5.067  26.698   5.368
 5314POPC   GL166889   5.103  26.660   5.809
 5314POPC   GL266890   5.008  26.357   5.916
 5314POPC   C1A66891   5.316  26.868   6.171
 5314POPC   D2A66892   5.455  27.122   6.502
 5314POPC   C3A66893   5.286  27.082   6.926
 5314POPC   C4A66894   5.194  26.696   7.143
 5314POPC   C1B66895   4.841  26.678   6.254
 5314POPC   C2B66896   4.833  26.928   6.653
 5314POPC   C3B66897   4.707  26.788   7.059
 5314POPC   C4B66898   4.703  26.365   7.164
 5315POPC   NC366899   5.282   1.569   5.551
 5315POPC   PO466900   5.171   2.161   5.246
 5315POPC   GL166901   5.132   2.140   5.718
 5315POPC   GL266902   5.389   2.187   5.905
 5315POPC   C1A66903   4.950   2.025   6.151
 5315POPC   D2A66904   4.828   1.816   6.554
 5315POPC   C3A66905   4.852   2.024   6.974
 5315POPC   C4A66906   4.740   1.883   7.420
 5315POPC   C1B66907   5.248   2.421   6.272
 5315POPC   C2B66908   5.212   2.153   6.628
 5315POPC   C3B66909   5.388   1.959   6.993
 5315POPC   C4B66910   5.220   2.125   7.338
 5316POPC   NC366911  38.128  38.015   5.055
 5316POPC   PO466912  38.388  38.572   5.420
 5316POPC   GL166913  38.404  38.473   5.881
 5316POPC   GL266914  38.736  38.559   5.981
 5316POPC   C1A66915  38.286  38.373   6.303
 5316POPC   D2A66916  38.567  38.537   6.607
 5316POPC   C3A66917  38.410  38.599   7.005
 5316POPC   C4A66918  38.551  38.782   7.407
 5316POPC   C1B66919  38.728  38.169   6.187
 5316POPC   C2B66920  38.675  38.029   6.593
 5316POPC   C3B66921  38.771  38.187   7.000
 5316POPC   C4B66922  38.656  38.278   7.404
 5317POPC   NC366923  29.144  22.637   5.468
 5317POPC   PO466924  29.527  23.122   5.608
 5317POPC   GL166925  29.319  23.073   5.982
 5317POPC   GL266926  28.971  22.976   5.841
 5317POPC   C1A66927  29.408  23.273   6.393
 5317POPC   D2A66928  29.243  23.050   6.742
 5317POPC   C3A66929  29.314  23.171   7.174
 5317POPC   C4A66930  29.089  23.271   7.539
 5317POPC   C1B66931  28.938  22.776   6.231
 5317POPC   C2B66932  28.989  22.589   6.635
 5317POPC   C3B66933  28.970  22.765   7.048
 5317POPC   C4B66934  29.118  22.789   7.461
 5318POPC   NC366935  29.650   8.455   5.380
 5318POPC   PO466936  30.203   8.051   5.180
 5318POPC   GL166937  30.038   8.184   5.634
 5318POPC   GL266938  29.707   8.057   5.733
 5318POPC   C1A66939  30.101   8.453   6.068
 5318POPC   D2A66940  30.314   8.570   6.515
 5318POPC   C3A66941  30.179   8.421   6.965
 5318POPC   C4A66942  30.118   8.463   7.435
 5318POPC   C1B66943  29.709   8.151   6.186
 5318POPC   C2B66944  29.698   8.331   6.595
 5318POPC   C3B66945  29.601   8.118   6.964
 5318POPC   C4B66946  29.878   8.047   7.273
 5319POPC   NC366947   6.939   6.960   5.207
 5319POPC   PO466948   7.548   7.199   5.473
 5319POPC   GL166949   7.467   7.347   5.883
 5319POPC   GL266950   7.119   7.189   5.871
 5319POPC   C1A66951   7.624   7.593   6.298
 5319POPC   D2A66952   7.743   7.508   6.774
 5319POPC   C3A66953   7.473   7.735   7.119
 5319POPC   C4A66954   7.021   7.792   7.283
 5319POPC   C1B66955   7.244   7.229   6.324
 5319POPC   C2B66956   7.442   7.021   6.659
 5319POPC   C3B66957   7.329   6.912   7.065
 5319POPC   C4B66958   7.155   7.304   7.155
 5320POPC   NC366959  27.692  28.874   5.471
 5320POPC   PO466960  27.102  29.123   5.282
 5320POPC   GL166961  27.326  29.193   5.750
 5320POPC   GL266962  27.599  29.062   5.942
 5320POPC   C1A66963  27.313  29.419   6.177
 5320POPC   D2A66964  27.607  29.330   6.531
 5320POPC   C3A66965  27.486  29.372   6.971
 5320POPC   C4A66966  27.775  29.332   7.306
 5320POPC   C1B66967  27.836  28.916   6.292
 5320POPC   C2B66968  27.793  28.677   6.666
 5320POPC   C3B66969  27.750  28.899   7.011
 5320POPC   C4B66970  28.139  28.945   7.218
 5321POPC   NC366971  15.674  28.042   5.452
 5321POPC   PO466972  15.066  28.277   5.383
 5321POPC   GL166973  15.132  28.356   5.802
 5321POPC   GL266974  15.469  28.253   5.870
 5321POPC   C1A66975  15.002  28.393   6.232
 5321POPC   D2A66976  15.174  28.443   6.668
 5321POPC   C3A66977  14.955  28.419   7.060
 5321POPC   C4A66978  14.778  28.776   7.283
 5321POPC   C1B66979  15.516  28.422   6.281
 5321POPC   C2B66980  15.663  28.291   6.695
 5321POPC   C3B66981  15.472  28.360   7.096
 5321POPC   C4B66982  15.404  28.329   7.526
 5322POPC   NC366983   1.594  19.909   5.253
 5322POPC   PO466984   0.933  20.174   5.359
 5322POPC   GL166985   1.058  19.997   5.773
 5322POPC   GL266986   1.116  20.253   6.013
 5322POPC   C1A66987   1.156  19.765   6.179
 5322POPC   D2A66988   1.285  19.859   6.594
 5322POPC   C3A66989   1.239  19.538   6.930
 5322POPC   C4A66990   1.355  19.736   7.295
 5322POPC   C1B66991   0.725  20.023   6.142
 5322POPC   C2B66992   0.739  19.856   6.548
 5322POPC   C3B66993   0.904  19.920   6.962
 5322POPC   C4B66994   0.861  19.619   7.306
 5323POPC   NC366995   0.638   2.355   5.638
 5323POPC   PO466996   0.111   2.440   5.228
 5323POPC   GL166997   0.189   2.676   5.723
 5323POPC   GL266998   0.533   2.820   5.847
 5323POPC   C1A66999   0.183   2.726   6.216
 5323POPC   D2A67000   0.413   2.966   6.589
 5323POPC   C3A67001   0.491   2.717   6.952
 5323POPC   C4A67002   0.179   2.393   7.127
 5323POPC   C1B67003   0.875   2.954   6.159
 5323POPC   C2B67004   0.935   3.025   6.615
 5323POPC   C3B67005   0.770   3.245   6.973
 5323POPC   C4B67006   0.649   3.148   7.461
 5324POPC   NC367007  27.270  32.596   5.555
 5324POPC   PO467008  27.664  32.140   5.196
 5324POPC   GL167009  27.617  32.251   5.715
 5324POPC   GL267010  27.510  32.466   5.957
 5324POPC   C1A67011  27.681  32.040   6.146
 5324POPC   D2A67012  27.856  31.949   6.543
 5324POPC   C3A67013  27.652  32.152   6.852
 5324POPC   C4A67014  27.443  32.097   7.214
 5324POPC   C1B67015  27.905  32.514   6.100
 5324POPC   C2B67016  27.966  32.504   6.529
 5324POPC   C3B67017  28.066  32.473   6.932
 5324POPC   C4B67018  27.875  32.371   7.292
 5325POPC   NC367019  34.188  37.295   5.374
 5325POPC   PO467020  33.803  36.692   5.411
 5325POPC   GL167021  33.985  36.932   5.757
 5325POPC   GL267022  33.689  36.872   5.925
 5325POPC   C1A67023  34.043  37.126   6.205
 5325POPC   D2A67024  34.091  36.940   6.617
 5325POPC   C3A67025  34.163  37.167   6.982
 5325POPC   C4A67026  33.933  37.088   7.351
 5325POPC   C1B67027  33.499  37.112   6.241
 5325POPC   C2B67028  33.626  37.178   6.605
 5325POPC   C3B67029  33.660  36.944   6.944
 5325POPC   C4B67030  33.439  37.079   7.286
 5326POPC   NC367031  34.341  19.902   5.458
 5326POPC   PO467032  34.938  19.514   5.397
 5326POPC   GL167033  34.777  19.856   5.737
 5326POPC   GL267034  34.494  19.667   5.878
 5326POPC   C1A67035  34.588  20.055   6.182
 5326POPC   D2A67036  34.289  19.916   6.517
 5326POPC   C3A67037  34.307  20.056   6.946
 5326POPC   C4A67038  34.330  19.818   7.341
 5326POPC   C1B67039  34.854  19.623   6.174
 5326POPC   C2B67040  34.718  19.582   6.582
 5326POPC   C3B67041  34.759  19.769   6.974
 5326POPC   C4B67042  35.043  19.634   7.267
 5327POPC   NC367043  34.263  20.590   5.317
 5327POPC   PO467044  33.735  20.965   5.422
 5327POPC   GL167045  33.980  20.811   5.763
 5327POPC   GL267046  34.060  20.446   5.775
 5327POPC   C1A67047  33.836  20.665   6.174
 5327POPC   D2A67048  33.750  20.812   6.591
 5327POPC   C3A67049  33.614  20.612   6.998
 5327POPC   C4A67050  33.885  20.822   7.274
 5327POPC   C1B67051  34.051  20.184   6.132
 5327POPC   C2B67052  33.926  20.315   6.545
 5327POPC   C3B67053  34.093  20.520   6.889
 5327POPC   C4B67054  33.992  20.335   7.250
 5328POPC   NC367055   6.594  36.991   5.505
 5328POPC   PO467056   7.195  37.250   5.539
 5328POPC   GL167057   6.970  37.069   5.880
 5328POPC   GL267058   6.876  36.715   5.850
 5328POPC   C1A67059   6.626  37.098   6.177
 5328POPC   D2A67060   6.417  37.181   6.560
 5328POPC   C3A67061   6.652  37.041   6.922
 5328POPC   C4A67062   6.482  37.155   7.294
 5328POPC   C1B67063   6.635  36.566   6.224
 5328POPC   C2B67064   6.491  36.635   6.670
 5328POPC   C3B67065   6.521  36.607   7.160
 5328POPC   C4B67066   6.892  36.546   7.492
 5329POPC   NC367067  44.064  31.147   5.332
 5329POPC   PO467068  44.106  30.462   5.383
 5329POPC   GL167069  43.971  30.800   5.716
 5329POPC   GL267070  43.641  30.876   5.943
 5329POPC   C1A67071  44.082  30.879   6.162
 5329POPC   D2A67072  43.845  31.017   6.522
 5329POPC   C3A67073  44.063  30.906   6.911
 5329POPC   C4A67074  44.025  30.922   7.349
 5329POPC   C1B67075  43.787  30.475   6.077
 5329POPC   C2B67076  43.959  30.498   6.511
 5329POPC   C3B67077  43.706  30.549   6.886
 5329POPC   C4B67078  43.571  30.582   7.300
 5330POPC   NC367079  25.314  37.960   5.472
 5330POPC   PO467080  24.730  37.546   5.271
 5330POPC   GL167081  24.984  37.609   5.656
 5330POPC   GL267082  24.895  37.952   5.824
 5330POPC   C1A67083  25.122  37.579   6.090
 5330POPC   D2A67084  24.939  37.656   6.487
 5330POPC   C3A67085  25.028  37.683   6.922
 5330POPC   C4A67086  25.335  37.444   7.167
 5330POPC   C1B67087  25.142  38.072   6.221
 5330POPC   C2B67088  25.364  37.962   6.631
 5330POPC   C3B67089  25.378  38.040   7.094
 5330POPC   C4B67090  25.082  37.889   7.399
 5331POPC   NC367091  37.431  35.811   5.349
 5331POPC   PO467092  37.975  36.175   5.246
 5331POPC   GL167093  37.729  36.088   5.696
 5331POPC   GL267094  37.381  35.910   5.830
 5331POPC   C1A67095  37.745  36.303   6.134
 5331POPC   D2A67096  37.972  36.412   6.527
 5331POPC   C3A67097  37.870  36.228   6.921
 5331POPC   C4A67098  37.809  36.310   7.339
 5331POPC   C1B67099  37.290  36.104   6.210
 5331POPC   C2B67100  37.484  36.186   6.569
 5331POPC   C3B67101  37.393  36.381   6.918
 5331POPC   C4B67102  37.327  36.174   7.277
 5332POPC   NC367103   1.045  36.450   5.403
 5332POPC   PO467104   1.437  35.948   5.386
 5332POPC   GL167105   1.518  36.074   5.802
 5332POPC   GL267106   1.336  36.324   5.960
 5332POPC   C1A67107   1.377  35.885   6.224
 5332POPC   D2A67108   1.149  35.924   6.601
 5332POPC   C3A67109   1.390  36.057   6.942
 5332POPC   C4A67110   1.520  36.363   7.179
 5332POPC   C1B67111   1.137  36.398   6.366
 5332POPC   C2B67112   0.995  36.376   6.829
 5332POPC   C3B67113   0.963  36.155   7.235
 5332POPC   C4B67114   0.848  35.928   7.628
 5333POPC   NC367115  13.870  30.502   5.519
 5333POPC   PO467116  13.435  30.947   5.423
 5333POPC   GL167117  13.514  30.737   5.820
 5333POPC   GL267118  13.330  30.455   5.840
 5333POPC   C1A67119  13.847  30.681   6.160
 5333POPC   D2A67120  13.948  30.886   6.559
 5333POPC   C3A67121  13.818  30.790   6.964
 5333POPC   C4A67122  13.569  30.851   7.290
 5333POPC   C1B67123  13.500  30.332   6.204
 5333POPC   C2B67124  13.543  30.524   6.610
 5333POPC   C3B67125  13.410  30.415   7.025
 5333POPC   C4B67126  13.394  30.265   7.445
 5334POPC   NC367127  34.671   8.308   5.445
 5334POPC   PO467128  34.468   7.633   5.502
 5334POPC   GL167129  34.639   7.974   5.816
 5334POPC   GL267130  34.660   8.403   5.923
 5334POPC   C1A67131  34.614   8.013   6.236
 5334POPC   D2A67132  34.543   8.255   6.561
 5334POPC   C3A67133  34.509   7.982   6.850
 5334POPC   C4A67134  34.554   8.083   7.236
 5334POPC   C1B67135  34.916   8.458   6.277
 5334POPC   C2B67136  34.863   8.654   6.676
 5334POPC   C3B67137  34.652   8.535   7.050
 5334POPC   C4B67138  34.936   8.412   7.391
 5335POPC   NC367139  25.743  33.625   5.617
 5335POPC   PO467140  25.535  34.154   5.287
 5335POPC   GL167141  25.304  33.949   5.666
 5335POPC   GL267142  25.123  33.608   5.598
 5335POPC   C1A67143  25.142  34.027   6.115
 5335POPC   D2A67144  25.271  34.175   6.550
 5335POPC   C3A67145  25.141  33.923   6.911
 5335POPC   C4A67146  25.328  33.877   7.345
 5335POPC   C1B67147  25.179  33.515   6.008
 5335POPC   C2B67148  25.213  33.594   6.438
 5335POPC   C3B67149  25.314  33.429   6.831
 5335POPC   C4B67150  25.046  33.474   7.191
 5336POPC   NC367151  18.459  29.097   5.651
 5336POPC   PO467152  17.871  28.896   5.555
 5336POPC   GL167153  18.083  28.969   5.953
 5336POPC   GL267154  18.147  29.372   5.940
 5336POPC   C1A67155  18.315  29.078   6.321
 5336POPC   D2A67156  18.315  29.422   6.601
 5336POPC   C3A67157  18.295  29.211   6.976
 5336POPC   C4A67158  18.324  28.959   7.339
 5336POPC   C1B67159  18.587  29.474   6.137
 5336POPC   C2B67160  18.892  29.434   6.458
 5336POPC   C3B67161  18.769  29.474   6.873
 5336POPC   C4B67162  18.687  29.338   7.282
 5337POPC   NC367163  40.574  34.457   5.466
 5337POPC   PO467164  41.320  34.393   5.652
 5337POPC   GL167165  40.944  34.501   5.829
 5337POPC   GL267166  41.058  34.809   5.892
 5337POPC   C1A67167  40.700  34.481   6.217
 5337POPC   D2A67168  40.895  34.268   6.591
 5337POPC   C3A67169  40.775  34.382   6.992
 5337POPC   C4A67170  40.758  34.700   7.307
 5337POPC   C1B67171  41.168  34.652   6.301
 5337POPC   C2B67172  41.087  34.745   6.747
 5337POPC   C3B67173  41.195  34.958   7.144
 5337POPC   C4B67174  41.074  34.997   7.578
 5338POPC   NC367175   4.088  29.090   5.400
 5338POPC   PO467176   3.432  28.995   5.355
 5338POPC   GL167177   3.683  29.144   5.737
 5338POPC   GL267178   3.345  29.207   5.829
 5338POPC   C1A67179   3.811  29.127   6.192
 5338POPC   D2A67180   3.564  29.110   6.587
 5338POPC   C3A67181   3.788  29.228   6.929
 5338POPC   C4A67182   3.662  29.186   7.319
 5338POPC   C1B67183   3.239  29.285   6.237
 5338POPC   C2B67184   3.124  29.378   6.653
 5338POPC   C3B67185   3.233  29.219   7.058
 5338POPC   C4B67186   3.047  29.365   7.473
 5339POPC   NC367187  44.532  39.811   5.552
 5339POPC   PO467188  43.872  39.856   5.294
 5339POPC   GL167189  43.857  39.914   5.774
 5339POPC   GL267190  44.144  40.086   5.758
 5339POPC   C1A67191  44.014  39.919   6.215
 5339POPC   D2A67192  44.259  39.796   6.550
 5339POPC   C3A67193  44.006  39.808   6.880
 5339POPC   C4A67194  43.852  39.956   7.268
 5339POPC   C1B67195  44.217  40.390   6.075
 5339POPC   C2B67196  44.192  40.321   6.535
 5339POPC   C3B67197  44.031  40.328   6.961
 5339POPC   C4B67198  44.075  40.436   7.413
 5340POPC   NC367199  41.546   0.657   5.613
 5340POPC   PO467200  41.617  44.990   5.453
 5340POPC   GL167201  41.647   0.219   5.865
 5340POPC   GL267202  41.287   0.277   5.835
 5340POPC   C1A67203  41.561   0.526   6.236
 5340POPC   D2A67204  41.408   0.703   6.624
 5340POPC   C3A67205  41.589   0.669   7.036
 5340POPC   C4A67206  41.306   0.461   7.273
 5340POPC   C1B67207  41.203   0.102   6.205
 5340POPC   C2B67208  41.409   0.172   6.575
 5340POPC   C3B67209  41.449   0.086   6.979
 5340POPC   C4B67210  41.769   0.210   7.228
 5341POPC   NC367211  13.324  35.237   5.469
 5341POPC   PO467212  13.626  35.777   5.524
 5341POPC   GL167213  13.736  35.326   5.752
 5341POPC   GL267214  13.558  34.957   5.805
 5341POPC   C1A67215  13.716  35.231   6.203
 5341POPC   D2A67216  13.603  35.517   6.526
 5341POPC   C3A67217  13.833  35.427   6.872
 5341POPC   C4A67218  13.628  35.434   7.228
 5341POPC   C1B67219  13.393  34.805   6.160
 5341POPC   C2B67220  13.248  35.085   6.460
 5341POPC   C3B67221  13.392  35.160   6.867
 5341POPC   C4B67222  13.701  34.936   7.178
 5342POPC   NC367223  18.230  27.116   5.635
 5342POPC   PO467224  18.335  27.884   5.549
 5342POPC   GL167225  18.224  27.588   5.850
 5342POPC   GL267226  18.498  27.345   5.991
 5342POPC   C1A67227  18.162  27.668   6.267
 5342POPC   D2A67228  18.435  27.461   6.560
 5342POPC   C3A67229  18.267  27.629   6.922
 5342POPC   C4A67230  18.178  27.505   7.339
 5342POPC   C1B67231  18.111  27.177   6.245
 5342POPC   C2B67232  17.953  27.298   6.611
 5342POPC   C3B67233  17.923  27.208   6.991
 5342POPC   C4B67234  17.809  27.143   7.381
 5343POPC   NC367235  28.901  33.356   5.596
 5343POPC   PO467236  29.310  32.790   5.394
 5343POPC   GL167237  29.146  32.929   5.781
 5343POPC   GL267238  29.057  32.638   5.857
 5343POPC   C1A67239  29.286  32.993   6.226
 5343POPC   D2A67240  29.262  33.155   6.652
 5343POPC   C3A67241  29.373  32.917   7.004
 5343POPC   C4A67242  29.606  33.106   7.329
 5343POPC   C1B67243  28.873  32.677   6.212
 5343POPC   C2B67244  28.795  33.011   6.481
 5343POPC   C3B67245  28.824  33.004   6.928
 5343POPC   C4B67246  28.964  32.716   7.275
 5344POPC   NC367247   6.728  37.984   5.261
 5344POPC   PO467248   6.588  37.389   5.277
 5344POPC   GL167249   6.677  37.482   5.722
 5344POPC   GL267250   6.907  37.765   5.742
 5344POPC   C1A67251   6.595  37.618   6.167
 5344POPC   D2A67252   6.388  37.709   6.582
 5344POPC   C3A67253   6.588  37.548   6.931
 5344POPC   C4A67254   6.681  37.641   7.352
 5344POPC   C1B67255   6.973  37.972   6.125
 5344POPC   C2B67256   6.894  37.830   6.544
 5344POPC   C3B67257   6.975  37.871   6.971
 5344POPC   C4B67258   7.249  37.749   7.249
 5345POPC   NC367259  18.559  31.136   5.621
 5345POPC   PO467260  18.150  31.695   5.461
 5345POPC   GL167261  18.272  31.551   5.870
 5345POPC   GL267262  18.581  31.715   5.815
 5345POPC   C1A67263  18.171  31.523   6.345
 5345POPC   D2A67264  18.036  31.467   6.792
 5345POPC   C3A67265  18.249  31.610   7.127
 5345POPC   C4A67266  18.345  31.428   7.490
 5345POPC   C1B67267  18.669  31.674   6.233
 5345POPC   C2B67268  18.550  31.658   6.666
 5345POPC   C3B67269  18.721  31.415   6.973
 5345POPC   C4B67270  18.868  31.453   7.369
 5346POPC   NC367271  28.170  20.747   5.446
 5346POPC   PO467272  28.766  20.959   5.534
 5346POPC   GL167273  28.561  20.584   5.783
 5346POPC   GL267274  28.202  20.416   5.845
 5346POPC   C1A67275  28.612  20.314   6.161
 5346POPC   D2A67276  28.465  20.162   6.577
 5346POPC   C3A67277  28.271  20.436   6.909
 5346POPC   C4A67278  28.409  20.366   7.335
 5346POPC   C1B67279  28.200  20.533   6.327
 5346POPC   C2B67280  28.573  20.705   6.596
 5346POPC   C3B67281  28.596  20.877   7.038
 5346POPC   C4B67282  28.201  20.821   7.302
 5347POPC   NC367283  31.249  34.538   5.350
 5347POPC   PO467284  31.728  34.137   5.529
 5347POPC   GL167285  31.593  34.468   5.787
 5347POPC   GL267286  31.260  34.575   5.855
 5347POPC   C1A67287  31.630  34.602   6.212
 5347POPC   D2A67288  31.758  34.418   6.611
 5347POPC   C3A67289  31.850  34.640   6.987
 5347POPC   C4A67290  31.728  34.445   7.398
 5347POPC   C1B67291  31.139  34.745   6.215
 5347POPC   C2B67292  31.353  34.791   6.604
 5347POPC   C3B67293  31.326  34.567   6.967
 5347POPC   C4B67294  31.023  34.763   7.246
 5348POPC   NC367295   0.112  27.340   5.562
 5348POPC   PO467296   0.519  27.885   5.227
 5348POPC   GL167297   0.270  27.917   5.769
 5348POPC   GL267298   0.253  27.576   6.009
 5348POPC   C1A67299   0.495  27.956   6.184
 5348POPC   D2A67300   0.486  27.607   6.476
 5348POPC   C3A67301   0.449  27.734   6.896
 5348POPC   C4A67302   0.552  27.566   7.314
 5348POPC   C1B67303   0.245  27.162   6.181
 5348POPC   C2B67304   0.190  27.029   6.534
 5348POPC   C3B67305   0.334  27.248   6.863
 5348POPC   C4B67306   0.272  27.135   7.245
 5349POPC   NC367307  24.823  26.416   5.536
 5349POPC   PO467308  25.046  25.786   5.649
 5349POPC   GL167309  24.688  25.981   5.849
 5349POPC   GL267310  24.434  25.695   5.882
 5349POPC   C1A67311  24.649  26.248   6.227
 5349POPC   D2A67312  24.873  26.250   6.637
 5349POPC   C3A67313  24.743  26.498   6.998
 5349POPC   C4A67314  24.483  26.367   7.364
 5349POPC   C1B67315  24.636  25.726   6.300
 5349POPC   C2B67316  24.671  25.466   6.698
 5349POPC   C3B67317  24.571  25.657   7.105
 5349POPC   C4B67318  24.758  26.018   7.133
 5350POPC   NC367319  24.051  15.513   5.422
 5350POPC   PO467320  24.397  14.880   5.275
 5350POPC   GL167321  24.316  15.117   5.681
 5350POPC   GL267322  24.199  14.806   5.790
 5350POPC   C1A67323  24.478  15.310   6.096
 5350POPC   D2A67324  24.685  15.483   6.501
 5350POPC   C3A67325  24.443  15.443   6.904
 5350POPC   C4A67326  24.433  15.249   7.339
 5350POPC   C1B67327  24.400  14.806   6.151
 5350POPC   C2B67328  24.412  15.059   6.537
 5350POPC   C3B67329  24.473  14.933   6.945
 5350POPC   C4B67330  24.501  14.739   7.340
 5351POPC   NC367331  34.737  40.128   5.583
 5351POPC   PO467332  34.680  39.537   5.444
 5351POPC   GL167333  34.666  39.679   5.838
 5351POPC   GL267334  34.294  39.722   5.779
 5351POPC   C1A67335  34.847  39.814   6.255
 5351POPC   D2A67336  34.700  40.055   6.644
 5351POPC   C3A67337  34.884  40.098   7.080
 5351POPC   C4A67338  34.797  40.184   7.547
 5351POPC   C1B67339  34.331  39.930   6.184
 5351POPC   C2B67340  34.179  39.934   6.595
 5351POPC   C3B67341  34.308  40.155   6.980
 5351POPC   C4B67342  34.299  40.172   7.423
 5352POPC   NC367343  41.968  13.665   5.355
 5352POPC   PO467344  42.577  13.452   5.310
 5352POPC   GL167345  42.479  13.749   5.644
 5352POPC   GL267346  42.161  13.656   5.826
 5352POPC   C1A67347  42.583  13.952   6.060
 5352POPC   D2A67348  42.483  14.106   6.487
 5352POPC   C3A67349  42.627  13.917   6.865
 5352POPC   C4A67350  42.528  13.696   7.256
 5352POPC   C1B67351  42.224  13.634   6.269
 5352POPC   C2B67352  42.187  13.401   6.665
 5352POPC   C3B67353  42.089  13.547   7.075
 5352POPC   C4B67354  42.085  13.467   7.545
 5353POPC   NC367355  33.694  34.676   5.398
 5353POPC   PO467356  34.034  34.159   5.218
 5353POPC   GL167357  34.010  34.310   5.716
 5353POPC   GL267358  33.841  34.624   5.869
 5353POPC   C1A67359  33.780  34.203   6.137
 5353POPC   D2A67360  33.722  34.452   6.489
 5353POPC   C3A67361  33.932  34.373   6.854
 5353POPC   C4A67362  33.771  34.343   7.280
 5353POPC   C1B67363  33.555  34.833   6.157
 5353POPC   C2B67364  33.330  34.800   6.557
 5353POPC   C3B67365  33.460  34.614   6.961
 5353POPC   C4B67366  33.462  34.779   7.398
 5354POPC   NC367367  15.720   8.901   5.441
 5354POPC   PO467368  16.363   8.661   5.277
 5354POPC   GL167369  16.219   8.927   5.631
 5354POPC   GL267370  16.098   8.631   5.762
 5354POPC   C1A67371  15.983   9.040   6.050
 5354POPC   D2A67372  16.024   8.845   6.463
 5354POPC   C3A67373  15.873   8.908   6.879
 5354POPC   C4A67374  15.864   9.188   7.217
 5354POPC   C1B67375  16.377   8.696   6.127
 5354POPC   C2B67376  16.376   8.489   6.558
 5354POPC   C3B67377  16.313   8.645   6.985
 5354POPC   C4B67378  16.231   8.877   7.380
 5355POPC   NC367379  12.589  11.736   5.429
 5355POPC   PO467380  13.160  11.937   5.576
 5355POPC   GL167381  12.784  11.950   5.865
 5355POPC   GL267382  12.575  11.651   5.942
 5355POPC   C1A67383  12.819  12.089   6.296
 5355POPC   D2A67384  13.167  12.139   6.588
 5355POPC   C3A67385  13.036  12.475   6.850
 5355POPC   C4A67386  12.950  12.318   7.254
 5355POPC   C1B67387  12.562  11.658   6.396
 5355POPC   C2B67388  12.784  11.796   6.751
 5355POPC   C3B67389  12.701  11.891   7.170
 5355POPC   C4B67390  12.488  12.042   7.549
 5356POPC   NC367391   7.037  27.614   5.435
 5356POPC   PO467392   6.390  27.449   5.298
 5356POPC   GL167393   6.459  27.546   5.753
 5356POPC   GL267394   6.778  27.711   5.889
 5356POPC   C1A67395   6.504  27.398   6.189
 5356POPC   D2A67396   6.749  27.291   6.566
 5356POPC   C3A67397   6.490  27.343   6.919
 5356POPC   C4A67398   6.606  27.593   7.255
 5356POPC   C1B67399   6.799  27.842   6.327
 5356POPC   C2B67400   6.691  27.798   6.753
 5356POPC   C3B67401   6.942  27.904   7.088
 5356POPC   C4B67402   6.981  28.261   7.235
 5357POPC   NC367403   3.472  15.359   5.390
 5357POPC   PO467404   3.286  14.684   5.443
 5357POPC   GL167405   3.542  14.979   5.738
 5357POPC   GL267406   3.421  15.275   5.885
 5357POPC   C1A67407   3.626  14.906   6.187
 5357POPC   D2A67408   3.590  15.096   6.594
 5357POPC   C3A67409   3.728  14.892   6.953
 5357POPC   C4A67410   3.574  15.018   7.330
 5357POPC   C1B67411   3.308  15.470   6.256
 5357POPC   C2B67412   3.444  15.596   6.637
 5357POPC   C3B67413   3.444  15.457   7.046
 5357POPC   C4B67414   3.273  15.419   7.483
 5358POPC   NC367415  37.849  37.556   5.417
 5358POPC   PO467416  37.128  37.599   5.385
 5358POPC   GL167417  37.452  37.534   5.720
 5358POPC   GL267418  37.556  37.883   5.738
 5358POPC   C1A67419  37.663  37.612   6.165
 5358POPC   D2A67420  37.562  37.680   6.637
 5358POPC   C3A67421  37.922  37.642   6.960
 5358POPC   C4A67422  38.092  37.619   7.392
 5358POPC   C1B67423  37.750  38.136   6.061
 5358POPC   C2B67424  37.689  38.287   6.462
 5358POPC   C3B67425  37.744  38.156   6.870
 5358POPC   C4B67426  37.807  38.033   7.281
 5359POPC   NC367427  18.658  28.211   5.537
 5359POPC   PO467428  19.254  28.311   5.353
 5359POPC   GL167429  19.150  28.346   5.801
 5359POPC   GL267430  18.854  28.532   5.876
 5359POPC   C1A67431  19.218  28.522   6.234
 5359POPC   D2A67432  19.169  28.241   6.591
 5359POPC   C3A67433  19.149  28.445   6.987
 5359POPC   C4A67434  19.390  28.372   7.369
 5359POPC   C1B67435  18.748  28.306   6.242
 5359POPC   C2B67436  18.674  28.433   6.681
 5359POPC   C3B67437  18.701  28.216   7.065
 5359POPC   C4B67438  19.007  28.045   7.296
 5360POPC   NC367439  38.791   8.777   5.423
 5360POPC   PO467440  39.429   9.024   5.314
 5360POPC   GL167441  39.262   8.812   5.696
 5360POPC   GL267442  39.013   9.018   5.826
 5360POPC   C1A67443  39.291   8.804   6.167
 5360POPC   D2A67444  39.093   8.964   6.515
 5360POPC   C3A67445  39.222   8.698   6.810
 5360POPC   C4A67446  39.556   8.728   7.077
 5360POPC   C1B67447  38.728   9.110   6.184
 5360POPC   C2B67448  38.657   9.222   6.629
 5360POPC   C3B67449  38.980   9.191   6.975
 5360POPC   C4B67450  39.429   9.225   7.060
 5361POPC   NC367451   3.709   4.897   5.433
 5361POPC   PO467452   3.086   5.262   5.301
 5361POPC   GL167453   3.285   5.086   5.690
 5361POPC   GL267454   3.594   5.260   5.780
 5361POPC   C1A67455   3.358   5.077   6.162
 5361POPC   D2A67456   3.276   5.294   6.547
 5361POPC   C3A67457   3.448   5.125   6.922
 5361POPC   C4A67458   3.614   5.341   7.267
 5361POPC   C1B67459   3.922   5.240   6.112
 5361POPC   C2B67460   3.799   5.201   6.522
 5361POPC   C3B67461   3.929   4.947   6.848
 5361POPC   C4B67462   4.095   5.083   7.201
 5362POPC   NC367463  35.890  27.035   5.655
 5362POPC   PO467464  36.325  26.631   5.353
 5362POPC   GL167465  36.321  26.533   5.801
 5362POPC   GL267466  35.964  26.507   5.912
 5362POPC   C1A67467  36.352  26.541   6.265
 5362POPC   D2A67468  36.254  26.839   6.580
 5362POPC   C3A67469  36.264  26.699   6.969
 5362POPC   C4A67470  36.370  26.955   7.293
 5362POPC   C1B67471  35.832  26.687   6.292
 5362POPC   C2B67472  35.743  26.775   6.726
 5362POPC   C3B67473  35.917  27.058   7.022
 5362POPC   C4B67474  35.883  26.848   7.366
 5363POPC   NC367475  27.127  20.050   5.522
 5363POPC   PO467476  26.635  19.573   5.454
 5363POPC   GL167477  26.787  19.698   5.819
 5363POPC   GL267478  26.434  19.789   5.890
 5363POPC   C1A67479  26.822  19.779   6.265
 5363POPC   D2A67480  26.909  19.860   6.689
 5363POPC   C3A67481  26.875  19.514   6.970
 5363POPC   C4A67482  27.107  19.446   7.318
 5363POPC   C1B67483  26.468  19.434   6.174
 5363POPC   C2B67484  26.474  19.489   6.617
 5363POPC   C3B67485  26.451  19.796   6.948
 5363POPC   C4B67486  26.534  19.907   7.423
 5364POPC   NC367487  25.529  11.657   5.334
 5364POPC   PO467488  25.092  11.173   5.579
 5364POPC   GL167489  25.334  11.194   5.924
 5364POPC   GL267490  25.570  11.421   5.783
 5364POPC   C1A67491  25.213  11.314   6.334
 5364POPC   D2A67492  24.981  11.452   6.710
 5364POPC   C3A67493  25.019  11.074   6.955
 5364POPC   C4A67494  25.357  11.145   7.252
 5364POPC   C1B67495  25.513  11.706   6.111
 5364POPC   C2B67496  25.381  11.759   6.537
 5364POPC   C3B67497  25.444  11.540   6.914
 5364POPC   C4B67498  25.465  11.642   7.320
 5365POPC   NC367499   7.321  35.734   5.392
 5365POPC   PO467500   7.172  35.128   5.364
 5365POPC   GL167501   7.474  35.340   5.705
 5365POPC   GL267502   7.317  35.625   5.887
 5365POPC   C1A67503   7.696  35.384   6.127
 5365POPC   D2A67504   7.548  35.195   6.517
 5365POPC   C3A67505   7.649  35.408   6.899
 5365POPC   C4A67506   7.555  35.374   7.297
 5365POPC   C1B67507   7.105  35.332   6.178
 5365POPC   C2B67508   6.987  35.190   6.605
 5365POPC   C3B67509   7.119  35.400   6.991
 5365POPC   C4B67510   7.159  35.714   7.309
 5366POPC   NC367511  40.576   1.853   5.437
 5366POPC   PO467512  41.105   2.175   5.284
 5366POPC   GL167513  41.024   1.987   5.707
 5366POPC   GL267514  40.699   2.023   5.876
 5366POPC   C1A67515  41.103   2.007   6.164
 5366POPC   D2A67516  41.061   1.741   6.534
 5366POPC   C3A67517  40.994   1.931   6.919
 5366POPC   C4A67518  40.714   1.731   7.204
 5366POPC   C1B67519  40.657   1.780   6.228
 5366POPC   C2B67520  40.568   1.939   6.646
 5366POPC   C3B67521  40.363   2.057   7.028
 5366POPC   C4B67522  40.390   2.065   7.498
 5367POPC   NC367523   7.924   5.220   5.365
 5367POPC   PO467524   7.285   5.495   5.321
 5367POPC   GL167525   7.427   5.111   5.639
 5367POPC   GL267526   7.736   4.871   5.683
 5367POPC   C1A67527   7.347   5.001   6.107
 5367POPC   D2A67528   7.220   5.114   6.534
 5367POPC   C3A67529   7.446   5.000   6.876
 5367POPC   C4A67530   7.420   4.996   7.305
 5367POPC   C1B67531   7.780   5.231   6.003
 5367POPC   C2B67532   7.739   5.260   6.473
 5367POPC   C3B67533   7.782   5.370   6.921
 5367POPC   C4B67534   7.911   5.106   7.244
 5368POPC   NC367535  31.733  13.111   5.463
 5368POPC   PO467536  31.283  12.593   5.497
 5368POPC   GL167537  31.572  12.739   5.825
 5368POPC   GL267538  31.583  13.095   5.942
 5368POPC   C1A67539  31.519  12.690   6.262
 5368POPC   D2A67540  31.366  12.811   6.639
 5368POPC   C3A67541  31.487  12.690   7.017
 5368POPC   C4A67542  31.754  12.773   7.369
 5368POPC   C1B67543  31.300  13.184   6.258
 5368POPC   C2B67544  31.263  13.332   6.640
 5368POPC   C3B67545  31.431  13.204   6.986
 5368POPC   C4B67546  31.716  13.265   7.263
 5369POPC   NC367547  10.056  26.576   5.545
 5369POPC   PO467548  10.599  26.882   5.571
 5369POPC   GL167549  10.791  26.758   5.961
 5369POPC   GL267550  10.723  26.466   5.904
 5369POPC   C1A67551  10.814  26.607   6.400
 5369POPC   D2A67552  10.725  26.933   6.681
 5369POPC   C3A67553  10.776  26.900   7.126
 5369POPC   C4A67554  10.407  26.952   7.384
 5369POPC   C1B67555  10.356  26.563   6.188
 5369POPC   C2B67556  10.363  26.405   6.624
 5369POPC   C3B67557  10.375  26.568   7.049
 5369POPC   C4B67558  10.357  26.489   7.529
 5370POPC   NC367559  42.062  25.888   5.261
 5370POPC   PO467560  42.687  26.164   5.177
 5370POPC   GL167561  42.437  26.039   5.593
 5370POPC   GL267562  42.252  25.726   5.688
 5370POPC   C1A67563  42.359  26.094   6.066
 5370POPC   D2A67564  42.444  26.205   6.531
 5370POPC   C3A67565  42.173  26.087   6.855
 5370POPC   C4A67566  42.362  26.106   7.249
 5370POPC   C1B67567  41.926  25.790   5.991
 5370POPC   C2B67568  41.904  25.829   6.430
 5370POPC   C3B67569  41.988  25.605   6.809
 5370POPC   C4B67570  42.054  25.700   7.234
 5371POPC   NC367571  32.242   7.679   5.518
 5371POPC   PO467572  32.145   8.298   5.338
 5371POPC   GL167573  32.147   8.274   5.799
 5371POPC   GL267574  32.428   8.539   5.858
 5371POPC   C1A67575  32.087   8.050   6.222
 5371POPC   D2A67576  32.355   8.187   6.591
 5371POPC   C3A67577  32.288   8.137   7.008
 5371POPC   C4A67578  32.570   8.106   7.355
 5371POPC   C1B67579  32.221   8.556   6.257
 5371POPC   C2B67580  31.868   8.411   6.540
 5371POPC   C3B67581  31.940   8.497   6.970
 5371POPC   C4B67582  32.372   8.637   7.088
 5372POPC   NC367583  14.863  42.203   5.541
 5372POPC   PO467584  14.270  42.354   5.192
 5372POPC   GL167585  14.379  42.362   5.654
 5372POPC   GL267586  14.135  42.137   5.818
 5372POPC   C1A67587  14.423  42.413   6.126
 5372POPC   D2A67588  14.276  42.557   6.531
 5372POPC   C3A67589  14.457  42.420   6.951
 5372POPC   C4A67590  14.281  42.489   7.362
 5372POPC   C1B67591  14.160  42.015   6.276
 5372POPC   C2B67592  14.131  42.099   6.717
 5372POPC   C3B67593  14.241  41.996   7.165
 5372POPC   C4B67594  14.225  41.844   7.610
 5373POPC   NC367595   1.580  35.644   5.080
 5373POPC   PO467596   1.411  35.148   5.500
 5373POPC   GL167597   1.098  35.292   5.777
 5373POPC   GL267598   1.349  35.234   6.017
 5373POPC   C1A67599   0.991  35.531   6.180
 5373POPC   D2A67600   1.273  35.424   6.517
 5373POPC   C3A67601   1.236  35.536   6.942
 5373POPC   C4A67602   1.586  35.670   7.194
 5373POPC   C1B67603   1.031  35.013   6.260
 5373POPC   C2B67604   0.904  35.116   6.705
 5373POPC   C3B67605   0.885  35.182   7.164
 5373POPC   C4B67606   1.022  34.920   7.522
 5374POPC   NC367607   3.089  20.857   5.536
 5374POPC   PO467608   2.512  20.516   5.427
 5374POPC   GL167609   2.599  20.408   5.903
 5374POPC   GL267610   2.949  20.533   5.937
 5374POPC   C1A67611   2.676  20.393   6.392
 5374POPC   D2A67612   3.043  20.241   6.645
 5374POPC   C3A67613   2.980  20.394   7.059
 5374POPC   C4A67614   2.541  20.493   7.102
 5374POPC   C1B67615   2.816  20.852   6.262
 5374POPC   C2B67616   2.629  20.830   6.700
 5374POPC   C3B67617   2.732  20.977   7.123
 5374POPC   C4B67618   2.637  21.123   7.555
 5375POPC   NC367619   9.872   6.472   5.429
 5375POPC   PO467620   9.529   7.000   5.496
 5375POPC   GL167621   9.603   6.669   5.813
 5375POPC   GL267622   9.930   6.798   5.845
 5375POPC   C1A67623   9.739   6.527   6.234
 5375POPC   D2A67624   9.667   6.704   6.661
 5375POPC   C3A67625   9.503   6.434   7.003
 5375POPC   C4A67626   9.635   6.561   7.415
 5375POPC   C1B67627   9.838   7.028   6.268
 5375POPC   C2B67628  10.069   7.048   6.674
 5375POPC   C3B67629  10.097   7.023   7.123
 5375POPC   C4B67630   9.974   6.888   7.572
 5376POPC   NC367631  24.359  34.004   5.474
 5376POPC   PO467632  24.491  33.377   5.466
 5376POPC   GL167633  24.616  33.658   5.793
 5376POPC   GL267634  24.793  33.969   5.752
 5376POPC   C1A67635  24.720  33.625   6.223
 5376POPC   D2A67636  24.522  33.607   6.611
 5376POPC   C3A67637  24.605  33.888   6.929
 5376POPC   C4A67638  24.805  33.942   7.308
 5376POPC   C1B67639  24.619  34.107   6.151
 5376POPC   C2B67640  24.322  34.090   6.526
 5376POPC   C3B67641  24.148  34.164   6.948
 5376POPC   C4B67642  24.303  34.080   7.366
 5377POPC   NC367643  27.764  23.467   5.480
 5377POPC   PO467644  27.532  24.143   5.427
 5377POPC   GL167645  27.704  23.888   5.807
 5377POPC   GL267646  27.540  23.551   5.918
 5377POPC   C1A67647  27.807  23.808   6.268
 5377POPC   D2A67648  27.534  23.718   6.646
 5377POPC   C3A67649  27.660  23.563   7.043
 5377POPC   C4A67650  27.623  23.907   7.249
 5377POPC   C1B67651  27.253  23.705   6.223
 5377POPC   C2B67652  27.037  23.550   6.569
 5377POPC   C3B67653  27.153  23.552   6.987
 5377POPC   C4B67654  27.234  23.442   7.391
 5378POPC   NC367655  17.153   5.497   5.302
 5378POPC   PO467656  16.571   5.841   5.181
 5378POPC   GL167657  16.751   5.770   5.673
 5378POPC   GL267658  17.115   5.694   5.791
 5378POPC   C1A67659  16.796   5.833   6.192
 5378POPC   D2A67660  16.602   5.825   6.653
 5378POPC   C3A67661  16.519   5.888   7.149
 5378POPC   C4A67662  16.343   5.935   7.605
 5378POPC   C1B67663  17.204   5.505   6.226
 5378POPC   C2B67664  17.175   5.466   6.707
 5378POPC   C3B67665  17.069   5.734   7.095
 5378POPC   C4B67666  17.281   5.653   7.503
 5379POPC   NC367667  24.342  41.234   5.457
 5379POPC   PO467668  24.617  40.558   5.467
 5379POPC   GL167669  24.727  40.761   5.850
 5379POPC   GL267670  24.357  40.726   5.903
 5379POPC   C1A67671  24.672  40.707   6.311
 5379POPC   D2A67672  24.351  40.686   6.651
 5379POPC   C3A67673  24.581  40.698   7.026
 5379POPC   C4A67674  24.909  40.450   7.138
 5379POPC   C1B67675  24.221  40.998   6.243
 5379POPC   C2B67676  24.015  41.098   6.637
 5379POPC   C3B67677  24.166  41.015   7.056
 5379POPC   C4B67678  24.206  40.698   7.372
 5380POPC   NC367679  27.789  36.541   5.605
 5380POPC   PO467680  27.242  36.882   5.261
 5380POPC   GL167681  27.369  36.991   5.696
 5380POPC   GL267682  27.402  36.719   5.887
 5380POPC   C1A67683  27.640  37.126   6.051
 5380POPC   D2A67684  27.787  36.917   6.423
 5380POPC   C3A67685  27.644  36.987   6.859
 5380POPC   C4A67686  27.841  36.820   7.227
 5380POPC   C1B67687  27.143  36.582   6.213
 5380POPC   C2B67688  27.085  36.783   6.601
 5380POPC   C3B67689  27.216  36.635   7.013
 5380POPC   C4B67690  27.351  36.934   7.318
 5381POPC   NC367691  42.778  44.709   5.503
 5381POPC   PO467692  43.369  44.432   5.404
 5381POPC   GL167693  43.273  44.645   5.775
 5381POPC   GL267694  43.347   0.015   5.786
 5381POPC   C1A67695  43.150  44.703   6.186
 5381POPC   D2A67696  43.102  44.476   6.577
 5381POPC   C3A67697  42.857  44.617   6.893
 5381POPC   C4A67698  42.976  44.553   7.288
 5381POPC   C1B67699  43.518   0.073   6.203
 5381POPC   C2B67700  43.370  44.932   6.598
 5381POPC   C3B67701  43.367  44.725   6.979
 5381POPC   C4B67702  43.294  44.929   7.343
 5382POPC   NC367703  43.723  15.320   5.113
 5382POPC   PO467704  43.745  14.788   5.650
 5382POPC   GL167705  43.744  15.166   5.864
 5382POPC   GL267706  44.040  15.270   5.707
 5382POPC   C1A67707  43.774  15.214   6.307
 5382POPC   D2A67708  43.772  15.430   6.704
 5382POPC   C3A67709  43.611  15.149   7.045
 5382POPC   C4A67710  43.736  15.251   7.475
 5382POPC   C1B67711  44.228  15.135   6.101
 5382POPC   C2B67712  44.234  15.223   6.555
 5382POPC   C3B67713  44.124  15.205   7.003
 5382POPC   C4B67714  44.029  14.879   7.235
 5383POPC   NC367715   6.219  40.240   5.438
 5383POPC   PO467716   5.683  40.680   5.428
 5383POPC   GL167717   5.782  40.651   5.868
 5383POPC   GL267718   6.121  40.519   5.859
 5383POPC   C1A67719   5.681  40.801   6.289
 5383POPC   D2A67720   5.842  40.709   6.704
 5383POPC   C3A67721   5.603  40.816   7.050
 5383POPC   C4A67722   5.795  40.778   7.443
 5383POPC   C1B67723   6.200  40.721   6.252
 5383POPC   C2B67724   6.348  40.783   6.663
 5383POPC   C3B67725   6.218  40.753   7.116
 5383POPC   C4B67726   6.186  40.482   7.537
 5384POPC   NC367727  19.387  31.500   5.227
 5384POPC   PO467728  18.742  31.468   5.357
 5384POPC   GL167729  19.067  31.620   5.645
 5384POPC   GL267730  19.178  31.293   5.707
 5384POPC   C1A67731  19.207  31.666   6.103
 5384POPC   D2A67732  19.073  31.480   6.522
 5384POPC   C3A67733  19.150  31.687   6.923
 5384POPC   C4A67734  19.393  31.720   7.301
 5384POPC   C1B67735  19.333  31.165   6.103
 5384POPC   C2B67736  19.563  31.272   6.456
 5384POPC   C3B67737  19.461  31.286   6.875
 5384POPC   C4B67738  19.298  31.207   7.271
 5385POPC   NC367739  25.543  25.731   5.547
 5385POPC   PO467740  25.274  26.372   5.416
 5385POPC   GL167741  25.232  26.200   5.842
 5385POPC   GL267742  25.580  26.078   5.939
 5385POPC   C1A67743  25.166  26.027   6.254
 5385POPC   D2A67744  25.445  26.081   6.616
 5385POPC   C3A67745  25.250  26.169   7.029
 5385POPC   C4A67746  25.410  26.091   7.446
 5385POPC   C1B67747  25.605  25.715   6.239
 5385POPC   C2B67748  25.598  25.585   6.669
 5385POPC   C3B67749  25.626  25.774   7.089
 5385POPC   C4B67750  25.753  25.751   7.581
 5386POPC   NC367751  30.850   6.823   5.040
 5386POPC   PO467752  30.714   7.488   5.290
 5386POPC   GL167753  30.718   7.463   5.737
 5386POPC   GL267754  30.488   7.197   5.797
 5386POPC   C1A67755  30.648   7.657   6.154
 5386POPC   D2A67756  30.503   7.635   6.593
 5386POPC   C3A67757  30.774   7.712   6.971
 5386POPC   C4A67758  30.672   7.663   7.424
 5386POPC   C1B67759  30.734   7.146   6.166
 5386POPC   C2B67760  30.860   7.225   6.608
 5386POPC   C3B67761  30.657   7.203   7.021
 5386POPC   C4B67762  30.962   7.260   7.341
 5387POPC   NC367763  31.051  25.697   5.073
 5387POPC   PO467764  30.579  26.050   5.383
 5387POPC   GL167765  30.487  25.923   5.849
 5387POPC   GL267766  30.808  25.861   5.948
 5387POPC   C1A67767  30.539  25.862   6.349
 5387POPC   D2A67768  30.676  26.133   6.702
 5387POPC   C3A67769  30.606  26.029   7.139
 5387POPC   C4A67770  30.349  26.247   7.462
 5387POPC   C1B67771  31.044  26.188   6.171
 5387POPC   C2B67772  31.225  26.272   6.604
 5387POPC   C3B67773  31.053  26.357   7.028
 5387POPC   C4B67774  30.940  26.347   7.463
 5388POPC   NC367775  31.787   7.041   5.314
 5388POPC   PO467776  32.405   7.375   5.208
 5388POPC   GL167777  32.165   7.211   5.661
 5388POPC   GL267778  32.383   7.098   5.911
 5388POPC   C1A67779  32.071   7.427   6.127
 5388POPC   D2A67780  31.905   7.499   6.584
 5388POPC   C3A67781  32.191   7.641   6.913
 5388POPC   C4A67782  32.434   7.560   7.282
 5388POPC   C1B67783  32.270   6.951   6.300
 5388POPC   C2B67784  32.370   7.250   6.597
 5388POPC   C3B67785  32.668   7.345   6.894
 5388POPC   C4B67786  32.761   7.159   7.261
 5389POPC   NC367787  10.723  30.733   5.518
 5389POPC   PO467788  10.051  30.398   5.364
 5389POPC   GL167789  10.308  30.470   5.739
 5389POPC   GL267790  10.204  30.819   5.805
 5389POPC   C1A67791  10.417  30.522   6.210
 5389POPC   D2A67792  10.554  30.756   6.591
 5389POPC   C3A67793  10.327  30.658   6.955
 5389POPC   C4A67794  10.461  30.401   7.274
 5389POPC   C1B67795  10.333  31.033   6.210
 5389POPC   C2B67796  10.157  31.103   6.650
 5389POPC   C3B67797  10.357  31.148   7.053
 5389POPC   C4B67798  10.640  30.873   7.327
 5390POPC   NC367799  37.552  14.874   5.450
 5390POPC   PO467800  37.934  15.380   5.268
 5390POPC   GL167801  37.833  15.217   5.712
 5390POPC   GL267802  37.493  15.249   5.788
 5390POPC   C1A67803  37.740  15.008   6.138
 5390POPC   D2A67804  37.796  15.237   6.529
 5390POPC   C3A67805  37.749  15.060   6.920
 5390POPC   C4A67806  37.923  14.803   7.211
 5390POPC   C1B67807  37.452  15.461   6.198
 5390POPC   C2B67808  37.234  15.497   6.606
 5390POPC   C3B67809  37.268  15.661   7.005
 5390POPC   C4B67810  37.671  15.523   7.186
 5391POPC   NC367811  21.055  28.619   5.510
 5391POPC   PO467812  21.531  28.222   5.419
 5391POPC   GL167813  21.315  28.303   5.808
 5391POPC   GL267814  20.974  28.256   5.938
 5391POPC   C1A67815  21.338  28.493   6.215
 5391POPC   D2A67816  21.599  28.305   6.514
 5391POPC   C3A67817  21.486  28.441   6.909
 5391POPC   C4A67818  21.611  28.719   7.215
 5391POPC   C1B67819  20.932  28.023   6.325
 5391POPC   C2B67820  21.133  28.097   6.743
 5391POPC   C3B67821  21.072  28.273   7.181
 5391POPC   C4B67822  21.070  28.038   7.597
 5392POPC   NC367823  28.623  27.320   5.250
 5392POPC   PO467824  28.268  27.917   5.396
 5392POPC   GL167825  28.246  27.643   5.794
 5392POPC   GL267826  28.105  27.287   5.827
 5392POPC   C1A67827  28.310  27.744   6.264
 5392POPC   D2A67828  28.382  27.785   6.724
 5392POPC   C3A67829  28.654  27.575   7.054
 5392POPC   C4A67830  28.353  27.606   7.382
 5392POPC   C1B67831  27.932  27.410   6.226
 5392POPC   C2B67832  28.167  27.286   6.567
 5392POPC   C3B67833  28.261  27.271   6.970
 5392POPC   C4B67834  28.371  27.012   7.280
 5393POPC   NC367835  43.466  39.742   5.495
 5393POPC   PO467836  43.128  40.318   5.464
 5393POPC   GL167837  42.995  40.137   5.812
 5393POPC   GL267838  43.308  40.041   5.883
 5393POPC   C1A67839  42.958  40.303   6.212
 5393POPC   D2A67840  43.177  40.188   6.566
 5393POPC   C3A67841  42.947  40.164   6.913
 5393POPC   C4A67842  42.836  40.037   7.311
 5393POPC   C1B67843  43.493  39.966   6.237
 5393POPC   C2B67844  43.679  40.122   6.636
 5393POPC   C3B67845  43.422  40.016   7.006
 5393POPC   C4B67846  43.310  40.084   7.453
 5394POPC   NC367847  34.108  29.976   5.409
 5394POPC   PO467848  33.494  30.097   5.333
 5394POPC   GL167849  33.755  30.190   5.758
 5394POPC   GL267850  33.944  29.855   5.873
 5394POPC   C1A67851  33.900  30.186   6.239
 5394POPC   D2A67852  33.896  29.838   6.519
 5394POPC   C3A67853  33.781  29.985   6.927
 5394POPC   C4A67854  33.812  29.794   7.362
 5394POPC   C1B67855  34.153  29.551   6.132
 5394POPC   C2B67856  34.191  29.434   6.589
 5394POPC   C3B67857  34.219  29.701   6.953
 5394POPC   C4B67858  34.170  30.118   7.212
 5395POPC   NC367859  39.500  39.897   5.354
 5395POPC   PO467860  40.093  40.164   5.355
 5395POPC   GL167861  40.083  40.113   5.789
 5395POPC   GL267862  39.801  39.902   5.796
 5395POPC   C1A67863  40.154  39.845   6.176
 5395POPC   D2A67864  40.398  39.736   6.546
 5395POPC   C3A67865  40.182  39.859   6.918
 5395POPC   C4A67866  40.201  40.302   7.045
 5395POPC   C1B67867  39.783  40.211   6.165
 5395POPC   C2B67868  39.974  40.193   6.572
 5395POPC   C3B67869  39.731  40.088   6.936
 5395POPC   C4B67870  39.518  40.057   7.293
 5396POPC   NC367871  40.576   7.704   5.356
 5396POPC   PO467872  41.016   7.217   5.352
 5396POPC   GL167873  40.972   7.547   5.691
 5396POPC   GL267874  40.641   7.528   5.837
 5396POPC   C1A67875  41.016   7.682   6.136
 5396POPC   D2A67876  40.850   7.487   6.510
 5396POPC   C3A67877  40.720   7.605   6.904
 5396POPC   C4A67878  40.648   7.253   7.174
 5396POPC   C1B67879  40.512   7.732   6.226
 5396POPC   C2B67880  40.229   7.825   6.531
 5396POPC   C3B67881  39.959   7.631   6.801
 5396POPC   C4B67882  40.241   7.551   7.115
 5397POPC   NC367883  36.332  36.845   5.187
 5397POPC   PO467884  35.737  36.563   5.258
 5397POPC   GL167885  35.910  36.678   5.712
 5397POPC   GL267886  36.257  36.824   5.721
 5397POPC   C1A67887  35.949  36.943   6.112
 5397POPC   D2A67888  36.075  36.931   6.570
 5397POPC   C3A67889  35.836  37.101   6.966
 5397POPC   C4A67890  35.986  37.412   7.224
 5397POPC   C1B67891  36.431  36.769   6.187
 5397POPC   C2B67892  36.605  36.936   6.623
 5397POPC   C3B67893  36.366  37.050   6.985
 5397POPC   C4B67894  36.110  36.724   7.168
 5398POPC   NC367895  28.458   3.129   5.477
 5398POPC   PO467896  27.965   2.661   5.433
 5398POPC   GL167897  28.080   2.940   5.764
 5398POPC   GL267898  28.338   2.697   5.864
 5398POPC   C1A67899  28.252   3.064   6.197
 5398POPC   D2A67900  28.391   2.795   6.551
 5398POPC   C3A67901  28.611   2.904   6.942
 5398POPC   C4A67902  28.887   3.167   7.175
 5398POPC   C1B67903  28.046   2.556   6.233
 5398POPC   C2B67904  27.947   2.543   6.692
 5398POPC   C3B67905  28.310   2.456   6.923
 5398POPC   C4B67906  28.450   2.195   7.237
 5399POPC   NC367907   4.631   6.645   5.419
 5399POPC   PO467908   5.246   6.511   5.639
 5399POPC   GL167909   5.009   6.814   5.850
 5399POPC   GL267910   4.735   6.612   5.915
 5399POPC   C1A67911   4.887   6.919   6.288
 5399POPC   D2A67912   4.980   6.750   6.683
 5399POPC   C3A67913   4.801   6.765   7.076
 5399POPC   C4A67914   4.983   6.962   7.423
 5399POPC   C1B67915   4.833   6.410   6.292
 5399POPC   C2B67916   4.626   6.376   6.680
 5399POPC   C3B67917   4.758   6.274   7.091
 5399POPC   C4B67918   4.963   6.443   7.451
 5400POPC   NC367919  32.702  38.738   5.581
 5400POPC   PO467920  33.274  38.434   5.394
 5400POPC   GL167921  33.185  38.526   5.807
 5400POPC   GL267922  33.460  38.676   5.959
 5400POPC   C1A67923  33.073  38.405   6.233
 5400POPC   D2A67924  33.164  38.224   6.644
 5400POPC   C3A67925  32.819  38.296   6.881
 5400POPC   C4A67926  32.630  38.320   7.255
 5400POPC   C1B67927  33.264  38.877   6.314
 5400POPC   C2B67928  33.288  38.884   6.742
 5400POPC   C3B67929  33.258  38.577   7.040
 5400POPC   C4B67930  33.147  38.220   7.275
 5401POPC   NC367931  38.152  35.825   5.498
 5401POPC   PO467932  37.649  35.361   5.308
 5401POPC   GL167933  37.505  35.356   5.763
 5401POPC   GL267934  37.778  35.561   5.828
 5401POPC   C1A67935  37.571  35.236   6.253
 5401POPC   D2A67936  37.305  35.198   6.661
 5401POPC   C3A67937  37.518  35.263   7.072
 5401POPC   C4A67938  37.959  35.326   7.135
 5401POPC   C1B67939  37.687  35.747   6.243
 5401POPC   C2B67940  37.687  35.589   6.688
 5401POPC   C3B67941  37.677  35.786   7.105
 5401POPC   C4B67942  38.066  35.864   7.346
 5402POPC   NC367943  40.287  31.059   5.542
 5402POPC   PO467944  40.088  31.710   5.487
 5402POPC   GL167945  40.083  31.496   5.875
 5402POPC   GL267946  39.879  31.238   5.775
 5402POPC   C1A67947  39.964  31.689   6.293
 5402POPC   D2A67948  39.721  31.755   6.696
 5402POPC   C3A67949  40.037  31.688   6.996
 5402POPC   C4A67950  40.219  31.392   7.263
 5402POPC   C1B67951  39.779  31.234   6.194
 5402POPC   C2B67952  39.968  31.289   6.615
 5402POPC   C3B67953  39.767  31.265   7.030
 5402POPC   C4B67954  39.767  31.104   7.431
 5403POPC   NC367955  12.483  24.502   5.449
 5403POPC   PO467956  11.757  24.585   5.408
 5403POPC   GL167957  11.926  24.648   5.792
 5403POPC   GL267958  12.138  24.346   5.845
 5403POPC   C1A67959  11.779  24.576   6.204
 5403POPC   D2A67960  11.785  24.393   6.594
 5403POPC   C3A67961  11.882  24.644   6.919
 5403POPC   C4A67962  12.003  24.487   7.272
 5403POPC   C1B67963  12.305  24.390   6.275
 5403POPC   C2B67964  12.297  24.425   6.721
 5403POPC   C3B67965  12.341  24.181   7.072
 5403POPC   C4B67966  12.299  24.167   7.542
 5404POPC   NC367967   4.981  14.387   5.361
 5404POPC   PO467968   5.508  14.314   5.743
 5404POPC   GL167969   5.066  14.389   5.881
 5404POPC   GL267970   4.912  14.704   5.769
 5404POPC   C1A67971   4.991  14.419   6.346
 5404POPC   D2A67972   5.270  14.144   6.630
 5404POPC   C3A67973   5.264  14.212   7.072
 5404POPC   C4A67974   4.868  14.383   7.236
 5404POPC   C1B67975   5.265  14.816   6.074
 5404POPC   C2B67976   5.374  14.752   6.505
 5404POPC   C3B67977   5.130  14.649   6.856
 5404POPC   C4B67978   5.301  14.696   7.263
 5405POPC   NC367979   0.781   5.986   5.468
 5405POPC   PO467980   1.338   5.622   5.326
 5405POPC   GL167981   1.428   5.796   5.774
 5405POPC   GL267982   1.563   6.137   5.798
 5405POPC   C1A67983   1.263   5.817   6.193
 5405POPC   D2A67984   1.032   5.656   6.536
 5405POPC   C3A67985   1.051   5.848   6.911
 5405POPC   C4A67986   1.097   6.220   7.144
 5405POPC   C1B67987   1.327   6.316   6.176
 5405POPC   C2B67988   1.313   6.174   6.628
 5405POPC   C3B67989   1.544   6.028   7.013
 5405POPC   C4B67990   1.548   6.297   7.374
 5406POPC   NC367991  26.472  38.878   5.693
 5406POPC   PO467992  26.516  38.199   5.529
 5406POPC   GL167993  26.202  38.444   5.811
 5406POPC   GL267994  26.372  38.613   6.105
 5406POPC   C1A67995  25.893  38.576   6.172
 5406POPC   D2A67996  26.149  38.572   6.588
 5406POPC   C3A67997  26.202  38.762   6.979
 5406POPC   C4A67998  26.054  38.810   7.395
 5406POPC   C1B67999  26.246  38.190   6.269
 5406POPC   C2B68000  26.303  38.042   6.692
 5406POPC   C3B68001  26.567  38.190   7.040
 5406POPC   C4B68002  26.296  38.375   7.347
 5407POPC   NC368003  16.162  28.852   5.383
 5407POPC   PO468004  15.610  29.254   5.420
 5407POPC   GL168005  15.890  29.112   5.763
 5407POPC   GL268006  16.118  29.387   5.788
 5407POPC   C1A68007  16.058  29.153   6.220
 5407POPC   D2A68008  15.855  29.268   6.592
 5407POPC   C3A68009  16.100  29.206   6.930
 5407POPC   C4A68010  16.087  28.991   7.307
 5407POPC   C1B68011  15.770  29.561   6.062
 5407POPC   C2B68012  15.794  29.764   6.483
 5407POPC   C3B68013  15.790  29.663   6.928
 5407POPC   C4B68014  15.857  29.437   7.314
 5408POPC   NC368015  34.881  35.885   5.483
 5408POPC   PO468016  34.514  35.300   5.546
 5408POPC   GL168017  34.486  35.267   5.961
 5408POPC   GL268018  34.505  35.639   5.929
 5408POPC   C1A68019  34.505  35.108   6.399
 5408POPC   D2A68020  34.391  35.336   6.783
 5408POPC   C3A68021  34.653  35.219   7.112
 5408POPC   C4A68022  34.594  35.120   7.574
 5408POPC   C1B68023  34.545  35.690   6.354
 5408POPC   C2B68024  34.836  35.782   6.656
 5408POPC   C3B68025  34.669  35.762   7.051
 5408POPC   C4B68026  34.331  35.576   7.284
 5409POPC   NC368027  26.511  22.321   5.545
 5409POPC   PO468028  26.650  21.733   5.500
 5409POPC   GL168029  26.786  22.078   5.878
 5409POPC   GL268030  26.970  22.408   5.807
 5409POPC   C1A68031  26.638  22.445   6.193
 5409POPC   D2A68032  26.777  22.379   6.629
 5409POPC   C3A68033  26.503  22.105   6.790
 5409POPC   C4A68034  26.658  21.967   7.090
 5409POPC   C1B68035  27.130  22.367   6.246
 5409POPC   C2B68036  27.328  22.227   6.619
 5409POPC   C3B68037  27.153  22.163   7.035
 5409POPC   C4B68038  27.303  22.314   7.432
 5410POPC   NC368039  29.075  12.636   5.272
 5410POPC   PO468040  29.706  12.635   5.514
 5410POPC   GL168041  29.362  12.584   5.841
 5410POPC   GL268042  29.012  12.481   5.782
 5410POPC   C1A68043  29.104  12.867   6.133
 5410POPC   D2A68044  29.197  12.986   6.577
 5410POPC   C3A68045  28.999  12.921   7.002
 5410POPC   C4A68046  29.027  12.920   7.483
 5410POPC   C1B68047  29.082  12.386   6.234
 5410POPC   C2B68048  29.242  12.470   6.663
 5410POPC   C3B68049  29.192  12.469   7.101
 5410POPC   C4B68050  28.999  12.428   7.494
 5411POPC   NC368051   0.979   9.827   5.435
 5411POPC   PO468052   1.573   9.561   5.586
 5411POPC   GL168053   1.239   9.715   5.872
 5411POPC   GL268054   0.855   9.613   5.865
 5411POPC   C1A68055   1.001   9.921   6.221
 5411POPC   D2A68056   0.993  10.143   6.587
 5411POPC   C3A68057   0.910   9.981   6.972
 5411POPC   C4A68058   1.324   9.944   7.154
 5411POPC   C1B68059   1.051   9.380   6.206
 5411POPC   C2B68060   1.229   9.477   6.588
 5411POPC   C3B68061   1.095   9.507   7.004
 5411POPC   C4B68062   1.255   9.514   7.427
 5412POPC   NC368063  19.932  40.503   5.451
 5412POPC   PO468064  20.277  40.934   5.191
 5412POPC   GL168065  19.952  40.937   5.690
 5412POPC   GL268066  19.824  40.615   5.940
 5412POPC   C1A68067  20.000  41.006   6.176
 5412POPC   D2A68068  19.980  40.676   6.525
 5412POPC   C3A68069  19.946  40.796   6.972
 5412POPC   C4A68070  20.086  41.070   7.304
 5412POPC   C1B68071  19.599  40.369   6.320
 5412POPC   C2B68072  19.566  40.287   6.803
 5412POPC   C3B68073  19.500  40.620   7.174
 5412POPC   C4B68074  19.404  40.622   7.612
 5413POPC   NC368075  21.430  24.238   5.289
 5413POPC   PO468076  20.929  24.671   5.483
 5413POPC   GL168077  21.182  24.495   5.789
 5413POPC   GL268078  21.341  24.180   5.812
 5413POPC   C1A68079  21.394  24.646   6.164
 5413POPC   D2A68080  21.659  24.597   6.526
 5413POPC   C3A68081  21.414  24.526   6.882
 5413POPC   C4A68082  21.268  24.716   7.228
 5413POPC   C1B68083  21.628  24.183   6.184
 5413POPC   C2B68084  21.848  24.112   6.567
 5413POPC   C3B68085  21.852  24.310   6.956
 5413POPC   C4B68086  21.958  24.167   7.332
 5414POPC   NC368087  27.018  31.655   5.334
 5414POPC   PO468088  26.351  31.557   5.486
 5414POPC   GL168089  26.610  31.415   5.814
 5414POPC   GL268090  26.843  31.199   5.659
 5414POPC   C1A68091  26.699  31.458   6.263
 5414POPC   D2A68092  26.852  31.695   6.612
 5414POPC   C3A68093  26.782  31.506   7.003
 5414POPC   C4A68094  26.840  31.766   7.353
 5414POPC   C1B68095  26.973  31.071   6.114
 5414POPC   C2B68096  27.081  31.216   6.576
 5414POPC   C3B68097  27.047  31.059   7.040
 5414POPC   C4B68098  26.893  31.253   7.456
 5415POPC   NC368099  26.595  43.332   5.530
 5415POPC   PO468100  27.058  42.793   5.474
 5415POPC   GL168101  27.019  43.135   5.761
 5415POPC   GL268102  26.756  42.976   5.935
 5415POPC   C1A68103  27.023  43.368   6.168
 5415POPC   D2A68104  26.841  43.347   6.586
 5415POPC   C3A68105  27.064  43.307   6.977
 5415POPC   C4A68106  27.226  42.976   7.226
 5415POPC   C1B68107  26.520  42.859   6.313
 5415POPC   C2B68108  26.446  43.070   6.713
 5415POPC   C3B68109  26.546  43.227   7.085
 5415POPC   C4B68110  26.505  42.892   7.381
 5416POPC   NC368111  26.311  41.658   5.556
 5416POPC   PO468112  25.753  41.577   5.256
 5416POPC   GL168113  25.815  41.684   5.698
 5416POPC   GL268114  25.973  41.387   5.821
 5416POPC   C1A68115  26.033  41.855   6.109
 5416POPC   D2A68116  26.007  41.772   6.546
 5416POPC   C3A68117  26.323  41.658   6.835
 5416POPC   C4A68118  26.219  41.599   7.248
 5416POPC   C1B68119  26.162  41.356   6.217
 5416POPC   C2B68120  26.079  41.263   6.616
 5416POPC   C3B68121  26.155  41.143   7.005
 5416POPC   C4B68122  26.145  40.931   7.368
 5417POPC   NC368123   9.413  31.432   5.432
 5417POPC   PO468124  10.063  31.141   5.314
 5417POPC   GL168125   9.907  31.277   5.752
 5417POPC   GL268126   9.554  31.330   5.892
 5417POPC   C1A68127   9.934  31.340   6.231
 5417POPC   D2A68128   9.840  31.535   6.623
 5417POPC   C3A68129   9.874  31.386   7.045
 5417POPC   C4A68130   9.545  31.601   7.284
 5417POPC   C1B68131   9.463  31.100   6.244
 5417POPC   C2B68132   9.597  31.077   6.647
 5417POPC   C3B68133   9.408  31.216   6.990
 5417POPC   C4B68134   9.196  31.232   7.351
 5418POPC   NC368135  34.889   3.786   5.142
 5418POPC   PO468136  34.609   3.287   5.350
 5418POPC   GL168137  34.546   3.536   5.704
 5418POPC   GL268138  34.200   3.627   5.801
 5418POPC   C1A68139  34.615   3.644   6.134
 5418POPC   D2A68140  34.406   3.791   6.505
 5418POPC   C3A68141  34.756   3.786   6.777
 5418POPC   C4A68142  34.750   3.549   7.119
 5418POPC   C1B68143  34.263   3.296   6.142
 5418POPC   C2B68144  34.371   3.295   6.597
 5418POPC   C3B68145  34.174   3.571   6.916
 5418POPC   C4B68146  34.307   3.753   7.307
 5419POPC   NC368147  29.853  34.133   5.458
 5419POPC   PO468148  30.145  34.808   5.464
 5419POPC   GL168149  29.821  34.578   5.704
 5419POPC   GL268150  29.553  34.770   5.746
 5419POPC   C1A68151  29.693  34.392   6.116
 5419POPC   D2A68152  29.848  34.571   6.520
 5419POPC   C3A68153  29.799  34.397   6.937
 5419POPC   C4A68154  30.177  34.390   7.196
 5419POPC   C1B68155  29.637  34.902   6.171
 5419POPC   C2B68156  29.413  34.806   6.574
 5419POPC   C3B68157  29.597  34.882   6.942
 5419POPC   C4B68158  29.884  34.813   7.247
 5420POPC   NC368159  30.473  11.670   5.509
 5420POPC   PO468160  30.616  12.333   5.326
 5420POPC   GL168161  30.800  12.333   5.791
 5420POPC   GL268162  30.845  11.976   5.804
 5420POPC   C1A68163  30.758  12.373   6.281
 5420POPC   D2A68164  30.943  12.449   6.718
 5420POPC   C3A68165  30.660  12.287   7.048
 5420POPC   C4A68166  30.434  11.879   7.142
 5420POPC   C1B68167  31.015  11.774   6.140
 5420POPC   C2B68168  31.169  11.835   6.534
 5420POPC   C3B68169  30.921  11.836   6.869
 5420POPC   C4B68170  30.955  11.936   7.251
 5421POPC   NC368171  19.466  23.257   5.386
 5421POPC   PO468172  19.805  22.720   5.461
 5421POPC   GL168173  19.861  22.825   5.882
 5421POPC   GL268174  19.837  23.176   5.905
 5421POPC   C1A68175  19.779  22.804   6.319
 5421POPC   D2A68176  19.952  23.051   6.617
 5421POPC   C3A68177  19.870  22.834   6.948
 5421POPC   C4A68178  20.107  22.796   7.275
 5421POPC   C1B68179  19.461  23.158   6.149
 5421POPC   C2B68180  19.366  23.042   6.583
 5421POPC   C3B68181  19.409  23.079   7.024
 5421POPC   C4B68182  19.712  23.211   7.267
 5422POPC   NC368183  15.518   7.096   5.445
 5422POPC   PO468184  15.993   7.559   5.296
 5422POPC   GL168185  15.962   7.398   5.748
 5422POPC   GL268186  15.736   7.166   5.909
 5422POPC   C1A68187  16.099   7.372   6.192
 5422POPC   D2A68188  15.946   7.585   6.565
 5422POPC   C3A68189  16.099   7.465   6.950
 5422POPC   C4A68190  16.051   7.276   7.306
 5422POPC   C1B68191  15.604   7.290   6.323
 5422POPC   C2B68192  15.667   7.201   6.777
 5422POPC   C3B68193  15.578   7.362   7.183
 5422POPC   C4B68194  15.671   7.473   7.604
 5423POPC   NC368195   0.828   3.382   5.494
 5423POPC   PO468196   1.505   3.334   5.514
 5423POPC   GL168197   1.383   3.480   5.901
 5423POPC   GL268198   1.026   3.430   5.971
 5423POPC   C1A68199   1.390   3.628   6.318
 5423POPC   D2A68200   1.090   3.528   6.623
 5423POPC   C3A68201   1.286   3.405   6.985
 5423POPC   C4A68202   1.059   3.430   7.359
 5423POPC   C1B68203   0.911   3.791   6.218
 5423POPC   C2B68204   1.118   4.074   6.487
 5423POPC   C3B68205   1.345   3.947   6.848
 5423POPC   C4B68206   1.305   3.868   7.284
 5424POPC   NC368207  21.786  44.734   5.424
 5424POPC   PO468208  21.206  44.350   5.406
 5424POPC   GL168209  21.217  44.533   5.807
 5424POPC   GL268210  21.517  44.696   5.878
 5424POPC   C1A68211  21.204  44.477   6.262
 5424POPC   D2A68212  21.429  44.650   6.610
 5424POPC   C3A68213  21.201  44.847   6.961
 5424POPC   C4A68214  21.092  44.606   7.340
 5424POPC   C1B68215  21.825  44.951   6.120
 5424POPC   C2B68216  21.978  44.939   6.548
 5424POPC   C3B68217  21.800  44.830   6.921
 5424POPC   C4B68218  21.585  44.677   7.256
 5425POPC   NC368219   0.400  43.121   5.386
 5425POPC   PO468220   0.952  42.720   5.456
 5425POPC   GL168221   0.617  42.859   5.793
 5425POPC   GL268222   0.363  43.168   5.890
 5425POPC   C1A68223   0.425  42.786   6.218
 5425POPC   D2A68224   0.312  42.945   6.627
 5425POPC   C3A68225   0.431  42.775   7.037
 5425POPC   C4A68226   0.613  43.009   7.405
 5425POPC   C1B68227   0.026  43.126   6.229
 5425POPC   C2B68228  44.817  42.943   6.600
 5425POPC   C3B68229  44.978  43.111   6.996
 5425POPC   C4B68230   0.081  42.981   7.411
 5426POPC   NC368231   3.880  27.834   5.330
 5426POPC   PO468232   3.359  28.083   5.596
 5426POPC   GL168233   3.288  27.714   5.792
 5426POPC   GL268234   3.666  27.623   5.777
 5426POPC   C1A68235   3.378  27.560   6.207
 5426POPC   D2A68236   3.631  27.707   6.555
 5426POPC   C3A68237   3.458  27.683   6.982
 5426POPC   C4A68238   3.317  27.784   7.425
 5426POPC   C1B68239   3.891  27.410   6.153
 5426POPC   C2B68240   3.984  27.340   6.605
 5426POPC   C3B68241   3.866  27.315   7.039
 5426POPC   C4B68242   3.527  27.324   7.335
 5427POPC   NC368243  41.447   5.503   5.394
 5427POPC   PO468244  42.105   5.187   5.280
 5427POPC   GL168245  41.801   5.140   5.622
 5427POPC   GL268246  41.907   5.404   5.804
 5427POPC   C1A68247  41.664   4.983   6.081
 5427POPC   D2A68248  41.406   5.097   6.490
 5427POPC   C3A68249  41.499   4.993   6.940
 5427POPC   C4A68250  41.341   5.163   7.348
 5427POPC   C1B68251  41.594   5.483   6.171
 5427POPC   C2B68252  41.629   5.583   6.648
 5427POPC   C3B68253  41.557   5.580   7.113
 5427POPC   C4B68254  41.702   5.482   7.569
 5428POPC   NC368255  37.321  18.912   5.583
 5428POPC   PO468256  37.942  18.814   5.391
 5428POPC   GL168257  37.924  19.075   5.765
 5428POPC   GL268258  37.817  19.452   5.724
 5428POPC   C1A68259  37.821  19.115   6.179
 5428POPC   D2A68260  37.855  18.864   6.543
 5428POPC   C3A68261  37.914  19.089   6.937
 5428POPC   C4A68262  37.775  18.933   7.334
 5428POPC   C1B68263  37.518  19.523   6.107
 5428POPC   C2B68264  37.566  19.350   6.560
 5428POPC   C3B68265  37.408  19.501   6.957
 5428POPC   C4B68266  37.665  19.428   7.283
 5429POPC   NC368267  11.798   8.706   5.396
 5429POPC   PO468268  12.322   9.216   5.392
 5429POPC   GL168269  12.329   9.048   5.803
 5429POPC   GL268270  12.102   8.805   5.800
 5429POPC   C1A68271  12.167   9.111   6.277
 5429POPC   D2A68272  12.129   9.150   6.737
 5429POPC   C3A68273  12.206   9.307   7.141
 5429POPC   C4A68274  12.066   8.882   7.209
 5429POPC   C1B68275  11.988   8.625   6.194
 5429POPC   C2B68276  12.169   8.651   6.603
 5429POPC   C3B68277  12.274   8.473   6.997
 5429POPC   C4B68278  12.286   8.536   7.492
 5430POPC   NC368279  38.053   7.163   5.203
 5430POPC   PO468280  38.543   7.619   5.384
 5430POPC   GL168281  38.397   7.556   5.785
 5430POPC   GL268282  38.311   7.172   5.846
 5430POPC   C1A68283  38.515   7.704   6.203
 5430POPC   D2A68284  38.428   7.443   6.561
 5430POPC   C3A68285  38.551   7.481   6.990
 5430POPC   C4A68286  38.759   7.462   7.391
 5430POPC   C1B68287  38.029   6.972   6.150
 5430POPC   C2B68288  38.141   6.966   6.587
 5430POPC   C3B68289  38.016   7.139   6.988
 5430POPC   C4B68290  38.304   7.187   7.332
 5431POPC   NC368291  32.865  17.783   5.525
 5431POPC   PO468292  33.127  17.191   5.614
 5431POPC   GL168293  33.070  17.465   5.929
 5431POPC   GL268294  33.218  17.796   5.889
 5431POPC   C1A68295  33.004  17.502   6.349
 5431POPC   D2A68296  33.181  17.470   6.705
 5431POPC   C3A68297  32.952  17.269   6.967
 5431POPC   C4A68298  33.098  17.373   7.356
 5431POPC   C1B68299  32.872  17.953   6.190
 5431POPC   C2B68300  32.773  17.870   6.654
 5431POPC   C3B68301  32.972  17.784   7.075
 5431POPC   C4B68302  32.723  17.693   7.479
 5432POPC   NC368303  39.989  40.767   5.427
 5432POPC   PO468304  40.124  41.344   5.640
 5432POPC   GL168305  40.317  40.967   5.797
 5432POPC   GL268306  40.118  40.637   5.900
 5432POPC   C1A68307  40.479  40.856   6.177
 5432POPC   D2A68308  40.245  40.634   6.478
 5432POPC   C3A68309  40.329  40.770   6.865
 5432POPC   C4A68310  40.129  40.823   7.221
 5432POPC   C1B68311  39.938  40.942   6.184
 5432POPC   C2B68312  39.753  40.862   6.590
 5432POPC   C3B68313  39.804  40.597   6.918
 5432POPC   C4B68314  39.782  40.487   7.352
 5433POPC   NC368315  18.018  12.336   5.524
 5433POPC   PO468316  18.394  11.819   5.408
 5433POPC   GL168317  18.194  11.911   5.804
 5433POPC   GL268318  17.820  11.880   5.756
 5433POPC   C1A68319  18.392  12.143   6.169
 5433POPC   D2A68320  18.428  12.375   6.570
 5433POPC   C3A68321  18.539  12.114   6.894
 5433POPC   C4A68322  18.463  12.260   7.305
 5433POPC   C1B68323  17.869  12.027   6.192
 5433POPC   C2B68324  18.075  11.979   6.597
 5433POPC   C3B68325  18.059  12.262   6.935
 5433POPC   C4B68326  17.946  12.188   7.332
 5434POPC   NC368327  43.379   7.710   5.419
 5434POPC   PO468328  42.797   7.516   5.112
 5434POPC   GL168329  42.900   7.468   5.583
 5434POPC   GL268330  43.074   7.146   5.713
 5434POPC   C1A68331  42.888   7.517   6.053
 5434POPC   D2A68332  42.763   7.594   6.501
 5434POPC   C3A68333  43.120   7.643   6.815
 5434POPC   C4A68334  43.276   7.482   7.244
 5434POPC   C1B68335  43.332   7.107   6.116
 5434POPC   C2B68336  43.369   7.230   6.574
 5434POPC   C3B68337  43.412   7.066   7.004
 5434POPC   C4B68338  43.543   7.013   7.479
 5435POPC   NC368339  12.505  29.358   5.428
 5435POPC   PO468340  13.188  29.419   5.428
 5435POPC   GL168341  12.912  29.303   5.776
 5435POPC   GL268342  12.832  28.951   5.781
 5435POPC   C1A68343  12.818  29.314   6.221
 5435POPC   D2A68344  12.736  29.103   6.610
 5435POPC   C3A68345  12.688  29.304   7.010
 5435POPC   C4A68346  13.019  29.312   7.302
 5435POPC   C1B68347  12.646  28.823   6.179
 5435POPC   C2B68348  12.482  28.664   6.579
 5435POPC   C3B68349  12.695  28.719   6.943
 5435POPC   C4B68350  12.681  28.893   7.316
 5436POPC   NC368351  25.323  41.533   5.397
 5436POPC   PO468352  24.686  41.547   5.507
 5436POPC   GL168353  25.042  41.322   5.797
 5436POPC   GL268354  25.445  41.329   5.838
 5436POPC   C1A68355  25.149  41.450   6.238
 5436POPC   D2A68356  25.187  41.814   6.525
 5436POPC   C3A68357  25.251  41.704   6.958
 5436POPC   C4A68358  25.040  41.608   7.333
 5436POPC   C1B68359  25.642  41.547   6.186
 5436POPC   C2B68360  25.596  41.466   6.609
 5436POPC   C3B68361  25.784  41.528   6.989
 5436POPC   C4B68362  25.588  41.677   7.370
 5437POPC   NC368363  19.204  36.485   5.523
 5437POPC   PO468364  19.096  35.862   5.271
 5437POPC   GL168365  18.972  36.044   5.738
 5437POPC   GL268366  19.211  36.235   5.977
 5437POPC   C1A68367  18.804  36.019   6.202
 5437POPC   D2A68368  18.957  36.145   6.659
 5437POPC   C3A68369  18.853  35.896   7.057
 5437POPC   C4A68370  18.740  35.971   7.519
 5437POPC   C1B68371  19.285  35.915   6.304
 5437POPC   C2B68372  19.415  35.614   6.596
 5437POPC   C3B68373  19.416  35.743   7.023
 5437POPC   C4B68374  19.241  36.011   7.373
 5438POPC   NC368375   5.388  39.682   5.447
 5438POPC   PO468376   4.885  40.100   5.261
 5438POPC   GL168377   4.961  40.140   5.731
 5438POPC   GL268378   4.723  40.375   5.869
 5438POPC   C1A68379   5.103  40.012   6.175
 5438POPC   D2A68380   5.119  40.101   6.626
 5438POPC   C3A68381   5.202  39.763   6.892
 5438POPC   C4A68382   5.179  39.839   7.333
 5438POPC   C1B68383   4.721  40.347   6.328
 5438POPC   C2B68384   4.638  40.022   6.620
 5438POPC   C3B68385   4.769  40.016   7.015
 5438POPC   C4B68386   4.983  40.302   7.257
 5439POPC   NC368387  26.509  38.533   5.207
 5439POPC   PO468388  27.116  38.483   5.448
 5439POPC   GL168389  26.830  38.534   5.814
 5439POPC   GL268390  26.711  38.224   6.033
 5439POPC   C1A68391  26.850  38.678   6.232
 5439POPC   D2A68392  26.643  38.441   6.551
 5439POPC   C3A68393  26.707  38.692   6.921
 5439POPC   C4A68394  26.718  38.657   7.351
 5439POPC   C1B68395  27.095  38.236   6.337
 5439POPC   C2B68396  27.068  38.327   6.814
 5439POPC   C3B68397  27.072  38.233   7.281
 5439POPC   C4B68398  27.173  38.007   7.706
 5440POPC   NC368399  12.641  16.307   5.038
 5440POPC   PO468400  12.723  16.735   5.481
 5440POPC   GL168401  12.629  16.686   5.889
 5440POPC   GL268402  12.328  16.842   5.856
 5440POPC   C1A68403  12.806  16.664   6.304
 5440POPC   D2A68404  12.893  16.981   6.628
 5440POPC   C3A68405  13.034  16.802   7.015
 5440POPC   C4A68406  12.874  16.482   7.280
 5440POPC   C1B68407  12.296  16.610   6.269
 5440POPC   C2B68408  12.464  16.677   6.701
 5440POPC   C3B68409  12.523  16.837   7.106
 5440POPC   C4B68410  12.575  16.778   7.562
 5441POPC   NC368411  25.517  10.997   5.472
 5441POPC   PO468412  24.919  10.769   5.213
 5441POPC   GL168413  24.958  10.720   5.727
 5441POPC   GL268414  25.321  10.676   5.828
 5441POPC   C1A68415  25.010  10.829   6.206
 5441POPC   D2A68416  25.137  10.501   6.558
 5441POPC   C3A68417  25.061  10.567   7.008
 5441POPC   C4A68418  24.704  10.708   7.257
 5441POPC   C1B68419  25.491  10.396   6.176
 5441POPC   C2B68420  25.546  10.186   6.599
 5441POPC   C3B68421  25.562  10.312   7.028
 5441POPC   C4B68422  25.528  10.674   7.234
 5442POPC   NC368423   1.290  18.539   5.265
 5442POPC   PO468424   0.798  18.323   5.636
 5442POPC   GL168425   1.161  18.455   5.862
 5442POPC   GL268426   0.971  18.709   6.005
 5442POPC   C1A68427   1.321  18.537   6.325
 5442POPC   D2A68428   1.525  18.246   6.637
 5442POPC   C3A68429   1.384  18.189   7.056
 5442POPC   C4A68430   1.694  18.361   7.327
 5442POPC   C1B68431   0.841  18.334   6.270
 5442POPC   C2B68432   0.865  18.167   6.678
 5442POPC   C3B68433   0.904  18.487   6.979
 5442POPC   C4B68434   1.067  18.477   7.374
 5443POPC   NC368435  35.130  39.570   5.559
 5443POPC   PO468436  35.585  39.113   5.411
 5443POPC   GL168437  35.482  39.184   5.820
 5443POPC   GL268438  35.795  39.277   5.919
 5443POPC   C1A68439  35.226  39.220   6.209
 5443POPC   D2A68440  35.114  39.484   6.563
 5443POPC   C3A68441  35.183  39.264   6.938
 5443POPC   C4A68442  35.091  39.128   7.337
 5443POPC   C1B68443  35.707  39.069   6.280
 5443POPC   C2B68444  35.600  39.261   6.633
 5443POPC   C3B68445  35.683  39.440   6.997
 5443POPC   C4B68446  35.620  39.136   7.272
 5444POPC   NC368447  20.506  15.931   5.542
 5444POPC   PO468448  20.907  16.469   5.439
 5444POPC   GL168449  20.823  16.226   5.863
 5444POPC   GL268450  20.511  16.007   6.035
 5444POPC   C1A68451  20.871  16.205   6.321
 5444POPC   D2A68452  20.490  16.201   6.557
 5444POPC   C3A68453  20.523  16.200   6.974
 5444POPC   C4A68454  20.758  16.336   7.274
 5444POPC   C1B68455  20.432  15.723   6.407
 5444POPC   C2B68456  20.342  15.736   6.860
 5444POPC   C3B68457  20.456  15.815   7.297
 5444POPC   C4B68458  20.312  15.786   7.714
 5445POPC   NC368459  40.514  14.331   5.599
 5445POPC   PO468460  40.021  14.497   5.146
 5445POPC   GL168461  39.988  14.437   5.613
 5445POPC   GL268462  39.771  14.147   5.737
 5445POPC   C1A68463  40.031  14.488   6.088
 5445POPC   D2A68464  40.233  14.551   6.525
 5445POPC   C3A68465  40.004  14.673   6.889
 5445POPC   C4A68466  39.922  14.457   7.285
 5445POPC   C1B68467  39.583  14.234   6.148
 5445POPC   C2B68468  39.767  14.344   6.539
 5445POPC   C3B68469  39.974  14.137   6.892
 5445POPC   C4B68470  39.726  13.967   7.251
 5446POPC   NC368471  14.625  27.075   4.965
 5446POPC   PO468472  14.498  26.525   5.309
 5446POPC   GL168473  14.477  26.793   5.709
 5446POPC   GL268474  14.673  27.069   5.753
 5446POPC   C1A68475  14.406  26.684   6.156
 5446POPC   D2A68476  14.548  26.788   6.564
 5446POPC   C3A68477  14.380  26.727   6.977
 5446POPC   C4A68478  14.076  26.477   7.159
 5446POPC   C1B68479  14.571  27.178   6.168
 5446POPC   C2B68480  14.333  27.242   6.503
 5446POPC   C3B68481  14.341  27.268   6.945
 5446POPC   C4B68482  14.489  27.149   7.345
 5447POPC   NC368483  33.559  38.038   5.392
 5447POPC   PO468484  33.825  37.403   5.631
 5447POPC   GL168485  33.862  37.669   5.900
 5447POPC   GL268486  33.909  37.977   5.759
 5447POPC   C1A68487  33.788  37.584   6.298
 5447POPC   D2A68488  33.997  37.524   6.649
 5447POPC   C3A68489  33.749  37.449   7.026
 5447POPC   C4A68490  34.061  37.574   7.334
 5447POPC   C1B68491  33.720  38.099   6.150
 5447POPC   C2B68492  33.926  38.052   6.548
 5447POPC   C3B68493  33.916  37.930   6.987
 5447POPC   C4B68494  33.576  37.855   7.261
 5448POPC   NC368495  23.430   2.873   5.229
 5448POPC   PO468496  23.885   2.395   5.432
 5448POPC   GL168497  23.694   2.521   5.801
 5448POPC   GL268498  23.487   2.816   5.753
 5448POPC   C1A68499  23.819   2.703   6.190
 5448POPC   D2A68500  23.602   2.626   6.566
 5448POPC   C3A68501  23.846   2.682   6.923
 5448POPC   C4A68502  23.727   2.842   7.299
 5448POPC   C1B68503  23.286   2.678   6.158
 5448POPC   C2B68504  23.152   2.892   6.539
 5448POPC   C3B68505  23.371   2.870   6.939
 5448POPC   C4B68506  23.379   2.481   7.209
 5449POPC   NC368507  41.551   2.073   5.430
 5449POPC   PO468508  41.784   1.441   5.293
 5449POPC   GL168509  41.576   1.619   5.743
 5449POPC   GL268510  41.796   1.498   5.988
 5449POPC   C1A68511  41.602   1.945   6.150
 5449POPC   D2A68512  41.429   2.119   6.553
 5449POPC   C3A68513  41.638   2.296   6.908
 5449POPC   C4A68514  41.460   2.254   7.324
 5449POPC   C1B68515  42.062   1.742   6.216
 5449POPC   C2B68516  41.942   1.914   6.587
 5449POPC   C3B68517  41.893   1.686   6.928
 5449POPC   C4B68518  41.802   1.836   7.283
 5450POPC   NC368519  18.670   6.075   5.400
 5450POPC   PO468520  18.260   5.592   5.589
 5450POPC   GL168521  18.110   5.982   5.797
 5450POPC   GL268522  18.464   6.060   5.901
 5450POPC   C1A68523  18.025   6.016   6.255
 5450POPC   D2A68524  18.272   5.998   6.656
 5450POPC   C3A68525  18.062   5.867   7.039
 5450POPC   C4A68526  18.133   6.004   7.504
 5450POPC   C1B68527  18.691   5.706   6.161
 5450POPC   C2B68528  18.822   5.594   6.611
 5450POPC   C3B68529  18.682   5.654   7.036
 5450POPC   C4B68530  18.514   6.054   7.199
 5451POPC   NC368531  43.400  24.437   5.624
 5451POPC   PO468532  42.821  24.629   5.257
 5451POPC   GL168533  42.897  24.432   5.673
 5451POPC   GL268534  42.998  24.717   5.796
 5451POPC   C1A68535  43.031  24.275   6.106
 5451POPC   D2A68536  43.092  24.223   6.565
 5451POPC   C3A68537  43.398  24.350   6.902
 5451POPC   C4A68538  43.404  24.691   7.194
 5451POPC   C1B68539  43.104  24.754   6.225
 5451POPC   C2B68540  43.290  24.741   6.602
 5451POPC   C3B68541  42.994  24.677   6.912
 5451POPC   C4B68542  42.905  24.822   7.329
 5452POPC   NC368543  11.728  25.055   5.482
 5452POPC   PO468544  12.358  25.369   5.539
 5452POPC   GL168545  12.099  25.175   5.819
 5452POPC   GL268546  11.822  25.418   5.841
 5452POPC   C1A68547  12.223  24.896   6.120
 5452POPC   D2A68548  12.101  24.851   6.513
 5452POPC   C3A68549  12.346  24.951   6.860
 5452POPC   C4A68550  12.122  24.988   7.221
 5452POPC   C1B68551  12.080  25.494   6.227
 5452POPC   C2B68552  12.103  25.514   6.669
 5452POPC   C3B68553  11.939  25.463   7.063
 5452POPC   C4B68554  11.639  25.489   7.389
 5453POPC   NC368555  14.412  19.307   5.360
 5453POPC   PO468556  14.254  18.735   5.563
 5453POPC   GL168557  14.146  19.027   5.912
 5453POPC   GL268558  14.194  19.365   5.811
 5453POPC   C1A68559  14.143  19.095   6.378
 5453POPC   D2A68560  14.282  18.936   6.788
 5453POPC   C3A68561  14.672  18.965   7.042
 5453POPC   C4A68562  14.792  18.727   7.434
 5453POPC   C1B68563  14.458  19.451   6.177
 5453POPC   C2B68564  14.595  19.361   6.615
 5453POPC   C3B68565  14.483  19.457   7.047
 5453POPC   C4B68566  14.212  19.147   7.257
 5454POPC   NC368567  33.218   3.693   5.403
 5454POPC   PO468568  32.639   3.444   5.465
 5454POPC   GL168569  32.970   3.452   5.785
 5454POPC   GL268570  32.719   3.610   5.953
 5454POPC   C1A68571  33.235   3.556   6.153
 5454POPC   D2A68572  33.418   3.394   6.533
 5454POPC   C3A68573  33.231   3.468   6.958
 5454POPC   C4A68574  33.307   3.709   7.336
 5454POPC   C1B68575  32.766   3.488   6.359
 5454POPC   C2B68576  32.570   3.210   6.644
 5454POPC   C3B68577  32.662   3.253   7.055
 5454POPC   C4B68578  32.827   3.582   7.263
 5455POPC   NC368579  39.317   4.232   5.616
 5455POPC   PO468580  39.079   4.765   5.249
 5455POPC   GL168581  39.030   4.637   5.782
 5455POPC   GL268582  39.006   4.300   6.000
 5455POPC   C1A68583  39.169   4.687   6.258
 5455POPC   D2A68584  39.089   4.354   6.611
 5455POPC   C3A68585  39.127   4.541   7.031
 5455POPC   C4A68586  39.204   4.352   7.464
 5455POPC   C1B68587  39.455   4.265   6.255
 5455POPC   C2B68588  39.603   4.300   6.686
 5455POPC   C3B68589  39.367   4.080   7.002
 5455POPC   C4B68590  39.541   3.964   7.356
 5456POPC   NC368591  19.830   2.459   5.309
 5456POPC   PO468592  20.165   3.055   5.399
 5456POPC   GL168593  19.958   2.786   5.799
 5456POPC   GL268594  19.735   2.481   5.828
 5456POPC   C1A68595  19.795   2.813   6.232
 5456POPC   D2A68596  19.941   2.655   6.634
 5456POPC   C3A68597  19.797   2.886   7.000
 5456POPC   C4A68598  19.669   2.903   7.438
 5456POPC   C1B68599  20.097   2.392   6.139
 5456POPC   C2B68600  20.214   2.219   6.567
 5456POPC   C3B68601  20.168   2.373   7.004
 5456POPC   C4B68602  19.845   2.444   7.311
 5457POPC   NC368603   2.000  38.795   5.555
 5457POPC   PO468604   1.808  38.154   5.369
 5457POPC   GL168605   1.994  38.301   5.786
 5457POPC   GL268606   2.286  38.099   5.804
 5457POPC   C1A68607   2.161  38.451   6.220
 5457POPC   D2A68608   2.177  38.740   6.591
 5457POPC   C3A68609   2.029  38.634   7.001
 5457POPC   C4A68610   1.881  38.214   7.176
 5457POPC   C1B68611   2.373  37.923   6.206
 5457POPC   C2B68612   2.220  38.091   6.631
 5457POPC   C3B68613   2.379  38.095   7.081
 5457POPC   C4B68614   2.590  38.282   7.461
 5458POPC   NC368615  38.665   7.183   5.491
 5458POPC   PO468616  39.281   7.214   5.546
 5458POPC   GL168617  39.061   7.194   5.870
 5458POPC   GL268618  38.903   7.524   5.813
 5458POPC   C1A68619  39.209   7.060   6.273
 5458POPC   D2A68620  39.371   7.341   6.563
 5458POPC   C3A68621  39.181   7.383   6.961
 5458POPC   C4A68622  39.303   7.344   7.362
 5458POPC   C1B68623  39.008   7.543   6.246
 5458POPC   C2B68624  38.887   7.686   6.640
 5458POPC   C3B68625  38.946   7.825   7.061
 5458POPC   C4B68626  39.176   7.844   7.424
 5459POPC   NC368627  38.255  19.228   5.414
 5459POPC   PO468628  38.721  18.772   5.339
 5459POPC   GL168629  38.448  18.867   5.712
 5459POPC   GL268630  38.702  19.099   5.817
 5459POPC   C1A68631  38.315  18.987   6.157
 5459POPC   D2A68632  38.358  18.834   6.599
 5459POPC   C3A68633  38.476  18.989   7.008
 5459POPC   C4A68634  38.257  18.954   7.373
 5459POPC   C1B68635  38.808  18.888   6.253
 5459POPC   C2B68636  38.877  18.798   6.706
 5459POPC   C3B68637  38.968  18.774   7.158
 5459POPC   C4B68638  38.736  18.971   7.486
 5460POPC   NC368639  14.695  24.460   5.445
 5460POPC   PO468640  15.271  24.617   5.432
 5460POPC   GL168641  15.314  24.463   5.873
 5460POPC   GL268642  15.669  24.312   5.917
 5460POPC   C1A68643  15.076  24.570   6.289
 5460POPC   D2A68644  14.968  24.835   6.654
 5460POPC   C3A68645  15.056  24.649   7.047
 5460POPC   C4A68646  15.065  24.248   7.087
 5460POPC   C1B68647  15.428  24.132   6.247
 5460POPC   C2B68648  15.357  24.276   6.659
 5460POPC   C3B68649  15.579  24.270   7.049
 5460POPC   C4B68650  15.798  24.123   7.421
 5461POPC   NC368651  12.465   3.016   5.452
 5461POPC   PO468652  13.066   3.180   5.433
 5461POPC   GL168653  12.929   2.771   5.667
 5461POPC   GL268654  13.163   2.482   5.807
 5461POPC   C1A68655  12.661   2.667   6.038
 5461POPC   D2A68656  12.608   2.788   6.488
 5461POPC   C3A68657  12.562   2.657   6.921
 5461POPC   C4A68658  12.740   3.049   7.103
 5461POPC   C1B68659  13.099   2.538   6.277
 5461POPC   C2B68660  13.009   2.509   6.712
 5461POPC   C3B68661  13.043   2.631   7.154
 5461POPC   C4B68662  13.069   2.531   7.611
 5462POPC   NC368663   6.055  15.468   5.634
 5462POPC   PO468664   5.495  15.750   5.477
 5462POPC   GL168665   5.725  15.935   5.860
 5462POPC   GL268666   5.804  16.307   5.821
 5462POPC   C1A68667   5.847  16.047   6.330
 5462POPC   D2A68668   5.624  16.045   6.746
 5462POPC   C3A68669   5.763  15.906   7.181
 5462POPC   C4A68670   6.084  15.631   7.380
 5462POPC   C1B68671   5.679  16.521   6.212
 5462POPC   C2B68672   5.813  16.539   6.663
 5462POPC   C3B68673   5.640  16.427   7.072
 5462POPC   C4B68674   5.748  16.318   7.502
 5463POPC   NC368675  31.515  32.238   5.305
 5463POPC   PO468676  31.142  32.643   5.687
 5463POPC   GL168677  31.420  32.327   5.836
 5463POPC   GL268678  31.236  32.054   5.699
 5463POPC   C1A68679  31.560  32.493   6.280
 5463POPC   D2A68680  31.388  32.589   6.695
 5463POPC   C3A68681  31.574  32.307   6.994
 5463POPC   C4A68682  31.815  32.410   7.370
 5463POPC   C1B68683  31.093  32.150   6.149
 5463POPC   C2B68684  31.251  32.104   6.561
 5463POPC   C3B68685  31.266  31.899   6.960
 5463POPC   C4B68686  31.161  32.135   7.283
 5464POPC   NC368687  34.315  27.147   5.689
 5464POPC   PO468688  34.699  26.815   5.222
 5464POPC   GL168689  34.650  26.702   5.685
 5464POPC   GL268690  34.351  26.551   5.840
 5464POPC   C1A68691  34.836  26.660   6.113
 5464POPC   D2A68692  34.774  26.547   6.575
 5464POPC   C3A68693  34.696  26.887   6.886
 5464POPC   C4A68694  34.684  26.887   7.367
 5464POPC   C1B68695  34.325  26.678   6.289
 5464POPC   C2B68696  34.214  26.740   6.733
 5464POPC   C3B68697  34.232  27.053   7.059
 5464POPC   C4B68698  34.217  27.025   7.524
 5465POPC   NC368699  30.014  22.498   5.397
 5465POPC   PO468700  29.832  23.092   5.170
 5465POPC   GL168701  29.957  22.910   5.709
 5465POPC   GL268702  30.107  22.598   5.883
 5465POPC   C1A68703  29.856  23.125   6.133
 5465POPC   D2A68704  29.948  23.217   6.520
 5465POPC   C3A68705  29.699  23.265   6.861
 5465POPC   C4A68706  29.837  23.261   7.281
 5465POPC   C1B68707  29.669  22.662   6.069
 5465POPC   C2B68708  29.603  22.791   6.482
 5465POPC   C3B68709  29.877  22.794   6.820
 5465POPC   C4B68710  29.775  22.765   7.210
 5466POPC   NC368711  16.893  27.376   5.497
 5466POPC   PO468712  17.237  27.968   5.537
 5466POPC   GL168713  17.118  27.662   5.866
 5466POPC   GL268714  16.744  27.582   5.940
 5466POPC   C1A68715  17.115  27.471   6.270
 5466POPC   D2A68716  16.825  27.536   6.591
 5466POPC   C3A68717  16.978  27.672   6.994
 5466POPC   C4A68718  16.948  27.960   7.330
 5466POPC   C1B68719  16.439  27.441   6.249
 5466POPC   C2B68720  16.286  27.438   6.682
 5466POPC   C3B68721  16.277  27.379   7.117
 5466POPC   C4B68722  16.600  27.468   7.372
 5467POPC   NC368723  17.119  32.359   5.468
 5467POPC   PO468724  16.433  32.168   5.437
 5467POPC   GL168725  16.712  32.217   5.783
 5467POPC   GL268726  17.023  31.980   5.825
 5467POPC   C1A68727  16.581  32.320   6.207
 5467POPC   D2A68728  16.611  32.146   6.605
 5467POPC   C3A68729  16.396  32.304   6.943
 5467POPC   C4A68730  16.535  32.295   7.329
 5467POPC   C1B68731  17.084  32.361   6.115
 5467POPC   C2B68732  16.987  32.504   6.522
 5467POPC   C3B68733  16.928  32.369   6.945
 5467POPC   C4B68734  16.983  32.514   7.339
 5468POPC   NC368735  29.159   3.688   5.475
 5468POPC   PO468736  29.702   3.196   5.518
 5468POPC   GL168737  29.356   3.291   5.825
 5468POPC   GL268738  28.979   3.313   5.798
 5468POPC   C1A68739  29.328   3.487   6.237
 5468POPC   D2A68740  29.390   3.769   6.609
 5468POPC   C3A68741  29.265   3.589   7.039
 5468POPC   C4A68742  29.216   3.404   7.474
 5468POPC   C1B68743  28.880   3.635   6.091
 5468POPC   C2B68744  28.899   3.688   6.528
 5468POPC   C3B68745  28.850   3.948   6.883
 5468POPC   C4B68746  28.796   3.701   7.235
 5469POPC   NC368747  20.454  43.178   5.578
 5469POPC   PO468748  21.000  42.812   5.479
 5469POPC   GL168749  20.822  43.004   5.903
 5469POPC   GL268750  20.544  43.221   6.071
 5469POPC   C1A68751  20.852  42.909   6.361
 5469POPC   D2A68752  20.971  42.691   6.733
 5469POPC   C3A68753  20.818  42.944   7.085
 5469POPC   C4A68754  20.665  43.362   7.248
 5469POPC   C1B68755  20.374  42.863   6.207
 5469POPC   C2B68756  20.434  42.683   6.602
 5469POPC   C3B68757  20.331  42.926   6.955
 5469POPC   C4B68758  20.257  43.049   7.368
 5470POPC   NC368759   9.857  29.501   5.566
 5470POPC   PO468760   9.574  28.872   5.632
 5470POPC   GL168761   9.578  29.190   5.944
 5470POPC   GL268762   9.935  29.255   6.025
 5470POPC   C1A68763   9.572  29.380   6.346
 5470POPC   D2A68764   9.747  29.323   6.735
 5470POPC   C3A68765   9.501  29.289   7.085
 5470POPC   C4A68766   9.421  29.355   7.511
 5470POPC   C1B68767   9.840  28.887   6.305
 5470POPC   C2B68768   9.888  28.816   6.740
 5470POPC   C3B68769  10.027  29.055   7.067
 5470POPC   C4B68770  10.254  29.032   7.454
 5471POPC   NC368771   0.582  41.451   5.365
 5471POPC   PO468772   0.202  41.949   5.447
 5471POPC   GL168773   0.232  41.775   5.845
 5471POPC   GL268774   0.294  41.433   5.801
 5471POPC   C1A68775   0.097  41.661   6.257
 5471POPC   D2A68776   0.444  41.692   6.531
 5471POPC   C3A68777   0.359  41.674   6.952
 5471POPC   C4A68778   0.256  41.876   7.345
 5471POPC   C1B68779   0.368  41.242   6.209
 5471POPC   C2B68780   0.435  41.178   6.626
 5471POPC   C3B68781   0.586  41.179   7.033
 5471POPC   C4B68782   0.546  41.465   7.371
 5472POPC   NC368783  29.589  18.122   5.242
 5472POPC   PO468784  29.066  18.412   5.531
 5472POPC   GL168785  29.181  18.400   5.934
 5472POPC   GL268786  28.916  18.175   6.006
 5472POPC   C1A68787  29.226  18.421   6.387
 5472POPC   D2A68788  29.435  18.619   6.715
 5472POPC   C3A68789  29.138  18.519   6.956
 5472POPC   C4A68790  29.072  18.097   6.963
 5472POPC   C1B68791  28.749  18.514   6.260
 5472POPC   C2B68792  28.691  18.548   6.707
 5472POPC   C3B68793  28.753  18.849   7.057
 5472POPC   C4B68794  28.841  18.839   7.537
 5473POPC   NC368795  43.260  22.903   5.116
 5473POPC   PO468796  43.852  23.234   5.249
 5473POPC   GL168797  43.882  23.200   5.752
 5473POPC   GL268798  43.973  22.846   5.857
 5473POPC   C1A68799  43.795  23.143   6.202
 5473POPC   D2A68800  43.909  23.038   6.623
 5473POPC   C3A68801  43.938  23.360   6.948
 5473POPC   C4A68802  43.767  23.289   7.369
 5473POPC   C1B68803  43.763  22.642   6.239
 5473POPC   C2B68804  43.528  22.669   6.662
 5473POPC   C3B68805  43.681  22.873   7.057
 5473POPC   C4B68806  44.145  22.951   7.142
 5474POPC   NC368807  24.870  17.948   5.605
 5474POPC   PO468808  25.211  18.547   5.548
 5474POPC   GL168809  25.344  18.378   5.902
 5474POPC   GL268810  25.383  18.054   5.785
 5474POPC   C1A68811  25.310  18.524   6.295
 5474POPC   D2A68812  25.144  18.347   6.584
 5474POPC   C3A68813  25.406  18.388   6.889
 5474POPC   C4A68814  25.097  18.478   7.150
 5474POPC   C1B68815  25.188  17.952   6.195
 5474POPC   C2B68816  25.319  17.786   6.581
 5474POPC   C3B68817  25.344  17.904   6.967
 5474POPC   C4B68818  25.601  18.047   7.292
 5475POPC   NC368819  10.845  16.054   5.292
 5475POPC   PO468820  10.239  15.777   5.415
 5475POPC   GL168821  10.408  16.002   5.747
 5475POPC   GL268822  10.733  15.957   5.774
 5475POPC   C1A68823  10.389  15.985   6.205
 5475POPC   D2A68824  10.215  15.760   6.582
 5475POPC   C3A68825  10.285  15.969   6.974
 5475POPC   C4A68826  10.370  15.796   7.365
 5475POPC   C1B68827  10.873  15.815   6.160
 5475POPC   C2B68828  10.777  16.009   6.555
 5475POPC   C3B68829  10.791  15.859   6.954
 5475POPC   C4B68830  10.759  16.105   7.285
 5476POPC   NC368831  23.900  26.337   5.393
 5476POPC   PO468832  23.380  26.818   5.460
 5476POPC   GL168833  23.731  26.894   5.763
 5476POPC   GL268834  23.877  26.580   5.849
 5476POPC   C1A68835  23.822  26.968   6.217
 5476POPC   D2A68836  24.004  26.852   6.630
 5476POPC   C3A68837  23.894  27.011   7.046
 5476POPC   C4A68838  23.487  27.076   7.197
 5476POPC   C1B68839  24.029  26.479   6.262
 5476POPC   C2B68840  23.915  26.324   6.692
 5476POPC   C3B68841  23.755  26.480   7.111
 5476POPC   C4B68842  24.025  26.532   7.472
 5477POPC   NC368843  20.434  39.658   5.602
 5477POPC   PO468844  20.715  40.158   5.384
 5477POPC   GL168845  20.543  40.115   5.795
 5477POPC   GL268846  20.838  39.941   5.844
 5477POPC   C1A68847  20.464  39.936   6.252
 5477POPC   D2A68848  20.539  40.057   6.721
 5477POPC   C3A68849  20.323  39.825   7.052
 5477POPC   C4A68850  20.313  39.800   7.521
 5477POPC   C1B68851  20.969  39.905   6.238
 5477POPC   C2B68852  20.950  39.768   6.631
 5477POPC   C3B68853  20.846  39.717   7.039
 5477POPC   C4B68854  20.700  40.072   7.270
 5478POPC   NC368855  25.524  23.212   5.532
 5478POPC   PO468856  24.913  22.884   5.381
 5478POPC   GL168857  25.161  22.785   5.811
 5478POPC   GL268858  25.501  22.882   5.909
 5478POPC   C1A68859  25.182  22.970   6.272
 5478POPC   D2A68860  25.197  23.194   6.651
 5478POPC   C3A68861  25.235  23.000   7.054
 5478POPC   C4A68862  24.978  22.849   7.399
 5478POPC   C1B68863  25.494  22.581   6.250
 5478POPC   C2B68864  25.324  22.650   6.668
 5478POPC   C3B68865  25.580  22.633   7.046
 5478POPC   C4B68866  25.738  22.461   7.401
 5479POPC   NC368867   3.549  18.034   5.472
 5479POPC   PO468868   3.923  18.668   5.507
 5479POPC   GL168869   3.814  18.517   5.913
 5479POPC   GL268870   3.510  18.296   5.916
 5479POPC   C1A68871   3.791  18.358   6.354
 5479POPC   D2A68872   3.567  18.113   6.627
 5479POPC   C3A68873   3.558  18.246   7.031
 5479POPC   C4A68874   3.619  18.587   7.283
 5479POPC   C1B68875   3.297  18.493   6.269
 5479POPC   C2B68876   3.378  18.635   6.685
 5479POPC   C3B68877   3.129  18.552   7.035
 5479POPC   C4B68878   3.166  18.376   7.436
 5480POPC   NC368879  33.400  18.322   5.428
 5480POPC   PO468880  34.069  18.487   5.585
 5480POPC   GL168881  33.813  18.238   5.805
 5480POPC   GL268882  33.560  18.464   5.882
 5480POPC   C1A68883  33.885  18.083   6.215
 5480POPC   D2A68884  33.764  18.108   6.654
 5480POPC   C3A68885  33.890  18.451   6.926
 5480POPC   C4A68886  33.963  18.177   7.257
 5480POPC   C1B68887  33.318  18.646   6.232
 5480POPC   C2B68888  33.405  18.486   6.629
 5480POPC   C3B68889  33.403  18.610   7.037
 5480POPC   C4B68890  33.528  18.454   7.434
 5481POPC   NC368891  19.167  29.506   5.271
 5481POPC   PO468892  19.460  30.095   5.227
 5481POPC   GL168893  19.347  29.892   5.670
 5481POPC   GL268894  19.048  29.666   5.747
 5481POPC   C1A68895  19.362  29.802   6.150
 5481POPC   D2A68896  19.143  29.911   6.551
 5481POPC   C3A68897  19.342  29.859   6.953
 5481POPC   C4A68898  19.342  30.082   7.351
 5481POPC   C1B68899  18.863  29.903   6.103
 5481POPC   C2B68900  18.617  29.872   6.494
 5481POPC   C3B68901  18.647  29.991   6.910
 5481POPC   C4B68902  18.900  29.827   7.230
 5482POPC   NC368903  24.706   5.146   5.449
 5482POPC   PO468904  24.102   4.743   5.461
 5482POPC   GL168905  24.418   4.894   5.806
 5482POPC   GL268906  24.761   5.097   5.932
 5482POPC   C1A68907  24.380   5.008   6.236
 5482POPC   D2A68908  24.328   5.232   6.587
 5482POPC   C3A68909  24.235   4.986   6.943
 5482POPC   C4A68910  24.509   5.223   7.194
 5482POPC   C1B68911  24.937   4.936   6.275
 5482POPC   C2B68912  24.757   4.899   6.693
 5482POPC   C3B68913  24.951   4.958   7.104
 5482POPC   C4B68914  24.803   4.916   7.536
 5483POPC   NC368915  13.974  19.846   5.258
 5483POPC   PO468916  14.584  19.741   5.353
 5483POPC   GL168917  14.273  19.858   5.676
 5483POPC   GL268918  14.521  19.830   5.849
 5483POPC   C1A68919  14.144  19.939   6.147
 5483POPC   D2A68920  14.057  20.106   6.571
 5483POPC   C3A68921  14.159  19.936   6.957
 5483POPC   C4A68922  14.290  19.942   7.364
 5483POPC   C1B68923  14.687  19.924   6.211
 5483POPC   C2B68924  14.542  19.870   6.608
 5483POPC   C3B68925  14.696  19.932   7.025
 5483POPC   C4B68926  14.742  19.767   7.429
 5484POPC   NC368927  18.834  15.494   5.374
 5484POPC   PO468928  19.313  15.087   5.274
 5484POPC   GL168929  19.142  15.210   5.693
 5484POPC   GL268930  18.799  15.187   5.816
 5484POPC   C1A68931  19.178  15.370   6.118
 5484POPC   D2A68932  19.141  15.157   6.498
 5484POPC   C3A68933  19.285  15.298   6.868
 5484POPC   C4A68934  19.099  15.428   7.232
 5484POPC   C1B68935  18.790  14.959   6.196
 5484POPC   C2B68936  18.870  14.750   6.598
 5484POPC   C3B68937  18.873  15.000   6.960
 5484POPC   C4B68938  18.810  15.046   7.384
 5485POPC   NC368939  32.719  39.143   5.131
 5485POPC   PO468940  33.286  39.198   5.456
 5485POPC   GL168941  33.100  39.294   5.862
 5485POPC   GL268942  33.030  39.005   5.884
 5485POPC   C1A68943  32.999  39.457   6.241
 5485POPC   D2A68944  33.281  39.364   6.560
 5485POPC   C3A68945  33.145  39.329   6.974
 5485POPC   C4A68946  33.079  39.477   7.376
 5485POPC   C1B68947  32.775  38.992   6.226
 5485POPC   C2B68948  32.786  38.728   6.558
 5485POPC   C3B68949  32.807  38.803   6.956
 5485POPC   C4B68950  33.023  38.960   7.304
 5486POPC   NC368951   8.930  18.081   5.411
 5486POPC   PO468952   8.475  17.783   5.851
 5486POPC   GL168953   8.771  18.178   5.897
 5486POPC   GL268954   9.145  18.306   5.806
 5486POPC   C1A68955   8.949  18.392   6.261
 5486POPC   D2A68956   8.808  18.496   6.656
 5486POPC   C3A68957   8.979  18.131   6.872
 5486POPC   C4A68958   8.958  18.011   7.285
 5486POPC   C1B68959   9.256  18.717   6.021
 5486POPC   C2B68960   9.211  18.825   6.458
 5486POPC   C3B68961   9.292  18.542   6.804
 5486POPC   C4B68962   9.340  18.334   7.203
 5487POPC   NC368963  14.686  14.144   5.772
 5487POPC   PO468964  14.279  14.600   5.481
 5487POPC   GL168965  14.289  14.449   5.885
 5487POPC   GL268966  14.150  14.123   5.779
 5487POPC   C1A68967  14.386  14.352   6.329
 5487POPC   D2A68968  14.554  14.530   6.710
 5487POPC   C3A68969  14.411  14.492   7.125
 5487POPC   C4A68970  14.618  14.171   7.375
 5487POPC   C1B68971  13.912  14.199   6.141
 5487POPC   C2B68972  13.966  14.235   6.572
 5487POPC   C3B68973  14.248  14.094   6.846
 5487POPC   C4B68974  14.007  14.170   7.179
 5488POPC   NC368975  10.277   1.771   5.460
 5488POPC   PO468976  10.766   2.146   5.214
 5488POPC   GL168977  10.714   1.895   5.656
 5488POPC   GL268978  10.374   2.042   5.872
 5488POPC   C1A68979  10.751   1.829   6.130
 5488POPC   D2A68980  10.619   2.054   6.488
 5488POPC   C3A68981  10.511   1.860   6.885
 5488POPC   C4A68982  10.669   1.977   7.270
 5488POPC   C1B68983  10.150   2.197   6.282
 5488POPC   C2B68984  10.132   2.184   6.742
 5488POPC   C3B68985  10.096   2.200   7.214
 5488POPC   C4B68986  10.057   2.122   7.682
 5489POPC   NC368987  36.246  43.916   5.403
 5489POPC   PO468988  35.688  43.577   5.619
 5489POPC   GL168989  36.077  43.725   5.863
 5489POPC   GL268990  36.224  44.076   5.874
 5489POPC   C1A68991  36.079  43.858   6.299
 5489POPC   D2A68992  36.303  43.845   6.648
 5489POPC   C3A68993  36.057  43.811   6.986
 5489POPC   C4A68994  35.886  44.089   7.247
 5489POPC   C1B68995  36.547  44.142   6.218
 5489POPC   C2B68996  36.502  44.313   6.645
 5489POPC   C3B68997  36.393  44.196   7.065
 5489POPC   C4B68998  36.336  43.979   7.435
 5490POPC   NC368999  43.479  32.178   5.444
 5490POPC   PO469000  43.035  32.604   5.447
 5490POPC   GL169001  43.226  32.449   5.834
 5490POPC   GL269002  43.206  32.077   5.871
 5490POPC   C1A69003  43.070  32.367   6.259
 5490POPC   D2A69004  43.262  32.378   6.657
 5490POPC   C3A69005  42.969  32.356   6.960
 5490POPC   C4A69006  42.990  32.156   7.347
 5490POPC   C1B69007  43.401  31.949   6.266
 5490POPC   C2B69008  43.578  31.978   6.664
 5490POPC   C3B69009  43.380  32.040   7.031
 5490POPC   C4B69010  43.496  32.193   7.386
 5491POPC   NC369011   9.961  28.560   5.613
 5491POPC   PO469012   9.629  28.118   5.305
 5491POPC   GL169013   9.608  28.184   5.753
 5491POPC   GL269014   9.953  28.062   5.809
 5491POPC   C1A69015   9.651  28.376   6.180
 5491POPC   D2A69016   9.541  28.460   6.602
 5491POPC   C3A69017   9.731  28.408   6.993
 5491POPC   C4A69018  10.003  28.592   7.250
 5491POPC   C1B69019  10.102  28.172   6.237
 5491POPC   C2B69020  10.088  28.338   6.651
 5491POPC   C3B69021  10.142  28.124   7.074
 5491POPC   C4B69022  10.165  28.218   7.546
 5492POPC   NC369023  42.706   4.315   5.340
 5492POPC   PO469024  42.132   4.309   5.753
 5492POPC   GL169025  42.481   4.257   5.956
 5492POPC   GL269026  42.649   3.995   5.750
 5492POPC   C1A69027  42.372   4.180   6.412
 5492POPC   D2A69028  42.022   4.072   6.685
 5492POPC   C3A69029  42.085   4.355   6.990
 5492POPC   C4A69030  42.492   4.535   7.061
 5492POPC   C1B69031  42.630   3.821   6.179
 5492POPC   C2B69032  42.758   3.875   6.622
 5492POPC   C3B69033  42.488   4.013   6.937
 5492POPC   C4B69034  42.160   3.823   7.147
 5493POPC   NC369035   5.067  35.348   5.300
 5493POPC   PO469036   4.823  35.022   5.820
 5493POPC   GL169037   5.112  35.364   5.970
 5493POPC   GL269038   5.360  35.472   5.736
 5493POPC   C1A69039   5.160  35.394   6.426
 5493POPC   D2A69040   4.836  35.150   6.683
 5493POPC   C3A69041   4.864  35.197   7.111
 5493POPC   C4A69042   5.118  35.511   7.287
 5493POPC   C1B69043   5.515  35.703   6.087
 5493POPC   C2B69044   5.656  35.624   6.498
 5493POPC   C3B69045   5.449  35.595   6.878
 5493POPC   C4B69046   5.603  35.629   7.321
 5494POPC   NC369047   3.511  25.293   5.398
 5494POPC   PO469048   3.662  24.788   5.772
 5494POPC   GL169049   3.492  25.234   5.905
 5494POPC   GL269050   3.683  25.540   5.811
 5494POPC   C1A69051   3.442  25.503   6.290
 5494POPC   D2A69052   3.512  25.302   6.690
 5494POPC   C3A69053   3.248  25.323   7.075
 5494POPC   C4A69054   3.012  25.040   7.349
 5494POPC   C1B69055   3.877  25.745   6.170
 5494POPC   C2B69056   3.955  25.676   6.613
 5494POPC   C3B69057   3.790  25.509   7.038
 5494POPC   C4B69058   3.639  25.231   7.386
 5495POPC   NC369059   8.977   4.071   5.611
 5495POPC   PO469060   9.392   4.522   5.365
 5495POPC   GL169061   9.141   4.655   5.740
 5495POPC   GL269062   8.793   4.517   5.808
 5495POPC   C1A69063   9.143   4.695   6.208
 5495POPC   D2A69064   9.040   4.670   6.655
 5495POPC   C3A69065   9.233   4.363   6.950
 5495POPC   C4A69066   8.815   4.350   7.071
 5495POPC   C1B69067   8.779   4.292   6.232
 5495POPC   C2B69068   8.980   4.129   6.591
 5495POPC   C3B69069   8.925   3.862   6.949
 5495POPC   C4B69070   8.718   3.770   7.352
 5496POPC   NC369071  35.202   9.983   5.524
 5496POPC   PO469072  35.546   9.395   5.446
 5496POPC   GL169073  35.409   9.509   5.855
 5496POPC   GL269074  35.133   9.258   5.965
 5496POPC   C1A69075  35.397   9.879   6.147
 5496POPC   D2A69076  35.439  10.075   6.570
 5496POPC   C3A69077  35.370   9.898   6.977
 5496POPC   C4A69078  35.270  10.016   7.393
 5496POPC   C1B69079  35.137   9.473   6.299
 5496POPC   C2B69080  35.337   9.494   6.643
 5496POPC   C3B69081  35.132   9.436   6.996
 5496POPC   C4B69082  35.354   9.515   7.344
 5497POPC   NC369083  42.440  31.085   5.678
 5497POPC   PO469084  42.300  30.483   5.362
 5497POPC   GL169085  42.380  30.594   5.814
 5497POPC   GL269086  42.696  30.494   5.892
 5497POPC   C1A69087  42.427  30.726   6.275
 5497POPC   D2A69088  42.592  30.806   6.682
 5497POPC   C3A69089  42.361  30.661   6.998
 5497POPC   C4A69090  42.223  30.733   7.405
 5497POPC   C1B69091  42.679  30.269   6.239
 5497POPC   C2B69092  42.442  30.269   6.609
 5497POPC   C3B69093  42.642  30.236   6.989
 5497POPC   C4B69094  42.711  30.483   7.345
 5498POPC   NC369095  27.762  41.199   5.494
 5498POPC   PO469096  27.203  40.708   5.348
 5498POPC   GL169097  27.491  40.695   5.772
 5498POPC   GL269098  27.468  41.003   5.868
 5498POPC   C1A69099  27.602  40.569   6.232
 5498POPC   D2A69100  27.806  40.371   6.627
 5498POPC   C3A69101  27.844  40.611   7.025
 5498POPC   C4A69102  27.634  40.759   7.397
 5498POPC   C1B69103  27.833  41.033   6.157
 5498POPC   C2B69104  27.892  40.910   6.595
 5498POPC   C3B69105  27.728  41.104   6.995
 5498POPC   C4B69106  27.899  41.189   7.413
 5499POPC   NC369107  37.600  34.140   5.554
 5499POPC   PO469108  37.890  33.443   5.356
 5499POPC   GL169109  37.769  33.670   5.756
 5499POPC   GL269110  37.935  33.989   5.884
 5499POPC   C1A69111  37.545  33.801   6.156
 5499POPC   D2A69112  37.342  33.772   6.579
 5499POPC   C3A69113  37.454  33.933   6.987
 5499POPC   C4A69114  37.539  33.548   7.201
 5499POPC   C1B69115  38.042  33.783   6.262
 5499POPC   C2B69116  38.174  33.588   6.604
 5499POPC   C3B69117  37.899  33.679   6.890
 5499POPC   C4B69118  37.918  33.890   7.297
 5500POPC   NC369119   4.505  40.303   5.016
 5500POPC   PO469120   4.370  40.957   5.278
 5500POPC   GL169121   4.388  40.730   5.697
 5500POPC   GL269122   4.628  40.902   5.926
 5500POPC   C1A69123   4.275  40.549   6.100
 5500POPC   D2A69124   4.234  40.705   6.521
 5500POPC   C3A69125   4.499  40.512   6.807
 5500POPC   C4A69126   4.504  40.456   7.235
 5500POPC   C1B69127   4.686  40.860   6.363
 5500POPC   C2B69128   4.601  41.041   6.757
 5500POPC   C3B69129   4.433  40.952   7.129
 5500POPC   C4B69130   4.025  40.896   7.194
 5501POPC   NC369131  24.973  30.333   5.476
 5501POPC   PO469132  25.375  30.692   5.110
 5501POPC   GL169133  25.252  30.759   5.630
 5501POPC   GL269134  25.336  31.117   5.754
 5501POPC   C1A69135  25.179  30.770   6.110
 5501POPC   D2A69136  25.060  30.644   6.539
 5501POPC   C3A69137  25.292  30.642   6.911
 5501POPC   C4A69138  25.127  30.680   7.304
 5501POPC   C1B69139  25.484  31.183   6.195
 5501POPC   C2B69140  25.453  31.009   6.582
 5501POPC   C3B69141  25.593  31.057   6.998
 5501POPC   C4B69142  25.437  31.084   7.412
 5502POPC   NC369143  27.335  29.573   5.428
 5502POPC   PO469144  27.614  30.200   5.378
 5502POPC   GL169145  27.733  29.852   5.686
 5502POPC   GL269146  27.401  29.841   5.852
 5502POPC   C1A69147  27.779  29.639   6.115
 5502POPC   D2A69148  27.829  29.810   6.527
 5502POPC   C3A69149  27.916  29.630   6.892
 5502POPC   C4A69150  27.976  29.794   7.296
 5502POPC   C1B69151  27.407  29.963   6.284
 5502POPC   C2B69152  27.331  29.776   6.669
 5502POPC   C3B69153  27.481  29.881   7.071
 5502POPC   C4B69154  27.268  30.060   7.379
 5503POPC   NC369155  42.912   8.432   5.381
 5503POPC   PO469156  43.420   8.110   5.657
 5503POPC   GL169157  43.054   8.009   5.918
 5503POPC   GL269158  42.797   8.242   5.832
 5503POPC   C1A69159  43.101   7.966   6.380
 5503POPC   D2A69160  43.500   7.965   6.663
 5503POPC   C3A69161  43.356   8.038   7.076
 5503POPC   C4A69162  42.988   7.886   7.281
 5503POPC   C1B69163  42.815   8.399   6.214
 5503POPC   C2B69164  43.068   8.444   6.587
 5503POPC   C3B69165  42.903   8.282   6.949
 5503POPC   C4B69166  42.828   8.503   7.302
 5504POPC   NC369167  23.578  32.626   5.308
 5504POPC   PO469168  23.610  32.009   5.557
 5504POPC   GL169169  23.895  32.242   5.787
 5504POPC   GL269170  23.971  31.928   5.914
 5504POPC   C1A69171  24.021  32.329   6.223
 5504POPC   D2A69172  23.914  32.140   6.594
 5504POPC   C3A69173  23.726  32.344   6.939
 5504POPC   C4A69174  24.101  32.434   7.159
 5504POPC   C1B69175  23.611  31.891   6.231
 5504POPC   C2B69176  23.418  32.009   6.649
 5504POPC   C3B69177  23.567  31.868   7.064
 5504POPC   C4B69178  23.436  31.851   7.499
 5505POPC   NC369179  20.192  10.667   5.593
 5505POPC   PO469180  19.997  10.139   5.178
 5505POPC   GL169181  19.724  10.291   5.587
 5505POPC   GL269182  19.590  10.614   5.750
 5505POPC   C1A69183  19.776  10.242   6.064
 5505POPC   D2A69184  19.901  10.404   6.480
 5505POPC   C3A69185  19.658  10.359   6.852
 5505POPC   C4A69186  19.790  10.435   7.259
 5505POPC   C1B69187  19.830  10.790   6.140
 5505POPC   C2B69188  19.758  10.898   6.598
 5505POPC   C3B69189  19.756  10.873   7.034
 5505POPC   C4B69190  19.955  10.899   7.435
 5506POPC   NC369191  10.341  18.166   5.547
 5506POPC   PO469192  10.875  18.669   5.524
 5506POPC   GL169193  10.777  18.351   5.802
 5506POPC   GL269194  10.463  18.469   5.917
 5506POPC   C1A69195  10.743  18.001   6.110
 5506POPC   D2A69196  10.532  17.993   6.521
 5506POPC   C3A69197  10.761  17.953   6.903
 5506POPC   C4A69198  10.616  17.972   7.310
 5506POPC   C1B69199  10.658  18.482   6.305
 5506POPC   C2B69200  10.628  18.477   6.734
 5506POPC   C3B69201  10.720  18.440   7.148
 5506POPC   C4B69202  10.824  18.433   7.563
 5507POPC   NC369203   9.869   5.723   5.269
 5507POPC   PO469204   9.472   6.226   5.443
 5507POPC   GL169205   9.731   6.117   5.803
 5507POPC   GL269206   9.896   5.787   5.781
 5507POPC   C1A69207   9.895   6.037   6.224
 5507POPC   D2A69208   9.794   6.199   6.620
 5507POPC   C3A69209   9.864   6.004   6.977
 5507POPC   C4A69210   9.756   6.100   7.385
 5507POPC   C1B69211  10.011   5.529   6.185
 5507POPC   C2B69212  10.084   5.715   6.595
 5507POPC   C3B69213  10.243   5.594   6.984
 5507POPC   C4B69214  10.274   5.240   7.241
 5508POPC   NC369215  37.936  38.849   5.400
 5508POPC   PO469216  37.754  38.108   5.314
 5508POPC   GL169217  37.627  38.429   5.632
 5508POPC   GL269218  37.915  38.542   5.796
 5508POPC   C1A69219  37.457  38.566   6.045
 5508POPC   D2A69220  37.486  38.776   6.470
 5508POPC   C3A69221  37.378  38.529   6.829
 5508POPC   C4A69222  37.492  38.417   7.227
 5508POPC   C1B69223  37.916  38.699   6.202
 5508POPC   C2B69224  38.006  38.676   6.624
 5508POPC   C3B69225  37.867  38.729   7.022
 5508POPC   C4B69226  38.077  38.552   7.372
 5509POPC   NC369227   7.942  19.026   5.565
 5509POPC   PO469228   8.596  19.285   5.414
 5509POPC   GL169229   8.569  19.309   5.862
 5509POPC   GL269230   8.356  19.028   5.901
 5509POPC   C1A69231   8.447  19.329   6.318
 5509POPC   D2A69232   8.132  19.268   6.655
 5509POPC   C3A69233   8.191  18.978   6.992
 5509POPC   C4A69234   8.134  19.202   7.356
 5509POPC   C1B69235   8.195  18.879   6.328
 5509POPC   C2B69236   7.832  18.845   6.627
 5509POPC   C3B69237   7.686  18.923   7.059
 5509POPC   C4B69238   7.766  18.834   7.516
 5510POPC   NC369239  42.318  41.024   4.980
 5510POPC   PO469240  42.043  40.590   5.446
 5510POPC   GL169241  42.364  40.687   5.738
 5510POPC   GL269242  42.286  41.050   5.783
 5510POPC   C1A69243  42.463  40.490   6.127
 5510POPC   D2A69244  42.152  40.540   6.482
 5510POPC   C3A69245  42.266  40.586   6.876
 5510POPC   C4A69246  42.591  40.461   7.134
 5510POPC   C1B69247  42.301  40.960   6.230
 5510POPC   C2B69248  42.533  40.957   6.640
 5510POPC   C3B69249  42.514  40.994   7.090
 5510POPC   C4B69250  42.154  40.938   7.352
 5511POPC   NC369251   9.595  18.825   5.456
 5511POPC   PO469252   9.643  19.495   5.436
 5511POPC   GL169253   9.706  19.196   5.767
 5511POPC   GL269254  10.020  19.028   5.726
 5511POPC   C1A69255   9.616  19.040   6.171
 5511POPC   D2A69256   9.787  19.137   6.528
 5511POPC   C3A69257   9.565  18.999   6.827
 5511POPC   C4A69258   9.468  18.844   7.196
 5511POPC   C1B69259  10.083  19.285   6.113
 5511POPC   C2B69260  10.218  19.402   6.542
 5511POPC   C3B69261  10.277  19.268   6.957
 5511POPC   C4B69262   9.955  19.059   7.169
 5512POPC   NC369263  32.245  23.256   5.488
 5512POPC   PO469264  32.161  22.573   5.345
 5512POPC   GL169265  32.299  22.825   5.728
 5512POPC   GL269266  32.578  23.000   5.827
 5512POPC   C1A69267  32.184  23.126   6.104
 5512POPC   D2A69268  32.074  23.087   6.507
 5512POPC   C3A69269  32.166  23.255   6.896
 5512POPC   C4A69270  32.185  23.028   7.296
 5512POPC   C1B69271  32.705  23.221   6.184
 5512POPC   C2B69272  32.598  23.262   6.604
 5512POPC   C3B69273  32.628  23.046   6.994
 5512POPC   C4B69274  32.580  23.356   7.288
 5513POPC   NC369275  39.497  21.636   5.194
 5513POPC   PO469276  39.452  21.043   5.624
 5513POPC   GL169277  39.214  21.348   5.903
 5513POPC   GL269278  38.910  21.556   5.759
 5513POPC   C1A69279  39.142  21.101   6.304
 5513POPC   D2A69280  38.995  21.099   6.743
 5513POPC   C3A69281  39.322  21.245   7.048
 5513POPC   C4A69282  39.455  21.055   7.443
 5513POPC   C1B69283  38.825  21.480   6.217
 5513POPC   C2B69284  39.049  21.590   6.572
 5513POPC   C3B69285  38.907  21.569   6.979
 5513POPC   C4B69286  39.087  21.621   7.345
 5514POPC   NC369287  31.698  25.825   5.448
 5514POPC   PO469288  31.093  26.060   5.346
 5514POPC   GL169289  31.343  26.023   5.761
 5514POPC   GL269290  31.201  25.703   5.700
 5514POPC   C1A69291  31.546  26.079   6.192
 5514POPC   D2A69292  31.542  25.825   6.594
 5514POPC   C3A69293  31.560  26.071   6.963
 5514POPC   C4A69294  31.624  26.203   7.370
 5514POPC   C1B69295  31.226  25.685   6.172
 5514POPC   C2B69296  31.038  25.813   6.510
 5514POPC   C3B69297  31.076  25.863   6.907
 5514POPC   C4B69298  31.197  25.948   7.299
 5515POPC   NC369299  30.881   3.883   5.326
 5515POPC   PO469300  30.397   3.342   5.431
 5515POPC   GL169301  30.658   3.439   5.784
 5515POPC   GL269302  30.899   3.709   5.796
 5515POPC   C1A69303  30.713   3.321   6.204
 5515POPC   D2A69304  30.512   3.385   6.577
 5515POPC   C3A69305  30.693   3.403   6.922
 5515POPC   C4A69306  30.601   3.693   7.187
 5515POPC   C1B69307  30.708   3.825   6.175
 5515POPC   C2B69308  30.939   3.674   6.530
 5515POPC   C3B69309  31.043   3.803   6.916
 5515POPC   C4B69310  31.069   3.603   7.326
 5516POPC   NC369311  35.835  42.076   5.559
 5516POPC   PO469312  36.250  41.571   5.344
 5516POPC   GL169313  36.327  41.552   5.751
 5516POPC   GL269314  36.011  41.675   5.824
 5516POPC   C1A69315  36.217  41.362   6.156
 5516POPC   D2A69316  36.350  41.521   6.528
 5516POPC   C3A69317  36.090  41.427   6.880
 5516POPC   C4A69318  36.224  41.396   7.295
 5516POPC   C1B69319  35.963  41.824   6.243
 5516POPC   C2B69320  36.034  41.930   6.673
 5516POPC   C3B69321  35.942  41.887   7.099
 5516POPC   C4B69322  35.878  41.730   7.489
 5517POPC   NC369323   4.015  16.849   5.397
 5517POPC   PO469324   3.371  16.729   5.393
 5517POPC   GL169325   3.636  16.622   5.688
 5517POPC   GL269326   3.649  16.260   5.644
 5517POPC   C1A69327   3.570  16.779   6.113
 5517POPC   D2A69328   3.330  16.632   6.466
 5517POPC   C3A69329   3.420  16.887   6.813
 5517POPC   C4A69330   3.557  16.814   7.212
 5517POPC   C1B69331   3.618  16.270   6.065
 5517POPC   C2B69332   3.789  16.410   6.446
 5517POPC   C3B69333   3.600  16.392   6.866
 5517POPC   C4B69334   3.817  16.364   7.252
 5518POPC   NC369335  37.755  39.812   5.202
 5518POPC   PO469336  37.203  40.019   5.219
 5518POPC   GL169337  37.450  40.105   5.650
 5518POPC   GL269338  37.827  40.051   5.662
 5518POPC   C1A69339  37.536  39.965   6.111
 5518POPC   D2A69340  37.700  39.641   6.419
 5518POPC   C3A69341  37.652  39.692   6.873
 5518POPC   C4A69342  37.671  40.090   7.097
 5518POPC   C1B69343  38.016  40.167   6.079
 5518POPC   C2B69344  37.899  40.198   6.527
 5518POPC   C3B69345  38.115  40.343   6.903
 5518POPC   C4B69346  38.049  40.317   7.345
 5519POPC   NC369347  36.299  34.974   5.359
 5519POPC   PO469348  36.045  35.618   5.365
 5519POPC   GL169349  36.137  35.429   5.770
 5519POPC   GL269350  36.468  35.298   5.749
 5519POPC   C1A69351  36.026  35.667   6.171
 5519POPC   D2A69352  35.836  35.667   6.591
 5519POPC   C3A69353  35.917  35.248   6.751
 5519POPC   C4A69354  36.128  35.056   7.089
 5519POPC   C1B69355  36.522  35.521   6.133
 5519POPC   C2B69356  36.341  35.488   6.569
 5519POPC   C3B69357  36.225  35.587   7.000
 5519POPC   C4B69358  36.373  35.752   7.391
 5520POPC   NC369359  31.241  10.375   5.672
 5520POPC   PO469360  30.623  10.559   5.403
 5520POPC   GL169361  30.681  10.218   5.740
 5520POPC   GL269362  30.800  10.481   5.917
 5520POPC   C1A69363  30.670  10.110   6.233
 5520POPC   D2A69364  30.670  10.367   6.646
 5520POPC   C3A69365  30.862  10.468   7.053
 5520POPC   C4A69366  30.710  10.565   7.472
 5520POPC   C1B69367  30.439  10.566   6.226
 5520POPC   C2B69368  30.295  10.765   6.603
 5520POPC   C3B69369  30.377  10.667   7.041
 5520POPC   C4B69370  30.492  10.997   7.346
 5521POPC   NC369371  25.399   5.776   5.360
 5521POPC   PO469372  25.027   6.383   5.175
 5521POPC   GL169373  25.288   6.209   5.602
 5521POPC   GL269374  25.092   5.892   5.758
 5521POPC   C1A69375  25.373   6.152   6.103
 5521POPC   D2A69376  25.434   6.307   6.578
 5521POPC   C3A69377  25.245   6.172   6.974
 5521POPC   C4A69378  25.249   5.777   7.174
 5521POPC   C1B69379  24.966   5.825   6.216
 5521POPC   C2B69380  25.105   5.687   6.648
 5521POPC   C3B69381  24.913   5.452   6.992
 5521POPC   C4B69382  25.072   5.342   7.443
 5522POPC   NC369383  41.075  36.373   5.441
 5522POPC   PO469384  40.834  35.823   5.507
 5522POPC   GL169385  40.777  36.051   5.846
 5522POPC   GL269386  40.511  36.263   5.881
 5522POPC   C1A69387  41.003  36.068   6.198
 5522POPC   D2A69388  41.027  36.159   6.634
 5522POPC   C3A69389  41.112  35.851   6.941
 5522POPC   C4A69390  41.260  36.195   7.144
 5522POPC   C1B69391  40.570  36.316   6.294
 5522POPC   C2B69392  40.520  36.149   6.696
 5522POPC   C3B69393  40.701  36.212   7.111
 5522POPC   C4B69394  40.476  36.187   7.521
 5523POPC   NC369395   1.870  29.333   5.627
 5523POPC   PO469396   1.802  28.709   5.704
 5523POPC   GL169397   1.775  28.899   6.042
 5523POPC   GL269398   2.117  29.029   5.991
 5523POPC   C1A69399   1.785  29.149   6.375
 5523POPC   D2A69400   2.154  29.053   6.577
 5523POPC   C3A69401   2.021  28.909   6.921
 5523POPC   C4A69402   1.751  29.133   7.161
 5523POPC   C1B69403   2.205  29.430   6.226
 5523POPC   C2B69404   2.375  29.512   6.645
 5523POPC   C3B69405   2.211  29.377   7.034
 5523POPC   C4B69406   2.183  29.618   7.387
 5524POPC   NC369407  19.470   0.712   5.424
 5524POPC   PO469408  18.931   0.329   5.302
 5524POPC   GL169409  19.046   0.398   5.732
 5524POPC   GL269410  19.154   0.721   5.829
 5524POPC   C1A69411  18.844   0.466   6.152
 5524POPC   D2A69412  18.865   0.314   6.567
 5524POPC   C3A69413  18.736   0.593   6.890
 5524POPC   C4A69414  19.003   0.516   7.205
 5524POPC   C1B69415  19.332   0.626   6.278
 5524POPC   C2B69416  19.278   0.568   6.747
 5524POPC   C3B69417  19.496   0.461   7.157
 5524POPC   C4B69418  19.416   0.353   7.611
 5525POPC   NC369419  28.737  22.078   5.423
 5525POPC   PO469420  29.384  22.246   5.394
 5525POPC   GL169421  29.185  22.165   5.780
 5525POPC   GL269422  28.901  22.378   5.836
 5525POPC   C1A69423  29.255  22.349   6.212
 5525POPC   D2A69424  29.493  22.276   6.582
 5525POPC   C3A69425  29.408  22.504   6.953
 5525POPC   C4A69426  29.221  22.328   7.338
 5525POPC   C1B69427  28.745  22.297   6.237
 5525POPC   C2B69428  28.918  22.079   6.579
 5525POPC   C3B69429  29.165  22.007   6.943
 5525POPC   C4B69430  29.024  21.687   7.205
 5526POPC   NC369431   1.133   8.841   5.372
 5526POPC   PO469432   0.744   9.402   5.405
 5526POPC   GL169433   1.137   9.210   5.718
 5526POPC   GL269434   1.072   8.840   5.874
 5526POPC   C1A69435   1.452   9.096   6.094
 5526POPC   D2A69436   1.285   8.963   6.524
 5526POPC   C3A69437   1.437   9.127   6.939
 5526POPC   C4A69438   1.635   9.177   7.363
 5526POPC   C1B69439   1.348   8.593   6.174
 5526POPC   C2B69440   1.480   8.487   6.608
 5526POPC   C3B69441   1.287   8.642   6.982
 5526POPC   C4B69442   1.107   8.572   7.386
 5527POPC   NC369443   5.090  22.970   5.362
 5527POPC   PO469444   5.742  23.003   5.347
 5527POPC   GL169445   5.377  22.995   5.760
 5527POPC   GL269446   5.333  22.671   5.950
 5527POPC   C1A69447   5.146  23.113   6.169
 5527POPC   D2A69448   5.225  22.886   6.611
 5527POPC   C3A69449   5.035  23.107   7.004
 5527POPC   C4A69450   4.762  23.354   7.321
 5527POPC   C1B69451   4.961  22.640   6.234
 5527POPC   C2B69452   4.767  22.658   6.665
 5527POPC   C3B69453   4.913  22.586   7.085
 5527POPC   C4B69454   4.912  22.838   7.443
 5528POPC   NC369455  10.902   1.065   5.494
 5528POPC   PO469456  10.281   1.308   5.462
 5528POPC   GL169457  10.489   1.469   5.856
 5528POPC   GL269458  10.867   1.439   5.845
 5528POPC   C1A69459  10.441   1.408   6.327
 5528POPC   D2A69460  10.191   1.155   6.635
 5528POPC   C3A69461  10.397   1.141   7.043
 5528POPC   C4A69462  10.659   1.462   7.249
 5528POPC   C1B69463  10.900   1.181   6.235
 5528POPC   C2B69464  10.780   1.097   6.680
 5528POPC   C3B69465  10.984   1.115   7.084
 5528POPC   C4B69466  10.980   1.165   7.542
 5529POPC   NC369467   0.032  29.050   5.525
 5529POPC   PO469468   0.571  29.352   5.406
 5529POPC   GL169469   0.524  29.041   5.757
 5529POPC   GL269470   0.222  29.046   5.988
 5529POPC   C1A69471   0.724  28.974   6.178
 5529POPC   D2A69472   0.886  29.294   6.495
 5529POPC   C3A69473   0.680  29.328   6.898
 5529POPC   C4A69474   0.652  29.052   7.273
 5529POPC   C1B69475   0.064  29.479   6.115
 5529POPC   C2B69476   0.184  29.670   6.514
 5529POPC   C3B69477   0.158  29.577   6.940
 5529POPC   C4B69478   0.206  29.281   7.242
 5530POPC   NC369479  12.534  22.630   5.495
 5530POPC   PO469480  12.029  23.284   5.431
 5530POPC   GL169481  11.957  23.065   5.809
 5530POPC   GL269482  12.318  23.011   5.787
 5530POPC   C1A69483  12.102  22.751   6.161
 5530POPC   D2A69484  12.260  22.690   6.604
 5530POPC   C3A69485  11.982  22.871   6.948
 5530POPC   C4A69486  11.883  22.905   7.391
 5530POPC   C1B69487  12.286  23.382   6.088
 5530POPC   C2B69488  12.319  23.532   6.510
 5530POPC   C3B69489  12.290  23.301   6.888
 5530POPC   C4B69490  12.242  23.290   7.313
 5531POPC   NC369491  23.043  14.689   5.238
 5531POPC   PO469492  22.954  15.362   5.448
 5531POPC   GL169493  22.963  15.206   5.910
 5531POPC   GL269494  23.316  15.217   6.061
 5531POPC   C1A69495  22.898  15.042   6.334
 5531POPC   D2A69496  22.701  14.893   6.745
 5531POPC   C3A69497  22.771  15.145   7.109
 5531POPC   C4A69498  23.135  15.462   7.218
 5531POPC   C1B69499  23.380  15.361   6.453
 5531POPC   C2B69500  23.140  15.212   6.769
 5531POPC   C3B69501  23.151  14.818   7.009
 5531POPC   C4B69502  23.175  14.675   7.464
 5532POPC   NC369503  24.486  13.090   5.108
 5532POPC   PO469504  24.764  12.773   5.605
 5532POPC   GL169505  24.536  12.592   5.944
 5532POPC   GL269506  24.828  12.470   6.091
 5532POPC   C1A69507  24.257  12.680   6.305
 5532POPC   D2A69508  24.298  12.886   6.704
 5532POPC   C3A69509  24.245  12.775   7.132
 5532POPC   C4A69510  24.363  13.085   7.445
 5532POPC   C1B69511  24.766  12.910   6.277
 5532POPC   C2B69512  24.775  13.146   6.669
 5532POPC   C3B69513  24.707  12.918   7.044
 5532POPC   C4B69514  24.642  12.656   7.436
 5533POPC   NC369515  35.709  13.312   5.534
 5533POPC   PO469516  35.463  13.873   5.263
 5533POPC   GL169517  35.361  13.699   5.702
 5533POPC   GL269518  35.596  13.586   5.942
 5533POPC   C1A69519  35.132  13.679   6.133
 5533POPC   D2A69520  35.181  13.794   6.592
 5533POPC   C3A69521  35.147  13.465   6.896
 5533POPC   C4A69522  35.167  13.461   7.341
 5533POPC   C1B69523  35.541  13.472   6.383
 5533POPC   C2B69524  35.659  13.449   6.809
 5533POPC   C3B69525  35.657  13.425   7.240
 5533POPC   C4B69526  35.646  13.353   7.679
 5534POPC   NC369527  43.755  13.751   5.268
 5534POPC   PO469528  44.325  13.675   5.549
 5534POPC   GL169529  44.102  13.495   5.863
 5534POPC   GL269530  44.273  13.562   6.132
 5534POPC   C1A69531  43.689  13.460   6.079
 5534POPC   D2A69532  43.434  13.595   6.437
 5534POPC   C3A69533  43.683  13.651   6.807
 5534POPC   C4A69534  43.824  13.406   7.149
 5534POPC   C1B69535  43.970  13.817   6.385
 5534POPC   C2B69536  44.056  14.018   6.800
 5534POPC   C3B69537  44.019  13.885   7.231
 5534POPC   C4B69538  44.154  13.925   7.690
 5535POPC   NC369539  32.988  40.132   5.241
 5535POPC   PO469540  32.995  40.801   5.336
 5535POPC   GL169541  32.970  40.737   5.801
 5535POPC   GL269542  32.654  40.599   5.989
 5535POPC   C1A69543  33.164  40.759   6.200
 5535POPC   D2A69544  33.190  41.027   6.562
 5535POPC   C3A69545  33.321  40.906   6.955
 5535POPC   C4A69546  33.048  41.061   7.240
 5535POPC   C1B69547  32.859  40.362   6.306
 5535POPC   C2B69548  33.090  40.506   6.672
 5535POPC   C3B69549  32.962  40.563   7.113
 5535POPC   C4B69550  32.827  40.432   7.530
 5536POPC   NC369551  18.673  27.568   5.458
 5536POPC   PO469552  19.293  27.615   5.453
 5536POPC   GL169553  19.254  27.792   5.865
 5536POPC   GL269554  18.910  27.877   5.832
 5536POPC   C1A69555  19.141  27.789   6.311
 5536POPC   D2A69556  18.946  27.425   6.497
 5536POPC   C3A69557  19.102  27.264   6.897
 5536POPC   C4A69558  19.043  27.381   7.276
 5536POPC   C1B69559  18.641  27.804   6.170
 5536POPC   C2B69560  18.684  27.915   6.590
 5536POPC   C3B69561  18.845  27.718   6.923
 5536POPC   C4B69562  18.633  27.690   7.285
 5537POPC   NC369563  35.110  36.733   5.346
 5537POPC   PO469564  34.520  36.976   5.267
 5537POPC   GL169565  34.508  36.949   5.710
 5537POPC   GL269566  34.830  36.800   5.761
 5537POPC   C1A69567  34.568  37.127   6.130
 5537POPC   D2A69568  34.599  36.961   6.552
 5537POPC   C3A69569  34.680  37.164   6.951
 5537POPC   C4A69570  34.482  36.886   7.253
 5537POPC   C1B69571  34.886  36.683   6.176
 5537POPC   C2B69572  35.077  36.806   6.532
 5537POPC   C3B69573  34.911  36.703   6.912
 5537POPC   C4B69574  34.964  36.720   7.309
 5538POPC   NC369575  40.995  23.924   5.549
 5538POPC   PO469576  40.512  23.477   5.354
 5538POPC   GL169577  40.786  23.520   5.742
 5538POPC   GL269578  40.993  23.248   5.889
 5538POPC   C1A69579  40.896  23.738   6.154
 5538POPC   D2A69580  40.854  24.025   6.505
 5538POPC   C3A69581  40.856  23.870   6.956
 5538POPC   C4A69582  40.889  24.011   7.398
 5538POPC   C1B69583  40.575  23.344   6.141
 5538POPC   C2B69584  40.555  23.570   6.531
 5538POPC   C3B69585  40.472  23.524   6.931
 5538POPC   C4B69586  40.427  23.331   7.290
 5539POPC   NC369587   2.801  38.502   5.620
 5539POPC   PO469588   3.442  38.579   5.538
 5539POPC   GL169589   3.534  38.465   5.907
 5539POPC   GL269590   3.166  38.495   5.971
 5539POPC   C1A69591   3.766  38.419   6.265
 5539POPC   D2A69592   3.641  38.222   6.634
 5539POPC   C3A69593   3.828  38.368   6.983
 5539POPC   C4A69594   3.865  38.498   7.387
 5539POPC   C1B69595   3.290  38.673   6.330
 5539POPC   C2B69596   3.241  38.905   6.704
 5539POPC   C3B69597   3.489  38.779   7.072
 5539POPC   C4B69598   3.376  38.384   7.274
 5540POPC   NC369599   5.081   5.758   5.312
 5540POPC   PO469600   5.622   5.387   5.704
 5540POPC   GL169601   5.255   5.699   5.861
 5540POPC   GL269602   4.899   5.717   5.995
 5540POPC   C1A69603   5.220   6.031   6.235
 5540POPC   D2A69604   5.032   6.097   6.667
 5540POPC   C3A69605   5.271   6.242   7.037
 5540POPC   C4A69606   5.363   6.123   7.454
 5540POPC   C1B69607   4.878   5.660   6.418
 5540POPC   C2B69608   5.157   5.608   6.724
 5540POPC   C3B69609   5.154   5.760   7.118
 5540POPC   C4B69610   4.855   5.920   7.437
 5541POPC   NC369611  14.683   7.217   5.116
 5541POPC   PO469612  14.249   7.595   5.496
 5541POPC   GL169613  14.199   7.452   5.895
 5541POPC   GL269614  14.506   7.257   5.922
 5541POPC   C1A69615  14.375   7.522   6.339
 5541POPC   D2A69616  14.767   7.562   6.575
 5541POPC   C3A69617  14.632   7.562   6.999
 5541POPC   C4A69618  14.198   7.482   7.103
 5541POPC   C1B69619  14.156   7.083   6.228
 5541POPC   C2B69620  13.961   7.190   6.643
 5541POPC   C3B69621  13.978   7.017   7.070
 5541POPC   C4B69622  14.249   7.077   7.439
 5542POPC   NC369623  13.158  28.085   5.268
 5542POPC   PO469624  12.628  28.082   5.691
 5542POPC   GL169625  12.799  28.419   5.927
 5542POPC   GL269626  13.124  28.518   5.792
 5542POPC   C1A69627  13.046  28.544   6.312
 5542POPC   D2A69628  13.137  28.527   6.740
 5542POPC   C3A69629  12.889  28.249   6.961
 5542POPC   C4A69630  12.667  28.342   7.307
 5542POPC   C1B69631  13.229  28.137   6.049
 5542POPC   C2B69632  13.138  28.040   6.509
 5542POPC   C3B69633  13.360  28.096   6.929
 5542POPC   C4B69634  13.191  28.172   7.375
 5543POPC   NC369635  42.583  24.249   5.078
 5543POPC   PO469636  41.991  24.424   5.446
 5543POPC   GL169637  42.139  24.661   5.772
 5543POPC   GL269638  42.480  24.719   5.675
 5543POPC   C1A69639  42.097  24.581   6.211
 5543POPC   D2A69640  42.231  24.354   6.583
 5543POPC   C3A69641  42.039  24.421   6.987
 5543POPC   C4A69642  42.124  24.596   7.384
 5543POPC   C1B69643  42.608  24.575   6.111
 5543POPC   C2B69644  42.599  24.721   6.546
 5543POPC   C3B69645  42.502  24.624   6.990
 5543POPC   C4B69646  42.743  24.356   7.282
 5544POPC   NC369647  14.691  14.854   5.375
 5544POPC   PO469648  14.304  15.305   5.549
 5544POPC   GL169649  14.400  14.977   5.858
 5544POPC   GL269650  14.704  15.130   5.929
 5544POPC   C1A69651  14.491  14.843   6.283
 5544POPC   D2A69652  14.780  14.967   6.625
 5544POPC   C3A69653  14.615  14.963   7.035
 5544POPC   C4A69654  14.760  14.768   7.411
 5544POPC   C1B69655  14.641  15.357   6.320
 5544POPC   C2B69656  14.703  15.465   6.767
 5544POPC   C3B69657  14.429  15.483   7.110
 5544POPC   C4B69658  14.409  15.750   7.485
 5545POPC   NC369659  23.784  38.867   5.247
 5545POPC   PO469660  24.108  39.368   5.594
 5545POPC   GL169661  23.886  39.238   5.970
 5545POPC   GL269662  23.781  38.954   5.862
 5545POPC   C1A69663  23.546  39.057   6.284
 5545POPC   D2A69664  23.398  38.763   6.610
 5545POPC   C3A69665  23.540  38.980   6.960
 5545POPC   C4A69666  23.600  39.357   7.187
 5545POPC   C1B69667  24.029  38.851   6.271
 5545POPC   C2B69668  24.099  38.769   6.714
 5545POPC   C3B69669  24.046  39.027   7.064
 5545POPC   C4B69670  23.809  38.953   7.427
 5546POPC   NC369671  39.252  17.686   5.495
 5546POPC   PO469672  39.559  17.034   5.441
 5546POPC   GL169673  39.411  17.235   5.901
 5546POPC   GL269674  39.389  17.602   5.960
 5546POPC   C1A69675  39.055  17.373   6.264
 5546POPC   D2A69676  38.765  17.481   6.657
 5546POPC   C3A69677  38.836  17.409   7.106
 5546POPC   C4A69678  39.176  17.607   7.299
 5546POPC   C1B69679  39.343  17.824   6.327
 5546POPC   C2B69680  39.425  17.672   6.726
 5546POPC   C3B69681  39.650  17.675   7.116
 5546POPC   C4B69682  39.504  17.985   7.444
 5547POPC   NC369683   4.270   3.952   5.429
 5547POPC   PO469684   4.036   4.561   5.353
 5547POPC   GL169685   4.048   4.350   5.750
 5547POPC   GL269686   4.373   4.330   5.794
 5547POPC   C1A69687   4.110   4.436   6.218
 5547POPC   D2A69688   4.350   4.192   6.544
 5547POPC   C3A69689   4.196   4.290   6.953
 5547POPC   C4A69690   3.866   4.529   7.144
 5547POPC   C1B69691   4.626   4.483   6.148
 5547POPC   C2B69692   4.841   4.380   6.531
 5547POPC   C3B69693   4.716   4.266   6.915
 5547POPC   C4B69694   4.574   4.355   7.335
 5548POPC   NC369695  37.045  39.112   5.337
 5548POPC   PO469696  37.474  39.616   5.532
 5548POPC   GL169697  37.144  39.339   5.820
 5548POPC   GL269698  36.832  39.085   5.796
 5548POPC   C1A69699  36.853  39.371   6.208
 5548POPC   D2A69700  36.546  39.487   6.538
 5548POPC   C3A69701  36.754  39.572   6.919
 5548POPC   C4A69702  37.143  39.441   7.046
 5548POPC   C1B69703  37.071  38.892   6.134
 5548POPC   C2B69704  36.966  38.673   6.541
 5548POPC   C3B69705  36.897  38.856   6.966
 5548POPC   C4B69706  36.570  39.152   7.200
 5549POPC   NC369707  20.935   8.527   5.439
 5549POPC   PO469708  21.535   8.188   5.484
 5549POPC   GL169709  21.421   8.339   5.909
 5549POPC   GL269710  21.059   8.452   5.932
 5549POPC   C1A69711  21.353   8.201   6.348
 5549POPC   D2A69712  21.382   8.324   6.796
 5549POPC   C3A69713  21.575   8.171   7.197
 5549POPC   C4A69714  21.688   8.326   7.673
 5549POPC   C1B69715  20.858   8.153   6.220
 5549POPC   C2B69716  20.893   8.036   6.663
 5549POPC   C3B69717  21.089   8.000   7.066
 5549POPC   C4B69718  21.052   8.156   7.478
 5550POPC   NC369719  33.466   2.725   5.354
 5550POPC   PO469720  34.068   2.979   5.205
 5550POPC   GL169721  33.919   3.084   5.665
 5550POPC   GL269722  33.588   2.935   5.796
 5550POPC   C1A69723  34.018   2.857   6.099
 5550POPC   D2A69724  34.276   2.797   6.511
 5550POPC   C3A69725  34.036   2.802   6.906
 5550POPC   C4A69726  33.931   2.989   7.285
 5550POPC   C1B69727  33.453   2.919   6.248
 5550POPC   C2B69728  33.548   2.804   6.658
 5550POPC   C3B69729  33.451   2.831   7.074
 5550POPC   C4B69730  33.542   2.723   7.478
 5551POPC   NC369731   7.601  13.158   5.010
 5551POPC   PO469732   7.134  13.534   5.380
 5551POPC   GL169733   7.300  13.616   5.760
 5551POPC   GL269734   7.621  13.801   5.658
 5551POPC   C1A69735   7.161  13.499   6.175
 5551POPC   D2A69736   7.260  13.797   6.525
 5551POPC   C3A69737   7.228  13.634   6.946
 5551POPC   C4A69738   7.163  13.539   7.383
 5551POPC   C1B69739   7.619  13.755   6.115
 5551POPC   C2B69740   7.755  13.649   6.524
 5551POPC   C3B69741   7.840  13.807   6.904
 5551POPC   C4B69742   7.633  13.752   7.311
 5552POPC   NC369743  29.528  25.755   5.669
 5552POPC   PO469744  28.914  25.978   5.541
 5552POPC   GL169745  28.978  26.013   5.888
 5552POPC   GL269746  28.909  26.385   5.839
 5552POPC   C1A69747  29.194  25.815   6.224
 5552POPC   D2A69748  29.418  25.767   6.593
 5552POPC   C3A69749  29.202  25.854   6.953
 5552POPC   C4A69750  29.133  25.925   7.348
 5552POPC   C1B69751  29.110  26.337   6.226
 5552POPC   C2B69752  29.198  26.253   6.632
 5552POPC   C3B69753  29.000  26.377   7.003
 5552POPC   C4B69754  28.930  26.354   7.450
 5553POPC   NC369755   1.829  40.631   5.510
 5553POPC   PO469756   2.573  40.721   5.370
 5553POPC   GL169757   2.367  40.883   5.769
 5553POPC   GL269758   2.060  41.065   5.742
 5553POPC   C1A69759   2.148  40.747   6.166
 5553POPC   D2A69760   1.919  40.886   6.544
 5553POPC   C3A69761   2.118  40.834   6.968
 5553POPC   C4A69762   2.259  40.479   7.208
 5553POPC   C1B69763   1.754  41.138   6.088
 5553POPC   C2B69764   1.662  41.361   6.483
 5553POPC   C3B69765   1.746  41.191   6.913
 5553POPC   C4B69766   1.642  40.808   7.143
 5554POPC   NC369767  31.859  35.988   5.575
 5554POPC   PO469768  32.330  36.465   5.409
 5554POPC   GL169769  32.331  36.246   5.846
 5554POPC   GL269770  32.591  35.954   5.940
 5554POPC   C1A69771  32.306  36.175   6.303
 5554POPC   D2A69772  32.029  35.986   6.619
 5554POPC   C3A69773  32.073  36.211   6.995
 5554POPC   C4A69774  32.430  36.232   7.250
 5554POPC   C1B69775  32.398  35.652   6.255
 5554POPC   C2B69776  32.453  35.492   6.679
 5554POPC   C3B69777  32.376  35.776   7.018
 5554POPC   C4B69778  32.393  35.777   7.505
 5555POPC   NC369779   8.706  44.648   5.555
 5555POPC   PO469780   9.303  44.301   5.365
 5555POPC   GL169781   9.165  44.561   5.730
 5555POPC   GL269782   9.343  44.848   5.669
 5555POPC   C1A69783   8.973  44.653   6.148
 5555POPC   D2A69784   8.781  44.613   6.570
 5555POPC   C3A69785   8.864  44.939   6.876
 5555POPC   C4A69786   8.822  44.873   7.290
 5555POPC   C1B69787   9.415  44.965   6.096
 5555POPC   C2B69788   9.220  44.936   6.502
 5555POPC   C3B69789   9.394   0.061   6.848
 5555POPC   C4B69790   9.278   0.094   7.237
 5556POPC   NC369791  17.462   8.620   5.582
 5556POPC   PO469792  17.683   9.258   5.329
 5556POPC   GL169793  17.707   9.184   5.780
 5556POPC   GL269794  17.967   9.420   5.817
 5556POPC   C1A69795  17.454   9.097   6.180
 5556POPC   D2A69796  17.200   8.997   6.576
 5556POPC   C3A69797  17.336   8.847   6.992
 5556POPC   C4A69798  17.214   8.659   7.400
 5556POPC   C1B69799  17.949   9.249   6.250
 5556POPC   C2B69800  18.012   9.388   6.680
 5556POPC   C3B69801  17.852   9.257   7.093
 5556POPC   C4B69802  17.395   9.299   7.244
 5557POPC   NC369803  24.349  21.029   5.630
 5557POPC   PO469804  24.451  20.399   5.348
 5557POPC   GL169805  24.512  20.515   5.785
 5557POPC   GL269806  24.751  20.216   5.758
 5557POPC   C1A69807  24.590  20.839   6.183
 5557POPC   D2A69808  24.381  20.966   6.592
 5557POPC   C3A69809  24.553  20.866   7.032
 5557POPC   C4A69810  24.470  20.700   7.469
 5557POPC   C1B69811  24.790  20.367   6.184
 5557POPC   C2B69812  24.572  20.485   6.556
 5557POPC   C3B69813  24.706  20.378   6.946
 5557POPC   C4B69814  24.638  20.194   7.328
 5558POPC   NC369815  10.360   2.333   5.400
 5558POPC   PO469816  10.501   2.930   5.275
 5558POPC   GL169817  10.492   2.839   5.737
 5558POPC   GL269818  10.264   2.554   5.873
 5558POPC   C1A69819  10.477   3.008   6.163
 5558POPC   D2A69820  10.702   3.061   6.564
 5558POPC   C3A69821  10.456   2.944   6.938
 5558POPC   C4A69822  10.485   2.864   7.402
 5558POPC   C1B69823  10.524   2.523   6.261
 5558POPC   C2B69824  10.513   2.511   6.693
 5558POPC   C3B69825  10.535   2.444   7.119
 5558POPC   C4B69826  10.479   2.369   7.568
 5559POPC   NC369827  24.078  14.514   5.378
 5559POPC   PO469828  23.407  14.482   5.454
 5559POPC   GL169829  23.481  14.334   5.817
 5559POPC   GL269830  23.811  14.463   5.852
 5559POPC   C1A69831  23.456  14.467   6.249
 5559POPC   D2A69832  23.444  14.826   6.556
 5559POPC   C3A69833  23.640  14.701   6.955
 5559POPC   C4A69834  23.540  14.418   7.237
 5559POPC   C1B69835  23.953  14.582   6.282
 5559POPC   C2B69836  24.030  14.432   6.723
 5559POPC   C3B69837  24.052  14.391   7.197
 5559POPC   C4B69838  24.219  14.463   7.651
 5560POPC   NC369839   8.207  44.313   5.105
 5560POPC   PO469840   8.279  43.706   5.381
 5560POPC   GL169841   8.345  43.839   5.798
 5560POPC   GL269842   7.980  43.765   5.895
 5560POPC   C1A69843   8.382  43.691   6.202
 5560POPC   D2A69844   8.169  43.623   6.563
 5560POPC   C3A69845   8.376  43.818   6.919
 5560POPC   C4A69846   8.305  44.038   7.298
 5560POPC   C1B69847   8.080  44.108   6.188
 5560POPC   C2B69848   8.092  44.304   6.580
 5560POPC   C3B69849   7.985  44.306   7.013
 5560POPC   C4B69850   7.965  44.618   7.313
 5561POPC   NC369851  28.701  18.123   5.545
 5561POPC   PO469852  28.262  18.624   5.601
 5561POPC   GL169853  28.383  18.336   5.883
 5561POPC   GL269854  28.033  18.287   5.953
 5561POPC   C1A69855  28.448  18.118   6.258
 5561POPC   D2A69856  28.243  18.313   6.600
 5561POPC   C3A69857  28.462  18.186   6.968
 5561POPC   C4A69858  28.729  18.396   7.271
 5561POPC   C1B69859  27.985  17.936   6.246
 5561POPC   C2B69860  28.169  17.822   6.679
 5561POPC   C3B69861  28.115  17.862   7.144
 5561POPC   C4B69862  28.098  17.840   7.601
 5562POPC   NC369863  17.498  14.012   5.348
 5562POPC   PO469864  17.580  13.344   5.315
 5562POPC   GL169865  17.609  13.615   5.694
 5562POPC   GL269866  17.262  13.741   5.737
 5562POPC   C1A69867  17.613  13.639   6.166
 5562POPC   D2A69868  17.391  13.548   6.602
 5562POPC   C3A69869  17.557  13.675   7.040
 5562POPC   C4A69870  17.572  13.604   7.500
 5562POPC   C1B69871  17.188  13.927   6.156
 5562POPC   C2B69872  17.014  13.878   6.546
 5562POPC   C3B69873  17.139  14.011   6.967
 5562POPC   C4B69874  17.282  13.985   7.380
 5563POPC   NC369875  27.363   8.432   5.500
 5563POPC   PO469876  27.815   7.915   5.500
 5563POPC   GL169877  27.539   8.042   5.839
 5563POPC   GL269878  27.702   8.377   5.895
 5563POPC   C1A69879  27.532   8.124   6.304
 5563POPC   D2A69880  27.722   8.360   6.631
 5563POPC   C3A69881  27.629   8.222   7.034
 5563POPC   C4A69882  27.765   8.305   7.472
 5563POPC   C1B69883  27.331   8.550   6.123
 5563POPC   C2B69884  27.210   8.500   6.531
 5563POPC   C3B69885  27.162   8.433   6.945
 5563POPC   C4B69886  27.295   8.456   7.366
 5564POPC   NC369887   0.692  25.454   5.479
 5564POPC   PO469888   0.166  25.119   5.472
 5564POPC   GL169889   0.307  25.330   5.854
 5564POPC   GL269890   0.666  25.263   5.953
 5564POPC   C1A69891   0.245  25.306   6.311
 5564POPC   D2A69892   0.197  25.032   6.633
 5564POPC   C3A69893   0.264  25.142   7.062
 5564POPC   C4A69894   0.538  24.940   7.333
 5564POPC   C1B69895   0.609  25.650   6.174
 5564POPC   C2B69896   0.628  25.880   6.563
 5564POPC   C3B69897   0.791  25.847   6.968
 5564POPC   C4B69898   0.544  25.573   7.206
 5565POPC   NC369899   2.220  16.895   5.567
 5565POPC   PO469900   1.627  16.530   5.587
 5565POPC   GL169901   1.800  16.810   5.884
 5565POPC   GL269902   2.067  16.584   5.942
 5565POPC   C1A69903   1.850  16.895   6.347
 5565POPC   D2A69904   2.143  16.930   6.721
 5565POPC   C3A69905   1.961  17.017   7.137
 5565POPC   C4A69906   1.777  16.952   7.586
 5565POPC   C1B69907   2.269  16.291   6.187
 5565POPC   C2B69908   2.397  16.311   6.598
 5565POPC   C3B69909   2.396  16.527   6.958
 5565POPC   C4B69910   2.016  16.477   7.164
 5566POPC   NC369911  11.204  18.343   5.430
 5566POPC   PO469912  11.644  17.769   5.473
 5566POPC   GL169913  11.541  18.126   5.742
 5566POPC   GL269914  11.577  18.484   5.761
 5566POPC   C1A69915  11.197  18.285   6.086
 5566POPC   D2A69916  11.053  18.119   6.494
 5566POPC   C3A69917  11.135  18.291   6.868
 5566POPC   C4A69918  11.119  18.121   7.260
 5566POPC   C1B69919  11.515  18.657   6.205
 5566POPC   C2B69920  11.544  18.528   6.659
 5566POPC   C3B69921  11.564  18.662   7.116
 5566POPC   C4B69922  11.343  18.528   7.519
 5567POPC   NC369923  24.915  22.419   5.507
 5567POPC   PO469924  24.242  22.049   5.438
 5567POPC   GL169925  24.460  22.169   5.809
 5567POPC   GL269926  24.773  22.014   5.853
 5567POPC   C1A69927  24.546  22.259   6.257
 5567POPC   D2A69928  24.472  22.558   6.590
 5567POPC   C3A69929  24.297  22.428   6.940
 5567POPC   C4A69930  24.337  22.069   7.128
 5567POPC   C1B69931  24.750  21.790   6.252
 5567POPC   C2B69932  24.516  21.888   6.662
 5567POPC   C3B69933  24.694  21.725   7.077
 5567POPC   C4B69934  25.008  21.932   7.328
 5568POPC   NC369935  28.272  13.273   5.308
 5568POPC   PO469936  28.656  12.784   5.388
 5568POPC   GL169937  28.596  12.797   5.861
 5568POPC   GL269938  28.300  12.602   5.897
 5568POPC   C1A69939  28.407  12.868   6.332
 5568POPC   D2A69940  28.240  12.580   6.697
 5568POPC   C3A69941  28.239  12.801   7.115
 5568POPC   C4A69942  28.584  13.071   7.281
 5568POPC   C1B69943  28.591  12.430   6.216
 5568POPC   C2B69944  28.750  12.542   6.643
 5568POPC   C3B69945  28.660  12.519   7.097
 5568POPC   C4B69946  28.547  12.621   7.540
 5569POPC   NC369947  38.364  15.134   5.293
 5569POPC   PO469948  38.797  15.597   5.505
 5569POPC   GL169949  38.679  15.254   5.702
 5569POPC   GL269950  38.332  15.325   5.762
 5569POPC   C1A69951  38.705  15.287   6.130
 5569POPC   D2A69952  38.834  15.346   6.525
 5569POPC   C3A69953  38.711  15.074   6.897
 5569POPC   C4A69954  38.573  15.100   7.345
 5569POPC   C1B69955  38.227  15.135   6.140
 5569POPC   C2B69956  38.332  15.245   6.547
 5569POPC   C3B69957  38.230  15.180   6.969
 5569POPC   C4B69958  38.076  15.244   7.371
 5570POPC   NC369959   8.215  10.804   5.593
 5570POPC   PO469960   7.954  10.321   5.205
 5570POPC   GL169961   7.989  10.335   5.719
 5570POPC   GL269962   8.370  10.429   5.903
 5570POPC   C1A69963   8.049  10.193   6.184
 5570POPC   D2A69964   8.313  10.349   6.549
 5570POPC   C3A69965   8.126  10.378   6.957
 5570POPC   C4A69966   7.845  10.575   7.243
 5570POPC   C1B69967   8.322  10.756   6.229
 5570POPC   C2B69968   8.187  10.850   6.644
 5570POPC   C3B69969   8.331  10.863   7.061
 5570POPC   C4B69970   8.736  10.888   7.260
 5571POPC   NC369971   8.459  31.716   5.335
 5571POPC   PO469972   8.378  31.048   5.357
 5571POPC   GL169973   8.179  31.258   5.721
 5571POPC   GL269974   7.854  31.408   5.605
 5571POPC   C1A69975   8.278  31.253   6.200
 5571POPC   D2A69976   8.644  31.424   6.480
 5571POPC   C3A69977   8.564  31.626   6.895
 5571POPC   C4A69978   8.277  31.571   7.238
 5571POPC   C1B69979   7.753  31.245   6.024
 5571POPC   C2B69980   7.785  31.276   6.473
 5571POPC   C3B69981   7.832  31.408   6.917
 5571POPC   C4B69982   7.983  31.143   7.234
 5572POPC   NC369983  43.821  39.184   5.235
 5572POPC   PO469984  44.450  39.275   5.566
 5572POPC   GL169985  44.220  39.520   5.868
 5572POPC   GL269986  43.874  39.414   5.758
 5572POPC   C1A69987  44.171  39.372   6.296
 5572POPC   D2A69988  43.940  39.320   6.685
 5572POPC   C3A69989  44.125  39.299   7.090
 5572POPC   C4A69990  44.062  39.023   7.465
 5572POPC   C1B69991  43.688  39.507   6.181
 5572POPC   C2B69992  43.549  39.639   6.626
 5572POPC   C3B69993  43.618  39.543   7.051
 5572POPC   C4B69994  43.618  39.226   7.286
 5573POPC   NC369995  15.405  33.125   5.522
 5573POPC   PO469996  14.993  32.511   5.365
 5573POPC   GL169997  14.966  32.739   5.760
 5573POPC   GL269998  14.995  33.101   5.853
 5573POPC   C1A69999  15.181  32.774   6.175
 5573POPC   D2A70000  15.301  33.020   6.542
 5573POPC   C3A70001  15.103  32.911   6.873
 5573POPC   C4A70002  15.091  32.842   7.269
 5573POPC   C1B70003  15.129  33.357   6.221
 5573POPC   C2B70004  14.989  33.409   6.694
 5573POPC   C3B70005  15.223  33.332   7.122
 5573POPC   C4B70006  15.105  33.233   7.569
 5574POPC   NC370007  18.191  15.403   5.522
 5574POPC   PO470008  18.602  14.984   5.402
 5574POPC   GL170009  18.312  14.985   5.803
 5574POPC   GL270010  17.988  15.261   5.950
 5574POPC   C1A70011  18.281  14.987   6.232
 5574POPC   D2A70012  18.461  15.168   6.579
 5574POPC   C3A70013  18.362  14.966   6.914
 5574POPC   C4A70014  18.304  15.100   7.275
 5574POPC   C1B70015  18.119  15.482   6.322
 5574POPC   C2B70016  17.996  15.537   6.739
 5574POPC   C3B70017  18.088  15.540   7.153
 5574POPC   C4B70018  17.874  15.703   7.477
 5575POPC   NC370019  17.236  21.957   5.428
 5575POPC   PO470020  17.826  22.372   5.494
 5575POPC   GL170021  17.628  22.115   5.799
 5575POPC   GL270022  17.309  22.218   5.840
 5575POPC   C1A70023  17.626  22.122   6.238
 5575POPC   D2A70024  17.872  22.407   6.458
 5575POPC   C3A70025  17.837  22.318   6.853
 5575POPC   C4A70026  17.632  22.201   7.193
 5575POPC   C1B70027  17.101  22.010   6.131
 5575POPC   C2B70028  17.045  22.087   6.564
 5575POPC   C3B70029  17.187  22.241   6.958
 5575POPC   C4B70030  17.146  22.380   7.387
 5576POPC   NC370031  23.236  15.674   5.189
 5576POPC   PO470032  23.901  16.001   5.430
 5576POPC   GL170033  23.742  15.970   5.838
 5576POPC   GL270034  23.405  16.054   5.854
 5576POPC   C1A70035  23.843  16.130   6.247
 5576POPC   D2A70036  23.671  16.001   6.666
 5576POPC   C3A70037  23.871  15.969   7.079
 5576POPC   C4A70038  24.080  15.966   7.489
 5576POPC   C1B70039  23.332  15.862   6.296
 5576POPC   C2B70040  23.183  15.759   6.733
 5576POPC   C3B70041  23.327  15.940   7.120
 5576POPC   C4B70042  23.416  16.370   7.167
 5577POPC   NC370043  23.678  17.214   5.466
 5577POPC   PO470044  24.150  17.752   5.197
 5577POPC   GL170045  23.982  17.590   5.624
 5577POPC   GL270046  23.608  17.702   5.706
 5577POPC   C1A70047  23.920  17.521   6.077
 5577POPC   D2A70048  23.984  17.639   6.510
 5577POPC   C3A70049  23.851  17.344   6.830
 5577POPC   C4A70050  23.825  17.297   7.276
 5577POPC   C1B70051  23.506  17.846   6.153
 5577POPC   C2B70052  23.421  17.767   6.610
 5577POPC   C3B70053  23.533  17.705   7.061
 5577POPC   C4B70054  23.518  17.590   7.537
 5578POPC   NC370055  25.159   9.649   5.384
 5578POPC   PO470056  24.713  10.030   5.692
 5578POPC   GL170057  25.090   9.862   5.867
 5578POPC   GL270058  25.171   9.482   5.866
 5578POPC   C1A70059  25.171   9.986   6.284
 5578POPC   D2A70060  25.101   9.760   6.649
 5578POPC   C3A70061  25.121  10.062   6.959
 5578POPC   C4A70062  25.296  10.021   7.354
 5578POPC   C1B70063  25.321   9.506   6.247
 5578POPC   C2B70064  25.633   9.691   6.497
 5578POPC   C3B70065  25.549   9.761   6.920
 5578POPC   C4B70066  25.561   9.499   7.269
 5579POPC   NC370067  37.563  25.714   5.341
 5579POPC   PO470068  37.292  25.127   5.608
 5579POPC   GL170069  37.559  25.430   5.778
 5579POPC   GL270070  37.932  25.382   5.739
 5579POPC   C1A70071  37.615  25.410   6.206
 5579POPC   D2A70072  37.716  25.211   6.583
 5579POPC   C3A70073  37.581  25.458   6.914
 5579POPC   C4A70074  37.452  25.385   7.337
 5579POPC   C1B70075  37.985  25.076   6.110
 5579POPC   C2B70076  37.971  24.784   6.455
 5579POPC   C3B70077  38.046  24.917   6.888
 5579POPC   C4B70078  37.807  24.848   7.260
 5580POPC   NC370079  18.378  24.500   5.575
 5580POPC   PO470080  17.840  24.153   5.530
 5580POPC   GL170081  18.074  24.308   5.922
 5580POPC   GL270082  18.219  24.725   5.975
 5580POPC   C1A70083  18.310  24.327   6.275
 5580POPC   D2A70084  18.176  24.510   6.633
 5580POPC   C3A70085  18.401  24.355   6.977
 5580POPC   C4A70086  18.152  24.398   7.305
 5580POPC   C1B70087  18.407  24.891   6.353
 5580POPC   C2B70088  18.542  24.827   6.776
 5580POPC   C3B70089  18.364  24.836   7.166
 5580POPC   C4B70090  18.224  24.862   7.632
 5581POPC   NC370091   7.308  14.622   5.359
 5581POPC   PO470092   7.421  15.298   5.369
 5581POPC   GL170093   7.415  15.090   5.783
 5581POPC   GL270094   7.154  14.818   5.842
 5581POPC   C1A70095   7.466  15.282   6.191
 5581POPC   D2A70096   7.332  15.338   6.609
 5581POPC   C3A70097   7.626  15.132   6.883
 5581POPC   C4A70098   7.639  15.390   7.219
 5581POPC   C1B70099   7.026  14.821   6.286
 5581POPC   C2B70100   7.200  14.858   6.710
 5581POPC   C3B70101   7.215  15.033   7.149
 5581POPC   C4B70102   7.052  14.950   7.548
 5582POPC   NC370103  44.999  42.235   5.152
 5582POPC   PO470104  44.429  42.360   5.509
 5582POPC   GL170105  44.697  42.447   5.899
 5582POPC   GL270106  44.976  42.736   5.908
 5582POPC   C1A70107  44.482  42.439   6.330
 5582POPC   D2A70108  44.444  42.555   6.781
 5582POPC   C3A70109  44.485  42.216   7.127
 5582POPC   C4A70110  44.296  42.127   7.570
 5582POPC   C1B70111  44.987  42.558   6.319
 5582POPC   C2B70112  44.953  42.467   6.759
 5582POPC   C3B70113  44.802  42.633   7.146
 5582POPC   C4B70114  44.787  42.583   7.599
 5583POPC   NC370115  24.121   3.572   5.414
 5583POPC   PO470116  24.706   3.946   5.432
 5583POPC   GL170117  24.582   3.781   5.863
 5583POPC   GL270118  24.219   3.830   5.852
 5583POPC   C1A70119  24.475   3.581   6.315
 5583POPC   D2A70120  24.342   3.257   6.676
 5583POPC   C3A70121  24.427   3.340   7.124
 5583POPC   C4A70122  24.609   3.725   7.277
 5583POPC   C1B70123  23.972   3.853   6.239
 5583POPC   C2B70124  24.054   3.688   6.660
 5583POPC   C3B70125  24.080   3.711   7.110
 5583POPC   C4B70126  24.178   3.638   7.557
 5584POPC   NC370127  28.099  43.025   5.306
 5584POPC   PO470128  28.675  42.780   5.443
 5584POPC   GL170129  28.544  42.997   5.807
 5584POPC   GL270130  28.358  43.299   5.731
 5584POPC   C1A70131  28.403  42.995   6.241
 5584POPC   D2A70132  28.401  43.259   6.620
 5584POPC   C3A70133  28.470  43.078   7.036
 5584POPC   C4A70134  28.502  43.376   7.399
 5584POPC   C1B70135  28.130  43.410   6.145
 5584POPC   C2B70136  27.907  43.232   6.548
 5584POPC   C3B70137  28.034  43.348   6.999
 5584POPC   C4B70138  28.100  43.089   7.398
 5585POPC   NC370139  33.850  22.843   5.504
 5585POPC   PO470140  33.485  23.450   5.447
 5585POPC   GL170141  33.536  23.150   5.766
 5585POPC   GL270142  33.870  23.257   5.801
 5585POPC   C1A70143  33.704  22.859   6.153
 5585POPC   D2A70144  33.973  22.761   6.506
 5585POPC   C3A70145  33.738  22.636   6.870
 5585POPC   C4A70146  33.967  22.659   7.240
 5585POPC   C1B70147  33.698  23.357   6.200
 5585POPC   C2B70148  33.616  23.137   6.577
 5585POPC   C3B70149  33.871  23.110   6.927
 5585POPC   C4B70150  33.575  22.998   7.234
 5586POPC   NC370151  19.718  14.882   5.309
 5586POPC   PO470152  20.075  15.428   5.225
 5586POPC   GL170153  19.981  15.403   5.694
 5586POPC   GL270154  20.018  15.035   5.756
 5586POPC   C1A70155  19.695  15.409   6.087
 5586POPC   D2A70156  19.633  15.142   6.466
 5586POPC   C3A70157  19.755  15.138   6.919
 5586POPC   C4A70158  19.620  15.404   7.265
 5586POPC   C1B70159  20.078  15.090   6.202
 5586POPC   C2B70160  20.121  15.330   6.579
 5586POPC   C3B70161  20.241  15.252   7.007
 5586POPC   C4B70162  20.183  15.371   7.433
 5587POPC   NC370163  32.937   5.469   5.441
 5587POPC   PO470164  32.685   6.055   5.579
 5587POPC   GL170165  32.952   5.811   5.834
 5587POPC   GL270166  33.309   5.721   5.734
 5587POPC   C1A70167  32.873   5.733   6.255
 5587POPC   D2A70168  32.689   5.521   6.613
 5587POPC   C3A70169  32.722   5.826   6.905
 5587POPC   C4A70170  32.854   6.019   7.276
 5587POPC   C1B70171  33.335   5.986   6.132
 5587POPC   C2B70172  33.438   5.907   6.552
 5587POPC   C3B70173  33.228   5.842   6.906
 5587POPC   C4B70174  33.241   5.664   7.297
 5588POPC   NC370175  37.532  26.302   5.466
 5588POPC   PO470176  38.022  25.783   5.416
 5588POPC   GL170177  37.808  25.912   5.782
 5588POPC   GL270178  37.768  26.276   5.898
 5588POPC   C1A70179  37.737  25.896   6.213
 5588POPC   D2A70180  37.721  26.219   6.489
 5588POPC   C3A70181  37.569  26.056   6.862
 5588POPC   C4A70182  37.670  25.844   7.250
 5588POPC   C1B70183  37.990  26.561   6.123
 5588POPC   C2B70184  38.162  26.489   6.513
 5588POPC   C3B70185  37.981  26.475   6.900
 5588POPC   C4B70186  38.045  26.359   7.302
 5589POPC   NC370187  32.415  35.154   5.482
 5589POPC   PO470188  32.305  35.817   5.548
 5589POPC   GL170189  32.204  35.469   5.828
 5589POPC   GL270190  31.879  35.359   5.710
 5589POPC   C1A70191  32.103  35.107   6.136
 5589POPC   D2A70192  31.887  34.938   6.523
 5589POPC   C3A70193  32.068  35.112   6.902
 5589POPC   C4A70194  32.206  35.354   7.238
 5589POPC   C1B70195  31.794  35.526   6.131
 5589POPC   C2B70196  31.955  35.467   6.517
 5589POPC   C3B70197  31.843  35.571   6.912
 5589POPC   C4B70198  31.935  35.798   7.261
 5590POPC   NC370199  10.844  33.816   5.617
 5590POPC   PO470200  10.202  33.672   5.422
 5590POPC   GL170201  10.343  33.904   5.737
 5590POPC   GL270202  10.420  33.595   5.906
 5590POPC   C1A70203  10.284  34.007   6.159
 5590POPC   D2A70204  10.491  34.129   6.548
 5590POPC   C3A70205  10.352  33.936   6.938
 5590POPC   C4A70206  10.362  33.890   7.388
 5590POPC   C1B70207  10.634  33.662   6.307
 5590POPC   C2B70208  10.759  33.713   6.729
 5590POPC   C3B70209  10.581  33.494   7.080
 5590POPC   C4B70210  10.409  33.408   7.503
 5591POPC   NC370211  23.886  10.938   5.391
 5591POPC   PO470212  23.762  11.557   5.493
 5591POPC   GL170213  23.864  11.441   5.901
 5591POPC   GL270214  23.905  11.061   5.869
 5591POPC   C1A70215  23.768  11.537   6.349
 5591POPC   D2A70216  23.610  11.343   6.737
 5591POPC   C3A70217  23.507  11.527   7.134
 5591POPC   C4A70218  23.741  11.619   7.510
 5591POPC   C1B70219  23.924  10.819   6.222
 5591POPC   C2B70220  23.737  10.873   6.585
 5591POPC   C3B70221  23.868  10.847   6.984
 5591POPC   C4B70222  23.706  11.066   7.290
 5592POPC   NC370223   8.487  22.168   5.494
 5592POPC   PO470224   7.728  22.285   5.412
 5592POPC   GL170225   7.952  22.214   5.833
 5592POPC   GL270226   8.305  22.324   5.949
 5592POPC   C1A70227   8.017  22.168   6.320
 5592POPC   D2A70228   8.270  22.407   6.615
 5592POPC   C3A70229   8.172  22.297   7.057
 5592POPC   C4A70230   7.837  22.277   7.358
 5592POPC   C1B70231   8.674  22.479   6.229
 5592POPC   C2B70232   8.822  22.524   6.610
 5592POPC   C3B70233   8.658  22.418   6.959
 5592POPC   C4B70234   8.581  22.607   7.331
 5593POPC   NC370235  36.062  32.107   5.436
 5593POPC   PO470236  36.105  32.696   5.145
 5593POPC   GL170237  36.213  32.565   5.628
 5593POPC   GL270238  35.955  32.688   5.820
 5593POPC   C1A70239  36.147  32.335   6.100
 5593POPC   D2A70240  35.973  32.060   6.451
 5593POPC   C3A70241  36.070  32.166   6.896
 5593POPC   C4A70242  36.030  32.018   7.342
 5593POPC   C1B70243  35.896  32.804   6.211
 5593POPC   C2B70244  36.060  32.622   6.557
 5593POPC   C3B70245  35.794  32.633   6.868
 5593POPC   C4B70246  35.909  32.532   7.245
 5594POPC   NC370247  39.307  25.537   5.418
 5594POPC   PO470248  38.758  25.210   5.056
 5594POPC   GL170249  38.874  25.087   5.536
 5594POPC   GL270250  39.226  24.966   5.602
 5594POPC   C1A70251  38.970  25.200   6.021
 5594POPC   D2A70252  39.138  25.447   6.423
 5594POPC   C3A70253  38.986  25.407   6.887
 5594POPC   C4A70254  39.202  25.326   7.285
 5594POPC   C1B70255  39.448  25.021   6.009
 5594POPC   C2B70256  39.394  24.998   6.440
 5594POPC   C3B70257  39.451  25.165   6.843
 5594POPC   C4B70258  39.621  25.039   7.224
 5595POPC   NC370259   5.544  11.928   5.410
 5595POPC   PO470260   5.891  12.524   5.374
 5595POPC   GL170261   5.888  12.192   5.704
 5595POPC   GL270262   6.193  12.051   5.789
 5595POPC   C1A70263   5.824  12.075   6.155
 5595POPC   D2A70264   6.001  12.116   6.584
 5595POPC   C3A70265   5.777  11.952   6.960
 5595POPC   C4A70266   5.598  12.099   7.346
 5595POPC   C1B70267   6.310  11.890   6.192
 5595POPC   C2B70268   6.235  11.653   6.576
 5595POPC   C3B70269   6.304  11.882   6.931
 5595POPC   C4B70270   6.178  12.042   7.314
 5596POPC   NC370271   6.044  27.171   5.439
 5596POPC   PO470272   5.725  27.738   5.484
 5596POPC   GL170273   5.933  27.549   5.814
 5596POPC   GL270274   5.679  27.278   5.882
 5596POPC   C1A70275   6.099  27.728   6.192
 5596POPC   D2A70276   5.969  27.647   6.626
 5596POPC   C3A70277   6.178  27.759   6.994
 5596POPC   C4A70278   5.958  27.840   7.351
 5596POPC   C1B70279   5.566  27.580   6.244
 5596POPC   C2B70280   5.458  27.583   6.696
 5596POPC   C3B70281   5.585  27.496   7.084
 5596POPC   C4B70282   5.941  27.346   7.254
 5597POPC   NC370283  16.168  35.372   5.392
 5597POPC   PO470284  15.452  35.222   5.244
 5597POPC   GL170285  15.702  35.217   5.663
 5597POPC   GL270286  15.778  34.880   5.745
 5597POPC   C1A70287  15.960  35.334   6.046
 5597POPC   D2A70288  15.894  35.446   6.489
 5597POPC   C3A70289  16.228  35.646   6.747
 5597POPC   C4A70290  16.305  35.589   7.190
 5597POPC   C1B70291  15.622  34.967   6.187
 5597POPC   C2B70292  15.465  35.154   6.566
 5597POPC   C3B70293  15.562  35.033   6.980
 5597POPC   C4B70294  15.937  35.149   7.206
 5598POPC   NC370295  16.267  33.618   5.408
 5598POPC   PO470296  15.836  34.063   5.294
 5598POPC   GL170297  15.874  33.856   5.696
 5598POPC   GL270298  16.217  34.002   5.766
 5598POPC   C1A70299  15.789  33.530   6.037
 5598POPC   D2A70300  15.954  33.509   6.473
 5598POPC   C3A70301  15.828  33.453   6.940
 5598POPC   C4A70302  15.711  33.781   7.242
 5598POPC   C1B70303  16.289  33.673   6.072
 5598POPC   C2B70304  16.451  33.651   6.483
 5598POPC   C3B70305  16.255  33.706   6.844
 5598POPC   C4B70306  16.243  33.721   7.255
 5599POPC   NC370307   0.984  34.911   5.409
 5599POPC   PO470308   1.443  34.379   5.453
 5599POPC   GL170309   1.227  34.392   5.821
 5599POPC   GL270310   1.253  34.751   5.844
 5599POPC   C1A70311   1.274  34.360   6.257
 5599POPC   D2A70312   1.558  34.438   6.593
 5599POPC   C3A70313   1.299  34.377   6.950
 5599POPC   C4A70314   1.170  34.449   7.347
 5599POPC   C1B70315   1.531  34.800   6.210
 5599POPC   C2B70316   1.370  34.911   6.617
 5599POPC   C3B70317   1.276  34.881   7.030
 5599POPC   C4B70318   1.409  35.197   7.283
 5600POPC   NC370319  18.330  22.731   5.446
 5600POPC   PO470320  18.033  23.302   5.364
 5600POPC   GL170321  18.416  23.239   5.703
 5600POPC   GL270322  18.622  22.887   5.816
 5600POPC   C1A70323  18.410  23.163   6.169
 5600POPC   D2A70324  18.121  22.869   6.385
 5600POPC   C3A70325  18.054  22.796   6.833
 5600POPC   C4A70326  18.062  22.966   7.237
 5600POPC   C1B70327  18.587  22.674   6.231
 5600POPC   C2B70328  18.537  22.787   6.687
 5600POPC   C3B70329  18.543  22.792   7.152
 5600POPC   C4B70330  18.694  22.484   7.424
 5601POPC   NC370331   6.826  28.583   5.450
 5601POPC   PO470332   6.696  27.971   5.464
 5601POPC   GL170333   6.447  28.113   5.811
 5601POPC   GL270334   6.733  28.292   5.882
 5601POPC   C1A70335   6.409  28.163   6.271
 5601POPC   D2A70336   6.390  28.368   6.664
 5601POPC   C3A70337   6.492  28.185   7.052
 5601POPC   C4A70338   6.533  28.539   7.287
 5601POPC   C1B70339   6.909  28.390   6.273
 5601POPC   C2B70340   6.909  28.319   6.708
 5601POPC   C3B70341   6.928  28.684   6.969
 5601POPC   C4B70342   6.992  28.727   7.423
 5602POPC   NC370343  12.703  34.841   5.515
 5602POPC   PO470344  12.937  35.520   5.444
 5602POPC   GL170345  12.788  35.303   5.804
 5602POPC   GL270346  13.077  35.115   5.897
 5602POPC   C1A70347  12.810  35.361   6.265
 5602POPC   D2A70348  12.880  35.351   6.702
 5602POPC   C3A70349  12.608  35.428   7.030
 5602POPC   C4A70350  12.681  35.021   7.233
 5602POPC   C1B70351  13.273  35.493   6.085
 5602POPC   C2B70352  13.150  35.737   6.442
 5602POPC   C3B70353  13.202  35.678   6.877
 5602POPC   C4B70354  13.096  35.374   7.223
 5603POPC   NC370355  36.394  20.863   5.416
 5603POPC   PO470356  35.876  20.450   5.485
 5603POPC   GL170357  36.017  20.696   5.820
 5603POPC   GL270358  36.368  20.635   5.872
 5603POPC   C1A70359  35.984  20.702   6.260
 5603POPC   D2A70360  35.827  20.923   6.605
 5603POPC   C3A70361  35.951  20.772   6.977
 5603POPC   C4A70362  35.904  20.714   7.384
 5603POPC   C1B70363  36.382  20.396   6.254
 5603POPC   C2B70364  36.307  20.590   6.655
 5603POPC   C3B70365  36.417  20.565   7.093
 5603POPC   C4B70366  36.154  20.283   7.304
 5604POPC   NC370367  14.872  40.520   5.513
 5604POPC   PO470368  15.185  41.172   5.485
 5604POPC   GL170369  14.986  40.933   5.798
 5604POPC   GL270370  15.256  40.679   5.857
 5604POPC   C1A70371  14.985  41.026   6.241
 5604POPC   D2A70372  15.308  41.204   6.510
 5604POPC   C3A70373  15.307  41.005   6.905
 5604POPC   C4A70374  14.936  40.862   7.086
 5604POPC   C1B70375  14.993  40.510   6.198
 5604POPC   C2B70376  15.110  40.600   6.653
 5604POPC   C3B70377  15.307  40.520   7.090
 5604POPC   C4B70378  15.438  40.321   7.553
 5605POPC   NC370379  12.283  28.408   5.590
 5605POPC   PO470380  11.680  28.763   5.479
 5605POPC   GL170381  11.844  28.788   5.902
 5605POPC   GL270382  12.170  28.745   6.029
 5605POPC   C1A70383  11.804  28.434   6.192
 5605POPC   D2A70384  11.960  28.174   6.529
 5605POPC   C3A70385  11.997  28.472   6.835
 5605POPC   C4A70386  12.256  28.603   7.175
 5605POPC   C1B70387  12.336  28.357   6.215
 5605POPC   C2B70388  12.586  28.149   6.506
 5605POPC   C3B70389  12.399  28.161   6.896
 5605POPC   C4B70390  12.425  27.898   7.239
 5606POPC   NC370391  16.478  21.897   5.563
 5606POPC   PO470392  16.979  22.374   5.441
 5606POPC   GL170393  16.766  22.269   5.822
 5606POPC   GL270394  16.415  22.354   5.804
 5606POPC   C1A70395  16.751  22.427   6.247
 5606POPC   D2A70396  16.896  22.569   6.653
 5606POPC   C3A70397  16.713  22.423   7.054
 5606POPC   C4A70398  16.778  21.998   7.241
 5606POPC   C1B70399  16.356  22.121   6.222
 5606POPC   C2B70400  16.532  22.138   6.669
 5606POPC   C3B70401  16.300  22.107   7.098
 5606POPC   C4B70402  16.276  22.067   7.561
 5607POPC   NC370403  17.154   8.121   5.214
 5607POPC   PO470404  16.669   7.896   5.623
 5607POPC   GL170405  16.711   8.263   5.861
 5607POPC   GL270406  16.386   8.221   6.001
 5607POPC   C1A70407  16.800   8.374   6.291
 5607POPC   D2A70408  16.761   8.125   6.695
 5607POPC   C3A70409  16.661   8.273   7.123
 5607POPC   C4A70410  16.909   8.256   7.494
 5607POPC   C1B70411  16.580   7.877   6.270
 5607POPC   C2B70412  16.502   7.682   6.693
 5607POPC   C3B70413  16.486   7.775   7.136
 5607POPC   C4B70414  16.440   7.989   7.534
 5608POPC   NC370415  38.189   2.089   5.451
 5608POPC   PO470416  38.557   1.598   5.155
 5608POPC   GL170417  38.676   1.866   5.577
 5608POPC   GL270418  38.590   2.208   5.756
 5608POPC   C1A70419  38.686   1.836   6.072
 5608POPC   D2A70420  38.495   1.932   6.492
 5608POPC   C3A70421  38.681   1.820   6.884
 5608POPC   C4A70422  38.512   1.569   7.192
 5608POPC   C1B70423  38.695   2.332   6.200
 5608POPC   C2B70424  38.644   2.397   6.665
 5608POPC   C3B70425  38.437   2.233   7.047
 5608POPC   C4B70426  38.667   2.135   7.399
 5609POPC   NC370427  42.353  18.325   5.392
 5609POPC   PO470428  42.985  18.155   5.629
 5609POPC   GL170429  42.674  18.387   5.872
 5609POPC   GL270430  42.318  18.242   5.891
 5609POPC   C1A70431  42.592  18.359   6.311
 5609POPC   D2A70432  42.266  18.425   6.587
 5609POPC   C3A70433  42.201  18.096   6.853
 5609POPC   C4A70434  42.560  18.034   7.086
 5609POPC   C1B70435  42.079  18.550   6.127
 5609POPC   C2B70436  41.768  18.523   6.499
 5609POPC   C3B70437  41.915  18.594   6.911
 5609POPC   C4B70438  42.321  18.521   7.122
 5610POPC   NC370439  13.941  28.137   5.314
 5610POPC   PO470440  13.384  28.474   5.166
 5610POPC   GL170441  13.592  28.443   5.609
 5610POPC   GL270442  13.759  28.175   5.779
 5610POPC   C1A70443  13.576  28.536   6.089
 5610POPC   D2A70444  13.841  28.554   6.474
 5610POPC   C3A70445  13.630  28.624   6.859
 5610POPC   C4A70446  13.604  28.435   7.261
 5610POPC   C1B70447  14.018  28.168   6.135
 5610POPC   C2B70448  13.968  28.045   6.563
 5610POPC   C3B70449  13.959  28.229   6.945
 5610POPC   C4B70450  14.049  28.160   7.357
 5611POPC   NC370451  44.860  17.312   5.464
 5611POPC   PO470452  44.574  16.721   5.606
 5611POPC   GL170453  44.671  16.986   5.926
 5611POPC   GL270454   0.014  17.060   5.894
 5611POPC   C1A70455  44.663  16.836   6.363
 5611POPC   D2A70456  44.534  16.446   6.609
 5611POPC   C3A70457  44.435  16.609   7.006
 5611POPC   C4A70458  44.607  17.023   7.130
 5611POPC   C1B70459   0.080  16.666   6.103
 5611POPC   C2B70460   0.042  16.502   6.537
 5611POPC   C3B70461  44.954  16.706   6.904
 5611POPC   C4B70462  44.850  16.559   7.308
 5612POPC   NC370463  31.776  16.691   5.484
 5612POPC   PO470464  31.120  16.684   5.366
 5612POPC   GL170465  31.291  16.771   5.767
 5612POPC   GL270466  31.423  16.439   5.784
 5612POPC   C1A70467  31.601  16.793   6.131
 5612POPC   D2A70468  31.738  16.840   6.578
 5612POPC   C3A70469  31.412  16.805   6.891
 5612POPC   C4A70470  31.246  16.896   7.279
 5612POPC   C1B70471  31.611  16.286   6.172
 5612POPC   C2B70472  31.446  16.393   6.569
 5612POPC   C3B70473  31.606  16.308   6.962
 5612POPC   C4B70474  31.564  16.480   7.374
 5613POPC   NC370475   5.691  23.446   5.418
 5613POPC   PO470476   6.133  23.905   5.525
 5613POPC   GL170477   5.961  23.667   5.862
 5613POPC   GL270478   5.608  23.685   5.858
 5613POPC   C1A70479   6.015  23.430   6.263
 5613POPC   D2A70480   5.936  23.299   6.681
 5613POPC   C3A70481   6.078  23.600   6.986
 5613POPC   C4A70482   6.124  23.554   7.394
 5613POPC   C1B70483   5.570  23.671   6.297
 5613POPC   C2B70484   5.672  23.758   6.756
 5613POPC   C3B70485   5.565  23.823   7.218
 5613POPC   C4B70486   5.438  23.978   7.715
 5614POPC   NC370487  37.860   6.613   5.459
 5614POPC   PO470488  37.289   7.034   5.551
 5614POPC   GL170489  37.486   6.721   5.826
 5614POPC   GL270490  37.555   6.353   5.772
 5614POPC   C1A70491  37.507   6.766   6.254
 5614POPC   D2A70492  37.637   7.025   6.549
 5614POPC   C3A70493  37.692   6.747   6.853
 5614POPC   C4A70494  37.512   6.957   7.165
 5614POPC   C1B70495  37.875   6.454   6.107
 5614POPC   C2B70496  38.047   6.439   6.531
 5614POPC   C3B70497  38.065   6.342   6.978
 5614POPC   C4B70498  37.978   6.680   7.277
 5615POPC   NC370499  33.583   9.865   5.394
 5615POPC   PO470500  34.005   9.381   5.439
 5615POPC   GL170501  33.913   9.694   5.763
 5615POPC   GL270502  33.574   9.604   5.842
 5615POPC   C1A70503  33.837   9.931   6.167
 5615POPC   D2A70504  33.556   9.884   6.535
 5615POPC   C3A70505  33.774   9.852   6.963
 5615POPC   C4A70506  33.789  10.084   7.342
 5615POPC   C1B70507  33.811   9.419   6.195
 5615POPC   C2B70508  34.006   9.579   6.576
 5615POPC   C3B70509  34.005   9.392   7.009
 5615POPC   C4B70510  33.856   9.579   7.430
 5616POPC   NC370511  40.813  32.698   5.365
 5616POPC   PO470512  40.905  32.045   5.213
 5616POPC   GL170513  40.761  32.267   5.632
 5616POPC   GL270514  40.840  31.979   5.810
 5616POPC   C1A70515  40.630  32.352   6.071
 5616POPC   D2A70516  40.622  32.118   6.477
 5616POPC   C3A70517  40.685  32.340   6.874
 5616POPC   C4A70518  40.569  32.283   7.301
 5616POPC   C1B70519  40.963  31.786   6.217
 5616POPC   C2B70520  40.925  31.689   6.654
 5616POPC   C3B70521  40.972  31.945   7.014
 5616POPC   C4B70522  41.096  32.347   7.194
 5617POPC   NC370523  15.988  25.027   5.491
 5617POPC   PO470524  16.260  25.640   5.565
 5617POPC   GL170525  16.173  25.358   5.859
 5617POPC   GL270526  15.853  25.371   5.894
 5617POPC   C1A70527  16.141  25.093   6.214
 5617POPC   D2A70528  15.884  25.014   6.563
 5617POPC   C3A70529  16.131  24.914   6.872
 5617POPC   C4A70530  16.087  24.926   7.272
 5617POPC   C1B70531  15.702  25.376   6.268
 5617POPC   C2B70532  15.906  25.553   6.629
 5617POPC   C3B70533  15.973  25.413   7.043
 5617POPC   C4B70534  15.578  25.379   7.284
 5618POPC   NC370535  12.592  17.194   5.426
 5618POPC   PO470536  13.142  17.634   5.361
 5618POPC   GL170537  12.810  17.573   5.715
 5618POPC   GL270538  12.783  17.202   5.889
 5618POPC   C1A70539  12.766  17.633   6.163
 5618POPC   D2A70540  12.722  17.658   6.618
 5618POPC   C3A70541  13.039  17.766   6.910
 5618POPC   C4A70542  13.182  17.518   7.262
 5618POPC   C1B70543  12.530  17.093   6.264
 5618POPC   C2B70544  12.434  17.213   6.694
 5618POPC   C3B70545  12.760  17.278   7.031
 5618POPC   C4B70546  12.950  17.088   7.428
 5619POPC   NC370547   8.408  34.488   5.610
 5619POPC   PO470548   7.757  34.443   5.466
 5619POPC   GL170549   7.930  34.454   5.913
 5619POPC   GL270550   8.140  34.764   5.975
 5619POPC   C1A70551   8.207  34.380   6.302
 5619POPC   D2A70552   8.561  34.355   6.590
 5619POPC   C3A70553   8.381  34.427   6.975
 5619POPC   C4A70554   7.926  34.421   7.143
 5619POPC   C1B70555   8.517  34.805   6.261
 5619POPC   C2B70556   8.803  34.837   6.626
 5619POPC   C3B70557   8.667  34.906   7.046
 5619POPC   C4B70558   8.246  34.841   7.206
 5620POPC   NC370559  28.027  24.139   5.461
 5620POPC   PO470560  27.832  24.730   5.182
 5620POPC   GL170561  27.766  24.572   5.655
 5620POPC   GL270562  27.499  24.798   5.697
 5620POPC   C1A70563  27.752  24.364   6.136
 5620POPC   D2A70564  27.745  24.200   6.641
 5620POPC   C3A70565  27.730  24.399   7.103
 5620POPC   C4A70566  27.477  24.323   7.498
 5620POPC   C1B70567  27.551  24.836   6.157
 5620POPC   C2B70568  27.700  24.876   6.566
 5620POPC   C3B70569  27.482  24.810   6.930
 5620POPC   C4B70570  27.372  24.831   7.356
 5621POPC   NC370571  27.134  41.771   5.327
 5621POPC   PO470572  26.702  41.384   5.005
 5621POPC   GL170573  26.809  41.457   5.589
 5621POPC   GL270574  26.577  41.445   5.912
 5621POPC   C1A70575  26.949  41.680   6.105
 5621POPC   D2A70576  26.804  41.700   6.576
 5621POPC   C3A70577  26.979  41.669   7.031
 5621POPC   C4A70578  26.721  41.700   7.414
 5621POPC   C1B70579  26.696  41.249   6.303
 5621POPC   C2B70580  26.602  41.210   6.731
 5621POPC   C3B70581  26.617  41.288   7.159
 5621POPC   C4B70582  26.448  41.299   7.595
 5622POPC   NC370583  32.437  11.765   5.487
 5622POPC   PO470584  33.176  11.792   5.385
 5622POPC   GL170585  33.101  12.064   5.756
 5622POPC   GL270586  32.725  12.085   5.791
 5622POPC   C1A70587  33.241  12.216   6.162
 5622POPC   D2A70588  33.081  12.102   6.554
 5622POPC   C3A70589  33.356  11.952   6.856
 5622POPC   C4A70590  33.405  12.200   7.199
 5622POPC   C1B70591  32.712  11.861   6.187
 5622POPC   C2B70592  32.611  11.868   6.624
 5622POPC   C3B70593  32.846  11.921   7.009
 5622POPC   C4B70594  33.109  11.632   7.207
 5623POPC   NC370595  44.759   2.308   5.553
 5623POPC   PO470596  44.496   1.721   5.607
 5623POPC   GL170597  44.772   1.890   5.901
 5623POPC   GL270598  44.493   2.075   6.017
 5623POPC   C1A70599  44.876   1.907   6.353
 5623POPC   D2A70600  44.706   1.770   6.752
 5623POPC   C3A70601  44.830   1.967   7.136
 5623POPC   C4A70602  44.998   2.004   7.580
 5623POPC   C1B70603  44.716   2.416   6.228
 5623POPC   C2B70604  44.733   2.568   6.659
 5623POPC   C3B70605  44.660   2.454   7.095
 5623POPC   C4B70606  44.529   2.183   7.473
 5624POPC   NC370607  12.202  41.676   5.197
 5624POPC   PO470608  11.945  41.058   5.442
 5624POPC   GL170609  12.061  41.362   5.703
 5624POPC   GL270610  12.394  41.333   5.832
 5624POPC   C1A70611  11.989  41.382   6.153
 5624POPC   D2A70612  12.138  41.721   6.415
 5624POPC   C3A70613  12.047  41.639   6.826
 5624POPC   C4A70614  12.122  41.695   7.227
 5624POPC   C1B70615  12.490  41.367   6.262
 5624POPC   C2B70616  12.377  41.244   6.672
 5624POPC   C3B70617  12.503  41.346   7.076
 5624POPC   C4B70618  12.359  41.344   7.511
 5625POPC   NC370619  16.609  20.457   5.623
 5625POPC   PO470620  16.890  20.970   5.293
 5625POPC   GL170621  16.869  20.926   5.750
 5625POPC   GL270622  17.003  20.623   5.899
 5625POPC   C1A70623  16.698  20.884   6.202
 5625POPC   D2A70624  16.814  20.850   6.637
 5625POPC   C3A70625  16.585  20.707   6.978
 5625POPC   C4A70626  16.476  20.311   7.169
 5625POPC   C1B70627  16.833  20.398   6.269
 5625POPC   C2B70628  16.768  20.294   6.712
 5625POPC   C3B70629  16.965  20.381   7.108
 5625POPC   C4B70630  16.792  20.392   7.562
 5626POPC   NC370631  27.133   0.161   5.374
 5626POPC   PO470632  26.454   0.359   5.215
 5626POPC   GL170633  26.512   0.187   5.683
 5626POPC   GL270634  26.864   0.235   5.806
 5626POPC   C1A70635  26.513   0.278   6.180
 5626POPC   D2A70636  26.814   0.393   6.544
 5626POPC   C3A70637  26.706   0.372   6.988
 5626POPC   C4A70638  26.523   0.081   7.295
 5626POPC   C1B70639  26.926   0.602   6.072
 5626POPC   C2B70640  27.093   0.829   6.423
 5626POPC   C3B70641  27.044   0.858   6.866
 5626POPC   C4B70642  27.101   0.599   7.220
 5627POPC   NC370643   0.346   9.413   5.143
 5627POPC   PO470644   0.628   8.872   5.404
 5627POPC   GL170645   0.532   8.828   5.841
 5627POPC   GL270646   0.651   9.138   5.869
 5627POPC   C1A70647   0.255   8.945   6.198
 5627POPC   D2A70648   0.328   9.180   6.576
 5627POPC   C3A70649   0.401   8.978   6.963
 5627POPC   C4A70650   0.274   9.152   7.351
 5627POPC   C1B70651   0.766   8.960   6.278
 5627POPC   C2B70652   0.834   9.117   6.665
 5627POPC   C3B70653   0.939   9.022   7.060
 5627POPC   C4B70654   0.683   8.852   7.379
 5628POPC   NC370655  37.305  24.751   5.268
 5628POPC   PO470656  36.792  24.286   5.400
 5628POPC   GL170657  37.030  24.525   5.681
 5628POPC   GL270658  36.732  24.503   5.885
 5628POPC   C1A70659  37.157  24.542   6.133
 5628POPC   D2A70660  37.104  24.362   6.528
 5628POPC   C3A70661  36.757  24.513   6.779
 5628POPC   C4A70662  36.620  24.750   7.143
 5628POPC   C1B70663  36.741  24.142   6.185
 5628POPC   C2B70664  36.509  24.101   6.589
 5628POPC   C3B70665  36.664  24.041   6.988
 5628POPC   C4B70666  36.896  24.301   7.252
 5629POPC   NC370667  38.813  38.747   5.518
 5629POPC   PO470668  38.262  39.199   5.478
 5629POPC   GL170669  38.429  38.971   5.789
 5629POPC   GL270670  38.726  39.089   5.891
 5629POPC   C1A70671  38.398  38.868   6.229
 5629POPC   D2A70672  38.331  39.079   6.616
 5629POPC   C3A70673  38.505  39.108   7.014
 5629POPC   C4A70674  38.144  39.072   7.332
 5629POPC   C1B70675  38.601  39.336   6.261
 5629POPC   C2B70676  38.582  39.542   6.669
 5629POPC   C3B70677  38.586  39.633   7.099
 5629POPC   C4B70678  38.571  39.380   7.443
 5630POPC   NC370679  24.756  12.243   5.093
 5630POPC   PO470680  24.283  12.352   5.557
 5630POPC   GL170681  24.381  12.100   5.863
 5630POPC   GL270682  24.694  11.971   5.925
 5630POPC   C1A70683  24.458  12.191   6.313
 5630POPC   D2A70684  24.664  12.485   6.560
 5630POPC   C3A70685  24.554  12.436   6.931
 5630POPC   C4A70686  24.278  12.251   7.196
 5630POPC   C1B70687  24.398  11.709   6.162
 5630POPC   C2B70688  24.430  11.664   6.604
 5630POPC   C3B70689  24.556  11.843   7.021
 5630POPC   C4B70690  24.589  11.705   7.463
 5631POPC   NC370691  41.135  42.058   5.653
 5631POPC   PO470692  41.560  42.500   5.362
 5631POPC   GL170693  41.411  42.470   5.808
 5631POPC   GL270694  41.726  42.404   5.923
 5631POPC   C1A70695  41.370  42.229   6.227
 5631POPC   D2A70696  41.292  42.101   6.663
 5631POPC   C3A70697  41.439  42.313   7.032
 5631POPC   C4A70698  41.757  42.224   7.325
 5631POPC   C1B70699  41.673  42.640   6.322
 5631POPC   C2B70700  41.808  42.556   6.742
 5631POPC   C3B70701  41.769  42.703   7.161
 5631POPC   C4B70702  41.755  42.919   7.544
 5632POPC   NC370703  25.395  17.142   5.334
 5632POPC   PO470704  24.877  17.501   5.562
 5632POPC   GL170705  25.219  17.570   5.820
 5632POPC   GL270706  25.289  17.250   5.823
 5632POPC   C1A70707  25.458  17.442   6.232
 5632POPC   D2A70708  25.599  17.295   6.632
 5632POPC   C3A70709  25.315  17.362   6.953
 5632POPC   C4A70710  25.336  17.572   7.336
 5632POPC   C1B70711  24.947  17.373   6.187
 5632POPC   C2B70712  24.918  17.461   6.622
 5632POPC   C3B70713  24.796  17.230   6.964
 5632POPC   C4B70714  25.009  17.178   7.333
 5633POPC   NC370715  14.354   9.551   5.395
 5633POPC   PO470716  14.098  10.143   5.503
 5633POPC   GL170717  14.457   9.947   5.754
 5633POPC   GL270718  14.403   9.613   5.900
 5633POPC   C1A70719  14.628   9.962   6.181
 5633POPC   D2A70720  14.405   9.747   6.488
 5633POPC   C3A70721  14.581   9.743   6.876
 5633POPC   C4A70722  14.620   9.794   7.303
 5633POPC   C1B70723  14.718   9.447   6.203
 5633POPC   C2B70724  14.626   9.294   6.604
 5633POPC   C3B70725  14.236   9.330   6.818
 5633POPC   C4B70726  14.184   9.533   7.204
 5634POPC   NC370727  43.406  23.746   5.330
 5634POPC   PO470728  42.823  24.026   5.401
 5634POPC   GL170729  43.141  23.920   5.751
 5634POPC   GL270730  43.096  23.549   5.776
 5634POPC   C1A70731  43.055  23.792   6.231
 5634POPC   D2A70732  43.157  23.697   6.653
 5634POPC   C3A70733  43.062  23.961   7.023
 5634POPC   C4A70734  42.903  23.905   7.446
 5634POPC   C1B70735  43.346  23.364   6.128
 5634POPC   C2B70736  43.587  23.453   6.545
 5634POPC   C3B70737  43.434  23.369   6.965
 5634POPC   C4B70738  43.328  23.622   7.323
 5635POPC   NC370739  35.139   9.104   5.497
 5635POPC   PO470740  35.748   8.640   5.473
 5635POPC   GL170741  35.500   8.872   5.850
 5635POPC   GL270742  35.120   8.746   5.888
 5635POPC   C1A70743  35.573   9.188   6.223
 5635POPC   D2A70744  35.796   9.237   6.617
 5635POPC   C3A70745  35.632   9.222   7.018
 5635POPC   C4A70746  35.646   9.086   7.454
 5635POPC   C1B70747  35.193   8.884   6.327
 5635POPC   C2B70748  35.315   8.948   6.748
 5635POPC   C3B70749  35.218   8.980   7.205
 5635POPC   C4B70750  35.267   8.739   7.584
 5636POPC   NC370751  41.002  13.478   5.413
 5636POPC   PO470752  41.669  13.319   5.291
 5636POPC   GL170753  41.578  13.572   5.695
 5636POPC   GL270754  41.347  13.883   5.689
 5636POPC   C1A70755  41.717  13.635   6.140
 5636POPC   D2A70756  41.847  13.810   6.558
 5636POPC   C3A70757  41.605  13.713   6.914
 5636POPC   C4A70758  41.636  13.519   7.307
 5636POPC   C1B70759  41.508  14.094   6.065
 5636POPC   C2B70760  41.469  14.157   6.523
 5636POPC   C3B70761  41.292  14.122   6.958
 5636POPC   C4B70762  41.452  13.980   7.361
 5637POPC   NC370763  24.461   6.079   5.529
 5637POPC   PO470764  24.429   5.416   5.709
 5637POPC   GL170765  24.288   5.741   5.994
 5637POPC   GL270766  24.266   6.118   5.984
 5637POPC   C1A70767  24.465   5.766   6.412
 5637POPC   D2A70768  24.705   6.031   6.733
 5637POPC   C3A70769  24.469   6.043   7.123
 5637POPC   C4A70770  24.283   5.700   7.394
 5637POPC   C1B70771  24.387   6.287   6.346
 5637POPC   C2B70772  24.192   6.101   6.683
 5637POPC   C3B70773  23.972   5.954   7.010
 5637POPC   C4B70774  24.025   6.128   7.383
 5638POPC   NC370775  40.343  29.296   5.653
 5638POPC   PO470776  40.927  29.196   5.328
 5638POPC   GL170777  40.855  29.308   5.747
 5638POPC   GL270778  41.070  29.595   5.747
 5638POPC   C1A70779  40.744  29.122   6.172
 5638POPC   D2A70780  41.037  28.873   6.420
 5638POPC   C3A70781  41.007  28.993   6.860
 5638POPC   C4A70782  40.597  28.997   7.085
 5638POPC   C1B70783  40.843  29.639   6.145
 5638POPC   C2B70784  40.880  29.448   6.577
 5638POPC   C3B70785  40.815  29.455   7.040
 5638POPC   C4B70786  40.913  29.459   7.488
 5639POPC   NC370787  39.704   5.155   5.612
 5639POPC   PO470788  40.177   4.742   5.398
 5639POPC   GL170789  40.137   4.937   5.824
 5639POPC   GL270790  40.151   5.277   5.850
 5639POPC   C1A70791  39.959   5.027   6.262
 5639POPC   D2A70792  39.630   4.791   6.480
 5639POPC   C3A70793  39.692   4.850   6.908
 5639POPC   C4A70794  39.781   5.041   7.308
 5639POPC   C1B70795  40.219   5.558   6.165
 5639POPC   C2B70796  40.270   5.434   6.538
 5639POPC   C3B70797  40.011   5.269   6.862
 5639POPC   C4B70798  40.176   5.362   7.310
 5640POPC   NC370799  10.905  34.637   5.510
 5640POPC   PO470800  10.359  34.956   5.390
 5640POPC   GL170801  10.388  34.774   5.831
 5640POPC   GL270802  10.226  34.427   5.877
 5640POPC   C1A70803  10.530  34.817   6.297
 5640POPC   D2A70804  10.517  34.819   6.771
 5640POPC   C3A70805  10.624  34.411   6.979
 5640POPC   C4A70806  10.674  34.313   7.419
 5640POPC   C1B70807  10.118  34.458   6.337
 5640POPC   C2B70808  10.145  34.430   6.785
 5640POPC   C3B70809  10.143  34.318   7.199
 5640POPC   C4B70810  10.210  34.313   7.643
 5641POPC   NC370811  10.660  14.522   5.438
 5641POPC   PO470812   9.959  14.592   5.290
 5641POPC   GL170813  10.236  14.340   5.703
 5641POPC   GL270814  10.558  14.091   5.766
 5641POPC   C1A70815  10.476  14.453   6.139
 5641POPC   D2A70816  10.389  14.707   6.518
 5641POPC   C3A70817  10.493  14.599   6.968
 5641POPC   C4A70818  10.346  14.290   7.257
 5641POPC   C1B70819  10.660  14.003   6.226
 5641POPC   C2B70820  10.570  14.225   6.625
 5641POPC   C3B70821  10.785  14.158   7.046
 5641POPC   C4B70822  10.843  14.292   7.483
 5642POPC   NC370823  40.067  43.596   5.257
 5642POPC   PO470824  39.547  43.697   5.698
 5642POPC   GL170825  39.989  43.796   5.825
 5642POPC   GL270826  40.282  43.980   5.639
 5642POPC   C1A70827  39.985  44.012   6.224
 5642POPC   D2A70828  39.894  44.258   6.593
 5642POPC   C3A70829  39.681  43.974   6.873
 5642POPC   C4A70830  39.775  43.759   7.262
 5642POPC   C1B70831  40.461  43.905   6.060
 5642POPC   C2B70832  40.408  44.011   6.494
 5642POPC   C3B70833  40.207  43.949   6.889
 5642POPC   C4B70834  40.299  43.729   7.256
 5643POPC   NC370835   4.653   7.609   5.153
 5643POPC   PO470836   4.287   7.045   5.367
 5643POPC   GL170837   4.297   7.271   5.775
 5643POPC   GL270838   4.608   7.131   5.842
 5643POPC   C1A70839   4.323   7.433   6.203
 5643POPC   D2A70840   4.187   7.300   6.605
 5643POPC   C3A70841   4.291   7.498   7.016
 5643POPC   C4A70842   4.296   7.609   7.476
 5643POPC   C1B70843   4.392   6.923   6.171
 5643POPC   C2B70844   4.483   6.865   6.593
 5643POPC   C3B70845   4.640   7.179   6.853
 5643POPC   C4B70846   4.500   7.124   7.285
 5644POPC   NC370847   9.117  44.706   5.242
 5644POPC   PO470848   9.818  44.891   5.252
 5644POPC   GL170849   9.825  44.702   5.690
 5644POPC   GL270850   9.657  44.430   5.728
 5644POPC   C1A70851   9.875  44.670   6.145
 5644POPC   D2A70852   9.663  44.719   6.525
 5644POPC   C3A70853   9.807  44.586   6.908
 5644POPC   C4A70854   9.685  44.796   7.259
 5644POPC   C1B70855   9.437  44.431   6.131
 5644POPC   C2B70856   9.257  44.416   6.543
 5644POPC   C3B70857   9.284  44.578   6.977
 5644POPC   C4B70858   9.474  44.348   7.341
 5645POPC   NC370859  17.678   4.602   5.494
 5645POPC   PO470860  17.448   5.186   5.437
 5645POPC   GL170861  17.499   5.182   5.863
 5645POPC   GL270862  17.789   4.957   5.870
 5645POPC   C1A70863  17.515   5.099   6.299
 5645POPC   D2A70864  17.660   5.234   6.684
 5645POPC   C3A70865  17.432   5.113   7.005
 5645POPC   C4A70866  17.103   5.241   7.198
 5645POPC   C1B70867  17.734   4.654   6.225
 5645POPC   C2B70868  17.612   4.719   6.660
 5645POPC   C3B70869  17.832   4.818   7.038
 5645POPC   C4B70870  17.824   4.756   7.496
 5646POPC   NC370871  36.034  19.998   5.385
 5646POPC   PO470872  35.951  19.475   5.696
 5646POPC   GL170873  36.168  19.793   5.848
 5646POPC   GL270874  36.337  20.120   5.787
 5646POPC   C1A70875  36.009  20.039   6.188
 5646POPC   D2A70876  35.774  19.865   6.530
 5646POPC   C3A70877  35.959  19.975   6.921
 5646POPC   C4A70878  35.897  19.845   7.319
 5646POPC   C1B70879  36.506  19.914   6.181
 5646POPC   C2B70880  36.351  19.974   6.571
 5646POPC   C3B70881  36.479  20.010   6.957
 5646POPC   C4B70882  36.406  19.746   7.276
 5647POPC   NC370883  18.251   2.185   5.342
 5647POPC   PO470884  18.640   1.570   5.288
 5647POPC   GL170885  18.365   1.797   5.632
 5647POPC   GL270886  18.466   2.135   5.809
 5647POPC   C1A70887  18.068   1.863   6.006
 5647POPC   D2A70888  18.178   1.927   6.459
 5647POPC   C3A70889  17.986   1.774   6.855
 5647POPC   C4A70890  18.132   1.645   7.270
 5647POPC   C1B70891  18.260   2.351   6.131
 5647POPC   C2B70892  18.341   2.489   6.553
 5647POPC   C3B70893  18.330   2.331   6.977
 5647POPC   C4B70894  18.018   2.140   7.258
 5648POPC   NC370895  32.591  36.804   5.264
 5648POPC   PO470896  32.156  37.235   5.259
 5648POPC   GL170897  32.239  37.010   5.712
 5648POPC   GL270898  32.046  36.691   5.770
 5648POPC   C1A70899  32.133  36.975   6.199
 5648POPC   D2A70900  31.927  37.144   6.590
 5648POPC   C3A70901  32.160  37.059   6.976
 5648POPC   C4A70902  32.419  36.742   7.180
 5648POPC   C1B70903  31.928  36.483   6.150
 5648POPC   C2B70904  32.020  36.545   6.565
 5648POPC   C3B70905  31.834  36.664   6.925
 5648POPC   C4B70906  31.954  36.589   7.336
 5649POPC   NC370907  18.092   8.031   5.508
 5649POPC   PO470908  17.891   8.630   5.767
 5649POPC   GL170909  18.097   8.265   5.982
 5649POPC   GL270910  18.423   8.090   5.892
 5649POPC   C1A70911  18.355   8.264   6.354
 5649POPC   D2A70912  18.510   8.528   6.669
 5649POPC   C3A70913  18.393   8.191   6.965
 5649POPC   C4A70914  18.024   8.281   7.238
 5649POPC   C1B70915  18.678   7.855   6.184
 5649POPC   C2B70916  18.526   7.783   6.613
 5649POPC   C3B70917  18.523   7.652   7.028
 5649POPC   C4B70918  18.278   7.840   7.332
 5650POPC   NC370919  16.288   3.706   5.509
 5650POPC   PO470920  16.907   3.524   5.354
 5650POPC   GL170921  16.826   3.603   5.792
 5650POPC   GL270922  16.650   3.907   5.858
 5650POPC   C1A70923  16.586   3.441   6.147
 5650POPC   D2A70924  16.493   3.342   6.585
 5650POPC   C3A70925  16.839   3.487   6.864
 5650POPC   C4A70926  16.862   3.451   7.308
 5650POPC   C1B70927  16.535   3.960   6.303
 5650POPC   C2B70928  16.420   4.114   6.732
 5650POPC   C3B70929  16.504   3.867   7.101
 5650POPC   C4B70930  16.379   3.441   7.097
 5651POPC   NC370931  18.163  40.879   5.135
 5651POPC   PO470932  18.786  40.673   5.384
 5651POPC   GL170933  18.471  40.708   5.745
 5651POPC   GL270934  18.203  40.953   5.858
 5651POPC   C1A70935  18.396  40.553   6.164
 5651POPC   D2A70936  18.645  40.691   6.517
 5651POPC   C3A70937  18.565  40.562   6.920
 5651POPC   C4A70938  18.595  40.771   7.301
 5651POPC   C1B70939  18.285  41.027   6.332
 5651POPC   C2B70940  18.169  40.757   6.693
 5651POPC   C3B70941  18.311  41.040   6.987
 5651POPC   C4B70942  18.356  41.259   7.387
 5652POPC   NC370943  17.816  40.070   5.263
 5652POPC   PO470944  17.373  39.557   5.313
 5652POPC   GL170945  17.616  39.789   5.654
 5652POPC   GL270946  17.561  40.144   5.714
 5652POPC   C1A70947  17.554  39.801   6.101
 5652POPC   D2A70948  17.378  39.948   6.502
 5652POPC   C3A70949  17.371  39.664   6.865
 5652POPC   C4A70950  17.148  39.765   7.247
 5652POPC   C1B70951  17.790  40.254   6.108
 5652POPC   C2B70952  17.768  40.335   6.562
 5652POPC   C3B70953  17.655  40.091   6.912
 5652POPC   C4B70954  17.636  39.874   7.284
 5653POPC   NC370955   7.033  43.933   5.416
 5653POPC   PO470956   7.685  43.755   5.460
 5653POPC   GL170957   7.445  43.927   5.789
 5653POPC   GL270958   7.264  44.279   5.737
 5653POPC   C1A70959   7.599  43.928   6.212
 5653POPC   D2A70960   7.638  44.063   6.634
 5653POPC   C3A70961   7.855  43.840   6.903
 5653POPC   C4A70962   7.659  43.853   7.254
 5653POPC   C1B70963   7.133  44.121   6.151
 5653POPC   C2B70964   7.119  44.136   6.579
 5653POPC   C3B70965   7.243  43.968   6.964
 5653POPC   C4B70966   7.241  44.098   7.367
 5654POPC   NC370967  23.068  38.714   5.442
 5654POPC   PO470968  22.741  38.102   5.371
 5654POPC   GL170969  22.824  38.287   5.763
 5654POPC   GL270970  23.060  38.553   5.915
 5654POPC   C1A70971  22.645  38.376   6.139
 5654POPC   D2A70972  22.918  38.498   6.479
 5654POPC   C3A70973  22.756  38.329   6.845
 5654POPC   C4A70974  22.784  38.497   7.227
 5654POPC   C1B70975  23.250  38.202   6.105
 5654POPC   C2B70976  23.319  38.141   6.559
 5654POPC   C3B70977  23.254  38.368   6.959
 5654POPC   C4B70978  23.275  38.689   7.288
 5655POPC   NC370979   9.861  14.147   5.408
 5655POPC   PO470980   9.532  13.563   5.436
 5655POPC   GL170981   9.769  13.637   5.794
 5655POPC   GL270982   9.797  13.982   5.873
 5655POPC   C1A70983   9.856  13.609   6.229
 5655POPC   D2A70984   9.677  13.488   6.607
 5655POPC   C3A70985   9.885  13.565   6.980
 5655POPC   C4A70986   9.771  13.316   7.306
 5655POPC   C1B70987  10.153  14.025   6.136
 5655POPC   C2B70988  10.297  13.777   6.498
 5655POPC   C3B70989  10.242  13.941   6.889
 5655POPC   C4B70990   9.900  14.068   7.145
 5656POPC   NC370991   3.926   3.009   5.263
 5656POPC   PO470992   3.368   2.711   5.321
 5656POPC   GL170993   3.611   2.857   5.677
 5656POPC   GL270994   3.772   2.563   5.780
 5656POPC   C1A70995   3.574   2.906   6.142
 5656POPC   D2A70996   3.332   3.031   6.525
 5656POPC   C3A70997   3.625   3.009   6.857
 5656POPC   C4A70998   3.854   2.893   7.218
 5656POPC   C1B70999   3.580   2.380   6.154
 5656POPC   C2B71000   3.498   2.546   6.553
 5656POPC   C3B71001   3.627   2.513   6.969
 5656POPC   C4B71002   3.533   2.502   7.386
 5657POPC   NC371003  33.104  19.287   5.196
 5657POPC   PO471004  32.481  19.441   5.461
 5657POPC   GL171005  32.780  19.210   5.757
 5657POPC   GL271006  33.174  19.186   5.714
 5657POPC   C1A71007  32.922  19.162   6.194
 5657POPC   D2A71008  32.959  19.295   6.623
 5657POPC   C3A71009  33.239  19.102   6.907
 5657POPC   C4A71010  33.072  19.316   7.238
 5657POPC   C1B71011  33.429  19.214   6.119
 5657POPC   C2B71012  33.474  19.425   6.554
 5657POPC   C3B71013  33.525  19.521   6.994
 5657POPC   C4B71014  33.549  19.237   7.347
 5658POPC   NC371015   2.433   3.360   5.476
 5658POPC   PO471016   3.004   3.668   5.525
 5658POPC   GL171017   2.781   3.416   5.870
 5658POPC   GL271018   2.411   3.290   5.965
 5658POPC   C1A71019   2.704   3.650   6.237
 5658POPC   D2A71020   2.513   3.808   6.588
 5658POPC   C3A71021   2.785   3.743   6.944
 5658POPC   C4A71022   2.696   3.565   7.353
 5658POPC   C1B71023   2.368   3.306   6.400
 5658POPC   C2B71024   2.541   3.258   6.794
 5658POPC   C3B71025   2.382   3.170   7.184
 5658POPC   C4B71026   2.453   3.205   7.629
 5659POPC   NC371027  34.014   4.074   5.267
 5659POPC   PO471028  33.397   4.441   5.296
 5659POPC   GL171029  33.528   4.152   5.650
 5659POPC   GL271030  33.902   4.138   5.758
 5659POPC   C1A71031  33.477   4.243   6.112
 5659POPC   D2A71032  33.623   4.547   6.450
 5659POPC   C3A71033  33.468   4.416   6.864
 5659POPC   C4A71034  33.585   4.167   7.249
 5659POPC   C1B71035  33.995   4.173   6.210
 5659POPC   C2B71036  33.870   4.153   6.653
 5659POPC   C3B71037  33.993   4.385   7.013
 5659POPC   C4B71038  34.276   4.331   7.366
 5660POPC   NC371039  18.214  32.843   5.044
 5660POPC   PO471040  18.294  33.216   5.629
 5660POPC   GL171041  18.296  33.090   5.987
 5660POPC   GL271042  18.336  32.736   5.921
 5660POPC   C1A71043  18.536  32.977   6.326
 5660POPC   D2A71044  18.402  32.836   6.731
 5660POPC   C3A71045  18.350  33.056   7.058
 5660POPC   C4A71046  18.080  33.405   7.099
 5660POPC   C1B71047  18.037  32.735   6.243
 5660POPC   C2B71048  17.965  32.577   6.606
 5660POPC   C3B71049  17.923  32.795   6.965
 5660POPC   C4B71050  17.698  32.808   7.316
 5661POPC   NC371051  28.279  40.563   5.468
 5661POPC   PO471052  28.850  40.782   5.322
 5661POPC   GL171053  28.621  40.838   5.743
 5661POPC   GL271054  28.257  40.810   5.925
 5661POPC   C1A71055  28.667  40.657   6.157
 5661POPC   D2A71056  28.459  40.590   6.554
 5661POPC   C3A71057  28.686  40.686   6.934
 5661POPC   C4A71058  28.576  40.644   7.405
 5661POPC   C1B71059  28.363  41.057   6.304
 5661POPC   C2B71060  28.368  41.082   6.748
 5661POPC   C3B71061  28.292  40.975   7.158
 5661POPC   C4B71062  28.431  41.130   7.580
 5662POPC   NC371063  23.595  42.986   5.478
 5662POPC   PO471064  24.144  43.313   5.441
 5662POPC   GL171065  23.915  43.217   5.798
 5662POPC   GL271066  23.960  42.864   5.834
 5662POPC   C1A71067  23.560  43.218   6.094
 5662POPC   D2A71068  23.695  43.244   6.505
 5662POPC   C3A71069  23.450  43.216   6.855
 5662POPC   C4A71070  23.532  43.115   7.295
 5662POPC   C1B71071  23.768  42.761   6.196
 5662POPC   C2B71072  23.613  42.739   6.602
 5662POPC   C3B71073  23.728  42.792   6.973
 5662POPC   C4B71074  23.523  42.576   7.257
 5663POPC   NC371075  26.854  44.322   5.486
 5663POPC   PO471076  26.942  43.684   5.564
 5663POPC   GL171077  26.645  43.761   5.865
 5663POPC   GL271078  26.533  44.125   5.836
 5663POPC   C1A71079  26.520  43.588   6.256
 5663POPC   D2A71080  26.375  43.600   6.685
 5663POPC   C3A71081  26.738  43.710   6.942
 5663POPC   C4A71082  26.780  43.784   7.371
 5663POPC   C1B71083  26.832  44.088   6.213
 5663POPC   C2B71084  26.839  44.144   6.679
 5663POPC   C3B71085  26.798  44.224   7.136
 5663POPC   C4B71086  26.572  44.203   7.569
 5664POPC   NC371087   2.313  11.236   5.541
 5664POPC   PO471088   1.793  11.557   5.228
 5664POPC   GL171089   1.798  11.478   5.683
 5664POPC   GL271090   1.838  11.109   5.794
 5664POPC   C1A71091   1.833  11.521   6.135
 5664POPC   D2A71092   2.156  11.482   6.442
 5664POPC   C3A71093   1.936  11.375   6.797
 5664POPC   C4A71094   1.988  11.392   7.218
 5664POPC   C1B71095   2.058  11.023   6.202
 5664POPC   C2B71096   2.254  10.995   6.623
 5664POPC   C3B71097   2.037  10.924   7.028
 5664POPC   C4B71098   2.187  10.984   7.472
 5665POPC   NC371099  16.639  14.120   5.323
 5665POPC   PO471100  16.771  14.846   5.222
 5665POPC   GL171101  16.734  14.536   5.593
 5665POPC   GL271102  16.526  14.249   5.797
 5665POPC   C1A71103  16.845  14.529   6.057
 5665POPC   D2A71104  16.714  14.536   6.475
 5665POPC   C3A71105  16.970  14.550   6.843
 5665POPC   C4A71106  16.957  14.766   7.253
 5665POPC   C1B71107  16.597  14.065   6.255
 5665POPC   C2B71108  16.626  14.123   6.736
 5665POPC   C3B71109  16.713  14.219   7.152
 5665POPC   C4B71110  16.496  14.130   7.522
 5666POPC   NC371111  10.972  41.995   5.553
 5666POPC   PO471112  10.521  41.525   5.352
 5666POPC   GL171113  10.430  41.445   5.793
 5666POPC   GL271114  10.558  41.769   5.818
 5666POPC   C1A71115  10.346  41.541   6.281
 5666POPC   D2A71116  10.615  41.668   6.630
 5666POPC   C3A71117  10.684  41.439   7.047
 5666POPC   C4A71118  10.598  41.145   7.425
 5666POPC   C1B71119  10.593  41.974   6.176
 5666POPC   C2B71120  10.309  42.086   6.466
 5666POPC   C3B71121  10.308  41.972   6.903
 5666POPC   C4B71122  10.412  41.803   7.300
 5667POPC   NC371123  21.097  27.064   5.551
 5667POPC   PO471124  21.299  26.610   5.159
 5667POPC   GL171125  21.204  26.605   5.715
 5667POPC   GL271126  21.420  26.461   6.012
 5667POPC   C1A71127  21.151  26.855   6.151
 5667POPC   D2A71128  21.342  27.026   6.522
 5667POPC   C3A71129  21.207  26.790   6.883
 5667POPC   C4A71130  21.212  27.007   7.265
 5667POPC   C1B71131  21.658  26.624   6.364
 5667POPC   C2B71132  21.692  26.572   6.815
 5667POPC   C3B71133  21.637  26.713   7.241
 5667POPC   C4B71134  21.563  26.720   7.713
 5668POPC   NC371135   9.552   8.256   5.348
 5668POPC   PO471136  10.163   8.189   5.622
 5668POPC   GL171137   9.945   8.168   5.941
 5668POPC   GL271138   9.623   8.306   5.912
 5668POPC   C1A71139   9.820   7.989   6.275
 5668POPC   D2A71140   9.661   8.093   6.647
 5668POPC   C3A71141   9.956   8.179   6.960
 5668POPC   C4A71142   9.639   8.324   7.246
 5668POPC   C1B71143   9.801   8.493   6.324
 5668POPC   C2B71144   9.821   8.660   6.763
 5668POPC   C3B71145  10.031   8.653   7.177
 5668POPC   C4B71146   9.876   8.530   7.643
 5669POPC   NC371147   0.777  44.702   5.544
 5669POPC   PO471148   0.279  44.265   5.427
 5669POPC   GL171149   0.360  44.501   5.813
 5669POPC   GL271150   0.387  44.869   5.826
 5669POPC   C1A71151   0.415  44.594   6.260
 5669POPC   D2A71152   0.424  44.392   6.626
 5669POPC   C3A71153   0.515  44.610   6.991
 5669POPC   C4A71154   0.403  44.450   7.352
 5669POPC   C1B71155   0.551   0.080   6.207
 5669POPC   C2B71156   0.479   0.037   6.672
 5669POPC   C3B71157   0.682   0.091   7.095
 5669POPC   C4B71158   0.717  44.831   7.472
 5670POPC   NC371159  24.114  12.794   5.627
 5670POPC   PO471160  23.346  12.666   5.593
 5670POPC   GL171161  23.619  12.766   5.947
 5670POPC   GL271162  23.724  13.107   5.825
 5670POPC   C1A71163  23.736  12.595   6.395
 5670POPC   D2A71164  23.978  12.462   6.796
 5670POPC   C3A71165  23.795  12.545   7.231
 5670POPC   C4A71166  23.364  12.495   7.509
 5670POPC   C1B71167  23.827  13.120   6.258
 5670POPC   C2B71168  23.753  13.032   6.683
 5670POPC   C3B71169  23.885  13.088   7.072
 5670POPC   C4B71170  23.884  12.983   7.491
 5671POPC   NC371171   4.635  21.191   5.420
 5671POPC   PO471172   4.205  21.686   5.440
 5671POPC   GL171173   4.248  21.365   5.814
 5671POPC   GL271174   4.499  21.067   5.881
 5671POPC   C1A71175   4.217  21.271   6.279
 5671POPC   D2A71176   4.089  21.040   6.672
 5671POPC   C3A71177   4.036  21.324   7.036
 5671POPC   C4A71178   4.233  21.729   7.092
 5671POPC   C1B71179   4.661  20.992   6.280
 5671POPC   C2B71180   4.658  21.207   6.692
 5671POPC   C3B71181   4.508  21.175   7.126
 5671POPC   C4B71182   4.138  20.896   7.297
 5672POPC   NC371183   5.026  10.896   5.283
 5672POPC   PO471184   5.324  11.449   5.421
 5672POPC   GL171185   5.207  11.302   5.826
 5672POPC   GL271186   4.871  11.202   5.827
 5672POPC   C1A71187   5.487  11.251   6.188
 5672POPC   D2A71188   5.548  11.122   6.615
 5672POPC   C3A71189   5.322  11.381   6.928
 5672POPC   C4A71190   5.511  11.581   7.281
 5672POPC   C1B71191   4.664  11.326   6.234
 5672POPC   C2B71192   4.804  11.383   6.699
 5672POPC   C3B71193   4.839  11.226   7.148
 5672POPC   C4B71194   4.671  11.190   7.598
 5673POPC   NC371195   6.410  13.275   5.561
 5673POPC   PO471196   6.753  12.641   5.619
 5673POPC   GL171197   6.539  12.888   5.865
 5673POPC   GL271198   6.730  13.174   5.923
 5673POPC   C1A71199   6.348  12.982   6.235
 5673POPC   D2A71200   6.442  13.167   6.624
 5673POPC   C3A71201   6.542  12.864   6.925
 5673POPC   C4A71202   6.279  12.800   7.280
 5673POPC   C1B71203   6.866  13.004   6.288
 5673POPC   C2B71204   7.033  12.923   6.684
 5673POPC   C3B71205   6.995  13.173   7.052
 5673POPC   C4B71206   6.680  13.106   7.371
 5674POPC   NC371207  35.313  34.415   5.471
 5674POPC   PO471208  35.245  35.052   5.566
 5674POPC   GL171209  35.199  34.731   5.909
 5674POPC   GL271210  35.058  34.375   5.903
 5674POPC   C1A71211  35.491  34.685   6.272
 5674POPC   D2A71212  35.510  34.873   6.687
 5674POPC   C3A71213  35.357  34.746   7.097
 5674POPC   C4A71214  35.706  34.740   7.382
 5674POPC   C1B71215  35.147  34.315   6.297
 5674POPC   C2B71216  35.234  34.427   6.696
 5674POPC   C3B71217  35.105  34.294   7.082
 5674POPC   C4B71218  35.399  34.320   7.389
 5675POPC   NC371219  30.321  21.554   5.512
 5675POPC   PO471220  29.696  21.309   5.425
 5675POPC   GL171221  29.933  21.216   5.789
 5675POPC   GL271222  29.689  20.979   5.854
 5675POPC   C1A71223  29.941  21.254   6.242
 5675POPC   D2A71224  30.087  21.083   6.627
 5675POPC   C3A71225  29.941  21.262   7.003
 5675POPC   C4A71226  29.876  21.200   7.432
 5675POPC   C1B71227  29.462  21.121   6.247
 5675POPC   C2B71228  29.575  20.963   6.685
 5675POPC   C3B71229  29.576  20.924   7.153
 5675POPC   C4B71230  29.569  20.832   7.630
 5676POPC   NC371231  25.017  42.642   5.309
 5676POPC   PO471232  25.265  42.063   5.463
 5676POPC   GL171233  25.238  42.423   5.735
 5676POPC   GL271234  25.546  42.644   5.773
 5676POPC   C1A71235  25.214  42.402   6.191
 5676POPC   D2A71236  25.026  42.320   6.605
 5676POPC   C3A71237  25.231  42.404   6.986
 5676POPC   C4A71238  25.376  42.119   7.277
 5676POPC   C1B71239  25.693  42.567   6.197
 5676POPC   C2B71240  25.551  42.530   6.602
 5676POPC   C3B71241  25.738  42.476   6.986
 5676POPC   C4B71242  25.605  42.589   7.364
 5677POPC   NC371243  30.858  41.444   5.561
 5677POPC   PO471244  31.468  41.152   5.454
 5677POPC   GL171245  31.444  41.273   5.856
 5677POPC   GL271246  31.107  41.106   5.859
 5677POPC   C1A71247  31.655  41.502   6.216
 5677POPC   D2A71248  31.508  41.644   6.624
 5677POPC   C3A71249  31.748  41.529   6.985
 5677POPC   C4A71250  31.616  41.562   7.423
 5677POPC   C1B71251  31.194  41.237   6.289
 5677POPC   C2B71252  31.061  41.109   6.663
 5677POPC   C3B71253  31.305  41.175   7.008
 5677POPC   C4B71254  31.197  41.261   7.399
 5678POPC   NC371255   8.510  13.509   5.234
 5678POPC   PO471256   7.836  13.496   5.247
 5678POPC   GL171257   8.030  13.495   5.688
 5678POPC   GL271258   8.185  13.795   5.835
 5678POPC   C1A71259   8.052  13.427   6.169
 5678POPC   D2A71260   8.260  13.538   6.548
 5678POPC   C3A71261   8.333  13.336   6.945
 5678POPC   C4A71262   8.085  13.525   7.234
 5678POPC   C1B71263   8.500  14.016   6.130
 5678POPC   C2B71264   8.617  13.888   6.556
 5678POPC   C3B71265   8.380  13.857   6.942
 5678POPC   C4B71266   8.509  13.900   7.351
 5679POPC   NC371267  19.261   8.193   5.322
 5679POPC   PO471268  18.554   7.965   5.423
 5679POPC   GL171269  18.918   8.169   5.738
 5679POPC   GL271270  19.310   8.282   5.803
 5679POPC   C1A71271  18.966   8.314   6.180
 5679POPC   D2A71272  18.825   8.177   6.572
 5679POPC   C3A71273  18.902   8.337   6.971
 5679POPC   C4A71274  18.889   8.093   7.362
 5679POPC   C1B71275  19.495   8.346   6.222
 5679POPC   C2B71276  19.311   8.280   6.585
 5679POPC   C3B71277  19.397   8.170   6.959
 5679POPC   C4B71278  19.324   8.356   7.294
 5680POPC   NC371279   4.365  31.724   5.422
 5680POPC   PO471280   4.224  31.110   5.245
 5680POPC   GL171281   4.217  31.262   5.708
 5680POPC   GL271282   4.006  31.559   5.748
 5680POPC   C1A71283   4.351  31.310   6.179
 5680POPC   D2A71284   4.555  31.289   6.636
 5680POPC   C3A71285   4.347  31.182   7.029
 5680POPC   C4A71286   4.478  31.390   7.432
 5680POPC   C1B71287   4.127  31.799   6.129
 5680POPC   C2B71288   4.303  31.728   6.549
 5680POPC   C3B71289   4.401  31.679   6.969
 5680POPC   C4B71290   4.051  31.565   7.215
 5681POPC   NC371291  19.135   1.757   5.153
 5681POPC   PO471292  18.794   2.193   5.435
 5681POPC   GL171293  19.058   2.037   5.733
 5681POPC   GL271294  18.849   1.790   5.779
 5681POPC   C1A71295  18.968   2.092   6.189
 5681POPC   D2A71296  19.236   2.099   6.561
 5681POPC   C3A71297  19.158   1.970   6.987
 5681POPC   C4A71298  19.193   2.200   7.364
 5681POPC   C1B71299  18.568   1.711   6.107
 5681POPC   C2B71300  18.663   1.780   6.526
 5681POPC   C3B71301  18.505   1.834   6.936
 5681POPC   C4B71302  18.708   2.059   7.257
 5682POPC   NC371303  17.026  13.445   5.067
 5682POPC   PO471304  16.423  13.652   5.320
 5682POPC   GL171305  16.548  13.497   5.749
 5682POPC   GL271306  16.335  13.227   5.904
 5682POPC   C1A71307  16.843  13.513   6.143
 5682POPC   D2A71308  16.896  13.297   6.559
 5682POPC   C3A71309  16.915  13.549   6.939
 5682POPC   C4A71310  17.097  13.527   7.336
 5682POPC   C1B71311  16.348  13.573   6.221
 5682POPC   C2B71312  16.501  13.638   6.642
 5682POPC   C3B71313  16.409  13.806   7.076
 5682POPC   C4B71314  16.510  13.632   7.498
 5683POPC   NC371315  40.979  21.675   5.467
 5683POPC   PO471316  40.433  21.290   5.637
 5683POPC   GL171317  40.611  21.234   5.974
 5683POPC   GL271318  40.869  21.425   5.913
 5683POPC   C1A71319  40.686  21.378   6.379
 5683POPC   D2A71320  40.857  21.702   6.564
 5683POPC   C3A71321  40.654  21.624   6.911
 5683POPC   C4A71322  40.632  21.556   7.321
 5683POPC   C1B71323  41.078  21.115   6.220
 5683POPC   C2B71324  41.132  21.216   6.637
 5683POPC   C3B71325  41.161  21.521   6.965
 5683POPC   C4B71326  41.111  21.381   7.377
 5684POPC   NC371327  25.494  32.215   5.192
 5684POPC   PO471328  25.046  32.688   5.399
 5684POPC   GL171329  25.180  32.377   5.712
 5684POPC   GL271330  25.525  32.268   5.734
 5684POPC   C1A71331  25.163  32.203   6.131
 5684POPC   D2A71332  25.206  32.454   6.496
 5684POPC   C3A71333  25.051  32.280   6.827
 5684POPC   C4A71334  25.168  32.195   7.230
 5684POPC   C1B71335  25.505  32.605   6.100
 5684POPC   C2B71336  25.691  32.644   6.506
 5684POPC   C3B71337  25.570  32.451   6.888
 5684POPC   C4B71338  25.533  32.580   7.284
 5685POPC   NC371339   0.195  29.640   5.335
 5685POPC   PO471340   0.595  30.185   5.231
 5685POPC   GL171341   0.534  30.128   5.706
 5685POPC   GL271342   0.282  29.868   5.802
 5685POPC   C1A71343   0.713  30.103   6.158
 5685POPC   D2A71344   0.778  29.826   6.561
 5685POPC   C3A71345   0.697  29.980   6.995
 5685POPC   C4A71346   0.615  30.088   7.456
 5685POPC   C1B71347   0.197  30.073   6.212
 5685POPC   C2B71348   0.332  30.152   6.677
 5685POPC   C3B71349   0.204  30.038   7.137
 5685POPC   C4B71350   0.167  29.727   7.474
 5686POPC   NC371351  36.809  15.501   5.439
 5686POPC   PO471352  37.096  14.760   5.423
 5686POPC   GL171353  36.773  15.019   5.689
 5686POPC   GL271354  36.977  15.255   5.857
 5686POPC   C1A71355  36.514  15.135   6.104
 5686POPC   D2A71356  36.587  15.025   6.579
 5686POPC   C3A71357  36.826  15.265   6.884
 5686POPC   C4A71358  36.869  15.211   7.347
 5686POPC   C1B71359  37.018  15.165   6.279
 5686POPC   C2B71360  37.198  14.981   6.639
 5686POPC   C3B71361  37.281  15.165   7.055
 5686POPC   C4B71362  37.526  15.055   7.403
 5687POPC   NC371363  35.590  23.986   5.488
 5687POPC   PO471364  35.127  23.409   5.497
 5687POPC   GL171365  35.231  23.582   5.887
 5687POPC   GL271366  35.340  23.919   5.913
 5687POPC   C1A71367  35.176  23.406   6.301
 5687POPC   D2A71368  34.969  23.412   6.717
 5687POPC   C3A71369  35.286  23.323   6.981
 5687POPC   C4A71370  35.344  23.377   7.403
 5687POPC   C1B71371  35.605  23.713   6.236
 5687POPC   C2B71372  35.659  23.464   6.612
 5687POPC   C3B71373  35.695  23.673   7.006
 5687POPC   C4B71374  35.474  23.972   7.260
 5688POPC   NC371375  42.655  12.369   5.352
 5688POPC   PO471376  42.249  11.836   5.415
 5688POPC   GL171377  42.387  12.063   5.755
 5688POPC   GL271378  42.650  11.811   5.836
 5688POPC   C1A71379  42.170  12.257   6.122
 5688POPC   D2A71380  42.368  12.334   6.528
 5688POPC   C3A71381  42.195  12.312   6.932
 5688POPC   C4A71382  42.516  12.289   7.260
 5688POPC   C1B71383  42.487  11.875   6.264
 5688POPC   C2B71384  42.270  11.838   6.667
 5688POPC   C3B71385  42.261  11.858   7.137
 5688POPC   C4B71386  42.026  11.608   7.388
 5689POPC   NC371387  24.034  38.583   5.665
 5689POPC   PO471388  23.487  38.472   5.217
 5689POPC   GL171389  23.519  38.514   5.682
 5689POPC   GL271390  23.655  38.185   5.750
 5689POPC   C1A71391  23.604  38.553   6.163
 5689POPC   D2A71392  23.796  38.382   6.558
 5689POPC   C3A71393  23.745  38.520   6.993
 5689POPC   C4A71394  23.612  38.311   7.368
 5689POPC   C1B71395  23.768  38.036   6.163
 5689POPC   C2B71396  24.128  38.007   6.442
 5689POPC   C3B71397  24.250  38.253   6.823
 5689POPC   C4B71398  24.089  38.217   7.228
 5690POPC   NC371399   0.833  19.709   5.400
 5690POPC   PO471400   0.185  19.512   5.326
 5690POPC   GL171401   0.408  19.660   5.722
 5690POPC   GL271402   0.416  20.023   5.707
 5690POPC   C1A71403   0.503  19.533   6.172
 5690POPC   D2A71404   0.252  19.653   6.559
 5690POPC   C3A71405   0.460  19.640   6.948
 5690POPC   C4A71406   0.353  19.535   7.353
 5690POPC   C1B71407   0.228  19.952   6.141
 5690POPC   C2B71408   0.348  20.186   6.507
 5690POPC   C3B71409   0.279  20.120   6.944
 5690POPC   C4B71410   0.545  20.036   7.312
 5691POPC   NC371411  16.962  35.844   5.329
 5691POPC   PO471412  16.488  36.250   5.253
 5691POPC   GL171413  16.588  36.011   5.671
 5691POPC   GL271414  16.932  36.109   5.803
 5691POPC   C1A71415  16.570  35.935   6.151
 5691POPC   D2A71416  16.575  36.086   6.607
 5691POPC   C3A71417  16.884  36.133   6.986
 5691POPC   C4A71418  16.760  36.127   7.466
 5691POPC   C1B71419  16.894  36.340   6.204
 5691POPC   C2B71420  16.896  36.519   6.621
 5691POPC   C3B71421  16.751  36.619   7.047
 5691POPC   C4B71422  17.104  36.503   7.331
 5692POPC   NC371423  35.893  39.522   5.456
 5692POPC   PO471424  36.573  39.262   5.393
 5692POPC   GL171425  36.296  39.265   5.739
 5692POPC   GL271426  36.075  39.023   5.600
 5692POPC   C1A71427  36.194  39.472   6.155
 5692POPC   D2A71428  36.014  39.571   6.580
 5692POPC   C3A71429  36.226  39.490   6.963
 5692POPC   C4A71430  36.024  39.469   7.360
 5692POPC   C1B71431  36.130  38.893   6.056
 5692POPC   C2B71432  36.175  39.077   6.498
 5692POPC   C3B71433  35.979  39.040   6.914
 5692POPC   C4B71434  36.034  38.798   7.289
 5693POPC   NC371435  26.287  10.804   5.550
 5693POPC   PO471436  25.858  11.203   5.226
 5693POPC   GL171437  26.044  11.221   5.709
 5693POPC   GL271438  26.048  11.539   5.961
 5693POPC   C1A71439  26.215  11.131   6.148
 5693POPC   D2A71440  26.076  10.950   6.520
 5693POPC   C3A71441  26.206  11.089   6.929
 5693POPC   C4A71442  25.849  11.078   7.209
 5693POPC   C1B71443  25.935  11.531   6.384
 5693POPC   C2B71444  25.885  11.790   6.736
 5693POPC   C3B71445  25.961  11.536   7.072
 5693POPC   C4B71446  26.060  11.538   7.508
 5694POPC   NC371447  13.231  22.991   5.448
 5694POPC   PO471448  13.901  22.723   5.468
 5694POPC   GL171449  13.677  22.943   5.815
 5694POPC   GL271450  13.383  23.183   5.884
 5694POPC   C1A71451  13.478  22.763   6.171
 5694POPC   D2A71452  13.290  22.652   6.545
 5694POPC   C3A71453  13.555  22.663   6.908
 5694POPC   C4A71454  13.488  22.725   7.350
 5694POPC   C1B71455  13.591  23.263   6.277
 5694POPC   C2B71456  13.787  23.120   6.676
 5694POPC   C3B71457  13.886  23.019   7.128
 5694POPC   C4B71458  13.678  23.169   7.526
 5695POPC   NC371459  22.324  42.027   5.060
 5695POPC   PO471460  21.764  42.377   5.324
 5695POPC   GL171461  22.074  42.459   5.657
 5695POPC   GL271462  22.194  42.111   5.707
 5695POPC   C1A71463  22.259  42.573   6.060
 5695POPC   D2A71464  22.122  42.719   6.477
 5695POPC   C3A71465  22.244  42.462   6.862
 5695POPC   C4A71466  22.128  42.543   7.295
 5695POPC   C1B71467  21.965  42.140   6.105
 5695POPC   C2B71468  21.904  42.232   6.529
 5695POPC   C3B71469  21.828  42.156   6.966
 5695POPC   C4B71470  22.187  42.020   7.226
 5696POPC   NC371471  20.060  19.481   5.428
 5696POPC   PO471472  20.351  18.965   5.354
 5696POPC   GL171473  20.162  19.105   5.830
 5696POPC   GL271474  19.823  19.304   5.852
 5696POPC   C1A71475  20.007  18.945   6.323
 5696POPC   D2A71476  19.662  18.845   6.668
 5696POPC   C3A71477  19.608  18.910   7.131
 5696POPC   C4A71478  19.841  18.840   7.529
 5696POPC   C1B71479  20.038  19.431   6.233
 5696POPC   C2B71480  19.847  19.334   6.679
 5696POPC   C3B71481  19.915  19.326   7.158
 5696POPC   C4B71482  20.044  19.284   7.639
 5697POPC   NC371483  39.558  34.389   5.400
 5697POPC   PO471484  40.088  34.823   5.393
 5697POPC   GL171485  39.893  34.584   5.757
 5697POPC   GL271486  39.669  34.804   5.945
 5697POPC   C1A71487  40.081  34.478   6.170
 5697POPC   D2A71488  40.334  34.766   6.470
 5697POPC   C3A71489  40.360  34.699   6.940
 5697POPC   C4A71490  40.333  34.356   7.261
 5697POPC   C1B71491  39.818  34.878   6.381
 5697POPC   C2B71492  39.909  34.531   6.676
 5697POPC   C3B71493  39.854  34.316   7.067
 5697POPC   C4B71494  39.946  34.665   7.372
 5698POPC   NC371495  12.299  20.587   5.368
 5698POPC   PO471496  11.638  20.501   5.596
 5698POPC   GL171497  11.967  20.577   5.807
 5698POPC   GL271498  12.291  20.434   5.855
 5698POPC   C1A71499  11.941  20.492   6.221
 5698POPC   D2A71500  12.117  20.392   6.596
 5698POPC   C3A71501  11.882  20.580   6.926
 5698POPC   C4A71502  11.991  20.529   7.359
 5698POPC   C1B71503  12.387  20.775   6.169
 5698POPC   C2B71504  12.509  20.778   6.598
 5698POPC   C3B71505  12.380  20.632   6.980
 5698POPC   C4B71506  12.470  20.668   7.399
 5699POPC   NC371507  42.330  17.348   5.408
 5699POPC   PO471508  42.055  17.949   5.339
 5699POPC   GL171509  42.023  17.764   5.749
 5699POPC   GL271510  41.958  17.387   5.777
 5699POPC   C1A71511  42.338  17.768   6.090
 5699POPC   D2A71512  42.551  17.851   6.499
 5699POPC   C3A71513  42.403  17.611   6.831
 5699POPC   C4A71514  42.243  17.645   7.216
 5699POPC   C1B71515  42.112  17.313   6.242
 5699POPC   C2B71516  42.189  17.186   6.676
 5699POPC   C3B71517  42.262  17.127   7.124
 5699POPC   C4B71518  42.234  17.251   7.570
 5700POPC   NC371519  38.950  20.109   5.430
 5700POPC   PO471520  38.325  19.712   5.402
 5700POPC   GL171521  38.227  19.771   5.795
 5700POPC   GL271522  38.307  19.444   5.914
 5700POPC   C1A71523  38.306  19.940   6.170
 5700POPC   D2A71524  38.403  19.735   6.550
 5700POPC   C3A71525  38.519  20.007   6.865
 5700POPC   C4A71526  38.465  20.004   7.290
 5700POPC   C1B71527  38.657  19.393   6.220
 5700POPC   C2B71528  38.673  19.280   6.637
 5700POPC   C3B71529  38.609  19.511   7.035
 5700POPC   C4B71530  38.509  19.416   7.464
 5701POPC   NC371531  32.560  20.686   5.393
 5701POPC   PO471532  31.936  21.047   5.488
 5701POPC   GL171533  32.068  20.644   5.725
 5701POPC   GL271534  32.422  20.664   5.880
 5701POPC   C1A71535  31.996  20.575   6.184
 5701POPC   D2A71536  31.879  20.709   6.634
 5701POPC   C3A71537  32.191  20.701   6.993
 5701POPC   C4A71538  32.271  20.721   7.445
 5701POPC   C1B71539  32.460  20.340   6.211
 5701POPC   C2B71540  32.178  20.285   6.580
 5701POPC   C3B71541  31.919  20.263   6.953
 5701POPC   C4B71542  32.231  20.231   7.228
 5702POPC   NC371543   6.742   0.048   5.377
 5702POPC   PO471544   6.968  44.423   5.316
 5702POPC   GL171545   6.844  44.650   5.701
 5702POPC   GL271546   6.488  44.767   5.749
 5702POPC   C1A71547   6.934  44.908   6.068
 5702POPC   D2A71548   6.895   0.008   6.540
 5702POPC   C3A71549   6.758  44.653   6.781
 5702POPC   C4A71550   6.964  44.455   7.154
 5702POPC   C1B71551   6.441  44.918   6.158
 5702POPC   C2B71552   6.363  44.946   6.573
 5702POPC   C3B71553   6.294  44.887   6.977
 5702POPC   C4B71554   6.478  44.592   7.196
 5703POPC   NC371555   9.320  23.285   5.596
 5703POPC   PO471556   9.200  23.963   5.348
 5703POPC   GL171557   9.095  23.736   5.767
 5703POPC   GL271558   8.861  23.425   5.803
 5703POPC   C1A71559   9.058  23.892   6.202
 5703POPC   D2A71560   8.835  23.833   6.585
 5703POPC   C3A71561   9.089  23.937   6.925
 5703POPC   C4A71562   8.938  23.973   7.303
 5703POPC   C1B71563   9.088  23.373   6.217
 5703POPC   C2B71564   9.195  23.487   6.652
 5703POPC   C3B71565   9.017  23.427   7.063
 5703POPC   C4B71566   9.150  23.224   7.438
 5704POPC   NC371567   0.146  34.768   5.636
 5704POPC   PO471568  44.874  34.230   5.437
 5704POPC   GL171569  44.621  34.406   5.749
 5704POPC   GL271570  44.914  34.439   5.934
 5704POPC   C1A71571  44.509  34.390   6.225
 5704POPC   D2A71572  44.719  34.426   6.660
 5704POPC   C3A71573  44.417  34.279   6.992
 5704POPC   C4A71574  44.237  34.438   7.406
 5704POPC   C1B71575  44.886  34.751   6.272
 5704POPC   C2B71576   0.078  34.924   6.646
 5704POPC   C3B71577   0.028  34.895   7.093
 5704POPC   C4B71578  44.742  34.600   7.239
 5705POPC   NC371579  42.434  22.717   5.208
 5705POPC   PO471580  42.503  22.046   5.279
 5705POPC   GL171581  42.343  22.167   5.682
 5705POPC   GL271582  42.103  22.425   5.608
 5705POPC   C1A71583  42.362  22.045   6.133
 5705POPC   D2A71584  42.585  22.146   6.509
 5705POPC   C3A71585  42.382  22.020   6.885
 5705POPC   C4A71586  42.228  21.924   7.260
 5705POPC   C1B71587  41.902  22.297   6.016
 5705POPC   C2B71588  41.998  22.276   6.472
 5705POPC   C3B71589  41.906  22.210   6.916
 5705POPC   C4B71590  42.048  22.458   7.235
 5706POPC   NC371591  41.188  34.074   5.361
 5706POPC   PO471592  40.546  33.912   5.443
 5706POPC   GL171593  40.867  33.885   5.743
 5706POPC   GL271594  40.632  33.634   5.918
 5706POPC   C1A71595  40.873  34.000   6.163
 5706POPC   D2A71596  40.688  33.737   6.499
 5706POPC   C3A71597  40.822  33.864   6.920
 5706POPC   C4A71598  40.627  33.938   7.292
 5706POPC   C1B71599  41.026  33.520   6.117
 5706POPC   C2B71600  41.094  33.316   6.529
 5706POPC   C3B71601  41.023  33.405   6.929
 5706POPC   C4B71602  40.896  33.495   7.342
 5707POPC   NC371603  34.915  25.000   5.536
 5707POPC   PO471604  35.564  25.266   5.477
 5707POPC   GL171605  35.386  25.065   5.826
 5707POPC   GL271606  35.134  25.339   5.895
 5707POPC   C1A71607  35.389  25.104   6.281
 5707POPC   D2A71608  35.176  24.873   6.611
 5707POPC   C3A71609  35.163  24.962   7.035
 5707POPC   C4A71610  35.555  24.941   7.253
 5707POPC   C1B71611  35.047  25.524   6.313
 5707POPC   C2B71612  35.257  25.384   6.701
 5707POPC   C3B71613  35.344  25.419   7.150
 5707POPC   C4B71614  35.037  25.585   7.465
 5708POPC   NC371615  24.967   8.673   5.366
 5708POPC   PO471616  25.343   9.171   5.500
 5708POPC   GL171617  25.225   8.855   5.863
 5708POPC   GL271618  25.482   8.686   6.084
 5708POPC   C1A71619  24.980   8.658   6.257
 5708POPC   D2A71620  24.720   8.764   6.632
 5708POPC   C3A71621  24.934   8.689   7.027
 5708POPC   C4A71622  25.139   8.342   7.222
 5708POPC   C1B71623  25.319   9.019   6.358
 5708POPC   C2B71624  25.393   9.280   6.736
 5708POPC   C3B71625  25.244   9.104   7.109
 5708POPC   C4B71626  25.270   8.807   7.462
 5709POPC   NC371627  10.782  23.891   5.516
 5709POPC   PO471628  11.502  23.827   5.402
 5709POPC   GL171629  11.251  23.836   5.812
 5709POPC   GL271630  11.011  23.574   5.853
 5709POPC   C1A71631  11.263  23.836   6.291
 5709POPC   D2A71632  11.607  23.802   6.578
 5709POPC   C3A71633  11.547  24.030   6.933
 5709POPC   C4A71634  11.247  24.064   7.268
 5709POPC   C1B71635  11.272  23.369   6.134
 5709POPC   C2B71636  11.316  23.370   6.566
 5709POPC   C3B71637  11.206  23.634   6.898
 5709POPC   C4B71638  11.291  23.547   7.316
 5710POPC   NC371639  39.597   8.584   5.369
 5710POPC   PO471640  40.270   8.666   5.640
 5710POPC   GL171641  39.872   8.865   5.722
 5710POPC   GL271642  39.703   8.589   5.890
 5710POPC   C1A71643  39.709   9.071   6.087
 5710POPC   D2A71644  39.574   9.139   6.520
 5710POPC   C3A71645  39.887   9.259   6.825
 5710POPC   C4A71646  39.937   9.064   7.213
 5710POPC   C1B71647  39.978   8.644   6.255
 5710POPC   C2B71648  40.222   8.812   6.621
 5710POPC   C3B71649  40.255   8.667   7.042
 5710POPC   C4B71650  40.214   8.754   7.490
 5711POPC   NC371651  39.007   1.554   5.284
 5711POPC   PO471652  39.285   2.184   5.468
 5711POPC   GL171653  39.088   2.098   5.834
 5711POPC   GL271654  39.136   1.745   5.783
 5711POPC   C1A71655  39.124   2.011   6.271
 5711POPC   D2A71656  39.306   2.136   6.657
 5711POPC   C3A71657  39.043   2.165   7.011
 5711POPC   C4A71658  39.405   2.115   7.233
 5711POPC   C1B71659  39.407   1.585   6.113
 5711POPC   C2B71660  39.309   1.611   6.551
 5711POPC   C3B71661  39.209   1.681   6.963
 5711POPC   C4B71662  39.004   1.751   7.331
 5712POPC   NC371663  36.597  29.749   5.460
 5712POPC   PO471664  35.982  29.662   5.321
 5712POPC   GL171665  36.075  29.808   5.733
 5712POPC   GL271666  35.878  30.133   5.756
 5712POPC   C1A71667  36.109  29.858   6.183
 5712POPC   D2A71668  35.932  29.715   6.567
 5712POPC   C3A71669  36.199  29.687   6.939
 5712POPC   C4A71670  36.261  29.764   7.386
 5712POPC   C1B71671  36.149  30.345   6.068
 5712POPC   C2B71672  35.930  30.293   6.472
 5712POPC   C3B71673  36.016  30.157   6.876
 5712POPC   C4B71674  36.158  30.240   7.270
 5713POPC   NC371675   6.643  23.250   5.363
 5713POPC   PO471676   6.971  23.818   5.427
 5713POPC   GL171677   6.805  23.627   5.858
 5713POPC   GL271678   6.458  23.501   5.769
 5713POPC   C1A71679   6.856  23.818   6.293
 5713POPC   D2A71680   6.866  23.813   6.757
 5713POPC   C3A71681   6.591  23.582   7.038
 5713POPC   C4A71682   6.603  23.582   7.475
 5713POPC   C1B71683   6.383  23.737   6.145
 5713POPC   C2B71684   6.397  23.674   6.562
 5713POPC   C3B71685   6.409  24.045   6.818
 5713POPC   C4B71686   6.307  24.010   7.221
 5714POPC   NC371687  43.681   2.503   5.293
 5714POPC   PO471688  43.859   3.146   5.245
 5714POPC   GL171689  43.841   2.845   5.630
 5714POPC   GL271690  43.558   2.689   5.755
 5714POPC   C1A71691  43.974   2.814   6.061
 5714POPC   D2A71692  44.013   2.873   6.499
 5714POPC   C3A71693  44.211   2.589   6.731
 5714POPC   C4A71694  44.098   2.648   7.124
 5714POPC   C1B71695  43.613   2.443   6.114
 5714POPC   C2B71696  43.684   2.470   6.546
 5714POPC   C3B71697  43.741   2.361   6.971
 5714POPC   C4B71698  43.771   2.534   7.491
 5715POPC   NC371699   1.962   9.326   5.392
 5715POPC   PO471700   1.593   8.745   5.267
 5715POPC   GL171701   1.798   8.891   5.706
 5715POPC   GL271702   2.086   9.136   5.836
 5715POPC   C1A71703   1.895   8.788   6.161
 5715POPC   D2A71704   1.785   8.967   6.557
 5715POPC   C3A71705   1.813   8.741   6.955
 5715POPC   C4A71706   1.633   8.682   7.364
 5715POPC   C1B71707   2.250   9.306   6.214
 5715POPC   C2B71708   2.040   9.440   6.579
 5715POPC   C3B71709   1.929   9.269   6.951
 5715POPC   C4B71710   2.132   9.039   7.242
 5716POPC   NC371711  20.562  24.677   5.199
 5716POPC   PO471712  20.732  24.077   5.199
 5716POPC   GL171713  20.518  24.396   5.650
 5716POPC   GL271714  20.688  24.649   5.921
 5716POPC   C1A71715  20.391  24.309   6.159
 5716POPC   D2A71716  20.419  24.148   6.626
 5716POPC   C3A71717  20.488  24.409   7.010
 5716POPC   C4A71718  20.492  24.287   7.491
 5716POPC   C1B71719  20.925  24.380   6.219
 5716POPC   C2B71720  21.067  24.234   6.625
 5716POPC   C3B71721  20.980  24.323   7.079
 5716POPC   C4B71722  20.759  24.678   7.351
 5717POPC   NC371723  43.722  18.668   5.345
 5717POPC   PO471724  44.178  18.239   5.515
 5717POPC   GL171725  43.957  18.236   5.839
 5717POPC   GL271726  43.946  18.589   5.821
 5717POPC   C1A71727  44.104  18.215   6.239
 5717POPC   D2A71728  43.984  18.181   6.653
 5717POPC   C3A71729  43.883  18.474   6.975
 5717POPC   C4A71730  44.131  18.327   7.330
 5717POPC   C1B71731  43.734  18.559   6.214
 5717POPC   C2B71732  43.528  18.372   6.556
 5717POPC   C3B71733  43.256  18.436   6.871
 5717POPC   C4B71734  43.349  18.410   7.291
 5718POPC   NC371735  15.175   8.467   5.498
 5718POPC   PO471736  15.132   7.743   5.429
 5718POPC   GL171737  15.299   8.033   5.740
 5718POPC   GL271738  14.937   8.129   5.817
 5718POPC   C1A71739  15.416   8.298   6.119
 5718POPC   D2A71740  15.200   8.463   6.474
 5718POPC   C3A71741  15.329   8.266   6.846
 5718POPC   C4A71742  15.170   8.287   7.213
 5718POPC   C1B71743  15.054   7.959   6.210
 5718POPC   C2B71744  14.948   8.033   6.614
 5718POPC   C3B71745  15.051   7.848   6.971
 5718POPC   C4B71746  14.897   7.857   7.369
 5719POPC   NC371747  36.048  42.862   5.433
 5719POPC   PO471748  36.382  43.471   5.373
 5719POPC   GL171749  36.281  43.254   5.769
 5719POPC   GL271750  36.405  42.905   5.783
 5719POPC   C1A71751  36.099  43.326   6.201
 5719POPC   D2A71752  35.951  43.445   6.634
 5719POPC   C3A71753  36.141  43.293   7.038
 5719POPC   C4A71754  35.940  43.105   7.412
 5719POPC   C1B71755  36.174  42.812   6.197
 5719POPC   C2B71756  35.933  42.919   6.612
 5719POPC   C3B71757  36.067  42.772   7.045
 5719POPC   C4B71758  36.390  42.800   7.406
 5720POPC   NC371759  21.330  11.693   5.473
 5720POPC   PO471760  21.672  12.232   5.439
 5720POPC   GL171761  21.677  12.057   5.846
 5720POPC   GL271762  21.714  11.681   5.816
 5720POPC   C1A71763  21.477  12.277   6.236
 5720POPC   D2A71764  21.126  12.135   6.546
 5720POPC   C3A71765  21.209  11.888   6.921
 5720POPC   C4A71766  21.441  12.175   7.167
 5720POPC   C1B71767  21.510  11.770   6.232
 5720POPC   C2B71768  21.638  11.951   6.617
 5720POPC   C3B71769  21.735  11.764   6.983
 5720POPC   C4B71770  21.599  11.705   7.363
 5721POPC   NC371771  44.756  15.450   5.320
 5721POPC   PO471772  44.252  15.175   5.249
 5721POPC   GL171773  44.557  15.115   5.682
 5721POPC   GL271774  44.946  15.181   5.727
 5721POPC   C1A71775  44.708  15.009   6.148
 5721POPC   D2A71776  44.609  14.840   6.559
 5721POPC   C3A71777  44.607  15.120   6.895
 5721POPC   C4A71778  44.588  14.998   7.286
 5721POPC   C1B71779   0.149  15.268   6.159
 5721POPC   C2B71780   0.016  15.173   6.600
 5721POPC   C3B71781   0.073  14.932   6.996
 5721POPC   C4B71782   0.114  14.895   7.457
 5722POPC   NC371783  34.503   5.259   5.536
 5722POPC   PO471784  34.928   4.750   5.664
 5722POPC   GL171785  34.711   5.009   5.947
 5722POPC   GL271786  34.354   4.983   5.948
 5722POPC   C1A71787  34.702   5.376   6.212
 5722POPC   D2A71788  34.542   5.451   6.639
 5722POPC   C3A71789  34.739   5.130   6.912
 5722POPC   C4A71790  34.737   5.004   7.321
 5722POPC   C1B71791  34.193   4.750   6.302
 5722POPC   C2B71792  34.393   4.783   6.727
 5722POPC   C3B71793  34.234   4.827   7.150
 5722POPC   C4B71794  34.328   4.855   7.585
 5723POPC   NC371795  17.235  21.263   5.408
 5723POPC   PO471796  17.657  21.767   5.431
 5723POPC   GL171797  17.389  21.639   5.805
 5723POPC   GL271798  17.467  21.282   5.863
 5723POPC   C1A71799  17.434  21.644   6.273
 5723POPC   D2A71800  17.497  21.880   6.693
 5723POPC   C3A71801  17.708  21.590   6.972
 5723POPC   C4A71802  17.351  21.385   7.075
 5723POPC   C1B71803  17.129  21.212   6.166
 5723POPC   C2B71804  17.264  21.066   6.583
 5723POPC   C3B71805  17.199  20.913   7.008
 5723POPC   C4B71806  17.276  21.109   7.488
 5724POPC   NC371807  39.613   5.828   5.432
 5724POPC   PO471808  40.293   5.607   5.506
 5724POPC   GL171809  39.967   5.799   5.801
 5724POPC   GL271810  39.687   5.583   5.884
 5724POPC   C1A71811  39.790   6.015   6.182
 5724POPC   D2A71812  39.786   6.281   6.591
 5724POPC   C3A71813  39.689   6.156   7.016
 5724POPC   C4A71814  39.999   6.090   7.364
 5724POPC   C1B71815  39.729   5.500   6.315
 5724POPC   C2B71816  39.904   5.768   6.623
 5724POPC   C3B71817  39.981   5.737   7.023
 5724POPC   C4B71818  39.748   5.611   7.393
 5725POPC   NC371819  35.851  15.787   5.438
 5725POPC   PO471820  36.358  16.101   5.538
 5725POPC   GL171821  36.126  15.969   5.860
 5725POPC   GL271822  35.811  16.095   5.843
 5725POPC   C1A71823  36.152  16.074   6.281
 5725POPC   D2A71824  36.257  15.800   6.599
 5725POPC   C3A71825  36.243  15.973   6.986
 5725POPC   C4A71826  36.229  15.884   7.412
 5725POPC   C1B71827  35.674  15.916   6.243
 5725POPC   C2B71828  35.770  15.980   6.689
 5725POPC   C3B71829  35.750  15.888   7.139
 5725POPC   C4B71830  35.782  16.103   7.555
 5726POPC   NC371831  27.030  10.677   5.115
 5726POPC   PO471832  26.439  10.314   5.386
 5726POPC   GL171833  26.681  10.482   5.754
 5726POPC   GL271834  26.627  10.151   5.877
 5726POPC   C1A71835  26.919  10.640   6.158
 5726POPC   D2A71836  27.107  10.894   6.510
 5726POPC   C3A71837  27.008  10.742   6.894
 5726POPC   C4A71838  26.984  10.594   7.297
 5726POPC   C1B71839  26.534  10.229   6.258
 5726POPC   C2B71840  26.675  10.367   6.622
 5726POPC   C3B71841  26.499  10.178   6.968
 5726POPC   C4B71842  26.618  10.215   7.351
 5727POPC   NC371843  39.220  33.922   5.605
 5727POPC   PO471844  38.801  33.428   5.514
 5727POPC   GL171845  38.834  33.727   5.885
 5727POPC   GL271846  38.852  34.133   5.875
 5727POPC   C1A71847  39.087  33.698   6.243
 5727POPC   D2A71848  39.374  33.591   6.557
 5727POPC   C3A71849  39.169  33.732   6.894
 5727POPC   C4A71850  39.098  33.601   7.240
 5727POPC   C1B71851  39.096  34.236   6.219
 5727POPC   C2B71852  39.266  34.118   6.590
 5727POPC   C3B71853  39.312  34.222   7.014
 5727POPC   C4B71854  39.096  34.088   7.409
 5728POPC   NC371855  10.512  10.568   5.293
 5728POPC   PO471856  11.016  10.359   5.650
 5728POPC   GL171857  10.568  10.305   5.749
 5728POPC   GL271858  10.307  10.584   5.748
 5728POPC   C1A71859  10.546  10.231   6.178
 5728POPC   D2A71860  10.795  10.400   6.492
 5728POPC   C3A71861  10.639  10.357   6.879
 5728POPC   C4A71862  10.773  10.616   7.235
 5728POPC   C1B71863  10.118  10.480   6.128
 5728POPC   C2B71864  10.237  10.510   6.544
 5728POPC   C3B71865  10.132  10.435   6.959
 5728POPC   C4B71866  10.344  10.160   7.263
 5729POPC   NC371867  41.777  23.264   5.478
 5729POPC   PO471868  41.249  22.838   5.313
 5729POPC   GL171869  41.393  22.888   5.722
 5729POPC   GL271870  41.718  22.735   5.799
 5729POPC   C1A71871  41.455  23.056   6.130
 5729POPC   D2A71872  41.485  22.929   6.563
 5729POPC   C3A71873  41.592  23.172   6.926
 5729POPC   C4A71874  41.439  23.103   7.335
 5729POPC   C1B71875  41.915  22.788   6.242
 5729POPC   C2B71876  41.955  22.787   6.716
 5729POPC   C3B71877  41.992  22.953   7.171
 5729POPC   C4B71878  41.820  22.918   7.613
 5730POPC   NC371879  29.814  37.284   5.406
 5730POPC   PO471880  30.090  36.656   5.370
 5730POPC   GL171881  29.962  36.828   5.789
 5730POPC   GL271882  29.685  36.646   5.961
 5730POPC   C1A71883  29.989  36.912   6.252
 5730POPC   D2A71884  29.932  36.781   6.687
 5730POPC   C3A71885  29.886  37.056   7.038
 5730POPC   C4A71886  29.988  36.751   7.307
 5730POPC   C1B71887  29.847  36.434   6.325
 5730POPC   C2B71888  29.621  36.311   6.687
 5730POPC   C3B71889  29.617  36.410   7.117
 5730POPC   C4B71890  29.517  36.659   7.463
 5731POPC   NC371891  17.937  16.211   5.570
 5731POPC   PO471892  18.478  15.774   5.450
 5731POPC   GL171893  18.407  16.016   5.817
 5731POPC   GL271894  18.207  15.752   5.902
 5731POPC   C1A71895  18.584  16.003   6.249
 5731POPC   D2A71896  18.439  15.771   6.637
 5731POPC   C3A71897  18.364  15.974   7.060
 5731POPC   C4A71898  18.506  16.284   7.417
 5731POPC   C1B71899  18.081  16.006   6.232
 5731POPC   C2B71900  18.035  16.070   6.649
 5731POPC   C3B71901  17.850  15.995   7.025
 5731POPC   C4B71902  18.008  16.170   7.398
 5732POPC   NC371903  10.292  27.261   5.590
 5732POPC   PO471904  10.760  27.780   5.752
 5732POPC   GL171905  10.533  27.540   5.955
 5732POPC   GL271906  10.748  27.260   5.864
 5732POPC   C1A71907  10.195  27.648   6.208
 5732POPC   D2A71908  10.194  27.827   6.613
 5732POPC   C3A71909  10.446  27.729   6.944
 5732POPC   C4A71910  10.374  27.781   7.396
 5732POPC   C1B71911  10.473  27.093   6.208
 5732POPC   C2B71912  10.434  27.349   6.551
 5732POPC   C3B71913  10.393  27.238   6.957
 5732POPC   C4B71914  10.644  27.374   7.266
 5733POPC   NC371915  12.938  10.245   5.337
 5733POPC   PO471916  12.599  10.831   5.212
 5733POPC   GL171917  12.625  10.632   5.628
 5733POPC   GL271918  12.552  10.254   5.729
 5733POPC   C1A71919  12.694  10.762   6.054
 5733POPC   D2A71920  12.615  10.801   6.509
 5733POPC   C3A71921  12.949  10.825   6.830
 5733POPC   C4A71922  12.907  10.630   7.219
 5733POPC   C1B71923  12.517  10.319   6.208
 5733POPC   C2B71924  12.703  10.304   6.653
 5733POPC   C3B71925  12.520  10.349   7.070
 5733POPC   C4B71926  12.642  10.305   7.511
 5734POPC   NC371927  15.276  34.960   5.575
 5734POPC   PO471928  14.892  35.392   5.373
 5734POPC   GL171929  15.136  35.415   5.770
 5734POPC   GL271930  15.085  35.120   5.994
 5734POPC   C1A71931  15.448  35.457   6.112
 5734POPC   D2A71932  15.402  35.653   6.511
 5734POPC   C3A71933  15.344  35.515   6.945
 5734POPC   C4A71934  15.041  35.625   7.247
 5734POPC   C1B71935  14.819  35.237   6.296
 5734POPC   C2B71936  14.931  35.349   6.687
 5734POPC   C3B71937  14.793  35.220   7.073
 5734POPC   C4B71938  15.057  35.007   7.279
 5735POPC   NC371939  38.870   7.948   5.461
 5735POPC   PO471940  39.512   8.132   5.265
 5735POPC   GL171941  39.350   8.269   5.717
 5735POPC   GL271942  39.164   7.991   5.873
 5735POPC   C1A71943  39.399   8.307   6.224
 5735POPC   D2A71944  39.588   8.328   6.699
 5735POPC   C3A71945  39.326   8.276   7.109
 5735POPC   C4A71946  39.246   8.491   7.515
 5735POPC   C1B71947  38.936   8.060   6.241
 5735POPC   C2B71948  39.095   8.157   6.634
 5735POPC   C3B71949  38.861   8.301   6.939
 5735POPC   C4B71950  38.836   8.236   7.381
 5736POPC   NC371951  34.406  36.540   5.405
 5736POPC   PO471952  34.414  35.901   5.421
 5736POPC   GL171953  34.391  36.120   5.826
 5736POPC   GL271954  34.499  36.439   5.901
 5736POPC   C1A71955  34.171  36.056   6.252
 5736POPC   D2A71956  34.119  35.824   6.683
 5736POPC   C3A71957  34.258  36.062   7.037
 5736POPC   C4A71958  34.521  36.402   7.140
 5736POPC   C1B71959  34.669  36.215   6.264
 5736POPC   C2B71960  34.727  36.269   6.697
 5736POPC   C3B71961  34.979  36.177   7.079
 5736POPC   C4B71962  35.031  36.267   7.517
 5737POPC   NC371963  14.303  27.259   5.463
 5737POPC   PO471964  14.353  27.880   5.367
 5737POPC   GL171965  14.229  27.849   5.803
 5737POPC   GL271966  14.388  27.543   5.865
 5737POPC   C1A71967  14.144  27.679   6.265
 5737POPC   D2A71968  14.403  27.727   6.651
 5737POPC   C3A71969  14.246  27.771   7.068
 5737POPC   C4A71970  14.003  27.493   7.299
 5737POPC   C1B71971  14.664  27.673   6.205
 5737POPC   C2B71972  14.928  27.601   6.566
 5737POPC   C3B71973  14.864  27.493   6.984
 5737POPC   C4B71974  14.687  27.606   7.356
 5738POPC   NC371975  38.927  41.066   5.385
 5738POPC   PO471976  39.565  40.965   5.544
 5738POPC   GL171977  39.197  40.816   5.791
 5738POPC   GL271978  39.287  40.467   5.792
 5738POPC   C1A71979  39.033  40.881   6.245
 5738POPC   D2A71980  39.236  40.986   6.671
 5738POPC   C3A71981  38.939  40.952   7.013
 5738POPC   C4A71982  38.891  40.607   7.311
 5738POPC   C1B71983  39.488  40.632   6.179
 5738POPC   C2B71984  39.495  40.412   6.563
 5738POPC   C3B71985  39.306  40.403   6.967
 5738POPC   C4B71986  39.381  40.778   7.147
 5739POPC   NC371987   5.347  27.971   5.376
 5739POPC   PO471988   5.048  28.485   5.340
 5739POPC   GL171989   5.143  28.555   5.779
 5739POPC   GL271990   5.459  28.798   5.780
 5739POPC   C1A71991   4.966  28.347   6.164
 5739POPC   D2A71992   4.803  28.438   6.568
 5739POPC   C3A71993   4.933  28.263   6.932
 5739POPC   C4A71994   5.193  28.332   7.244
 5739POPC   C1B71995   5.392  28.627   6.210
 5739POPC   C2B71996   5.319  28.452   6.585
 5739POPC   C3B71997   5.530  28.535   6.935
 5739POPC   C4B71998   5.656  28.608   7.347
 5740POPC   NC371999   5.654  21.490   5.299
 5740POPC   PO472000   6.044  20.986   5.342
 5740POPC   GL172001   5.878  21.218   5.713
 5740POPC   GL272002   5.853  21.585   5.753
 5740POPC   C1A72003   6.017  21.254   6.151
 5740POPC   D2A72004   6.112  21.481   6.527
 5740POPC   C3A72005   6.147  21.223   6.876
 5740POPC   C4A72006   5.889  21.284   7.183
 5740POPC   C1B72007   5.834  21.759   6.166
 5740POPC   C2B72008   5.639  21.735   6.560
 5740POPC   C3B72009   5.538  21.557   6.929
 5740POPC   C4B72010   5.438  21.640   7.303
 5741POPC   NC372011  17.781  19.239   5.453
 5741POPC   PO472012  17.120  19.267   5.455
 5741POPC   GL172013  17.378  19.144   5.834
 5741POPC   GL272014  17.710  18.932   5.886
 5741POPC   C1A72015  17.392  19.086   6.302
 5741POPC   D2A72016  17.464  18.870   6.701
 5741POPC   C3A72017  17.189  19.015   7.053
 5741POPC   C4A72018  17.269  19.178   7.464
 5741POPC   C1B72019  17.881  18.920   6.341
 5741POPC   C2B72020  17.849  19.211   6.713
 5741POPC   C3B72021  17.705  19.050   7.119
 5741POPC   C4B72022  17.652  18.870   7.521
 5742POPC   NC372023  31.982  31.805   5.311
 5742POPC   PO472024  32.445  31.381   5.395
 5742POPC   GL172025  32.305  31.464   5.823
 5742POPC   GL272026  32.266  31.770   5.738
 5742POPC   C1A72027  32.194  31.382   6.284
 5742POPC   D2A72028  31.962  31.439   6.680
 5742POPC   C3A72029  32.117  31.338   7.113
 5742POPC   C4A72030  32.017  31.519   7.539
 5742POPC   C1B72031  32.077  31.854   6.124
 5742POPC   C2B72032  32.212  31.874   6.549
 5742POPC   C3B72033  32.283  31.789   6.977
 5742POPC   C4B72034  32.113  31.979   7.352
 5743POPC   NC372035  21.117  10.293   5.527
 5743POPC   PO472036  21.775  10.487   5.413
 5743POPC   GL172037  21.482  10.612   5.727
 5743POPC   GL272038  21.550  10.317   5.908
 5743POPC   C1A72039  21.451  10.777   6.153
 5743POPC   D2A72040  21.303  10.991   6.546
 5743POPC   C3A72041  21.289  10.699   6.886
 5743POPC   C4A72042  21.568  10.802   7.227
 5743POPC   C1B72043  21.388  10.303   6.339
 5743POPC   C2B72044  21.024  10.267   6.620
 5743POPC   C3B72045  21.081  10.185   7.041
 5743POPC   C4B72046  21.499  10.298   7.198
 5744POPC   NC372047  15.800  25.750   5.536
 5744POPC   PO472048  16.313  26.192   5.310
 5744POPC   GL172049  16.056  26.142   5.750
 5744POPC   GL272050  16.077  25.861   5.987
 5744POPC   C1A72051  15.860  26.324   6.151
 5744POPC   D2A72052  15.926  26.182   6.585
 5744POPC   C3A72053  15.719  26.351   6.958
 5744POPC   C4A72054  15.808  26.214   7.392
 5744POPC   C1B72055  15.674  25.867   6.205
 5744POPC   C2B72056  15.483  25.821   6.604
 5744POPC   C3B72057  15.631  25.839   7.025
 5744POPC   C4B72058  15.426  25.855   7.433
 5745POPC   NC372059  22.549   2.058   5.465
 5745POPC   PO472060  21.894   1.853   5.587
 5745POPC   GL172061  22.152   1.917   5.929
 5745POPC   GL272062  22.361   2.207   5.912
 5745POPC   C1A72063  22.068   1.874   6.354
 5745POPC   D2A72064  21.792   1.990   6.646
 5745POPC   C3A72065  21.973   1.888   7.010
 5745POPC   C4A72066  22.315   1.967   7.238
 5745POPC   C1B72067  22.529   2.073   6.292
 5745POPC   C2B72068  22.397   2.073   6.722
 5745POPC   C3B72069  22.584   2.314   7.032
 5745POPC   C4B72070  22.477   2.727   7.095
 5746POPC   NC372071  25.097  43.444   5.372
 5746POPC   PO472072  25.456  42.805   5.281
 5746POPC   GL172073  25.243  43.012   5.586
 5746POPC   GL272074  25.426  43.277   5.762
 5746POPC   C1A72075  25.137  42.881   5.975
 5746POPC   D2A72076  25.275  42.902   6.378
 5746POPC   C3A72077  25.069  42.857   6.755
 5746POPC   C4A72078  25.186  42.877   7.179
 5746POPC   C1B72079  25.372  43.427   6.226
 5746POPC   C2B72080  25.277  43.418   6.703
 5746POPC   C3B72081  25.412  43.371   7.153
 5746POPC   C4B72082  25.403  43.426   7.639
 5747POPC   NC372083  10.173  36.771   5.546
 5747POPC   PO472084   9.515  37.075   5.391
 5747POPC   GL172085   9.712  37.032   5.786
 5747POPC   GL272086   9.960  37.290   5.838
 5747POPC   C1A72087   9.526  36.841   6.167
 5747POPC   D2A72088   9.699  36.752   6.585
 5747POPC   C3A72089   9.550  36.901   6.975
 5747POPC   C4A72090   9.567  36.604   7.312
 5747POPC   C1B72091   9.979  37.073   6.269
 5747POPC   C2B72092  10.031  37.127   6.741
 5747POPC   C3B72093  10.005  36.949   7.193
 5747POPC   C4B72094  10.049  37.023   7.663
 5748POPC   NC372095   5.765  22.685   5.671
 5748POPC   PO472096   6.316  22.929   5.406
 5748POPC   GL172097   6.120  23.096   5.810
 5748POPC   GL272098   5.813  23.184   5.866
 5748POPC   C1A72099   6.092  22.917   6.253
 5748POPC   D2A72100   5.838  22.695   6.577
 5748POPC   C3A72101   5.826  22.892   6.996
 5748POPC   C4A72102   5.875  23.121   7.410
 5748POPC   C1B72103   5.621  23.121   6.294
 5748POPC   C2B72104   5.405  23.348   6.651
 5748POPC   C3B72105   5.519  23.319   7.084
 5748POPC   C4B72106   5.419  22.918   7.301
 5749POPC   NC372107  35.224  27.499   5.463
 5749POPC   PO472108  35.684  27.974   5.383
 5749POPC   GL172109  35.618  27.657   5.773
 5749POPC   GL272110  35.380  27.408   5.936
 5749POPC   C1A72111  35.693  27.640   6.247
 5749POPC   D2A72112  35.491  27.706   6.670
 5749POPC   C3A72113  35.375  27.607   7.121
 5749POPC   C4A72114  35.651  27.351   7.374
 5749POPC   C1B72115  35.173  27.509   6.324
 5749POPC   C2B72116  35.015  27.242   6.652
 5749POPC   C3B72117  35.006  27.226   7.104
 5749POPC   C4B72118  35.178  27.265   7.506
 5750POPC   NC372119   7.670  28.384   5.521
 5750POPC   PO472120   7.354  27.898   5.170
 5750POPC   GL172121   7.164  28.150   5.554
 5750POPC   GL272122   7.220  28.450   5.796
 5750POPC   C1A72123   7.160  28.023   6.017
 5750POPC   D2A72124   7.348  28.159   6.416
 5750POPC   C3A72125   7.341  28.056   6.820
 5750POPC   C4A72126   7.442  28.046   7.239
 5750POPC   C1B72127   7.452  28.576   6.172
 5750POPC   C2B72128   7.361  28.634   6.651
 5750POPC   C3B72129   7.421  28.553   7.122
 5750POPC   C4B72130   7.672  28.504   7.520
 5751POPC   NC372131   7.805  22.755   5.402
 5751POPC   PO472132   7.147  22.849   5.250
 5751POPC   GL172133   7.312  22.826   5.705
 5751POPC   GL272134   7.548  22.558   5.796
 5751POPC   C1A72135   7.408  22.961   6.138
 5751POPC   D2A72136   7.274  23.004   6.556
 5751POPC   C3A72137   7.488  23.079   6.925
 5751POPC   C4A72138   7.246  23.090   7.273
 5751POPC   C1B72139   7.785  22.596   6.150
 5751POPC   C2B72140   7.850  22.848   6.523
 5751POPC   C3B72141   7.802  22.669   6.910
 5751POPC   C4B72142   7.561  22.678   7.289
 5752POPC   NC372143  33.316   4.105   4.975
 5752POPC   PO472144  32.662   4.117   5.092
 5752POPC   GL172145  32.979   4.178   5.491
 5752POPC   GL272146  33.078   3.952   5.795
 5752POPC   C1A72147  33.023   4.426   5.918
 5752POPC   D2A72148  33.123   4.611   6.332
 5752POPC   C3A72149  32.955   4.423   6.721
 5752POPC   C4A72150  33.036   4.444   7.168
 5752POPC   C1B72151  32.988   4.007   6.224
 5752POPC   C2B72152  33.312   3.980   6.544
 5752POPC   C3B72153  33.167   3.995   6.954
 5752POPC   C4B72154  32.729   4.051   7.063
 5753POPC   NC372155  20.920   5.553   5.533
 5753POPC   PO472156  20.521   6.207   5.367
 5753POPC   GL172157  20.640   6.087   5.790
 5753POPC   GL272158  20.560   5.745   5.861
 5753POPC   C1A72159  20.830   5.966   6.217
 5753POPC   D2A72160  20.597   5.813   6.568
 5753POPC   C3A72161  20.655   6.092   6.910
 5753POPC   C4A72162  20.665   5.908   7.300
 5753POPC   C1B72163  20.313   5.529   6.184
 5753POPC   C2B72164  20.342   5.339   6.618
 5753POPC   C3B72165  20.408   5.497   7.070
 5753POPC   C4B72166  20.537   5.452   7.520
 5754POPC   NC372167  41.353  20.238   5.508
 5754POPC   PO472168  41.779  20.745   5.492
 5754POPC   GL172169  41.477  20.747   5.851
 5754POPC   GL272170  41.513  20.405   5.969
 5754POPC   C1A72171  41.431  20.740   6.324
 5754POPC   D2A72172  41.682  20.511   6.619
 5754POPC   C3A72173  41.566  20.653   7.021
 5754POPC   C4A72174  41.214  20.846   7.232
 5754POPC   C1B72175  41.679  20.104   6.272
 5754POPC   C2B72176  41.898  20.023   6.664
 5754POPC   C3B72177  41.942  20.270   7.017
 5754POPC   C4B72178  41.687  20.315   7.395
 5755POPC   NC372179  28.763  44.261   5.323
 5755POPC   PO472180  29.086  43.630   5.303
 5755POPC   GL172181  28.890  43.866   5.638
 5755POPC   GL272182  28.873  43.576   5.807
 5755POPC   C1A72183  28.982  44.061   6.045
 5755POPC   D2A72184  28.986  44.102   6.508
 5755POPC   C3A72185  29.130  43.791   6.814
 5755POPC   C4A72186  29.262  43.948   7.200
 5755POPC   C1B72187  28.710  43.386   6.148
 5755POPC   C2B72188  28.870  43.407   6.554
 5755POPC   C3B72189  28.826  43.423   6.986
 5755POPC   C4B72190  28.949  43.590   7.369
 5756POPC   NC372191   5.870   0.080   5.135
 5756POPC   PO472192   5.992  44.524   5.507
 5756POPC   GL172193   6.138  44.401   5.910
 5756POPC   GL272194   5.947  44.128   5.898
 5756POPC   C1A72195   6.115  44.567   6.317
 5756POPC   D2A72196   5.886  44.963   6.405
 5756POPC   C3A72197   5.792  44.984   6.847
 5756POPC   C4A72198   5.880  44.987   7.272
 5756POPC   C1B72199   5.673  44.354   6.193
 5756POPC   C2B72200   5.617  44.549   6.611
 5756POPC   C3B72201   5.612  44.540   7.073
 5756POPC   C4B72202   5.999  44.455   7.216
 5757POPC   NC372203  22.732  43.442   5.260
 5757POPC   PO472204  23.147  42.959   5.418
 5757POPC   GL172205  23.138  42.941   5.840
 5757POPC   GL272206  23.283  42.625   5.811
 5757POPC   C1A72207  22.943  43.125   6.211
 5757POPC   D2A72208  23.003  43.363   6.584
 5757POPC   C3A72209  22.785  43.157   6.908
 5757POPC   C4A72210  22.643  43.014   7.289
 5757POPC   C1B72211  23.261  42.672   6.251
 5757POPC   C2B72212  23.118  42.853   6.626
 5757POPC   C3B72213  23.163  42.853   7.050
 5757POPC   C4B72214  23.131  42.866   7.470
 5758POPC   NC372215  33.302  22.155   5.558
 5758POPC   PO472216  33.843  22.474   5.209
 5758POPC   GL172217  33.811  22.219   5.634
 5758POPC   GL272218  34.089  22.024   5.758
 5758POPC   C1A72219  33.676  22.100   6.084
 5758POPC   D2A72220  33.692  22.315   6.475
 5758POPC   C3A72221  33.666  22.138   6.893
 5758POPC   C4A72222  33.615  22.280   7.267
 5758POPC   C1B72223  34.103  22.369   6.074
 5758POPC   C2B72224  34.257  22.330   6.479
 5758POPC   C3B72225  34.187  22.339   6.895
 5758POPC   C4B72226  34.080  22.078   7.215
 5759POPC   NC372227   1.317  30.966   5.363
 5759POPC   PO472228   0.814  30.545   5.617
 5759POPC   GL172229   1.030  30.503   5.930
 5759POPC   GL272230   1.297  30.731   5.853
 5759POPC   C1A72231   1.198  30.513   6.313
 5759POPC   D2A72232   1.146  30.814   6.615
 5759POPC   C3A72233   1.219  30.648   7.009
 5759POPC   C4A72234   1.007  30.316   7.216
 5759POPC   C1B72235   1.531  30.876   6.205
 5759POPC   C2B72236   1.680  30.813   6.630
 5759POPC   C3B72237   1.484  31.087   6.922
 5759POPC   C4B72238   1.357  31.069   7.321
 5760POPC   NC372239  16.644  25.767   5.343
 5760POPC   PO472240  17.062  26.272   5.296
 5760POPC   GL172241  16.926  26.106   5.685
 5760POPC   GL272242  16.567  26.085   5.757
 5760POPC   C1A72243  16.969  26.182   6.137
 5760POPC   D2A72244  16.864  26.240   6.605
 5760POPC   C3A72245  16.667  26.015   6.925
 5760POPC   C4A72246  16.844  26.118   7.294
 5760POPC   C1B72247  16.458  26.130   6.212
 5760POPC   C2B72248  16.327  25.866   6.575
 5760POPC   C3B72249  16.150  25.951   7.012
 5760POPC   C4B72250  16.330  26.205   7.355
 5761POPC   NC372251  23.296  11.624   5.434
 5761POPC   PO472252  23.110  10.965   5.368
 5761POPC   GL172253  23.116  11.190   5.780
 5761POPC   GL272254  23.441  11.215   5.721
 5761POPC   C1A72255  23.029  11.432   6.179
 5761POPC   D2A72256  23.210  11.613   6.557
 5761POPC   C3A72257  23.024  11.417   6.921
 5761POPC   C4A72258  22.980  11.590   7.330
 5761POPC   C1B72259  23.484  11.152   6.162
 5761POPC   C2B72260  23.238  11.069   6.512
 5761POPC   C3B72261  23.316  10.978   6.933
 5761POPC   C4B72262  23.219  10.836   7.339
 5762POPC   NC372263  18.130  18.526   5.016
 5762POPC   PO472264  18.560  18.264   5.460
 5762POPC   GL172265  18.440  18.459   5.793
 5762POPC   GL272266  18.085  18.527   5.706
 5762POPC   C1A72267  18.482  18.246   6.206
 5762POPC   D2A72268  18.605  18.131   6.603
 5762POPC   C3A72269  18.393  18.327   6.929
 5762POPC   C4A72270  18.234  18.113   7.273
 5762POPC   C1B72271  18.006  18.443   6.150
 5762POPC   C2B72272  18.081  18.183   6.530
 5762POPC   C3B72273  17.882  18.224   6.934
 5762POPC   C4B72274  17.932  18.545   7.255
 5763POPC   NC372275  44.082   7.691   5.322
 5763POPC   PO472276  43.523   7.245   5.475
 5763POPC   GL172277  43.734   7.409   5.802
 5763POPC   GL272278  44.086   7.370   5.804
 5763POPC   C1A72279  43.805   7.284   6.240
 5763POPC   D2A72280  43.889   7.221   6.667
 5763POPC   C3A72281  43.724   7.534   6.978
 5763POPC   C4A72282  43.729   7.481   7.456
 5763POPC   C1B72283  44.294   7.490   6.191
 5763POPC   C2B72284  44.451   7.542   6.587
 5763POPC   C3B72285  44.260   7.426   6.931
 5763POPC   C4B72286  44.150   7.622   7.269
 5764POPC   NC372287  16.192   9.958   5.354
 5764POPC   PO472288  15.865   9.406   5.482
 5764POPC   GL172289  15.930   9.776   5.769
 5764POPC   GL272290  15.745   9.603   6.016
 5764POPC   C1A72291  15.995   9.995   6.186
 5764POPC   D2A72292  15.993   9.839   6.606
 5764POPC   C3A72293  16.028  10.069   7.009
 5764POPC   C4A72294  15.906   9.700   7.273
 5764POPC   C1B72295  15.660   9.326   6.341
 5764POPC   C2B72296  15.704   9.378   6.755
 5764POPC   C3B72297  15.482   9.488   7.092
 5764POPC   C4B72298  15.559   9.439   7.577
 5765POPC   NC372299  41.239  10.430   5.392
 5765POPC   PO472300  41.854  10.800   5.308
 5765POPC   GL172301  41.649  10.686   5.734
 5765POPC   GL272302  41.520  10.342   5.823
 5765POPC   C1A72303  41.811  10.561   6.167
 5765POPC   D2A72304  41.731  10.490   6.598
 5765POPC   C3A72305  41.396  10.450   6.892
 5765POPC   C4A72306  41.667  10.521   7.248
 5765POPC   C1B72307  41.326  10.371   6.235
 5765POPC   C2B72308  41.042  10.260   6.557
 5765POPC   C3B72309  41.068  10.022   6.942
 5765POPC   C4B72310  41.223  10.154   7.327
 5766POPC   NC372311  33.902  33.745   5.098
 5766POPC   PO472312  33.462  33.374   5.457
 5766POPC   GL172313  33.779  33.470   5.768
 5766POPC   GL272314  33.997  33.780   5.698
 5766POPC   C1A72315  33.825  33.659   6.190
 5766POPC   D2A72316  33.807  33.898   6.587
 5766POPC   C3A72317  33.795  33.581   6.921
 5766POPC   C4A72318  33.736  33.526   7.359
 5766POPC   C1B72319  34.218  33.976   6.097
 5766POPC   C2B72320  34.283  34.079   6.579
 5766POPC   C3B72321  34.154  33.949   7.044
 5766POPC   C4B72322  34.105  33.818   7.510
 5767POPC   NC372323  22.598  33.869   5.519
 5767POPC   PO472324  23.147  33.591   5.312
 5767POPC   GL172325  22.981  33.599   5.730
 5767POPC   GL272326  23.000  33.946   5.842
 5767POPC   C1A72327  22.883  33.550   6.176
 5767POPC   D2A72328  23.070  33.326   6.497
 5767POPC   C3A72329  23.049  33.591   6.857
 5767POPC   C4A72330  23.084  33.508   7.273
 5767POPC   C1B72331  22.667  34.052   6.162
 5767POPC   C2B72332  22.681  34.238   6.570
 5767POPC   C3B72333  22.825  34.072   6.917
 5767POPC   C4B72334  22.932  34.216   7.300
 5768POPC   NC372335  41.772  19.384   5.200
 5768POPC   PO472336  41.298  19.762   5.510
 5768POPC   GL172337  41.549  19.508   5.752
 5768POPC   GL272338  41.260  19.551   6.013
 5768POPC   C1A72339  41.743  19.401   6.126
 5768POPC   D2A72340  41.604  19.639   6.475
 5768POPC   C3A72341  41.634  19.574   6.898
 5768POPC   C4A72342  41.737  19.832   7.218
 5768POPC   C1B72343  41.174  20.029   6.111
 5768POPC   C2B72344  41.242  20.259   6.518
 5768POPC   C3B72345  41.435  20.125   6.897
 5768POPC   C4B72346  41.252  20.071   7.291
 5769POPC   NC372347  30.040   3.957   5.652
 5769POPC   PO472348  29.918   4.598   5.550
 5769POPC   GL172349  29.748   4.344   5.849
 5769POPC   GL272350  30.063   4.337   6.018
 5769POPC   C1A72351  29.627   4.264   6.272
 5769POPC   D2A72352  29.784   4.097   6.649
 5769POPC   C3A72353  29.835   4.327   7.022
 5769POPC   C4A72354  30.059   4.525   7.362
 5769POPC   C1B72355  30.231   3.996   6.277
 5769POPC   C2B72356  30.462   3.899   6.649
 5769POPC   C3B72357  30.223   3.966   6.999
 5769POPC   C4B72358  30.391   4.115   7.348
 5770POPC   NC372359  34.721   1.896   5.391
 5770POPC   PO472360  34.189   1.690   5.477
 5770POPC   GL172361  34.425   2.064   5.767
 5770POPC   GL272362  34.811   2.148   5.830
 5770POPC   C1A72363  34.478   2.154   6.239
 5770POPC   D2A72364  34.359   2.021   6.670
 5770POPC   C3A72365  34.258   2.235   7.088
 5770POPC   C4A72366  34.196   2.042   7.513
 5770POPC   C1B72367  34.883   1.842   6.160
 5770POPC   C2B72368  34.900   1.943   6.604
 5770POPC   C3B72369  34.751   2.142   6.976
 5770POPC   C4B72370  34.954   2.410   7.199
 5771POPC   NC372371  42.603  33.549   5.540
 5771POPC   PO472372  42.219  34.006   5.610
 5771POPC   GL172373  42.378  33.784   5.966
 5771POPC   GL272374  42.425  33.425   5.988
 5771POPC   C1A72375  42.326  33.861   6.422
 5771POPC   D2A72376  42.337  34.172   6.755
 5771POPC   C3A72377  42.439  33.954   7.116
 5771POPC   C4A72378  42.208  33.577   7.205
 5771POPC   C1B72379  42.730  33.583   6.276
 5771POPC   C2B72380  42.724  33.663   6.697
 5771POPC   C3B72381  42.710  33.516   7.088
 5771POPC   C4B72382  42.620  33.638   7.522
 5772POPC   NC372383  19.230  10.934   5.543
 5772POPC   PO472384  19.347  11.686   5.460
 5772POPC   GL172385  19.176  11.375   5.837
 5772POPC   GL272386  19.306  11.028   6.029
 5772POPC   C1A72387  19.103  11.393   6.304
 5772POPC   D2A72388  19.052  11.155   6.676
 5772POPC   C3A72389  19.199  11.265   7.091
 5772POPC   C4A72390  19.138  11.456   7.491
 5772POPC   C1B72391  18.948  10.848   6.259
 5772POPC   C2B72392  18.792  10.695   6.677
 5772POPC   C3B72393  18.768  10.962   7.063
 5772POPC   C4B72394  18.913  11.023   7.473
 5773POPC   NC372395   6.885  24.909   5.400
 5773POPC   PO472396   6.506  25.494   5.469
 5773POPC   GL172397   6.555  25.301   5.858
 5773POPC   GL272398   6.428  24.958   5.866
 5773POPC   C1A72399   6.693  25.454   6.275
 5773POPC   D2A72400   6.963  25.550   6.640
 5773POPC   C3A72401   6.828  25.453   7.060
 5773POPC   C4A72402   6.946  25.434   7.485
 5773POPC   C1B72403   6.307  25.103   6.263
 5773POPC   C2B72404   6.460  25.196   6.645
 5773POPC   C3B72405   6.344  25.284   7.015
 5773POPC   C4B72406   6.544  25.116   7.334
 5774POPC   NC372407  23.649  10.231   5.304
 5774POPC   PO472408  24.026  10.554   5.609
 5774POPC   GL172409  23.750  10.378   5.854
 5774POPC   GL272410  23.450  10.532   5.768
 5774POPC   C1A72411  23.846  10.303   6.264
 5774POPC   D2A72412  24.043  10.431   6.657
 5774POPC   C3A72413  23.860  10.201   7.024
 5774POPC   C4A72414  23.835  10.464   7.422
 5774POPC   C1B72415  23.427  10.627   6.230
 5774POPC   C2B72416  23.522  10.433   6.641
 5774POPC   C3B72417  23.483  10.522   7.071
 5774POPC   C4B72418  23.304  10.343   7.476
 5775POPC   NC372419  40.586   5.993   5.531
 5775POPC   PO472420  41.240   5.926   5.459
 5775POPC   GL172421  40.998   5.782   5.820
 5775POPC   GL272422  40.768   5.499   5.703
 5775POPC   C1A72423  40.811   6.010   6.192
 5775POPC   D2A72424  40.860   6.219   6.614
 5775POPC   C3A72425  40.787   5.960   6.978
 5775POPC   C4A72426  40.436   5.826   7.245
 5775POPC   C1B72427  40.726   5.487   6.155
 5775POPC   C2B72428  40.757   5.645   6.568
 5775POPC   C3B72429  41.055   5.517   6.876
 5775POPC   C4B72430  40.860   5.524   7.236
 5776POPC   NC372431   9.648   4.813   5.618
 5776POPC   PO472432  10.034   5.331   5.441
 5776POPC   GL172433   9.755   5.284   5.801
 5776POPC   GL272434   9.491   5.493   5.645
 5776POPC   C1A72435   9.793   5.035   6.215
 5776POPC   D2A72436   9.953   4.831   6.591
 5776POPC   C3A72437   9.912   5.163   6.866
 5776POPC   C4A72438   9.717   5.106   7.244
 5776POPC   C1B72439   9.530   5.649   6.096
 5776POPC   C2B72440   9.596   5.496   6.511
 5776POPC   C3B72441   9.497   5.473   6.950
 5776POPC   C4B72442   9.799   5.602   7.277
 5777POPC   NC372443  13.398  24.896   5.362
 5777POPC   PO472444  13.636  24.316   5.439
 5777POPC   GL172445  13.758  24.425   5.828
 5777POPC   GL272446  13.864  24.753   5.797
 5777POPC   C1A72447  13.592  24.497   6.218
 5777POPC   D2A72448  13.482  24.200   6.520
 5777POPC   C3A72449  13.617  24.392   6.871
 5777POPC   C4A72450  13.511  24.378   7.283
 5777POPC   C1B72451  14.072  24.672   6.214
 5777POPC   C2B72452  13.980  24.684   6.672
 5777POPC   C3B72453  13.960  24.689   7.137
 5777POPC   C4B72454  13.906  24.929   7.541
 5778POPC   NC372455  26.387  26.265   5.485
 5778POPC   PO472456  26.020  25.721   5.551
 5778POPC   GL172457  26.162  25.918   5.828
 5778POPC   GL272458  26.504  25.849   5.781
 5778POPC   C1A72459  26.147  25.776   6.227
 5778POPC   D2A72460  25.961  25.965   6.558
 5778POPC   C3A72461  26.111  25.918   6.958
 5778POPC   C4A72462  25.915  26.136   7.301
 5778POPC   C1B72463  26.451  26.179   6.136
 5778POPC   C2B72464  26.336  26.377   6.524
 5778POPC   C3B72465  26.513  26.302   6.923
 5778POPC   C4B72466  26.436  26.133   7.297
 5779POPC   NC372467  16.504  38.331   5.339
 5779POPC   PO472468  16.651  38.980   5.515
 5779POPC   GL172469  16.614  38.564   5.790
 5779POPC   GL272470  16.761  38.177   5.772
 5779POPC   C1A72471  16.418  38.297   6.118
 5779POPC   D2A72472  16.554  38.175   6.527
 5779POPC   C3A72473  16.508  38.392   6.906
 5779POPC   C4A72474  16.421  38.185   7.272
 5779POPC   C1B72475  16.928  38.349   6.168
 5779POPC   C2B72476  16.877  38.568   6.545
 5779POPC   C3B72477  17.016  38.349   6.901
 5779POPC   C4B72478  16.862  38.476   7.269
 5780POPC   NC372479  12.608  39.163   5.321
 5780POPC   PO472480  13.116  38.894   5.118
 5780POPC   GL172481  13.018  39.149   5.613
 5780POPC   GL272482  12.658  39.160   5.807
 5780POPC   C1A72483  12.991  39.510   5.991
 5780POPC   D2A72484  12.793  39.679   6.407
 5780POPC   C3A72485  12.940  39.696   6.868
 5780POPC   C4A72486  12.803  39.611   7.315
 5780POPC   C1B72487  12.743  39.127   6.231
 5780POPC   C2B72488  12.887  38.977   6.635
 5780POPC   C3B72489  12.861  39.190   7.011
 5780POPC   C4B72490  12.580  39.152   7.334
 5781POPC   NC372491  42.036  15.228   5.350
 5781POPC   PO472492  42.586  14.814   5.543
 5781POPC   GL172493  42.429  15.097   5.816
 5781POPC   GL272494  42.079  15.035   5.807
 5781POPC   C1A72495  42.347  15.238   6.236
 5781POPC   D2A72496  42.235  15.275   6.670
 5781POPC   C3A72497  42.450  14.977   6.941
 5781POPC   C4A72498  42.719  15.186   7.253
 5781POPC   C1B72499  41.879  15.030   6.173
 5781POPC   C2B72500  42.034  14.845   6.534
 5781POPC   C3B72501  41.925  14.935   6.960
 5781POPC   C4B72502  42.124  15.275   7.181
 5782POPC   NC372503  33.727  14.342   5.201
 5782POPC   PO472504  33.342  14.448   5.796
 5782POPC   GL172505  33.717  14.508   6.037
 5782POPC   GL272506  34.053  14.377   5.923
 5782POPC   C1A72507  33.891  14.592   6.408
 5782POPC   D2A72508  34.024  14.803   6.767
 5782POPC   C3A72509  33.681  14.852   7.061
 5782POPC   C4A72510  33.714  14.611   7.430
 5782POPC   C1B72511  33.996  14.036   6.227
 5782POPC   C2B72512  33.795  14.137   6.598
 5782POPC   C3B72513  33.823  14.362   6.946
 5782POPC   C4B72514  33.823  14.155   7.305
 5783POPC   NC372515  25.858  33.567   5.104
 5783POPC   PO472516  26.216  34.036   5.485
 5783POPC   GL172517  26.058  33.948   5.866
 5783POPC   GL272518  25.761  34.147   5.818
 5783POPC   C1A72519  26.073  33.701   6.267
 5783POPC   D2A72520  26.276  33.605   6.654
 5783POPC   C3A72521  26.058  33.755   6.973
 5783POPC   C4A72522  25.679  33.568   7.145
 5783POPC   C1B72523  25.623  33.927   6.200
 5783POPC   C2B72524  25.643  33.797   6.632
 5783POPC   C3B72525  25.626  34.059   6.972
 5783POPC   C4B72526  25.848  34.025   7.335
 5784POPC   NC372527   2.075  42.793   5.515
 5784POPC   PO472528   1.788  42.175   5.523
 5784POPC   GL172529   1.794  42.375   5.896
 5784POPC   GL272530   2.148  42.432   5.913
 5784POPC   C1A72531   1.867  42.211   6.326
 5784POPC   D2A72532   1.692  42.037   6.718
 5784POPC   C3A72533   1.875  42.304   7.077
 5784POPC   C4A72534   1.871  42.780   7.153
 5784POPC   C1B72535   2.302  42.551   6.325
 5784POPC   C2B72536   2.197  42.612   6.765
 5784POPC   C3B72537   2.448  42.685   7.127
 5784POPC   C4B72538   2.647  42.489   7.482
 5785POPC   NC372539  15.919   0.208   5.410
 5785POPC   PO472540  15.442   0.710   5.419
 5785POPC   GL172541  15.568   0.621   5.837
 5785POPC   GL272542  15.754   0.286   5.885
 5785POPC   C1A72543  15.776   0.669   6.233
 5785POPC   D2A72544  15.799   0.490   6.658
 5785POPC   C3A72545  16.084   0.548   6.995
 5785POPC   C4A72546  15.879   0.225   7.147
 5785POPC   C1B72547  16.147   0.319   6.143
 5785POPC   C2B72548  16.307   0.380   6.560
 5785POPC   C3B72549  16.327   0.095   6.912
 5785POPC   C4B72550  16.360   0.196   7.340
 5786POPC   NC372551  35.301  44.575   5.325
 5786POPC   PO472552  35.873  44.427   5.618
 5786POPC   GL172553  35.617  44.741   5.793
 5786POPC   GL272554  35.260  44.811   5.765
 5786POPC   C1A72555  35.595  44.815   6.222
 5786POPC   D2A72556  35.538  44.554   6.601
 5786POPC   C3A72557  35.598  44.797   6.985
 5786POPC   C4A72558  35.364  44.771   7.347
 5786POPC   C1B72559  35.158  44.545   6.130
 5786POPC   C2B72560  35.049  44.722   6.533
 5786POPC   C3B72561  35.118  44.604   6.934
 5786POPC   C4B72562  35.025  44.371   7.310
 5787POPC   NC372563  23.476   9.465   5.515
 5787POPC   PO472564  23.982   9.913   5.298
 5787POPC   GL172565  23.773   9.888   5.692
 5787POPC   GL272566  23.426   9.966   5.722
 5787POPC   C1A72567  23.774   9.791   6.125
 5787POPC   D2A72568  23.640   9.921   6.536
 5787POPC   C3A72569  23.504   9.607   6.799
 5787POPC   C4A72570  23.775   9.690   7.136
 5787POPC   C1B72571  23.357  10.121   6.128
 5787POPC   C2B72572  23.154  10.099   6.536
 5787POPC   C3B72573  23.340  10.066   6.948
 5787POPC   C4B72574  23.299   9.796   7.241
 5788POPC   NC372575  10.386  24.445   5.314
 5788POPC   PO472576  11.011  24.674   5.200
 5788POPC   GL172577  10.495  24.753   5.671
 5788POPC   GL272578  10.305  24.406   5.806
 5788POPC   C1A72579  10.520  24.724   6.160
 5788POPC   D2A72580  10.808  24.495   6.512
 5788POPC   C3A72581  10.940  24.693   6.909
 5788POPC   C4A72582  10.626  24.731   7.241
 5788POPC   C1B72583  10.530  24.208   6.163
 5788POPC   C2B72584  10.466  24.126   6.602
 5788POPC   C3B72585  10.315  24.408   6.952
 5788POPC   C4B72586  10.366  24.340   7.406
 5789POPC   NC372587  13.113  14.515   5.566
 5789POPC   PO472588  12.772  13.959   5.414
 5789POPC   GL172589  12.683  14.264   5.727
 5789POPC   GL272590  12.499  14.076   5.905
 5789POPC   C1A72591  12.765  14.380   6.203
 5789POPC   D2A72592  13.089  14.398   6.548
 5789POPC   C3A72593  12.955  14.590   6.946
 5789POPC   C4A72594  12.870  14.402   7.330
 5789POPC   C1B72595  12.584  13.885   6.279
 5789POPC   C2B72596  12.564  13.989   6.716
 5789POPC   C3B72597  12.577  13.896   7.154
 5789POPC   C4B72598  12.447  14.157   7.511
 5790POPC   NC372599  21.138  25.048   5.344
 5790POPC   PO472600  21.158  25.659   5.434
 5790POPC   GL172601  21.320  25.311   5.741
 5790POPC   GL272602  21.141  25.005   5.847
 5790POPC   C1A72603  21.518  25.169   6.152
 5790POPC   D2A72604  21.746  25.116   6.546
 5790POPC   C3A72605  21.481  25.047   6.903
 5790POPC   C4A72606  21.292  25.348   7.200
 5790POPC   C1B72607  21.002  24.973   6.253
 5790POPC   C2B72608  21.045  24.830   6.670
 5790POPC   C3B72609  20.932  25.041   7.049
 5790POPC   C4B72610  21.049  25.044   7.534
 5791POPC   NC372611  20.652  23.637   5.103
 5791POPC   PO472612  20.345  23.912   5.630
 5791POPC   GL172613  20.490  23.678   5.924
 5791POPC   GL272614  20.362  23.374   5.789
 5791POPC   C1A72615  20.637  23.833   6.284
 5791POPC   D2A72616  20.860  23.632   6.561
 5791POPC   C3A72617  20.968  23.827   6.919
 5791POPC   C4A72618  20.640  23.918   7.177
 5791POPC   C1B72619  20.205  23.367   6.232
 5791POPC   C2B72620  20.314  23.544   6.632
 5791POPC   C3B72621  20.258  23.578   7.071
 5791POPC   C4B72622  20.179  23.308   7.408
 5792POPC   NC372623  38.546  27.950   5.478
 5792POPC   PO472624  38.472  28.570   5.257
 5792POPC   GL172625  38.420  28.339   5.725
 5792POPC   GL272626  38.761  28.223   5.841
 5792POPC   C1A72627  38.375  28.283   6.164
 5792POPC   D2A72628  38.246  28.208   6.573
 5792POPC   C3A72629  38.501  28.462   6.828
 5792POPC   C4A72630  38.512  28.436   7.228
 5792POPC   C1B72631  38.805  27.947   6.198
 5792POPC   C2B72632  38.734  28.086   6.569
 5792POPC   C3B72633  38.598  27.958   6.960
 5792POPC   C4B72634  38.787  27.986   7.340
 5793POPC   NC372635  36.839   7.040   5.418
 5793POPC   PO472636  37.004   7.682   5.311
 5793POPC   GL172637  36.876   7.558   5.772
 5793POPC   GL272638  36.863   7.198   5.895
 5793POPC   C1A72639  36.796   7.566   6.263
 5793POPC   D2A72640  36.561   7.756   6.652
 5793POPC   C3A72641  36.719   7.702   7.104
 5793POPC   C4A72642  37.024   7.683   7.477
 5793POPC   C1B72643  37.122   7.128   6.248
 5793POPC   C2B72644  37.157   7.199   6.675
 5793POPC   C3B72645  37.082   7.320   7.076
 5793POPC   C4B72646  36.792   7.053   7.187
 5794POPC   NC372647  27.529  20.838   5.511
 5794POPC   PO472648  27.416  21.465   5.275
 5794POPC   GL172649  27.422  21.317   5.719
 5794POPC   GL272650  27.187  21.045   5.844
 5794POPC   C1A72651  27.353  21.506   6.146
 5794POPC   D2A72652  27.433  21.732   6.534
 5794POPC   C3A72653  27.493  21.462   6.883
 5794POPC   C4A72654  27.374  21.309   7.277
 5794POPC   C1B72655  27.496  21.018   6.207
 5794POPC   C2B72656  27.581  20.965   6.680
 5794POPC   C3B72657  27.765  21.046   7.118
 5794POPC   C4B72658  27.900  21.131   7.565
 5795POPC   NC372659  21.337   9.343   5.749
 5795POPC   PO472660  21.880   9.059   5.516
 5795POPC   GL172661  21.730   8.779   5.864
 5795POPC   GL272662  21.374   8.867   5.931
 5795POPC   C1A72663  21.657   8.615   6.295
 5795POPC   D2A72664  21.386   8.803   6.630
 5795POPC   C3A72665  21.516   9.001   7.026
 5795POPC   C4A72666  21.253   9.311   7.239
 5795POPC   C1B72667  21.030   8.886   6.244
 5795POPC   C2B72668  20.927   8.571   6.567
 5795POPC   C3B72669  20.956   8.522   7.026
 5795POPC   C4B72670  21.316   8.587   7.271
 5796POPC   NC372671  28.151  22.547   5.534
 5796POPC   PO472672  28.319  21.851   5.464
 5796POPC   GL172673  28.444  22.091   5.853
 5796POPC   GL272674  28.762  21.875   5.896
 5796POPC   C1A72675  28.247  22.281   6.264
 5796POPC   D2A72676  28.469  22.455   6.667
 5796POPC   C3A72677  28.200  22.371   6.980
 5796POPC   C4A72678  28.117  21.948   7.097
 5796POPC   C1B72679  28.571  21.778   6.283
 5796POPC   C2B72680  28.405  21.932   6.662
 5796POPC   C3B72681  28.630  22.051   7.021
 5796POPC   C4B72682  28.660  22.419   7.217
 5797POPC   NC372683  36.035   8.923   5.229
 5797POPC   PO472684  36.513   9.257   5.658
 5797POPC   GL172685  36.124   9.081   5.748
 5797POPC   GL272686  36.162   8.720   5.757
 5797POPC   C1A72687  36.053   9.028   6.186
 5797POPC   D2A72688  36.225   8.982   6.591
 5797POPC   C3A72689  36.170   9.081   7.023
 5797POPC   C4A72690  36.357   8.694   7.196
 5797POPC   C1B72691  35.932   8.539   6.112
 5797POPC   C2B72692  35.740   8.741   6.474
 5797POPC   C3B72693  35.797   8.740   6.884
 5797POPC   C4B72694  35.863   8.628   7.283
 5798POPC   NC372695  42.327  42.508   5.126
 5798POPC   PO472696  42.003  42.118   5.469
 5798POPC   GL172697  42.189  42.252   5.859
 5798POPC   GL272698  42.498  42.273   6.004
 5798POPC   C1A72699  42.074  42.295   6.314
 5798POPC   D2A72700  42.321  42.453   6.659
 5798POPC   C3A72701  42.179  42.387   7.091
 5798POPC   C4A72702  42.134  42.511   7.529
 5798POPC   C1B72703  42.623  42.673   6.242
 5798POPC   C2B72704  42.713  42.803   6.673
 5798POPC   C3B72705  42.646  42.597   7.088
 5798POPC   C4B72706  42.638  42.781   7.525
 5799POPC   NC372707  28.227  37.998   5.272
 5799POPC   PO472708  28.638  37.483   5.419
 5799POPC   GL172709  28.391  37.756   5.697
 5799POPC   GL272710  28.032  37.818   5.708
 5799POPC   C1A72711  28.355  37.687   6.139
 5799POPC   D2A72712  28.526  37.623   6.536
 5799POPC   C3A72713  28.299  37.662   6.901
 5799POPC   C4A72714  28.425  37.759   7.311
 5799POPC   C1B72715  27.870  37.592   6.054
 5799POPC   C2B72716  27.950  37.727   6.478
 5799POPC   C3B72717  27.876  37.927   6.866
 5799POPC   C4B72718  27.900  37.743   7.259
 5800POPC   NC372719  16.289  13.185   5.395
 5800POPC   PO472720  16.945  12.944   5.346
 5800POPC   GL172721  16.784  12.859   5.768
 5800POPC   GL272722  16.469  12.776   5.639
 5800POPC   C1A72723  16.838  12.839   6.251
 5800POPC   D2A72724  16.681  12.560   6.627
 5800POPC   C3A72725  16.904  12.638   7.012
 5800POPC   C4A72726  16.960  13.071   7.161
 5800POPC   C1B72727  16.363  12.732   6.093
 5800POPC   C2B72728  16.379  12.949   6.492
 5800POPC   C3B72729  16.477  12.928   6.939
 5800POPC   C4B72730  16.497  13.305   7.120
 5801POPC   NC372731  14.647  23.632   5.363
 5801POPC   PO472732  15.295  23.754   5.368
 5801POPC   GL172733  15.179  23.904   5.780
 5801POPC   GL272734  14.790  23.992   5.756
 5801POPC   C1A72735  15.172  23.665   6.167
 5801POPC   D2A72736  14.992  23.378   6.459
 5801POPC   C3A72737  15.196  23.456   6.854
 5801POPC   C4A72738  15.370  23.806   7.086
 5801POPC   C1B72739  14.904  24.092   6.195
 5801POPC   C2B72740  14.980  23.905   6.608
 5801POPC   C3B72741  14.856  23.807   7.030
 5801POPC   C4B72742  14.927  23.995   7.496
 5802POPC   NC372743  21.955  10.174   5.123
 5802POPC   PO472744  22.424   9.774   5.368
 5802POPC   GL172745  22.402   9.683   5.818
 5802POPC   GL272746  22.049   9.688   5.883
 5802POPC   C1A72747  22.365   9.594   6.277
 5802POPC   D2A72748  22.143   9.790   6.629
 5802POPC   C3A72749  22.355   9.929   6.977
 5802POPC   C4A72750  22.550   9.676   7.281
 5802POPC   C1B72751  21.886   9.993   6.232
 5802POPC   C2B72752  21.664   9.992   6.653
 5802POPC   C3B72753  21.856   9.979   7.059
 5802POPC   C4B72754  22.031   9.673   7.290
 5803POPC   NC372755  18.573  16.248   5.400
 5803POPC   PO472756  19.245  15.975   5.335
 5803POPC   GL172757  19.016  16.002   5.764
 5803POPC   GL272758  18.811  15.698   5.847
 5803POPC   C1A72759  19.090  15.869   6.233
 5803POPC   D2A72760  19.406  15.651   6.511
 5803POPC   C3A72761  19.327  15.801   6.944
 5803POPC   C4A72762  19.120  16.187   7.055
 5803POPC   C1B72763  18.693  15.489   6.246
 5803POPC   C2B72764  18.837  15.485   6.701
 5803POPC   C3B72765  18.615  15.503   7.086
 5803POPC   C4B72766  18.798  15.871   7.307
 5804POPC   NC372767  11.694  38.839   5.563
 5804POPC   PO472768  12.154  39.174   5.186
 5804POPC   GL172769  12.121  39.263   5.655
 5804POPC   GL272770  12.166  38.939   5.780
 5804POPC   C1A72771  11.975  39.276   6.151
 5804POPC   D2A72772  11.851  39.132   6.626
 5804POPC   C3A72773  11.924  39.420   7.027
 5804POPC   C4A72774  11.841  39.445   7.515
 5804POPC   C1B72775  12.288  38.872   6.212
 5804POPC   C2B72776  12.368  39.133   6.577
 5804POPC   C3B72777  12.254  39.033   6.982
 5804POPC   C4B72778  12.035  39.001   7.383
 5805POPC   NC372779  17.555  10.925   5.326
 5805POPC   PO472780  17.451  11.658   5.265
 5805POPC   GL172781  17.538  11.445   5.672
 5805POPC   GL272782  17.434  11.108   5.799
 5805POPC   C1A72783  17.523  11.598   6.089
 5805POPC   D2A72784  17.632  11.703   6.511
 5805POPC   C3A72785  17.458  11.492   6.846
 5805POPC   C4A72786  17.290  11.341   7.215
 5805POPC   C1B72787  17.363  11.099   6.254
 5805POPC   C2B72788  17.420  10.990   6.699
 5805POPC   C3B72789  17.723  11.074   7.036
 5805POPC   C4B72790  17.723  11.121   7.469
 5806POPC   NC372791  42.589   3.408   5.490
 5806POPC   PO472792  42.379   3.976   5.284
 5806POPC   GL172793  42.192   3.781   5.721
 5806POPC   GL272794  42.156   3.417   5.754
 5806POPC   C1A72795  42.116   3.743   6.202
 5806POPC   D2A72796  42.406   3.457   6.484
 5806POPC   C3A72797  42.479   3.469   6.943
 5806POPC   C4A72798  42.493   3.548   7.409
 5806POPC   C1B72799  42.059   3.239   6.147
 5806POPC   C2B72800  41.915   3.240   6.567
 5806POPC   C3B72801  41.976   3.338   7.009
 5806POPC   C4B72802  42.266   3.119   7.306
 5807POPC   NC372803  30.588  18.066   4.889
 5807POPC   PO472804  30.758  18.428   5.483
 5807POPC   GL172805  30.588  18.357   5.893
 5807POPC   GL272806  30.550  18.005   5.773
 5807POPC   C1A72807  30.638  18.599   6.318
 5807POPC   D2A72808  30.501  18.606   6.778
 5807POPC   C3A72809  30.843  18.445   7.020
 5807POPC   C4A72810  31.092  18.667   7.271
 5807POPC   C1B72811  30.398  17.961   6.190
 5807POPC   C2B72812  30.546  18.141   6.558
 5807POPC   C3B72813  30.461  18.127   6.992
 5807POPC   C4B72814  30.657  18.089   7.414
 5808POPC   NC372815  16.346   7.249   5.359
 5808POPC   PO472816  16.992   7.567   5.266
 5808POPC   GL172817  16.817   7.404   5.713
 5808POPC   GL272818  16.465   7.476   5.813
 5808POPC   C1A72819  16.926   7.496   6.177
 5808POPC   D2A72820  17.074   7.557   6.616
 5808POPC   C3A72821  16.923   7.509   7.053
 5808POPC   C4A72822  16.863   7.731   7.471
 5808POPC   C1B72823  16.555   7.172   6.108
 5808POPC   C2B72824  16.660   7.232   6.536
 5808POPC   C3B72825  16.526   7.147   6.959
 5808POPC   C4B72826  16.536   7.313   7.353
 5809POPC   NC372827  37.911  33.035   5.144
 5809POPC   PO472828  38.518  32.670   5.404
 5809POPC   GL172829  38.485  32.919   5.778
 5809POPC   GL272830  38.772  32.834   5.944
 5809POPC   C1A72831  38.379  32.971   6.237
 5809POPC   D2A72832  38.489  33.179   6.632
 5809POPC   C3A72833  38.343  32.979   6.973
 5809POPC   C4A72834  38.406  33.010   7.379
 5809POPC   C1B72835  38.718  32.576   6.300
 5809POPC   C2B72836  38.717  32.717   6.717
 5809POPC   C3B72837  38.658  32.612   7.159
 5809POPC   C4B72838  38.760  32.722   7.613
 5810POPC   NC372839  36.372  24.086   5.379
 5810POPC   PO472840  35.948  23.535   5.505
 5810POPC   GL172841  36.003  23.678   5.914
 5810POPC   GL272842  36.054  23.988   5.778
 5810POPC   C1A72843  36.351  23.766   6.232
 5810POPC   D2A72844  36.513  23.597   6.622
 5810POPC   C3A72845  36.163  23.447   6.813
 5810POPC   C4A72846  36.146  23.496   7.231
 5810POPC   C1B72847  35.975  24.112   6.200
 5810POPC   C2B72848  36.003  23.885   6.590
 5810POPC   C3B72849  36.154  23.934   6.998
 5810POPC   C4B72850  36.052  24.048   7.438
 5811POPC   NC372851  35.692  40.375   5.747
 5811POPC   PO472852  35.181  40.023   5.499
 5811POPC   GL172853  35.363  39.978   5.870
 5811POPC   GL272854  35.548  39.707   5.842
 5811POPC   C1A72855  35.422  40.100   6.288
 5811POPC   D2A72856  35.219  40.198   6.675
 5811POPC   C3A72857  35.484  40.182   7.032
 5811POPC   C4A72858  35.278  40.060   7.416
 5811POPC   C1B72859  35.580  39.600   6.255
 5811POPC   C2B72860  35.534  39.776   6.657
 5811POPC   C3B72861  35.281  39.745   7.001
 5811POPC   C4B72862  35.371  39.558   7.410
 5812POPC   NC372863   4.790   9.166   5.088
 5812POPC   PO472864   4.318   8.822   5.504
 5812POPC   GL172865   4.139   9.102   5.795
 5812POPC   GL272866   3.925   8.787   5.868
 5812POPC   C1A72867   4.329   9.274   6.166
 5812POPC   D2A72868   4.494   9.051   6.526
 5812POPC   C3A72869   4.452   9.301   6.878
 5812POPC   C4A72870   4.332   9.196   7.292
 5812POPC   C1B72871   3.968   8.919   6.255
 5812POPC   C2B72872   3.997   9.123   6.605
 5812POPC   C3B72873   4.103   8.915   6.952
 5812POPC   C4B72874   3.980   8.643   7.271
 5813POPC   NC372875   2.480  12.761   5.476
 5813POPC   PO472876   3.052  12.405   5.574
 5813POPC   GL172877   2.743  12.613   5.896
 5813POPC   GL272878   2.626  12.957   5.943
 5813POPC   C1A72879   2.501  12.628   6.309
 5813POPC   D2A72880   2.701  12.543   6.716
 5813POPC   C3A72881   2.765  12.942   6.963
 5813POPC   C4A72882   2.585  13.172   7.267
 5813POPC   C1B72883   2.984  12.967   6.234
 5813POPC   C2B72884   3.202  12.883   6.641
 5813POPC   C3B72885   3.129  12.608   6.994
 5813POPC   C4B72886   2.978  12.682   7.418
 5814POPC   NC372887  11.223  17.512   5.378
 5814POPC   PO472888  10.774  18.023   5.407
 5814POPC   GL172889  11.130  17.835   5.757
 5814POPC   GL272890  11.381  17.462   5.835
 5814POPC   C1A72891  11.317  17.804   6.182
 5814POPC   D2A72892  11.370  17.526   6.516
 5814POPC   C3A72893  11.256  17.739   6.883
 5814POPC   C4A72894  11.452  17.715   7.282
 5814POPC   C1B72895  11.413  17.132   6.165
 5814POPC   C2B72896  11.532  17.024   6.581
 5814POPC   C3B72897  11.509  17.269   6.969
 5814POPC   C4B72898  11.376  17.188   7.393
 5815POPC   NC372899  24.876  29.742   5.505
 5815POPC   PO472900  25.406  30.161   5.579
 5815POPC   GL172901  25.268  29.866   5.843
 5815POPC   GL272902  24.984  30.046   5.916
 5815POPC   C1A72903  25.431  29.822   6.246
 5815POPC   D2A72904  25.136  29.714   6.581
 5815POPC   C3A72905  25.308  29.752   6.984
 5815POPC   C4A72906  25.649  29.635   7.250
 5815POPC   C1B72907  25.211  30.263   6.247
 5815POPC   C2B72908  25.349  30.190   6.697
 5815POPC   C3B72909  25.085  30.197   7.095
 5815POPC   C4B72910  25.049  30.191   7.548
 5816POPC   NC372911  20.387  28.549   5.355
 5816POPC   PO472912  20.813  28.139   5.482
 5816POPC   GL172913  20.447  28.249   5.792
 5816POPC   GL272914  20.194  28.572   5.814
 5816POPC   C1A72915  20.484  28.296   6.233
 5816POPC   D2A72916  20.681  28.351   6.643
 5816POPC   C3A72917  20.459  28.250   7.000
 5816POPC   C4A72918  20.614  28.139   7.388
 5816POPC   C1B72919  20.299  28.773   6.191
 5816POPC   C2B72920  20.228  28.611   6.601
 5816POPC   C3B72921  20.381  28.747   6.968
 5816POPC   C4B72922  20.483  28.633   7.375
 5817POPC   NC372923  26.609  34.307   5.459
 5817POPC   PO472924  27.281  34.527   5.437
 5817POPC   GL172925  27.035  34.382   5.814
 5817POPC   GL272926  26.744  34.594   5.862
 5817POPC   C1A72927  26.997  34.485   6.295
 5817POPC   D2A72928  27.170  34.624   6.731
 5817POPC   C3A72929  26.874  34.464   7.065
 5817POPC   C4A72930  26.817  34.390   7.514
 5817POPC   C1B72931  26.447  34.744   6.184
 5817POPC   C2B72932  26.294  34.611   6.604
 5817POPC   C3B72933  26.411  34.700   7.066
 5817POPC   C4B72934  26.341  34.638   7.536
 5818POPC   NC372935   4.683   9.161   5.599
 5818POPC   PO472936   5.273   8.837   5.310
 5818POPC   GL172937   5.166   9.028   5.698
 5818POPC   GL272938   5.443   9.171   5.839
 5818POPC   C1A72939   5.129   8.936   6.156
 5818POPC   D2A72940   5.407   8.923   6.508
 5818POPC   C3A72941   5.130   8.866   6.834
 5818POPC   C4A72942   4.778   8.958   7.085
 5818POPC   C1B72943   5.373   9.381   6.279
 5818POPC   C2B72944   5.392   9.368   6.773
 5818POPC   C3B72945   5.242   9.195   7.195
 5818POPC   C4B72946   5.392   9.185   7.638
 5819POPC   NC372947  40.391   5.156   5.393
 5819POPC   PO472948  41.119   5.039   5.354
 5819POPC   GL172949  40.963   4.890   5.741
 5819POPC   GL272950  40.643   5.005   5.805
 5819POPC   C1A72951  41.009   5.046   6.163
 5819POPC   D2A72952  40.864   5.151   6.560
 5819POPC   C3A72953  40.989   5.017   6.980
 5819POPC   C4A72954  40.970   4.774   7.374
 5819POPC   C1B72955  40.476   5.042   6.208
 5819POPC   C2B72956  40.396   4.960   6.626
 5819POPC   C3B72957  40.532   5.254   6.940
 5819POPC   C4B72958  40.600   5.096   7.328
 5820POPC   NC372959  15.135   2.328   5.359
 5820POPC   PO472960  15.224   1.675   5.566
 5820POPC   GL172961  15.249   1.885   5.895
 5820POPC   GL272962  14.979   2.087   5.787
 5820POPC   C1A72963  15.170   1.738   6.292
 5820POPC   D2A72964  15.428   1.779   6.648
 5820POPC   C3A72965  15.352   1.953   7.063
 5820POPC   C4A72966  14.976   1.896   7.325
 5820POPC   C1B72967  14.848   2.159   6.201
 5820POPC   C2B72968  14.939   2.035   6.630
 5820POPC   C3B72969  14.927   2.264   6.996
 5820POPC   C4B72970  15.241   2.466   7.211
 5821POPC   NC372971  41.247  31.233   5.506
 5821POPC   PO472972  42.007  31.269   5.540
 5821POPC   GL172973  41.698  31.174   5.853
 5821POPC   GL272974  41.535  31.473   5.900
 5821POPC   C1A72975  41.750  31.272   6.321
 5821POPC   D2A72976  41.867  31.568   6.659
 5821POPC   C3A72977  41.827  31.367   7.074
 5821POPC   C4A72978  41.424  31.159   7.235
 5821POPC   C1B72979  41.229  31.306   6.221
 5821POPC   C2B72980  41.217  31.264   6.690
 5821POPC   C3B72981  41.380  31.597   6.961
 5821POPC   C4B72982  41.370  31.898   7.303
 5822POPC   NC372983  29.363  31.280   5.354
 5822POPC   PO472984  28.701  31.245   5.447
 5822POPC   GL172985  29.039  31.490   5.677
 5822POPC   GL272986  29.097  31.258   5.851
 5822POPC   C1A72987  29.034  31.695   6.099
 5822POPC   D2A72988  29.121  31.597   6.538
 5822POPC   C3A72989  29.094  31.838   6.931
 5822POPC   C4A72990  29.059  31.706   7.366
 5822POPC   C1B72991  29.458  31.420   6.109
 5822POPC   C2B72992  29.599  31.344   6.560
 5822POPC   C3B72993  29.442  31.351   7.007
 5822POPC   C4B72994  29.596  31.145   7.408
 5823POPC   NC372995  31.647  33.671   5.432
 5823POPC   PO472996  31.200  34.149   5.582
 5823POPC   GL172997  31.305  34.038   5.961
 5823POPC   GL272998  31.521  33.771   5.903
 5823POPC   C1A72999  31.469  33.998   6.367
 5823POPC   D2A73000  31.784  33.899   6.650
 5823POPC   C3A73001  31.670  34.077   7.045
 5823POPC   C4A73002  31.712  33.896   7.456
 5823POPC   C1B73003  31.651  33.520   6.234
 5823POPC   C2B73004  31.555  33.436   6.643
 5823POPC   C3B73005  31.568  33.567   7.071
 5823POPC   C4B73006  31.251  33.707   7.340
 5824POPC   NC373007  40.506  15.259   5.445
 5824POPC   PO473008  40.965  14.665   5.351
 5824POPC   GL173009  40.875  15.025   5.744
 5824POPC   GL273010  40.864  15.387   5.808
 5824POPC   C1A73011  40.747  15.064   6.203
 5824POPC   D2A73012  40.741  15.333   6.589
 5824POPC   C3A73013  40.811  15.137   6.974
 5824POPC   C4A73014  40.680  15.368   7.289
 5824POPC   C1B73015  41.014  15.575   6.215
 5824POPC   C2B73016  41.210  15.559   6.657
 5824POPC   C3B73017  41.190  15.451   7.092
 5824POPC   C4B73018  41.093  15.607   7.488
 5825POPC   NC373019  12.255  34.201   5.026
 5825POPC   PO473020  12.614  34.394   5.582
 5825POPC   GL173021  12.237  34.597   5.817
 5825POPC   GL273022  11.911  34.415   5.886
 5825POPC   C1A73023  12.068  34.803   6.237
 5825POPC   D2A73024  12.018  34.664   6.698
 5825POPC   C3A73025  11.749  34.889   7.026
 5825POPC   C4A73026  11.784  34.897   7.497
 5825POPC   C1B73027  11.965  34.302   6.334
 5825POPC   C2B73028  11.873  34.136   6.744
 5825POPC   C3B73029  11.863  34.243   7.184
 5825POPC   C4B73030  11.749  34.014   7.571
 5826POPC   NC373031  42.722  30.288   5.432
 5826POPC   PO473032  42.688  29.564   5.426
 5826POPC   GL173033  42.470  29.697   5.808
 5826POPC   GL273034  42.369  30.069   5.794
 5826POPC   C1A73035  42.430  29.822   6.242
 5826POPC   D2A73036  42.433  29.688   6.633
 5826POPC   C3A73037  42.238  29.893   6.923
 5826POPC   C4A73038  42.256  29.736   7.318
 5826POPC   C1B73039  42.146  30.266   6.168
 5826POPC   C2B73040  41.911  30.173   6.568
 5826POPC   C3B73041  41.963  30.337   6.978
 5826POPC   C4B73042  42.254  30.244   7.309
 5827POPC   NC373043  27.482  42.902   5.622
 5827POPC   PO473044  27.897  43.409   5.450
 5827POPC   GL173045  27.830  43.217   5.807
 5827POPC   GL273046  28.031  42.920   5.837
 5827POPC   C1A73047  27.570  43.329   6.154
 5827POPC   D2A73048  27.372  43.216   6.538
 5827POPC   C3A73049  27.534  43.463   6.861
 5827POPC   C4A73050  27.614  43.323   7.293
 5827POPC   C1B73051  27.769  42.865   6.198
 5827POPC   C2B73052  27.726  42.733   6.587
 5827POPC   C3B73053  27.679  42.958   6.949
 5827POPC   C4B73054  27.689  42.825   7.391
 5828POPC   NC373055   6.352   9.690   5.436
 5828POPC   PO473056   5.654   9.849   5.372
 5828POPC   GL173057   5.921   9.711   5.706
 5828POPC   GL273058   6.101  10.012   5.799
 5828POPC   C1A73059   5.830   9.590   6.129
 5828POPC   D2A73060   5.662   9.747   6.504
 5828POPC   C3A73061   5.815   9.664   6.904
 5828POPC   C4A73062   5.677   9.420   7.223
 5828POPC   C1B73063   6.211  10.118   6.213
 5828POPC   C2B73064   6.076  10.059   6.622
 5828POPC   C3B73065   6.221   9.959   7.019
 5828POPC   C4B73066   6.126  10.144   7.395
 5829POPC   NC373067  35.518  28.655   5.601
 5829POPC   PO473068  36.169  28.359   5.382
 5829POPC   GL173069  36.259  28.412   5.809
 5829POPC   GL273070  35.937  28.515   5.877
 5829POPC   C1A73071  36.370  28.546   6.234
 5829POPC   D2A73072  36.096  28.528   6.589
 5829POPC   C3A73073  36.285  28.392   6.960
 5829POPC   C4A73074  36.151  28.166   7.306
 5829POPC   C1B73075  35.663  28.473   6.230
 5829POPC   C2B73076  35.559  28.452   6.640
 5829POPC   C3B73077  35.778  28.445   6.991
 5829POPC   C4B73078  35.851  28.573   7.386
 5830POPC   NC373079  14.606  33.526   5.632
 5830POPC   PO473080  14.222  34.028   5.541
 5830POPC   GL173081  14.476  33.947   5.877
 5830POPC   GL273082  14.861  33.959   5.791
 5830POPC   C1A73083  14.339  33.727   6.226
 5830POPC   D2A73084  14.158  33.790   6.599
 5830POPC   C3A73085  14.422  33.576   6.877
 5830POPC   C4A73086  14.382  33.630   7.297
 5830POPC   C1B73087  14.858  33.779   6.214
 5830POPC   C2B73088  14.775  33.890   6.628
 5830POPC   C3B73089  14.482  34.104   6.878
 5830POPC   C4B73090  14.535  34.149   7.292
 5831POPC   NC373091  24.889  33.159   5.385
 5831POPC   PO473092  24.209  32.831   5.355
 5831POPC   GL173093  24.467  32.911   5.759
 5831POPC   GL273094  24.724  33.163   5.874
 5831POPC   C1A73095  24.435  32.936   6.223
 5831POPC   D2A73096  24.330  33.115   6.631
 5831POPC   C3A73097  24.423  32.845   6.975
 5831POPC   C4A73098  24.630  32.961   7.347
 5831POPC   C1B73099  24.917  33.167   6.284
 5831POPC   C2B73100  24.858  33.235   6.726
 5831POPC   C3B73101  24.576  33.363   7.044
 5831POPC   C4B73102  24.559  33.471   7.466
 5832POPC   NC373103   2.310  31.718   5.202
 5832POPC   PO473104   2.947  31.422   5.402
 5832POPC   GL173105   2.720  31.387   5.795
 5832POPC   GL273106   2.447  31.552   5.655
 5832POPC   C1A73107   2.839  31.280   6.222
 5832POPC   D2A73108   2.737  31.213   6.658
 5832POPC   C3A73109   2.769  31.377   7.093
 5832POPC   C4A73110   3.084  31.584   7.277
 5832POPC   C1B73111   2.290  31.574   6.038
 5832POPC   C2B73112   2.435  31.562   6.440
 5832POPC   C3B73113   2.361  31.572   6.861
 5832POPC   C4B73114   2.302  31.499   7.282
 5833POPC   NC373115  10.973  16.767   5.336
 5833POPC   PO473116  10.455  16.309   5.329
 5833POPC   GL173117  10.603  16.518   5.715
 5833POPC   GL273118  10.953  16.425   5.723
 5833POPC   C1A73119  10.487  16.817   6.103
 5833POPC   D2A73120  10.527  17.055   6.544
 5833POPC   C3A73121  10.558  16.876   6.997
 5833POPC   C4A73122  10.481  16.528   7.350
 5833POPC   C1B73123  10.814  16.344   6.142
 5833POPC   C2B73124  10.688  16.545   6.505
 5833POPC   C3B73125  10.803  16.434   6.897
 5833POPC   C4B73126  10.959  16.599   7.266
 5834POPC   NC373127  32.585  25.533   5.338
 5834POPC   PO473128  33.076  25.089   5.531
 5834POPC   GL173129  32.908  25.333   5.874
 5834POPC   GL273130  32.621  25.539   5.834
 5834POPC   C1A73131  32.826  25.339   6.326
 5834POPC   D2A73132  32.771  24.959   6.583
 5834POPC   C3A73133  33.005  24.933   6.976
 5834POPC   C4A73134  33.333  24.859   7.251
 5834POPC   C1B73135  32.702  25.833   6.183
 5834POPC   C2B73136  32.879  25.769   6.618
 5834POPC   C3B73137  33.070  25.446   6.847
 5834POPC   C4B73138  33.161  25.360   7.271
 5835POPC   NC373139  13.796  21.371   5.408
 5835POPC   PO473140  13.189  21.533   5.565
 5835POPC   GL173141  13.526  21.352   5.857
 5835POPC   GL273142  13.837  21.537   5.873
 5835POPC   C1A73143  13.618  21.371   6.317
 5835POPC   D2A73144  13.369  21.140   6.635
 5835POPC   C3A73145  13.457  21.234   7.073
 5835POPC   C4A73146  13.224  21.339   7.421
 5835POPC   C1B73147  14.087  21.241   6.064
 5835POPC   C2B73148  14.220  21.159   6.493
 5835POPC   C3B73149  14.137  21.317   6.909
 5835POPC   C4B73150  13.919  21.165   7.279
 5836POPC   NC373151  39.929  14.930   5.315
 5836POPC   PO473152  40.197  15.478   5.183
 5836POPC   GL173153  40.074  15.287   5.683
 5836POPC   GL273154  39.959  14.946   5.823
 5836POPC   C1A73155  39.966  15.389   6.138
 5836POPC   D2A73156  39.820  15.152   6.468
 5836POPC   C3A73157  39.774  15.204   6.904
 5836POPC   C4A73158  39.601  15.047   7.274
 5836POPC   C1B73159  40.241  14.956   6.183
 5836POPC   C2B73160  40.304  15.063   6.596
 5836POPC   C3B73161  40.289  15.172   7.004
 5836POPC   C4B73162  40.118  14.936   7.304
 5837POPC   NC373163   4.401  18.594   5.571
 5837POPC   PO473164   4.222  18.054   5.283
 5837POPC   GL173165   4.175  18.135   5.702
 5837POPC   GL273166   4.531  18.100   5.728
 5837POPC   C1A73167   4.241  18.288   6.122
 5837POPC   D2A73168   4.326  18.129   6.509
 5837POPC   C3A73169   4.054  18.217   6.850
 5837POPC   C4A73170   4.008  18.233   7.299
 5837POPC   C1B73171   4.692  18.035   6.129
 5837POPC   C2B73172   4.823  18.013   6.546
 5837POPC   C3B73173   4.603  18.030   6.923
 5837POPC   C4B73174   4.521  18.226   7.262
 5838POPC   NC373175  12.388  44.085   5.744
 5838POPC   PO473176  12.091  44.255   5.230
 5838POPC   GL173177  11.935  43.911   5.736
 5838POPC   GL273178  12.107  43.678   6.000
 5838POPC   C1A73179  11.857  44.071   6.181
 5838POPC   D2A73180  12.016  44.112   6.612
 5838POPC   C3A73181  11.805  44.018   6.988
 5838POPC   C4A73182  11.948  43.689   7.241
 5838POPC   C1B73183  12.361  43.867   6.334
 5838POPC   C2B73184  12.504  43.898   6.757
 5838POPC   C3B73185  12.296  44.110   7.077
 5838POPC   C4B73186  12.212  44.029   7.522
 5839POPC   NC373187   5.560  30.683   5.498
 5839POPC   PO473188   5.986  31.068   5.229
 5839POPC   GL173189   5.894  30.964   5.761
 5839POPC   GL273190   5.938  30.609   5.888
 5839POPC   C1A73191   5.621  30.836   6.170
 5839POPC   D2A73192   5.858  30.650   6.506
 5839POPC   C3A73193   5.742  30.789   6.898
 5839POPC   C4A73194   5.743  31.020   7.267
 5839POPC   C1B73195   6.142  30.318   6.195
 5839POPC   C2B73196   6.046  30.154   6.580
 5839POPC   C3B73197   5.842  30.290   6.928
 5839POPC   C4B73198   6.068  30.161   7.274
 5840POPC   NC373199   2.524  27.129   5.582
 5840POPC   PO473200   3.013  27.642   5.285
 5840POPC   GL173201   2.734  27.592   5.699
 5840POPC   GL273202   2.447  27.825   5.678
 5840POPC   C1A73203   2.847  27.639   6.133
 5840POPC   D2A73204   2.977  27.421   6.506
 5840POPC   C3A73205   2.773  27.563   6.855
 5840POPC   C4A73206   2.922  27.494   7.249
 5840POPC   C1B73207   2.502  28.041   6.068
 5840POPC   C2B73208   2.664  27.994   6.479
 5840POPC   C3B73209   2.482  28.002   6.858
 5840POPC   C4B73210   2.584  27.867   7.261
 5841POPC   NC373211   5.995  39.458   5.443
 5841POPC   PO473212   6.311  38.873   5.696
 5841POPC   GL173213   5.985  39.060   5.963
 5841POPC   GL273214   5.693  39.208   5.803
 5841POPC   C1A73215   5.881  39.245   6.370
 5841POPC   D2A73216   5.622  39.453   6.704
 5841POPC   C3A73217   5.884  39.406   7.057
 5841POPC   C4A73218   6.086  38.992   7.018
 5841POPC   C1B73219   5.437  39.098   6.174
 5841POPC   C2B73220   5.491  38.886   6.613
 5841POPC   C3B73221   5.551  39.010   7.021
 5841POPC   C4B73222   5.357  39.371   7.191
 5842POPC   NC373223  28.589  12.351   5.531
 5842POPC   PO473224  28.396  11.772   5.500
 5842POPC   GL173225  28.313  11.765   5.919
 5842POPC   GL273226  28.364  12.093   5.927
 5842POPC   C1A73227  28.262  11.809   6.358
 5842POPC   D2A73228  28.466  12.119   6.594
 5842POPC   C3A73229  28.362  12.065   6.973
 5842POPC   C4A73230  28.359  11.671   7.181
 5842POPC   C1B73231  28.092  12.274   6.257
 5842POPC   C2B73232  27.925  12.144   6.668
 5842POPC   C3B73233  27.878  12.400   7.033
 5842POPC   C4B73234  28.174  12.350   7.344
 5843POPC   NC373235  12.486  35.729   5.368
 5843POPC   PO473236  12.101  35.232   5.398
 5843POPC   GL173237  12.238  35.455   5.744
 5843POPC   GL273238  11.944  35.635   5.824
 5843POPC   C1A73239  12.342  35.255   6.118
 5843POPC   D2A73240  12.324  35.361   6.550
 5843POPC   C3A73241  12.321  35.043   6.856
 5843POPC   C4A73242  12.187  35.162   7.272
 5843POPC   C1B73243  11.857  35.406   6.158
 5843POPC   C2B73244  11.825  35.558   6.532
 5843POPC   C3B73245  11.903  35.382   6.909
 5843POPC   C4B73246  11.700  35.362   7.303
 5844POPC   NC373247   4.796  40.915   5.457
 5844POPC   PO473248   5.323  41.253   5.340
 5844POPC   GL173249   5.156  41.070   5.760
 5844POPC   GL273250   5.210  40.694   5.722
 5844POPC   C1A73251   5.160  40.935   6.178
 5844POPC   D2A73252   5.140  40.999   6.609
 5844POPC   C3A73253   4.982  40.678   6.860
 5844POPC   C4A73254   4.938  40.838   7.241
 5844POPC   C1B73255   5.342  40.459   6.119
 5844POPC   C2B73256   5.393  40.511   6.592
 5844POPC   C3B73257   5.428  40.354   7.048
 5844POPC   C4B73258   5.321  40.618   7.485
 5845POPC   NC373259  15.892  26.414   5.353
 5845POPC   PO473260  16.328  26.919   5.465
 5845POPC   GL173261  16.164  26.637   5.757
 5845POPC   GL273262  15.788  26.655   5.772
 5845POPC   C1A73263  16.243  26.647   6.191
 5845POPC   D2A73264  16.408  26.969   6.481
 5845POPC   C3A73265  16.261  26.925   6.879
 5845POPC   C4A73266  16.115  26.610   7.151
 5845POPC   C1B73267  15.798  26.862   6.158
 5845POPC   C2B73268  15.865  26.713   6.591
 5845POPC   C3B73269  15.749  26.916   6.987
 5845POPC   C4B73270  15.643  26.685   7.360
 5846POPC   NC373271  10.499  17.647   5.296
 5846POPC   PO473272  10.872  17.218   5.331
 5846POPC   GL173273  10.629  17.282   5.730
 5846POPC   GL273274  10.668  17.628   5.768
 5846POPC   C1A73275  10.427  17.418   6.175
 5846POPC   D2A73276  10.153  17.621   6.521
 5846POPC   C3A73277  10.354  17.639   6.918
 5846POPC   C4A73278  10.498  17.455   7.301
 5846POPC   C1B73279  10.941  17.465   6.104
 5846POPC   C2B73280  10.859  17.597   6.514
 5846POPC   C3B73281  10.841  17.435   6.919
 5846POPC   C4B73282  10.969  17.616   7.312
 5847POPC   NC373283  36.299  22.465   5.481
 5847POPC   PO473284  35.868  21.984   5.285
 5847POPC   GL173285  36.033  21.989   5.725
 5847POPC   GL273286  36.374  22.090   5.848
 5847POPC   C1A73287  35.934  22.067   6.170
 5847POPC   D2A73288  35.814  21.941   6.589
 5847POPC   C3A73289  36.137  22.030   6.863
 5847POPC   C4A73290  36.227  22.230   7.226
 5847POPC   C1B73291  36.298  22.456   6.155
 5847POPC   C2B73292  36.094  22.471   6.562
 5847POPC   C3B73293  35.950  22.586   6.977
 5847POPC   C4B73294  36.012  22.678   7.420
 5848POPC   NC373295   9.321  16.613   5.462
 5848POPC   PO473296   9.086  17.276   5.434
 5848POPC   GL173297   8.967  16.953   5.706
 5848POPC   GL273298   9.301  16.978   5.840
 5848POPC   C1A73299   8.808  16.766   6.105
 5848POPC   D2A73300   8.938  16.743   6.544
 5848POPC   C3A73301   8.700  16.744   6.923
 5848POPC   C4A73302   8.815  16.681   7.339
 5848POPC   C1B73303   9.328  16.684   6.178
 5848POPC   C2B73304   9.434  16.776   6.597
 5848POPC   C3B73305   9.242  16.743   7.011
 5848POPC   C4B73306   9.292  16.498   7.377
 5849POPC   NC373307  38.076  29.641   5.224
 5849POPC   PO473308  38.385  30.167   5.449
 5849POPC   GL173309  38.521  30.061   5.871
 5849POPC   GL273310  38.763  29.771   5.836
 5849POPC   C1A73311  38.353  29.870   6.279
 5849POPC   D2A73312  37.993  29.748   6.543
 5849POPC   C3A73313  38.193  29.921   6.874
 5849POPC   C4A73314  38.443  29.666   7.113
 5849POPC   C1B73315  38.874  30.014   6.239
 5849POPC   C2B73316  38.617  30.127   6.627
 5849POPC   C3B73317  38.630  30.157   7.085
 5849POPC   C4B73318  38.727  29.904   7.460
 5850POPC   NC373319  40.295   4.155   5.423
 5850POPC   PO473320  39.660   3.936   5.687
 5850POPC   GL173321  40.032   4.069   5.902
 5850POPC   GL273322  40.119   4.416   5.818
 5850POPC   C1A73323  40.039   4.147   6.358
 5850POPC   D2A73324  40.273   4.125   6.769
 5850POPC   C3A73325  39.922   4.110   7.066
 5850POPC   C4A73326  39.636   4.463   7.219
 5850POPC   C1B73327  40.229   4.593   6.204
 5850POPC   C2B73328  40.064   4.574   6.619
 5850POPC   C3B73329  40.123   4.559   7.018
 5850POPC   C4B73330  40.217   4.886   7.105
 5851POPC   NC373331   7.083  12.459   5.339
 5851POPC   PO473332   7.522  11.900   5.590
 5851POPC   GL173333   7.370  12.111   5.902
 5851POPC   GL273334   7.600  12.414   5.855
 5851POPC   C1A73335   7.295  11.930   6.312
 5851POPC   D2A73336   7.527  12.021   6.662
 5851POPC   C3A73337   7.304  11.874   6.958
 5851POPC   C4A73338   7.322  11.956   7.418
 5851POPC   C1B73339   7.550  12.374   6.312
 5851POPC   C2B73340   7.208  12.413   6.646
 5851POPC   C3B73341   7.305  12.354   7.093
 5851POPC   C4B73342   7.343  12.552   7.518
 5852POPC   NC373343  22.546   6.118   5.570
 5852POPC   PO473344  22.095   5.730   5.193
 5852POPC   GL173345  22.183   5.718   5.622
 5852POPC   GL273346  22.030   6.039   5.740
 5852POPC   C1A73347  22.152   5.625   6.059
 5852POPC   D2A73348  22.073   5.803   6.475
 5852POPC   C3A73349  22.142   5.561   6.842
 5852POPC   C4A73350  22.181   5.748   7.228
 5852POPC   C1B73351  22.198   6.213   6.137
 5852POPC   C2B73352  22.160   6.325   6.560
 5852POPC   C3B73353  21.954   6.108   6.886
 5852POPC   C4B73354  22.111   6.226   7.248
 5853POPC   NC373355  19.069  22.576   5.350
 5853POPC   PO473356  19.012  23.278   5.214
 5853POPC   GL173357  19.070  23.059   5.664
 5853POPC   GL273358  19.360  22.848   5.730
 5853POPC   C1A73359  18.956  23.097   6.149
 5853POPC   D2A73360  18.760  23.232   6.545
 5853POPC   C3A73361  18.922  23.050   6.893
 5853POPC   C4A73362  18.965  23.211   7.289
 5853POPC   C1B73363  19.092  22.625   6.052
 5853POPC   C2B73364  19.017  22.675   6.511
 5853POPC   C3B73365  18.926  22.523   6.932
 5853POPC   C4B73366  19.106  22.741   7.275
 5854POPC   NC373367  30.806  12.737   5.472
 5854POPC   PO473368  30.352  13.234   5.669
 5854POPC   GL173369  30.665  13.006   5.863
 5854POPC   GL273370  31.055  13.062   5.788
 5854POPC   C1A73371  30.525  12.864   6.257
 5854POPC   D2A73372  30.414  13.061   6.675
 5854POPC   C3A73373  30.529  12.798   7.042
 5854POPC   C4A73374  30.597  12.989   7.435
 5854POPC   C1B73375  31.026  12.784   6.156
 5854POPC   C2B73376  30.902  12.959   6.566
 5854POPC   C3B73377  30.953  13.060   6.991
 5854POPC   C4B73378  31.196  12.946   7.357
 5855POPC   NC373379  10.843   2.609   5.301
 5855POPC   PO473380  11.485   2.452   5.288
 5855POPC   GL173381  11.320   2.634   5.692
 5855POPC   GL273382  11.035   2.860   5.719
 5855POPC   C1A73383  11.404   2.544   6.148
 5855POPC   D2A73384  11.373   2.769   6.559
 5855POPC   C3A73385  11.391   2.483   6.871
 5855POPC   C4A73386  11.503   2.693   7.227
 5855POPC   C1B73387  10.958   2.815   6.155
 5855POPC   C2B73388  10.972   2.507   6.484
 5855POPC   C3B73389  10.939   2.716   6.892
 5855POPC   C4B73390  10.988   2.623   7.307
 5856POPC   NC373391   3.536  16.331   5.164
 5856POPC   PO473392   3.663  15.771   5.434
 5856POPC   GL173393   3.327  15.806   5.714
 5856POPC   GL273394   3.603  15.756   5.954
 5856POPC   C1A73395   3.190  15.962   6.134
 5856POPC   D2A73396   3.399  16.084   6.504
 5856POPC   C3A73397   3.248  15.992   6.908
 5856POPC   C4A73398   3.350  16.162   7.291
 5856POPC   C1B73399   3.878  15.902   6.299
 5856POPC   C2B73400   3.980  16.007   6.700
 5856POPC   C3B73401   3.729  15.903   7.011
 5856POPC   C4B73402   3.684  15.727   7.410
 5857POPC   NC373403  16.471  40.615   5.195
 5857POPC   PO473404  16.844  41.195   5.257
 5857POPC   GL173405  16.745  40.813   5.598
 5857POPC   GL273406  16.365  40.822   5.653
 5857POPC   C1A73407  16.636  40.487   5.975
 5857POPC   D2A73408  16.407  40.395   6.413
 5857POPC   C3A73409  16.538  40.544   6.868
 5857POPC   C4A73410  16.588  40.872   7.254
 5857POPC   C1B73411  16.248  40.811   6.082
 5857POPC   C2B73412  16.136  40.826   6.501
 5857POPC   C3B73413  16.269  40.984   6.858
 5857POPC   C4B73414  16.140  40.684   7.166
 5858POPC   NC373415  44.073  16.092   5.373
 5858POPC   PO473416  43.472  15.772   5.327
 5858POPC   GL173417  43.629  16.019   5.663
 5858POPC   GL273418  43.867  15.751   5.710
 5858POPC   C1A73419  43.831  16.086   6.095
 5858POPC   D2A73420  43.703  16.002   6.522
 5858POPC   C3A73421  43.888  16.015   6.918
 5858POPC   C4A73422  43.796  16.076   7.352
 5858POPC   C1B73423  44.131  15.643   6.069
 5858POPC   C2B73424  44.158  15.738   6.508
 5858POPC   C3B73425  44.299  15.685   6.929
 5858POPC   C4B73426  44.056  15.632   7.305
 5859POPC   NC373427  18.317   9.608   5.316
 5859POPC   PO473428  18.158  10.226   5.403
 5859POPC   GL173429  18.032   9.941   5.774
 5859POPC   GL273430  18.354   9.771   5.807
 5859POPC   C1A73431  18.041   9.751   6.227
 5859POPC   D2A73432  17.977   9.944   6.649
 5859POPC   C3A73433  18.097   9.762   7.050
 5859POPC   C4A73434  18.149   9.897   7.495
 5859POPC   C1B73435  18.526   9.907   6.203
 5859POPC   C2B73436  18.425   9.679   6.597
 5859POPC   C3B73437  18.467   9.427   6.979
 5859POPC   C4B73438  18.575   9.700   7.323
 5860POPC   NC373439  39.217  44.034   5.551
 5860POPC   PO473440  39.472  43.514   5.195
 5860POPC   GL173441  39.091  43.505   5.636
 5860POPC   GL273442  38.752  43.421   5.832
 5860POPC   C1A73443  39.027  43.768   6.109
 5860POPC   D2A73444  39.307  43.973   6.462
 5860POPC   C3A73445  39.177  44.078   6.894
 5860POPC   C4A73446  39.428  44.137   7.301
 5860POPC   C1B73447  39.016  43.294   6.244
 5860POPC   C2B73448  39.249  43.440   6.632
 5860POPC   C3B73449  39.308  43.620   7.062
 5860POPC   C4B73450  38.959  43.594   7.325
 5861POPC   NC373451  13.157  38.542   5.456
 5861POPC   PO473452  12.447  38.661   5.455
 5861POPC   GL173453  12.763  38.407   5.792
 5861POPC   GL273454  12.928  38.714   5.902
 5861POPC   C1A73455  12.894  38.118   6.210
 5861POPC   D2A73456  12.775  38.242   6.707
 5861POPC   C3A73457  12.883  38.278   7.197
 5861POPC   C4A73458  13.245  38.054   7.389
 5861POPC   C1B73459  12.726  38.605   6.298
 5861POPC   C2B73460  12.466  38.642   6.681
 5861POPC   C3B73461  12.663  38.712   7.065
 5861POPC   C4B73462  13.126  38.726   7.081
 5862POPC   NC373463  32.852  20.066   5.517
 5862POPC   PO473464  33.281  19.640   5.455
 5862POPC   GL173465  33.026  19.683   5.839
 5862POPC   GL273466  33.054  20.041   5.971
 5862POPC   C1A73467  33.125  19.642   6.274
 5862POPC   D2A73468  33.264  19.898   6.649
 5862POPC   C3A73469  33.101  19.806   7.062
 5862POPC   C4A73470  33.213  19.737   7.508
 5862POPC   C1B73471  32.867  20.064   6.367
 5862POPC   C2B73472  32.567  19.959   6.654
 5862POPC   C3B73473  32.575  19.877   7.096
 5862POPC   C4B73474  32.837  20.065   7.412
 5863POPC   NC373475  40.512  31.902   5.400
 5863POPC   PO473476  41.230  31.720   5.584
 5863POPC   GL173477  40.919  31.467   5.825
 5863POPC   GL273478  40.573  31.525   5.733
 5863POPC   C1A73479  40.690  31.290   6.186
 5863POPC   D2A73480  40.562  31.083   6.574
 5863POPC   C3A73481  40.643  31.340   6.953
 5863POPC   C4A73482  40.968  31.486   7.244
 5863POPC   C1B73483  40.454  31.766   6.107
 5863POPC   C2B73484  40.418  31.620   6.538
 5863POPC   C3B73485  40.497  31.846   6.910
 5863POPC   C4B73486  40.532  31.776   7.319
 5864POPC   NC373487  36.416   1.629   5.623
 5864POPC   PO473488  36.059   2.171   5.396
 5864POPC   GL173489  36.081   1.971   5.822
 5864POPC   GL273490  35.812   1.696   5.835
 5864POPC   C1A73491  36.219   2.147   6.235
 5864POPC   D2A73492  36.482   2.070   6.591
 5864POPC   C3A73493  36.307   2.148   6.971
 5864POPC   C4A73494  36.569   2.026   7.268
 5864POPC   C1B73495  36.007   1.687   6.253
 5864POPC   C2B73496  35.967   1.894   6.650
 5864POPC   C3B73497  36.042   1.712   7.059
 5864POPC   C4B73498  36.082   1.802   7.514
 5865POPC   NC373499  27.949   6.649   5.520
 5865POPC   PO473500  27.307   6.468   5.304
 5865POPC   GL173501  27.468   6.722   5.667
 5865POPC   GL273502  27.549   6.387   5.799
 5865POPC   C1A73503  27.621   6.936   6.078
 5865POPC   D2A73504  27.492   6.937   6.548
 5865POPC   C3A73505  27.767   6.969   6.945
 5865POPC   C4A73506  27.911   6.880   7.380
 5865POPC   C1B73507  27.593   6.455   6.250
 5865POPC   C2B73508  27.674   6.448   6.681
 5865POPC   C3B73509  27.710   6.469   7.120
 5865POPC   C4B73510  27.874   6.385   7.536
 5866POPC   NC373511  31.789  36.976   5.435
 5866POPC   PO473512  31.128  36.824   5.325
 5866POPC   GL173513  31.297  37.103   5.688
 5866POPC   GL273514  31.408  36.815   5.809
 5866POPC   C1A73515  31.513  37.119   6.168
 5866POPC   D2A73516  31.432  36.917   6.601
 5866POPC   C3A73517  31.584  37.106   7.010
 5866POPC   C4A73518  31.616  37.141   7.462
 5866POPC   C1B73519  31.419  36.576   6.192
 5866POPC   C2B73520  31.531  36.385   6.565
 5866POPC   C3B73521  31.351  36.492   6.940
 5866POPC   C4B73522  31.456  36.686   7.296
 5867POPC   NC373523   2.110  19.285   5.301
 5867POPC   PO473524   1.664  18.791   5.488
 5867POPC   GL173525   1.999  18.952   5.784
 5867POPC   GL273526   2.187  19.297   5.803
 5867POPC   C1A73527   1.964  18.852   6.224
 5867POPC   D2A73528   1.834  18.733   6.638
 5867POPC   C3A73529   2.085  18.947   6.980
 5867POPC   C4A73530   1.948  18.887   7.385
 5867POPC   C1B73531   2.042  19.354   6.240
 5867POPC   C2B73532   2.018  19.363   6.699
 5867POPC   C3B73533   2.114  19.530   7.128
 5867POPC   C4B73534   2.097  19.333   7.554
 5868POPC   NC373535   8.337  10.558   5.106
 5868POPC   PO473536   9.010  10.558   5.294
 5868POPC   GL173537   9.021  10.476   5.731
 5868POPC   GL273538   9.295  10.699   5.789
 5868POPC   C1A73539   8.826  10.576   6.142
 5868POPC   D2A73540   8.721  10.779   6.560
 5868POPC   C3A73541   8.670  10.513   6.906
 5868POPC   C4A73542   8.899  10.418   7.281
 5868POPC   C1B73543   9.316  10.450   6.169
 5868POPC   C2B73544   9.178  10.531   6.568
 5868POPC   C3B73545   9.331  10.501   6.947
 5868POPC   C4B73546   9.371  10.240   7.248
 5869POPC   NC373547  23.285  22.688   5.417
 5869POPC   PO473548  23.920  22.996   5.422
 5869POPC   GL173549  23.603  22.900   5.760
 5869POPC   GL273550  23.563  22.527   5.844
 5869POPC   C1A73551  23.441  23.119   6.149
 5869POPC   D2A73552  23.527  22.966   6.568
 5869POPC   C3A73553  23.737  23.105   6.916
 5869POPC   C4A73554  23.608  22.992   7.326
 5869POPC   C1B73555  23.762  22.705   6.203
 5869POPC   C2B73556  23.966  22.678   6.592
 5869POPC   C3B73557  23.800  22.612   6.991
 5869POPC   C4B73558  24.017  22.657   7.335
 5870POPC   NC373559  19.799  11.562   5.383
 5870POPC   PO473560  19.824  10.895   5.417
 5870POPC   GL173561  19.706  11.202   5.778
 5870POPC   GL273562  19.634  11.580   5.870
 5870POPC   C1A73563  19.720  11.284   6.250
 5870POPC   D2A73564  20.036  11.342   6.553
 5870POPC   C3A73565  19.854  11.354   6.938
 5870POPC   C4A73566  20.048  11.385   7.306
 5870POPC   C1B73567  19.469  11.755   6.297
 5870POPC   C2B73568  19.392  11.593   6.741
 5870POPC   C3B73569  19.550  11.673   7.190
 5870POPC   C4B73570  19.559  11.644   7.701
 5871POPC   NC373571   0.094  11.292   5.477
 5871POPC   PO473572   0.537  11.709   5.526
 5871POPC   GL173573   0.514  11.358   5.811
 5871POPC   GL273574   0.218  11.510   5.933
 5871POPC   C1A73575   0.506  11.214   6.260
 5871POPC   D2A73576   0.482  10.987   6.670
 5871POPC   C3A73577   0.552  11.194   7.056
 5871POPC   C4A73578   0.710  11.113   7.478
 5871POPC   C1B73579  44.960  11.309   6.236
 5871POPC   C2B73580   0.008  11.293   6.676
 5871POPC   C3B73581   0.070  11.338   7.103
 5871POPC   C4B73582   0.204  11.070   7.421
 5872POPC   NC373583   5.374  41.719   5.321
 5872POPC   PO473584   4.793  41.373   5.522
 5872POPC   GL173585   5.088  41.588   5.787
 5872POPC   GL273586   5.441  41.518   5.810
 5872POPC   C1A73587   5.042  41.573   6.242
 5872POPC   D2A73588   4.830  41.490   6.649
 5872POPC   C3A73589   5.028  41.652   7.017
 5872POPC   C4A73590   4.960  41.915   7.342
 5872POPC   C1B73591   5.488  41.329   6.237
 5872POPC   C2B73592   5.346  41.460   6.645
 5872POPC   C3B73593   5.363  41.268   7.070
 5872POPC   C4B73594   5.168  41.249   7.496
 5873POPC   NC373595   8.430   3.583   5.598
 5873POPC   PO473596   9.027   3.604   5.448
 5873POPC   GL173597   8.929   3.557   5.830
 5873POPC   GL273598   9.057   3.224   5.956
 5873POPC   C1A73599   8.934   3.772   6.219
 5873POPC   D2A73600   9.184   3.649   6.555
 5873POPC   C3A73601   9.186   3.349   6.865
 5873POPC   C4A73602   9.123   3.482   7.245
 5873POPC   C1B73603   8.666   3.343   6.196
 5873POPC   C2B73604   8.644   3.569   6.605
 5873POPC   C3B73605   8.673   3.413   7.012
 5873POPC   C4B73606   8.671   3.262   7.449
 5874POPC   NC373607  40.618  16.499   5.498
 5874POPC   PO473608  40.801  15.739   5.427
 5874POPC   GL173609  40.888  15.918   5.829
 5874POPC   GL273610  40.594  16.141   5.895
 5874POPC   C1A73611  41.060  16.131   6.200
 5874POPC   D2A73612  40.876  16.274   6.599
 5874POPC   C3A73613  40.817  15.902   6.835
 5874POPC   C4A73614  40.747  15.877   7.258
 5874POPC   C1B73615  40.575  15.959   6.320
 5874POPC   C2B73616  40.344  16.092   6.704
 5874POPC   C3B73617  40.398  16.248   7.131
 5874POPC   C4B73618  40.364  16.074   7.557
 5875POPC   NC373619  20.702  15.050   5.370
 5875POPC   PO473620  20.570  15.536   5.779
 5875POPC   GL173621  20.544  15.108   5.977
 5875POPC   GL273622  20.810  14.873   5.914
 5875POPC   C1A73623  20.528  15.012   6.448
 5875POPC   D2A73624  20.680  15.379   6.696
 5875POPC   C3A73625  20.717  15.408   7.141
 5875POPC   C4A73626  20.573  15.034   7.343
 5875POPC   C1B73627  20.986  15.148   6.299
 5875POPC   C2B73628  21.027  15.009   6.742
 5875POPC   C3B73629  21.075  15.061   7.207
 5875POPC   C4B73630  21.094  15.297   7.606
 5876POPC   NC373631  41.800  35.670   5.147
 5876POPC   PO473632  41.385  35.295   5.308
 5876POPC   GL173633  41.174  35.287   5.739
 5876POPC   GL273634  41.212  35.626   5.911
 5876POPC   C1A73635  41.233  35.187   6.219
 5876POPC   D2A73636  41.540  35.292   6.596
 5876POPC   C3A73637  41.455  35.405   7.044
 5876POPC   C4A73638  41.456  35.339   7.516
 5876POPC   C1B73639  41.281  35.689   6.401
 5876POPC   C2B73640  41.619  35.796   6.726
 5876POPC   C3B73641  41.848  35.742   7.109
 5876POPC   C4B73642  41.530  35.830   7.393
 5877POPC   NC373643  41.933   4.094   5.396
 5877POPC   PO473644  41.536   3.493   5.472
 5877POPC   GL173645  41.690   3.612   5.847
 5877POPC   GL273646  41.727   3.966   5.854
 5877POPC   C1A73647  41.570   3.386   6.197
 5877POPC   D2A73648  41.407   3.104   6.484
 5877POPC   C3A73649  41.482   3.292   6.847
 5877POPC   C4A73650  41.495   3.386   7.243
 5877POPC   C1B73651  41.495   3.906   6.230
 5877POPC   C2B73652  41.694   3.706   6.574
 5877POPC   C3B73653  41.663   3.770   6.984
 5877POPC   C4B73654  41.262   3.873   7.194
 5878POPC   NC373655  19.512  20.315   5.489
 5878POPC   PO473656  20.117  20.697   5.429
 5878POPC   GL173657  19.964  20.624   5.803
 5878POPC   GL273658  19.921  20.280   5.810
 5878POPC   C1A73659  19.955  20.635   6.228
 5878POPC   D2A73660  19.878  20.818   6.586
 5878POPC   C3A73661  19.893  20.588   6.961
 5878POPC   C4A73662  20.118  20.681   7.334
 5878POPC   C1B73663  19.616  20.260   6.143
 5878POPC   C2B73664  19.525  20.421   6.568
 5878POPC   C3B73665  19.480  20.231   6.988
 5878POPC   C4B73666  19.347  20.265   7.437
 5879POPC   NC373667  26.878  40.957   5.125
 5879POPC   PO473668  26.370  41.132   5.581
 5879POPC   GL173669  26.731  40.947   5.899
 5879POPC   GL273670  26.975  40.631   5.821
 5879POPC   C1A73671  26.626  40.590   6.186
 5879POPC   D2A73672  26.806  40.377   6.497
 5879POPC   C3A73673  26.844  40.652   6.787
 5879POPC   C4A73674  26.550  40.799   7.075
 5879POPC   C1B73675  27.125  40.762   6.265
 5879POPC   C2B73676  27.367  40.807   6.693
 5879POPC   C3B73677  27.212  40.725   7.125
 5879POPC   C4B73678  26.877  40.446   7.288
 5880POPC   NC373679   5.614  17.554   5.341
 5880POPC   PO473680   6.284  17.570   5.325
 5880POPC   GL173681   6.067  17.653   5.735
 5880POPC   GL273682   5.703  17.731   5.829
 5880POPC   C1A73683   6.173  17.679   6.187
 5880POPC   D2A73684   6.012  17.800   6.633
 5880POPC   C3A73685   5.936  17.447   6.930
 5880POPC   C4A73686   6.126  17.229   7.259
 5880POPC   C1B73687   5.689  17.578   6.274
 5880POPC   C2B73688   5.497  17.655   6.685
 5880POPC   C3B73689   5.634  17.838   7.069
 5880POPC   C4B73690   5.859  17.677   7.419
 5881POPC   NC373691  20.504  18.515   5.334
 5881POPC   PO473692  20.996  18.045   5.282
 5881POPC   GL173693  20.860  18.267   5.645
 5881POPC   GL273694  20.518  18.159   5.742
 5881POPC   C1A73695  20.881  18.431   6.082
 5881POPC   D2A73696  20.850  18.250   6.513
 5881POPC   C3A73697  20.899  18.486   6.897
 5881POPC   C4A73698  20.993  18.309   7.260
 5881POPC   C1B73699  20.407  18.167   6.194
 5881POPC   C2B73700  20.392  17.998   6.617
 5881POPC   C3B73701  20.569  18.113   7.013
 5881POPC   C4B73702  20.424  18.506   7.144
 5882POPC   NC373703  34.089  35.585   5.530
 5882POPC   PO473704  33.694  35.114   5.274
 5882POPC   GL173705  33.658  35.133   5.721
 5882POPC   GL273706  34.014  35.128   5.764
 5882POPC   C1A73707  33.728  35.324   6.158
 5882POPC   D2A73708  33.545  35.366   6.586
 5882POPC   C3A73709  33.845  35.363   6.941
 5882POPC   C4A73710  33.728  35.223   7.364
 5882POPC   C1B73711  34.071  34.956   6.183
 5882POPC   C2B73712  33.856  34.934   6.594
 5882POPC   C3B73713  33.893  34.859   7.035
 5882POPC   C4B73714  34.202  35.078   7.245
 5883POPC   NC373715  16.881   0.483   5.413
 5883POPC   PO473716  16.309   0.465   5.466
 5883POPC   GL173717  16.574   0.490   5.834
 5883POPC   GL273718  16.780   0.195   5.826
 5883POPC   C1A73719  16.627   0.689   6.237
 5883POPC   D2A73720  16.821   0.551   6.586
 5883POPC   C3A73721  16.625   0.518   6.966
 5883POPC   C4A73722  16.793   0.488   7.351
 5883POPC   C1B73723  16.658   0.161   6.264
 5883POPC   C2B73724  16.807   0.065   6.695
 5883POPC   C3B73725  16.805   0.021   7.144
 5883POPC   C4B73726  16.852   0.051   7.599
 5884POPC   NC373727  41.630  17.794   5.358
 5884POPC   PO473728  41.437  17.162   5.336
 5884POPC   GL173729  41.426  17.391   5.774
 5884POPC   GL273730  41.447  17.760   5.832
 5884POPC   C1A73731  41.232  17.497   6.215
 5884POPC   D2A73732  41.236  17.700   6.641
 5884POPC   C3A73733  41.274  17.417   6.998
 5884POPC   C4A73734  41.296  17.307   7.433
 5884POPC   C1B73735  41.731  17.638   6.154
 5884POPC   C2B73736  42.015  17.762   6.485
 5884POPC   C3B73737  41.878  17.614   6.847
 5884POPC   C4B73738  41.728  17.495   7.226
 5885POPC   NC373739  23.284  29.500   5.388
 5885POPC   PO473740  22.807  29.938   5.422
 5885POPC   GL173741  22.903  29.673   5.774
 5885POPC   GL273742  23.231  29.818   5.808
 5885POPC   C1A73743  22.879  29.766   6.236
 5885POPC   D2A73744  22.971  30.008   6.630
 5885POPC   C3A73745  22.664  30.074   6.955
 5885POPC   C4A73746  22.580  30.190   7.389
 5885POPC   C1B73747  23.329  29.530   6.160
 5885POPC   C2B73748  23.180  29.522   6.599
 5885POPC   C3B73749  23.054  29.665   7.003
 5885POPC   C4B73750  23.232  29.625   7.425
 5886POPC   NC373751  31.900  26.805   5.441
 5886POPC   PO473752  32.553  26.718   5.532
 5886POPC   GL173753  32.288  26.893   5.824
 5886POPC   GL273754  32.134  26.587   5.853
 5886POPC   C1A73755  32.242  26.862   6.292
 5886POPC   D2A73756  32.328  26.619   6.683
 5886POPC   C3A73757  32.268  26.896   7.046
 5886POPC   C4A73758  32.228  27.040   7.494
 5886POPC   C1B73759  31.869  26.519   6.193
 5886POPC   C2B73760  31.760  26.353   6.586
 5886POPC   C3B73761  31.956  26.411   7.016
 5886POPC   C4B73762  31.905  26.653   7.398
 5887POPC   NC373763  14.728  43.908   5.461
 5887POPC   PO473764  14.150  43.575   5.310
 5887POPC   GL173765  14.301  43.706   5.717
 5887POPC   GL273766  14.563  43.509   5.781
 5887POPC   C1A73767  14.462  43.867   6.140
 5887POPC   D2A73768  14.439  43.660   6.547
 5887POPC   C3A73769  14.314  43.846   6.926
 5887POPC   C4A73770  14.573  44.051   7.271
 5887POPC   C1B73771  14.753  43.438   6.166
 5887POPC   C2B73772  14.785  43.270   6.578
 5887POPC   C3B73773  14.628  43.406   6.980
 5887POPC   C4B73774  14.767  43.597   7.336
 5888POPC   NC373775  10.363   4.129   5.480
 5888POPC   PO473776  10.779   4.664   5.409
 5888POPC   GL173777  10.549   4.523   5.769
 5888POPC   GL273778  10.718   4.189   5.836
 5888POPC   C1A73779  10.361   4.403   6.174
 5888POPC   D2A73780  10.429   4.558   6.595
 5888POPC   C3A73781  10.338   4.349   6.974
 5888POPC   C4A73782  10.632   4.403   7.290
 5888POPC   C1B73783  10.528   3.906   6.165
 5888POPC   C2B73784  10.434   3.966   6.630
 5888POPC   C3B73785  10.581   3.908   7.081
 5888POPC   C4B73786  10.831   3.985   7.511
 5889POPC   NC373787  37.122  32.544   5.512
 5889POPC   PO473788  36.918  33.213   5.410
 5889POPC   GL173789  36.803  33.068   5.807
 5889POPC   GL273790  36.698  32.722   5.789
 5889POPC   C1A73791  36.740  33.208   6.247
 5889POPC   D2A73792  36.980  33.379   6.594
 5889POPC   C3A73793  36.844  33.221   6.971
 5889POPC   C4A73794  36.994  33.062   7.350
 5889POPC   C1B73795  36.989  32.742   6.153
 5889POPC   C2B73796  37.127  32.869   6.563
 5889POPC   C3B73797  37.166  32.606   6.922
 5889POPC   C4B73798  36.836  32.563   7.205
 5890POPC   NC373799  44.421   0.111   5.518
 5890POPC   PO473800  44.462  44.457   5.609
 5890POPC   GL173801  44.536  44.784   5.881
 5890POPC   GL273802  44.869  44.869   5.756
 5890POPC   C1A73803  44.571  44.882   6.304
 5890POPC   D2A73804  44.414  44.611   6.604
 5890POPC   C3A73805  44.564  44.754   6.982
 5890POPC   C4A73806  44.493  44.523   7.337
 5890POPC   C1B73807  44.933  44.557   6.093
 5890POPC   C2B73808  44.943  44.582   6.528
 5890POPC   C3B73809   0.014  44.524   6.946
 5890POPC   C4B73810   0.041  44.838   7.225
 5891POPC   NC373811  43.962  25.362   5.432
 5891POPC   PO473812  43.675  24.758   5.418
 5891POPC   GL173813  43.764  25.028   5.775
 5891POPC   GL273814  44.110  25.002   5.824
 5891POPC   C1A73815  43.843  25.232   6.201
 5891POPC   D2A73816  43.722  25.041   6.573
 5891POPC   C3A73817  43.854  25.253   6.909
 5891POPC   C4A73818  44.089  25.602   7.015
 5891POPC   C1B73819  44.326  25.089   6.222
 5891POPC   C2B73820  44.314  25.271   6.644
 5891POPC   C3B73821  44.316  25.145   7.095
 5891POPC   C4B73822  44.287  24.970   7.488
 5892POPC   NC373823  17.065  38.889   5.689
 5892POPC   PO473824  16.691  39.464   5.365
 5892POPC   GL173825  16.870  39.439   5.755
 5892POPC   GL273826  17.144  39.678   5.778
 5892POPC   C1A73827  16.743  39.274   6.184
 5892POPC   D2A73828  16.451  39.402   6.516
 5892POPC   C3A73829  16.436  39.199   6.908
 5892POPC   C4A73830  16.492  39.183   7.349
 5892POPC   C1B73831  17.074  39.657   6.226
 5892POPC   C2B73832  16.921  39.554   6.639
 5892POPC   C3B73833  16.909  39.373   7.080
 5892POPC   C4B73834  16.936  39.349   7.575
 5893POPC   NC373835   7.736  27.547   5.295
 5893POPC   PO473836   7.230  27.207   5.614
 5893POPC   GL173837   7.300  27.548   5.889
 5893POPC   GL273838   7.469  27.771   5.692
 5893POPC   C1A73839   7.296  27.635   6.333
 5893POPC   D2A73840   7.503  27.432   6.674
 5893POPC   C3A73841   7.323  27.581   7.010
 5893POPC   C4A73842   7.232  27.531   7.427
 5893POPC   C1B73843   7.661  27.926   6.080
 5893POPC   C2B73844   7.747  27.856   6.516
 5893POPC   C3B73845   7.820  27.817   6.953
 5893POPC   C4B73846   7.724  27.585   7.324
 5894POPC   NC373847  40.303  41.728   5.464
 5894POPC   PO473848  39.719  41.911   5.786
 5894POPC   GL173849  39.965  41.686   6.026
 5894POPC   GL273850  40.285  41.766   5.985
 5894POPC   C1A73851  40.005  41.696   6.449
 5894POPC   D2A73852  40.187  41.792   6.816
 5894POPC   C3A73853  39.952  41.694   7.156
 5894POPC   C4A73854  40.165  41.763   7.573
 5894POPC   C1B73855  40.304  41.346   6.235
 5894POPC   C2B73856  40.161  41.179   6.600
 5894POPC   C3B73857  40.250  41.280   7.012
 5894POPC   C4B73858  40.066  41.274   7.417
 5895POPC   NC373859  44.177  17.789   5.486
 5895POPC   PO473860  43.763  17.265   5.505
 5895POPC   GL173861  43.959  17.371   5.906
 5895POPC   GL273862  43.869  17.725   5.903
 5895POPC   C1A73863  43.996  17.540   6.356
 5895POPC   D2A73864  43.908  17.700   6.769
 5895POPC   C3A73865  43.851  17.406   7.095
 5895POPC   C4A73866  44.247  17.369   7.206
 5895POPC   C1B73867  43.683  17.932   6.282
 5895POPC   C2B73868  43.448  17.882   6.645
 5895POPC   C3B73869  43.600  18.043   7.009
 5895POPC   C4B73870  43.925  17.875   7.261
 5896POPC   NC373871  33.229  30.433   5.543
 5896POPC   PO473872  32.924  29.880   5.401
 5896POPC   GL173873  33.122  29.965   5.803
 5896POPC   GL273874  33.438  29.795   5.811
 5896POPC   C1A73875  32.958  30.046   6.265
 5896POPC   D2A73876  32.640  30.014   6.630
 5896POPC   C3A73877  32.786  29.919   7.068
 5896POPC   C4A73878  32.968  29.794   7.491
 5896POPC   C1B73879  33.457  29.922   6.237
 5896POPC   C2B73880  33.405  29.726   6.656
 5896POPC   C3B73881  33.336  29.808   7.116
 5896POPC   C4B73882  33.170  30.209   7.225
 5897POPC   NC373883  43.544  11.854   5.326
 5897POPC   PO473884  43.113  12.351   5.230
 5897POPC   GL173885  43.015  12.174   5.670
 5897POPC   GL273886  43.130  11.812   5.647
 5897POPC   C1A73887  42.991  12.327   6.136
 5897POPC   D2A73888  43.328  12.294   6.452
 5897POPC   C3A73889  43.213  12.205   6.875
 5897POPC   C4A73890  43.397  12.341   7.243
 5897POPC   C1B73891  43.234  11.882   6.083
 5897POPC   C2B73892  42.974  11.896   6.475
 5897POPC   C3B73893  42.728  12.016   6.846
 5897POPC   C4B73894  42.921  11.997   7.261
 5898POPC   NC373895  11.228  11.062   5.487
 5898POPC   PO473896  10.715  11.367   5.199
 5898POPC   GL173897  10.604  11.162   5.623
 5898POPC   GL273898  10.774  10.842   5.679
 5898POPC   C1A73899  10.606  11.260   6.110
 5898POPC   D2A73900  10.414  11.369   6.536
 5898POPC   C3A73901  10.571  11.557   6.945
 5898POPC   C4A73902  10.295  11.630   7.303
 5898POPC   C1B73903  10.650  10.733   6.092
 5898POPC   C2B73904  10.578  10.880   6.492
 5898POPC   C3B73905  10.435  10.848   6.905
 5898POPC   C4B73906  10.525  11.111   7.232
 5899POPC   NC373907  29.144  35.801   5.520
 5899POPC   PO473908  29.363  35.151   5.442
 5899POPC   GL173909  29.417  35.263   5.869
 5899POPC   GL273910  29.098  35.454   5.902
 5899POPC   C1A73911  29.248  35.203   6.302
 5899POPC   D2A73912  29.067  35.507   6.563
 5899POPC   C3A73913  28.857  35.390   6.936
 5899POPC   C4A73914  29.030  35.310   7.306
 5899POPC   C1B73915  29.413  35.693   6.175
 5899POPC   C2B73916  29.592  35.726   6.605
 5899POPC   C3B73917  29.374  35.551   6.989
 5899POPC   C4B73918  29.393  35.691   7.423
 5900POPC   NC373919  38.144  40.978   5.093
 5900POPC   PO473920  37.722  40.582   5.460
 5900POPC   GL173921  37.813  40.614   5.901
 5900POPC   GL273922  37.689  40.952   5.944
 5900POPC   C1A73923  37.722  40.649   6.365
 5900POPC   D2A73924  37.651  40.547   6.826
 5900POPC   C3A73925  37.459  40.814   7.136
 5900POPC   C4A73926  37.382  40.909   7.591
 5900POPC   C1B73927  38.042  41.055   6.233
 5900POPC   C2B73928  38.104  41.185   6.672
 5900POPC   C3B73929  38.050  40.850   7.013
 5900POPC   C4B73930  37.876  40.812   7.437
 5901POPC   NC373931  16.054  36.258   5.401
 5901POPC   PO473932  15.813  35.686   5.498
 5901POPC   GL173933  16.068  35.893   5.846
 5901POPC   GL273934  16.182  36.245   5.892
 5901POPC   C1A73935  16.066  35.936   6.321
 5901POPC   D2A73936  15.771  35.934   6.681
 5901POPC   C3A73937  15.941  35.921   7.089
 5901POPC   C4A73938  16.392  36.075   7.091
 5901POPC   C1B73939  15.758  36.288   6.066
 5901POPC   C2B73940  15.763  36.420   6.487
 5901POPC   C3B73941  16.059  36.338   6.804
 5901POPC   C4B73942  15.894  36.400   7.224
 5902POPC   NC373943  14.715  42.283   5.067
 5902POPC   PO473944  15.303  42.323   5.435
 5902POPC   GL173945  15.148  42.575   5.817
 5902POPC   GL273946  14.898  42.395   6.006
 5902POPC   C1A73947  15.270  42.576   6.287
 5902POPC   D2A73948  15.121  42.365   6.686
 5902POPC   C3A73949  15.091  42.624   7.075
 5902POPC   C4A73950  14.781  42.617   7.399
 5902POPC   C1B73951  15.165  42.067   6.195
 5902POPC   C2B73952  15.144  41.835   6.595
 5902POPC   C3B73953  15.339  41.982   6.968
 5902POPC   C4B73954  15.034  42.140   7.234
 5903POPC   NC373955  28.669  10.708   5.541
 5903POPC   PO473956  28.255  10.175   5.371
 5903POPC   GL173957  28.292  10.450   5.768
 5903POPC   GL273958  28.594  10.387   5.943
 5903POPC   C1A73959  28.195  10.701   6.158
 5903POPC   D2A73960  28.061  10.630   6.599
 5903POPC   C3A73961  28.226  10.774   7.001
 5903POPC   C4A73962  28.349  10.500   7.344
 5903POPC   C1B73963  28.709  10.709   6.233
 5903POPC   C2B73964  28.603  10.677   6.654
 5903POPC   C3B73965  28.752  10.694   7.064
 5903POPC   C4B73966  28.773  10.786   7.505
 5904POPC   NC373967  37.973  32.064   5.374
 5904POPC   PO473968  37.373  32.166   5.412
 5904POPC   GL173969  37.579  32.034   5.813
 5904POPC   GL273970  37.890  32.215   5.863
 5904POPC   C1A73971  37.741  31.991   6.275
 5904POPC   D2A73972  37.837  32.127   6.717
 5904POPC   C3A73973  37.694  31.851   7.063
 5904POPC   C4A73974  37.737  31.802   7.538
 5904POPC   C1B73975  37.684  32.504   6.192
 5904POPC   C2B73976  37.623  32.706   6.627
 5904POPC   C3B73977  37.671  32.658   7.075
 5904POPC   C4B73978  37.766  32.288   7.323
 5905POPC   NC373979  36.801  30.770   5.441
 5905POPC   PO473980  36.834  30.125   5.567
 5905POPC   GL173981  37.026  30.495   5.804
 5905POPC   GL273982  36.676  30.658   5.920
 5905POPC   C1A73983  37.085  30.776   6.193
 5905POPC   D2A73984  36.872  30.797   6.586
 5905POPC   C3A73985  37.139  30.856   6.917
 5905POPC   C4A73986  37.041  30.717   7.301
 5905POPC   C1B73987  36.601  31.015   6.206
 5905POPC   C2B73988  36.439  31.098   6.642
 5905POPC   C3B73989  36.620  30.934   7.047
 5905POPC   C4B73990  36.624  30.972   7.500
 5906POPC   NC373991  44.768  10.825   5.292
 5906POPC   PO473992  44.440  10.237   5.399
 5906POPC   GL173993  44.705  10.513   5.717
 5906POPC   GL273994  44.868  10.873   5.789
 5906POPC   C1A73995  44.670  10.580   6.173
 5906POPC   D2A73996  44.655  10.360   6.577
 5906POPC   C3A73997  44.580  10.579   6.956
 5906POPC   C4A73998  44.443  10.594   7.406
 5906POPC   C1B73999   0.161  10.822   6.127
 5906POPC   C2B74000   0.082  10.713   6.531
 5906POPC   C3B74001   0.045  10.850   6.952
 5906POPC   C4B74002  44.945  10.641   7.317
 5907POPC   NC374003   6.215  25.097   5.449
 5907POPC   PO474004   5.561  25.152   5.486
 5907POPC   GL174005   5.829  25.258   5.799
 5907POPC   GL274006   6.016  25.552   5.654
 5907POPC   C1A74007   5.824  24.989   6.190
 5907POPC   D2A74008   5.997  24.909   6.649
 5907POPC   C3A74009   5.851  25.170   7.020
 5907POPC   C4A74010   6.037  25.290   7.436
 5907POPC   C1B74011   6.094  25.556   6.109
 5907POPC   C2B74012   6.011  25.484   6.555
 5907POPC   C3B74013   5.672  25.607   6.827
 5907POPC   C4B74014   5.627  25.577   7.273
 5908POPC   NC374015  17.789  34.819   5.676
 5908POPC   PO474016  17.275  34.622   5.264
 5908POPC   GL174017  17.436  34.428   5.685
 5908POPC   GL274018  17.181  34.207   5.872
 5908POPC   C1A74019  17.585  34.377   6.150
 5908POPC   D2A74020  17.624  34.485   6.616
 5908POPC   C3A74021  17.787  34.661   7.017
 5908POPC   C4A74022  17.488  34.975   7.182
 5908POPC   C1B74023  17.030  34.334   6.295
 5908POPC   C2B74024  17.013  34.395   6.752
 5908POPC   C3B74025  17.304  34.467   7.110
 5908POPC   C4B74026  17.264  34.243   7.536
 5909POPC   NC374027   7.414  34.734   5.399
 5909POPC   PO474028   7.028  34.139   5.357
 5909POPC   GL174029   7.300  34.321   5.739
 5909POPC   GL274030   7.239  34.696   5.873
 5909POPC   C1A74031   7.464  34.377   6.181
 5909POPC   D2A74032   7.240  34.756   6.404
 5909POPC   C3A74033   7.104  34.698   6.830
 5909POPC   C4A74034   7.422  34.472   7.050
 5909POPC   C1B74035   7.632  34.867   6.068
 5909POPC   C2B74036   7.896  34.807   6.449
 5909POPC   C3B74037   7.832  34.909   6.903
 5909POPC   C4B74038   7.624  34.865   7.309
 5910POPC   NC374039  42.126   7.039   5.471
 5910POPC   PO474040  41.535   6.743   5.294
 5910POPC   GL174041  41.571   6.643   5.740
 5910POPC   GL274042  41.703   6.954   5.811
 5910POPC   C1A74043  41.584   6.533   6.190
 5910POPC   D2A74044  41.535   6.339   6.599
 5910POPC   C3A74045  41.453   6.495   7.027
 5910POPC   C4A74046  41.584   6.435   7.468
 5910POPC   C1B74047  41.668   7.037   6.246
 5910POPC   C2B74048  41.599   6.858   6.622
 5910POPC   C3B74049  41.586   7.024   6.969
 5910POPC   C4B74050  41.715   6.869   7.296
 5911POPC   NC374051  38.243  43.380   5.583
 5911POPC   PO474052  38.771  43.105   5.420
 5911POPC   GL174053  38.479  42.943   5.834
 5911POPC   GL274054  38.171  43.082   6.003
 5911POPC   C1A74055  38.343  42.690   6.225
 5911POPC   D2A74056  38.499  42.801   6.608
 5911POPC   C3A74057  38.292  43.000   6.904
 5911POPC   C4A74058  38.177  43.085   7.270
 5911POPC   C1B74059  38.511  43.219   6.274
 5911POPC   C2B74060  38.722  43.277   6.693
 5911POPC   C3B74061  38.575  43.356   7.108
 5911POPC   C4B74062  38.495  43.423   7.565
 5912POPC   NC374063   4.634  39.779   5.510
 5912POPC   PO474064   4.189  40.330   5.371
 5912POPC   GL174065   4.258  40.081   5.742
 5912POPC   GL274066   4.128  39.727   5.768
 5912POPC   C1A74067   4.367  40.017   6.158
 5912POPC   D2A74068   4.206  40.212   6.504
 5912POPC   C3A74069   4.226  40.051   6.924
 5912POPC   C4A74070   4.385  39.956   7.321
 5912POPC   C1B74071   4.045  39.624   6.200
 5912POPC   C2B74072   4.269  39.651   6.587
 5912POPC   C3B74073   4.319  39.552   7.021
 5912POPC   C4B74074   4.044  39.467   7.375
 5913POPC   NC374075  23.679  24.438   5.238
 5913POPC   PO474076  23.448  24.850   5.760
 5913POPC   GL174077  23.631  24.504   5.964
 5913POPC   GL274078  23.880  24.301   5.809
 5913POPC   C1A74079  23.910  24.559   6.308
 5913POPC   D2A74080  23.901  24.501   6.742
 5913POPC   C3A74081  23.649  24.690   7.033
 5913POPC   C4A74082  23.697  24.665   7.461
 5913POPC   C1B74083  23.814  24.064   6.215
 5913POPC   C2B74084  23.894  23.996   6.668
 5913POPC   C3B74085  23.929  24.168   7.123
 5913POPC   C4B74086  23.948  24.246   7.593
 5914POPC   NC374087  38.417  36.170   5.085
 5914POPC   PO474088  38.236  36.223   5.720
 5914POPC   GL174089  38.562  36.131   5.998
 5914POPC   GL274090  38.731  35.846   5.870
 5914POPC   C1A74091  38.624  36.241   6.429
 5914POPC   D2A74092  38.349  36.138   6.771
 5914POPC   C3A74093  38.301  36.350   7.161
 5914POPC   C4A74094  38.255  36.241   7.628
 5914POPC   C1B74095  38.613  35.728   6.313
 5914POPC   C2B74096  38.587  35.693   6.750
 5914POPC   C3B74097  38.546  35.851   7.153
 5914POPC   C4B74098  38.577  35.805   7.561
 5915POPC   NC374099  37.013   4.170   5.452
 5915POPC   PO474100  36.786   4.765   5.513
 5915POPC   GL174101  37.009   4.518   5.844
 5915POPC   GL274102  37.014   4.122   5.957
 5915POPC   C1A74103  36.840   4.497   6.260
 5915POPC   D2A74104  36.595   4.480   6.638
 5915POPC   C3A74105  36.920   4.409   6.946
 5915POPC   C4A74106  37.198   4.665   7.162
 5915POPC   C1B74107  36.598   3.972   6.167
 5915POPC   C2B74108  36.363   4.008   6.582
 5915POPC   C3B74109  36.537   4.074   7.010
 5915POPC   C4B74110  36.735   3.947   7.430
 5916POPC   NC374111   6.921  25.632   5.661
 5916POPC   PO474112   6.663  26.197   5.491
 5916POPC   GL174113   6.824  26.087   5.847
 5916POPC   GL274114   6.511  25.887   5.903
 5916POPC   C1A74115   6.936  25.923   6.255
 5916POPC   D2A74116   6.819  26.059   6.642
 5916POPC   C3A74117   6.972  25.948   7.026
 5916POPC   C4A74118   6.901  26.312   7.269
 5916POPC   C1B74119   6.409  25.877   6.350
 5916POPC   C2B74120   6.466  25.729   6.775
 5916POPC   C3B74121   6.471  26.037   7.129
 5916POPC   C4B74122   6.355  26.166   7.564
 5917POPC   NC374123   8.618  25.070   5.340
 5917POPC   PO474124   9.003  25.638   5.388
 5917POPC   GL174125   9.153  25.348   5.725
 5917POPC   GL274126   8.935  25.099   5.785
 5917POPC   C1A74127   9.036  25.366   6.212
 5917POPC   D2A74128   9.090  25.447   6.678
 5917POPC   C3A74129   8.770  25.346   6.975
 5917POPC   C4A74130   8.970  25.062   7.269
 5917POPC   C1B74131   9.045  24.868   6.142
 5917POPC   C2B74132   8.880  24.877   6.530
 5917POPC   C3B74133   8.688  24.814   6.892
 5917POPC   C4B74134   8.451  24.994   7.218
 5918POPC   NC374135   7.683  20.861   5.314
 5918POPC   PO474136   7.260  20.341   5.517
 5918POPC   GL174137   7.409  20.424   5.894
 5918POPC   GL274138   7.619  20.693   5.806
 5918POPC   C1A74139   7.314  20.470   6.340
 5918POPC   D2A74140   7.590  20.400   6.716
 5918POPC   C3A74141   7.374  20.262   7.086
 5918POPC   C4A74142   6.983  20.428   7.233
 5918POPC   C1B74143   7.758  20.676   6.225
 5918POPC   C2B74144   7.537  20.896   6.584
 5918POPC   C3B74145   7.373  20.814   7.009
 5918POPC   C4B74146   7.616  20.641   7.347
 5919POPC   NC374147   5.189  24.878   5.403
 5919POPC   PO474148   4.784  24.309   5.498
 5919POPC   GL174149   5.124  24.432   5.731
 5919POPC   GL274150   5.358  24.147   5.796
 5919POPC   C1A74151   5.253  24.654   6.108
 5919POPC   D2A74152   5.528  24.676   6.484
 5919POPC   C3A74153   5.291  24.561   6.819
 5919POPC   C4A74154   4.994  24.680   7.089
 5919POPC   C1B74155   5.151  24.149   6.188
 5919POPC   C2B74156   4.941  24.296   6.569
 5919POPC   C3B74157   5.005  24.163   7.009
 5919POPC   C4B74158   5.338  24.270   7.261
 5920POPC   NC374159  17.865  36.244   5.484
 5920POPC   PO474160  17.398  35.864   5.102
 5920POPC   GL174161  17.415  35.955   5.629
 5920POPC   GL274162  17.442  36.317   5.799
 5920POPC   C1A74163  17.314  35.944   6.133
 5920POPC   D2A74164  17.233  36.130   6.572
 5920POPC   C3A74165  17.356  35.937   6.982
 5920POPC   C4A74166  17.302  36.037   7.452
 5920POPC   C1B74167  17.468  36.471   6.252
 5920POPC   C2B74168  17.599  36.519   6.728
 5920POPC   C3B74169  17.605  36.338   7.194
 5920POPC   C4B74170  17.823  36.171   7.598
 5921POPC   NC374171   1.445  17.085   5.582
 5921POPC   PO474172   1.044  16.643   5.258
 5921POPC   GL174173   1.102  16.680   5.710
 5921POPC   GL274174   0.930  16.918   5.812
 5921POPC   C1A74175   1.277  16.664   6.129
 5921POPC   D2A74176   1.138  16.712   6.532
 5921POPC   C3A74177   1.458  16.812   6.820
 5921POPC   C4A74178   1.535  16.630   7.227
 5921POPC   C1B74179   0.975  17.098   6.197
 5921POPC   C2B74180   0.756  17.140   6.561
 5921POPC   C3B74181   0.956  16.986   6.919
 5921POPC   C4B74182   0.821  16.912   7.282
 5922POPC   NC374183  15.789  22.403   5.421
 5922POPC   PO474184  16.013  21.759   5.574
 5922POPC   GL174185  15.961  22.101   5.857
 5922POPC   GL274186  15.618  22.147   5.864
 5922POPC   C1A74187  15.879  22.318   6.280
 5922POPC   D2A74188  16.032  22.234   6.666
 5922POPC   C3A74189  15.799  22.250   7.026
 5922POPC   C4A74190  15.793  22.626   7.254
 5922POPC   C1B74191  15.712  21.851   6.245
 5922POPC   C2B74192  15.576  21.898   6.667
 5922POPC   C3B74193  15.505  21.785   7.108
 5922POPC   C4B74194  15.830  21.904   7.396
 5923POPC   NC374195  28.133   1.507   5.507
 5923POPC   PO474196  28.825   1.254   5.439
 5923POPC   GL174197  28.605   1.378   5.824
 5923POPC   GL274198  28.301   1.178   5.882
 5923POPC   C1A74199  28.618   1.277   6.274
 5923POPC   D2A74200  28.342   1.209   6.582
 5923POPC   C3A74201  28.192   1.397   6.927
 5923POPC   C4A74202  28.351   1.254   7.288
 5923POPC   C1B74203  28.066   0.957   6.246
 5923POPC   C2B74204  28.012   0.833   6.703
 5923POPC   C3B74205  27.970   0.894   7.184
 5923POPC   C4B74206  28.152   0.943   7.635
 5924POPC   NC374207  38.382  25.170   5.349
 5924POPC   PO474208  38.826  25.591   5.477
 5924POPC   GL174209  38.499  25.418   5.777
 5924POPC   GL274210  38.324  25.735   5.826
 5924POPC   C1A74211  38.486  25.087   6.125
 5924POPC   D2A74212  38.704  25.192   6.498
 5924POPC   C3A74213  38.548  25.134   6.923
 5924POPC   C4A74214  38.561  25.456   7.259
 5924POPC   C1B74215  38.142  25.554   6.174
 5924POPC   C2B74216  38.211  25.304   6.532
 5924POPC   C3B74217  38.148  25.460   6.926
 5924POPC   C4B74218  37.951  25.326   7.266
 5925POPC   NC374219  19.096  41.111   5.413
 5925POPC   PO474220  19.522  40.678   5.530
 5925POPC   GL174221  19.319  40.716   5.884
 5925POPC   GL274222  18.988  40.809   5.834
 5925POPC   C1A74223  19.486  40.868   6.256
 5925POPC   D2A74224  19.498  40.758   6.677
 5925POPC   C3A74225  19.356  41.058   6.964
 5925POPC   C4A74226  19.101  40.980   7.335
 5925POPC   C1B74227  18.938  40.478   6.135
 5925POPC   C2B74228  19.106  40.431   6.552
 5925POPC   C3B74229  19.058  40.636   6.925
 5925POPC   C4B74230  19.020  40.486   7.309
 5926POPC   NC374231  44.131  40.214   5.150
 5926POPC   PO474232  43.872  40.855   5.269
 5926POPC   GL174233  43.907  40.710   5.734
 5926POPC   GL274234  43.721  40.398   5.761
 5926POPC   C1A74235  43.956  40.861   6.189
 5926POPC   D2A74236  43.805  41.156   6.533
 5926POPC   C3A74237  43.941  40.997   6.962
 5926POPC   C4A74238  44.070  40.941   7.385
 5926POPC   C1B74239  43.737  40.400   6.200
 5926POPC   C2B74240  43.730  40.633   6.593
 5926POPC   C3B74241  43.426  40.553   6.876
 5926POPC   C4B74242  43.609  40.424   7.239
 5927POPC   NC374243  26.970  28.695   5.456
 5927POPC   PO474244  26.610  28.108   5.422
 5927POPC   GL174245  26.755  28.334   5.775
 5927POPC   GL274246  27.119  28.264   5.824
 5927POPC   C1A74247  26.573  28.456   6.166
 5927POPC   D2A74248  26.593  28.757   6.501
 5927POPC   C3A74249  26.853  28.575   6.798
 5927POPC   C4A74250  26.844  28.320   7.171
 5927POPC   C1B74251  27.051  28.331   6.284
 5927POPC   C2B74252  27.076  28.113   6.674
 5927POPC   C3B74253  27.185  27.963   7.085
 5927POPC   C4B74254  27.277  28.252   7.466
 5928POPC   NC374255  17.763  20.417   5.334
 5928POPC   PO474256  18.384  20.604   5.402
 5928POPC   GL174257  18.261  20.502   5.774
 5928POPC   GL274258  17.937  20.670   5.750
 5928POPC   C1A74259  18.448  20.628   6.163
 5928POPC   D2A74260  18.559  20.819   6.565
 5928POPC   C3A74261  18.488  20.587   6.950
 5928POPC   C4A74262  18.521  20.849   7.285
 5928POPC   C1B74263  17.936  20.507   6.158
 5928POPC   C2B74264  18.147  20.486   6.554
 5928POPC   C3B74265  17.973  20.553   6.941
 5928POPC   C4B74266  18.077  20.630   7.343
 5929POPC   NC374267  25.226  13.763   5.095
 5929POPC   PO474268  25.565  13.355   5.463
 5929POPC   GL174269  25.305  13.419   5.826
 5929POPC   GL274270  25.172  13.722   5.898
 5929POPC   C1A74271  25.190  13.202   6.191
 5929POPC   D2A74272  25.356  13.200   6.603
 5929POPC   C3A74273  25.270  13.510   6.920
 5929POPC   C4A74274  25.217  13.547   7.389
 5929POPC   C1B74275  25.282  13.693   6.363
 5929POPC   C2B74276  25.148  13.977   6.722
 5929POPC   C3B74277  25.331  13.989   7.123
 5929POPC   C4B74278  25.694  13.784   7.281
 5930POPC   NC374279  20.991  39.003   5.590
 5930POPC   PO474280  20.402  38.564   5.413
 5930POPC   GL174281  20.648  38.481   5.775
 5930POPC   GL274282  20.486  38.195   5.797
 5930POPC   C1A74283  20.577  38.506   6.226
 5930POPC   D2A74284  20.780  38.632   6.605
 5930POPC   C3A74285  20.544  38.786   6.930
 5930POPC   C4A74286  20.647  38.788   7.335
 5930POPC   C1B74287  20.830  38.101   6.083
 5930POPC   C2B74288  20.938  38.082   6.510
 5930POPC   C3B74289  20.806  38.223   6.907
 5930POPC   C4B74290  20.596  38.197   7.254
 5931POPC   NC374291  10.032  32.449   5.351
 5931POPC   PO474292   9.622  31.864   5.412
 5931POPC   GL174293   9.842  32.115   5.710
 5931POPC   GL274294   9.704  32.442   5.723
 5931POPC   C1A74295   9.867  32.130   6.158
 5931POPC   D2A74296  10.021  32.022   6.553
 5931POPC   C3A74297   9.741  31.964   6.921
 5931POPC   C4A74298   9.701  32.214   7.299
 5931POPC   C1B74299   9.923  32.645   6.040
 5931POPC   C2B74300   9.739  32.592   6.420
 5931POPC   C3B74301   9.772  32.491   6.848
 5931POPC   C4B74302  10.010  32.609   7.186
 5932POPC   NC374303  23.452   2.079   5.668
 5932POPC   PO474304  23.922   1.628   5.476
 5932POPC   GL174305  24.068   1.733   5.883
 5932POPC   GL274306  24.124   2.060   5.737
 5932POPC   C1A74307  23.909   1.757   6.367
 5932POPC   D2A74308  23.550   1.715   6.699
 5932POPC   C3A74309  23.610   1.779   7.173
 5932POPC   C4A74310  23.473   2.054   7.525
 5932POPC   C1B74311  23.991   2.208   6.118
 5932POPC   C2B74312  23.974   2.296   6.543
 5932POPC   C3B74313  23.716   2.191   6.867
 5932POPC   C4B74314  23.835   2.296   7.253
 5933POPC   NC374315  21.044  41.475   5.577
 5933POPC   PO474316  21.723  41.430   5.643
 5933POPC   GL174317  21.527  41.528   5.957
 5933POPC   GL274318  21.561  41.846   6.009
 5933POPC   C1A74319  21.636  41.528   6.385
 5933POPC   D2A74320  21.310  41.478   6.660
 5933POPC   C3A74321  21.478  41.284   6.978
 5933POPC   C4A74322  21.399  41.292   7.385
 5933POPC   C1B74323  21.148  41.796   6.200
 5933POPC   C2B74324  20.904  41.773   6.575
 5933POPC   C3B74325  21.014  41.826   6.992
 5933POPC   C4B74326  21.433  41.814   7.069
 5934POPC   NC374327  38.032   4.506   5.090
 5934POPC   PO474328  37.447   4.509   5.430
 5934POPC   GL174329  37.510   4.306   5.792
 5934POPC   GL274330  37.855   4.177   5.705
 5934POPC   C1A74331  37.383   4.406   6.205
 5934POPC   D2A74332  37.682   4.356   6.520
 5934POPC   C3A74333  37.529   4.394   6.901
 5934POPC   C4A74334  37.745   4.454   7.246
 5934POPC   C1B74335  37.998   4.250   6.125
 5934POPC   C2B74336  38.083   4.034   6.509
 5934POPC   C3B74337  37.936   4.073   6.915
 5934POPC   C4B74338  38.132   4.001   7.286
 5935POPC   NC374339  16.146  11.562   5.390
 5935POPC   PO474340  15.791  11.011   5.363
 5935POPC   GL174341  15.863  11.280   5.725
 5935POPC   GL274342  15.697  11.577   5.643
 5935POPC   C1A74343  16.049  11.325   6.144
 5935POPC   D2A74344  15.913  11.062   6.489
 5935POPC   C3A74345  16.026  11.098   6.906
 5935POPC   C4A74346  15.745  11.027   7.235
 5935POPC   C1B74347  15.594  11.575   6.086
 5935POPC   C2B74348  15.777  11.598   6.505
 5935POPC   C3B74349  15.648  11.484   6.916
 5935POPC   C4B74350  15.912  11.500   7.266
 5936POPC   NC374351  40.018   2.596   5.427
 5936POPC   PO474352  39.676   3.089   5.634
 5936POPC   GL174353  39.938   2.796   5.891
 5936POPC   GL274354  40.291   2.866   5.760
 5936POPC   C1A74355  40.034   2.550   6.268
 5936POPC   D2A74356  40.215   2.567   6.687
 5936POPC   C3A74357  39.885   2.766   6.943
 5936POPC   C4A74358  39.657   2.584   7.279
 5936POPC   C1B74359  40.397   2.915   6.207
 5936POPC   C2B74360  40.215   3.078   6.610
 5936POPC   C3B74361  40.199   3.118   7.094
 5936POPC   C4B74362  40.338   2.953   7.529
 5937POPC   NC374363  29.723  30.744   5.344
 5937POPC   PO474364  30.244  30.566   5.503
 5937POPC   GL174365  29.983  30.846   5.770
 5937POPC   GL274366  29.751  30.542   5.831
 5937POPC   C1A74367  29.907  31.079   6.181
 5937POPC   D2A74368  29.989  30.882   6.585
 5937POPC   C3A74369  29.889  31.014   7.001
 5937POPC   C4A74370  29.995  30.746   7.365
 5937POPC   C1B74371  29.617  30.665   6.273
 5937POPC   C2B74372  29.505  30.770   6.717
 5937POPC   C3B74373  29.717  30.493   7.019
 5937POPC   C4B74374  29.813  30.225   7.401
 5938POPC   NC374375  21.112   0.380   5.175
 5938POPC   PO474376  20.550   0.104   5.432
 5938POPC   GL174377  20.735   0.240   5.853
 5938POPC   GL274378  20.648   0.553   6.015
 5938POPC   C1A74379  20.608   0.158   6.315
 5938POPC   D2A74380  20.603   0.514   6.552
 5938POPC   C3A74381  20.505   0.523   6.941
 5938POPC   C4A74382  20.653   0.715   7.278
 5938POPC   C1B74383  20.430   0.887   6.241
 5938POPC   C2B74384  20.230   0.865   6.643
 5938POPC   C3B74385  20.285   1.001   7.062
 5938POPC   C4B74386  20.161   0.745   7.402
 5939POPC   NC374387  25.994   4.025   5.446
 5939POPC   PO474388  26.331   4.613   5.460
 5939POPC   GL174389  26.270   4.445   5.872
 5939POPC   GL274390  25.938   4.353   5.865
 5939POPC   C1A74391  26.238   4.353   6.326
 5939POPC   D2A74392  26.473   4.426   6.689
 5939POPC   C3A74393  26.216   4.257   7.040
 5939POPC   C4A74394  25.921   3.966   7.226
 5939POPC   C1B74395  25.748   4.269   6.235
 5939POPC   C2B74396  25.863   4.078   6.619
 5939POPC   C3B74397  25.747   4.366   6.895
 5939POPC   C4B74398  25.604   4.381   7.255
 5940POPC   NC374399   5.600  12.924   5.337
 5940POPC   PO474400   6.316  12.976   5.237
 5940POPC   GL174401   6.043  12.942   5.673
 5940POPC   GL274402   6.086  12.641   5.845
 5940POPC   C1A74403   5.843  12.978   6.144
 5940POPC   D2A74404   5.824  13.137   6.620
 5940POPC   C3A74405   5.848  12.979   7.042
 5940POPC   C4A74406   5.585  12.638   7.156
 5940POPC   C1B74407   6.113  12.513   6.254
 5940POPC   C2B74408   6.127  12.688   6.660
 5940POPC   C3B74409   6.040  12.433   7.021
 5940POPC   C4B74410   5.941  12.456   7.475
 5941POPC   NC374411  44.219   3.149   5.537
 5941POPC   PO474412  43.934   3.804   5.538
 5941POPC   GL174413  44.051   3.630   5.874
 5941POPC   GL274414  43.852   3.322   5.849
 5941POPC   C1A74415  43.796   3.683   6.252
 5941POPC   D2A74416  43.714   3.907   6.641
 5941POPC   C3A74417  43.899   3.744   7.029
 5941POPC   C4A74418  44.234   3.915   7.315
 5941POPC   C1B74419  44.128   3.277   6.218
 5941POPC   C2B74420  43.990   3.397   6.622
 5941POPC   C3B74421  44.006   3.216   7.003
 5941POPC   C4B74422  43.612   3.265   7.197
 5942POPC   NC374423  13.678  34.651   5.397
 5942POPC   PO474424  13.516  34.008   5.403
 5942POPC   GL174425  13.747  34.230   5.740
 5942POPC   GL274426  13.449  34.421   5.807
 5942POPC   C1A74427  13.819  34.477   6.161
 5942POPC   D2A74428  13.714  34.715   6.563
 5942POPC   C3A74429  13.783  34.490   6.951
 5942POPC   C4A74430  13.598  34.440   7.347
 5942POPC   C1B74431  13.350  34.223   6.226
 5942POPC   C2B74432  13.316  34.299   6.690
 5942POPC   C3B74433  13.311  34.663   6.909
 5942POPC   C4B74434  13.191  34.875   7.263
 5943POPC   NC374435  11.516  20.078   5.444
 5943POPC   PO474436  12.178  19.836   5.350
 5943POPC   GL174437  12.050  19.779   5.763
 5943POPC   GL274438  11.703  19.735   5.779
 5943POPC   C1A74439  11.968  19.999   6.156
 5943POPC   D2A74440  11.878  19.924   6.587
 5943POPC   C3A74441  12.185  19.939   6.928
 5943POPC   C4A74442  12.129  20.039   7.359
 5943POPC   C1B74443  11.794  19.526   6.171
 5943POPC   C2B74444  11.908  19.393   6.592
 5943POPC   C3B74445  11.765  19.585   6.964
 5943POPC   C4B74446  11.717  19.728   7.397
 5944POPC   NC374447  16.061  10.566   5.356
 5944POPC   PO474448  15.627  10.027   5.423
 5944POPC   GL174449  15.835  10.325   5.763
 5944POPC   GL274450  15.887  10.743   5.795
 5944POPC   C1A74451  15.878  10.476   6.202
 5944POPC   D2A74452  16.036  10.354   6.563
 5944POPC   C3A74453  15.844  10.616   6.809
 5944POPC   C4A74454  15.752  10.513   7.196
 5944POPC   C1B74455  16.238  10.836   6.125
 5944POPC   C2B74456  16.412  10.679   6.523
 5944POPC   C3B74457  16.313  10.568   6.957
 5944POPC   C4B74458  16.192  10.779   7.311
 5945POPC   NC374459   1.707  34.773   5.542
 5945POPC   PO474460   2.207  34.423   5.469
 5945POPC   GL174461   2.150  34.243   5.848
 5945POPC   GL274462   1.957  34.542   5.971
 5945POPC   C1A74463   2.195  34.123   6.265
 5945POPC   D2A74464   2.076  34.414   6.604
 5945POPC   C3A74465   2.133  34.267   7.020
 5945POPC   C4A74466   2.130  34.073   7.426
 5945POPC   C1B74467   2.060  34.866   6.289
 5945POPC   C2B74468   1.862  34.877   6.674
 5945POPC   C3B74469   1.744  34.633   7.042
 5945POPC   C4B74470   1.975  34.565   7.427
 5946POPC   NC374471   9.265  12.801   5.371
 5946POPC   PO474472   8.710  13.094   5.261
 5946POPC   GL174473   8.928  13.147   5.685
 5946POPC   GL274474   9.282  13.232   5.743
 5946POPC   C1A74475   8.894  13.110   6.154
 5946POPC   D2A74476   8.860  12.813   6.491
 5946POPC   C3A74477   8.871  12.932   6.920
 5946POPC   C4A74478   8.864  12.614   7.243
 5946POPC   C1B74479   9.379  13.326   6.176
 5946POPC   C2B74480   9.238  13.190   6.613
 5946POPC   C3B74481   9.288  13.259   7.070
 5946POPC   C4B74482   9.388  13.022   7.463
 5947POPC   NC374483  17.330  13.050   5.562
 5947POPC   PO474484  17.690  12.511   5.193
 5947POPC   GL174485  17.789  12.788   5.633
 5947POPC   GL274486  17.773  13.133   5.811
 5947POPC   C1A74487  17.695  12.713   6.124
 5947POPC   D2A74488  17.320  12.631   6.392
 5947POPC   C3A74489  17.386  12.749   6.816
 5947POPC   C4A74490  17.735  12.651   7.110
 5947POPC   C1B74491  17.539  13.158   6.250
 5947POPC   C2B74492  17.691  13.138   6.676
 5947POPC   C3B74493  17.532  13.162   7.107
 5947POPC   C4B74494  17.810  13.180   7.430
 5948POPC   NC374495  44.214  22.997   5.401
 5948POPC   PO474496  44.834  23.401   5.342
 5948POPC   GL174497  44.751  23.234   5.817
 5948POPC   GL274498  44.478  22.952   5.869
 5948POPC   C1A74499  44.529  23.291   6.265
 5948POPC   D2A74500  44.409  23.102   6.701
 5948POPC   C3A74501  44.693  23.026   7.048
 5948POPC   C4A74502  44.680  23.009   7.497
 5948POPC   C1B74503  44.249  22.825   6.286
 5948POPC   C2B74504  44.200  22.599   6.711
 5948POPC   C3B74505  44.473  22.568   7.106
 5948POPC   C4B74506  44.365  22.623   7.572
 5949POPC   NC374507  25.127  29.064   5.370
 5949POPC   PO474508  24.473  29.108   5.511
 5949POPC   GL174509  24.456  29.355   5.845
 5949POPC   GL274510  24.817  29.407   5.881
 5949POPC   C1A74511  24.467  29.283   6.268
 5949POPC   D2A74512  24.749  29.367   6.590
 5949POPC   C3A74513  24.530  29.184   6.889
 5949POPC   C4A74514  24.473  29.331   7.245
 5949POPC   C1B74515  24.937  29.092   6.183
 5949POPC   C2B74516  24.706  28.852   6.510
 5949POPC   C3B74517  24.796  28.758   6.923
 5949POPC   C4B74518  24.748  28.907   7.318
 5950POPC   NC374519  11.865   9.682   5.189
 5950POPC   PO474520  11.246   9.727   5.397
 5950POPC   GL174521  11.530   9.770   5.745
 5950POPC   GL274522  11.423   9.463   5.890
 5950POPC   C1A74523  11.537  10.023   6.150
 5950POPC   D2A74524  11.307  10.107   6.550
 5950POPC   C3A74525  11.479   9.989   6.978
 5950POPC   C4A74526  11.243   9.774   7.351
 5950POPC   C1B74527  11.303   9.561   6.286
 5950POPC   C2B74528  11.543   9.587   6.640
 5950POPC   C3B74529  11.300   9.486   6.947
 5950POPC   C4B74530  11.350   9.280   7.304
 5951POPC   NC374531  24.723  10.392   5.407
 5951POPC   PO474532  24.325  10.867   5.173
 5951POPC   GL174533  24.449  10.812   5.671
 5951POPC   GL274534  24.486  10.479   5.836
 5951POPC   C1A74535  24.488  10.833   6.164
 5951POPC   D2A74536  24.648  10.681   6.587
 5951POPC   C3A74537  24.378  10.837   6.885
 5951POPC   C4A74538  24.243  10.511   7.129
 5951POPC   C1B74539  24.774  10.380   6.195
 5951POPC   C2B74540  24.755  10.139   6.564
 5951POPC   C3B74541  24.645  10.271   6.949
 5951POPC   C4B74542  24.751  10.187   7.366
 5952POPC   NC374543   6.192  35.090   5.605
 5952POPC   PO474544   5.588  35.169   5.288
 5952POPC   GL174545   5.703  35.107   5.729
 5952POPC   GL274546   5.885  35.418   5.838
 5952POPC   C1A74547   5.581  35.192   6.180
 5952POPC   D2A74548   5.601  35.074   6.627
 5952POPC   C3A74549   5.714  35.209   7.048
 5952POPC   C4A74550   5.451  35.158   7.416
 5952POPC   C1B74551   6.092  35.301   6.239
 5952POPC   C2B74552   6.057  35.320   6.669
 5952POPC   C3B74553   6.212  35.336   7.059
 5952POPC   C4B74554   6.125  35.629   7.358
 5953POPC   NC374555  37.251  16.553   5.087
 5953POPC   PO474556  36.630  16.624   5.424
 5953POPC   GL174557  36.772  16.789   5.832
 5953POPC   GL274558  36.480  16.948   5.957
 5953POPC   C1A74559  36.929  16.727   6.271
 5953POPC   D2A74560  37.194  16.538   6.612
 5953POPC   C3A74561  36.995  16.617   7.029
 5953POPC   C4A74562  37.015  16.861   7.386
 5953POPC   C1B74563  36.603  17.112   6.352
 5953POPC   C2B74564  36.740  16.954   6.743
 5953POPC   C3B74565  36.546  16.900   7.167
 5953POPC   C4B74566  36.566  16.878   7.625
 5954POPC   NC374567   8.130  38.004   5.503
 5954POPC   PO474568   7.791  37.485   5.316
 5954POPC   GL174569   7.970  37.544   5.772
 5954POPC   GL274570   8.348  37.619   5.771
 5954POPC   C1A74571   7.951  37.584   6.262
 5954POPC   D2A74572   7.850  37.887   6.629
 5954POPC   C3A74573   8.139  37.823   6.962
 5954POPC   C4A74574   8.196  37.658   7.411
 5954POPC   C1B74575   8.519  37.670   6.182
 5954POPC   C2B74576   8.413  37.567   6.603
 5954POPC   C3B74577   8.327  37.363   6.991
 5954POPC   C4B74578   7.998  37.225   7.273
 5955POPC   NC374579   3.593  10.449   5.363
 5955POPC   PO474580   3.626  11.117   5.288
 5955POPC   GL174581   3.600  10.775   5.748
 5955POPC   GL274582   3.352  10.422   5.801
 5955POPC   C1A74583   3.418  10.749   6.166
 5955POPC   D2A74584   3.491  10.582   6.545
 5955POPC   C3A74585   3.253  10.721   6.866
 5955POPC   C4A74586   3.413  10.684   7.262
 5955POPC   C1B74587   3.609  10.257   6.118
 5955POPC   C2B74588   3.597  10.065   6.531
 5955POPC   C3B74589   3.613  10.261   6.946
 5955POPC   C4B74590   3.439  10.168   7.333
 5956POPC   NC374591   6.107  19.603   5.448
 5956POPC   PO474592   6.148  18.877   5.498
 5956POPC   GL174593   5.850  19.057   5.825
 5956POPC   GL274594   5.704  19.384   5.733
 5956POPC   C1A74595   5.591  18.939   6.196
 5956POPC   D2A74596   5.579  18.678   6.557
 5956POPC   C3A74597   5.849  18.778   6.896
 5956POPC   C4A74598   5.836  19.008   7.242
 5956POPC   C1B74599   5.776  19.426   6.184
 5956POPC   C2B74600   5.832  19.205   6.591
 5956POPC   C3B74601   6.122  19.278   6.932
 5956POPC   C4B74602   6.240  19.296   7.355
 5957POPC   NC374603  16.326   6.508   5.477
 5957POPC   PO474604  15.959   6.988   5.449
 5957POPC   GL174605  16.065   6.796   5.814
 5957POPC   GL274606  15.729   6.660   5.848
 5957POPC   C1A74607  16.213   6.820   6.235
 5957POPC   D2A74608  16.158   7.074   6.599
 5957POPC   C3A74609  16.069   6.866   6.972
 5957POPC   C4A74610  15.711   6.873   7.240
 5957POPC   C1B74611  15.706   6.788   6.306
 5957POPC   C2B74612  15.640   6.668   6.753
 5957POPC   C3B74613  15.761   6.381   7.111
 5957POPC   C4B74614  16.067   6.338   7.436
 5958POPC   NC374615  28.402  18.995   5.357
 5958POPC   PO474616  28.380  19.650   5.513
 5958POPC   GL174617  28.458  19.296   5.786
 5958POPC   GL274618  28.165  19.091   5.803
 5958POPC   C1A74619  28.547  18.962   6.131
 5958POPC   D2A74620  28.379  18.968   6.596
 5958POPC   C3A74621  28.262  18.689   6.975
 5958POPC   C4A74622  28.359  18.823   7.409
 5958POPC   C1B74623  28.135  19.255   6.217
 5958POPC   C2B74624  27.877  19.249   6.587
 5958POPC   C3B74625  28.045  19.159   6.988
 5958POPC   C4B74626  28.314  19.442   7.199
 5959POPC   NC374627  44.216  11.669   5.580
 5959POPC   PO474628  44.684  11.270   5.247
 5959POPC   GL174629  44.529  11.258   5.659
 5959POPC   GL274630  44.712  11.533   5.797
 5959POPC   C1A74631  44.490  11.111   6.093
 5959POPC   D2A74632  44.635  10.960   6.510
 5959POPC   C3A74633  44.437  11.054   6.891
 5959POPC   C4A74634  44.642  11.049   7.261
 5959POPC   C1B74635  44.559  11.656   6.201
 5959POPC   C2B74636  44.526  11.479   6.617
 5959POPC   C3B74637  44.582  11.519   7.067
 5959POPC   C4B74638  44.322  11.410   7.447
 5960POPC   NC374639  21.317  42.496   5.397
 5960POPC   PO474640  20.992  41.936   5.542
 5960POPC   GL174641  21.238  42.209   5.839
 5960POPC   GL274642  21.589  42.325   5.791
 5960POPC   C1A74643  21.428  42.249   6.256
 5960POPC   D2A74644  21.460  41.978   6.568
 5960POPC   C3A74645  21.259  42.237   6.792
 5960POPC   C4A74646  21.345  42.312   7.192
 5960POPC   C1B74647  21.755  42.600   6.098
 5960POPC   C2B74648  21.619  42.647   6.544
 5960POPC   C3B74649  21.790  42.709   6.944
 5960POPC   C4B74650  21.650  42.661   7.370
 5961POPC   NC374651  29.636  23.477   5.349
 5961POPC   PO474652  29.259  24.071   5.442
 5961POPC   GL174653  29.275  23.671   5.715
 5961POPC   GL274654  29.567  23.533   5.898
 5961POPC   C1A74655  29.053  23.505   6.080
 5961POPC   D2A74656  28.937  23.515   6.513
 5961POPC   C3A74657  29.229  23.558   6.840
 5961POPC   C4A74658  29.127  23.699   7.253
 5961POPC   C1B74659  29.442  23.834   6.204
 5961POPC   C2B74660  29.271  23.990   6.570
 5961POPC   C3B74661  29.418  24.037   6.978
 5961POPC   C4B74662  29.625  23.704   7.150
 5962POPC   NC374663   6.656  10.857   5.259
 5962POPC   PO474664   6.437  10.169   5.427
 5962POPC   GL174665   6.564  10.418   5.762
 5962POPC   GL274666   6.755  10.728   5.750
 5962POPC   C1A74667   6.673  10.382   6.195
 5962POPC   D2A74668   6.554  10.225   6.616
 5962POPC   C3A74669   6.298  10.451   6.922
 5962POPC   C4A74670   6.580  10.301   7.206
 5962POPC   C1B74671   6.595  10.898   6.146
 5962POPC   C2B74672   6.555  10.738   6.570
 5962POPC   C3B74673   6.724  10.747   6.994
 5962POPC   C4B74674   6.651  10.758   7.460
 5963POPC   NC374675   7.323  37.681   5.469
 5963POPC   PO474676   7.788  38.029   5.810
 5963POPC   GL174677   7.437  37.861   5.959
 5963POPC   GL274678   7.455  37.510   5.924
 5963POPC   C1A74679   7.395  37.804   6.391
 5963POPC   D2A74680   7.348  37.577   6.733
 5963POPC   C3A74681   7.706  37.512   6.948
 5963POPC   C4A74682   7.748  37.806   7.269
 5963POPC   C1B74683   7.080  37.462   6.187
 5963POPC   C2B74684   6.925  37.321   6.591
 5963POPC   C3B74685   7.054  37.319   7.053
 5963POPC   C4B74686   7.001  37.301   7.504
 5964POPC   NC374687  19.346   9.840   5.555
 5964POPC   PO474688  18.744   9.650   5.490
 5964POPC   GL174689  18.878   9.476   5.864
 5964POPC   GL274690  19.235   9.417   5.863
 5964POPC   C1A74691  18.883   9.571   6.313
 5964POPC   D2A74692  18.872   9.907   6.600
 5964POPC   C3A74693  18.912   9.680   6.952
 5964POPC   C4A74694  18.905   9.327   7.235
 5964POPC   C1B74695  19.376   9.658   6.208
 5964POPC   C2B74696  19.302   9.606   6.633
 5964POPC   C3B74697  19.392   9.845   6.962
 5964POPC   C4B74698  19.679   9.949   7.208
 5965POPC   NC374699  29.408   2.655   5.416
 5965POPC   PO474700  28.784   2.801   5.560
 5965POPC   GL174701  29.121   2.829   5.809
 5965POPC   GL274702  29.145   2.515   5.877
 5965POPC   C1A74703  29.255   2.939   6.239
 5965POPC   D2A74704  29.140   3.092   6.662
 5965POPC   C3A74705  29.222   2.791   6.989
 5965POPC   C4A74706  29.324   2.925   7.393
 5965POPC   C1B74707  28.826   2.634   6.188
 5965POPC   C2B74708  28.904   2.624   6.604
 5965POPC   C3B74709  28.833   2.430   6.968
 5965POPC   C4B74710  28.867   2.626   7.349
 5966POPC   NC374711  15.653  41.139   5.434
 5966POPC   PO474712  16.015  40.557   5.304
 5966POPC   GL174713  15.843  40.656   5.746
 5966POPC   GL274714  16.107  40.394   5.829
 5966POPC   C1A74715  15.719  40.930   6.186
 5966POPC   D2A74716  15.817  41.198   6.597
 5966POPC   C3A74717  15.800  41.046   7.019
 5966POPC   C4A74718  15.681  40.783   7.382
 5966POPC   C1B74719  15.898  40.468   6.232
 5966POPC   C2B74720  15.695  40.593   6.652
 5966POPC   C3B74721  15.768  40.358   7.048
 5966POPC   C4B74722  15.930  40.360   7.484
 5967POPC   NC374723   2.610  17.802   5.725
 5967POPC   PO474724   3.260  17.679   5.650
 5967POPC   GL174725   2.977  17.526   5.989
 5967POPC   GL274726   2.696  17.299   5.853
 5967POPC   C1A74727   2.760  17.690   6.373
 5967POPC   D2A74728   2.749  17.795   6.791
 5967POPC   C3A74729   2.799  17.576   7.150
 5967POPC   C4A74730   2.553  17.666   7.543
 5967POPC   C1B74731   2.684  17.201   6.283
 5967POPC   C2B74732   2.605  17.283   6.694
 5967POPC   C3B74733   2.564  17.021   7.017
 5967POPC   C4B74734   2.599  17.172   7.373
 5968POPC   NC374735   5.771  13.916   5.203
 5968POPC   PO474736   5.480  13.411   5.572
 5968POPC   GL174737   5.899  13.436   5.867
 5968POPC   GL274738   5.993  13.806   6.016
 5968POPC   C1A74739   6.079  13.414   6.293
 5968POPC   D2A74740   5.791  13.641   6.584
 5968POPC   C3A74741   5.796  13.543   7.022
 5968POPC   C4A74742   5.453  13.725   7.210
 5968POPC   C1B74743   6.245  13.874   6.420
 5968POPC   C2B74744   6.249  13.653   6.794
 5968POPC   C3B74745   6.236  13.842   7.195
 5968POPC   C4B74746   6.426  13.902   7.647
 5969POPC   NC374747   2.947  29.044   5.427
 5969POPC   PO474748   2.265  29.172   5.453
 5969POPC   GL174749   2.579  29.219   5.766
 5969POPC   GL274750   2.585  28.879   5.831
 5969POPC   C1A74751   2.723  29.347   6.196
 5969POPC   D2A74752   2.678  29.114   6.577
 5969POPC   C3A74753   2.727  29.305   6.996
 5969POPC   C4A74754   2.560  29.271   7.411
 5969POPC   C1B74755   2.958  28.892   6.074
 5969POPC   C2B74756   3.105  28.854   6.496
 5969POPC   C3B74757   2.953  28.829   6.907
 5969POPC   C4B74758   2.920  28.895   7.338
 5970POPC   NC374759  33.365  35.448   5.371
 5970POPC   PO474760  32.853  34.990   5.444
 5970POPC   GL174761  33.104  35.203   5.746
 5970POPC   GL274762  32.897  35.531   5.798
 5970POPC   C1A74763  33.220  35.303   6.168
 5970POPC   D2A74764  33.007  35.561   6.477
 5970POPC   C3A74765  33.137  35.530   6.900
 5970POPC   C4A74766  33.251  35.184   7.161
 5970POPC   C1B74767  32.710  35.251   6.127
 5970POPC   C2B74768  32.882  35.066   6.503
 5970POPC   C3B74769  32.782  35.141   6.894
 5970POPC   C4B74770  32.723  35.447   7.205
 5971POPC   NC374771  42.047  28.560   5.575
 5971POPC   PO474772  41.468  28.474   5.145
 5971POPC   GL174773  41.543  28.395   5.619
 5971POPC   GL274774  41.609  28.697   5.794
 5971POPC   C1A74775  41.647  28.272   6.089
 5971POPC   D2A74776  41.683  28.047   6.510
 5971POPC   C3A74777  41.489  28.257   6.870
 5971POPC   C4A74778  41.564  28.228   7.290
 5971POPC   C1B74779  41.538  28.810   6.231
 5971POPC   C2B74780  41.454  28.742   6.683
 5971POPC   C3B74781  41.366  28.710   7.138
 5971POPC   C4B74782  41.216  28.504   7.520
 5972POPC   NC374783  22.589  40.847   5.275
 5972POPC   PO474784  23.104  40.496   5.308
 5972POPC   GL174785  23.023  40.606   5.735
 5972POPC   GL274786  22.711  40.756   5.758
 5972POPC   C1A74787  23.235  40.489   6.127
 5972POPC   D2A74788  23.467  40.609   6.491
 5972POPC   C3A74789  23.317  40.613   6.906
 5972POPC   C4A74790  23.090  40.712   7.259
 5972POPC   C1B74791  22.865  40.867   6.163
 5972POPC   C2B74792  22.995  40.876   6.583
 5972POPC   C3B74793  22.769  40.951   6.958
 5972POPC   C4B74794  22.647  41.108   7.335
 5973POPC   NC374795  26.804   4.611   5.374
 5973POPC   PO474796  27.087   4.034   5.515
 5973POPC   GL174797  26.906   4.291   5.808
 5973POPC   GL274798  27.177   4.523   5.756
 5973POPC   C1A74799  26.737   4.284   6.236
 5973POPC   D2A74800  26.893   4.111   6.631
 5973POPC   C3A74801  26.694   4.115   7.029
 5973POPC   C4A74802  26.534   4.256   7.458
 5973POPC   C1B74803  27.077   4.675   6.165
 5973POPC   C2B74804  26.899   4.689   6.561
 5973POPC   C3B74805  26.990   4.528   6.946
 5973POPC   C4B74806  26.795   4.658   7.304
 5974POPC   NC374807  16.874  23.542   5.222
 5974POPC   PO474808  16.353  23.974   5.192
 5974POPC   GL174809  16.627  23.773   5.625
 5974POPC   GL274810  16.916  23.513   5.719
 5974POPC   C1A74811  16.552  23.671   6.096
 5974POPC   D2A74812  16.400  23.800   6.537
 5974POPC   C3A74813  16.643  23.744   6.901
 5974POPC   C4A74814  16.628  23.481   7.253
 5974POPC   C1B74815  17.067  23.789   6.054
 5974POPC   C2B74816  16.948  23.696   6.477
 5974POPC   C3B74817  17.128  23.577   6.878
 5974POPC   C4B74818  17.085  23.247   7.187
 5975POPC   NC374819  41.741  41.761   5.331
 5975POPC   PO474820  41.139  41.615   5.500
 5975POPC   GL174821  41.370  41.652   5.877
 5975POPC   GL274822  41.596  41.930   5.804
 5975POPC   C1A74823  41.226  41.730   6.301
 5975POPC   D2A74824  41.052  41.660   6.716
 5975POPC   C3A74825  41.342  41.688   7.094
 5975POPC   C4A74826  41.258  41.543   7.526
 5975POPC   C1B74827  41.744  41.855   6.218
 5975POPC   C2B74828  41.944  41.727   6.603
 5975POPC   C3B74829  41.936  41.814   7.048
 5975POPC   C4B74830  41.734  41.728   7.469
 5976POPC   NC374831  10.468  18.656   5.312
 5976POPC   PO474832  10.614  19.339   5.254
 5976POPC   GL174833  10.445  19.315   5.712
 5976POPC   GL274834  10.532  18.968   5.841
 5976POPC   C1A74835  10.585  19.342   6.180
 5976POPC   D2A74836  10.618  19.022   6.540
 5976POPC   C3A74837  10.811  19.215   6.911
 5976POPC   C4A74838  10.741  19.346   7.343
 5976POPC   C1B74839  10.243  18.821   6.208
 5976POPC   C2B74840  10.145  18.807   6.654
 5976POPC   C3B74841  10.255  18.672   7.033
 5976POPC   C4B74842  10.535  18.903   7.212
 5977POPC   NC374843  32.840  26.557   5.204
 5977POPC   PO474844  32.778  25.929   5.472
 5977POPC   GL174845  33.077  25.815   5.794
 5977POPC   GL274846  33.138  26.138   5.890
 5977POPC   C1A74847  33.228  25.776   6.244
 5977POPC   D2A74848  33.302  26.074   6.614
 5977POPC   C3A74849  33.133  26.010   7.005
 5977POPC   C4A74850  32.823  25.782   7.166
 5977POPC   C1B74851  32.982  26.285   6.268
 5977POPC   C2B74852  33.055  26.544   6.635
 5977POPC   C3B74853  33.196  26.509   7.056
 5977POPC   C4B74854  32.890  26.376   7.380
 5978POPC   NC374855  39.626  24.610   5.222
 5978POPC   PO474856  39.052  24.303   5.407
 5978POPC   GL174857  39.100  24.506   5.817
 5978POPC   GL274858  38.798  24.710   5.880
 5978POPC   C1A74859  39.341  24.457   6.214
 5978POPC   D2A74860  39.359  24.530   6.658
 5978POPC   C3A74861  39.231  24.279   7.000
 5978POPC   C4A74862  38.983  24.363   7.336
 5978POPC   C1B74863  38.934  24.766   6.321
 5978POPC   C2B74864  38.999  24.888   6.768
 5978POPC   C3B74865  39.194  24.786   7.141
 5978POPC   C4B74866  39.217  24.749   7.610
 5979POPC   NC374867  19.642  27.596   5.155
 5979POPC   PO474868  19.758  26.931   5.206
 5979POPC   GL174869  19.861  26.879   5.687
 5979POPC   GL274870  20.184  26.655   5.685
 5979POPC   C1A74871  19.799  27.070   6.112
 5979POPC   D2A74872  19.739  26.971   6.550
 5979POPC   C3A74873  19.619  27.140   6.950
 5979POPC   C4A74874  19.808  27.017   7.346
 5979POPC   C1B74875  20.039  26.616   6.120
 5979POPC   C2B74876  19.938  26.498   6.530
 5979POPC   C3B74877  20.063  26.524   6.938
 5979POPC   C4B74878  19.896  26.521   7.357
 5980POPC   NC374879  34.977  18.428   5.474
 5980POPC   PO474880  35.560  18.687   5.221
 5980POPC   GL174881  35.594  18.575   5.748
 5980POPC   GL274882  35.351  18.297   5.797
 5980POPC   C1A74883  35.416  18.529   6.232
 5980POPC   D2A74884  35.260  18.330   6.599
 5980POPC   C3A74885  35.454  18.362   6.996
 5980POPC   C4A74886  35.453  18.521   7.443
 5980POPC   C1B74887  35.391  18.024   6.189
 5980POPC   C2B74888  35.191  17.838   6.572
 5980POPC   C3B74889  35.267  17.887   6.968
 5980POPC   C4B74890  35.339  18.045   7.377
 5981POPC   NC374891  17.885   5.328   5.479
 5981POPC   PO474892  17.361   5.914   5.345
 5981POPC   GL174893  17.540   5.989   5.757
 5981POPC   GL274894  17.665   5.670   5.807
 5981POPC   C1A74895  17.473   5.981   6.214
 5981POPC   D2A74896  17.197   5.952   6.581
 5981POPC   C3A74897  17.365   6.132   6.971
 5981POPC   C4A74898  17.662   6.080   7.259
 5981POPC   C1B74899  17.760   5.548   6.233
 5981POPC   C2B74900  17.665   5.740   6.641
 5981POPC   C3B74901  17.567   5.614   7.052
 5981POPC   C4B74902  17.789   5.637   7.432
 5982POPC   NC374903  34.087  32.288   5.427
 5982POPC   PO474904  34.649  31.878   5.468
 5982POPC   GL174905  34.444  32.163   5.776
 5982POPC   GL274906  34.745  32.145   5.937
 5982POPC   C1A74907  34.361  32.348   6.219
 5982POPC   D2A74908  34.577  32.210   6.615
 5982POPC   C3A74909  34.478  32.410   7.026
 5982POPC   C4A74910  34.481  32.363   7.452
 5982POPC   C1B74911  34.983  31.869   6.211
 5982POPC   C2B74912  35.068  32.032   6.629
 5982POPC   C3B74913  34.838  31.967   7.009
 5982POPC   C4B74914  34.781  31.935   7.457
 5983POPC   NC374915  38.770  16.044   5.376
 5983POPC   PO474916  38.074  16.259   5.308
 5983POPC   GL174917  38.229  16.209   5.707
 5983POPC   GL274918  37.863  16.251   5.803
 5983POPC   C1A74919  38.536  16.012   6.027
 5983POPC   D2A74920  38.500  15.705   6.354
 5983POPC   C3A74921  38.565  15.782   6.804
 5983POPC   C4A74922  38.617  15.577   7.211
 5983POPC   C1B74923  38.045  16.103   6.168
 5983POPC   C2B74924  38.289  16.163   6.507
 5983POPC   C3B74925  38.135  16.131   6.904
 5983POPC   C4B74926  38.419  16.066   7.238
 5984POPC   NC374927  25.058   7.883   5.640
 5984POPC   PO474928  25.317   7.300   5.310
 5984POPC   GL174929  25.331   7.147   5.750
 5984POPC   GL274930  25.007   7.313   5.819
 5984POPC   C1A74931  25.404   7.296   6.195
 5984POPC   D2A74932  25.255   7.615   6.529
 5984POPC   C3A74933  25.468   7.630   6.944
 5984POPC   C4A74934  25.465   7.445   7.379
 5984POPC   C1B74935  24.901   7.178   6.238
 5984POPC   C2B74936  25.104   7.128   6.653
 5984POPC   C3B74937  25.018   7.388   7.015
 5984POPC   C4B74938  24.989   7.286   7.445
 5985POPC   NC374939  23.368  44.211   5.187
 5985POPC   PO474940  23.773  44.789   5.327
 5985POPC   GL174941  23.726  44.946   5.787
 5985POPC   GL274942  23.601  44.639   5.830
 5985POPC   C1A74943  23.505  44.917   6.248
 5985POPC   D2A74944  23.351   0.146   6.605
 5985POPC   C3A74945  23.493  44.928   7.002
 5985POPC   C4A74946  23.761  44.840   7.348
 5985POPC   C1B74947  23.897  44.598   6.197
 5985POPC   C2B74948  23.792  44.722   6.632
 5985POPC   C3B74949  23.844  44.499   7.009
 5985POPC   C4B74950  23.618  44.366   7.413
 5986POPC   NC374951   3.455  12.273   5.387
 5986POPC   PO474952   3.336  11.610   5.570
 5986POPC   GL174953   3.398  11.974   5.831
 5986POPC   GL274954   3.701  12.109   5.845
 5986POPC   C1A74955   3.374  12.110   6.250
 5986POPC   D2A74956   3.371  12.391   6.602
 5986POPC   C3A74957   3.369  12.151   7.008
 5986POPC   C4A74958   3.613  12.088   7.420
 5986POPC   C1B74959   3.904  11.953   6.198
 5986POPC   C2B74960   3.735  12.029   6.599
 5986POPC   C3B74961   3.876  12.095   6.995
 5986POPC   C4B74962   3.977  12.441   7.305
 5987POPC   NC374963  26.987  17.842   4.977
 5987POPC   PO474964  27.164  17.538   5.571
 5987POPC   GL174965  26.869  17.574   5.926
 5987POPC   GL274966  26.566  17.757   5.810
 5987POPC   C1A74967  26.837  17.499   6.397
 5987POPC   D2A74968  26.924  17.639   6.828
 5987POPC   C3A74969  26.932  17.325   7.155
 5987POPC   C4A74970  27.100  16.970   7.389
 5987POPC   C1B74971  26.676  17.958   6.220
 5987POPC   C2B74972  26.504  17.916   6.659
 5987POPC   C3B74973  26.494  17.732   7.098
 5987POPC   C4B74974  26.726  17.671   7.465
 5988POPC   NC374975  12.415  21.944   5.494
 5988POPC   PO474976  12.925  22.388   5.626
 5988POPC   GL174977  12.819  22.257   6.006
 5988POPC   GL274978  12.494  22.219   5.919
 5988POPC   C1A74979  12.894  22.215   6.438
 5988POPC   D2A74980  13.239  22.172   6.709
 5988POPC   C3A74981  13.100  22.447   6.997
 5988POPC   C4A74982  12.665  22.416   7.054
 5988POPC   C1B74983  12.533  21.848   6.208
 5988POPC   C2B74984  12.756  21.728   6.565
 5988POPC   C3B74985  12.837  21.935   6.926
 5988POPC   C4B74986  12.451  21.955   7.140
 5989POPC   NC374987  14.796  39.869   5.604
 5989POPC   PO474988  15.289  40.303   5.518
 5989POPC   GL174989  15.169  40.109   5.847
 5989POPC   GL274990  15.317  39.781   5.755
 5989POPC   C1A74991  15.029  39.958   6.214
 5989POPC   D2A74992  14.877  40.151   6.562
 5989POPC   C3A74993  14.851  40.275   6.977
 5989POPC   C4A74994  14.937  40.336   7.401
 5989POPC   C1B74995  15.496  39.739   6.179
 5989POPC   C2B74996  15.264  39.684   6.570
 5989POPC   C3B74997  15.064  39.821   6.913
 5989POPC   C4B74998  15.269  40.031   7.191
 5990POPC   NC374999  29.559  27.010   5.385
 5990POPC   PO475000  30.077  26.769   5.539
 5990POPC   GL175001  29.916  26.825   5.921
 5990POPC   GL275002  29.638  27.052   5.913
 5990POPC   C1A75003  30.015  26.563   6.290
 5990POPC   D2A75004  30.202  26.444   6.702
 5990POPC   C3A75005  29.964  26.511   7.064
 5990POPC   C4A75006  30.089  26.728   7.476
 5990POPC   C1B75007  29.853  27.075   6.362
 5990POPC   C2B75008  29.966  26.989   6.805
 5990POPC   C3B75009  29.751  26.961   7.175
 5990POPC   C4B75010  29.378  27.110   7.305
 5991POPC   NC375011   7.886  30.915   5.443
 5991POPC   PO475012   8.315  30.475   5.592
 5991POPC   GL175013   7.999  30.448   5.878
 5991POPC   GL275014   8.034  30.812   5.932
 5991POPC   C1A75015   8.017  30.501   6.319
 5991POPC   D2A75016   8.068  30.849   6.573
 5991POPC   C3A75017   8.099  30.710   6.996
 5991POPC   C4A75018   8.149  30.700   7.474
 5991POPC   C1B75019   8.436  30.764   6.169
 5991POPC   C2B75020   8.593  30.923   6.545
 5991POPC   C3B75021   8.395  31.126   6.893
 5991POPC   C4B75022   8.540  30.848   7.200
 5992POPC   NC375023   0.588  27.281   5.217
 5992POPC   PO475024   0.586  26.692   5.472
 5992POPC   GL175025   0.354  26.812   5.807
 5992POPC   GL275026   0.583  27.088   5.823
 5992POPC   C1A75027   0.227  26.597   6.200
 5992POPC   D2A75028   0.077  26.544   6.638
 5992POPC   C3A75029   0.399  26.742   6.890
 5992POPC   C4A75030   0.457  26.678   7.306
 5992POPC   C1B75031   0.757  27.209   6.233
 5992POPC   C2B75032   0.809  27.244   6.680
 5992POPC   C3B75033   0.771  27.053   7.112
 5992POPC   C4B75034   0.651  27.072   7.580
 5993POPC   NC375035  34.106  33.130   5.460
 5993POPC   PO475036  33.644  32.555   5.305
 5993POPC   GL175037  33.703  32.872   5.662
 5993POPC   GL275038  33.445  32.815   5.849
 5993POPC   C1A75039  33.831  33.047   6.106
 5993POPC   D2A75040  34.179  33.054   6.443
 5993POPC   C3A75041  34.015  33.120   6.866
 5993POPC   C4A75042  33.666  33.067   7.145
 5993POPC   C1B75043  33.339  32.788   6.274
 5993POPC   C2B75044  33.523  32.900   6.664
 5993POPC   C3B75045  33.560  32.594   6.969
 5993POPC   C4B75046  33.585  32.533   7.405
 5994POPC   NC375047  39.370  26.454   5.492
 5994POPC   PO475048  39.516  27.195   5.456
 5994POPC   GL175049  39.416  26.890   5.771
 5994POPC   GL275050  39.080  26.739   5.828
 5994POPC   C1A75051  39.484  26.900   6.205
 5994POPC   D2A75052  39.245  26.817   6.568
 5994POPC   C3A75053  39.344  26.758   6.994
 5994POPC   C4A75054  39.443  27.067   7.311
 5994POPC   C1B75055  38.875  26.954   6.161
 5994POPC   C2B75056  38.856  27.114   6.577
 5994POPC   C3B75057  38.816  26.888   6.990
 5994POPC   C4B75058  38.923  27.117   7.383
 5995POPC   NC375059   5.690  36.623   5.329
 5995POPC   PO475060   6.142  37.068   5.572
 5995POPC   GL175061   6.090  36.732   5.833
 5995POPC   GL275062   5.727  36.709   5.815
 5995POPC   C1A75063   6.177  36.794   6.269
 5995POPC   D2A75064   5.945  36.908   6.608
 5995POPC   C3A75065   6.143  36.966   6.954
 5995POPC   C4A75066   5.923  36.826   7.248
 5995POPC   C1B75067   5.654  36.817   6.188
 5995POPC   C2B75068   5.506  36.626   6.528
 5995POPC   C3B75069   5.495  36.850   6.920
 5995POPC   C4B75070   5.566  37.222   7.186
 5996POPC   NC375071  31.533  24.850   5.299
 5996POPC   PO475072  31.674  24.245   5.280
 5996POPC   GL175073  31.529  24.365   5.751
 5996POPC   GL275074  31.255  24.626   5.756
 5996POPC   C1A75075  31.534  24.629   6.180
 5996POPC   D2A75076  31.276  24.630   6.537
 5996POPC   C3A75077  31.437  24.541   6.869
 5996POPC   C4A75078  31.718  24.631   7.186
 5996POPC   C1B75079  30.985  24.727   6.147
 5996POPC   C2B75080  30.859  24.916   6.563
 5996POPC   C3B75081  31.106  24.928   6.943
 5996POPC   C4B75082  31.212  24.697   7.298
 5997POPC   NC375083   1.732   1.434   5.561
 5997POPC   PO475084   1.205   1.122   5.537
 5997POPC   GL175085   1.109   1.427   5.879
 5997POPC   GL275086   1.316   1.203   6.075
 5997POPC   C1A75087   0.985   1.539   6.322
 5997POPC   D2A75088   1.276   1.365   6.596
 5997POPC   C3A75089   1.265   1.165   6.995
 5997POPC   C4A75090   1.272   1.199   7.423
 5997POPC   C1B75091   1.708   1.250   6.344
 5997POPC   C2B75092   1.745   1.303   6.799
 5997POPC   C3B75093   1.733   0.990   7.138
 5997POPC   C4B75094   1.687   0.965   7.596
 5998POPC   NC375095   3.405  28.483   5.377
 5998POPC   PO475096   4.096  28.252   5.272
 5998POPC   GL175097   3.834  28.278   5.686
 5998POPC   GL275098   3.709  28.629   5.759
 5998POPC   C1A75099   3.642  28.271   6.133
 5998POPC   D2A75100   3.824  28.203   6.527
 5998POPC   C3A75101   3.516  28.184   6.838
 5998POPC   C4A75102   3.622  28.154   7.235
 5998POPC   C1B75103   3.471  28.765   6.125
 5998POPC   C2B75104   3.546  28.616   6.545
 5998POPC   C3B75105   3.526  28.731   6.984
 5998POPC   C4B75106   3.222  28.487   7.203
 5999POPC   NC375107  44.626  33.010   5.410
 5999POPC   PO475108   0.228  33.308   5.280
 5999POPC   GL175109   0.011  33.226   5.691
 5999POPC   GL275110  44.986  32.849   5.717
 5999POPC   C1A75111  44.815  33.178   6.117
 5999POPC   D2A75112  44.487  33.020   6.393
 5999POPC   C3A75113  44.585  32.986   6.836
 5999POPC   C4A75114  44.518  32.902   7.263
 5999POPC   C1B75115  44.751  32.661   6.069
 5999POPC   C2B75116  44.769  32.592   6.521
 5999POPC   C3B75117  44.732  32.529   6.972
 5999POPC   C4B75118  44.859  32.544   7.403
 6000POPC   NC375119  12.838  36.601   5.365
 6000POPC   PO475120  13.101  37.225   5.428
 6000POPC   GL175121  13.076  36.880   5.757
 6000POPC   GL275122  12.722  36.795   5.820
 6000POPC   C1A75123  13.026  36.668   6.175
 6000POPC   D2A75124  12.766  36.694   6.506
 6000POPC   C3A75125  13.019  36.856   6.827
 6000POPC   C4A75126  13.145  36.987   7.228
 6000POPC   C1B75127  12.567  36.430   6.082
 6000POPC   C2B75128  12.470  36.246   6.509
 6000POPC   C3B75129  12.603  36.443   6.917
 6000POPC   C4B75130  12.693  36.767   7.210
 6001POPC   NC375131  30.432   0.244   5.436
 6001POPC   PO475132  31.063   0.242   5.523
 6001POPC   GL175133  30.713   0.340   5.897
 6001POPC   GL275134  30.322   0.429   5.928
 6001POPC   C1A75135  30.661   0.403   6.385
 6001POPC   D2A75136  30.715   0.179   6.812
 6001POPC   C3A75137  30.659   0.407   7.184
 6001POPC   C4A75138  30.847   0.798   7.342
 6001POPC   C1B75139  30.191   0.228   6.349
 6001POPC   C2B75140  30.290  44.927   6.701
 6001POPC   C3B75141  30.346  44.877   7.157
 6001POPC   C4B75142  30.469   0.073   7.590
 6002POPC   NC375143   3.640  34.033   5.391
 6002POPC   PO475144   3.771  33.390   5.488
 6002POPC   GL175145   3.577  33.690   5.797
 6002POPC   GL275146   3.287  33.944   5.786
 6002POPC   C1A75147   3.550  33.771   6.253
 6002POPC   D2A75148   3.516  34.033   6.624
 6002POPC   C3A75149   3.620  33.880   7.030
 6002POPC   C4A75150   3.615  33.478   7.224
 6002POPC   C1B75151   3.063  33.665   6.106
 6002POPC   C2B75152   3.160  33.409   6.497
 6002POPC   C3B75153   3.193  33.570   6.934
 6002POPC   C4B75154   3.125  33.989   7.125
 6003POPC   NC375155   9.690  40.882   5.482
 6003POPC   PO475156   9.769  40.327   5.177
 6003POPC   GL175157   9.657  40.426   5.683
 6003POPC   GL275158   9.905  40.425   5.916
 6003POPC   C1A75159   9.539  40.744   6.077
 6003POPC   D2A75160   9.595  40.825   6.528
 6003POPC   C3A75161   9.550  41.153   6.829
 6003POPC   C4A75162   9.469  40.940   7.212
 6003POPC   C1B75163  10.016  40.746   6.215
 6003POPC   C2B75164  10.131  40.746   6.662
 6003POPC   C3B75165   9.960  40.942   7.043
 6003POPC   C4B75166   9.835  41.133   7.488
 6004POPC   NC375167  38.201  14.182   5.451
 6004POPC   PO475168  38.613  14.720   5.295
 6004POPC   GL175169  38.446  14.800   5.746
 6004POPC   GL275170  38.069  14.755   5.800
 6004POPC   C1A75171  38.646  14.793   6.191
 6004POPC   D2A75172  38.724  14.490   6.525
 6004POPC   C3A75173  38.470  14.261   6.837
 6004POPC   C4A75174  38.622  14.180   7.260
 6004POPC   C1B75175  38.164  14.638   6.248
 6004POPC   C2B75176  38.287  14.753   6.673
 6004POPC   C3B75177  38.407  14.684   7.098
 6004POPC   C4B75178  38.178  14.384   7.352
 6005POPC   NC375179  25.897   4.757   5.577
 6005POPC   PO475180  25.731   5.413   5.500
 6005POPC   GL175181  25.954   5.224   5.861
 6005POPC   GL275182  26.235   4.988   5.870
 6005POPC   C1A75183  26.088   5.314   6.281
 6005POPC   D2A75184  25.861   5.434   6.661
 6005POPC   C3A75185  25.901   5.137   6.993
 6005POPC   C4A75186  26.082   5.152   7.391
 6005POPC   C1B75187  25.992   4.793   6.222
 6005POPC   C2B75188  26.065   4.732   6.656
 6005POPC   C3B75189  26.316   4.776   7.024
 6005POPC   C4B75190  25.990   4.681   7.239
 6006POPC   NC375191  15.561   1.137   5.324
 6006POPC   PO475192  14.863   0.916   5.389
 6006POPC   GL175193  15.162   1.012   5.747
 6006POPC   GL275194  15.064   1.330   5.897
 6006POPC   C1A75195  15.409   1.044   6.170
 6006POPC   D2A75196  15.469   0.867   6.600
 6006POPC   C3A75197  15.328   1.005   6.999
 6006POPC   C4A75198  15.461   1.171   7.388
 6006POPC   C1B75199  14.923   1.187   6.294
 6006POPC   C2B75200  15.174   1.321   6.631
 6006POPC   C3B75201  15.107   1.483   7.055
 6006POPC   C4B75202  15.069   1.458   7.534
 6007POPC   NC375203  28.883  26.356   5.308
 6007POPC   PO475204  29.188  26.902   5.101
 6007POPC   GL175205  29.096  26.795   5.562
 6007POPC   GL275206  29.379  26.624   5.722
 6007POPC   C1A75207  29.053  26.851   6.050
 6007POPC   D2A75208  29.117  26.749   6.521
 6007POPC   C3A75209  29.058  26.904   6.942
 6007POPC   C4A75210  28.867  27.105   7.281
 6007POPC   C1B75211  29.508  26.646   6.166
 6007POPC   C2B75212  29.619  26.682   6.571
 6007POPC   C3B75213  29.474  26.617   6.907
 6007POPC   C4B75214  29.390  26.548   7.273
 6008POPC   NC375215  41.168   8.815   5.363
 6008POPC   PO475216  40.599   9.245   5.144
 6008POPC   GL175217  40.740   9.015   5.539
 6008POPC   GL275218  40.956   9.259   5.686
 6008POPC   C1A75219  40.843   8.876   6.009
 6008POPC   D2A75220  40.998   8.855   6.466
 6008POPC   C3A75221  40.734   8.836   6.871
 6008POPC   C4A75222  40.693   8.675   7.303
 6008POPC   C1B75223  41.183   9.281   6.115
 6008POPC   C2B75224  41.298   9.274   6.560
 6008POPC   C3B75225  41.224   9.006   6.911
 6008POPC   C4B75226  40.986   9.082   7.279
 6009POPC   NC375227   9.356   7.416   5.413
 6009POPC   PO475228   9.810   7.905   5.177
 6009POPC   GL175229   9.819   7.771   5.629
 6009POPC   GL275230   9.509   7.830   5.756
 6009POPC   C1A75231   9.800   7.533   6.065
 6009POPC   D2A75232   9.589   7.592   6.506
 6009POPC   C3A75233   9.726   7.366   6.897
 6009POPC   C4A75234   9.599   6.982   7.124
 6009POPC   C1B75235   9.310   7.945   6.148
 6009POPC   C2B75236   9.161   7.904   6.558
 6009POPC   C3B75237   9.343   7.824   6.951
 6009POPC   C4B75238   9.700   7.790   7.189
 6010POPC   NC375239   0.915  15.162   5.460
 6010POPC   PO475240   0.234  15.355   5.297
 6010POPC   GL175241   0.424  15.023   5.605
 6010POPC   GL275242   0.498  15.333   5.750
 6010POPC   C1A75243   0.548  14.948   6.072
 6010POPC   D2A75244   0.468  14.956   6.514
 6010POPC   C3A75245   0.789  14.960   6.867
 6010POPC   C4A75246   0.574  14.736   7.179
 6010POPC   C1B75247   0.658  15.477   6.138
 6010POPC   C2B75248   0.694  15.401   6.567
 6010POPC   C3B75249   0.425  15.298   6.922
 6010POPC   C4B75250   0.499  15.268   7.351
 6011POPC   NC375251  27.999  33.309   5.392
 6011POPC   PO475252  27.725  32.705   5.467
 6011POPC   GL175253  27.671  32.947   5.867
 6011POPC   GL275254  27.307  33.058   5.912
 6011POPC   C1A75255  27.743  32.948   6.331
 6011POPC   D2A75256  27.977  32.988   6.725
 6011POPC   C3A75257  27.708  33.215   6.977
 6011POPC   C4A75258  27.292  33.097   7.090
 6011POPC   C1B75259  27.249  32.766   6.248
 6011POPC   C2B75260  27.464  32.521   6.524
 6011POPC   C3B75261  27.592  32.669   6.929
 6011POPC   C4B75262  27.401  32.599   7.318
 6012POPC   NC375263  40.364  42.662   5.455
 6012POPC   PO475264  40.126  42.102   5.221
 6012POPC   GL175265  40.234  42.190   5.661
 6012POPC   GL275266  39.959  42.402   5.705
 6012POPC   C1A75267  40.237  42.256   6.121
 6012POPC   D2A75268  39.972  42.213   6.472
 6012POPC   C3A75269  40.192  42.325   6.823
 6012POPC   C4A75270  40.074  42.180   7.198
 6012POPC   C1B75271  39.827  42.600   6.085
 6012POPC   C2B75272  39.809  42.695   6.516
 6012POPC   C3B75273  39.783  42.592   6.960
 6012POPC   C4B75274  40.127  42.687   7.228
 6013POPC   NC375275  34.300  10.563   5.431
 6013POPC   PO475276  34.947  10.335   5.392
 6013POPC   GL175277  34.856  10.439   5.801
 6013POPC   GL275278  34.742  10.735   5.713
 6013POPC   C1A75279  34.493  10.466   6.104
 6013POPC   D2A75280  34.384  10.536   6.534
 6013POPC   C3A75281  34.630  10.365   6.860
 6013POPC   C4A75282  34.488  10.211   7.221
 6013POPC   C1B75283  34.686  10.952   6.099
 6013POPC   C2B75284  34.842  11.014   6.492
 6013POPC   C3B75285  34.587  10.911   6.852
 6013POPC   C4B75286  34.557  10.708   7.261
 6014POPC   NC375287   8.862  26.017   5.131
 6014POPC   PO475288   8.705  25.976   5.755
 6014POPC   GL175289   9.074  25.824   5.929
 6014POPC   GL275290   9.274  26.125   5.963
 6014POPC   C1A75291   9.198  25.827   6.357
 6014POPC   D2A75292   8.978  25.965   6.719
 6014POPC   C3A75293   9.154  25.866   7.102
 6014POPC   C4A75294   8.955  25.598   7.388
 6014POPC   C1B75295   8.912  26.259   6.287
 6014POPC   C2B75296   8.692  26.414   6.656
 6014POPC   C3B75297   8.857  26.327   7.068
 6014POPC   C4B75298   8.889  26.144   7.476
 6015POPC   NC375299  26.749  33.365   5.131
 6015POPC   PO475300  26.906  33.927   5.477
 6015POPC   GL175301  26.894  33.859   5.888
 6015POPC   GL275302  27.261  33.756   5.925
 6015POPC   C1A75303  26.541  33.916   6.188
 6015POPC   D2A75304  26.384  34.091   6.587
 6015POPC   C3A75305  26.563  33.892   6.974
 6015POPC   C4A75306  26.881  33.963   7.264
 6015POPC   C1B75307  27.017  33.478   6.222
 6015POPC   C2B75308  26.827  33.534   6.650
 6015POPC   C3B75309  27.052  33.543   7.062
 6015POPC   C4B75310  27.144  33.528   7.527
 6016POPC   NC375311  36.723   8.030   5.486
 6016POPC   PO475312  37.134   8.473   5.653
 6016POPC   GL175313  37.017   8.104   5.934
 6016POPC   GL275314  36.663   7.986   5.992
 6016POPC   C1A75315  37.000   8.042   6.399
 6016POPC   D2A75316  37.079   7.712   6.706
 6016POPC   C3A75317  37.199   7.888   7.060
 6016POPC   C4A75318  37.073   8.251   7.279
 6016POPC   C1B75319  36.689   8.428   6.171
 6016POPC   C2B75320  36.775   8.494   6.607
 6016POPC   C3B75321  36.678   8.219   6.938
 6016POPC   C4B75322  36.557   8.240   7.364
 6017POPC   NC375323  31.778   2.870   5.364
 6017POPC   PO475324  31.205   2.754   5.477
 6017POPC   GL175325  31.470   2.906   5.824
 6017POPC   GL275326  31.773   3.135   5.809
 6017POPC   C1A75327  31.413   2.795   6.264
 6017POPC   D2A75328  31.247   2.616   6.640
 6017POPC   C3A75329  31.367   2.810   7.009
 6017POPC   C4A75330  31.530   2.712   7.415
 6017POPC   C1B75331  31.719   3.278   6.235
 6017POPC   C2B75332  31.589   3.111   6.639
 6017POPC   C3B75333  31.670   3.232   7.069
 6017POPC   C4B75334  31.778   3.148   7.495
 6018POPC   NC375335  43.074  31.264   5.408
 6018POPC   PO475336  43.535  31.731   5.420
 6018POPC   GL175337  43.301  31.581   5.788
 6018POPC   GL275338  43.294  31.245   5.852
 6018POPC   C1A75339  43.073  31.567   6.192
 6018POPC   D2A75340  43.315  31.532   6.596
 6018POPC   C3A75341  43.063  31.623   6.950
 6018POPC   C4A75342  43.141  31.687   7.372
 6018POPC   C1B75343  43.307  31.113   6.266
 6018POPC   C2B75344  42.955  31.172   6.547
 6018POPC   C3B75345  42.894  31.126   6.956
 6018POPC   C4B75346  43.132  31.196   7.318
 6019POPC   NC375347  33.595  38.782   5.452
 6019POPC   PO475348  34.042  39.279   5.231
 6019POPC   GL175349  33.870  39.324   5.682
 6019POPC   GL275350  33.592  39.165   5.861
 6019POPC   C1A75351  33.940  39.511   6.096
 6019POPC   D2A75352  34.042  39.403   6.541
 6019POPC   C3A75353  33.722  39.356   6.858
 6019POPC   C4A75354  33.854  39.543   7.245
 6019POPC   C1B75355  33.720  39.081   6.284
 6019POPC   C2B75356  33.861  38.895   6.667
 6019POPC   C3B75357  33.693  38.868   7.062
 6019POPC   C4B75358  33.495  39.167   7.291
 6020POPC   NC375359   0.892  33.363   5.558
 6020POPC   PO475360   1.053  33.015   5.012
 6020POPC   GL175361   1.208  32.968   5.569
 6020POPC   GL275362   1.250  33.213   5.890
 6020POPC   C1A75363   1.158  32.776   6.080
 6020POPC   D2A75364   1.222  33.017   6.467
 6020POPC   C3A75365   1.227  32.830   6.893
 6020POPC   C4A75366   1.544  32.903   7.198
 6020POPC   C1B75367   1.005  33.418   6.213
 6020POPC   C2B75368   1.108  33.539   6.620
 6020POPC   C3B75369   1.245  33.346   6.966
 6020POPC   C4B75370   0.980  33.199   7.239
 6021POPC   NC375371  22.931  27.000   5.389
 6021POPC   PO475372  22.821  26.326   5.174
 6021POPC   GL175373  22.940  26.551   5.648
 6021POPC   GL275374  23.068  26.874   5.857
 6021POPC   C1A75375  22.723  26.600   6.098
 6021POPC   D2A75376  22.623  26.887   6.477
 6021POPC   C3A75377  22.887  26.884   6.869
 6021POPC   C4A75378  22.756  27.057   7.282
 6021POPC   C1B75379  23.407  26.649   6.071
 6021POPC   C2B75380  23.552  26.586   6.463
 6021POPC   C3B75381  23.404  26.742   6.834
 6021POPC   C4B75382  23.218  26.591   7.220
 6022POPC   NC375383  44.870  39.101   5.516
 6022POPC   PO475384   0.045  39.754   5.477
 6022POPC   GL175385  44.868  39.600   5.877
 6022POPC   GL275386  44.868  39.251   5.990
 6022POPC   C1A75387  44.655  39.584   6.284
 6022POPC   D2A75388  44.853  39.397   6.648
 6022POPC   C3A75389  44.670  39.350   7.062
 6022POPC   C4A75390  44.492  39.360   7.490
 6022POPC   C1B75391  44.598  39.069   6.307
 6022POPC   C2B75392  44.398  39.053   6.728
 6022POPC   C3B75393  44.480  38.903   7.179
 6022POPC   C4B75394  44.846  39.005   7.433
 6023POPC   NC375395   1.812  14.559   5.644
 6023POPC   PO475396   1.923  14.015   5.213
 6023POPC   GL175397   2.042  14.116   5.759
 6023POPC   GL275398   2.217  14.396   5.960
 6023POPC   C1A75399   1.825  14.274   6.238
 6023POPC   D2A75400   1.978  14.514   6.609
 6023POPC   C3A75401   1.826  14.421   7.019
 6023POPC   C4A75402   1.948  14.251   7.436
 6023POPC   C1B75403   2.298  14.757   6.288
 6023POPC   C2B75404   2.292  14.898   6.744
 6023POPC   C3B75405   2.083  14.839   7.173
 6023POPC   C4B75406   2.195  14.696   7.643
 6024POPC   NC375407  27.128  25.516   5.269
 6024POPC   PO475408  26.686  25.084   5.402
 6024POPC   GL175409  26.849  25.266   5.773
 6024POPC   GL275410  27.038  25.576   5.773
 6024POPC   C1A75411  26.826  25.069   6.206
 6024POPC   D2A75412  26.721  25.023   6.665
 6024POPC   C3A75413  26.980  24.873   7.014
 6024POPC   C4A75414  26.886  24.870   7.499
 6024POPC   C1B75415  26.787  25.623   6.130
 6024POPC   C2B75416  26.852  25.514   6.537
 6024POPC   C3B75417  26.998  25.378   6.910
 6024POPC   C4B75418  27.088  25.291   7.315
 6025POPC   NC375419  12.611  27.660   5.503
 6025POPC   PO475420  13.058  27.148   5.387
 6025POPC   GL175421  12.986  27.419   5.741
 6025POPC   GL275422  13.101  27.769   5.691
 6025POPC   C1A75423  12.704  27.568   6.129
 6025POPC   D2A75424  12.510  27.594   6.526
 6025POPC   C3A75425  12.748  27.762   6.858
 6025POPC   C4A75426  12.905  27.773   7.274
 6025POPC   C1B75427  13.215  27.617   6.130
 6025POPC   C2B75428  13.060  27.509   6.533
 6025POPC   C3B75429  13.234  27.578   6.956
 6025POPC   C4B75430  13.325  27.498   7.412
 6026POPC   NC375431  42.237  20.788   5.479
 6026POPC   PO475432  42.722  20.366   5.518
 6026POPC   GL175433  42.395  20.424   5.828
 6026POPC   GL275434  42.358  20.776   5.962
 6026POPC   C1A75435  42.156  20.305   6.191
 6026POPC   D2A75436  42.330  20.290   6.590
 6026POPC   C3A75437  42.645  20.608   6.721
 6026POPC   C4A75438  42.728  20.618   7.167
 6026POPC   C1B75439  41.930  20.752   6.155
 6026POPC   C2B75440  42.125  20.731   6.541
 6026POPC   C3B75441  42.227  20.694   6.978
 6026POPC   C4B75442  41.974  20.745   7.314
 6027POPC   NC375443  23.673   8.764   5.354
 6027POPC   PO475444  23.933   9.419   5.560
 6027POPC   GL175445  23.831   9.191   5.904
 6027POPC   GL275446  23.874   8.849   5.824
 6027POPC   C1A75447  23.827   9.062   6.327
 6027POPC   D2A75448  23.909   8.951   6.723
 6027POPC   C3A75449  23.738   9.194   7.007
 6027POPC   C4A75450  23.951   9.245   7.370
 6027POPC   C1B75451  23.615   8.637   6.123
 6027POPC   C2B75452  23.764   8.544   6.488
 6027POPC   C3B75453  23.678   8.503   6.928
 6027POPC   C4B75454  23.879   8.754   7.219
 6028POPC   NC375455  35.632  29.512   5.606
 6028POPC   PO475456  35.360  28.928   5.236
 6028POPC   GL175457  35.243  29.111   5.679
 6028POPC   GL275458  35.117  29.460   5.763
 6028POPC   C1A75459  35.228  28.984   6.132
 6028POPC   D2A75460  35.543  28.920   6.475
 6028POPC   C3A75461  35.510  28.931   6.944
 6028POPC   C4A75462  35.678  29.257   7.247
 6028POPC   C1B75463  35.336  29.479   6.179
 6028POPC   C2B75464  35.223  29.297   6.575
 6028POPC   C3B75465  35.196  29.375   7.001
 6028POPC   C4B75466  35.142  29.371   7.426
 6029POPC   NC375467  35.009  30.294   5.303
 6029POPC   PO475468  35.423  30.868   5.236
 6029POPC   GL175469  35.438  30.747   5.649
 6029POPC   GL275470  35.432  30.387   5.611
 6029POPC   C1A75471  35.289  30.914   6.057
 6029POPC   D2A75472  35.062  30.719   6.395
 6029POPC   C3A75473  35.218  30.664   6.805
 6029POPC   C4A75474  35.302  30.885   7.167
 6029POPC   C1B75475  35.237  30.393   6.020
 6029POPC   C2B75476  35.420  30.353   6.444
 6029POPC   C3B75477  35.520  30.237   6.853
 6029POPC   C4B75478  35.299  30.359   7.257
 6030POPC   NC375479  30.381  32.568   5.555
 6030POPC   PO475480  31.030  32.357   5.257
 6030POPC   GL175481  30.781  32.300   5.724
 6030POPC   GL275482  30.492  32.117   5.880
 6030POPC   C1A75483  30.678  32.451   6.179
 6030POPC   D2A75484  30.709  32.230   6.551
 6030POPC   C3A75485  30.957  32.374   6.892
 6030POPC   C4A75486  30.813  32.489   7.302
 6030POPC   C1B75487  30.275  31.950   6.237
 6030POPC   C2B75488  30.368  31.841   6.687
 6030POPC   C3B75489  30.516  32.142   7.016
 6030POPC   C4B75490  30.386  32.565   7.013
 6031POPC   NC375491  21.003  33.044   5.338
 6031POPC   PO475492  21.664  33.082   5.462
 6031POPC   GL175493  21.421  32.865   5.761
 6031POPC   GL275494  21.077  32.755   5.736
 6031POPC   C1A75495  21.329  33.089   6.137
 6031POPC   D2A75496  21.579  33.278   6.458
 6031POPC   C3A75497  21.426  33.334   6.878
 6031POPC   C4A75498  21.548  33.190   7.287
 6031POPC   C1B75499  21.061  32.660   6.167
 6031POPC   C2B75500  21.308  32.784   6.558
 6031POPC   C3B75501  21.185  32.899   7.001
 6031POPC   C4B75502  21.073  33.059   7.413
 6032POPC   NC375503  42.395   7.650   5.313
 6032POPC   PO475504  42.556   7.047   5.635
 6032POPC   GL175505  42.394   7.296   5.950
 6032POPC   GL275506  42.181   7.515   5.769
 6032POPC   C1A75507  42.135   7.237   6.336
 6032POPC   D2A75508  42.093   7.031   6.760
 6032POPC   C3A75509  42.439   7.170   7.010
 6032POPC   C4A75510  42.798   7.382   7.095
 6032POPC   C1B75511  42.073   7.753   6.143
 6032POPC   C2B75512  42.242   7.709   6.558
 6032POPC   C3B75513  42.151   7.587   6.970
 6032POPC   C4B75514  41.964   7.291   7.211
 6033POPC   NC375515   4.656   7.614   5.665
 6033POPC   PO475516   5.062   7.348   5.221
 6033POPC   GL175517   5.174   7.346   5.731
 6033POPC   GL275518   5.576   7.430   5.800
 6033POPC   C1A75519   4.941   7.394   6.173
 6033POPC   D2A75520   4.703   7.624   6.510
 6033POPC   C3A75521   4.929   7.635   6.890
 6033POPC   C4A75522   4.879   7.475   7.288
 6033POPC   C1B75523   5.436   7.492   6.237
 6033POPC   C2B75524   5.253   7.195   6.540
 6033POPC   C3B75525   5.139   7.158   6.966
 6033POPC   C4B75526   5.361   7.286   7.323
 6034POPC   NC375527  28.880  38.010   5.408
 6034POPC   PO475528  29.477  37.637   5.385
 6034POPC   GL175529  29.258  37.775   5.792
 6034POPC   GL275530  28.881  37.733   5.827
 6034POPC   C1A75531  29.131  37.639   6.242
 6034POPC   D2A75532  29.007  37.417   6.604
 6034POPC   C3A75533  29.287  37.504   6.915
 6034POPC   C4A75534  29.266  37.825   7.209
 6034POPC   C1B75535  28.763  38.001   6.175
 6034POPC   C2B75536  28.859  38.008   6.622
 6034POPC   C3B75537  28.816  37.730   6.986
 6034POPC   C4B75538  28.933  37.356   7.256
 6035POPC   NC375539  43.977  31.695   5.499
 6035POPC   PO475540  43.616  31.077   5.432
 6035POPC   GL175541  43.771  31.342   5.783
 6035POPC   GL275542  44.079  31.306   5.842
 6035POPC   C1A75543  43.686  31.481   6.228
 6035POPC   D2A75544  43.877  31.549   6.671
 6035POPC   C3A75545  43.587  31.586   7.060
 6035POPC   C4A75546  43.661  31.724   7.517
 6035POPC   C1B75547  44.199  31.546   6.204
 6035POPC   C2B75548  44.398  31.654   6.593
 6035POPC   C3B75549  44.296  31.709   7.012
 6035POPC   C4B75550  44.039  31.430   7.209
 6036POPC   NC375551  22.118  24.885   5.224
 6036POPC   PO475552  21.921  25.478   5.428
 6036POPC   GL175553  22.130  25.305   5.815
 6036POPC   GL275554  22.282  24.962   5.804
 6036POPC   C1A75555  22.134  25.368   6.274
 6036POPC   D2A75556  22.421  25.431   6.646
 6036POPC   C3A75557  22.183  25.617   6.996
 6036POPC   C4A75558  21.812  25.372   7.108
 6036POPC   C1B75559  22.465  24.923   6.248
 6036POPC   C2B75560  22.507  24.902   6.708
 6036POPC   C3B75561  22.386  25.138   7.077
 6036POPC   C4B75562  22.490  25.037   7.495
 6037POPC   NC375563  14.806   9.191   4.973
 6037POPC   PO475564  15.265   8.906   5.357
 6037POPC   GL175565  15.344   8.860   5.796
 6037POPC   GL275566  15.504   9.172   5.848
 6037POPC   C1A75567  15.542   8.797   6.202
 6037POPC   D2A75568  15.423   8.937   6.608
 6037POPC   C3A75569  15.404   8.750   7.002
 6037POPC   C4A75570  15.381   9.042   7.305
 6037POPC   C1B75571  15.183   9.201   6.178
 6037POPC   C2B75572  15.137   9.349   6.591
 6037POPC   C3B75573  15.025   9.192   6.959
 6037POPC   C4B75574  14.649   9.309   7.146
 6038POPC   NC375575  35.869  30.436   5.306
 6038POPC   PO475576  36.366  30.882   5.355
 6038POPC   GL175577  36.234  30.976   5.760
 6038POPC   GL275578  35.983  30.704   5.728
 6038POPC   C1A75579  36.108  30.894   6.204
 6038POPC   D2A75580  36.327  30.617   6.484
 6038POPC   C3A75581  36.228  30.642   6.918
 6038POPC   C4A75582  36.113  31.060   7.073
 6038POPC   C1B75583  35.706  30.583   6.060
 6038POPC   C2B75584  35.636  30.805   6.429
 6038POPC   C3B75585  35.729  30.776   6.828
 6038POPC   C4B75586  35.769  30.551   7.150
 6039POPC   NC375587  31.027  23.044   5.553
 6039POPC   PO475588  30.430  22.730   5.433
 6039POPC   GL175589  30.652  22.733   5.799
 6039POPC   GL275590  30.563  23.089   5.786
 6039POPC   C1A75591  30.853  22.909   6.181
 6039POPC   D2A75592  30.723  23.157   6.548
 6039POPC   C3A75593  30.730  22.857   6.901
 6039POPC   C4A75594  30.945  22.815   7.269
 6039POPC   C1B75595  30.340  22.989   6.143
 6039POPC   C2B75596  30.313  22.846   6.544
 6039POPC   C3B75597  30.285  23.120   6.887
 6039POPC   C4B75598  30.299  22.917   7.230
 6040POPC   NC375599   3.377  33.174   5.366
 6040POPC   PO475600   3.962  32.813   5.378
 6040POPC   GL175601   3.670  32.966   5.734
 6040POPC   GL275602   3.411  32.781   5.728
 6040POPC   C1A75603   3.450  33.107   6.130
 6040POPC   D2A75604   3.460  32.903   6.539
 6040POPC   C3A75605   3.393  33.089   6.927
 6040POPC   C4A75606   3.707  32.981   7.208
 6040POPC   C1B75607   3.355  32.586   6.155
 6040POPC   C2B75608   3.198  32.436   6.568
 6040POPC   C3B75609   3.085  32.661   6.905
 6040POPC   C4B75610   3.273  32.726   7.279
 6041POPC   NC375611  38.270  43.877   5.263
 6041POPC   PO475612  38.753  44.091   5.583
 6041POPC   GL175613  38.342  44.135   5.786
 6041POPC   GL275614  38.184  43.839   5.763
 6041POPC   C1A75615  38.072  44.066   6.193
 6041POPC   D2A75616  38.088  44.247   6.590
 6041POPC   C3A75617  38.200  43.977   6.875
 6041POPC   C4A75618  38.091  44.089   7.260
 6041POPC   C1B75619  38.463  43.737   6.113
 6041POPC   C2B75620  38.440  43.678   6.540
 6041POPC   C3B75621  38.708  43.800   6.887
 6041POPC   C4B75622  38.516  43.838   7.269
 6042POPC   NC375623  33.758  41.415   5.341
 6042POPC   PO475624  33.996  41.976   5.496
 6042POPC   GL175625  33.665  41.728   5.728
 6042POPC   GL275626  33.876  41.468   5.835
 6042POPC   C1A75627  33.442  41.625   6.120
 6042POPC   D2A75628  33.608  41.441   6.516
 6042POPC   C3A75629  33.761  41.633   6.895
 6042POPC   C4A75630  33.920  41.614   7.305
 6042POPC   C1B75631  33.903  41.808   6.175
 6042POPC   C2B75632  33.967  41.994   6.566
 6042POPC   C3B75633  34.182  41.932   6.953
 6042POPC   C4B75634  34.238  42.040   7.371
 6043POPC   NC375635  35.862  33.731   5.420
 6043POPC   PO475636  36.463  34.096   5.351
 6043POPC   GL175637  36.275  33.950   5.720
 6043POPC   GL275638  36.249  33.591   5.745
 6043POPC   C1A75639  36.173  34.103   6.120
 6043POPC   D2A75640  36.368  34.046   6.498
 6043POPC   C3A75641  36.185  34.175   6.839
 6043POPC   C4A75642  36.378  34.029   7.218
 6043POPC   C1B75643  35.940  33.651   6.116
 6043POPC   C2B75644  35.884  33.831   6.557
 6043POPC   C3B75645  35.957  33.758   7.008
 6043POPC   C4B75646  35.855  33.429   7.258
 6044POPC   NC375647  42.098   2.290   5.391
 6044POPC   PO475648  42.354   2.994   5.473
 6044POPC   GL175649  42.334   2.910   5.858
 6044POPC   GL275650  42.589   3.099   6.030
 6044POPC   C1A75651  42.165   2.751   6.209
 6044POPC   D2A75652  42.349   2.927   6.511
 6044POPC   C3A75653  42.157   2.889   6.856
 6044POPC   C4A75654  42.079   2.636   7.162
 6044POPC   C1B75655  42.666   2.650   6.186
 6044POPC   C2B75656  42.619   2.441   6.545
 6044POPC   C3B75657  42.556   2.578   6.982
 6044POPC   C4B75658  42.551   2.725   7.430
 6045POPC   NC375659  32.635  36.129   5.441
 6045POPC   PO475660  33.239  35.888   5.235
 6045POPC   GL175661  33.131  36.019   5.705
 6045POPC   GL275662  33.168  36.381   5.810
 6045POPC   C1A75663  33.033  36.003   6.192
 6045POPC   D2A75664  32.695  35.952   6.558
 6045POPC   C3A75665  32.851  35.970   6.987
 6045POPC   C4A75666  33.219  36.123   7.215
 6045POPC   C1B75667  32.781  36.422   6.045
 6045POPC   C2B75668  32.784  36.447   6.482
 6045POPC   C3B75669  32.803  36.489   6.925
 6045POPC   C4B75670  32.849  36.478   7.366
 6046POPC   NC375671  37.535  27.055   5.275
 6046POPC   PO475672  37.954  26.449   5.443
 6046POPC   GL175673  37.691  26.775   5.697
 6046POPC   GL275674  37.361  26.771   5.847
 6046POPC   C1A75675  37.754  27.029   6.101
 6046POPC   D2A75676  37.879  26.920   6.541
 6046POPC   C3A75677  37.690  27.041   6.952
 6046POPC   C4A75678  37.879  26.860   7.314
 6046POPC   C1B75679  37.489  26.637   6.288
 6046POPC   C2B75680  37.509  26.601   6.760
 6046POPC   C3B75681  37.554  26.425   7.216
 6046POPC   C4B75682  37.678  26.535   7.659
 6047POPC   NC375683  19.752  38.931   5.686
 6047POPC   PO475684  20.216  39.293   5.417
 6047POPC   GL175685  20.038  39.330   5.847
 6047POPC   GL275686  19.699  39.460   5.830
 6047POPC   C1A75687  19.947  39.128   6.269
 6047POPC   D2A75688  20.191  39.021   6.626
 6047POPC   C3A75689  19.940  38.973   7.018
 6047POPC   C4A75690  19.482  38.887   7.097
 6047POPC   C1B75691  19.478  39.362   6.218
 6047POPC   C2B75692  19.561  39.225   6.641
 6047POPC   C3B75693  19.604  39.394   7.043
 6047POPC   C4B75694  20.020  39.430   7.234
 6048POPC   NC375695  18.462   4.426   5.257
 6048POPC   PO475696  17.843   4.076   5.196
 6048POPC   GL175697  18.038   4.231   5.629
 6048POPC   GL275698  18.390   4.336   5.781
 6048POPC   C1A75699  18.021   4.262   6.102
 6048POPC   D2A75700  18.253   4.463   6.461
 6048POPC   C3A75701  18.294   4.296   6.862
 6048POPC   C4A75702  18.055   4.395   7.215
 6048POPC   C1B75703  18.496   4.078   6.210
 6048POPC   C2B75704  18.412   3.852   6.607
 6048POPC   C3B75705  18.418   3.827   7.060
 6048POPC   C4B75706  18.087   3.906   7.370
 6049POPC   NC375707  44.167  22.151   5.270
 6049POPC   PO475708  44.757  21.940   5.115
 6049POPC   GL175709  44.564  21.984   5.577
 6049POPC   GL275710  44.447  22.329   5.697
 6049POPC   C1A75711  44.509  21.939   6.063
 6049POPC   D2A75712  44.498  22.150   6.510
 6049POPC   C3A75713  44.656  22.090   6.931
 6049POPC   C4A75714  44.310  22.097   7.199
 6049POPC   C1B75715  44.585  22.480   6.127
 6049POPC   C2B75716  44.692  22.634   6.584
 6049POPC   C3B75717  44.963  22.574   6.971
 6049POPC   C4B75718  44.908  22.552   7.418
 6050POPC   NC375719  16.791  29.301   5.366
 6050POPC   PO475720  16.639  28.621   5.400
 6050POPC   GL175721  16.579  28.932   5.716
 6050POPC   GL275722  16.933  28.937   5.703
 6050POPC   C1A75723  16.574  29.215   6.086
 6050POPC   D2A75724  16.439  29.323   6.515
 6050POPC   C3A75725  16.611  29.191   6.919
 6050POPC   C4A75726  16.591  28.986   7.323
 6050POPC   C1B75727  16.935  28.830   6.113
 6050POPC   C2B75728  16.851  28.921   6.523
 6050POPC   C3B75729  16.849  28.728   6.901
 6050POPC   C4B75730  17.052  28.789   7.281
 6051POPC   NC375731  43.995  23.639   5.421
 6051POPC   PO475732  43.368  23.288   5.416
 6051POPC   GL175733  43.609  23.627   5.771
 6051POPC   GL275734  43.939  23.854   5.861
 6051POPC   C1A75735  43.547  23.818   6.175
 6051POPC   D2A75736  43.587  24.057   6.522
 6051POPC   C3A75737  43.571  23.866   6.911
 6051POPC   C4A75738  43.798  23.777   7.242
 6051POPC   C1B75739  43.998  23.602   6.236
 6051POPC   C2B75740  44.010  23.767   6.654
 6051POPC   C3B75741  44.259  23.789   7.059
 6051POPC   C4B75742  44.373  23.395   7.241
 6052POPC   NC375743  40.646  30.445   5.368
 6052POPC   PO475744  40.747  31.098   5.493
 6052POPC   GL175745  40.692  30.769   5.753
 6052POPC   GL275746  41.017  30.560   5.705
 6052POPC   C1A75747  40.526  30.540   6.078
 6052POPC   D2A75748  40.447  30.413   6.476
 6052POPC   C3A75749  40.549  30.635   6.847
 6052POPC   C4A75750  40.568  30.515   7.254
 6052POPC   C1B75751  41.058  30.771   6.106
 6052POPC   C2B75752  40.933  30.611   6.502
 6052POPC   C3B75753  41.015  30.436   6.919
 6052POPC   C4B75754  41.039  30.803   7.185
 6053POPC   NC375755  24.523  17.190   5.601
 6053POPC   PO475756  24.723  16.553   5.284
 6053POPC   GL175757  24.513  16.661   5.727
 6053POPC   GL275758  24.160  16.504   5.783
 6053POPC   C1A75759  24.571  16.768   6.200
 6053POPC   D2A75760  24.724  16.710   6.640
 6053POPC   C3A75761  24.534  16.798   7.063
 6053POPC   C4A75762  24.600  16.728   7.516
 6053POPC   C1B75763  24.093  16.668   6.184
 6053POPC   C2B75764  24.208  16.813   6.603
 6053POPC   C3B75765  24.035  16.887   7.006
 6053POPC   C4B75766  24.132  16.917   7.452
 6054POPC   NC375767   2.653  34.244   5.441
 6054POPC   PO475768   2.910  34.833   5.596
 6054POPC   GL175769   2.772  34.682   5.921
 6054POPC   GL275770   2.426  34.725   5.831
 6054POPC   C1A75771   2.927  34.472   6.322
 6054POPC   D2A75772   3.042  34.208   6.664
 6054POPC   C3A75773   2.936  34.454   7.004
 6054POPC   C4A75774   2.574  34.507   7.212
 6054POPC   C1B75775   2.439  34.542   6.245
 6054POPC   C2B75776   2.517  34.680   6.647
 6054POPC   C3B75777   2.238  34.789   6.987
 6054POPC   C4B75778   2.334  34.937   7.408
 6055POPC   NC375779  16.980  39.805   5.297
 6055POPC   PO475780  16.898  40.434   5.237
 6055POPC   GL175781  17.027  40.189   5.624
 6055POPC   GL275782  16.751  39.996   5.759
 6055POPC   C1A75783  17.164  40.151   6.058
 6055POPC   D2A75784  16.892  40.173   6.412
 6055POPC   C3A75785  16.948  40.025   6.841
 6055POPC   C4A75786  16.749  40.162   7.214
 6055POPC   C1B75787  16.588  39.798   6.140
 6055POPC   C2B75788  16.478  39.903   6.561
 6055POPC   C3B75789  16.540  39.725   6.959
 6055POPC   C4B75790  16.631  39.682   7.378
 6056POPC   NC375791  20.922  26.386   5.349
 6056POPC   PO475792  21.581  26.304   5.558
 6056POPC   GL175793  21.257  26.061   5.752
 6056POPC   GL275794  21.437  25.784   5.868
 6056POPC   C1A75795  21.186  26.025   6.220
 6056POPC   D2A75796  21.175  25.893   6.645
 6056POPC   C3A75797  21.297  26.239   6.919
 6056POPC   C4A75798  21.229  26.427   7.306
 6056POPC   C1B75799  21.625  25.669   6.247
 6056POPC   C2B75800  21.648  25.618   6.677
 6056POPC   C3B75801  21.480  25.775   7.039
 6056POPC   C4B75802  21.613  25.711   7.435
 6057POPC   NC375803  33.494  25.383   5.552
 6057POPC   PO475804  34.001  24.937   5.440
 6057POPC   GL175805  33.826  25.025   5.802
 6057POPC   GL275806  33.935  25.348   5.853
 6057POPC   C1A75807  33.634  25.103   6.192
 6057POPC   D2A75808  33.800  25.054   6.582
 6057POPC   C3A75809  33.541  25.172   6.914
 6057POPC   C4A75810  33.660  25.287   7.332
 6057POPC   C1B75811  34.058  25.408   6.276
 6057POPC   C2B75812  33.943  25.542   6.662
 6057POPC   C3B75813  33.556  25.673   6.842
 6057POPC   C4B75814  33.499  25.770   7.252
 6058POPC   NC375815  41.911  12.174   5.482
 6058POPC   PO475816  41.339  12.390   5.187
 6058POPC   GL175817  41.453  12.064   5.595
 6058POPC   GL275818  41.526  12.193   5.874
 6058POPC   C1A75819  41.746  11.811   6.035
 6058POPC   D2A75820  41.647  11.856   6.497
 6058POPC   C3A75821  41.810  11.849   6.903
 6058POPC   C4A75822  41.684  11.975   7.303
 6058POPC   C1B75823  41.512  12.311   6.288
 6058POPC   C2B75824  41.761  12.359   6.635
 6058POPC   C3B75825  41.484  12.250   6.936
 6058POPC   C4B75826  41.339  12.383   7.305
 6059POPC   NC375827  43.056  25.825   5.163
 6059POPC   PO475828  43.164  26.343   5.580
 6059POPC   GL175829  42.907  26.039   5.799
 6059POPC   GL275830  42.864  25.711   5.643
 6059POPC   C1A75831  42.852  26.053   6.253
 6059POPC   D2A75832  42.954  26.345   6.605
 6059POPC   C3A75833  43.039  26.174   7.005
 6059POPC   C4A75834  43.468  26.165   7.173
 6059POPC   C1B75835  43.075  25.622   6.057
 6059POPC   C2B75836  42.903  25.605   6.487
 6059POPC   C3B75837  43.030  25.603   6.908
 6059POPC   C4B75838  43.155  25.765   7.289
 6060POPC   NC375839  32.688   3.052   5.706
 6060POPC   PO475840  32.196   2.696   5.357
 6060POPC   GL175841  32.233   2.840   5.775
 6060POPC   GL275842  32.128   2.545   5.889
 6060POPC   C1A75843  32.428   2.868   6.250
 6060POPC   D2A75844  32.659   2.700   6.633
 6060POPC   C3A75845  32.431   2.785   7.009
 6060POPC   C4A75846  32.544   2.737   7.457
 6060POPC   C1B75847  31.925   2.815   6.191
 6060POPC   C2B75848  32.053   2.891   6.615
 6060POPC   C3B75849  31.912   2.793   7.050
 6060POPC   C4B75850  32.037   2.665   7.459
 6061POPC   NC375851  11.524  34.676   5.109
 6061POPC   PO475852  11.077  34.190   5.442
 6061POPC   GL175853  11.281  34.399   5.815
 6061POPC   GL275854  11.321  34.780   5.770
 6061POPC   C1A75855  11.243  34.615   6.241
 6061POPC   D2A75856  11.537  34.687   6.560
 6061POPC   C3A75857  11.476  34.441   6.921
 6061POPC   C4A75858  11.113  34.335   7.146
 6061POPC   C1B75859  10.954  34.994   6.034
 6061POPC   C2B75860  10.996  35.043   6.476
 6061POPC   C3B75861  11.057  34.748   6.799
 6061POPC   C4B75862  10.895  34.796   7.201
 6062POPC   NC375863  27.974  32.004   5.494
 6062POPC   PO475864  28.610  32.240   5.459
 6062POPC   GL175865  28.382  32.090   5.776
 6062POPC   GL275866  28.624  31.957   5.938
 6062POPC   C1A75867  28.192  32.076   6.177
 6062POPC   D2A75868  28.329  32.160   6.589
 6062POPC   C3A75869  28.162  31.978   6.981
 6062POPC   C4A75870  28.363  32.224   7.300
 6062POPC   C1B75871  28.575  31.756   6.338
 6062POPC   C2B75872  28.621  31.803   6.772
 6062POPC   C3B75873  28.617  31.821   7.170
 6062POPC   C4B75874  28.607  31.909   7.616
 6063POPC   NC375875   8.491  39.572   5.380
 6063POPC   PO475876   8.196  40.337   5.440
 6063POPC   GL175877   8.107  40.045   5.723
 6063POPC   GL275878   8.464  39.983   5.732
 6063POPC   C1A75879   8.092  39.978   6.157
 6063POPC   D2A75880   8.309  40.049   6.518
 6063POPC   C3A75881   8.080  39.940   6.851
 6063POPC   C4A75882   7.766  39.941   7.124
 6063POPC   C1B75883   8.478  40.305   6.076
 6063POPC   C2B75884   8.774  40.270   6.404
 6063POPC   C3B75885   8.685  40.242   6.808
 6063POPC   C4B75886   8.395  40.412   7.098
 6064POPC   NC375887  36.997  39.696   5.470
 6064POPC   PO475888  36.759  40.312   5.466
 6064POPC   GL175889  36.780  40.021   5.817
 6064POPC   GL275890  36.588  39.693   5.826
 6064POPC   C1A75891  37.005  39.859   6.179
 6064POPC   D2A75892  37.165  39.667   6.566
 6064POPC   C3A75893  37.151  39.947   6.930
 6064POPC   C4A75894  37.217  40.338   7.157
 6064POPC   C1B75895  36.482  39.910   6.223
 6064POPC   C2B75896  36.675  40.001   6.609
 6064POPC   C3B75897  36.462  39.992   7.005
 6064POPC   C4B75898  36.501  39.716   7.356
 6065POPC   NC375899  43.214  17.816   5.425
 6065POPC   PO475900  42.779  17.259   5.327
 6065POPC   GL175901  42.892  17.472   5.716
 6065POPC   GL275902  43.256  17.546   5.856
 6065POPC   C1A75903  42.814  17.533   6.146
 6065POPC   D2A75904  43.081  17.500   6.489
 6065POPC   C3A75905  42.895  17.506   6.855
 6065POPC   C4A75906  42.767  17.596   7.251
 6065POPC   C1B75907  43.522  17.440   6.205
 6065POPC   C2B75908  43.543  17.383   6.650
 6065POPC   C3B75909  43.368  17.544   7.027
 6065POPC   C4B75910  43.424  17.386   7.421
 6066POPC   NC375911  27.117  39.795   5.362
 6066POPC   PO475912  26.804  39.164   5.545
 6066POPC   GL175913  26.709  39.303   5.940
 6066POPC   GL275914  26.835  39.640   5.825
 6066POPC   C1A75915  26.509  39.121   6.314
 6066POPC   D2A75916  26.330  39.254   6.715
 6066POPC   C3A75917  26.695  39.369   6.943
 6066POPC   C4A75918  27.011  39.117   7.118
 6066POPC   C1B75919  27.107  39.543   6.175
 6066POPC   C2B75920  27.117  39.405   6.615
 6066POPC   C3B75921  27.181  39.590   7.024
 6066POPC   C4B75922  27.204  39.464   7.469
 6067POPC   NC375923  22.829  16.921   5.527
 6067POPC   PO475924  23.463  16.811   5.500
 6067POPC   GL175925  23.154  16.679   5.842
 6067POPC   GL275926  23.204  17.006   5.963
 6067POPC   C1A75927  22.816  16.651   6.197
 6067POPC   D2A75928  22.512  16.815   6.537
 6067POPC   C3A75929  22.554  16.591   6.974
 6067POPC   C4A75930  22.617  16.595   7.447
 6067POPC   C1B75931  23.250  16.855   6.388
 6067POPC   C2B75932  22.978  16.769   6.745
 6067POPC   C3B75933  23.048  16.715   7.191
 6067POPC   C4B75934  22.958  16.944   7.564
 6068POPC   NC375935  23.632  39.473   5.582
 6068POPC   PO475936  23.715  40.196   5.453
 6068POPC   GL175937  23.666  40.020   5.862
 6068POPC   GL275938  23.926  39.763   5.917
 6068POPC   C1A75939  23.571  40.114   6.296
 6068POPC   D2A75940  23.729  39.952   6.710
 6068POPC   C3A75941  23.630  40.219   7.062
 6068POPC   C4A75942  23.518  40.231   7.534
 6068POPC   C1B75943  23.631  39.588   6.247
 6068POPC   C2B75944  23.733  39.383   6.651
 6068POPC   C3B75945  24.017  39.552   6.958
 6068POPC   C4B75946  23.822  39.811   7.269
 6069POPC   NC375947  24.410  16.220   5.409
 6069POPC   PO475948  24.508  15.599   5.493
 6069POPC   GL175949  24.215  15.675   5.873
 6069POPC   GL275950  24.247  16.003   5.852
 6069POPC   C1A75951  24.275  15.769   6.347
 6069POPC   D2A75952  24.609  15.984   6.625
 6069POPC   C3A75953  24.784  15.808   7.022
 6069POPC   C4A75954  24.551  15.733   7.389
 6069POPC   C1B75955  24.377  16.252   6.195
 6069POPC   C2B75956  24.201  16.289   6.598
 6069POPC   C3B75957  24.338  16.267   7.030
 6069POPC   C4B75958  24.524  16.234   7.427
 6070POPC   NC375959  41.626  25.500   5.211
 6070POPC   PO475960  41.226  25.067   5.490
 6070POPC   GL175961  41.521  25.161   5.838
 6070POPC   GL275962  41.801  25.328   5.742
 6070POPC   C1A75963  41.448  25.283   6.263
 6070POPC   D2A75964  41.087  25.319   6.530
 6070POPC   C3A75965  41.200  25.347   6.979
 6070POPC   C4A75966  41.261  25.369   7.435
 6070POPC   C1B75967  41.954  25.309   6.191
 6070POPC   C2B75968  41.995  24.982   6.532
 6070POPC   C3B75969  41.877  24.916   6.974
 6070POPC   C4B75970  41.719  25.313   7.188
 6071POPC   NC375971  38.358  30.599   5.275
 6071POPC   PO475972  38.749  31.096   5.375
 6071POPC   GL175973  38.430  30.951   5.649
 6071POPC   GL275974  38.548  30.605   5.765
 6071POPC   C1A75975  38.221  30.888   6.043
 6071POPC   D2A75976  38.110  30.637   6.412
 6071POPC   C3A75977  38.150  30.851   6.823
 6071POPC   C4A75978  38.225  31.113   7.170
 6071POPC   C1B75979  38.611  30.548   6.239
 6071POPC   C2B75980  38.726  30.613   6.700
 6071POPC   C3B75981  38.574  30.672   7.148
 6071POPC   C4B75982  38.676  30.460   7.538
 6072POPC   NC375983   5.609  13.859   5.691
 6072POPC   PO475984   5.897  14.357   5.298
 6072POPC   GL175985   5.943  14.577   5.753
 6072POPC   GL275986   6.044  14.276   5.834
 6072POPC   C1A75987   5.772  14.549   6.244
 6072POPC   D2A75988   5.797  14.141   6.472
 6072POPC   C3A75989   5.783  14.077   6.934
 6072POPC   C4A75990   5.756  14.468   7.147
 6072POPC   C1B75991   6.250  14.574   6.130
 6072POPC   C2B75992   6.165  14.604   6.566
 6072POPC   C3B75993   6.272  14.832   6.888
 6072POPC   C4B75994   6.246  14.660   7.268
 6073POPC   NC375995   1.132  32.466   5.512
 6073POPC   PO475996   1.057  31.780   5.451
 6073POPC   GL175997   0.918  31.980   5.812
 6073POPC   GL275998   0.740  32.262   5.735
 6073POPC   C1A75999   1.040  32.161   6.203
 6073POPC   D2A76000   1.380  32.320   6.460
 6073POPC   C3A76001   1.429  32.118   6.859
 6073POPC   C4A76002   1.081  32.107   7.121
 6073POPC   C1B76003   0.689  32.524   6.116
 6073POPC   C2B76004   0.924  32.595   6.512
 6073POPC   C3B76005   0.809  32.512   6.927
 6073POPC   C4B76006   0.874  32.703   7.320
 6074POPC   NC376007  30.470  38.011   5.531
 6074POPC   PO476008  30.967  38.439   5.300
 6074POPC   GL176009  30.820  38.467   5.765
 6074POPC   GL276010  30.497  38.414   5.827
 6074POPC   C1A76011  30.710  38.639   6.214
 6074POPC   D2A76012  30.489  38.524   6.614
 6074POPC   C3A76013  30.639  38.694   7.019
 6074POPC   C4A76014  31.041  38.861   7.186
 6074POPC   C1B76015  30.724  38.105   6.143
 6074POPC   C2B76016  30.799  37.971   6.594
 6074POPC   C3B76017  30.676  38.146   6.996
 6074POPC   C4B76018  30.883  38.356   7.325
 6075POPC   NC376019   3.235  11.363   5.174
 6075POPC   PO476020   3.705  11.873   5.308
 6075POPC   GL176021   3.804  11.625   5.752
 6075POPC   GL276022   3.830  11.248   5.766
 6075POPC   C1A76023   3.566  11.580   6.170
 6075POPC   D2A76024   3.781  11.515   6.542
 6075POPC   C3A76025   3.624  11.651   6.930
 6075POPC   C4A76026   3.855  11.655   7.300
 6075POPC   C1B76027   3.762  11.103   6.205
 6075POPC   C2B76028   3.458  11.114   6.577
 6075POPC   C3B76029   3.523  11.158   7.044
 6075POPC   C4B76030   3.357  11.138   7.486
 6076POPC   NC376031  40.923  40.431   5.310
 6076POPC   PO476032  40.538  40.953   5.311
 6076POPC   GL176033  40.803  40.794   5.677
 6076POPC   GL276034  40.605  40.516   5.757
 6076POPC   C1A76035  40.984  40.767   6.101
 6076POPC   D2A76036  40.818  40.688   6.520
 6076POPC   C3A76037  41.123  40.729   6.856
 6076POPC   C4A76038  41.211  40.677   7.257
 6076POPC   C1B76039  40.448  40.299   6.123
 6076POPC   C2B76040  40.537  40.215   6.553
 6076POPC   C3B76041  40.674  40.402   6.902
 6076POPC   C4B76042  40.674  40.578   7.270
 6077POPC   NC376043  19.402   6.248   5.393
 6077POPC   PO476044  19.017   5.684   5.512
 6077POPC   GL176045  18.984   5.982   5.794
 6077POPC   GL276046  19.323   6.055   5.853
 6077POPC   C1A76047  18.936   6.158   6.191
 6077POPC   D2A76048  19.130   6.004   6.552
 6077POPC   C3A76049  18.940   6.091   6.927
 6077POPC   C4A76050  18.862   6.427   7.233
 6077POPC   C1B76051  19.245   5.699   6.133
 6077POPC   C2B76052  19.417   5.569   6.513
 6077POPC   C3B76053  19.260   5.642   6.912
 6077POPC   C4B76054  19.302   5.916   7.260
 6078POPC   NC376055   2.323  36.917   5.353
 6078POPC   PO476056   1.613  36.933   5.248
 6078POPC   GL176057   1.850  36.879   5.717
 6078POPC   GL276058   2.085  36.665   5.753
 6078POPC   C1A76059   1.875  37.006   6.150
 6078POPC   D2A76060   2.028  37.110   6.551
 6078POPC   C3A76061   1.796  36.960   6.894
 6078POPC   C4A76062   2.005  37.104   7.244
 6078POPC   C1B76063   2.089  36.467   6.128
 6078POPC   C2B76064   1.932  36.606   6.494
 6078POPC   C3B76065   1.922  36.460   6.880
 6078POPC   C4B76066   1.953  36.600   7.250
 6079POPC   NC376067  27.990  43.852   5.465
 6079POPC   PO476068  28.387  44.283   5.593
 6079POPC   GL176069  28.261  44.089   5.907
 6079POPC   GL276070  28.394  43.783   5.874
 6079POPC   C1A76071  28.059  43.963   6.252
 6079POPC   D2A76072  28.103  43.695   6.561
 6079POPC   C3A76073  28.120  43.892   6.879
 6079POPC   C4A76074  28.349  43.816   7.196
 6079POPC   C1B76075  28.561  43.853   6.298
 6079POPC   C2B76076  28.606  43.816   6.736
 6079POPC   C3B76077  28.773  44.049   7.089
 6079POPC   C4B76078  28.861  44.042   7.546
 6080POPC   NC376079  17.985   8.922   5.430
 6080POPC   PO476080  18.490   9.201   5.204
 6080POPC   GL176081  18.435   9.248   5.679
 6080POPC   GL276082  18.243   8.986   5.895
 6080POPC   C1A76083  18.431   9.387   6.134
 6080POPC   D2A76084  18.523   9.176   6.522
 6080POPC   C3A76085  18.269   8.971   6.836
 6080POPC   C4A76086  18.350   8.664   7.119
 6080POPC   C1B76087  18.196   8.780   6.339
 6080POPC   C2B76088  18.006   8.521   6.705
 6080POPC   C3B76089  17.853   8.729   7.062
 6080POPC   C4B76090  17.664   8.882   7.391
 6081POPC   NC376091  17.591  29.582   5.541
 6081POPC   PO476092  17.611  30.235   5.512
 6081POPC   GL176093  17.490  29.958   5.880
 6081POPC   GL276094  17.737  29.706   6.006
 6081POPC   C1A76095  17.488  30.057   6.317
 6081POPC   D2A76096  17.658  30.157   6.741
 6081POPC   C3A76097  17.570  30.163   7.178
 6081POPC   C4A76098  17.831  30.224   7.574
 6081POPC   C1B76099  17.397  29.556   6.249
 6081POPC   C2B76100  17.335  29.716   6.663
 6081POPC   C3B76101  17.416  29.614   7.049
 6081POPC   C4B76102  17.175  29.619   7.427
 6082POPC   NC376103  38.026  35.019   5.336
 6082POPC   PO476104  38.484  35.612   5.275
 6082POPC   GL176105  38.371  35.434   5.742
 6082POPC   GL276106  38.242  35.695   5.984
 6082POPC   C1A76107  38.603  35.232   6.105
 6082POPC   D2A76108  38.518  35.252   6.519
 6082POPC   C3A76109  38.745  35.130   6.894
 6082POPC   C4A76110  38.474  35.327   7.141
 6082POPC   C1B76111  38.087  35.315   6.217
 6082POPC   C2B76112  37.931  35.087   6.614
 6082POPC   C3B76113  37.967  34.808   6.998
 6082POPC   C4B76114  38.260  34.874   7.340
 6083POPC   NC376115  19.354  13.956   5.415
 6083POPC   PO476116  19.322  13.226   5.320
 6083POPC   GL176117  19.035  13.355   5.675
 6083POPC   GL276118  18.779  13.630   5.766
 6083POPC   C1A76119  19.074  13.386   6.131
 6083POPC   D2A76120  18.845  13.231   6.485
 6083POPC   C3A76121  19.042  13.308   6.881
 6083POPC   C4A76122  19.225  13.462   7.284
 6083POPC   C1B76123  18.895  13.856   6.173
 6083POPC   C2B76124  19.109  13.734   6.575
 6083POPC   C3B76125  18.953  13.809   6.998
 6083POPC   C4B76126  18.586  14.009   7.168
 6084POPC   NC376127  31.111   7.293   5.414
 6084POPC   PO476128  31.756   7.571   5.419
 6084POPC   GL176129  31.677   7.283   5.804
 6084POPC   GL276130  31.344   7.176   5.849
 6084POPC   C1A76131  31.644   7.175   6.275
 6084POPC   D2A76132  31.483   7.180   6.713
 6084POPC   C3A76133  31.716   7.355   7.086
 6084POPC   C4A76134  31.525   7.300   7.563
 6084POPC   C1B76135  31.182   7.407   6.219
 6084POPC   C2B76136  31.211   7.614   6.633
 6084POPC   C3B76137  31.265   7.588   7.090
 6084POPC   C4B76138  31.173   7.666   7.543
 6085POPC   NC376139  14.205  13.425   5.428
 6085POPC   PO476140  14.813  13.757   5.557
 6085POPC   GL176141  14.432  13.691   5.845
 6085POPC   GL276142  14.327  13.346   5.915
 6085POPC   C1A76143  14.357  13.840   6.282
 6085POPC   D2A76144  14.683  13.917   6.618
 6085POPC   C3A76145  14.599  13.754   7.052
 6085POPC   C4A76146  14.278  13.801   7.344
 6085POPC   C1B76147  14.614  13.388   6.271
 6085POPC   C2B76148  14.418  13.474   6.663
 6085POPC   C3B76149  14.217  13.363   7.044
 6085POPC   C4B76150  14.369  13.323   7.454
 6086POPC   NC376151  17.796  32.020   5.430
 6086POPC   PO476152  17.522  32.648   5.478
 6086POPC   GL176153  17.661  32.505   5.851
 6086POPC   GL276154  17.533  32.171   5.871
 6086POPC   C1A76155  17.540  32.556   6.263
 6086POPC   D2A76156  17.519  32.303   6.605
 6086POPC   C3A76157  17.432  32.532   6.954
 6086POPC   C4A76158  17.452  32.291   7.320
 6086POPC   C1B76159  17.355  31.947   6.237
 6086POPC   C2B76160  17.103  32.000   6.597
 6086POPC   C3B76161  17.192  31.942   7.022
 6086POPC   C4B76162  17.024  31.984   7.399
 6087POPC   NC376163  35.665   4.033   5.566
 6087POPC   PO476164  36.090   4.489   5.262
 6087POPC   GL176165  36.326   4.438   5.671
 6087POPC   GL276166  36.189   4.105   5.765
 6087POPC   C1A76167  36.332   4.427   6.152
 6087POPC   D2A76168  36.044   4.432   6.505
 6087POPC   C3A76169  36.160   4.448   6.937
 6087POPC   C4A76170  35.941   4.456   7.325
 6087POPC   C1B76171  36.000   3.987   6.175
 6087POPC   C2B76172  35.842   3.965   6.601
 6087POPC   C3B76173  36.024   3.980   7.039
 6087POPC   C4B76174  36.255   4.084   7.443
 6088POPC   NC376175  12.863  18.755   5.613
 6088POPC   PO476176  12.403  19.205   5.271
 6088POPC   GL176177  12.531  19.159   5.732
 6088POPC   GL276178  12.486  19.504   5.747
 6088POPC   C1A76179  12.623  18.971   6.194
 6088POPC   D2A76180  12.589  18.704   6.592
 6088POPC   C3A76181  12.733  18.877   6.985
 6088POPC   C4A76182  12.857  18.900   7.410
 6088POPC   C1B76183  12.786  19.465   6.085
 6088POPC   C2B76184  12.844  19.364   6.516
 6088POPC   C3B76185  13.006  19.339   6.928
 6088POPC   C4B76186  12.909  19.406   7.319
 6089POPC   NC376187  22.041  10.154   5.633
 6089POPC   PO476188  22.412  10.748   5.379
 6089POPC   GL176189  22.320  10.553   5.731
 6089POPC   GL276190  21.989  10.662   5.861
 6089POPC   C1A76191  22.439  10.564   6.148
 6089POPC   D2A76192  22.332  10.716   6.533
 6089POPC   C3A76193  22.478  10.566   6.934
 6089POPC   C4A76194  22.394  10.805   7.324
 6089POPC   C1B76195  21.908  10.502   6.288
 6089POPC   C2B76196  22.059  10.322   6.710
 6089POPC   C3B76197  21.998  10.484   7.154
 6089POPC   C4B76198  21.973  10.328   7.584
 6090POPC   NC376199  30.841  34.033   5.341
 6090POPC   PO476200  30.256  33.819   5.555
 6090POPC   GL176201  30.599  33.698   5.807
 6090POPC   GL276202  30.960  33.645   5.713
 6090POPC   C1A76203  30.762  33.838   6.203
 6090POPC   D2A76204  30.721  33.980   6.632
 6090POPC   C3A76205  30.827  33.877   7.056
 6090POPC   C4A76206  30.463  33.993   7.274
 6090POPC   C1B76207  31.122  33.498   6.118
 6090POPC   C2B76208  31.111  33.640   6.534
 6090POPC   C3B76209  31.075  33.461   6.921
 6090POPC   C4B76210  30.791  33.365   7.247
 6091POPC   NC376211  13.718  31.330   5.376
 6091POPC   PO476212  13.395  31.736   5.755
 6091POPC   GL176213  13.480  31.268   5.840
 6091POPC   GL276214  13.858  31.126   5.820
 6091POPC   C1A76215  13.532  31.055   6.256
 6091POPC   D2A76216  13.412  31.250   6.622
 6091POPC   C3A76217  13.623  31.317   6.996
 6091POPC   C4A76218  13.380  31.702   7.088
 6091POPC   C1B76219  13.853  31.424   6.165
 6091POPC   C2B76220  13.925  31.570   6.581
 6091POPC   C3B76221  13.866  31.792   6.978
 6091POPC   C4B76222  13.812  31.613   7.396
 6092POPC   NC376223   6.226  27.876   5.409
 6092POPC   PO476224   6.113  28.533   5.318
 6092POPC   GL176225   5.929  28.421   5.732
 6092POPC   GL276226   5.584  28.276   5.752
 6092POPC   C1A76227   5.914  28.250   6.167
 6092POPC   D2A76228   5.885  28.459   6.566
 6092POPC   C3A76229   5.977  28.256   6.957
 6092POPC   C4A76230   6.074  28.324   7.376
 6092POPC   C1B76231   5.429  28.098   6.168
 6092POPC   C2B76232   5.626  28.038   6.590
 6092POPC   C3B76233   5.544  28.011   7.052
 6092POPC   C4B76234   5.580  28.123   7.513
 6093POPC   NC376235   0.256   9.155   5.551
 6093POPC   PO476236   0.379   9.840   5.308
 6093POPC   GL176237   0.361   9.669   5.720
 6093POPC   GL276238   0.201   9.425   5.967
 6093POPC   C1A76239   0.388   9.892   6.113
 6093POPC   D2A76240   0.221   9.712   6.505
 6093POPC   C3A76241   0.410   9.950   6.831
 6093POPC   C4A76242   0.480   9.832   7.241
 6093POPC   C1B76243   0.559   9.446   6.232
 6093POPC   C2B76244   0.734   9.626   6.580
 6093POPC   C3B76245   0.584   9.454   6.948
 6093POPC   C4B76246   0.740   9.384   7.351
 6094POPC   NC376247  23.504  37.223   5.429
 6094POPC   PO476248  23.925  36.731   5.242
 6094POPC   GL176249  23.683  36.539   5.595
 6094POPC   GL276250  23.535  36.824   5.796
 6094POPC   C1A76251  23.764  36.446   6.064
 6094POPC   D2A76252  23.811  36.670   6.487
 6094POPC   C3A76253  23.474  36.750   6.788
 6094POPC   C4A76254  23.655  36.667   7.184
 6094POPC   C1B76255  23.660  37.085   6.187
 6094POPC   C2B76256  23.677  37.207   6.645
 6094POPC   C3B76257  23.569  37.179   7.094
 6094POPC   C4B76258  23.531  37.384   7.529
 6095POPC   NC376259  10.282  25.605   5.471
 6095POPC   PO476260  10.773  26.123   5.500
 6095POPC   GL176261  10.520  26.008   5.827
 6095POPC   GL276262  10.275  26.210   5.814
 6095POPC   C1A76263  10.640  26.121   6.245
 6095POPC   D2A76264  10.640  25.981   6.613
 6095POPC   C3A76265  10.792  26.255   6.912
 6095POPC   C4A76266  10.523  26.114   7.211
 6095POPC   C1B76267  10.149  26.094   6.231
 6095POPC   C2B76268  10.052  25.974   6.614
 6095POPC   C3B76269  10.072  26.130   7.002
 6095POPC   C4B76270  10.059  26.098   7.469
 6096POPC   NC376271  25.544  39.691   5.577
 6096POPC   PO476272  25.074  39.272   5.353
 6096POPC   GL176273  25.224  39.235   5.799
 6096POPC   GL276274  25.597  39.246   5.818
 6096POPC   C1A76275  25.035  39.159   6.232
 6096POPC   D2A76276  24.894  39.213   6.656
 6096POPC   C3A76277  25.174  39.138   6.991
 6096POPC   C4A76278  25.472  39.052   7.304
 6096POPC   C1B76279  25.533  39.061   6.223
 6096POPC   C2B76280  25.435  39.318   6.578
 6096POPC   C3B76281  25.524  39.537   6.958
 6096POPC   C4B76282  25.731  39.500   7.354
 6097POPC   NC376283  22.844  10.613   5.252
 6097POPC   PO476284  23.203  10.087   5.285
 6097POPC   GL176285  22.979  10.352   5.690
 6097POPC   GL276286  22.826  10.719   5.757
 6097POPC   C1A76287  22.943  10.423   6.180
 6097POPC   D2A76288  23.039  10.603   6.618
 6097POPC   C3A76289  22.977  10.451   7.050
 6097POPC   C4A76290  22.819  10.552   7.482
 6097POPC   C1B76291  22.832  10.935   6.177
 6097POPC   C2B76292  22.735  11.011   6.630
 6097POPC   C3B76293  22.819  10.937   7.064
 6097POPC   C4B76294  22.830  11.121   7.500
 6098POPC   NC376295  22.191  35.935   5.417
 6098POPC   PO476296  21.886  36.471   5.186
 6098POPC   GL176297  22.018  36.376   5.667
 6098POPC   GL276298  22.371  36.232   5.781
 6098POPC   C1A76299  21.893  36.187   6.098
 6098POPC   D2A76300  21.788  36.163   6.547
 6098POPC   C3A76301  22.079  36.038   6.875
 6098POPC   C4A76302  22.040  36.221   7.282
 6098POPC   C1B76303  22.275  36.506   6.125
 6098POPC   C2B76304  22.241  36.411   6.534
 6098POPC   C3B76305  22.207  36.547   6.930
 6098POPC   C4B76306  22.372  36.641   7.331
 6099POPC   NC376307  43.850  10.560   5.003
 6099POPC   PO476308  44.033  11.126   5.332
 6099POPC   GL176309  44.042  10.823   5.699
 6099POPC   GL276310  43.707  10.704   5.755
 6099POPC   C1A76311  44.056  10.662   6.167
 6099POPC   D2A76312  44.140  10.438   6.598
 6099POPC   C3A76313  44.029  10.635   7.026
 6099POPC   C4A76314  43.943  10.543   7.502
 6099POPC   C1B76315  43.528  10.632   6.162
 6099POPC   C2B76316  43.628  10.490   6.570
 6099POPC   C3B76317  43.468  10.431   6.978
 6099POPC   C4B76318  43.541  10.748   7.272
 6100POPC   NC376319   9.971  11.399   5.165
 6100POPC   PO476320   9.509  11.072   5.512
 6100POPC   GL176321   9.746  11.198   5.836
 6100POPC   GL276322  10.065  11.054   5.680
 6100POPC   C1A76323   9.671  11.231   6.299
 6100POPC   D2A76324   9.684  11.441   6.710
 6100POPC   C3A76325   9.588  11.305   7.144
 6100POPC   C4A76326   9.350  11.484   7.529
 6100POPC   C1B76327  10.172  10.988   6.130
 6100POPC   C2B76328  10.052  10.995   6.563
 6100POPC   C3B76329  10.099  11.238   6.941
 6100POPC   C4B76330  10.009  11.080   7.316
 6101POPC   NC376331  27.002  23.965   5.348
 6101POPC   PO476332  27.273  23.304   5.492
 6101POPC   GL176333  27.051  23.635   5.766
 6101POPC   GL276334  27.197  23.990   5.805
 6101POPC   C1A76335  26.740  23.620   6.128
 6101POPC   D2A76336  26.580  23.787   6.531
 6101POPC   C3A76337  26.609  23.489   6.881
 6101POPC   C4A76338  26.743  23.604   7.283
 6101POPC   C1B76339  26.901  24.099   6.117
 6101POPC   C2B76340  27.004  24.073   6.536
 6101POPC   C3B76341  26.865  23.973   6.938
 6101POPC   C4B76342  26.581  24.104   7.241
 6102POPC   NC376343  33.325  22.277   5.058
 6102POPC   PO476344  33.451  22.598   5.642
 6102POPC   GL176345  33.213  22.413   5.973
 6102POPC   GL276346  32.900  22.228   5.872
 6102POPC   C1A76347  33.206  22.170   6.318
 6102POPC   D2A76348  33.181  22.308   6.740
 6102POPC   C3A76349  33.186  22.051   7.064
 6102POPC   C4A76350  33.140  22.244   7.437
 6102POPC   C1B76351  32.677  22.222   6.249
 6102POPC   C2B76352  32.609  22.261   6.667
 6102POPC   C3B76353  32.710  22.213   7.080
 6102POPC   C4B76354  32.724  21.935   7.401
 6103POPC   NC376355  41.425   7.872   5.477
 6103POPC   PO476356  41.617   8.589   5.397
 6103POPC   GL176357  41.508   8.295   5.760
 6103POPC   GL276358  41.801   8.076   5.838
 6103POPC   C1A76359  41.389   8.021   6.163
 6103POPC   D2A76360  41.558   7.967   6.617
 6103POPC   C3A76361  41.316   8.036   7.035
 6103POPC   C4A76362  41.439   8.266   7.453
 6103POPC   C1B76363  41.733   8.375   6.204
 6103POPC   C2B76364  41.637   8.506   6.627
 6103POPC   C3B76365  41.730   8.315   7.021
 6103POPC   C4B76366  41.933   8.474   7.420
 6104POPC   NC376367  20.496  13.167   5.438
 6104POPC   PO476368  20.465  13.831   5.404
 6104POPC   GL176369  20.408  13.644   5.828
 6104POPC   GL276370  20.693  13.877   5.898
 6104POPC   C1A76371  20.567  13.544   6.264
 6104POPC   D2A76372  20.989  13.615   6.470
 6104POPC   C3A76373  20.889  13.598   6.915
 6104POPC   C4A76374  20.522  13.416   7.058
 6104POPC   C1B76375  20.443  14.039   6.253
 6104POPC   C2B76376  20.210  13.923   6.603
 6104POPC   C3B76377  20.372  13.949   7.027
 6104POPC   C4B76378  20.200  14.174   7.344
 6105POPC   NC376379  19.130  21.737   5.141
 6105POPC   PO476380  18.878  21.239   5.373
 6105POPC   GL176381  19.042  21.245   5.820
 6105POPC   GL276382  19.364  21.182   5.876
 6105POPC   C1A76383  18.991  21.535   6.199
 6105POPC   D2A76384  18.852  21.638   6.581
 6105POPC   C3A76385  18.796  21.317   6.865
 6105POPC   C4A76386  18.870  21.516   7.250
 6105POPC   C1B76387  19.449  21.346   6.290
 6105POPC   C2B76388  19.322  21.436   6.747
 6105POPC   C3B76389  19.321  21.261   7.169
 6105POPC   C4B76390  19.168  21.279   7.591
 6106POPC   NC376391   2.876   4.862   5.420
 6106POPC   PO476392   2.800   5.438   5.772
 6106POPC   GL176393   2.808   5.054   5.910
 6106POPC   GL276394   2.485   4.891   5.819
 6106POPC   C1A76395   2.886   5.042   6.334
 6106POPC   D2A76396   2.666   5.095   6.677
 6106POPC   C3A76397   2.948   5.273   6.966
 6106POPC   C4A76398   3.138   5.091   7.336
 6106POPC   C1B76399   2.614   4.660   6.196
 6106POPC   C2B76400   2.928   4.550   6.528
 6106POPC   C3B76401   2.909   4.692   6.966
 6106POPC   C4B76402   2.599   4.971   7.162
 6107POPC   NC376403  34.585  44.095   5.502
 6107POPC   PO476404  34.706  43.414   5.521
 6107POPC   GL176405  34.720  43.745   5.847
 6107POPC   GL276406  34.647  43.458   6.032
 6107POPC   C1A76407  34.751  44.155   6.151
 6107POPC   D2A76408  34.971  44.215   6.568
 6107POPC   C3A76409  34.716  44.255   6.930
 6107POPC   C4A76410  34.608  43.963   7.256
 6107POPC   C1B76411  34.475  43.750   6.310
 6107POPC   C2B76412  34.474  43.860   6.730
 6107POPC   C3B76413  34.195  43.716   7.035
 6107POPC   C4B76414  34.154  43.816   7.471
 6108POPC   NC376415   3.008   7.181   5.037
 6108POPC   PO476416   2.606   7.445   5.486
 6108POPC   GL176417   2.701   7.421   5.890
 6108POPC   GL276418   2.915   7.719   5.849
 6108POPC   C1A76419   2.949   7.401   6.280
 6108POPC   D2A76420   3.000   7.597   6.694
 6108POPC   C3A76421   2.777   7.333   6.961
 6108POPC   C4A76422   2.918   6.954   7.109
 6108POPC   C1B76423   2.630   7.809   6.207
 6108POPC   C2B76424   2.503   7.568   6.563
 6108POPC   C3B76425   2.331   7.591   6.972
 6108POPC   C4B76426   2.562   7.632   7.341
 6109POPC   NC376427  18.533  37.977   5.463
 6109POPC   PO476428  18.283  37.404   5.316
 6109POPC   GL176429  18.112  37.557   5.727
 6109POPC   GL276430  18.224  37.906   5.871
 6109POPC   C1A76431  18.093  37.374   6.157
 6109POPC   D2A76432  18.159  37.610   6.535
 6109POPC   C3A76433  18.272  37.424   6.928
 6109POPC   C4A76434  18.393  37.759   7.205
 6109POPC   C1B76435  18.563  38.114   6.123
 6109POPC   C2B76436  18.717  38.032   6.543
 6109POPC   C3B76437  18.818  37.912   6.948
 6109POPC   C4B76438  18.721  38.165   7.291
 6110POPC   NC376439  29.859  14.768   5.376
 6110POPC   PO476440  30.012  15.406   5.484
 6110POPC   GL176441  30.185  15.258   5.864
 6110POPC   GL276442  30.480  15.480   5.899
 6110POPC   C1A76443  29.928  15.298   6.239
 6110POPC   D2A76444  29.799  15.033   6.597
 6110POPC   C3A76445  29.771  15.216   7.016
 6110POPC   C4A76446  29.950  15.085   7.406
 6110POPC   C1B76447  30.419  15.340   6.327
 6110POPC   C2B76448  30.245  15.250   6.738
 6110POPC   C3B76449  30.209  15.449   7.125
 6110POPC   C4B76450  30.188  15.518   7.576
 6111POPC   NC376451  36.666  14.617   5.283
 6111POPC   PO476452  36.912  13.971   5.454
 6111POPC   GL176453  36.690  14.244   5.699
 6111POPC   GL276454  36.829  14.524   5.782
 6111POPC   C1A76455  36.594  14.265   6.160
 6111POPC   D2A76456  36.670  14.012   6.522
 6111POPC   C3A76457  36.438  14.069   6.905
 6111POPC   C4A76458  36.647  14.347   7.188
 6111POPC   C1B76459  36.791  14.729   6.165
 6111POPC   C2B76460  36.816  14.572   6.584
 6111POPC   C3B76461  36.956  14.715   6.995
 6111POPC   C4B76462  37.410  14.691   7.055
 6112POPC   NC376463  24.569  35.324   5.385
 6112POPC   PO476464  24.150  35.817   5.580
 6112POPC   GL176465  24.477  35.594   5.821
 6112POPC   GL276466  24.280  35.321   5.842
 6112POPC   C1A76467  24.583  35.409   6.280
 6112POPC   D2A76468  24.655  35.371   6.726
 6112POPC   C3A76469  24.585  35.593   7.108
 6112POPC   C4A76470  24.559  35.256   7.475
 6112POPC   C1B76471  24.076  35.412   6.243
 6112POPC   C2B76472  24.159  35.236   6.638
 6112POPC   C3B76473  24.188  35.309   7.056
 6112POPC   C4B76474  24.146  35.546   7.435
 6113POPC   NC376475   9.485  26.684   5.169
 6113POPC   PO476476   9.913  27.026   5.440
 6113POPC   GL176477   9.880  26.972   5.842
 6113POPC   GL276478   9.639  26.687   5.814
 6113POPC   C1A76479   9.938  26.870   6.261
 6113POPC   D2A76480  10.212  26.882   6.625
 6113POPC   C3A76481  10.004  26.931   7.025
 6113POPC   C4A76482   9.860  26.547   7.189
 6113POPC   C1B76483   9.407  27.023   6.018
 6113POPC   C2B76484   9.476  27.044   6.465
 6113POPC   C3B76485   9.548  26.804   6.837
 6113POPC   C4B76486   9.534  26.947   7.261
 6114POPC   NC376487   9.266  39.369   5.403
 6114POPC   PO476488   8.674  39.132   5.499
 6114POPC   GL176489   8.962  39.302   5.816
 6114POPC   GL276490   9.276  39.132   5.922
 6114POPC   C1A76491   8.903  39.394   6.248
 6114POPC   D2A76492   8.721  39.185   6.590
 6114POPC   C3A76493   8.784  39.301   7.036
 6114POPC   C4A76494   8.627  39.137   7.429
 6114POPC   C1B76495   9.400  39.463   6.190
 6114POPC   C2B76496   9.267  39.522   6.654
 6114POPC   C3B76497   9.247  39.537   7.118
 6114POPC   C4B76498   9.374  39.469   7.559
 6115POPC   NC376499  20.812  44.082   5.373
 6115POPC   PO476500  20.760  43.516   5.731
 6115POPC   GL176501  20.658  43.928   5.855
 6115POPC   GL276502  20.979  44.092   5.853
 6115POPC   C1A76503  20.480  43.938   6.290
 6115POPC   D2A76504  20.508  43.668   6.689
 6115POPC   C3A76505  20.359  43.865   7.101
 6115POPC   C4A76506  20.224  43.868   7.559
 6115POPC   C1B76507  20.983  44.001   6.269
 6115POPC   C2B76508  20.832  44.077   6.652
 6115POPC   C3B76509  20.875  43.826   7.007
 6115POPC   C4B76510  20.724  43.833   7.451
 6116POPC   NC376511  38.712  44.546   5.522
 6116POPC   PO476512  38.803   0.203   5.437
 6116POPC   GL176513  38.590  44.964   5.796
 6116POPC   GL276514  38.297  44.693   5.832
 6116POPC   C1A76515  38.517  44.925   6.247
 6116POPC   D2A76516  38.394  44.714   6.633
 6116POPC   C3A76517  38.767  44.721   6.911
 6116POPC   C4A76518  38.620  44.758   7.339
 6116POPC   C1B76519  38.456  44.411   6.203
 6116POPC   C2B76520  38.611  44.244   6.626
 6116POPC   C3B76521  38.506  44.325   7.070
 6116POPC   C4B76522  38.501  44.292   7.526
 6117POPC   NC376523   1.227  37.172   5.109
 6117POPC   PO476524   1.318  36.724   5.664
 6117POPC   GL176525   1.401  36.859   6.037
 6117POPC   GL276526   1.176  37.124   6.052
 6117POPC   C1A76527   1.492  36.879   6.456
 6117POPC   D2A76528   1.462  36.559   6.713
 6117POPC   C3A76529   1.288  36.763   7.018
 6117POPC   C4A76530   1.536  36.886   7.350
 6117POPC   C1B76531   1.506  37.371   6.267
 6117POPC   C2B76532   1.597  37.385   6.704
 6117POPC   C3B76533   1.326  37.263   7.067
 6117POPC   C4B76534   0.962  37.020   7.313
 6118POPC   NC376535  22.979  20.409   5.552
 6118POPC   PO476536  22.925  19.720   5.354
 6118POPC   GL176537  23.166  19.591   5.719
 6118POPC   GL276538  23.235  19.936   5.744
 6118POPC   C1A76539  23.072  19.539   6.148
 6118POPC   D2A76540  22.816  19.830   6.425
 6118POPC   C3A76541  22.897  19.862   6.889
 6118POPC   C4A76542  22.697  20.031   7.283
 6118POPC   C1B76543  23.347  19.981   6.174
 6118POPC   C2B76544  23.311  19.753   6.552
 6118POPC   C3B76545  23.416  19.783   6.953
 6118POPC   C4B76546  23.197  19.822   7.325
 6119POPC   NC376547  44.900  16.368   5.563
 6119POPC   PO476548  44.469  15.842   5.390
 6119POPC   GL176549  44.708  15.939   5.770
 6119POPC   GL276550  44.984  15.711   5.718
 6119POPC   C1A76551  44.840  16.112   6.204
 6119POPC   D2A76552  44.940  16.021   6.655
 6119POPC   C3A76553  44.694  16.148   7.014
 6119POPC   C4A76554  44.294  16.139   7.227
 6119POPC   C1B76555  44.703  15.525   6.055
 6119POPC   C2B76556  44.651  15.535   6.507
 6119POPC   C3B76557  44.807  15.598   6.921
 6119POPC   C4B76558  44.993  15.373   7.237
 6120POPC   NC376559  16.975  33.235   5.480
 6120POPC   PO476560  16.717  32.639   5.442
 6120POPC   GL176561  16.633  32.910   5.797
 6120POPC   GL276562  16.482  33.241   5.729
 6120POPC   C1A76563  16.660  32.836   6.240
 6120POPC   D2A76564  16.457  32.673   6.595
 6120POPC   C3A76565  16.674  32.817   6.952
 6120POPC   C4A76566  16.677  32.936   7.378
 6120POPC   C1B76567  16.677  33.335   6.141
 6120POPC   C2B76568  16.788  33.285   6.610
 6120POPC   C3B76569  16.585  33.353   7.064
 6120POPC   C4B76570  16.500  33.394   7.562
 6121POPC   NC376571  34.333  30.725   5.793
 6121POPC   PO476572  34.514  30.205   5.282
 6121POPC   GL176573  34.756  30.368   5.756
 6121POPC   GL276574  34.827  30.709   5.934
 6121POPC   C1A76575  34.654  30.363   6.268
 6121POPC   D2A76576  34.696  30.538   6.715
 6121POPC   C3A76577  34.390  30.553   7.037
 6121POPC   C4A76578  34.399  30.478   7.472
 6121POPC   C1B76579  34.582  30.881   6.344
 6121POPC   C2B76580  34.436  31.013   6.765
 6121POPC   C3B76581  34.625  30.996   7.172
 6121POPC   C4B76582  34.527  30.952   7.596
 6122POPC   NC376583  24.339  27.882   5.543
 6122POPC   PO476584  24.805  27.476   5.322
 6122POPC   GL176585  24.646  27.485   5.780
 6122POPC   GL276586  24.584  27.790   5.982
 6122POPC   C1A76587  24.503  27.331   6.189
 6122POPC   D2A76588  24.453  27.604   6.538
 6122POPC   C3A76589  24.216  27.450   6.887
 6122POPC   C4A76590  24.499  27.590   7.160
 6122POPC   C1B76591  24.679  28.095   6.309
 6122POPC   C2B76592  24.984  27.974   6.594
 6122POPC   C3B76593  24.865  27.894   6.976
 6122POPC   C4B76594  24.616  28.052   7.288
 6123POPC   NC376595  29.827  31.738   5.356
 6123POPC   PO476596  30.350  32.097   5.408
 6123POPC   GL176597  30.002  32.187   5.735
 6123POPC   GL276598  29.799  31.908   5.838
 6123POPC   C1A76599  29.895  32.290   6.191
 6123POPC   D2A76600  30.179  32.338   6.567
 6123POPC   C3A76601  30.023  32.178   6.944
 6123POPC   C4A76602  29.898  32.198   7.359
 6123POPC   C1B76603  29.490  31.944   6.173
 6123POPC   C2B76604  29.424  32.113   6.583
 6123POPC   C3B76605  29.546  32.035   7.014
 6123POPC   C4B76606  29.438  32.001   7.452
 6124POPC   NC376607  13.141  33.834   5.186
 6124POPC   PO476608  12.687  33.376   5.465
 6124POPC   GL176609  12.753  33.711   5.737
 6124POPC   GL276610  13.112  33.705   5.799
 6124POPC   C1A76611  12.791  33.942   6.139
 6124POPC   D2A76612  12.997  33.952   6.507
 6124POPC   C3A76613  12.788  34.091   6.851
 6124POPC   C4A76614  12.637  33.858   7.178
 6124POPC   C1B76615  13.345  33.664   6.211
 6124POPC   C2B76616  13.455  33.749   6.639
 6124POPC   C3B76617  13.175  33.790   7.035
 6124POPC   C4B76618  13.111  33.604   7.471
 6125POPC   NC376619  11.598  22.283   5.569
 6125POPC   PO476620  10.988  22.203   5.335
 6125POPC   GL176621  11.129  22.181   5.765
 6125POPC   GL276622  11.138  22.516   5.907
 6125POPC   C1A76623  11.308  22.097   6.217
 6125POPC   D2A76624  11.521  21.936   6.639
 6125POPC   C3A76625  11.330  22.119   7.027
 6125POPC   C4A76626  10.897  22.124   7.175
 6125POPC   C1B76627  10.927  22.564   6.341
 6125POPC   C2B76628  10.815  22.522   6.802
 6125POPC   C3B76629  11.131  22.662   7.093
 6125POPC   C4B76630  11.556  22.579   7.160
 6126POPC   NC376631  40.239  25.405   5.231
 6126POPC   PO476632  39.739  25.008   5.436
 6126POPC   GL176633  39.918  25.259   5.762
 6126POPC   GL276634  40.264  25.225   5.858
 6126POPC   C1A76635  39.888  25.387   6.195
 6126POPC   D2A76636  39.984  25.246   6.624
 6126POPC   C3A76637  39.897  25.434   7.030
 6126POPC   C4A76638  39.942  25.292   7.493
 6126POPC   C1B76639  40.242  24.965   6.235
 6126POPC   C2B76640  40.334  24.871   6.662
 6126POPC   C3B76641  40.143  24.972   7.059
 6126POPC   C4B76642  40.435  25.119   7.352
 6127POPC   NC376643   9.869   3.235   5.184
 6127POPC   PO476644  10.055   3.790   5.523
 6127POPC   GL176645   9.825   3.442   5.720
 6127POPC   GL276646   9.456   3.485   5.736
 6127POPC   C1A76647   9.733   3.357   6.172
 6127POPC   D2A76648   9.662   3.460   6.624
 6127POPC   C3A76649   9.959   3.701   6.869
 6127POPC   C4A76650  10.042   3.590   7.298
 6127POPC   C1B76651   9.475   3.808   6.126
 6127POPC   C2B76652   9.557   3.986   6.583
 6127POPC   C3B76653   9.467   3.829   7.045
 6127POPC   C4B76654   9.499   3.731   7.535
 6128POPC   NC376655   1.531  41.756   5.454
 6128POPC   PO476656   0.987  41.422   5.125
 6128POPC   GL176657   1.034  41.556   5.618
 6128POPC   GL276658   0.754  41.796   5.729
 6128POPC   C1A76659   1.224  41.684   6.061
 6128POPC   D2A76660   1.217  41.815   6.521
 6128POPC   C3A76661   1.386  41.556   6.875
 6128POPC   C4A76662   1.544  41.422   7.303
 6128POPC   C1B76663   0.732  41.575   6.114
 6128POPC   C2B76664   0.889  41.416   6.501
 6128POPC   C3B76665   0.876  41.584   6.907
 6128POPC   C4B76666   1.038  41.421   7.267
 6129POPC   NC376667  43.674  32.826   5.654
 6129POPC   PO476668  44.197  32.954   5.253
 6129POPC   GL176669  44.193  32.907   5.739
 6129POPC   GL276670  44.036  33.207   5.747
 6129POPC   C1A76671  43.992  32.956   6.220
 6129POPC   D2A76672  43.628  33.092   6.503
 6129POPC   C3A76673  43.649  32.985   6.942
 6129POPC   C4A76674  43.592  33.208   7.307
 6129POPC   C1B76675  44.265  33.377   6.075
 6129POPC   C2B76676  44.132  33.389   6.494
 6129POPC   C3B76677  44.100  33.083   6.764
 6129POPC   C4B76678  44.093  33.163   7.193
 6130POPC   NC376679   9.595  30.452   5.507
 6130POPC   PO476680   9.397  29.685   5.470
 6130POPC   GL176681   9.605  29.969   5.749
 6130POPC   GL276682   9.953  30.014   5.688
 6130POPC   C1A76683   9.749  29.816   6.139
 6130POPC   D2A76684   9.997  29.702   6.483
 6130POPC   C3A76685   9.733  29.837   6.831
 6130POPC   C4A76686   9.539  29.782   7.230
 6130POPC   C1B76687  10.159  30.099   6.080
 6130POPC   C2B76688  10.111  30.212   6.513
 6130POPC   C3B76689  10.035  30.235   6.938
 6130POPC   C4B76690   9.968  30.427   7.319
 6131POPC   NC376691   9.181  28.159   5.407
 6131POPC   PO476692   8.510  28.072   5.419
 6131POPC   GL176693   8.796  28.170   5.782
 6131POPC   GL276694   9.089  27.941   5.865
 6131POPC   C1A76695   8.890  28.422   6.160
 6131POPC   D2A76696   9.047  28.513   6.582
 6131POPC   C3A76697   8.857  28.632   6.954
 6131POPC   C4A76698   8.644  28.552   7.323
 6131POPC   C1B76699   9.243  28.067   6.273
 6131POPC   C2B76700   9.232  28.067   6.722
 6131POPC   C3B76701   9.247  28.314   7.123
 6131POPC   C4B76702   9.562  28.465   7.484
 6132POPC   NC376703  36.109  10.387   5.401
 6132POPC   PO476704  36.428  10.903   5.426
 6132POPC   GL176705  36.357  10.557   5.802
 6132POPC   GL276706  35.950  10.529   5.868
 6132POPC   C1A76707  36.290  10.436   6.255
 6132POPC   D2A76708  36.091  10.663   6.601
 6132POPC   C3A76709  36.280  10.685   7.022
 6132POPC   C4A76710  36.305  10.374   7.334
 6132POPC   C1B76711  35.785  10.248   6.201
 6132POPC   C2B76712  35.966  10.161   6.590
 6132POPC   C3B76713  35.939  10.283   6.972
 6132POPC   C4B76714  35.780  10.036   7.259
 6133POPC   NC376715   9.324  23.441   5.093
 6133POPC   PO476716   8.966  23.002   5.493
 6133POPC   GL176717   8.993  22.686   5.808
 6133POPC   GL276718   8.635  22.674   5.780
 6133POPC   C1A76719   9.176  22.694   6.251
 6133POPC   D2A76720   9.343  22.525   6.671
 6133POPC   C3A76721   9.299  22.782   7.054
 6133POPC   C4A76722   9.052  22.737   7.432
 6133POPC   C1B76723   8.737  22.990   6.145
 6133POPC   C2B76724   8.936  23.027   6.577
 6133POPC   C3B76725   8.820  22.921   6.987
 6133POPC   C4B76726   8.674  23.109   7.365
 6134POPC   NC376727  38.088  20.817   5.503
 6134POPC   PO476728  38.743  20.717   5.502
 6134POPC   GL176729  38.495  20.637   5.852
 6134POPC   GL276730  38.276  20.337   5.739
 6134POPC   C1A76731  38.694  20.781   6.250
 6134POPC   D2A76732  38.572  20.627   6.629
 6134POPC   C3A76733  38.658  20.787   7.018
 6134POPC   C4A76734  38.743  20.397   7.162
 6134POPC   C1B76735  38.102  20.419   6.146
 6134POPC   C2B76736  38.195  20.270   6.570
 6134POPC   C3B76737  38.249  20.438   6.987
 6134POPC   C4B76738  37.976  20.669   7.216
 6135POPC   NC376739  23.006  28.685   5.190
 6135POPC   PO476740  22.839  29.293   5.406
 6135POPC   GL176741  23.064  29.159   5.752
 6135POPC   GL276742  23.199  28.825   5.662
 6135POPC   C1A76743  22.909  29.245   6.178
 6135POPC   D2A76744  22.617  29.185   6.493
 6135POPC   C3A76745  22.799  29.247   6.855
 6135POPC   C4A76746  22.940  29.243   7.268
 6135POPC   C1B76747  23.139  28.794   6.119
 6135POPC   C2B76748  23.261  29.034   6.498
 6135POPC   C3B76749  23.171  28.914   6.925
 6135POPC   C4B76750  23.224  28.832   7.344
 6136POPC   NC376751  39.729   1.084   5.152
 6136POPC   PO476752  40.217   0.772   5.441
 6136POPC   GL176753  40.140   1.088   5.743
 6136POPC   GL276754  40.422   1.347   5.645
 6136POPC   C1A76755  39.906   1.158   6.174
 6136POPC   D2A76756  40.021   1.131   6.644
 6136POPC   C3A76757  39.779   1.283   7.021
 6136POPC   C4A76758  39.833   1.317   7.530
 6136POPC   C1B76759  40.344   1.416   6.075
 6136POPC   C2B76760  40.308   1.529   6.505
 6136POPC   C3B76761  40.208   1.564   6.946
 6136POPC   C4B76762  40.272   1.574   7.393
 6137POPC   NC376763  40.181  17.302   5.485
 6137POPC   PO476764  39.712  17.811   5.595
 6137POPC   GL176765  39.897  17.546   5.899
 6137POPC   GL276766  39.959  17.176   5.927
 6137POPC   C1A76767  39.753  17.476   6.307
 6137POPC   D2A76768  39.924  17.433   6.705
 6137POPC   C3A76769  40.182  17.732   6.931
 6137POPC   C4A76770  40.174  17.673   7.381
 6137POPC   C1B76771  40.250  16.998   6.262
 6137POPC   C2B76772  40.404  17.130   6.666
 6137POPC   C3B76773  40.276  17.245   7.079
 6137POPC   C4B76774  40.270  17.177   7.550
 6138POPC   NC376775  11.748  43.933   5.290
 6138POPC   PO476776  11.118  44.082   5.193
 6138POPC   GL176777  11.311  43.962   5.621
 6138POPC   GL276778  11.480  43.624   5.701
 6138POPC   C1A76779  11.302  44.011   6.093
 6138POPC   D2A76780  11.491  44.060   6.523
 6138POPC   C3A76781  11.308  43.983   6.907
 6138POPC   C4A76782  11.416  43.775   7.257
 6138POPC   C1B76783  11.623  43.610   6.154
 6138POPC   C2B76784  11.768  43.596   6.602
 6138POPC   C3B76785  11.619  43.401   7.004
 6138POPC   C4B76786  11.595  43.385   7.526
 6139POPC   NC376787  21.829  42.854   5.329
 6139POPC   PO476788  22.412  43.133   5.409
 6139POPC   GL176789  22.291  43.041   5.789
 6139POPC   GL276790  21.961  42.994   5.830
 6139POPC   C1A76791  22.418  43.051   6.188
 6139POPC   D2A76792  22.431  43.215   6.565
 6139POPC   C3A76793  22.301  42.966   6.896
 6139POPC   C4A76794  22.083  43.048   7.236
 6139POPC   C1B76795  21.728  43.092   6.223
 6139POPC   C2B76796  21.860  43.146   6.654
 6139POPC   C3B76797  21.659  43.304   7.026
 6139POPC   C4B76798  21.636  43.169   7.453
 6140POPC   NC376799  18.639  10.543   5.469
 6140POPC   PO476800  18.000  10.901   5.462
 6140POPC   GL176801  18.205  10.596   5.803
 6140POPC   GL276802  18.408  10.289   5.851
 6140POPC   C1A76803  18.475  10.640   6.220
 6140POPC   D2A76804  18.268  10.745   6.640
 6140POPC   C3A76805  18.406  10.591   7.024
 6140POPC   C4A76806  18.156  10.261   7.130
 6140POPC   C1B76807  18.158  10.255   6.245
 6140POPC   C2B76808  18.418  10.230   6.627
 6140POPC   C3B76809  18.632  10.113   7.008
 6140POPC   C4B76810  18.632  10.188   7.455
 6141POPC   NC376811  43.226   6.047   5.372
 6141POPC   PO476812  42.844   5.546   5.391
 6141POPC   GL176813  43.114   5.779   5.804
 6141POPC   GL276814  43.309   6.097   5.867
 6141POPC   C1A76815  43.321   5.754   6.239
 6141POPC   D2A76816  43.238   6.044   6.582
 6141POPC   C3A76817  43.230   5.883   7.003
 6141POPC   C4A76818  43.333   6.169   7.314
 6141POPC   C1B76819  42.956   6.149   6.134
 6141POPC   C2B76820  42.844   6.354   6.492
 6141POPC   C3B76821  42.804   6.209   6.911
 6141POPC   C4B76822  42.763   6.434   7.286
 6142POPC   NC376823   6.280  26.398   5.699
 6142POPC   PO476824   5.656  26.742   5.534
 6142POPC   GL176825   5.923  26.803   5.901
 6142POPC   GL276826   6.158  27.095   5.947
 6142POPC   C1A76827   5.834  26.726   6.340
 6142POPC   D2A76828   5.703  26.439   6.668
 6142POPC   C3A76829   5.745  26.673   7.032
 6142POPC   C4A76830   5.981  26.669   7.443
 6142POPC   C1B76831   5.954  27.231   6.322
 6142POPC   C2B76832   5.899  27.139   6.770
 6142POPC   C3B76833   6.178  26.955   7.067
 6142POPC   C4B76834   6.446  27.089   7.376
 6143POPC   NC376835   0.269  26.359   5.439
 6143POPC   PO476836   0.779  25.900   5.441
 6143POPC   GL176837   0.384  25.836   5.732
 6143POPC   GL276838   0.215  26.154   5.882
 6143POPC   C1A76839   0.116  25.753   6.130
 6143POPC   D2A76840   0.136  26.020   6.501
 6143POPC   C3A76841   0.218  25.777   6.876
 6143POPC   C4A76842   0.177  25.910   7.300
 6143POPC   C1B76843   0.576  26.183   6.142
 6143POPC   C2B76844   0.545  26.372   6.547
 6143POPC   C3B76845   0.420  26.242   6.958
 6143POPC   C4B76846   0.650  26.209   7.331
 6144POPC   NC376847  34.533  38.222   5.522
 6144POPC   PO476848  33.869  38.385   5.446
 6144POPC   GL176849  33.922  38.503   5.831
 6144POPC   GL276850  33.995  38.848   5.827
 6144POPC   C1A76851  33.889  38.573   6.254
 6144POPC   D2A76852  33.574  38.492   6.516
 6144POPC   C3A76853  33.766  38.404   6.891
 6144POPC   C4A76854  33.630  38.345   7.287
 6144POPC   C1B76855  34.230  38.956   6.221
 6144POPC   C2B76856  34.360  38.775   6.626
 6144POPC   C3B76857  34.204  38.674   7.039
 6144POPC   C4B76858  34.099  38.418   7.342
 6145POPC   NC376859  35.306   6.574   5.415
 6145POPC   PO476860  35.805   6.864   5.396
 6145POPC   GL176861  35.691   6.611   5.752
 6145POPC   GL276862  35.385   6.815   5.850
 6145POPC   C1A76863  35.648   6.537   6.214
 6145POPC   D2A76864  35.670   6.679   6.657
 6145POPC   C3A76865  35.683   6.319   6.947
 6145POPC   C4A76866  35.532   6.251   7.392
 6145POPC   C1B76867  35.327   6.934   6.267
 6145POPC   C2B76868  35.131   6.749   6.617
 6145POPC   C3B76869  35.211   6.514   6.971
 6145POPC   C4B76870  35.199   6.646   7.351
 6146POPC   NC376871   7.292   9.349   5.454
 6146POPC   PO476872   7.428  10.064   5.512
 6146POPC   GL176873   7.462   9.747   5.792
 6146POPC   GL276874   7.619  10.016   5.991
 6146POPC   C1A76875   7.318   9.687   6.220
 6146POPC   D2A76876   7.482   9.952   6.545
 6146POPC   C3A76877   7.648   9.649   6.821
 6146POPC   C4A76878   7.495   9.411   7.125
 6146POPC   C1B76879   7.196  10.195   6.162
 6146POPC   C2B76880   7.049  10.413   6.546
 6146POPC   C3B76881   7.027  10.289   6.958
 6146POPC   C4B76882   7.279   9.933   7.042
 6147POPC   NC376883  18.088  21.957   5.526
 6147POPC   PO476884  18.659  22.432   5.522
 6147POPC   GL176885  18.583  22.086   5.785
 6147POPC   GL276886  18.285  22.256   5.912
 6147POPC   C1A76887  18.647  21.979   6.233
 6147POPC   D2A76888  18.488  21.970   6.686
 6147POPC   C3A76889  18.469  22.268   7.024
 6147POPC   C4A76890  18.123  22.436   7.274
 6147POPC   C1B76891  18.126  21.941   6.203
 6147POPC   C2B76892  17.989  21.889   6.618
 6147POPC   C3B76893  18.081  21.929   7.066
 6147POPC   C4B76894  17.946  21.950   7.498
 6148POPC   NC376895   4.105  15.642   5.403
 6148POPC   PO476896   4.080  16.388   5.319
 6148POPC   GL176897   4.319  16.121   5.657
 6148POPC   GL276898   4.037  15.971   5.795
 6148POPC   C1A76899   4.331  16.157   6.169
 6148POPC   D2A76900   4.286  16.401   6.583
 6148POPC   C3A76901   4.277  16.266   7.031
 6148POPC   C4A76902   4.139  15.960   7.304
 6148POPC   C1B76903   4.251  15.659   6.042
 6148POPC   C2B76904   4.361  15.671   6.467
 6148POPC   C3B76905   4.446  15.788   6.887
 6148POPC   C4B76906   4.451  15.561   7.265
 6149POPC   NC376907  39.671  41.446   5.677
 6149POPC   PO476908  39.026  41.533   5.446
 6149POPC   GL176909  39.202  41.626   5.843
 6149POPC   GL276910  39.138  41.301   5.955
 6149POPC   C1A76911  39.369  41.663   6.275
 6149POPC   D2A76912  39.522  41.912   6.612
 6149POPC   C3A76913  39.432  41.683   6.970
 6149POPC   C4A76914  39.263  41.798   7.358
 6149POPC   C1B76915  39.470  41.166   6.242
 6149POPC   C2B76916  39.659  41.359   6.610
 6149POPC   C3B76917  39.679  41.224   7.034
 6149POPC   C4B76918  39.265  41.279   7.232
 6150POPC   NC376919  33.695  15.341   5.232
 6150POPC   PO476920  34.096  14.770   5.295
 6150POPC   GL176921  33.982  14.878   5.774
 6150POPC   GL276922  33.668  15.097   5.791
 6150POPC   C1A76923  33.953  15.066   6.235
 6150POPC   D2A76924  33.761  15.208   6.643
 6150POPC   C3A76925  34.017  15.249   7.043
 6150POPC   C4A76926  34.151  14.853   7.276
 6150POPC   C1B76927  33.495  15.357   6.150
 6150POPC   C2B76928  33.331  15.443   6.591
 6150POPC   C3B76929  33.372  15.304   7.018
 6150POPC   C4B76930  33.569  15.380   7.390
 6151POPC   NC376931  42.817   7.074   5.252
 6151POPC   PO476932  43.289   6.518   5.289
 6151POPC   GL176933  43.225   6.613   5.725
 6151POPC   GL276934  42.871   6.689   5.844
 6151POPC   C1A76935  43.239   6.582   6.160
 6151POPC   D2A76936  43.160   6.751   6.546
 6151POPC   C3A76937  43.241   6.499   6.891
 6151POPC   C4A76938  43.236   6.671   7.291
 6151POPC   C1B76939  42.848   6.999   6.202
 6151POPC   C2B76940  42.823   7.111   6.640
 6151POPC   C3B76941  42.877   6.879   7.005
 6151POPC   C4B76942  42.689   6.936   7.416
 6152POPC   NC376943   0.141  14.534   5.434
 6152POPC   PO476944   0.821  14.700   5.390
 6152POPC   GL176945   0.683  14.488   5.746
 6152POPC   GL276946   0.378  14.527   5.873
 6152POPC   C1A76947   0.819  14.483   6.176
 6152POPC   D2A76948   0.748  14.536   6.608
 6152POPC   C3A76949   0.723  14.263   6.940
 6152POPC   C4A76950   0.448  14.220   7.273
 6152POPC   C1B76951   0.323  14.492   6.305
 6152POPC   C2B76952   0.266  14.236   6.676
 6152POPC   C3B76953   0.083  14.434   7.009
 6152POPC   C4B76954  44.777  14.536   7.297
 6153POPC   NC376955   4.686  26.452   5.500
 6153POPC   PO476956   4.044  26.381   5.498
 6153POPC   GL176957   4.247  26.149   5.872
 6153POPC   GL276958   4.591  26.063   5.893
 6153POPC   C1A76959   4.280  26.004   6.327
 6153POPC   D2A76960   4.395  26.068   6.761
 6153POPC   C3A76961   4.215  25.777   7.028
 6153POPC   C4A76962   3.913  25.875   7.355
 6153POPC   C1B76963   4.761  26.159   6.331
 6153POPC   C2B76964   4.880  25.922   6.696
 6153POPC   C3B76965   4.719  25.842   7.103
 6153POPC   C4B76966   4.441  25.799   7.469
 6154POPC   NC376967  20.135  29.279   5.378
 6154POPC   PO476968  19.465  29.039   5.264
 6154POPC   GL176969  19.719  28.995   5.667
 6154POPC   GL276970  19.867  29.323   5.812
 6154POPC   C1A76971  19.788  28.877   6.110
 6154POPC   D2A76972  19.967  29.067   6.491
 6154POPC   C3A76973  19.904  28.906   6.900
 6154POPC   C4A76974  20.105  28.985   7.322
 6154POPC   C1B76975  19.699  29.409   6.217
 6154POPC   C2B76976  19.623  29.495   6.659
 6154POPC   C3B76977  19.875  29.479   7.025
 6154POPC   C4B76978  19.650  29.182   7.227
 6155POPC   NC376979  39.510  16.580   5.314
 6155POPC   PO476980  40.169  16.310   5.518
 6155POPC   GL176981  39.959  16.536   5.896
 6155POPC   GL276982  39.677  16.755   5.853
 6155POPC   C1A76983  39.836  16.375   6.309
 6155POPC   D2A76984  39.816  16.149   6.696
 6155POPC   C3A76985  39.919  16.440   6.991
 6155POPC   C4A76986  40.132  16.782   7.208
 6155POPC   C1B76987  39.744  16.879   6.285
 6155POPC   C2B76988  39.904  16.920   6.722
 6155POPC   C3B76989  39.770  17.157   7.108
 6155POPC   C4B76990  39.464  17.201   7.453
 6156POPC   NC376991  36.808  16.180   5.476
 6156POPC   PO476992  37.235  15.623   5.586
 6156POPC   GL176993  36.987  15.868   5.848
 6156POPC   GL276994  36.653  15.810   5.811
 6156POPC   C1A76995  36.889  16.059   6.246
 6156POPC   D2A76996  37.187  16.003   6.585
 6156POPC   C3A76997  37.081  16.133   6.951
 6156POPC   C4A76998  36.695  16.168   7.132
 6156POPC   C1B76999  36.436  15.640   6.123
 6156POPC   C2B77000  36.670  15.522   6.460
 6156POPC   C3B77001  36.751  15.765   6.805
 6156POPC   C4B77002  36.690  15.673   7.227
 6157POPC   NC377003  42.577  32.609   5.448
 6157POPC   PO477004  42.087  32.232   5.645
 6157POPC   GL177005  42.386  32.391   5.905
 6157POPC   GL277006  42.717  32.248   5.797
 6157POPC   C1A77007  42.239  32.302   6.315
 6157POPC   D2A77008  42.067  32.059   6.626
 6157POPC   C3A77009  42.178  32.236   6.976
 6157POPC   C4A77010  42.028  32.376   7.371
 6157POPC   C1B77011  42.661  32.019   6.184
 6157POPC   C2B77012  42.634  32.155   6.617
 6157POPC   C3B77013  42.636  31.974   7.030
 6157POPC   C4B77014  42.501  32.228   7.360
 6158POPC   NC377015   7.157  31.560   5.214
 6158POPC   PO477016   6.554  31.647   5.394
 6158POPC   GL177017   6.685  31.381   5.747
 6158POPC   GL277018   6.679  31.655   5.925
 6158POPC   C1A77019   6.523  31.255   6.192
 6158POPC   D2A77020   6.397  31.391   6.626
 6158POPC   C3A77021   6.589  31.362   7.084
 6158POPC   C4A77022   6.530  31.250   7.580
 6158POPC   C1B77023   6.912  31.574   6.279
 6158POPC   C2B77024   6.852  31.649   6.699
 6158POPC   C3B77025   6.494  31.844   6.858
 6158POPC   C4B77026   6.206  31.872   7.169
 6159POPC   NC377027  43.809  44.321   5.558
 6159POPC   PO477028  43.940   0.004   5.557
 6159POPC   GL177029  43.776  44.719   5.889
 6159POPC   GL277030  44.076  44.542   5.968
 6159POPC   C1A77031  43.656  44.581   6.329
 6159POPC   D2A77032  43.826  44.768   6.734
 6159POPC   C3A77033  43.828  44.509   7.110
 6159POPC   C4A77034  43.517  44.448   7.439
 6159POPC   C1B77035  44.067  44.887   6.283
 6159POPC   C2B77036  44.228   0.082   6.693
 6159POPC   C3B77037  44.118  44.957   7.120
 6159POPC   C4B77038  44.252  44.925   7.552
 6160POPC   NC377039  33.528  16.435   5.296
 6160POPC   PO477040  33.885  15.757   5.293
 6160POPC   GL177041  33.819  15.753   5.758
 6160POPC   GL277042  33.959  16.087   5.834
 6160POPC   C1A77043  33.728  15.818   6.226
 6160POPC   D2A77044  33.847  16.095   6.562
 6160POPC   C3A77045  33.456  16.126   6.790
 6160POPC   C4A77046  33.289  16.372   7.135
 6160POPC   C1B77047  34.225  15.817   6.131
 6160POPC   C2B77048  34.075  15.584   6.521
 6160POPC   C3B77049  33.761  15.691   6.880
 6160POPC   C4B77050  33.871  16.114   7.100
 6161POPC   NC377051  14.391  35.387   5.393
 6161POPC   PO477052  14.006  34.858   5.628
 6161POPC   GL177053  14.247  35.180   5.855
 6161POPC   GL277054  14.614  35.308   5.834
 6161POPC   C1A77055  14.248  35.301   6.286
 6161POPC   D2A77056  14.443  35.147   6.659
 6161POPC   C3A77057  14.279  35.269   7.060
 6161POPC   C4A77058  14.441  35.101   7.446
 6161POPC   C1B77059  14.528  35.688   6.072
 6161POPC   C2B77060  14.552  35.652   6.502
 6161POPC   C3B77061  14.624  35.682   6.933
 6161POPC   C4B77062  14.526  35.610   7.332
 6162POPC   NC377063   0.338  32.578   5.279
 6162POPC   PO477064   0.377  31.893   5.287
 6162POPC   GL177065   0.272  32.078   5.718
 6162POPC   GL277066   0.277  32.446   5.812
 6162POPC   C1A77067   0.506  32.017   6.132
 6162POPC   D2A77068   0.604  32.210   6.525
 6162POPC   C3A77069   0.558  32.040   6.931
 6162POPC   C4A77070   0.645  32.242   7.342
 6162POPC   C1B77071   0.154  32.364   6.255
 6162POPC   C2B77072   0.117  32.258   6.706
 6162POPC   C3B77073   0.258  32.439   7.110
 6162POPC   C4B77074   0.272  32.348   7.646
 6163POPC   NC377075  13.912  38.787   5.528
 6163POPC   PO477076  14.505  38.471   5.456
 6163POPC   GL177077  14.524  38.508   5.879
 6163POPC   GL277078  14.174  38.475   5.858
 6163POPC   C1A77079  14.463  38.588   6.332
 6163POPC   D2A77080  14.312  38.825   6.712
 6163POPC   C3A77081  14.614  38.765   7.031
 6163POPC   C4A77082  14.629  38.353   7.124
 6163POPC   C1B77083  14.070  38.287   6.236
 6163POPC   C2B77084  13.954  38.448   6.668
 6163POPC   C3B77085  14.129  38.465   7.095
 6163POPC   C4B77086  14.029  38.347   7.532
 6164POPC   NC377087   6.720  35.039   5.249
 6164POPC   PO477088   6.266  35.536   5.479
 6164POPC   GL177089   6.563  35.379   5.804
 6164POPC   GL277090   6.390  35.616   5.959
 6164POPC   C1A77091   6.614  35.121   6.211
 6164POPC   D2A77092   6.483  35.036   6.652
 6164POPC   C3A77093   6.683  35.143   7.064
 6164POPC   C4A77094   6.627  35.075   7.542
 6164POPC   C1B77095   6.575  35.606   6.322
 6164POPC   C2B77096   6.575  35.534   6.715
 6164POPC   C3B77097   6.479  35.763   7.020
 6164POPC   C4B77098   6.652  35.570   7.356
 6165POPC   NC377099  33.909  42.402   5.390
 6165POPC   PO477100  33.330  42.645   5.455
 6165POPC   GL177101  33.677  42.535   5.819
 6165POPC   GL277102  33.693  42.216   5.828
 6165POPC   C1A77103  33.961  42.421   6.227
 6165POPC   D2A77104  33.807  42.476   6.648
 6165POPC   C3A77105  33.982  42.410   7.075
 6165POPC   C4A77106  33.609  42.568   7.278
 6165POPC   C1B77107  33.513  42.150   6.218
 6165POPC   C2B77108  33.406  41.929   6.576
 6165POPC   C3B77109  33.582  42.102   6.924
 6165POPC   C4B77110  33.717  42.067   7.326
 6166POPC   NC377111  22.198  18.082   5.004
 6166POPC   PO477112  22.359  18.026   5.662
 6166POPC   GL177113  22.138  18.303   5.940
 6166POPC   GL277114  21.849  18.233   5.734
 6166POPC   C1A77115  22.085  18.632   6.256
 6166POPC   D2A77116  22.177  18.613   6.695
 6166POPC   C3A77117  21.947  18.574   7.057
 6166POPC   C4A77118  22.292  18.399   7.300
 6166POPC   C1B77119  21.802  17.987   6.133
 6166POPC   C2B77120  21.993  18.158   6.474
 6166POPC   C3B77121  22.124  18.110   6.870
 6166POPC   C4B77122  21.793  18.063   7.159
 6167POPC   NC377123  40.375   6.881   5.411
 6167POPC   PO477124  39.794   6.969   5.798
 6167POPC   GL177125  39.895   6.549   5.857
 6167POPC   GL277126  39.634   6.299   5.775
 6167POPC   C1A77127  40.122   6.450   6.218
 6167POPC   D2A77128  40.190   6.682   6.604
 6167POPC   C3A77129  40.182   6.407   6.963
 6167POPC   C4A77130  40.196   6.559   7.376
 6167POPC   C1B77131  39.500   6.460   6.208
 6167POPC   C2B77132  39.587   6.756   6.581
 6167POPC   C3B77133  39.776   6.709   7.012
 6167POPC   C4B77134  39.704   6.493   7.422
 6168POPC   NC377135  25.094  13.092   5.499
 6168POPC   PO477136  25.279  12.410   5.624
 6168POPC   GL177137  25.230  12.740   5.887
 6168POPC   GL277138  25.513  12.950   5.830
 6168POPC   C1A77139  25.241  12.690   6.315
 6168POPC   D2A77140  25.075  12.733   6.711
 6168POPC   C3A77141  25.204  12.998   7.039
 6168POPC   C4A77142  25.114  12.704   7.310
 6168POPC   C1B77143  25.663  12.963   6.272
 6168POPC   C2B77144  25.590  12.753   6.698
 6168POPC   C3B77145  25.698  12.893   7.108
 6168POPC   C4B77146  25.608  13.285   7.233
 6169POPC   NC377147   2.230  14.329   5.303
 6169POPC   PO477148   2.918  14.049   5.304
 6169POPC   GL177149   2.677  14.222   5.657
 6169POPC   GL277150   2.993  14.336   5.845
 6169POPC   C1A77151   2.607  14.124   6.098
 6169POPC   D2A77152   2.415  14.295   6.437
 6169POPC   C3A77153   2.525  14.291   6.835
 6169POPC   C4A77154   2.373  14.439   7.207
 6169POPC   C1B77155   2.790  14.581   6.205
 6169POPC   C2B77156   2.761  14.748   6.611
 6169POPC   C3B77157   2.813  14.671   7.050
 6169POPC   C4B77158   2.607  14.851   7.386
 6170POPC   NC377159   9.902  35.006   5.318
 6170POPC   PO477160   9.526  34.408   5.471
 6170POPC   GL177161   9.688  34.469   5.841
 6170POPC   GL277162   9.851  34.759   5.792
 6170POPC   C1A77163   9.612  34.626   6.253
 6170POPC   D2A77164   9.670  34.402   6.617
 6170POPC   C3A77165   9.665  34.552   7.010
 6170POPC   C4A77166   9.674  34.246   7.333
 6170POPC   C1B77167  10.046  34.934   6.183
 6170POPC   C2B77168   9.919  34.873   6.618
 6170POPC   C3B77169  10.060  34.870   7.052
 6170POPC   C4B77170  10.389  34.732   7.307
 6171POPC   NC377171  42.295  43.965   5.412
 6171POPC   PO477172  42.811  43.603   5.430
 6171POPC   GL177173  42.489  43.637   5.787
 6171POPC   GL277174  42.136  43.814   5.877
 6171POPC   C1A77175  42.486  43.666   6.238
 6171POPC   D2A77176  42.579  43.810   6.644
 6171POPC   C3A77177  42.226  43.688   6.887
 6171POPC   C4A77178  42.262  43.443   7.215
 6171POPC   C1B77179  42.178  44.101   6.262
 6171POPC   C2B77180  42.038  44.204   6.694
 6171POPC   C3B77181  42.299  44.144   7.064
 6171POPC   C4B77182  42.706  44.142   7.134
 6172POPC   NC377183  27.012   6.105   5.300
 6172POPC   PO477184  26.604   5.640   5.571
 6172POPC   GL177185  26.817   5.868   5.898
 6172POPC   GL277186  27.139   5.989   5.770
 6172POPC   C1A77187  26.824   5.912   6.345
 6172POPC   D2A77188  26.812   6.193   6.672
 6172POPC   C3A77189  26.643   5.895   6.948
 6172POPC   C4A77190  26.836   5.523   7.136
 6172POPC   C1B77191  27.165   6.210   6.112
 6172POPC   C2B77192  27.311   6.063   6.487
 6172POPC   C3B77193  27.134   5.808   6.774
 6172POPC   C4B77194  27.086   5.957   7.154
 6173POPC   NC377195   3.344   6.352   5.406
 6173POPC   PO477196   3.504   7.023   5.355
 6173POPC   GL177197   3.578   6.780   5.711
 6173POPC   GL277198   3.741   6.445   5.720
 6173POPC   C1A77199   3.389   6.700   6.092
 6173POPC   D2A77200   3.509   6.662   6.506
 6173POPC   C3A77201   3.340   6.691   6.914
 6173POPC   C4A77202   3.677   6.779   7.228
 6173POPC   C1B77203   3.770   6.318   6.157
 6173POPC   C2B77204   3.652   6.178   6.555
 6173POPC   C3B77205   3.764   6.361   6.933
 6173POPC   C4B77206   3.914   6.303   7.359
 6174POPC   NC377207  20.153  24.987   5.504
 6174POPC   PO477208  20.718  25.112   5.176
 6174POPC   GL177209  20.685  25.105   5.653
 6174POPC   GL277210  20.818  25.419   5.836
 6174POPC   C1A77211  20.522  25.106   6.117
 6174POPC   D2A77212  20.502  24.848   6.507
 6174POPC   C3A77213  20.304  25.038   6.879
 6174POPC   C4A77214  20.471  25.096   7.249
 6174POPC   C1B77215  21.111  25.494   6.193
 6174POPC   C2B77216  21.164  25.375   6.642
 6174POPC   C3B77217  20.876  25.545   6.979
 6174POPC   C4B77218  20.770  25.462   7.443
 6175POPC   NC377219   6.895   3.252   5.579
 6175POPC   PO477220   6.516   3.835   5.550
 6175POPC   GL177221   6.605   3.640   5.906
 6175POPC   GL277222   6.474   3.305   5.861
 6175POPC   C1A77223   6.709   3.790   6.313
 6175POPC   D2A77224   6.919   3.603   6.649
 6175POPC   C3A77225   6.670   3.685   6.980
 6175POPC   C4A77226   6.555   3.534   7.383
 6175POPC   C1B77227   6.730   3.273   6.238
 6175POPC   C2B77228   6.517   3.306   6.617
 6175POPC   C3B77229   6.544   3.184   7.016
 6175POPC   C4B77230   6.212   3.109   7.265
 6176POPC   NC377231  22.970  19.265   5.388
 6176POPC   PO477232  22.790  18.709   5.590
 6176POPC   GL177233  22.862  19.066   5.830
 6176POPC   GL277234  22.593  19.342   5.736
 6176POPC   C1A77235  23.057  19.014   6.205
 6176POPC   D2A77236  23.040  18.703   6.511
 6176POPC   C3A77237  22.983  18.943   6.861
 6176POPC   C4A77238  22.859  19.053   7.265
 6176POPC   C1B77239  22.619  19.284   6.201
 6176POPC   C2B77240  22.856  19.353   6.589
 6176POPC   C3B77241  22.649  19.413   6.985
 6176POPC   C4B77242  22.793  19.534   7.384
 6177POPC   NC377243  33.266  24.511   5.493
 6177POPC   PO477244  32.621  24.559   5.348
 6177POPC   GL177245  32.785  24.349   5.711
 6177POPC   GL277246  32.846  24.661   5.896
 6177POPC   C1A77247  32.844  24.225   6.159
 6177POPC   D2A77248  32.979  24.477   6.507
 6177POPC   C3A77249  32.759  24.490   6.882
 6177POPC   C4A77250  32.553  24.200   7.148
 6177POPC   C1B77251  33.217  24.783   6.148
 6177POPC   C2B77252  33.452  24.684   6.533
 6177POPC   C3B77253  33.327  24.470   6.897
 6177POPC   C4B77254  33.527  24.377   7.258
 6178POPC   NC377255   8.704  40.497   5.493
 6178POPC   PO477256   8.953  39.778   5.362
 6178POPC   GL177257   9.058  39.822   5.823
 6178POPC   GL277258   8.938  40.159   5.905
 6178POPC   C1A77259   9.141  39.893   6.303
 6178POPC   D2A77260   9.211  40.174   6.695
 6178POPC   C3A77261   9.360  40.055   7.132
 6178POPC   C4A77262   9.628  40.156   7.522
 6178POPC   C1B77263   8.652  39.831   6.176
 6178POPC   C2B77264   8.761  39.728   6.633
 6178POPC   C3B77265   8.768  39.813   7.083
 6178POPC   C4B77266   8.897  40.187   7.250
 6179POPC   NC377267  23.881  25.455   5.195
 6179POPC   PO477268  23.552  24.914   5.247
 6179POPC   GL177269  23.679  25.279   5.644
 6179POPC   GL277270  24.038  25.280   5.779
 6179POPC   C1A77271  23.633  25.396   6.151
 6179POPC   D2A77272  23.723  25.563   6.622
 6179POPC   C3A77273  23.428  25.537   6.991
 6179POPC   C4A77274  23.313  25.095   7.082
 6179POPC   C1B77275  24.014  25.044   6.189
 6179POPC   C2B77276  23.779  25.011   6.592
 6179POPC   C3B77277  23.819  25.183   7.011
 6179POPC   C4B77278  23.836  25.147   7.461
 6180POPC   NC377279  43.549  27.001   5.390
 6180POPC   PO477280  44.032  26.550   5.517
 6180POPC   GL177281  43.890  26.903   5.757
 6180POPC   GL277282  43.548  26.828   5.865
 6180POPC   C1A77283  43.864  27.109   6.161
 6180POPC   D2A77284  43.970  26.929   6.567
 6180POPC   C3A77285  43.885  27.150   6.930
 6180POPC   C4A77286  43.874  27.087   7.333
 6180POPC   C1B77287  43.764  26.604   6.200
 6180POPC   C2B77288  43.660  26.337   6.524
 6180POPC   C3B77289  43.767  26.529   6.904
 6180POPC   C4B77290  43.670  26.626   7.302
 6181POPC   NC377291  24.260  10.076   5.626
 6181POPC   PO477292  24.723   9.788   5.206
 6181POPC   GL177293  24.707   9.535   5.666
 6181POPC   GL277294  24.374   9.593   5.820
 6181POPC   C1A77295  24.755   9.620   6.184
 6181POPC   D2A77296  24.515   9.658   6.596
 6181POPC   C3A77297  24.709   9.757   6.998
 6181POPC   C4A77298  25.079   9.590   7.152
 6181POPC   C1B77299  24.174   9.446   6.215
 6181POPC   C2B77300  23.999   9.477   6.652
 6181POPC   C3B77301  24.240   9.546   7.037
 6181POPC   C4B77302  24.297   9.985   7.223
 6182POPC   NC377303  31.640   6.288   5.337
 6182POPC   PO477304  31.252   6.854   5.295
 6182POPC   GL177305  31.535   6.739   5.662
 6182POPC   GL277306  31.401   6.462   5.756
 6182POPC   C1A77307  31.614   6.683   6.152
 6182POPC   D2A77308  31.747   6.596   6.604
 6182POPC   C3A77309  31.491   6.640   6.987
 6182POPC   C4A77310  31.367   7.010   7.191
 6182POPC   C1B77311  31.220   6.334   6.115
 6182POPC   C2B77312  31.340   6.240   6.520
 6182POPC   C3B77313  31.075   6.295   6.858
 6182POPC   C4B77314  31.161   6.274   7.273
 6183POPC   NC377315  39.301   9.385   5.609
 6183POPC   PO477316  38.717   9.260   5.503
 6183POPC   GL177317  38.882   9.504   5.892
 6183POPC   GL277318  39.111   9.789   5.858
 6183POPC   C1A77319  39.182   9.434   6.283
 6183POPC   D2A77320  39.422   9.605   6.680
 6183POPC   C3A77321  39.165   9.685   7.087
 6183POPC   C4A77322  38.945   9.859   7.482
 6183POPC   C1B77323  39.491   9.853   6.130
 6183POPC   C2B77324  39.639  10.110   6.484
 6183POPC   C3B77325  39.583  10.038   6.935
 6183POPC   C4B77326  39.679   9.652   7.160
 6184POPC   NC377327  32.151  15.422   5.574
 6184POPC   PO477328  32.625  15.029   5.710
 6184POPC   GL177329  32.527  15.447   5.943
 6184POPC   GL277330  32.154  15.493   6.058
 6184POPC   C1A77331  32.494  15.412   6.402
 6184POPC   D2A77332  32.457  14.966   6.478
 6184POPC   C3A77333  32.506  14.935   6.899
 6184POPC   C4A77334  32.478  15.211   7.239
 6184POPC   C1B77335  31.974  15.156   6.289
 6184POPC   C2B77336  32.016  15.108   6.717
 6184POPC   C3B77337  31.811  15.206   7.069
 6184POPC   C4B77338  32.066  14.927   7.276
 6185POPC   NC377339   1.257  14.575   5.303
 6185POPC   PO477340   1.568  14.156   5.637
 6185POPC   GL177341   1.224  14.390   5.776
 6185POPC   GL277342   0.992  14.083   5.708
 6185POPC   C1A77343   1.324  14.592   6.178
 6185POPC   D2A77344   1.475  14.593   6.611
 6185POPC   C3A77345   1.168  14.520   6.958
 6185POPC   C4A77346   1.401  14.285   7.286
 6185POPC   C1B77347   1.106  14.068   6.136
 6185POPC   C2B77348   1.145  14.225   6.516
 6185POPC   C3B77349   1.358  14.067   6.823
 6185POPC   C4B77350   1.264  13.808   7.155
 6186POPC   NC377351  14.000  14.977   5.558
 6186POPC   PO477352  13.348  14.902   5.442
 6186POPC   GL177353  13.530  14.946   5.869
 6186POPC   GL277354  13.791  15.225   5.938
 6186POPC   C1A77355  13.536  15.021   6.316
 6186POPC   D2A77356  13.784  15.153   6.663
 6186POPC   C3A77357  13.664  15.342   7.070
 6186POPC   C4A77358  13.722  15.010   7.338
 6186POPC   C1B77359  14.127  15.206   6.252
 6186POPC   C2B77360  14.304  15.164   6.661
 6186POPC   C3B77361  14.123  15.100   7.044
 6186POPC   C4B77362  14.092  15.328   7.457
 6187POPC   NC377363  17.032  39.177   5.272
 6187POPC   PO477364  17.539  38.950   5.616
 6187POPC   GL177365  17.551  39.311   5.911
 6187POPC   GL277366  17.264  39.237   5.998
 6187POPC   C1A77367  17.532  39.389   6.394
 6187POPC   D2A77368  17.590  39.066   6.706
 6187POPC   C3A77369  17.573  39.244   7.120
 6187POPC   C4A77370  17.434  39.425   7.505
 6187POPC   C1B77371  17.184  39.003   6.328
 6187POPC   C2B77372  17.050  39.052   6.695
 6187POPC   C3B77373  16.851  38.884   7.005
 6187POPC   C4B77374  17.158  38.976   7.317
 6188POPC   NC377375   6.922   2.255   5.511
 6188POPC   PO477376   6.216   2.109   5.386
 6188POPC   GL177377   6.470   2.175   5.751
 6188POPC   GL277378   6.679   1.853   5.734
 6188POPC   C1A77379   6.652   2.167   6.170
 6188POPC   D2A77380   6.479   1.970   6.545
 6188POPC   C3A77381   6.797   1.912   6.851
 6188POPC   C4A77382   6.887   2.195   7.173
 6188POPC   C1B77383   6.696   1.660   6.147
 6188POPC   C2B77384   6.546   1.459   6.542
 6188POPC   C3B77385   6.375   1.610   6.928
 6188POPC   C4B77386   6.564   1.769   7.307
 6189POPC   NC377387  30.719  25.630   5.500
 6189POPC   PO477388  31.188  25.082   5.532
 6189POPC   GL177389  30.890  25.321   5.885
 6189POPC   GL277390  30.527  25.384   5.901
 6189POPC   C1A77391  30.795  25.411   6.337
 6189POPC   D2A77392  30.672  25.566   6.757
 6189POPC   C3A77393  30.688  25.219   6.960
 6189POPC   C4A77394  30.554  24.844   7.120
 6189POPC   C1B77395  30.508  25.007   6.195
 6189POPC   C2B77396  30.348  24.944   6.634
 6189POPC   C3B77397  30.169  25.176   6.975
 6189POPC   C4B77398  30.348  25.537   7.184
 6190POPC   NC377399  32.259   6.203   5.486
 6190POPC   PO477400  31.738   5.826   5.288
 6190POPC   GL177401  32.084   5.754   5.665
 6190POPC   GL277402  32.458   5.603   5.703
 6190POPC   C1A77403  32.170   5.920   6.106
 6190POPC   D2A77404  32.462   6.018   6.465
 6190POPC   C3A77405  32.271   6.046   6.888
 6190POPC   C4A77406  32.362   6.225   7.269
 6190POPC   C1B77407  32.424   5.466   6.157
 6190POPC   C2B77408  32.158   5.605   6.538
 6190POPC   C3B77409  32.168   5.566   6.980
 6190POPC   C4B77410  32.456   5.709   7.320
 6191POPC   NC377411  15.491  44.548   5.365
 6191POPC   PO477412  16.017  44.796   5.231
 6191POPC   GL177413  15.827  44.767   5.718
 6191POPC   GL277414  16.077  44.805   5.981
 6191POPC   C1A77415  15.618  44.893   6.170
 6191POPC   D2A77416  15.912  44.993   6.541
 6191POPC   C3A77417  15.912  44.762   6.958
 6191POPC   C4A77418  15.983  44.831   7.436
 6191POPC   C1B77419  15.897  44.481   6.318
 6191POPC   C2B77420  15.890  44.284   6.774
 6191POPC   C3B77421  16.070  44.338   7.226
 6191POPC   C4B77422  16.115  44.431   7.712
 6192POPC   NC377423  15.334  10.940   5.395
 6192POPC   PO477424  14.918  11.498   5.359
 6192POPC   GL177425  15.184  11.519   5.710
 6192POPC   GL277426  15.344  11.204   5.844
 6192POPC   C1A77427  15.076  11.602   6.129
 6192POPC   D2A77428  15.281  11.516   6.515
 6192POPC   C3A77429  15.110  11.555   6.922
 6192POPC   C4A77430  15.207  11.228   7.215
 6192POPC   C1B77431  15.106  11.085   6.238
 6192POPC   C2B77432  15.095  11.037   6.703
 6192POPC   C3B77433  14.916  10.805   7.048
 6192POPC   C4B77434  14.821  10.968   7.418
 6193POPC   NC377435  32.319  19.374   5.029
 6193POPC   PO477436  32.193  18.709   5.190
 6193POPC   GL177437  32.232  19.061   5.678
 6193POPC   GL277438  32.161  19.415   5.854
 6193POPC   C1A77439  32.412  19.043   6.114
 6193POPC   D2A77440  32.536  19.007   6.531
 6193POPC   C3A77441  32.324  18.928   6.915
 6193POPC   C4A77442  32.328  18.877   7.353
 6193POPC   C1B77443  32.113  19.437   6.322
 6193POPC   C2B77444  31.976  19.228   6.692
 6193POPC   C3B77445  32.041  19.314   7.134
 6193POPC   C4B77446  32.269  19.333   7.554
 6194POPC   NC377447   6.281   2.574   5.434
 6194POPC   PO477448   6.921   2.772   5.506
 6194POPC   GL177449   6.817   2.607   5.889
 6194POPC   GL277450   6.523   2.793   5.861
 6194POPC   C1A77451   6.713   2.651   6.326
 6194POPC   D2A77452   6.683   2.421   6.699
 6194POPC   C3A77453   6.974   2.660   6.967
 6194POPC   C4A77454   6.889   2.909   7.310
 6194POPC   C1B77455   6.319   2.976   6.236
 6194POPC   C2B77456   6.343   2.824   6.675
 6194POPC   C3B77457   6.479   2.686   7.084
 6194POPC   C4B77458   6.259   2.618   7.406
 6195POPC   NC377459  10.130  21.252   5.521
 6195POPC   PO477460  10.479  21.690   5.234
 6195POPC   GL177461  10.578  21.454   5.671
 6195POPC   GL277462  10.621  21.084   5.632
 6195POPC   C1A77463  10.460  21.353   6.140
 6195POPC   D2A77464  10.287  21.349   6.591
 6195POPC   C3A77465  10.467  21.553   6.967
 6195POPC   C4A77466  10.474  21.368   7.373
 6195POPC   C1B77467  10.738  20.936   6.032
 6195POPC   C2B77468  10.605  20.928   6.471
 6195POPC   C3B77469  10.621  21.062   6.866
 6195POPC   C4B77470  10.902  21.003   7.135
 6196POPC   NC377471  38.566  34.397   5.527
 6196POPC   PO477472  38.595  35.067   5.447
 6196POPC   GL177473  38.405  34.844   5.794
 6196POPC   GL277474  38.738  34.703   5.918
 6196POPC   C1A77475  38.222  34.789   6.220
 6196POPC   D2A77476  38.393  34.792   6.650
 6196POPC   C3A77477  38.401  34.479   6.929
 6196POPC   C4A77478  38.189  34.341   7.280
 6196POPC   C1B77479  38.649  34.488   6.301
 6196POPC   C2B77480  38.752  34.169   6.593
 6196POPC   C3B77481  38.805  34.106   6.994
 6196POPC   C4B77482  38.704  34.393   7.328
 6197POPC   NC377483  30.118   2.961   5.616
 6197POPC   PO477484  29.802   2.574   5.194
 6197POPC   GL177485  29.844   2.552   5.724
 6197POPC   GL277486  29.631   2.827   5.865
 6197POPC   C1A77487  29.920   2.646   6.232
 6197POPC   D2A77488  29.643   2.792   6.614
 6197POPC   C3A77489  29.719   2.602   7.037
 6197POPC   C4A77490  30.103   2.568   7.275
 6197POPC   C1B77491  29.721   3.146   6.208
 6197POPC   C2B77492  29.599   3.316   6.625
 6197POPC   C3B77493  29.598   3.162   7.017
 6197POPC   C4B77494  29.923   3.033   7.291
 6198POPC   NC377495  18.495  14.076   5.305
 6198POPC   PO477496  17.902  14.276   5.486
 6198POPC   GL177497  18.053  13.904   5.810
 6198POPC   GL277498  18.161  13.514   5.831
 6198POPC   C1A77499  18.096  13.763   6.272
 6198POPC   D2A77500  17.876  13.725   6.639
 6198POPC   C3A77501  18.092  13.826   7.008
 6198POPC   C4A77502  18.079  13.619   7.393
 6198POPC   C1B77503  18.503  13.474   6.185
 6198POPC   C2B77504  18.583  13.653   6.620
 6198POPC   C3B77505  18.526  13.520   7.056
 6198POPC   C4B77506  18.591  13.577   7.503
 6199POPC   NC377507  17.177  40.800   5.283
 6199POPC   PO477508  17.855  40.546   5.206
 6199POPC   GL177509  17.610  40.729   5.593
 6199POPC   GL277510  17.292  40.594   5.745
 6199POPC   C1A77511  17.496  40.943   6.037
 6199POPC   D2A77512  17.456  40.797   6.505
 6199POPC   C3A77513  17.610  40.599   6.988
 6199POPC   C4A77514  17.293  40.256   7.207
 6199POPC   C1B77515  17.076  40.661   6.171
 6199POPC   C2B77516  16.929  40.733   6.606
 6199POPC   C3B77517  16.985  40.632   7.095
 6199POPC   C4B77518  17.058  40.965   7.449
 6200POPC   NC377519  12.754  26.106   5.181
 6200POPC   PO477520  12.394  26.356   5.695
 6200POPC   GL177521  12.800  26.235   5.764
 6200POPC   GL277522  12.780  25.904   5.718
 6200POPC   C1A77523  12.842  26.142   6.206
 6200POPC   D2A77524  12.621  26.371   6.516
 6200POPC   C3A77525  12.736  26.170   6.871
 6200POPC   C4A77526  12.879  26.256   7.272
 6200POPC   C1B77527  12.737  25.659   6.119
 6200POPC   C2B77528  12.960  25.706   6.514
 6200POPC   C3B77529  12.994  25.695   6.954
 6200POPC   C4B77530  12.765  25.773   7.338
 6201POPC   NC377531  32.073  11.736   5.049
 6201POPC   PO477532  32.294  12.249   5.499
 6201POPC   GL177533  32.218  12.048   5.874
 6201POPC   GL277534  31.918  11.958   5.845
 6201POPC   C1A77535  32.185  11.914   6.300
 6201POPC   D2A77536  32.146  12.094   6.713
 6201POPC   C3A77537  32.335  11.873   7.065
 6201POPC   C4A77538  32.520  11.942   7.457
 6201POPC   C1B77539  31.848  12.302   6.185
 6201POPC   C2B77540  31.883  12.545   6.606
 6201POPC   C3B77541  31.878  12.379   7.040
 6201POPC   C4B77542  31.846  11.944   7.160
 6202POPC   NC377543  37.223  40.480   5.392
 6202POPC   PO477544  37.090  41.239   5.443
 6202POPC   GL177545  36.824  41.059   5.772
 6202POPC   GL277546  36.680  40.721   5.738
 6202POPC   C1A77547  36.989  40.887   6.153
 6202POPC   D2A77548  37.221  40.830   6.557
 6202POPC   C3A77549  36.980  40.935   6.918
 6202POPC   C4A77550  36.964  40.775   7.289
 6202POPC   C1B77551  36.696  40.454   6.110
 6202POPC   C2B77552  36.737  40.616   6.515
 6202POPC   C3B77553  36.804  40.421   6.889
 6202POPC   C4B77554  36.663  40.367   7.280
 6203POPC   NC377555  29.333  17.385   5.292
 6203POPC   PO477556  28.759  17.697   5.382
 6203POPC   GL177557  29.107  17.656   5.694
 6203POPC   GL277558  29.299  17.941   5.662
 6203POPC   C1A77559  29.338  17.449   6.055
 6203POPC   D2A77560  29.420  17.299   6.501
 6203POPC   C3A77561  29.103  17.416   6.835
 6203POPC   C4A77562  29.218  17.321   7.252
 6203POPC   C1B77563  29.368  17.958   6.117
 6203POPC   C2B77564  29.270  17.794   6.528
 6203POPC   C3B77565  29.485  17.743   6.921
 6203POPC   C4B77566  29.332  17.839   7.322
 6204POPC   NC377567  39.950  32.729   5.380
 6204POPC   PO477568  40.358  33.247   5.596
 6204POPC   GL177569  40.026  32.970   5.837
 6204POPC   GL277570  40.114  32.618   5.872
 6204POPC   C1A77571  39.842  32.842   6.263
 6204POPC   D2A77572  40.051  33.055   6.624
 6204POPC   C3A77573  39.986  32.995   7.072
 6204POPC   C4A77574  39.925  33.404   7.243
 6204POPC   C1B77575  40.349  32.752   6.244
 6204POPC   C2B77576  40.351  32.663   6.696
 6204POPC   C3B77577  40.450  32.758   7.157
 6204POPC   C4B77578  40.412  32.652   7.648
 6205POPC   NC377579  10.558  28.020   5.416
 6205POPC   PO477580  10.412  28.694   5.541
 6205POPC   GL177581  10.443  28.480   5.913
 6205POPC   GL277582  10.466  28.145   5.905
 6205POPC   C1A77583  10.457  28.531   6.341
 6205POPC   D2A77584  10.620  28.825   6.617
 6205POPC   C3A77585  10.383  28.699   6.926
 6205POPC   C4A77586  10.494  28.467   7.242
 6205POPC   C1B77587  10.596  28.037   6.342
 6205POPC   C2B77588  10.561  28.206   6.772
 6205POPC   C3B77589  10.770  28.065   7.136
 6205POPC   C4B77590  11.090  28.035   7.391
 6206POPC   NC377591  17.233  30.516   5.522
 6206POPC   PO477592  17.409  31.191   5.592
 6206POPC   GL177593  17.602  30.818   5.841
 6206POPC   GL277594  17.487  30.469   5.962
 6206POPC   C1A77595  17.768  30.759   6.259
 6206POPC   D2A77596  17.930  31.062   6.504
 6206POPC   C3A77597  17.905  30.971   6.945
 6206POPC   C4A77598  17.881  30.591   7.204
 6206POPC   C1B77599  17.326  30.537   6.386
 6206POPC   C2B77600  17.536  30.659   6.744
 6206POPC   C3B77601  17.400  30.810   7.138
 6206POPC   C4B77602  17.459  30.574   7.505
 6207POPC   NC377603  37.408   9.433   5.374
 6207POPC   PO477604  37.880   8.900   5.504
 6207POPC   GL177605  37.657   8.941   5.860
 6207POPC   GL277606  38.007   8.919   6.002
 6207POPC   C1A77607  37.592   8.818   6.282
 6207POPC   D2A77608  37.916   8.872   6.591
 6207POPC   C3A77609  37.765   8.740   6.989
 6207POPC   C4A77610  37.352   8.810   7.158
 6207POPC   C1B77611  38.213   9.211   6.282
 6207POPC   C2B77612  38.141   9.333   6.706
 6207POPC   C3B77613  37.894   9.240   7.069
 6207POPC   C4B77614  38.062   9.081   7.427
 6208POPC   NC377615  21.821   6.788   5.407
 6208POPC   PO477616  22.450   6.557   5.465
 6208POPC   GL177617  22.172   6.607   5.814
 6208POPC   GL277618  21.975   6.904   5.880
 6208POPC   C1A77619  22.294   6.747   6.247
 6208POPC   D2A77620  22.263   6.899   6.666
 6208POPC   C3A77621  22.364   6.603   6.975
 6208POPC   C4A77622  22.221   6.683   7.397
 6208POPC   C1B77623  21.804   6.599   6.177
 6208POPC   C2B77624  21.721   6.585   6.602
 6208POPC   C3B77625  21.840   6.599   7.013
 6208POPC   C4B77626  21.622   6.315   7.263
 6209POPC   NC377627  16.641  26.540   5.333
 6209POPC   PO477628  17.024  27.051   5.198
 6209POPC   GL177629  16.839  26.897   5.655
 6209POPC   GL277630  16.692  26.591   5.837
 6209POPC   C1A77631  16.777  27.064   6.101
 6209POPC   D2A77632  16.946  27.004   6.540
 6209POPC   C3A77633  16.744  27.169   6.925
 6209POPC   C4A77634  17.036  27.241   7.277
 6209POPC   C1B77635  16.717  26.594   6.294
 6209POPC   C2B77636  16.404  26.458   6.649
 6209POPC   C3B77637  16.602  26.521   7.038
 6209POPC   C4B77638  16.954  26.755   7.145
 6210POPC   NC377639  43.052  18.602   5.575
 6210POPC   PO477640  43.530  18.220   5.321
 6210POPC   GL177641  43.462  18.368   5.769
 6210POPC   GL277642  43.445  18.040   5.858
 6210POPC   C1A77643  43.196  18.434   6.186
 6210POPC   D2A77644  42.947  18.674   6.497
 6210POPC   C3A77645  42.736  18.447   6.821
 6210POPC   C4A77646  42.856  18.452   7.228
 6210POPC   C1B77647  43.171  17.920   6.207
 6210POPC   C2B77648  42.995  18.085   6.584
 6210POPC   C3B77649  43.069  17.988   7.034
 6210POPC   C4B77650  43.326  17.903   7.404
 6211POPC   NC377651  19.217  24.647   5.411
 6211POPC   PO477652  18.564  24.792   5.268
 6211POPC   GL177653  18.792  24.715   5.760
 6211POPC   GL277654  19.036  24.401   5.827
 6211POPC   C1A77655  18.788  24.551   6.233
 6211POPC   D2A77656  19.118  24.325   6.486
 6211POPC   C3A77657  19.026  24.314   6.907
 6211POPC   C4A77658  18.836  24.601   7.162
 6211POPC   C1B77659  19.292  24.674   6.141
 6211POPC   C2B77660  19.507  24.662   6.581
 6211POPC   C3B77661  19.386  24.657   7.053
 6211POPC   C4B77662  19.238  24.347   7.403
 6212POPC   NC377663   9.992  16.311   5.460
 6212POPC   PO477664   9.678  16.925   5.454
 6212POPC   GL177665   9.743  16.664   5.826
 6212POPC   GL277666  10.102  16.593   5.874
 6212POPC   C1A77667   9.827  16.798   6.254
 6212POPC   D2A77668  10.009  16.929   6.639
 6212POPC   C3A77669   9.700  17.017   6.950
 6212POPC   C4A77670   9.634  16.850   7.353
 6212POPC   C1B77671  10.204  16.446   6.325
 6212POPC   C2B77672  10.263  16.486   6.803
 6212POPC   C3B77673  10.080  16.737   7.156
 6212POPC   C4B77674  10.054  16.700   7.646
 6213POPC   NC377675   9.543  17.369   5.383
 6213POPC   PO477676  10.082  17.832   5.333
 6213POPC   GL177677   9.885  17.573   5.744
 6213POPC   GL277678   9.521  17.477   5.874
 6213POPC   C1A77679   9.880  17.335   6.187
 6213POPC   D2A77680   9.628  17.394   6.579
 6213POPC   C3A77681   9.830  17.536   6.965
 6213POPC   C4A77682  10.016  17.263   7.275
 6213POPC   C1B77683   9.560  17.787   6.237
 6213POPC   C2B77684   9.525  18.017   6.674
 6213POPC   C3B77685   9.399  17.814   7.088
 6213POPC   C4B77686   9.670  17.669   7.446
 6214POPC   NC377687  28.333  29.205   5.371
 6214POPC   PO477688  27.743  29.350   5.511
 6214POPC   GL177689  28.046  29.333   5.807
 6214POPC   GL277690  28.093  28.993   5.814
 6214POPC   C1A77691  28.150  29.309   6.266
 6214POPC   D2A77692  28.088  29.157   6.709
 6214POPC   C3A77693  28.334  29.377   7.047
 6214POPC   C4A77694  28.248  29.376   7.478
 6214POPC   C1B77695  28.325  28.800   6.148
 6214POPC   C2B77696  28.309  28.698   6.583
 6214POPC   C3B77697  28.552  28.858   6.947
 6214POPC   C4B77698  28.645  29.032   7.391
 6215POPC   NC377699  37.624  18.454   5.350
 6215POPC   PO477700  38.100  17.991   5.295
 6215POPC   GL177701  37.933  18.138   5.738
 6215POPC   GL277702  37.861  18.520   5.805
 6215POPC   C1A77703  37.715  18.192   6.169
 6215POPC   D2A77704  37.456  18.330   6.534
 6215POPC   C3A77705  37.594  18.198   6.922
 6215POPC   C4A77706  37.798  18.025   7.241
 6215POPC   C1B77707  37.548  18.678   6.146
 6215POPC   C2B77708  37.343  18.841   6.545
 6215POPC   C3B77709  37.548  18.705   6.936
 6215POPC   C4B77710  37.561  18.486   7.362
 6216POPC   NC377711  30.446  15.284   5.392
 6216POPC   PO477712  30.971  14.963   5.369
 6216POPC   GL177713  30.806  15.102   5.764
 6216POPC   GL277714  30.532  14.899   5.749
 6216POPC   C1A77715  30.904  15.246   6.202
 6216POPC   D2A77716  30.902  15.440   6.615
 6216POPC   C3A77717  30.712  15.363   6.984
 6216POPC   C4A77718  30.630  15.609   7.350
 6216POPC   C1B77719  30.607  14.838   6.179
 6216POPC   C2B77720  30.662  14.990   6.601
 6216POPC   C3B77721  30.594  14.859   7.017
 6216POPC   C4B77722  30.462  15.088   7.401
 6217POPC   NC377723  29.218  33.928   5.379
 6217POPC   PO477724  29.367  33.391   5.708
 6217POPC   GL177725  29.207  33.729   5.866
 6217POPC   GL277726  29.429  34.041   5.823
 6217POPC   C1A77727  29.015  33.655   6.270
 6217POPC   D2A77728  28.988  33.921   6.656
 6217POPC   C3A77729  29.057  33.651   7.001
 6217POPC   C4A77730  29.059  33.691   7.421
 6217POPC   C1B77731  29.240  34.104   6.202
 6217POPC   C2B77732  29.463  34.181   6.568
 6217POPC   C3B77733  29.461  34.010   6.982
 6217POPC   C4B77734  29.538  33.847   7.397
 6218POPC   NC377735  20.242  33.900   5.170
 6218POPC   PO477736  20.722  33.453   5.434
 6218POPC   GL177737  20.565  33.648   5.826
 6218POPC   GL277738  20.198  33.786   5.802
 6218POPC   C1A77739  20.753  33.665   6.238
 6218POPC   D2A77740  20.795  34.010   6.530
 6218POPC   C3A77741  20.654  33.913   6.943
 6218POPC   C4A77742  20.862  33.545   7.104
 6218POPC   C1B77743  20.315  33.927   6.222
 6218POPC   C2B77744  20.328  33.692   6.599
 6218POPC   C3B77745  20.325  33.555   7.045
 6218POPC   C4B77746  20.490  33.732   7.435
 6219POPC   NC377747  43.388  14.590   5.446
 6219POPC   PO477748  42.917  14.122   5.423
 6219POPC   GL177749  42.978  14.361   5.775
 6219POPC   GL277750  43.311  14.452   5.924
 6219POPC   C1A77751  42.890  14.351   6.190
 6219POPC   D2A77752  42.975  14.459   6.574
 6219POPC   C3A77753  43.050  14.208   6.912
 6219POPC   C4A77754  42.946  14.394   7.264
 6219POPC   C1B77755  43.286  14.740   6.263
 6219POPC   C2B77756  43.381  14.737   6.696
 6219POPC   C3B77757  43.400  14.552   7.057
 6219POPC   C4B77758  43.580  14.711   7.388
 6220POPC   NC377759  43.198  42.132   5.442
 6220POPC   PO477760  42.590  42.370   5.465
 6220POPC   GL177761  42.932  42.394   5.794
 6220POPC   GL277762  43.279  42.501   5.796
 6220POPC   C1A77763  42.987  42.321   6.233
 6220POPC   D2A77764  42.809  42.284   6.649
 6220POPC   C3A77765  43.041  42.260   7.023
 6220POPC   C4A77766  43.045  42.474   7.421
 6220POPC   C1B77767  43.467  42.210   6.115
 6220POPC   C2B77768  43.355  42.137   6.561
 6220POPC   C3B77769  43.540  42.318   6.941
 6220POPC   C4B77770  43.506  42.205   7.398
 6221POPC   NC377771  11.492  30.835   5.420
 6221POPC   PO477772  10.986  30.455   5.240
 6221POPC   GL177773  11.264  30.602   5.782
 6221POPC   GL277774  11.506  30.430   5.876
 6221POPC   C1A77775  11.202  30.552   6.264
 6221POPC   D2A77776  11.025  30.494   6.669
 6221POPC   C3A77777  10.964  30.836   6.926
 6221POPC   C4A77778  11.170  30.887   7.307
 6221POPC   C1B77779  11.560  30.878   6.111
 6221POPC   C2B77780  11.712  30.878   6.550
 6221POPC   C3B77781  11.527  30.773   6.942
 6221POPC   C4B77782  11.732  30.848   7.318
 6222POPC   NC377783  18.877  11.834   5.416
 6222POPC   PO477784  19.189  12.457   5.329
 6222POPC   GL177785  19.113  12.322   5.792
 6222POPC   GL277786  19.247  11.964   5.874
 6222POPC   C1A77787  19.233  12.321   6.253
 6222POPC   D2A77788  18.941  12.272   6.605
 6222POPC   C3A77789  18.999  12.201   7.062
 6222POPC   C4A77790  18.927  12.346   7.498
 6222POPC   C1B77791  18.942  11.891   6.205
 6222POPC   C2B77792  18.911  11.756   6.644
 6222POPC   C3B77793  18.911  11.697   7.082
 6222POPC   C4B77794  18.719  11.848   7.480
 6223POPC   NC377795   3.351  13.908   5.498
 6223POPC   PO477796   3.565  13.259   5.647
 6223POPC   GL177797   3.700  13.639   5.827
 6223POPC   GL277798   3.367  13.653   5.940
 6223POPC   C1A77799   3.782  13.785   6.254
 6223POPC   D2A77800   3.897  13.712   6.694
 6223POPC   C3A77801   3.690  13.714   7.099
 6223POPC   C4A77802   3.631  13.346   7.352
 6223POPC   C1B77803   3.358  14.045   6.141
 6223POPC   C2B77804   3.437  14.014   6.568
 6223POPC   C3B77805   3.406  14.133   6.984
 6223POPC   C4B77806   3.228  13.908   7.329
 6224POPC   NC377807  20.349   6.636   5.284
 6224POPC   PO477808  19.738   6.848   5.246
 6224POPC   GL177809  19.823   6.702   5.686
 6224POPC   GL277810  19.753   6.359   5.750
 6224POPC   C1A77811  19.694   6.829   6.112
 6224POPC   D2A77812  19.724   7.021   6.518
 6224POPC   C3A77813  19.516   6.866   6.882
 6224POPC   C4A77814  19.760   6.886   7.255
 6224POPC   C1B77815  19.890   6.349   6.158
 6224POPC   C2B77816  19.807   6.526   6.540
 6224POPC   C3B77817  19.859   6.461   6.963
 6224POPC   C4B77818  19.731   6.228   7.320
 6225POPC   NC377819  15.891  29.660   5.383
 6225POPC   PO477820  15.917  30.293   5.213
 6225POPC   GL177821  15.789  30.112   5.651
 6225POPC   GL277822  16.074  29.922   5.790
 6225POPC   C1A77823  15.775  30.154   6.138
 6225POPC   D2A77824  16.002  30.241   6.549
 6225POPC   C3A77825  15.757  30.159   6.920
 6225POPC   C4A77826  15.634  30.012   7.340
 6225POPC   C1B77827  16.244  29.721   6.192
 6225POPC   C2B77828  16.275  29.770   6.660
 6225POPC   C3B77829  16.273  29.707   7.094
 6225POPC   C4B77830  16.131  30.077   7.278
 6226POPC   NC377831  21.644  25.865   5.414
 6226POPC   PO477832  22.329  26.016   5.243
 6226POPC   GL177833  22.207  26.040   5.727
 6226POPC   GL277834  21.962  25.808   5.841
 6226POPC   C1A77835  22.363  26.095   6.199
 6226POPC   D2A77836  22.479  25.945   6.656
 6226POPC   C3A77837  22.415  26.101   7.067
 6226POPC   C4A77838  22.105  25.999   7.369
 6226POPC   C1B77839  21.828  26.142   6.133
 6226POPC   C2B77840  21.649  26.127   6.530
 6226POPC   C3B77841  21.860  26.075   6.913
 6226POPC   C4B77842  21.661  26.197   7.299
 6227W        W77843  39.314  15.116   1.003
 6228W        W77844  33.049  29.142  12.801
 6229W        W77845  16.760  16.785   3.734
 6230W        W77846  15.954   3.652   5.116
 6231W        W77847  36.045  20.117   0.459
 6232W        W77848  41.793  22.168   1.163
 6233W        W77849  44.849  16.131  10.591
 6234W        W77850  34.992  18.723  14.147
 6235W        W77851  16.311  15.243   2.685
 6236W        W77852  35.630  32.606   1.540
 6237W        W77853  16.633  25.681   1.758
 6238W        W77854  26.742   8.308   0.705
 6239W        W77855   4.471  44.710  11.646
 6240W        W77856   8.409  27.546  13.557
 6241W        W77857  14.114  29.116  14.788
 6242W        W77858  30.795  33.475   0.371
 6243W        W77859  42.122   2.119   2.701
 6244W        W77860  25.204   9.133   0.376
 6245W        W77861  40.473  12.190   3.531
 6246W        W77862  21.081   2.390   4.163
 6247W        W77863  26.058  18.811   4.858
 6248W        W77864   1.523  27.644   4.594
 6249W        W77865   2.736  11.759  11.426
 6250W        W77866  26.493  42.049   3.321
 6251W        W77867   8.291  15.285  12.868
 6252W        W77868  27.576  26.248  13.350
 6253W        W77869  25.729  41.869  13.395
 6254W        W77870  14.683  36.817  13.833
 6255W        W77871  27.347   8.398   1.732
 6256W        W77872  23.729  26.186   4.804
 6257W        W77873   6.687   5.144  14.363
 6258W        W77874  36.141   7.246  12.525
 6259W        W77875   4.911  11.106  14.783
 6260W        W77876  28.550  31.110   4.141
 6261W        W77877  10.048   6.237   4.550
 6262W        W77878   4.877  36.491   2.142
 6263W        W77879   5.712  43.835  10.945
 6264W        W77880   4.660  24.102  10.062
 6265W        W77881  20.381   8.498   0.336
 6266W        W77882  37.043  34.085  10.684
 6267W        W77883  10.173   1.503   4.168
 6268W        W77884   4.452   6.700  14.833
 6269W        W77885  13.109   9.221   0.896
 6270W        W77886  13.325  30.738  14.546
 6271W        W77887   3.121   1.865  14.406
 6272W        W77888  44.214   2.009   0.651
 6273W        W77889  20.065  32.344   1.246
 6274W        W77890  11.043  40.958  10.629
 6275W        W77891  38.055  31.387   4.229
 6276W        W77892  30.902   8.912  12.883
 6277W        W77893  13.430  39.510   3.256
 6278W        W77894  19.169  23.628   4.562
 6279W        W77895  39.055   9.232  13.444
 6280W        W77896  36.554  20.858   0.353
 6281W        W77897  12.084   5.833  14.700
 6282W        W77898  13.684   6.703  10.006
 6283W        W77899  42.808  17.199  14.804
 6284W        W77900   0.200  32.489  11.263
 6285W        W77901  31.684  44.446   0.318
 6286W        W77902  24.594  34.094   0.230
 6287W        W77903  28.036   7.148  13.302
 6288W        W77904  32.394  13.128   4.141
 6289W        W77905  40.713  27.846  11.694
 6290W        W77906  24.228  14.254  13.664
 6291W        W77907  29.415  15.612   3.063
 6292W        W77908  16.115   0.888   4.497
 6293W        W77909  43.374  16.206   1.660
 6294W        W77910  39.411  37.240  11.216
 6295W        W77911  15.618   3.714  12.724
 6296W        W77912  16.312  12.851  12.495
 6297W        W77913   0.150  19.699   3.608
 6298W        W77914  39.381  30.111   0.979
 6299W        W77915  38.779   2.320   4.386
 6300W        W77916   6.528  22.178   2.231
 6301W        W77917  10.374   3.750  14.897
 6302W        W77918  28.701  36.900  14.427
 6303W        W77919  29.675   7.850   3.235
 6304W        W77920  20.782   7.867   1.987
 6305W        W77921  44.868  30.185  11.518
 6306W        W77922   2.822  31.201   2.580
 6307W        W77923  18.587  24.128  14.202
 6308W        W77924  33.416  27.718  13.844
 6309W        W77925  11.864  34.222   1.728
 6310W        W77926   4.300  42.204   3.148
 6311W        W77927   2.402  37.892   0.311
 6312W        W77928  34.178  25.667   4.206
 6313W        W77929  39.579  22.314   0.245
 6314W        W77930  15.621  37.855  14.772
 6315W        W77931  32.334  19.251  14.504
 6316W        W77932   5.825   2.836  10.784
 6317W        W77933  35.975  18.299   4.466
 6318W        W77934  33.613  14.677  13.810
 6319W        W77935  26.530  43.021   1.284
 6320W        W77936  11.077  35.437   4.562
 6321W        W77937   8.256   3.135   4.160
 6322W        W77938   4.773   6.411  14.505
 6323W        W77939  31.497   6.930  12.036
 6324W        W77940   7.532  19.768   1.297
 6325W        W77941   4.766   8.159  11.676
 6326W        W77942   7.401  43.994  14.771
 6327W        W77943  23.271  15.251   1.787
 6328W        W77944  29.504  11.289   9.881
 6329W        W77945  11.547   0.595   2.622
 6330W        W77946   2.857  30.395  10.352
 6331W        W77947  23.769  19.517  13.864
 6332W        W77948   1.978  25.602   0.368
 6333W        W77949  32.837  19.765   2.259
 6334W        W77950   0.524  28.593  12.926
 6335W        W77951  26.923  18.349  14.399
 6336W        W77952   3.371   6.347   4.659
 6337W        W77953  13.550  43.811   1.556
 6338W        W77954  24.990  25.104  12.887
 6339W        W77955  12.001  28.103  11.740
 6340W        W77956  25.122  13.287   1.402
 6341W        W77957  16.392  20.600   2.627
 6342W        W77958  37.987  34.381  10.664
 6343W        W77959  24.323  36.260  11.759
 6344W        W77960  19.531  44.311  14.209
 6345W        W77961   9.296  33.618  13.358
 6346W        W77962  20.945  34.180  11.162
 6347W        W77963   4.753  18.980  14.066
 6348W        W77964  20.554  30.648  12.752
 6349W        W77965  42.537  36.565   3.752
 6350W        W77966  38.646  28.389  14.019
 6351W        W77967  30.230  44.523   3.753
 6352W        W77968  28.383  18.927   0.849
 6353W        W77969  13.150  38.470   2.776
 6354W        W77970  44.476  19.654   5.086
 6355W        W77971  43.238  28.539   1.541
 6356W        W77972  36.413  25.239  11.872
 6357W        W77973  33.466   6.697   0.573
 6358W        W77974   0.577  44.737   1.334
 6359W        W77975   0.834   8.864  10.251
 6360W        W77976  14.230  29.062  14.286
 6361W        W77977  23.031  18.945   0.176
 6362W        W77978  44.298  26.564  14.996
 6363W        W77979  23.031  37.348   1.781
 6364W        W77980  13.797  25.921  12.702
 6365W        W77981  24.181  13.701  10.912
 6366W        W77982  10.875  17.592  13.879
 6367W        W77983  33.913  41.474   0.430
 6368W        W77984  13.310  42.755   4.556
 6369W        W77985  28.925  17.141   2.175
 6370W        W77986  43.370  38.467  14.382
 6371W        W77987  26.468   5.624   1.313
 6372W        W77988  19.540   5.527   0.496
 6373W        W77989  31.465  27.336   9.744
 6374W        W77990  37.005  42.857  13.162
 6375W        W77991  36.005  27.665  14.359
 6376W        W77992   0.425  30.256  13.559
 6377W        W77993   1.451  35.107  11.023
 6378W        W77994   5.985  29.588  14.366
 6379W        W77995  10.112  37.574   0.037
 6380W        W77996  26.388  35.528   1.965
 6381W        W77997  16.642  18.508   1.895
 6382W        W77998  34.606  39.535   1.733
 6383W        W77999  19.873  31.456   4.477
 6384W        W78000  12.662  18.860  11.213
 6385W        W78001  18.706  13.293  14.577
 6386W        W78002   1.805  34.122  14.949
 6387W        W78003   5.923  17.726  14.312
 6388W        W78004  22.062  31.177   1.329
 6389W        W78005   2.328  35.215  11.923
 6390W        W78006   5.736  29.809  14.786
 6391W        W78007  23.111  41.776  14.413
 6392W        W78008  36.078  39.385  13.150
 6393W        W78009   6.286  41.466  14.368
 6394W        W78010  34.963  18.811  11.640
 6395W        W78011  33.077  37.560  11.848
 6396W        W78012  29.554  10.342   2.866
 6397W        W78013  20.342  29.227   4.789
 6398W        W78014  21.041  44.819   4.352
 6399W        W78015   3.964  41.014   1.450
 6400W        W78016  18.188  21.895   2.706
 6401W        W78017  21.478  20.677   1.287
 6402W        W78018  38.026  18.500  11.642
 6403W        W78019  33.941  43.926  13.538
 6404W        W78020   3.450  13.704   3.872
 6405W        W78021  44.714  35.576   2.211
 6406W        W78022   9.726   9.204  11.696
 6407W        W78023  43.521   6.722   2.793
 6408W        W78024  37.350  40.115   4.059
 6409W        W78025  33.885  23.155  10.630
 6410W        W78026  10.093  34.729  10.273
 6411W        W78027  20.228  37.864   4.618
 6412W        W78028  41.692  34.966  14.782
 6413W        W78029  36.902   7.442   0.172
 6414W        W78030  36.522  32.348   0.906
 6415W        W78031  32.932  35.353   2.670
 6416W        W78032  38.075  43.368   0.448
 6417W        W78033  21.429   0.887   3.257
 6418W        W78034  29.865  32.412   4.567
 6419W        W78035   3.734  34.645   9.806
 6420W        W78036  33.394  16.054  13.821
 6421W        W78037   6.844   7.309   0.290
 6422W        W78038  37.439  21.975  13.952
 6423W        W78039  24.283   8.823   3.177
 6424W        W78040   6.415  38.267   2.363
 6425W        W78041  11.164   3.170   0.602
 6426W        W78042  21.119  39.313   1.428
 6427W        W78043  27.408  13.761  13.314
 6428W        W78044  40.973  19.570   2.724
 6429W        W78045  23.989  25.234  12.006
 6430W        W78046  30.483   6.551   0.852
 6431W        W78047  10.452  40.460  10.842
 6432W        W78048  31.608  25.057   4.644
 6433W        W78049  19.250   3.967   3.370
 6434W        W78050  34.958  24.104   4.419
 6435W        W78051  29.661  25.460   0.735
 6436W        W78052   1.990  41.603  11.133
 6437W        W78053  10.737  11.824  12.032
 6438W        W78054  39.538  11.723  12.360
 6439W        W78055  11.765   3.558  13.902
 6440W        W78056   8.624  40.907  12.128
 6441W        W78057  32.705  40.009   3.106
 6442W        W78058  25.121  24.610   4.387
 6443W        W78059  41.061  16.227  10.678
 6444W        W78060  21.974  19.530   2.501
 6445W        W78061  37.440  21.190  12.155
 6446W        W78062  17.668  15.622   2.180
 6447W        W78063  17.804   6.956   2.246
 6448W        W78064   4.608  23.903  11.924
 6449W        W78065  16.121  13.340   2.830
 6450W        W78066  24.692  12.198  14.280
 6451W        W78067  23.679  31.439  12.960
 6452W        W78068  18.071   6.817   4.244
 6453W        W78069  19.640  14.049  14.393
 6454W        W78070  16.715  32.630  13.989
 6455W        W78071  26.564  27.906  13.937
 6456W        W78072   2.439  20.987   1.929
 6457W        W78073  35.953  16.796   0.038
 6458W        W78074   2.184  20.457  14.326
 6459W        W78075  30.391   3.265  13.501
 6460W        W78076   2.468  32.290   3.897
 6461W        W78077  24.039  25.741  10.637
 6462W        W78078   6.866  42.510  11.684
 6463W        W78079  40.324  23.027   1.576
 6464W        W78080  44.733  35.152   3.567
 6465W        W78081   0.931  37.472   4.741
 6466W        W78082  33.371  30.465   2.133
 6467W        W78083  30.881  22.052  14.861
 6468W        W78084  12.657  20.561  14.755
 6469W        W78085  29.040  40.989  12.623
 6470W        W78086  25.446  14.093   3.807
 6471W        W78087  44.775   6.668  12.142
 6472W        W78088  25.486   2.450   4.868
 6473W        W78089  32.423  17.857  11.495
 6474W        W78090  29.722   7.137   0.030
 6475W        W78091  17.805  43.457  13.891
 6476W        W78092   7.416  33.962  14.837
 6477W        W78093  32.055  37.184   4.311
 6478W        W78094  11.555  20.268  13.598
 6479W        W78095   2.457  32.677  12.571
 6480W        W78096  39.182   4.024   4.506
 6481W        W78097  27.071  18.241  12.539
 6482W        W78098   7.656  11.582  12.926
 6483W        W78099   6.582  33.033  12.464
 6484W        W78100  40.523  13.569   2.327
 6485W        W78101  29.398  16.069   1.753
 6486W        W78102  34.903   8.457  13.796
 6487W        W78103  21.152   5.080  14.338
 6488W        W78104   8.734  36.381   2.037
 6489W        W78105  34.835  19.627   0.463
 6490W        W78106   4.244  18.363  11.154
 6491W        W78107   1.344  17.798   2.217
 6492W        W78108  37.346  14.297  10.540
 6493W        W78109   4.162  19.202  12.900
 6494W        W78110  43.972   3.692  13.982
 6495W        W78111  44.398  25.502  12.482
 6496W        W78112  25.128  40.861   1.411
 6497W        W78113  11.795   5.473  10.956
 6498W        W78114  17.200   1.569   1.306
 6499W        W78115   1.030  42.623  11.083
 6500W        W78116  21.641  11.843  11.531
 6501W        W78117  19.510   9.606   1.488
 6502W        W78118   1.974  32.355  14.329
 6503W        W78119  23.122  33.165   4.275
 6504W        W78120  23.280  28.718   4.752
 6505W        W78121   3.514  40.512  14.989
 6506W        W78122  41.328  34.860  12.962
 6507W        W78123  14.879   0.077   2.752
 6508W        W78124  37.490  19.015  14.957
 6509W        W78125  14.724   1.185  11.444
 6510W        W78126  19.307  19.254   0.382
 6511W        W78127  23.834  19.519  11.972
 6512W        W78128  18.548  20.032   3.455
 6513W        W78129  10.826   0.289  14.864
 6514W        W78130   6.234  30.014   1.170
 6515W        W78131   5.711  42.431   2.956
 6516W        W78132  14.693  39.916   3.005
 6517W        W78133  19.467  44.552  13.488
 6518W        W78134   9.146   4.663   1.938
 6519W        W78135  31.403   6.730   1.006
 6520W        W78136  36.424  30.388  14.428
 6521W        W78137  28.833  32.933   1.628
 6522W        W78138  17.855   5.877  13.862
 6523W        W78139   0.854  21.646  13.342
 6524W        W78140  17.458  38.684   4.636
 6525W        W78141   8.438  37.624   2.699
 6526W        W78142  21.597  39.895  12.536
 6527W        W78143  19.285  41.387   4.177
 6528W        W78144  13.719   4.664  14.937
 6529W        W78145  18.196   0.040   5.660
 6530W        W78146  13.093  32.044   2.286
 6531W        W78147  12.092  24.407  11.095
 6532W        W78148  11.278  24.212   1.275
 6533W        W78149   4.420   0.333  12.637
 6534W        W78150  22.474  35.467  10.339
 6535W        W78151  28.466  28.565  11.576
 6536W        W78152  43.028  11.644  14.728
 6537W        W78153   5.940  36.312   3.852
 6538W        W78154  21.195  36.185   2.149
 6539W        W78155  40.064  18.460   0.931
 6540W        W78156  12.361   1.994  13.115
 6541W        W78157  35.283  17.919  11.571
 6542W        W78158  29.407  36.533   0.334
 6543W        W78159   7.711  11.723   2.871
 6544W        W78160  39.817   0.844   1.337
 6545W        W78161  22.495   3.438   3.788
 6546W        W78162  39.954   4.240   0.686
 6547W        W78163  42.383  39.790   4.549
 6548W        W78164   7.837  17.298  14.535
 6549W        W78165  11.781   8.910   2.258
 6550W        W78166  29.755  18.320   0.899
 6551W        W78167  38.531  44.096  14.866
 6552W        W78168  32.676  23.972   2.376
 6553W        W78169  34.589  13.870   3.902
 6554W        W78170  15.026  33.316   0.882
 6555W        W78171   2.092   0.664   5.431
 6556W        W78172  32.802  31.857   1.887
 6557W        W78173  26.652  40.938  10.690
 6558W        W78174   0.002   9.113  11.985
 6559W        W78175  25.249   0.719   4.117
 6560W        W78176  12.244  41.480  10.723
 6561W        W78177  32.895  10.680  12.927
 6562W        W78178  37.329  39.486  11.619
 6563W        W78179  28.325  40.872  10.335
 6564W        W78180  19.154  42.107  10.265
 6565W        W78181  38.366  33.383  13.452
 6566W        W78182  18.677  21.000  11.703
 6567W        W78183  21.254  22.384  11.419
 6568W        W78184  18.843  14.995  10.395
 6569W        W78185  40.853   5.700  11.989
 6570W        W78186  30.452  39.725  14.428
 6571W        W78187  18.578  16.303   0.280
 6572W        W78188  42.287  42.259   1.654
 6573W        W78189  34.611  23.689  12.053
 6574W        W78190  14.696  16.309   5.528
 6575W        W78191   7.500  27.212   0.224
 6576W        W78192  21.509  24.368  12.015
 6577W        W78193  16.991  11.399  10.688
 6578W        W78194  19.393  30.102  11.140
 6579W        W78195   6.182  17.378  11.545
 6580W        W78196  23.217  40.098   0.802
 6581W        W78197   6.780  43.830   0.326
 6582W        W78198   6.860   4.550   2.147
 6583W        W78199  31.416   1.881   4.138
 6584W        W78200  42.857  43.154  13.372
 6585W        W78201  31.621  41.744   0.490
 6586W        W78202  21.017   7.095  14.470
 6587W        W78203  30.519  40.369   1.226
 6588W        W78204  31.610  23.659  14.305
 6589W        W78205   9.875  38.039  14.780
 6590W        W78206   4.303   4.682   2.824
 6591W        W78207  44.422  29.645   4.306
 6592W        W78208  25.623   1.308   3.983
 6593W        W78209  41.689  15.669  14.946
 6594W        W78210  44.967  11.585   3.620
 6595W        W78211   3.238  35.308  12.857
 6596W        W78212   4.660  11.682   0.659
 6597W        W78213  30.866  33.192  13.779
 6598W        W78214   5.034   1.932  14.404
 6599W        W78215  35.971   4.083  14.744
 6600W        W78216   9.867  43.947   1.483
 6601W        W78217   0.590  18.848   4.068
 6602W        W78218  42.763   2.225  13.465
 6603W        W78219  25.427  38.451  14.908
 6604W        W78220  23.107   1.801  14.803
 6605W        W78221   2.333  35.383  11.094
 6606W        W78222   8.166  19.686   3.179
 6607W        W78223   9.349   2.879  13.070
 6608W        W78224  31.028  39.030  13.030
 6609W        W78225   9.902  30.930   1.843
 6610W        W78226   4.978  43.495   1.651
 6611W        W78227   6.776  44.214   3.255
 6612W        W78228  30.320  34.830  11.582
 6613W        W78229  41.073  28.956  12.414
 6614W        W78230  35.659   0.211  14.067
 6615W        W78231  33.380  33.658  11.622
 6616W        W78232  26.695  28.595   4.333
 6617W        W78233  37.702   5.082  12.044
 6618W        W78234  21.658  43.269   3.807
 6619W        W78235   5.617  40.372  10.909
 6620W        W78236   4.373   9.237  11.228
 6621W        W78237  29.185  39.947  11.455
 6622W        W78238  43.403   4.593   4.175
 6623W        W78239  37.269  13.086  10.300
 6624W        W78240  20.742  29.895  11.097
 6625W        W78241  20.488  38.011   4.167
 6626W        W78242  15.826  18.991   2.746
 6627W        W78243  12.181  31.594  12.050
 6628W        W78244  16.544  32.858   2.821
 6629W        W78245  33.150  20.964  14.789
 6630W        W78246  43.938   4.242  12.899
 6631W        W78247  37.731  15.159  11.891
 6632W        W78248  25.771  14.826  10.291
 6633W        W78249  12.098  34.575   2.865
 6634W        W78250  38.580   6.951   0.535
 6635W        W78251   0.097   3.681   0.727
 6636W        W78252  17.232  13.857   2.012
 6637W        W78253  30.384  38.510  13.398
 6638W        W78254  33.156  24.051   1.206
 6639W        W78255  12.184  36.118  14.009
 6640W        W78256  42.239  41.546  12.513
 6641W        W78257  29.047  40.365  11.165
 6642W        W78258   8.499   4.302   0.423
 6643W        W78259  19.340  20.151  14.843
 6644W        W78260  31.938   2.839  11.032
 6645W        W78261  25.788  40.969   3.530
 6646W        W78262  24.759  24.780  13.989
 6647W        W78263  11.252  23.088   4.598
 6648W        W78264  12.594  19.763  13.058
 6649W        W78265  10.223   3.147  10.486
 6650W        W78266  20.593  13.667  12.357
 6651W        W78267   7.772   1.321   0.947
 6652W        W78268  39.250  29.603   0.094
 6653W        W78269  35.889  31.633   0.914
 6654W        W78270  21.189   5.456   2.862
 6655W        W78271  36.458  34.292   4.875
 6656W        W78272  19.841  39.332  13.924
 6657W        W78273  11.226  19.644   3.364
 6658W        W78274   6.249  38.628   4.128
 6659W        W78275  41.942  42.795  10.126
 6660W        W78276  44.391  21.449   0.805
 6661W        W78277  13.415   1.772   4.131
 6662W        W78278  28.463  28.204   2.289
 6663W        W78279   6.206  31.136   4.663
 6664W        W78280   1.480  12.215  13.623
 6665W        W78281  40.384  40.069   4.582
 6666W        W78282  28.225   7.245  10.390
 6667W        W78283  26.992  14.041   0.873
 6668W        W78284  19.510  38.950  14.064
 6669W        W78285  23.992  38.892   1.819
 6670W        W78286  41.899  30.085  12.153
 6671W        W78287  18.223  29.266  11.584
 6672W        W78288  32.639  42.020   2.707
 6673W        W78289   2.388  35.676   3.195
 6674W        W78290  29.567   5.168  12.855
 6675W        W78291   6.520  24.214   1.675
 6676W        W78292  36.405  20.183   2.978
 6677W        W78293  28.166  24.478  11.181
 6678W        W78294   8.730   2.978  12.573
 6679W        W78295  26.747   2.331  10.950
 6680W        W78296   2.898  16.518   4.065
 6681W        W78297  11.475  44.942  10.646
 6682W        W78298  15.592   4.390  13.875
 6683W        W78299   7.228   3.243   2.720
 6684W        W78300  20.568  44.994   4.168
 6685W        W78301  17.077  21.255  12.965
 6686W        W78302  20.327  19.657   3.559
 6687W        W78303  35.802  17.110   1.428
 6688W        W78304  28.952  17.261   0.270
 6689W        W78305  10.617  20.778  11.432
 6690W        W78306   8.894  21.545  10.584
 6691W        W78307  17.241  38.011   2.953
 6692W        W78308  20.032  41.080  13.588
 6693W        W78309   4.395  20.735   4.278
 6694W        W78310  29.429  34.373  14.773
 6695W        W78311  34.552  25.852   3.097
 6696W        W78312  11.713  37.359  14.522
 6697W        W78313  20.787  19.552   3.761
 6698W        W78314  23.131  43.849   4.080
 6699W        W78315  17.240  23.433  11.327
 6700W        W78316   2.266   6.721   0.825
 6701W        W78317   5.154   0.396   2.990
 6702W        W78318  44.250  30.715   2.503
 6703W        W78319  32.490   1.995  12.373
 6704W        W78320  24.273   5.201   1.460
 6705W        W78321  13.647   2.890   3.456
 6706W        W78322   9.925  24.807  14.881
 6707W        W78323  16.246  37.284  13.982
 6708W        W78324   7.218  13.820   3.654
 6709W        W78325   0.983  34.760   4.119
 6710W        W78326  31.508  14.626   0.246
 6711W        W78327  34.964   3.205  11.059
 6712W        W78328  36.629   4.502  11.041
 6713W        W78329  19.021  17.440  13.959
 6714W        W78330  31.897   6.733   0.125
 6715W        W78331  14.200  30.020  10.594
 6716W        W78332  35.418  25.795   2.597
 6717W        W78333  16.702  27.494   1.823
 6718W        W78334  14.652  34.313  14.891
 6719W        W78335  24.201  21.567  10.955
 6720W        W78336   2.168  19.238  10.743
 6721W        W78337   2.035  40.207  13.043
 6722W        W78338  10.387  35.897  13.907
 6723W        W78339   6.654  35.418  11.454
 6724W        W78340  18.546   2.815   3.638
 6725W        W78341   7.094  26.987  11.186
 6726W        W78342  31.061  33.427   2.268
 6727W        W78343  37.687  37.937   4.653
 6728W        W78344   2.395  40.924  12.073
 6729W        W78345  25.428  37.361  12.922
 6730W        W78346  33.932  23.612  14.825
 6731W        W78347  33.084  31.139   1.229
 6732W        W78348  37.795  18.689   2.460
 6733W        W78349   4.839  41.606   1.899
 6734W        W78350  35.286  11.602  13.467
 6735W        W78351  39.562  27.389   0.451
 6736W        W78352  31.899   7.530   3.724
 6737W        W78353   3.320  31.131  13.880
 6738W        W78354  15.580  39.448  12.009
 6739W        W78355  43.473   8.725   4.574
 6740W        W78356  10.301   8.144  11.648
 6741W        W78357  17.049   9.789   4.745
 6742W        W78358  41.805  27.880   0.516
 6743W        W78359   9.787  35.618  12.941
 6744W        W78360  36.925  31.800  12.357
 6745W        W78361  33.310  15.781  12.888
 6746W        W78362  42.415  26.476   4.686
 6747W        W78363  30.570  15.284   2.997
 6748W        W78364  33.474  17.541   3.741
 6749W        W78365  23.190  37.885  10.660
 6750W        W78366  39.750   4.732  14.779
 6751W        W78367  22.740  37.273  10.937
 6752W        W78368  44.917  29.638  14.139
 6753W        W78369   7.758   9.366  10.424
 6754W        W78370  20.055   9.621   1.408
 6755W        W78371  32.042  30.636  13.920
 6756W        W78372   6.258  18.185  12.812
 6757W        W78373  14.509  41.534   4.198
 6758W        W78374  35.892  10.374  13.866
 6759W        W78375  14.625  34.412  12.916
 6760W        W78376  13.670  23.755  14.071
 6761W        W78377  26.010  15.123   1.264
 6762W        W78378  36.995  26.916  14.028
 6763W        W78379  31.039  17.259  13.509
 6764W        W78380   0.754  21.958   1.815
 6765W        W78381  10.808  22.043   3.793
 6766W        W78382  34.035  22.038  13.504
 6767W        W78383  44.166  15.182   1.383
 6768W        W78384  27.177  17.408   1.244
 6769W        W78385   1.601  40.402   2.087
 6770W        W78386  18.022   7.332  10.529
 6771W        W78387  38.978  13.664  11.501
 6772W        W78388  41.911  35.370  13.384
 6773W        W78389  31.686  29.605  13.495
 6774W        W78390  27.363  43.000  14.373
 6775W        W78391  18.776  34.529   2.734
 6776W        W78392  28.498  31.009   3.647
 6777W        W78393  37.925  44.973  13.069
 6778W        W78394  26.194   0.045  13.980
 6779W        W78395   0.102  32.196   4.991
 6780W        W78396  14.760  44.108   4.203
 6781W        W78397  33.341  44.895  13.469
 6782W        W78398  23.294   7.895  11.600
 6783W        W78399  21.819  12.510   1.582
 6784W        W78400  20.115   4.895   5.006
 6785W        W78401  11.153  16.157   0.654
 6786W        W78402  13.170   2.504   0.848
 6787W        W78403  23.507  31.701  11.093
 6788W        W78404   3.448   8.438  12.580
 6789W        W78405  30.007  32.951  10.966
 6790W        W78406  11.625   7.405   2.082
 6791W        W78407   7.337  37.439   3.577
 6792W        W78408  33.760  41.664  14.479
 6793W        W78409  36.109   7.847  14.326
 6794W        W78410   6.437  33.199   1.313
 6795W        W78411  13.641   9.196   3.826
 6796W        W78412  21.483  15.831  12.518
 6797W        W78413  39.437  38.617   2.706
 6798W        W78414  10.747   9.688  14.389
 6799W        W78415  24.152   3.623   2.745
 6800W        W78416  17.701  29.350  11.540
 6801W        W78417  38.360  20.131  13.801
 6802W        W78418  22.072  27.920  10.529
 6803W        W78419  43.484  18.227  14.896
 6804W        W78420  21.462  43.609  10.886
 6805W        W78421   2.379  22.701   0.467
 6806W        W78422  19.322  23.047  11.157
 6807W        W78423  33.456   2.263   0.332
 6808W        W78424   6.675  44.949  10.934
 6809W        W78425  11.846  18.593   1.436
 6810W        W78426  24.141  12.545  13.388
 6811W        W78427  21.561  29.209  12.281
 6812W        W78428  40.443  21.556   1.131
 6813W        W78429  39.627  20.356   0.940
 6814W        W78430  27.017  18.003   2.001
 6815W        W78431  26.165  30.388   3.749
 6816W        W78432  13.070  42.797  13.368
 6817W        W78433  28.414  34.589  13.862
 6818W        W78434   6.400  11.620   1.750
 6819W        W78435  15.068  24.654   1.218
 6820W        W78436  38.666  23.016  12.667
 6821W        W78437  28.509  29.008  10.867
 6822W        W78438   3.229   3.989  11.980
 6823W        W78439  23.260  41.860   0.834
 6824W        W78440  22.263  42.376   3.572
 6825W        W78441  25.692  44.209   4.646
 6826W        W78442  30.978  25.200  10.347
 6827W        W78443  38.954  36.108   4.162
 6828W        W78444  23.290  22.433  14.910
 6829W        W78445  15.098  31.457   4.607
 6830W        W78446  37.153  28.557  11.639
 6831W        W78447  18.500  39.010  13.317
 6832W        W78448   2.304  42.131  10.717
 6833W        W78449  21.695  10.334  12.993
 6834W        W78450  12.845  41.518  13.974
 6835W        W78451   2.228  38.123   2.730
 6836W        W78452  18.439  39.469   1.518
 6837W        W78453  44.190   5.543  11.178
 6838W        W78454   1.729  26.886   2.909
 6839W        W78455  36.389  25.872   4.265
 6840W        W78456  15.070  34.001   4.275
 6841W        W78457  42.003  27.604   0.979
 6842W        W78458  34.527   0.481  14.961
 6843W        W78459  39.960  11.072   3.825
 6844W        W78460  15.682  43.894   5.145
 6845W        W78461  42.005  13.976  14.444
 6846W        W78462  37.186  15.930   2.839
 6847W        W78463  29.451  33.431  14.226
 6848W        W78464  29.449   6.780   2.900
 6849W        W78465  19.046  29.188  13.927
 6850W        W78466  37.970  32.848   3.317
 6851W        W78467  42.766  18.679  12.444
 6852W        W78468  11.912  20.348   0.354
 6853W        W78469   5.121   1.712  11.552
 6854W        W78470  24.095   0.471  12.525
 6855W        W78471  28.090   5.383  10.248
 6856W        W78472  19.910   8.712   4.740
 6857W        W78473  22.638  25.940   3.403
 6858W        W78474  23.824  10.611  10.791
 6859W        W78475  22.640  30.954  12.145
 6860W        W78476  27.300  18.810  11.039
 6861W        W78477  41.136  14.077   1.857
 6862W        W78478   6.421   6.440   3.762
 6863W        W78479  29.894  24.977  10.373
 6864W        W78480   9.335  14.345  13.473
 6865W        W78481  44.003  26.101   4.249
 6866W        W78482  19.964   7.791  13.438
 6867W        W78483  19.137  31.883   4.223
 6868W        W78484  20.250  14.639   2.236
 6869W        W78485  34.119  14.625  10.958
 6870W        W78486   3.996   5.875  12.051
 6871W        W78487  15.190  15.391  14.856
 6872W        W78488  36.369   2.011   3.185
 6873W        W78489   5.673   8.704   2.292
 6874W        W78490  18.035  11.816  12.991
 6875W        W78491  22.092  44.732   4.119
 6876W        W78492   3.458  30.887  14.770
 6877W        W78493  26.126  42.827  12.273
 6878W        W78494  38.823   3.903   0.399
 6879W        W78495  25.089  25.657   0.834
 6880W        W78496   8.452   0.476   2.754
 6881W        W78497   4.335  28.840   3.080
 6882W        W78498  13.380   5.343  11.119
 6883W        W78499  30.555  24.566   0.440
 6884W        W78500  44.710  28.981   4.010
 6885W        W78501  35.497   2.437  12.624
 6886W        W78502  10.524  11.636   2.410
 6887W        W78503  19.180   8.969   3.546
 6888W        W78504   2.029  12.339  10.659
 6889W        W78505  17.603   1.272   1.454
 6890W        W78506  42.399   3.000  12.539
 6891W        W78507   5.069  18.211   4.078
 6892W        W78508   0.334   2.284   0.345
 6893W        W78509  30.173  19.801  11.615
 6894W        W78510   1.023  36.596   1.929
 6895W        W78511  26.172  34.156   1.303
 6896W        W78512   2.826   5.700   3.791
 6897W        W78513  41.146  31.600  12.091
 6898W        W78514  16.262  24.214   4.585
 6899W        W78515  29.265  17.587   1.167
 6900W        W78516  31.461  35.417  13.161
 6901W        W78517   0.174  26.732  13.973
 6902W        W78518   6.162  23.962   0.607
 6903W        W78519  44.231  26.632  14.496
 6904W        W78520  27.231  12.961   3.231
 6905W        W78521  29.842  38.919   4.543
 6906W        W78522  13.786  17.467   0.476
 6907W        W78523  32.688  36.998   1.217
 6908W        W78524   4.793  34.948  12.976
 6909W        W78525   3.936   1.765  12.102
 6910W        W78526  36.439  17.685  13.857
 6911W        W78527   5.792  22.295  13.812
 6912W        W78528  18.830  19.519  14.354
 6913W        W78529   0.863  34.386  12.941
 6914W        W78530   8.470  12.685   3.832
 6915W        W78531  17.204  32.826   0.910
 6916W        W78532  43.479   7.160   1.866
 6917W        W78533  27.666  37.889   4.722
 6918W        W78534  13.560  37.383  13.283
 6919W        W78535  42.782   7.655  13.519
 6920W        W78536   3.455  29.153   0.204
 6921W        W78537  17.441  18.086   1.483
 6922W        W78538  40.983   3.046   1.150
 6923W        W78539   3.487  38.886   3.220
 6924W        W78540  19.228  21.274  12.963
 6925W        W78541  31.200   6.691   4.085
 6926W        W78542   8.293  24.239  13.332
 6927W        W78543  13.792   2.962  12.126
 6928W        W78544  16.367  22.697  10.725
 6929W        W78545  33.452  42.516  13.975
 6930W        W78546  33.804   5.339  13.943
 6931W        W78547   2.431  26.313  11.747
 6932W        W78548  19.729  33.123  13.901
 6933W        W78549  38.116  42.448  14.830
 6934W        W78550  12.237  13.997  13.329
 6935W        W78551  33.975  44.464  10.692
 6936W        W78552  41.091  37.347  10.981
 6937W        W78553  13.832  36.480  12.440
 6938W        W78554  21.297   1.405  13.297
 6939W        W78555  27.754  12.995  14.971
 6940W        W78556  33.844  25.141  12.486
 6941W        W78557  41.479  21.729  10.614
 6942W        W78558   0.038  35.630   4.846
 6943W        W78559  10.679   1.514   3.236
 6944W        W78560  11.659  32.412   0.703
 6945W        W78561  18.629  34.360   1.782
 6946W        W78562  43.838  29.163   1.328
 6947W        W78563  18.839   2.511  14.483
 6948W        W78564  32.334  41.738   2.160
 6949W        W78565  22.067  11.951   1.432
 6950W        W78566  41.106  19.054   2.728
 6951W        W78567   6.358   7.234  13.360
 6952W        W78568  37.553  16.945  12.110
 6953W        W78569  39.072  38.243   4.000
 6954W        W78570  30.163  32.701   1.997
 6955W        W78571  43.703  13.174   2.778
 6956W        W78572  40.327   8.809   5.142
 6957W        W78573  29.612  37.763  11.554
 6958W        W78574  19.068  20.534  14.349
 6959W        W78575  41.474  34.566  12.530
 6960W        W78576  37.453  12.374  14.359
 6961W        W78577  28.130  43.361   3.739
 6962W        W78578  24.476  25.086  11.703
 6963W        W78579  40.559  25.714  12.740
 6964W        W78580   3.096  43.304   4.985
 6965W        W78581  43.067  19.082  12.519
 6966W        W78582  11.669  31.050   2.466
 6967W        W78583  21.978  44.217   2.206
 6968W        W78584  41.188  19.004   5.117
 6969W        W78585  39.176  21.814   0.470
 6970W        W78586  15.780  18.054   5.157
 6971W        W78587  25.412  28.983   0.313
 6972W        W78588  25.912   2.510  13.819
 6973W        W78589  19.440  11.501   2.790
 6974W        W78590  26.718   4.961  12.495
 6975W        W78591  43.007  17.221   0.300
 6976W        W78592  28.350  25.923   4.382
 6977W        W78593  27.284   3.331  11.047
 6978W        W78594   9.362  38.876   0.502
 6979W        W78595  23.701  37.318   1.295
 6980W        W78596  26.845  36.858  12.906
 6981W        W78597  39.241   8.918  11.995
 6982W        W78598  14.796  25.883  14.466
 6983W        W78599  21.770   4.715   3.137
 6984W        W78600  28.185  17.092   1.681
 6985W        W78601  42.028  41.050   2.009
 6986W        W78602  43.942  27.152   3.225
 6987W        W78603   4.839  43.944   1.926
 6988W        W78604  32.332  24.108   2.959
 6989W        W78605   2.811  18.130   2.271
 6990W        W78606  13.617  13.848  13.624
 6991W        W78607  22.505   7.151   0.717
 6992W        W78608  42.761  43.854  10.558
 6993W        W78609  19.981  20.332  10.863
 6994W        W78610   2.799   8.714  12.789
 6995W        W78611   8.861  14.516   1.541
 6996W        W78612  41.040  29.318   3.245
 6997W        W78613   9.633  15.659  13.525
 6998W        W78614  41.003  24.770  12.340
 6999W        W78615  29.118  44.795  13.407
 7000W        W78616   6.503  36.785   1.094
 7001W        W78617  18.847   7.717   0.405
 7002W        W78618   8.199   3.453   4.557
 7003W        W78619  27.100  33.604  11.481
 7004W        W78620  36.128  12.810  13.378
 7005W        W78621  25.040  34.810  11.533
 7006W        W78622  38.465   6.253  11.147
 7007W        W78623  29.349   1.425   0.160
 7008W        W78624   0.009  22.053   2.411
 7009W        W78625  43.713  18.742   3.566
 7010W        W78626  34.395  16.097  14.556
 7011W        W78627  10.720   5.103  13.019
 7012W        W78628  21.697  43.711  13.042
 7013W        W78629   9.295  25.209  13.363
 7014W        W78630  23.082  11.103  12.985
 7015W        W78631  18.445  37.791   0.219
 7016W        W78632  42.366   8.897   0.221
 7017W        W78633  22.546  44.731   1.343
 7018W        W78634   4.332  12.115  10.592
 7019W        W78635  27.040  16.336  12.094
 7020W        W78636  39.428  22.822  14.200
 7021W        W78637  10.891   2.424   3.533
 7022W        W78638   4.932   7.404  14.390
 7023W        W78639  19.705  24.727   1.262
 7024W        W78640   9.190  15.360   2.672
 7025W        W78641  37.489  31.454  10.962
 7026W        W78642  23.743  23.813   2.305
 7027W        W78643  42.952   3.346   0.494
 7028W        W78644   4.450   8.227   1.244
 7029W        W78645  29.953  15.981   1.822
 7030W        W78646  22.141  23.148  11.094
 7031W        W78647  28.134  44.819  11.680
 7032W        W78648  17.130  10.826   1.381
 7033W        W78649  19.508   4.760  14.844
 7034W        W78650  29.658  32.449  14.712
 7035W        W78651  42.507  39.230   1.685
 7036W        W78652  38.939  40.521  14.975
 7037W        W78653  30.171  41.731  11.616
 7038W        W78654  11.353  23.494   2.869
 7039W        W78655  43.951  40.392  10.534
 7040W        W78656   3.784  14.350  12.960
 7041W        W78657  29.277  11.655   0.914
 7042W        W78658  17.025  23.119   0.911
 7043W        W78659   8.812  16.733   3.047
 7044W        W78660  38.444  41.869   0.199
 7045W        W78661  14.839  33.104   2.153
 7046W        W78662  21.058  30.865   4.567
 7047W        W78663  41.592   4.747   5.194
 7048W        W78664   5.305  36.027  10.865
 7049W        W78665  38.865  43.865  12.872
 7050W        W78666  22.223  41.410  13.393
 7051W        W78667  36.877  32.332   4.059
 7052W        W78668  22.449  43.596   3.318
 7053W        W78669  36.740   0.510   4.424
 7054W        W78670   7.240  19.534  10.699
 7055W        W78671  20.087  25.117  13.401
 7056W        W78672  40.829   9.607   4.412
 7057W        W78673  21.074  30.711  14.401
 7058W        W78674  40.511  18.900   3.887
 7059W        W78675  23.007  36.844   1.866
 7060W        W78676  35.873  41.777  14.591
 7061W        W78677  10.308  12.683  11.945
 7062W        W78678  35.961  16.410   0.429
 7063W        W78679  17.801  34.019  14.911
 7064W        W78680  17.782  19.226   4.934
 7065W        W78681  42.656  31.680  10.939
 7066W        W78682   5.347  22.716   3.626
 7067W        W78683   3.520  15.194   2.823
 7068W        W78684  26.007  38.967   1.291
 7069W        W78685   7.004  25.013   1.672
 7070W        W78686   4.291  28.522   4.769
 7071W        W78687   6.969  20.817  13.797
 7072W        W78688   2.933   4.379  11.600
 7073W        W78689   2.461  41.046  12.586
 7074W        W78690  31.623   5.503   2.788
 7075W        W78691  17.041  12.629   3.251
 7076W        W78692  13.194   5.413   3.732
 7077W        W78693  14.770  22.076  13.398
 7078W        W78694  37.302  38.911   4.945
 7079W        W78695  39.145  32.590  12.066
 7080W        W78696  31.163   8.179  13.296
 7081W        W78697  39.664  12.110  11.546
 7082W        W78698  16.805   6.595   2.821
 7083W        W78699  41.914  33.202  13.827
 7084W        W78700  35.415  31.409   0.912
 7085W        W78701  25.188  22.170  13.412
 7086W        W78702  43.082  21.093  13.479
 7087W        W78703  29.401  18.250   2.291
 7088W        W78704  29.547  39.939  10.230
 7089W        W78705  14.433  44.782  14.433
 7090W        W78706  14.792  39.741   1.249
 7091W        W78707  25.760  39.820  12.917
 7092W        W78708   1.025  34.357   2.255
 7093W        W78709  27.377  43.428   0.444
 7094W        W78710  37.164  10.154   2.501
 7095W        W78711  19.056   1.807   3.400
 7096W        W78712  38.602  26.703  11.474
 7097W        W78713  19.289  41.312  14.858
 7098W        W78714  17.066   6.178  14.452
 7099W        W78715  24.991   8.322  14.467
 7100W        W78716  15.564   2.847   3.178
 7101W        W78717  26.443   8.730   4.098
 7102W        W78718  25.421  17.801   4.194
 7103W        W78719  16.270  24.596   0.455
 7104W        W78720   9.199   3.679  10.728
 7105W        W78721  11.790  35.902  14.520
 7106W        W78722   4.272   6.972  12.819
 7107W        W78723  13.757  31.475   4.152
 7108W        W78724  40.699  13.135  13.803
 7109W        W78725  29.580  24.249  11.700
 7110W        W78726   6.472  40.417  14.889
 7111W        W78727   1.444  32.989   1.373
 7112W        W78728  13.634  17.268   0.964
 7113W        W78729   9.733  15.374  10.407
 7114W        W78730  14.706  27.380  12.652
 7115W        W78731  35.362   1.479   3.186
 7116W        W78732  31.540  13.744  12.449
 7117W        W78733  29.362   3.247  14.509
 7118W        W78734  33.902  26.134  12.567
 7119W        W78735  43.000   9.142   2.243
 7120W        W78736  35.921  26.459  11.546
 7121W        W78737  22.782   3.984  11.183
 7122W        W78738  39.334  18.580  10.713
 7123W        W78739  19.320   5.425   2.422
 7124W        W78740  14.650   7.167   0.496
 7125W        W78741  37.972  10.827  13.579
 7126W        W78742   1.943   0.278   2.368
 7127W        W78743  11.727  16.927   0.357
 7128W        W78744  42.064  17.382   1.349
 7129W        W78745   0.669  40.588  11.156
 7130W        W78746  16.710   2.384   4.359
 7131W        W78747   6.839  44.291   0.575
 7132W        W78748   6.854  32.249   9.892
 7133W        W78749  29.032   5.875  12.781
 7134W        W78750  29.550   4.266  13.014
 7135W        W78751  38.136  34.204  11.574
 7136W        W78752  16.290  23.674   4.610
 7137W        W78753  32.149  41.572  13.866
 7138W        W78754  35.025   7.820   0.342
 7139W        W78755  20.953  37.601  13.204
 7140W        W78756  19.865  13.510  11.207
 7141W        W78757  22.735  25.067  10.219
 7142W        W78758  43.418  17.168   2.614
 7143W        W78759  26.014  22.684   1.533
 7144W        W78760  16.288  40.836  11.884
 7145W        W78761  11.718  27.891   1.410
 7146W        W78762   0.418  36.323   1.318
 7147W        W78763   3.745   0.889  14.377
 7148W        W78764  44.795  23.183  11.641
 7149W        W78765   0.182   2.229   4.159
 7150W        W78766  14.089  25.149   2.944
 7151W        W78767  40.451   1.671  12.648
 7152W        W78768  17.274   1.576   2.369
 7153W        W78769  34.064   4.351  10.944
 7154W        W78770  39.852   0.422  12.046
 7155W        W78771  16.529   1.811   1.126
 7156W        W78772  19.158  15.260   1.824
 7157W        W78773  38.363  23.737  14.339
 7158W        W78774  13.727  29.522  11.107
 7159W        W78775  25.645   8.301   2.677
 7160W        W78776   3.027  10.243  10.796
 7161W        W78777  42.658  26.209  14.454
 7162W        W78778  43.704  25.962   0.459
 7163W        W78779  28.086  43.925  14.611
 7164W        W78780  34.846   3.667   2.763
 7165W        W78781  28.661   0.992   0.671
 7166W        W78782   4.919  35.199  13.434
 7167W        W78783  12.521  31.456   3.635
 7168W        W78784  20.205  41.033  10.926
 7169W        W78785   9.125  14.806  13.311
 7170W        W78786  20.652   1.723  10.796
 7171W        W78787  39.588  12.347  14.103
 7172W        W78788  38.777  18.334  13.059
 7173W        W78789   6.519   9.097  10.665
 7174W        W78790  15.733   4.265   2.191
 7175W        W78791  15.772   4.132   3.616
 7176W        W78792  28.531  34.396  11.938
 7177W        W78793  25.906   2.672   1.661
 7178W        W78794  34.364   0.886  13.620
 7179W        W78795  14.544   6.903   0.022
 7180W        W78796  44.087  11.830  13.938
 7181W        W78797   3.530  18.798  11.553
 7182W        W78798  35.079  15.252  12.929
 7183W        W78799  13.816   2.407   3.334
 7184W        W78800  29.940  44.289  10.975
 7185W        W78801  36.593  27.490   3.706
 7186W        W78802  43.859  34.895  14.031
 7187W        W78803   5.840  14.103  14.817
 7188W        W78804   6.321  33.121   2.358
 7189W        W78805  36.921  23.165   1.653
 7190W        W78806  30.005  11.106   2.746
 7191W        W78807   5.704  21.049  14.840
 7192W        W78808  42.385  40.407  11.419
 7193W        W78809  12.008  21.202   0.194
 7194W        W78810   2.972   9.008  11.839
 7195W        W78811   5.936  42.862  14.280
 7196W        W78812   1.800  39.378  14.216
 7197W        W78813  24.105  23.178   4.101
 7198W        W78814  33.678  18.944  14.877
 7199W        W78815  27.564  24.858   0.792
 7200W        W78816  37.556  10.377   0.193
 7201W        W78817  27.759   7.197  12.877
 7202W        W78818   3.872  17.233  13.815
 7203W        W78819  20.189   5.998  11.840
 7204W        W78820  44.399   1.707  11.692
 7205W        W78821   0.183  22.491  12.342
 7206W        W78822  37.486  41.991   0.184
 7207W        W78823  28.097  37.804   0.886
 7208W        W78824  25.661  32.246   0.246
 7209W        W78825  37.317  18.579  13.803
 7210W        W78826  13.644  35.580   2.126
 7211W        W78827  27.287  36.085  14.794
 7212W        W78828  31.310  43.149   0.080
 7213W        W78829  36.491  33.132  13.037
 7214W        W78830  18.134  41.639  10.715
 7215W        W78831  26.932  36.814   2.658
 7216W        W78832  10.472  25.010   4.064
 7217W        W78833   0.296  29.782  11.577
 7218W        W78834  35.794   0.223  12.996
 7219W        W78835  36.868  11.835   3.706
 7220W        W78836   9.615  36.366   2.782
 7221W        W78837  12.108  13.751  14.395
 7222W        W78838   5.643   6.263  14.861
 7223W        W78839  23.527   2.925   3.225
 7224W        W78840  26.682   9.592  14.467
 7225W        W78841  16.840  13.763  14.328
 7226W        W78842  32.381  44.368  14.374
 7227W        W78843  12.748   4.312   4.492
 7228W        W78844  20.737   3.744  13.038
 7229W        W78845  33.584   3.241   5.273
 7230W        W78846  37.967  21.495   3.848
 7231W        W78847  20.313   6.386   0.971
 7232W        W78848  39.713  29.730   4.503
 7233W        W78849   1.990  24.239   3.638
 7234W        W78850  32.924  39.084  12.867
 7235W        W78851  41.797   3.207   0.982
 7236W        W78852  40.887  20.643   1.446
 7237W        W78853   9.712  21.585  13.456
 7238W        W78854  23.555  35.962   2.333
 7239W        W78855  25.723   1.730  10.551
 7240W        W78856  37.670  43.900   3.195
 7241W        W78857  13.758  19.008   0.372
 7242W        W78858   1.919  31.158   4.075
 7243W        W78859  21.569  30.957  10.778
 7244W        W78860  38.023   1.775  12.694
 7245W        W78861   3.864  41.297  10.823
 7246W        W78862  36.528  42.807  12.338
 7247W        W78863  33.375  10.291  11.647
 7248W        W78864  40.004  13.691   2.358
 7249W        W78865  39.537  12.207  12.076
 7250W        W78866  12.104  38.005  14.030
 7251W        W78867  21.249  32.029  10.828
 7252W        W78868   2.444  41.785   1.354
 7253W        W78869  37.078  30.725   3.237
 7254W        W78870   0.308  23.284  14.864
 7255W        W78871  38.791  41.647  14.436
 7256W        W78872  20.575  36.169   0.103
 7257W        W78873  15.959  34.528   2.791
 7258W        W78874   6.676   3.281   4.541
 7259W        W78875   2.268  24.121  12.127
 7260W        W78876  15.597  20.566   1.420
 7261W        W78877  34.154   6.157  14.509
 7262W        W78878  29.519  43.432   0.523
 7263W        W78879  32.590  41.664  11.646
 7264W        W78880  23.157   2.084  14.358
 7265W        W78881  37.870  21.737   1.967
 7266W        W78882  11.630   6.398   1.844
 7267W        W78883  23.354   0.147   4.190
 7268W        W78884  28.253  28.509   1.805
 7269W        W78885  42.365  14.916   4.514
 7270W        W78886  44.412  39.451   1.338
 7271W        W78887  12.084  35.369   4.644
 7272W        W78888   3.603  40.920   3.277
 7273W        W78889  30.381  34.346   1.286
 7274W        W78890  24.991  26.540  13.423
 7275W        W78891  25.423  42.330  11.625
 7276W        W78892  22.146  18.208   0.082
 7277W        W78893  16.302   8.701   3.157
 7278W        W78894  31.182  44.987   9.784
 7279W        W78895  16.638   3.741   2.703
 7280W        W78896  13.232  15.793  12.653
 7281W        W78897  44.680   0.729   3.154
 7282W        W78898   8.934  27.904   3.720
 7283W        W78899  10.418  40.453  11.855
 7284W        W78900  39.933   0.286   2.145
 7285W        W78901  38.436  39.243   2.569
 7286W        W78902   1.034  10.980  12.523
 7287W        W78903  10.179   1.622   3.264
 7288W        W78904   2.428   1.046   5.194
 7289W        W78905   7.343   4.900  11.226
 7290W        W78906  40.834  38.361   4.189
 7291W        W78907  35.843  35.486   0.434
 7292W        W78908  32.406  28.277  12.897
 7293W        W78909  35.506  19.613  13.251
 7294W        W78910  29.409  11.594  12.056
 7295W        W78911  37.267  44.122  12.038
 7296W        W78912   5.518  21.515  14.714
 7297W        W78913  20.232  34.268   3.381
 7298W        W78914  11.325  40.792   0.405
 7299W        W78915   0.964  30.073   3.798
 7300W        W78916  29.474  22.938  11.839
 7301W        W78917  42.071  35.356   3.350
 7302W        W78918  13.053  39.945   1.758
 7303W        W78919   9.667  32.556   3.396
 7304W        W78920   5.480  30.570   1.321
 7305W        W78921  34.149  20.203  11.155
 7306W        W78922  25.909   6.036  13.125
 7307W        W78923  23.548  14.123  13.010
 7308W        W78924  16.316  28.704  13.999
 7309W        W78925  21.482  37.503  13.178
 7310W        W78926   7.633  44.771   4.626
 7311W        W78927  12.688  41.722   4.154
 7312W        W78928  14.042  42.541   2.151
 7313W        W78929   5.877  29.453   3.005
 7314W        W78930  20.487   5.489  11.024
 7315W        W78931  29.967  28.759   1.905
 7316W        W78932  36.641  31.646  11.430
 7317W        W78933  32.746  33.090   0.395
 7318W        W78934  28.258   4.049  12.028
 7319W        W78935  10.191  14.703  14.250
 7320W        W78936  12.128  29.912  12.914
 7321W        W78937  18.251  35.538   4.719
 7322W        W78938  19.500  25.526  14.661
 7323W        W78939  21.055  13.701   1.820
 7324W        W78940   9.365  11.766   3.249
 7325W        W78941  20.641   4.422   3.355
 7326W        W78942   5.249  43.020   1.467
 7327W        W78943   4.468  10.877   2.650
 7328W        W78944   2.517  25.343   5.086
 7329W        W78945  43.874  11.366  14.982
 7330W        W78946  18.823   1.740  10.743
 7331W        W78947   8.882  27.285  11.557
 7332W        W78948  16.164   0.106  14.350
 7333W        W78949  37.081   8.569  13.830
 7334W        W78950  29.471  15.060   1.752
 7335W        W78951   1.425  12.794  12.014
 7336W        W78952  16.316   9.293  12.453
 7337W        W78953  39.925  18.210   3.960
 7338W        W78954   6.682   0.697  14.317
 7339W        W78955  43.799  42.259   3.360
 7340W        W78956   1.075   9.408   4.198
 7341W        W78957   3.303  41.712   1.217
 7342W        W78958  21.529   3.376   4.336
 7343W        W78959  39.753  30.952  10.750
 7344W        W78960  27.126  14.738  10.748
 7345W        W78961  10.607  17.796   2.247
 7346W        W78962  32.860  40.452   2.871
 7347W        W78963  10.310  25.667  14.752
 7348W        W78964   0.521  18.666  11.140
 7349W        W78965  31.736   7.392  13.485
 7350W        W78966  13.578  21.207  14.018
 7351W        W78967  35.874  25.933   0.873
 7352W        W78968  30.003   5.129   4.534
 7353W        W78969  24.786  17.217   2.960
 7354W        W78970   5.976  25.205   1.764
 7355W        W78971   1.800  19.494  13.800
 7356W        W78972  13.639  31.180   3.648
 7357W        W78973  36.101  32.270  13.087
 7358W        W78974  30.941   8.377  14.087
 7359W        W78975  27.060  22.261   2.681
 7360W        W78976  37.487  23.685   1.049
 7361W        W78977   6.380  18.263  14.877
 7362W        W78978   9.814  11.806   1.511
 7363W        W78979  13.731  16.025   3.234
 7364W        W78980  13.179  14.082   1.705
 7365W        W78981  36.772  37.440  12.960
 7366W        W78982  35.960  42.511   0.345
 7367W        W78983  21.955  23.686  12.404
 7368W        W78984  16.116   7.913  10.253
 7369W        W78985  35.113  18.311   1.857
 7370W        W78986  16.706  35.109  14.040
 7371W        W78987  35.673   3.248   2.167
 7372W        W78988  40.397  40.372   0.725
 7373W        W78989  40.711  21.456  10.998
 7374W        W78990  30.745  21.683   2.829
 7375W        W78991  38.299  15.722  10.900
 7376W        W78992  39.950  39.819  13.505
 7377W        W78993  15.214   0.678  12.079
 7378W        W78994  21.294  21.563   4.954
 7379W        W78995  39.444  10.382   5.019
 7380W        W78996  15.856  29.618  13.490
 7381W        W78997  35.335  26.671   2.357
 7382W        W78998  40.763  13.256  12.946
 7383W        W78999  26.583  28.420  13.891
 7384W        W79000  28.110  26.742  11.935
 7385W        W79001  36.921   2.210  10.665
 7386W        W79002  11.681  31.450  14.381
 7387W        W79003  33.610  11.795  10.722
 7388W        W79004   9.686   4.945  11.585
 7389W        W79005  10.737  44.263  11.829
 7390W        W79006  20.680  31.567   2.906
 7391W        W79007  40.339  25.087   3.216
 7392W        W79008  32.840  31.679  12.712
 7393W        W79009  28.953  38.324   1.768
 7394W        W79010  24.207   5.925   4.187
 7395W        W79011  14.430   9.686  11.582
 7396W        W79012  18.337  38.073   1.476
 7397W        W79013  18.337  18.870  13.738
 7398W        W79014  26.157  15.241  12.597
 7399W        W79015  24.910   1.059   3.909
 7400W        W79016  27.189   2.087   2.830
 7401W        W79017   2.602  28.933  10.708
 7402W        W79018  12.197  22.505   3.611
 7403W        W79019  33.130  24.773  14.351
 7404W        W79020  18.645   6.969  12.546
 7405W        W79021  18.821  15.526  10.278
 7406W        W79022  41.210  11.127   4.076
 7407W        W79023  42.746  28.805   2.447
 7408W        W79024  37.913  22.462  14.732
 7409W        W79025   2.968  15.602   3.714
 7410W        W79026  22.545  44.330  12.928
 7411W        W79027   9.056  11.223   1.261
 7412W        W79028   7.476  32.047  14.804
 7413W        W79029  14.305  26.943  12.927
 7414W        W79030   0.474  17.651   0.395
 7415W        W79031  43.370  38.952   5.103
 7416W        W79032  37.761  28.206   3.203
 7417W        W79033  12.926  31.091  14.429
 7418W        W79034  34.042  35.528   0.373
 7419W        W79035  34.138  25.364  11.477
 7420W        W79036  30.983  23.732  10.743
 7421W        W79037  17.093  10.898  10.689
 7422W        W79038  27.634  26.556  11.635
 7423W        W79039  14.987  43.938   1.444
 7424W        W79040  10.852  23.950   3.233
 7425W        W79041   4.777  40.891  11.573
 7426W        W79042  19.726   4.275  13.913
 7427W        W79043  29.878  43.154  12.468
 7428W        W79044  11.897  42.524  14.441
 7429W        W79045  10.236  17.936   4.124
 7430W        W79046   1.403  43.101  10.516
 7431W        W79047  38.948  11.594  14.979
 7432W        W79048  38.050  36.554   4.902
 7433W        W79049  24.755  36.948   4.599
 7434W        W79050   4.775  10.586   2.372
 7435W        W79051  42.944  27.989  14.499
 7436W        W79052  16.737  43.471  14.230
 7437W        W79053  43.779  35.913   2.643
 7438W        W79054  14.048  36.383  12.893
 7439W        W79055  37.346  16.780   0.407
 7440W        W79056  28.133  29.213   3.676
 7441W        W79057  36.267   3.079  11.620
 7442W        W79058  36.431  20.308   0.155
 7443W        W79059  34.664  27.018   4.725
 7444W        W79060   0.535   9.234  13.915
 7445W        W79061  33.507  11.433   3.279
 7446W        W79062  29.603  18.527  13.003
 7447W        W79063  10.599  16.678  13.492
 7448W        W79064  28.730  12.209   2.648
 7449W        W79065  24.779  42.618   2.682
 7450W        W79066  36.140  27.046  11.106
 7451W        W79067   4.355  30.444  13.860
 7452W        W79068  24.283  17.191  11.482
 7453W        W79069   8.746  16.120   3.698
 7454W        W79070   2.379  12.223   4.660
 7455W        W79071  28.529  24.566   2.100
 7456W        W79072  28.398  33.409  13.015
 7457W        W79073  18.340   2.657   4.121
 7458W        W79074  10.426   3.974   0.401
 7459W        W79075  25.567  27.932  13.914
 7460W        W79076  30.231  26.029   1.219
 7461W        W79077   2.663  27.184  13.811
 7462W        W79078   4.227  25.938   2.781
 7463W        W79079  15.004  16.376   0.958
 7464W        W79080  17.302  14.814  12.465
 7465W        W79081  27.537  40.593   1.927
 7466W        W79082   1.163   1.315   2.607
 7467W        W79083   8.387   4.910   4.884
 7468W        W79084  20.542  23.191  13.040
 7469W        W79085  25.456  21.137   4.105
 7470W        W79086  34.578  37.070  13.526
 7471W        W79087  35.321   8.543  11.938
 7472W        W79088  25.525   1.913   2.145
 7473W        W79089  41.768  17.085   4.151
 7474W        W79090  39.580   6.782   2.658
 7475W        W79091  10.662  39.045   1.165
 7476W        W79092   0.120  16.750  14.869
 7477W        W79093  43.974  27.802  11.237
 7478W        W79094   9.445   6.368   1.375
 7479W        W79095  15.571  22.371   2.233
 7480W        W79096  44.740  20.969   3.565
 7481W        W79097  11.309  17.161   1.400
 7482W        W79098  37.989   0.283   1.423
 7483W        W79099   7.238  26.759  12.796
 7484W        W79100   7.857  40.259   3.317
 7485W        W79101  34.399  24.693   3.945
 7486W        W79102  18.332   7.310   0.664
 7487W        W79103   9.161  10.623   0.859
 7488W        W79104  18.441   3.792   2.432
 7489W        W79105  11.116  21.565   1.385
 7490W        W79106  38.630  16.247  12.032
 7491W        W79107  16.642   4.764   1.953
 7492W        W79108   3.886  43.957   4.165
 7493W        W79109  17.551  29.505   1.944
 7494W        W79110  43.841  11.303   2.547
 7495W        W79111   6.837  28.974  14.301
 7496W        W79112  20.785  14.343  13.030
 7497W        W79113  10.642  23.412   1.317
 7498W        W79114  44.817  15.248  13.932
 7499W        W79115   4.751  19.551   3.175
 7500W        W79116   2.437  43.518   3.700
 7501W        W79117  27.880  15.840   3.744
 7502W        W79118  11.684   7.357  10.702
 7503W        W79119   7.877  34.477  13.374
 7504W        W79120  43.103   8.228  14.416
 7505W        W79121  18.216  28.936   3.191
 7506W        W79122  43.352  29.523   3.731
 7507W        W79123   7.907  25.894  11.113
 7508W        W79124  29.920  31.267   2.767
 7509W        W79125  44.240  24.329   1.894
 7510W        W79126  16.551  18.337   3.784
 7511W        W79127  42.340  20.235  12.036
 7512W        W79128  44.302  28.106  13.045
 7513W        W79129  41.452  18.448  13.032
 7514W        W79130   4.217  25.623   4.860
 7515W        W79131   6.358   9.599  10.719
 7516W        W79132  25.566  38.208   2.164
 7517W        W79133  16.669   4.915  14.657
 7518W        W79134  21.826  30.789  11.219
 7519W        W79135  32.863  10.315  10.440
 7520W        W79136  40.916   9.142  12.631
 7521W        W79137  30.442   6.405  12.504
 7522W        W79138  15.820  11.829   1.684
 7523W        W79139  11.942  39.855  14.838
 7524W        W79140  37.591  20.167   2.374
 7525W        W79141   9.046  11.332   3.650
 7526W        W79142  22.427  18.231  11.910
 7527W        W79143  40.482  34.082   4.060
 7528W        W79144   5.581   7.257   4.777
 7529W        W79145   2.664   0.357   0.930
 7530W        W79146  14.410  37.144   4.494
 7531W        W79147  16.714   6.204   3.778
 7532W        W79148  41.486  39.626   3.743
 7533W        W79149  39.379   8.695  13.410
 7534W        W79150  18.505  44.863   1.025
 7535W        W79151  34.470  22.129   1.890
 7536W        W79152   2.937  19.308   4.667
 7537W        W79153  25.741  41.971   1.875
 7538W        W79154  33.008  29.395   0.954
 7539W        W79155  39.376  26.183   3.128
 7540W        W79156  40.281   9.315   0.510
 7541W        W79157  35.117  17.521  11.095
 7542W        W79158  16.571  35.906   4.652
 7543W        W79159  33.323  32.445   3.197
 7544W        W79160  19.250  41.469  12.364
 7545W        W79161  14.526  32.517  11.343
 7546W        W79162  14.566  27.048  10.471
 7547W        W79163  44.033  18.433   3.874
 7548W        W79164   8.143  17.361  12.479
 7549W        W79165  40.564  35.656  12.585
 7550W        W79166   2.768  22.183  13.351
 7551W        W79167  21.693  11.413   0.336
 7552W        W79168  22.045  41.457   3.722
 7553W        W79169  40.299  17.050   2.276
 7554W        W79170   0.870  30.425   4.175
 7555W        W79171  35.341  25.130   2.201
 7556W        W79172  42.860  27.865   4.182
 7557W        W79173   4.585  40.436   0.403
 7558W        W79174   0.291  43.001   4.628
 7559W        W79175   6.353   4.759  14.514
 7560W        W79176  10.393  12.115   4.916
 7561W        W79177  40.898  40.955   0.829
 7562W        W79178  17.802  18.563   0.785
 7563W        W79179  29.205  32.350  11.719
 7564W        W79180  12.682  29.331  13.819
 7565W        W79181  25.737  36.574   2.186
 7566W        W79182   4.512   6.413   1.866
 7567W        W79183  24.048  13.812  11.901
 7568W        W79184   6.353  26.425   2.748
 7569W        W79185   3.738  31.763  11.657
 7570W        W79186  40.363  27.845  12.105
 7571W        W79187  17.474  29.514  14.938
 7572W        W79188  15.150  36.493   3.583
 7573W        W79189  10.955   7.892  13.413
 7574W        W79190  23.137  39.486  12.406
 7575W        W79191  28.126  22.535  11.406
 7576W        W79192  43.317  36.313   5.019
 7577W        W79193  33.379  25.486   3.234
 7578W        W79194  21.439  34.664  10.174
 7579W        W79195  42.341  25.355  13.997
 7580W        W79196  36.866   5.616  11.160
 7581W        W79197  35.562   9.598  10.597
 7582W        W79198  19.158  17.215   3.949
 7583W        W79199  37.419  16.798  11.628
 7584W        W79200   0.950  37.359  10.621
 7585W        W79201  36.506   9.642   0.403
 7586W        W79202  28.972  29.130   1.266
 7587W        W79203   0.563  40.745  11.638
 7588W        W79204  43.048  25.432   0.669
 7589W        W79205  29.182  25.065   2.665
 7590W        W79206  33.126  18.643  13.757
 7591W        W79207  11.154  38.909   1.253
 7592W        W79208  19.265  15.060   0.530
 7593W        W79209  30.010  13.809   3.182
 7594W        W79210  17.567  12.534   2.276
 7595W        W79211  43.913  27.747  13.078
 7596W        W79212  11.729   3.777   4.948
 7597W        W79213  42.509  18.808  10.600
 7598W        W79214  38.478  22.442   4.491
 7599W        W79215  43.349   0.588   3.405
 7600W        W79216   3.456  41.759  13.505
 7601W        W79217   0.759  43.365  14.364
 7602W        W79218  25.005  40.067  10.777
 7603W        W79219  38.804  20.486  12.944
 7604W        W79220   7.429  11.558   0.270
 7605W        W79221  43.975   7.561   3.682
 7606W        W79222  39.814   9.842  10.923
 7607W        W79223  25.716   6.478  12.462
 7608W        W79224  27.207  41.439  11.902
 7609W        W79225  26.611  19.268  14.497
 7610W        W79226   4.310  44.332   4.627
 7611W        W79227  30.941   4.732   0.930
 7612W        W79228  43.526  25.976  11.496
 7613W        W79229  20.811  31.419  14.851
 7614W        W79230  19.177   6.797  14.969
 7615W        W79231  27.569  12.901   2.386
 7616W        W79232   8.064  14.629   2.716
 7617W        W79233  10.162   9.979  10.644
 7618W        W79234  30.446  14.425  12.637
 7619W        W79235  28.943  15.022   3.688
 7620W        W79236  27.505  17.305   2.143
 7621W        W79237  42.162  31.014   3.373
 7622W        W79238   2.534  32.937   0.861
 7623W        W79239  22.500  31.690  10.237
 7624W        W79240  24.142  17.720  14.435
 7625W        W79241  43.762  10.413   0.952
 7626W        W79242  40.971  32.188   1.258
 7627W        W79243  28.200  44.590   2.810
 7628W        W79244  38.329  34.175   3.219
 7629W        W79245  31.849  40.477  13.466
 7630W        W79246  30.596  11.164   0.293
 7631W        W79247  40.051  23.620  10.707
 7632W        W79248   1.781  29.989  13.509
 7633W        W79249  17.506  18.569   1.215
 7634W        W79250  24.770  25.621  14.508
 7635W        W79251  13.907  29.468  14.388
 7636W        W79252  37.891  14.992  12.870
 7637W        W79253  29.063   8.934  13.967
 7638W        W79254   3.824   6.659   0.891
 7639W        W79255  15.580  31.982  14.955
 7640W        W79256  24.499  15.292   0.485
 7641W        W79257   1.427  44.368  14.925
 7642W        W79258  29.287  28.156  10.305
 7643W        W79259  30.254   1.769  11.045
 7644W        W79260  17.375  27.731  10.596
 7645W        W79261   3.906  22.707   2.810
 7646W        W79262  39.411  21.820  12.996
 7647W        W79263  42.404  19.246  13.715
 7648W        W79264  25.007  24.290  11.738
 7649W        W79265  36.655  42.916  11.850
 7650W        W79266  33.500  20.048   2.606
 7651W        W79267  12.789  15.000  11.554
 7652W        W79268   2.439  27.758  14.794
 7653W        W79269  14.831  30.591  14.348
 7654W        W79270  20.228   1.011  14.320
 7655W        W79271  18.044  41.360  10.284
 7656W        W79272  22.295  10.601  12.005
 7657W        W79273  39.590   3.365  11.864
 7658W        W79274  33.307   1.580  11.288
 7659W        W79275  13.704   9.423   0.368
 7660W        W79276  24.034  20.170   1.620
 7661W        W79277  39.454   7.197  14.524
 7662W        W79278   4.388  34.302   3.711
 7663W        W79279  29.154   3.303   1.044
 7664W        W79280  21.048   9.105   2.110
 7665W        W79281  19.696  43.326   3.126
 7666W        W79282  38.527  22.806   4.134
 7667W        W79283   2.929  27.120  11.991
 7668W        W79284  27.750  39.564  12.161
 7669W        W79285  16.866   2.321   2.739
 7670W        W79286  13.680  21.786  12.234
 7671W        W79287  17.102   6.298   1.387
 7672W        W79288   0.445   3.756   2.453
 7673W        W79289   1.294  18.051  12.376
 7674W        W79290   2.833  29.398  10.756
 7675W        W79291  23.751  21.777   3.094
 7676W        W79292   4.691   8.144   4.596
 7677W        W79293   5.890  21.264   4.396
 7678W        W79294  28.103  32.412   3.951
 7679W        W79295   5.179   1.425   0.114
 7680W        W79296  38.561  28.037   3.787
 7681W        W79297  15.335  42.529   2.730
 7682W        W79298  42.994  11.215   0.434
 7683W        W79299  18.300  33.049   4.579
 7684W        W79300  40.317   9.729  10.979
 7685W        W79301  10.809  43.152   3.656
 7686W        W79302  40.955   9.981  14.444
 7687W        W79303  31.196  16.163  11.965
 7688W        W79304  22.548  29.645   3.600
 7689W        W79305  11.764  28.543   2.791
 7690W        W79306  35.472  22.935   1.794
 7691W        W79307  22.428  21.502   3.107
 7692W        W79308  35.876  44.731   1.375
 7693W        W79309  20.187  31.989   0.871
 7694W        W79310  15.260  35.310   3.744
 7695W        W79311  41.939  24.264  11.087
 7696W        W79312  38.052  15.747  14.090
 7697W        W79313  11.949  27.264  14.860
 7698W        W79314  12.034   5.404   2.000
 7699W        W79315   5.954  13.846   1.911
 7700W        W79316  17.292   6.674  14.971
 7701W        W79317   9.858  26.541   4.577
 7702W        W79318  28.427   3.016   1.323
 7703W        W79319  33.798  18.113  10.627
 7704W        W79320   8.772  25.504   0.901
 7705W        W79321  19.952  34.515  11.179
 7706W        W79322   5.354  35.962   2.941
 7707W        W79323  27.587   9.597   3.029
 7708W        W79324  18.260  26.195   4.690
 7709W        W79325  17.152  22.288   1.266
 7710W        W79326   6.650   6.073   0.302
 7711W        W79327  38.412   1.414   4.643
 7712W        W79328  11.643  20.317  11.682
 7713W        W79329  32.418  22.994   4.515
 7714W        W79330   9.124  36.490  12.398
 7715W        W79331   1.251   8.301  14.360
 7716W        W79332  24.903  40.903  14.543
 7717W        W79333   9.119   1.025   1.679
 7718W        W79334   7.351   5.317  10.937
 7719W        W79335  43.015  29.895   3.842
 7720W        W79336   8.844   3.133  10.572
 7721W        W79337  12.220  19.130  11.108
 7722W        W79338   1.737  27.182   2.485
 7723W        W79339  36.979   1.484  11.365
 7724W        W79340  43.226  33.604  14.809
 7725W        W79341  17.478  33.006  13.391
 7726W        W79342  15.632  37.571   4.339
 7727W        W79343  28.537  41.367  10.521
 7728W        W79344  37.645  31.588  13.086
 7729W        W79345  25.104   9.492   2.743
 7730W        W79346  22.244   3.765   4.118
 7731W        W79347   3.413  28.530   0.919
 7732W        W79348   1.651  43.604  12.880
 7733W        W79349  35.358  12.165  14.972
 7734W        W79350  10.830   6.098  11.896
 7735W        W79351  23.831  24.732  11.088
 7736W        W79352  42.307   0.659   3.216
 7737W        W79353  44.917  20.048  11.231
 7738W        W79354  36.714   3.689   4.242
 7739W        W79355  19.535   3.282  13.132
 7740W        W79356  33.430  20.734  13.434
 7741W        W79357  12.768   8.463   0.276
 7742W        W79358  16.286  26.630   0.757
 7743W        W79359  31.873  28.442   3.451
 7744W        W79360  39.961   8.669  14.882
 7745W        W79361  13.781   8.689  13.896
 7746W        W79362  13.982   9.093   3.415
 7747W        W79363  32.993  41.862   4.722
 7748W        W79364  24.572  25.920   1.544
 7749W        W79365  36.434  10.853  12.639
 7750W        W79366  23.756  12.544   2.375
 7751W        W79367   0.157   3.836   4.569
 7752W        W79368  35.892  15.978  12.592
 7753W        W79369  29.483  44.886  11.707
 7754W        W79370  42.054   2.387   4.217
 7755W        W79371   3.896   9.774  14.837
 7756W        W79372  28.713  28.592  11.121
 7757W        W79373  24.577  20.054   4.410
 7758W        W79374  43.873  20.927   4.182
 7759W        W79375   0.982   5.179   0.389
 7760W        W79376  20.268  11.748  12.996
 7761W        W79377  36.448  10.376  14.376
 7762W        W79378  29.579  34.958   0.527
 7763W        W79379   7.359   2.877  12.314
 7764W        W79380  12.875  43.437  10.740
 7765W        W79381   8.186  44.347  14.986
 7766W        W79382  26.039  34.033  14.788
 7767W        W79383  20.392  42.912  10.119
 7768W        W79384  14.557  32.968   3.126
 7769W        W79385  30.880  31.730  14.835
 7770W        W79386  13.843  31.886   2.586
 7771W        W79387  21.183   0.834   1.245
 7772W        W79388  26.942  11.325   3.804
 7773W        W79389   1.501  23.257   1.851
 7774W        W79390  38.803  17.075  11.973
 7775W        W79391  12.551  29.431   4.325
 7776W        W79392  12.131  37.144   1.166
 7777W        W79393  11.213  25.514   2.834
 7778W        W79394  19.084  29.116   4.906
 7779W        W79395  30.591  22.831   0.168
 7780W        W79396  43.344  15.893   4.703
 7781W        W79397  10.702  15.240   0.717
 7782W        W79398  21.553  14.376   4.105
 7783W        W79399   8.523   1.365  13.581
 7784W        W79400   9.855   5.011  10.652
 7785W        W79401  31.528  36.430  13.383
 7786W        W79402  25.558  26.660  12.741
 7787W        W79403  10.599  26.135   0.946
 7788W        W79404  19.185  17.124  11.548
 7789W        W79405  35.422  42.742  14.489
 7790W        W79406  25.090   8.594  14.908
 7791W        W79407   7.977  37.546   1.847
 7792W        W79408  41.330  34.855  10.840
 7793W        W79409  31.871   6.581  11.969
 7794W        W79410  20.659  27.689  11.557
 7795W        W79411   9.624  13.104  12.938
 7796W        W79412  17.161  36.306  14.698
 7797W        W79413   4.240  32.480  14.794
 7798W        W79414  16.116   7.783  12.318
 7799W        W79415  30.441  38.061   1.662
 7800W        W79416  40.943  21.758  14.901
 7801W        W79417  18.866  13.636  11.136
 7802W        W79418  11.002   6.735  12.562
 7803W        W79419  23.991  25.537   3.733
 7804W        W79420   5.333  27.606  11.129
 7805W        W79421  18.777  22.240   0.359
 7806W        W79422  36.225   9.138  11.042
 7807W        W79423  18.231   3.770  13.516
 7808W        W79424  15.181  14.037   0.367
 7809W        W79425  37.571  15.088   4.975
 7810W        W79426  37.288  18.724   4.146
 7811W        W79427  13.985  12.878   3.231
 7812W        W79428  42.078   0.467  13.970
 7813W        W79429  30.120  32.912  10.462
 7814W        W79430  38.358   4.856  11.661
 7815W        W79431  22.379  23.676  12.098
 7816W        W79432  30.196  19.424  10.774
 7817W        W79433   9.413  13.671   0.772
 7818W        W79434  14.922  29.029   4.687
 7819W        W79435   9.929  35.928  14.794
 7820W        W79436  43.278  15.199   1.821
 7821W        W79437  44.158  29.227  11.872
 7822W        W79438   6.707  31.892   2.012
 7823W        W79439  29.469  13.589   2.091
 7824W        W79440   7.290  36.897  14.657
 7825W        W79441   4.791  44.119  11.943
 7826W        W79442  11.640   9.833   3.207
 7827W        W79443  43.484   9.838  11.611
 7828W        W79444  19.903  42.459   2.107
 7829W        W79445  37.994  30.850  11.579
 7830W        W79446  37.882   5.475   0.755
 7831W        W79447  38.375   9.247  14.503
 7832W        W79448   5.353  40.023  14.430
 7833W        W79449   3.275  15.353   2.357
 7834W        W79450  20.973   2.255   2.380
 7835W        W79451   0.984  38.367   4.830
 7836W        W79452  24.604  14.598  11.228
 7837W        W79453  16.927  12.722   1.322
 7838W        W79454  32.364  33.228   1.941
 7839W        W79455  35.472  28.110  10.560
 7840W        W79456  24.521  39.569   4.879
 7841W        W79457  29.867   4.721   4.246
 7842W        W79458   4.067   9.902   4.697
 7843W        W79459  37.983  17.002  12.465
 7844W        W79460  42.433   1.011  11.812
 7845W        W79461  42.953  42.592   3.328
 7846W        W79462   6.405  26.143   0.575
 7847W        W79463  10.892  43.320   0.949
 7848W        W79464  10.603   6.973   0.209
 7849W        W79465   2.708  11.598   3.214
 7850W        W79466  19.376  35.998   1.692
 7851W        W79467  35.225  41.050   3.030
 7852W        W79468   8.378  20.615  13.008
 7853W        W79469  40.386  31.096   0.950
 7854W        W79470  15.551  33.193   0.800
 7855W        W79471  25.112  12.889  12.045
 7856W        W79472  27.473  40.273  13.444
 7857W        W79473  20.189  13.106  11.190
 7858W        W79474   0.057  42.201  13.235
 7859W        W79475  21.033  36.097   4.513
 7860W        W79476  21.547  30.430   3.834
 7861W        W79477  35.101  11.238   1.979
 7862W        W79478  13.343  29.658   0.920
 7863W        W79479  14.679  21.255   0.835
 7864W        W79480  20.074  42.474  11.468
 7865W        W79481  42.387  26.932   4.256
 7866W        W79482   4.476  26.063  14.871
 7867W        W79483   5.462  14.775   0.710
 7868W        W79484  17.701  29.206   2.362
 7869W        W79485   5.967  39.564   2.569
 7870W        W79486   0.423  38.881   3.707
 7871W        W79487   4.784   3.746  11.104
 7872W        W79488  26.886   5.929  14.916
 7873W        W79489  20.738  13.883   2.203
 7874W        W79490  13.160   5.052  10.698
 7875W        W79491  11.667  23.046  11.171
 7876W        W79492   9.809  19.361  13.689
 7877W        W79493  33.779   1.340  13.492
 7878W        W79494   6.778  27.856   1.729
 7879W        W79495  34.394   9.248  12.514
 7880W        W79496  30.895  28.601  11.589
 7881W        W79497   9.817  15.354  14.461
 7882W        W79498   5.803   4.137  13.984
 7883W        W79499  23.730   8.797  12.467
 7884W        W79500  40.232  10.736  11.159
 7885W        W79501  11.106  43.489   4.461
 7886W        W79502  14.292  13.197   1.925
 7887W        W79503  16.134   1.704   0.347
 7888W        W79504  34.042  26.717  13.316
 7889W        W79505  39.005   8.695   4.217
 7890W        W79506  25.772  19.726   3.597
 7891W        W79507  44.573  19.748  10.336
 7892W        W79508  20.153  37.350   4.694
 7893W        W79509  43.490   9.373   0.409
 7894W        W79510   7.154  29.066   2.724
 7895W        W79511  16.162   6.111  10.095
 7896W        W79512  26.420  16.091   4.142
 7897W        W79513  22.117  14.776  12.817
 7898W        W79514  27.272   7.805  12.445
 7899W        W79515  16.658  18.158   5.254
 7900W        W79516   6.282  29.162   0.733
 7901W        W79517  15.849   2.832   4.114
 7902W        W79518  35.933  22.745   4.568
 7903W        W79519  17.839   5.257  11.125
 7904W        W79520   6.698  19.400   1.461
 7905W        W79521  18.286   5.813  11.495
 7906W        W79522  22.586  11.659  12.208
 7907W        W79523  29.706   4.063   4.277
 7908W        W79524  25.760  43.983  11.088
 7909W        W79525  40.020   4.996   3.681
 7910W        W79526   9.308  34.201   2.802
 7911W        W79527  32.136  41.505   1.348
 7912W        W79528  37.915   5.927   2.243
 7913W        W79529   5.748  44.329   3.371
 7914W        W79530  41.222  17.647   2.210
 7915W        W79531  13.575  35.424   2.636
 7916W        W79532  19.647  39.408  11.382
 7917W        W79533  17.052  42.397   2.728
 7918W        W79534  26.149  18.812  14.190
 7919W        W79535  37.642   6.818  11.737
 7920W        W79536   6.687  38.267  11.685
 7921W        W79537  39.166  32.164  11.465
 7922W        W79538  10.411  19.370   1.677
 7923W        W79539  31.569   0.233  10.073
 7924W        W79540  25.438  30.983   2.621
 7925W        W79541  22.710  30.433   1.436
 7926W        W79542  32.151  32.421  13.664
 7927W        W79543  37.735   6.707   1.198
 7928W        W79544  28.066  20.013   2.784
 7929W        W79545  26.228  10.214   0.204
 7930W        W79546   9.837  24.492   4.390
 7931W        W79547  42.424   7.096   3.661
 7932W        W79548  28.656  44.816   3.569
 7933W        W79549  15.878  11.660  12.546
 7934W        W79550  31.749  38.343   0.367
 7935W        W79551  43.272  17.608  14.536
 7936W        W79552  24.590  42.529   0.611
 7937W        W79553  41.627  43.005   5.098
 7938W        W79554  31.493  30.304   1.326
 7939W        W79555   3.282  25.192  10.719
 7940W        W79556  43.778   9.246  14.993
 7941W        W79557   4.786  21.586   3.608
 7942W        W79558  32.689  28.099   0.572
 7943W        W79559   3.821  10.256   2.906
 7944W        W79560  28.305   9.810  13.498
 7945W        W79561  39.343  10.485  10.940
 7946W        W79562  21.093   2.625  13.994
 7947W        W79563   9.807   9.258  12.210
 7948W        W79564   3.296   7.540   3.104
 7949W        W79565  27.329   8.772  10.760
 7950W        W79566   5.301  39.444   0.858
 7951W        W79567  12.133  26.691   0.358
 7952W        W79568  29.606  26.948   3.562
 7953W        W79569  36.093  21.659  13.684
 7954W        W79570  29.692  34.737   5.193
 7955W        W79571  26.718  18.545  13.952
 7956W        W79572  20.420  16.351   1.987
 7957W        W79573  31.610  27.150   0.345
 7958W        W79574   3.854  10.901   3.723
 7959W        W79575  14.784  15.700   4.628
 7960W        W79576  27.513  22.572  14.443
 7961W        W79577   3.335  18.776   2.305
 7962W        W79578   0.915  24.936   1.480
 7963W        W79579  12.445  30.605   2.392
 7964W        W79580  21.161  41.269   3.162
 7965W        W79581   1.279  24.869   9.839
 7966W        W79582  26.067   2.978  12.872
 7967W        W79583   7.461  42.811   3.354
 7968W        W79584   0.354  26.048   3.830
 7969W        W79585  40.826  17.108   4.113
 7970W        W79586   2.373  35.055   3.799
 7971W        W79587  25.727  41.529   2.227
 7972W        W79588  15.313  19.122   0.991
 7973W        W79589   9.427   3.471   5.167
 7974W        W79590   6.918   0.782   4.022
 7975W        W79591   8.679  22.388  14.980
 7976W        W79592  40.663  20.522  10.372
 7977W        W79593  42.654  14.359  10.944
 7978W        W79594   8.695  43.941   0.648
 7979W        W79595   6.950  44.000   4.516
 7980W        W79596  14.293  44.537  13.960
 7981W        W79597  28.926  43.352   4.826
 7982W        W79598  27.681  41.142  13.663
 7983W        W79599  14.210  39.457  10.629
 7984W        W79600  36.107  29.692   2.834
 7985W        W79601  36.223   3.512   4.955
 7986W        W79602  31.158  27.674   1.151
 7987W        W79603  15.305  19.413   5.060
 7988W        W79604  19.278  28.607   2.209
 7989W        W79605  24.622  33.747   3.902
 7990W        W79606  33.630  25.154  14.828
 7991W        W79607  44.703  20.079   3.369
 7992W        W79608  33.985  18.654   1.925
 7993W        W79609  18.264  40.541  12.540
 7994W        W79610   3.826  37.842  13.481
 7995W        W79611  26.705  15.641  14.328
 7996W        W79612  11.348  30.713   1.270
 7997W        W79613  26.050  40.786  13.124
 7998W        W79614   5.337   0.073   3.354
 7999W        W79615  18.132   1.483  11.641
 8000W        W79616   5.317  33.362   1.752
 8001W        W79617  17.710  19.992  13.628
 8002W        W79618  28.333  30.451  11.491
 8003W        W79619  17.882  12.604   0.281
 8004W        W79620   2.826  28.120   1.817
 8005W        W79621  39.400  29.269   4.444
 8006W        W79622  17.815   5.894  12.071
 8007W        W79623  40.476   6.870  11.582
 8008W        W79624  15.332  28.487  13.877
 8009W        W79625  27.970   3.631   3.300
 8010W        W79626  22.979   6.446   1.019
 8011W        W79627   9.847  35.591   2.175
 8012W        W79628  27.524  39.458   3.799
 8013W        W79629  11.856   5.319  13.385
 8014W        W79630  18.976  38.482  10.892
 8015W        W79631   7.997  33.994  13.208
 8016W        W79632  20.435   6.172   1.735
 8017W        W79633   0.823  43.802   0.896
 8018W        W79634   7.965  28.135   0.375
 8019W        W79635   5.787  37.493   1.951
 8020W        W79636   5.871  21.456  10.942
 8021W        W79637  36.062   2.249  10.970
 8022W        W79638  16.750  13.411  12.793
 8023W        W79639  27.731   4.267  12.620
 8024W        W79640   0.987   5.748   3.191
 8025W        W79641  31.226  16.510  14.204
 8026W        W79642  25.755  24.077   1.087
 8027W        W79643  29.381  25.653   1.684
 8028W        W79644  38.422  19.176  12.387
 8029W        W79645  12.340  19.653   3.650
 8030W        W79646  13.309  11.739   4.361
 8031W        W79647   6.738   3.737   1.024
 8032W        W79648  23.446  31.496   4.690
 8033W        W79649  17.945  33.808  10.652
 8034W        W79650   1.937  33.782  14.491
 8035W        W79651   1.873   6.685   0.498
 8036W        W79652  12.311   3.124  13.875
 8037W        W79653   2.464  43.295  12.472
 8038W        W79654  38.600   3.511  11.949
 8039W        W79655  27.203   2.893   5.079
 8040W        W79656  44.518  41.467   1.429
 8041W        W79657  30.114  12.703   1.340
 8042W        W79658  31.958  37.662  10.465
 8043W        W79659  41.596  41.068  10.735
 8044W        W79660  10.127  40.776   0.952
 8045W        W79661  27.701  30.490  13.571
 8046W        W79662  43.804  10.587   3.627
 8047W        W79663   2.189  26.648  11.434
 8048W        W79664  16.975  31.652  10.696
 8049W        W79665  18.495  27.016  10.747
 8050W        W79666  16.831  40.278  11.729
 8051W        W79667  30.603  35.000   4.059
 8052W        W79668  18.733  14.791  14.925
 8053W        W79669  15.289   2.266  11.520
 8054W        W79670   1.418   4.988  12.194
 8055W        W79671   3.061  29.263   4.960
 8056W        W79672   7.375  22.378  14.763
 8057W        W79673  18.364  23.683   0.821
 8058W        W79674  33.799  19.002   3.284
 8059W        W79675  38.987  14.380   3.606
 8060W        W79676  23.237  25.002   0.820
 8061W        W79677  23.358  15.610  12.275
 8062W        W79678  41.368  35.885  11.990
 8063W        W79679   2.918  13.656  10.578
 8064W        W79680   0.685  44.901  14.076
 8065W        W79681  26.983  33.942  14.190
 8066W        W79682  23.028  20.618   3.757
 8067W        W79683  26.286  35.347   0.498
 8068W        W79684  41.770  13.113  11.225
 8069W        W79685  14.240  20.283   5.378
 8070W        W79686  32.327   0.025  12.545
 8071W        W79687  15.232   6.760   4.604
 8072W        W79688  36.169  21.605   2.302
 8073W        W79689  25.512  39.638   2.333
 8074W        W79690  43.400   5.283  12.464
 8075W        W79691  20.685  41.042   1.673
 8076W        W79692  38.950   9.250   4.226
 8077W        W79693  33.849  41.592  12.131
 8078W        W79694  37.791  20.195   1.758
 8079W        W79695   0.444  30.888   3.126
 8080W        W79696  30.783   6.419   2.809
 8081W        W79697  26.995  44.481   4.731
 8082W        W79698  16.132  15.813   0.507
 8083W        W79699  15.047  34.886   1.729
 8084W        W79700  12.402  36.459   4.549
 8085W        W79701  13.762   3.657   4.206
 8086W        W79702  16.286  29.105   3.227
 8087W        W79703  33.514  27.715   4.540
 8088W        W79704  43.088  10.671   2.177
 8089W        W79705  36.924  23.007   2.793
 8090W        W79706  34.481   3.830   0.235
 8091W        W79707  33.448  27.130   1.272
 8092W        W79708   8.716  20.968   3.216
 8093W        W79709   2.832  39.287   4.609
 8094W        W79710  20.075  41.472   2.317
 8095W        W79711  25.277   3.220   3.633
 8096W        W79712  35.797  19.292  12.539
 8097W        W79713  29.195   7.441  13.870
 8098W        W79714  25.436   8.593  14.285
 8099W        W79715  37.371  44.838   2.131
 8100W        W79716  17.525  32.601   2.882
 8101W        W79717  31.279  40.658  10.427
 8102W        W79718  42.706  27.631   2.786
 8103W        W79719  43.458  36.271   3.344
 8104W        W79720   1.318  24.923  13.948
 8105W        W79721  24.064  35.929   4.034
 8106W        W79722  34.702  31.648  13.350
 8107W        W79723  37.411  16.650  12.495
 8108W        W79724  13.531   7.146   1.397
 8109W        W79725  12.557  18.857  11.704
 8110W        W79726  43.177  38.495   5.231
 8111W        W79727  39.790  10.644   4.677
 8112W        W79728  38.413  14.212   4.183
 8113W        W79729  27.916   0.116  11.308
 8114W        W79730  42.981   4.803  13.517
 8115W        W79731  31.805  16.188   2.329
 8116W        W79732  23.650  10.695  12.552
 8117W        W79733   3.148  29.209   2.788
 8118W        W79734  31.151  25.936   3.687
 8119W        W79735  42.599  28.615  11.568
 8120W        W79736  24.961  18.091  14.333
 8121W        W79737  37.424  42.320   1.019
 8122W        W79738   5.994  23.672  13.404
 8123W        W79739  13.054   8.180   4.074
 8124W        W79740  13.073  19.028  14.743
 8125W        W79741  18.128  10.316   0.772
 8126W        W79742   9.396  17.296   2.295
 8127W        W79743   4.257   8.892  13.021
 8128W        W79744  34.112  14.318  13.018
 8129W        W79745  30.522  32.087  10.592
 8130W        W79746  12.298  37.986   2.775
 8131W        W79747  40.395   1.697  11.173
 8132W        W79748   3.784  20.501  11.980
 8133W        W79749  38.850  12.173  14.347
 8134W        W79750   4.142  35.566  12.765
 8135W        W79751  32.571   6.955   2.785
 8136W        W79752  44.758  23.148   3.101
 8137W        W79753  27.507  44.072   3.666
 8138W        W79754   6.824  12.666   4.127
 8139W        W79755  37.517  41.091  13.602
 8140W        W79756   8.534   7.321  13.080
 8141W        W79757  43.431  14.558   1.238
 8142W        W79758   9.868  34.612  13.123
 8143W        W79759   9.127   5.911  11.532
 8144W        W79760  16.016  30.608   3.206
 8145W        W79761  25.183   2.424   2.288
 8146W        W79762  14.894   3.184  10.243
 8147W        W79763  20.521  19.171   2.351
 8148W        W79764   2.454  16.363  14.781
 8149W        W79765  12.035  17.308   3.784
 8150W        W79766   4.140  40.647   4.537
 8151W        W79767  33.445  22.096   0.805
 8152W        W79768  34.944  22.753   4.735
 8153W        W79769   9.703  21.469   3.388
 8154W        W79770  39.040   3.606  14.528
 8155W        W79771  12.449  26.439  10.671
 8156W        W79772  26.401  44.751   0.907
 8157W        W79773  31.944  41.478  12.181
 8158W        W79774  29.391  39.317  10.751
 8159W        W79775  10.787   2.232  13.826
 8160W        W79776  43.349  34.003  13.833
 8161W        W79777  15.177  19.573  11.668
 8162W        W79778  44.033  39.604   0.993
 8163W        W79779   0.393  43.038  14.547
 8164W        W79780  40.531   7.221   2.416
 8165W        W79781  15.067  21.727   4.541
 8166W        W79782  18.143  20.280   3.680
 8167W        W79783  10.429  38.476   4.559
 8168W        W79784  27.125  33.962   4.525
 8169W        W79785  23.135   1.482   4.768
 8170W        W79786  23.121   7.232   3.639
 8171W        W79787   7.492  35.306  13.848
 8172W        W79788  15.652   9.446   1.640
 8173W        W79789  40.356  20.200   0.449
 8174W        W79790  26.305  34.235  13.346
 8175W        W79791  31.809   4.735   1.877
 8176W        W79792  20.667  38.696   4.861
 8177W        W79793   1.672   7.807   1.146
 8178W        W79794   1.709  24.139   4.482
 8179W        W79795  40.326  36.396   4.617
 8180W        W79796  11.731   8.139  11.590
 8181W        W79797  41.966  40.416   1.810
 8182W        W79798  29.650  32.902  13.001
 8183W        W79799  30.197  11.394   0.536
 8184W        W79800  33.845  18.449  12.412
 8185W        W79801  37.994  11.008   3.601
 8186W        W79802   7.861  39.180   3.254
 8187W        W79803  29.111  27.375   0.719
 8188W        W79804  23.575  20.094   0.706
 8189W        W79805   3.324  12.147   0.774
 8190W        W79806  14.304  37.669   4.611
 8191W        W79807   9.067   1.296   3.810
 8192W        W79808  14.650  37.604  10.705
 8193W        W79809  11.700  32.483   1.239
 8194W        W79810  10.625  37.404   3.184
 8195W        W79811  41.887  20.769   0.610
 8196W        W79812  39.767   0.856  11.283
 8197W        W79813  16.889  36.607   4.087
 8198W        W79814   1.946  17.405   4.585
 8199W        W79815  17.063  14.019  13.561
 8200W        W79816  29.057  38.448  13.871
 8201W        W79817  23.643  12.082   1.450
 8202W        W79818  32.515  38.597   4.624
 8203W        W79819  44.414  34.952  13.872
 8204W        W79820   9.374  41.245  12.259
 8205W        W79821  25.538  19.552  11.527
 8206W        W79822   2.777  20.179  11.606
 8207W        W79823  28.811  15.197  12.428
 8208W        W79824  38.458  40.476   0.688
 8209W        W79825  22.008  32.159  12.555
 8210W        W79826  14.800  34.638   3.373
 8211W        W79827  35.349   7.381   0.215
 8212W        W79828   1.558  30.219  13.102
 8213W        W79829  33.777  42.978  10.701
 8214W        W79830   2.731   4.760   2.832
 8215W        W79831  12.624  20.595   1.643
 8216W        W79832  44.420  30.631  13.510
 8217W        W79833   4.737  12.401   1.040
 8218W        W79834  22.901  32.845  14.335
 8219W        W79835  17.177  19.956  14.240
 8220W        W79836  43.781  34.329   4.668
 8221W        W79837  27.025  39.485   0.690
 8222W        W79838  23.126  40.051  14.969
 8223W        W79839  34.245   2.394   4.652
 8224W        W79840  17.979  23.900   1.841
 8225W        W79841   5.821  17.636  12.335
 8226W        W79842   3.265   3.248  14.099
 8227W        W79843  41.464   5.658   3.786
 8228W        W79844  27.665  30.997  13.507
 8229W        W79845  20.263   9.703   0.940
 8230W        W79846  29.652  22.653   4.623
 8231W        W79847  31.448  39.483  13.419
 8232W        W79848   5.837  18.802   0.498
 8233W        W79849  38.368  30.922  13.563
 8234W        W79850  39.751  15.080   3.708
 8235W        W79851  39.452  30.180   4.483
 8236W        W79852  13.236   7.342   2.672
 8237W        W79853  43.951  18.145   2.460
 8238W        W79854   9.581  29.093  12.041
 8239W        W79855  29.489  10.457   3.755
 8240W        W79856   8.953   7.801   2.105
 8241W        W79857  20.544  17.073  12.437
 8242W        W79858  42.837  30.822  14.917
 8243W        W79859   2.766  12.590  14.210
 8244W        W79860   2.492  28.729  12.474
 8245W        W79861  21.088   6.732   4.996
 8246W        W79862  15.772  17.249   3.038
 8247W        W79863  36.908  40.890   0.325
 8248W        W79864   9.358  42.999  12.978
 8249W        W79865  11.012   6.874  11.621
 8250W        W79866  25.099  25.577  12.642
 8251W        W79867  14.529  13.649   0.756
 8252W        W79868   3.160  12.791  10.638
 8253W        W79869  18.828  34.590   3.646
 8254W        W79870  27.426  25.649  12.029
 8255W        W79871  14.502  40.035   3.506
 8256W        W79872  18.065  36.523   1.792
 8257W        W79873  13.931  32.244  14.176
 8258W        W79874   2.045   0.815  14.309
 8259W        W79875  19.791  39.330  13.405
 8260W        W79876   9.888  19.520  13.164
 8261W        W79877  18.360  43.150   4.565
 8262W        W79878  14.897  38.007   4.618
 8263W        W79879  16.599  22.747  14.704
 8264W        W79880  41.204  43.317  11.058
 8265W        W79881  11.798  35.517  12.512
 8266W        W79882  19.664   3.454  11.636
 8267W        W79883  29.729  17.002  13.078
 8268W        W79884  20.374  19.539   5.013
 8269W        W79885  28.159  35.321   2.753
 8270W        W79886  27.460  20.147  13.623
 8271W        W79887  23.981   9.337  13.474
 8272W        W79888  24.024  13.656  14.918
 8273W        W79889   0.807  34.538   4.556
 8274W        W79890  22.776  34.969  13.676
 8275W        W79891  17.265   4.287   2.375
 8276W        W79892  35.016  44.709   0.222
 8277W        W79893  41.971  13.861  11.611
 8278W        W79894  41.541  12.554  12.925
 8279W        W79895  28.198   3.918  14.020
 8280W        W79896  11.360  25.000   2.788
 8281W        W79897  36.757   9.400  12.959
 8282W        W79898   9.587  34.241   3.909
 8283W        W79899  21.541  36.061   4.612
 8284W        W79900  36.378   9.189  14.944
 8285W        W79901  44.011  10.681   4.516
 8286W        W79902  23.219  40.854  10.870
 8287W        W79903  24.754  10.298  14.982
 8288W        W79904   7.148  21.128  10.715
 8289W        W79905  27.624   3.142  11.379
 8290W        W79906   5.155  11.118  11.110
 8291W        W79907  31.027  12.375  14.842
 8292W        W79908  25.494  30.346   4.194
 8293W        W79909   6.341  19.022  13.802
 8294W        W79910  34.534  25.336  11.128
 8295W        W79911  42.772  38.046   4.646
 8296W        W79912  20.955  36.434   1.457
 8297W        W79913  32.907  30.250  12.692
 8298W        W79914  20.946  13.850  13.922
 8299W        W79915  41.440  43.303  10.594
 8300W        W79916  27.274  24.715   0.395
 8301W        W79917  16.739  11.435   0.570
 8302W        W79918  29.744  37.542  12.395
 8303W        W79919  15.091  40.303  11.079
 8304W        W79920  44.368  31.011   3.771
 8305W        W79921  14.783  26.415   2.909
 8306W        W79922  28.660  16.749   3.243
 8307W        W79923  17.917   4.763  11.203
 8308W        W79924  24.125   7.116  12.110
 8309W        W79925  40.531  35.387   0.489
 8310W        W79926   4.841   8.807   4.631
 8311W        W79927  28.281  21.101  13.374
 8312W        W79928  29.741  43.650   2.923
 8313W        W79929  44.795  14.964   2.183
 8314W        W79930  38.617  17.122   0.231
 8315W        W79931  14.642  44.597   4.302
 8316W        W79932  10.893  21.390   3.344
 8317W        W79933  26.250  32.979  12.460
 8318W        W79934   7.845  38.089   1.914
 8319W        W79935  44.774  36.037  14.742
 8320W        W79936  42.365  44.791   0.756
 8321W        W79937  16.833  27.897   4.681
 8322W        W79938  14.664  38.486  13.859
 8323W        W79939  34.946   4.691  10.702
 8324W        W79940  30.883  23.525  12.967
 8325W        W79941  14.238  33.513  14.430
 8326W        W79942  13.169  17.776  10.311
 8327W        W79943  41.260  17.018  12.110
 8328W        W79944  34.430   6.363  13.823
 8329W        W79945  33.986  22.179   2.794
 8330W        W79946   8.640  12.930  14.831
 8331W        W79947  10.664  21.533   2.606
 8332W        W79948  23.500  10.241   2.724
 8333W        W79949  25.986  32.935   1.781
 8334W        W79950  15.709  34.324   3.198
 8335W        W79951   4.918   9.742   2.138
 8336W        W79952  32.659   7.228   3.252
 8337W        W79953  35.148  15.080   4.209
 8338W        W79954  22.657  11.719   2.170
 8339W        W79955  22.927  21.793   4.253
 8340W        W79956  22.025  17.191  14.958
 8341W        W79957  24.969  16.026   3.333
 8342W        W79958  38.524   6.839   4.541
 8343W        W79959  13.189   8.177  11.524
 8344W        W79960  19.460  32.758   2.892
 8345W        W79961  42.362  37.070  12.025
 8346W        W79962   1.806  26.407   2.744
 8347W        W79963  21.217  19.672   4.100
 8348W        W79964  24.485  10.963  12.947
 8349W        W79965   9.726   1.980   2.337
 8350W        W79966  44.762  12.182   1.010
 8351W        W79967  22.611  24.954   1.617
 8352W        W79968  11.168   5.907  14.938
 8353W        W79969  17.710  11.342  13.253
 8354W        W79970   1.611   8.275  13.960
 8355W        W79971  37.955   0.196  13.540
 8356W        W79972   2.431   8.780   0.504
 8357W        W79973  35.187  37.896  12.009
 8358W        W79974  11.104  38.630  12.077
 8359W        W79975  38.563  18.432   3.818
 8360W        W79976   8.872  31.458  14.081
 8361W        W79977  12.753  25.229  10.714
 8362W        W79978  32.238  40.624  12.363
 8363W        W79979  32.549   8.688  10.760
 8364W        W79980   9.921  33.360   0.937
 8365W        W79981   0.425  24.047   3.729
 8366W        W79982  17.267  18.745   3.624
 8367W        W79983  29.591  41.280  12.092
 8368W        W79984  30.134  19.432  13.798
 8369W        W79985   1.492  43.930   3.602
 8370W        W79986  35.989  35.850   0.803
 8371W        W79987  37.128   9.420   0.401
 8372W        W79988  20.156  28.631   2.059
 8373W        W79989  43.272  41.032   3.601
 8374W        W79990  35.795   8.694  11.606
 8375W        W79991  16.267  10.799  11.715
 8376W        W79992  24.604  12.502   3.321
 8377W        W79993  10.849   9.527   2.236
 8378W        W79994  41.872   0.046   2.865
 8379W        W79995  37.055  36.371   0.247
 8380W        W79996  31.979  19.551  11.125
 8381W        W79997  32.867  14.317   1.292
 8382W        W79998   2.767  35.682  14.169
 8383W        W79999  24.500  16.302   3.317
 8384W        W80000  44.922  31.535  11.423
 8385W        W80001  37.043  37.501   1.187
 8386W        W80002  28.994   2.256  10.675
 8387W        W80003  27.620  35.098   0.731
 8388W        W80004  42.912  20.443  10.743
 8389W        W80005  18.712  27.118   3.235
 8390W        W80006  13.291  44.002   1.171
 8391W        W80007  13.463  28.688   0.364
 8392W        W80008  25.013  20.769  13.421
 8393W        W80009  37.876  30.518  12.408
 8394W        W80010   2.329  11.657  13.012
 8395W        W80011  23.240  37.371  13.517
 8396W        W80012   1.818  17.548   2.457
 8397W        W80013  44.849  35.566  10.358
 8398W        W80014   5.791  42.959  11.457
 8399W        W80015   0.053  37.543  10.598
 8400W        W80016   7.665  37.325   4.567
 8401W        W80017   7.729  27.593   1.372
 8402W        W80018  37.290  26.596   5.123
 8403W        W80019  23.690  16.430   4.499
 8404W        W80020  23.079   4.297   3.177
 8405W        W80021   4.454  40.485  11.558
 8406W        W80022  24.215  12.537  12.420
 8407W        W80023  44.987   6.841   2.244
 8408W        W80024  27.334   5.861   1.273
 8409W        W80025   1.384  25.409   1.022
 8410W        W80026  30.912   3.763   4.705
 8411W        W80027  29.630  40.455  12.103
 8412W        W80028  10.534  29.121  14.404
 8413W        W80029   6.287  14.932   2.685
 8414W        W80030  26.453   2.601  12.301
 8415W        W80031   5.298  27.953  12.095
 8416W        W80032  31.983   7.621  11.988
 8417W        W80033  33.978  11.360  11.253
 8418W        W80034  44.452  36.576   0.936
 8419W        W80035   6.416   8.973   3.880
 8420W        W80036   4.265   2.410  11.860
 8421W        W80037  36.200  35.330  13.484
 8422W        W80038  28.667  21.721  11.411
 8423W        W80039  44.828   9.665  10.975
 8424W        W80040  23.405   3.521   3.317
 8425W        W80041  16.202  22.029   1.502
 8426W        W80042  15.205  14.864  14.991
 8427W        W80043   4.254   1.122  10.506
 8428W        W80044   1.012  25.589  13.089
 8429W        W80045  36.616  17.824  11.928
 8430W        W80046  22.591  12.144  12.439
 8431W        W80047  15.224  16.141   1.395
 8432W        W80048   4.898  22.433   3.609
 8433W        W80049  21.322   2.517   1.795
 8434W        W80050  34.147  38.915  13.322
 8435W        W80051  33.639  31.154  14.803
 8436W        W80052   2.009  44.298   0.096
 8437W        W80053  44.058   6.901  12.349
 8438W        W80054  23.230   9.849   1.547
 8439W        W80055  29.078  37.240   0.824
 8440W        W80056  16.336   5.901  12.386
 8441W        W80057  32.218   4.282   0.824
 8442W        W80058  31.620  32.480  12.894
 8443W        W80059  21.401  30.969   0.236
 8444W        W80060  40.904  20.153  10.716
 8445W        W80061   3.396  34.949   0.255
 8446W        W80062  19.727  17.963   1.863
 8447W        W80063  22.159  20.643  10.918
 8448W        W80064   3.223   1.334   1.765
 8449W        W80065  40.995  15.310  11.605
 8450W        W80066   9.892  22.987   3.329
 8451W        W80067  14.932   2.741   9.987
 8452W        W80068   4.930   3.463   0.249
 8453W        W80069  24.495  43.987   3.769
 8454W        W80070  17.031   3.983   1.327
 8455W        W80071  20.665  39.510  10.561
 8456W        W80072  36.211  44.998   1.679
 8457W        W80073  24.680   3.716   0.742
 8458W        W80074  17.153  27.940  13.466
 8459W        W80075  43.282   4.828   3.224
 8460W        W80076  24.758  24.966   4.600
 8461W        W80077  31.991   9.846  14.098
 8462W        W80078  11.285  22.976  13.064
 8463W        W80079  16.753  29.709  13.816
 8464W        W80080  10.144  41.664   9.986
 8465W        W80081  26.662  39.322  14.783
 8466W        W80082  30.378  18.521  11.616
 8467W        W80083  20.145  26.137  10.653
 8468W        W80084  14.045  15.101   3.891
 8469W        W80085  21.569  14.969  14.547
 8470W        W80086  30.929  16.314  11.051
 8471W        W80087  11.632  26.739   3.798
 8472W        W80088   7.328  21.752   1.428
 8473W        W80089   7.848  22.210  13.581
 8474W        W80090  10.365   3.586   3.679
 8475W        W80091  37.571  40.527   1.724
 8476W        W80092   0.454   6.440   0.365
 8477W        W80093  11.609  10.653   3.356
 8478W        W80094   5.405  33.355   3.185
 8479W        W80095   0.433  24.101  12.981
 8480W        W80096  20.727  29.666  13.836
 8481W        W80097  25.269  28.015  11.536
 8482W        W80098   3.706  26.307  13.901
 8483W        W80099   3.336  28.629  12.056
 8484W        W80100   5.498  30.394   3.174
 8485W        W80101   9.314  44.395   0.788
 8486W        W80102  30.150  30.074  12.326
 8487W        W80103  35.212  10.733   3.062
 8488W        W80104  30.392  16.071  14.305
 8489W        W80105   1.421   3.275   2.415
 8490W        W80106  31.928  21.176   0.772
 8491W        W80107  34.607  35.146   3.612
 8492W        W80108  20.714  37.967   0.952
 8493W        W80109   1.934  27.391   4.137
 8494W        W80110   8.932  37.777   1.807
 8495W        W80111  40.363   5.334   3.339
 8496W        W80112  12.774  12.172   0.826
 8497W        W80113  40.275  30.529   1.033
 8498W        W80114  32.457  29.773   5.147
 8499W        W80115   6.932  26.312   2.924
 8500W        W80116  36.940  32.175   2.753
 8501W        W80117   8.154   5.670  14.284
 8502W        W80118  18.851   9.188  12.138
 8503W        W80119   1.509  12.342  10.783
 8504W        W80120   9.718  30.631   4.559
 8505W        W80121  18.543  43.466  14.389
 8506W        W80122  25.024  33.067   2.754
 8507W        W80123  34.565   4.197  11.710
 8508W        W80124  19.823  21.395   1.388
 8509W        W80125  29.887   6.378  10.562
 8510W        W80126  19.748  33.818   1.391
 8511W        W80127  17.803  38.900  12.338
 8512W        W80128  28.080  26.231  12.992
 8513W        W80129  23.179  15.724   0.105
 8514W        W80130  22.097  21.278   1.231
 8515W        W80131   3.926   8.802   1.481
 8516W        W80132   1.861  32.156   2.223
 8517W        W80133  12.558  32.327   0.914
 8518W        W80134   1.901  38.033   1.967
 8519W        W80135  34.472  21.487  11.639
 8520W        W80136  10.397  29.054  12.560
 8521W        W80137  16.004  15.586   3.408
 8522W        W80138  13.082   7.827   1.818
 8523W        W80139  20.013  34.180   4.184
 8524W        W80140  31.582  42.083   0.876
 8525W        W80141  17.999  33.542   0.989
 8526W        W80142  41.268  14.296   1.369
 8527W        W80143  37.870   3.281   3.839
 8528W        W80144  31.609  35.027   0.491
 8529W        W80145  28.597  10.096   4.956
 8530W        W80146  19.643  27.385   3.767
 8531W        W80147  37.388   9.295   4.328
 8532W        W80148  32.380  35.901  14.326
 8533W        W80149  27.993  12.069  14.507
 8534W        W80150  36.141  26.656  14.464
 8535W        W80151  18.951  20.088   0.739
 8536W        W80152   5.448  37.806  12.380
 8537W        W80153  22.597  38.798  13.905
 8538W        W80154  35.494   6.414   0.174
 8539W        W80155   4.850  22.585   1.861
 8540W        W80156  11.077  30.350  14.940
 8541W        W80157  23.934  18.176  14.228
 8542W        W80158  15.233  16.895   3.678
 8543W        W80159  22.099  35.841  11.538
 8544W        W80160  18.712  37.181   3.318
 8545W        W80161  24.047  19.895  11.645
 8546W        W80162  38.124   8.922  14.189
 8547W        W80163  15.646  27.986   4.607
 8548W        W80164  44.715  43.431  12.029
 8549W        W80165  22.231  28.735   1.767
 8550W        W80166  24.130  12.457  11.179
 8551W        W80167  40.026  20.491   1.949
 8552W        W80168   5.164  43.068  12.639
 8553W        W80169  35.016   8.303   2.597
 8554W        W80170  22.694  21.103  10.927
 8555W        W80171  11.044  33.106   1.372
 8556W        W80172  15.254  37.995  10.484
 8557W        W80173  28.396   0.473   1.920
 8558W        W80174  44.951  16.724  11.246
 8559W        W80175   3.378  15.855   2.437
 8560W        W80176  22.478  29.200   0.949
 8561W        W80177  16.034  39.454   4.046
 8562W        W80178  13.467  28.881  11.618
 8563W        W80179  41.867  40.422   0.705
 8564W        W80180  42.738  43.409  10.255
 8565W        W80181  35.115  32.073   0.050
 8566W        W80182  41.223  36.791  14.803
 8567W        W80183  34.689  32.293   1.857
 8568W        W80184  19.727  26.570  11.233
 8569W        W80185  32.874   9.069  11.585
 8570W        W80186  26.197   7.833  14.792
 8571W        W80187   5.900  31.067   4.255
 8572W        W80188   9.610  22.099  12.514
 8573W        W80189  29.354   9.235  14.879
 8574W        W80190   8.221  36.798   4.155
 8575W        W80191  19.817  41.438   4.863
 8576W        W80192  23.083  24.287   0.277
 8577W        W80193  41.318  15.288  12.049
 8578W        W80194  23.966  24.989  13.030
 8579W        W80195   9.698   2.215   4.859
 8580W        W80196  13.734   7.313  14.025
 8581W        W80197  37.571  18.572  10.300
 8582W        W80198  23.661   7.772  10.792
 8583W        W80199  44.267   3.497   0.088
 8584W        W80200  36.584  12.516  13.427
 8585W        W80201  12.443  36.548  14.836
 8586W        W80202  17.618  32.677   3.684
 8587W        W80203  38.816  23.633  14.069
 8588W        W80204   3.509   4.505   0.755
 8589W        W80205   0.480  38.394   4.735
 8590W        W80206   8.052  42.741   5.016
 8591W        W80207  43.980   4.890  12.102
 8592W        W80208  29.508  10.076  13.555
 8593W        W80209  19.429  28.382   0.917
 8594W        W80210  21.626  35.964  11.647
 8595W        W80211   5.762  22.560   2.333
 8596W        W80212  14.705  10.899   1.305
 8597W        W80213  17.248  27.006   1.449
 8598W        W80214  34.927  11.869  14.932
 8599W        W80215  35.082  25.216   4.180
 8600W        W80216  44.373   4.282   4.617
 8601W        W80217  25.891  32.167  11.525
 8602W        W80218  37.400  24.237   1.206
 8603W        W80219  33.580  29.244  13.995
 8604W        W80220   3.778  37.995   2.657
 8605W        W80221  15.698  28.489   1.177
 8606W        W80222  25.926  36.127   3.887
 8607W        W80223  10.829  16.199  11.541
 8608W        W80224  24.562  22.666   0.347
 8609W        W80225  24.606  40.386  10.665
 8610W        W80226  28.781  14.302   0.420
 8611W        W80227   3.789  39.776  12.430
 8612W        W80228  18.533  39.399  14.945
 8613W        W80229  22.693  11.348  10.193
 8614W        W80230  29.399  29.184  12.380
 8615W        W80231  27.028  29.522  11.486
 8616W        W80232   0.473  10.852  11.659
 8617W        W80233  34.040   7.973   3.310
 8618W        W80234  34.926  32.315  13.740
 8619W        W80235  40.610  20.064   0.885
 8620W        W80236  10.809  34.663  12.123
 8621W        W80237  12.301  12.287   3.798
 8622W        W80238  17.627  11.867  11.745
 8623W        W80239   1.829  36.431   3.220
 8624W        W80240  18.628  14.107   1.396
 8625W        W80241   4.678  44.965  14.052
 8626W        W80242  31.578  42.853  10.597
 8627W        W80243  27.378  40.430   0.191
 8628W        W80244   0.423  36.650  11.999
 8629W        W80245  27.155  12.314   1.392
 8630W        W80246  15.606  15.563  14.565
 8631W        W80247   7.900  43.532   3.702
 8632W        W80248  30.619  21.359   1.088
 8633W        W80249  44.079   6.397  12.866
 8634W        W80250  38.753  30.322   3.720
 8635W        W80251  12.303  21.347  14.370
 8636W        W80252  25.141  21.553  14.437
 8637W        W80253  29.830  36.628   4.262
 8638W        W80254   2.966  27.433  12.560
 8639W        W80255  16.317  23.018   5.021
 8640W        W80256  10.668  27.773  14.314
 8641W        W80257  37.518  29.075   2.191
 8642W        W80258   9.136  16.197  11.999
 8643W        W80259  39.621  41.090  14.966
 8644W        W80260  36.670  21.525   3.260
 8645W        W80261   9.680  38.846   4.746
 8646W        W80262  41.849  31.890   0.290
 8647W        W80263  30.089   3.237   2.672
 8648W        W80264  31.532  28.684  12.999
 8649W        W80265  21.671   0.015   2.415
 8650W        W80266  29.184  23.526   0.347
 8651W        W80267  20.618  41.305  12.084
 8652W        W80268  16.124   7.219  12.910
 8653W        W80269  19.510  14.929   4.158
 8654W        W80270   5.841  24.660   3.406
 8655W        W80271  26.040  42.781   1.247
 8656W        W80272  17.608  25.991  13.426
 8657W        W80273  31.480  31.487   2.777
 8658W        W80274  32.570  43.941   1.931
 8659W        W80275  14.073  19.597   2.914
 8660W        W80276  36.903  38.986  13.773
 8661W        W80277   8.927  39.409  11.581
 8662W        W80278   2.767  18.654  11.122
 8663W        W80279   9.865  17.066   2.274
 8664W        W80280   6.991  32.201  12.428
 8665W        W80281  23.241  33.869   3.091
 8666W        W80282  39.650   4.748   4.642
 8667W        W80283  28.598  41.025  11.322
 8668W        W80284  43.305  25.066  11.133
 8669W        W80285  39.096  37.468  13.397
 8670W        W80286  42.010  17.240   0.375
 8671W        W80287  30.355  15.655  13.527
 8672W        W80288  37.849  39.403   3.823
 8673W        W80289  23.234  28.609   4.212
 8674W        W80290  27.672  26.056  10.718
 8675W        W80291  14.374  12.044  13.597
 8676W        W80292  21.105   8.610  13.863
 8677W        W80293  41.976  32.102   2.692
 8678W        W80294  20.245  33.337  13.741
 8679W        W80295  33.037  38.277  14.502
 8680W        W80296  36.482   3.674  14.721
 8681W        W80297  13.890  33.470   4.135
 8682W        W80298  25.025  29.469  13.487
 8683W        W80299  23.569  18.680  11.133
 8684W        W80300  36.782   9.432   0.836
 8685W        W80301  12.213   2.264  10.951
 8686W        W80302  35.051  19.681  14.500
 8687W        W80303  33.370  31.424  10.834
 8688W        W80304  10.390  25.189   0.021
 8689W        W80305  43.353  10.397   1.343
 8690W        W80306  20.137  14.612   3.153
 8691W        W80307  31.018  17.967  11.802
 8692W        W80308   8.444   9.929   1.866
 8693W        W80309  30.163  35.098   1.384
 8694W        W80310  33.410   5.587   1.274
 8695W        W80311  22.529  11.175   3.256
 8696W        W80312  18.550  18.547   3.158
 8697W        W80313   1.147  28.183  12.415
 8698W        W80314  44.694  40.457   2.811
 8699W        W80315   0.317   5.334   2.666
 8700W        W80316  44.397   8.266   1.752
 8701W        W80317  39.081   4.474  14.703
 8702W        W80318  41.292  44.253   1.344
 8703W        W80319  22.253  18.076   2.378
 8704W        W80320  21.846  22.766   3.705
 8705W        W80321   5.229  30.122   1.353
 8706W        W80322  36.400   1.264   0.976
 8707W        W80323   4.292  40.924   2.168
 8708W        W80324  15.821  14.663  14.351
 8709W        W80325  13.749  18.107  11.501
 8710W        W80326  34.825  14.123  12.516
 8711W        W80327  32.833  44.767  13.386
 8712W        W80328  10.153  27.943   2.670
 8713W        W80329  42.408  42.337   4.666
 8714W        W80330  34.814   2.448   1.925
 8715W        W80331  38.911   8.489  14.197
 8716W        W80332  13.421   6.157   2.234
 8717W        W80333   9.132  44.894   0.896
 8718W        W80334   5.125   7.937  12.552
 8719W        W80335  15.152  28.181   4.592
 8720W        W80336  35.453   6.762   2.507
 8721W        W80337  26.728   2.876  13.836
 8722W        W80338  41.112  29.908  12.479
 8723W        W80339   2.892   5.092  12.578
 8724W        W80340  29.966  44.877   0.825
 8725W        W80341  27.500  40.326  14.706
 8726W        W80342  43.392  18.667  14.510
 8727W        W80343  25.780  44.385  13.448
 8728W        W80344  43.767  33.534   3.200
 8729W        W80345   9.427   1.699   3.758
 8730W        W80346  17.610  20.916   2.312
 8731W        W80347  40.689  31.958   2.611
 8732W        W80348  21.449  27.410  14.770
 8733W        W80349   5.163  28.985  12.045
 8734W        W80350  34.417  30.988   4.864
 8735W        W80351  42.820  14.702  11.257
 8736W        W80352  20.077   2.540  11.530
 8737W        W80353  23.320   4.735  11.146
 8738W        W80354  19.900  38.544   0.779
 8739W        W80355  18.392  43.440  10.680
 8740W        W80356  16.333   6.763   1.595
 8741W        W80357  35.436  30.380   0.711
 8742W        W80358  21.696  31.211  13.074
 8743W        W80359  13.802  16.274   1.623
 8744W        W80360  32.426  10.447  14.973
 8745W        W80361   0.934  35.420  11.231
 8746W        W80362  25.602  19.070  12.119
 8747W        W80363  12.258  13.544  13.562
 8748W        W80364   4.682  17.187   1.544
 8749W        W80365  31.064   5.363   1.653
 8750W        W80366  28.555  11.269  10.704
 8751W        W80367  30.366   1.888  13.510
 8752W        W80368  44.050  23.781  12.823
 8753W        W80369  30.249  36.692  12.541
 8754W        W80370  21.352   3.967   2.651
 8755W        W80371  26.423  39.804  13.846
 8756W        W80372  12.893   8.239  13.513
 8757W        W80373   0.220  39.126   3.285
 8758W        W80374   8.731  38.452  13.470
 8759W        W80375  18.857   1.793  12.866
 8760W        W80376  19.777  34.347   1.209
 8761W        W80377   3.315  42.924  11.940
 8762W        W80378  36.342  37.092   3.634
 8763W        W80379  13.763  39.819  13.180
 8764W        W80380  29.608   7.135  12.520
 8765W        W80381  13.099   5.507  14.452
 8766W        W80382  19.047   6.374  13.417
 8767W        W80383  33.046   8.903  12.440
 8768W        W80384  20.989  23.503  11.923
 8769W        W80385  15.992  29.164  10.453
 8770W        W80386  11.232  15.219  11.771
 8771W        W80387  42.501  39.950  11.630
 8772W        W80388   3.729  11.821  14.762
 8773W        W80389  29.850  25.250  13.396
 8774W        W80390  20.983   4.458   4.615
 8775W        W80391  19.613  29.171   2.027
 8776W        W80392  16.353  32.992  14.047
 8777W        W80393  28.639  35.873   2.357
 8778W        W80394  17.605  34.489   1.909
 8779W        W80395  29.023  16.280  12.423
 8780W        W80396  44.021  20.069   4.212
 8781W        W80397  37.741  11.566   5.026
 8782W        W80398  44.299   9.685   0.495
 8783W        W80399  18.756  24.418   3.212
 8784W        W80400   9.336  22.115   4.561
 8785W        W80401   6.990  44.965  14.899
 8786W        W80402   1.940  31.329  10.836
 8787W        W80403  16.298  15.622   5.589
 8788W        W80404   5.886   3.217   2.730
 8789W        W80405  21.088  15.123  14.503
 8790W        W80406   0.530  43.993  14.955
 8791W        W80407  12.678  41.790   1.968
 8792W        W80408   2.893  38.455  12.809
 8793W        W80409  40.428  33.692   1.936
 8794W        W80410  30.383  17.324   3.757
 8795W        W80411  39.885  29.998  14.552
 8796W        W80412  34.617  10.706  12.839
 8797W        W80413   4.346  38.586  14.315
 8798W        W80414  31.057  10.727   4.270
 8799W        W80415  25.080   5.222  12.539
 8800W        W80416  24.716  32.204   2.775
 8801W        W80417  16.863  41.196  10.345
 8802W        W80418  38.909  35.622  14.012
 8803W        W80419  41.915  42.092   4.730
 8804W        W80420  13.267   9.017  14.877
 8805W        W80421  19.491  14.379  13.444
 8806W        W80422  21.311  40.261  14.339
 8807W        W80423  36.994  19.419   1.771
 8808W        W80424  40.237  29.365  14.905
 8809W        W80425  33.908  18.622   1.405
 8810W        W80426   2.017  33.007   0.975
 8811W        W80427  33.876  20.310  14.761
 8812W        W80428  12.931   0.789   0.305
 8813W        W80429  35.163  33.754  11.088
 8814W        W80430  35.993  30.164   2.664
 8815W        W80431  40.559  27.694   4.356
 8816W        W80432   6.844  16.766  12.580
 8817W        W80433  40.299  26.693   2.295
 8818W        W80434  37.367  19.973   1.952
 8819W        W80435  15.708  41.596   1.695
 8820W        W80436  37.920   3.477  13.417
 8821W        W80437  14.947  26.745   4.682
 8822W        W80438   2.447  43.784   2.395
 8823W        W80439  40.023  24.540  11.566
 8824W        W80440  10.348   7.423  14.093
 8825W        W80441  12.477  40.422  12.888
 8826W        W80442  17.844  44.493   4.552
 8827W        W80443  28.348  13.190  11.717
 8828W        W80444  20.466  36.807   3.149
 8829W        W80445  22.134   1.754   4.156
 8830W        W80446  13.243  42.149   0.902
 8831W        W80447  36.594  41.284   0.924
 8832W        W80448  17.875  25.983   3.734
 8833W        W80449  26.834  31.426   4.622
 8834W        W80450  16.636   9.340  11.190
 8835W        W80451  17.013  15.378  13.859
 8836W        W80452  15.340  23.336   3.801
 8837W        W80453  34.308  38.841   1.187
 8838W        W80454  37.986   4.890  10.725
 8839W        W80455   3.878   1.741   0.939
 8840W        W80456   7.263  14.202  14.450
 8841W        W80457  21.103  28.384   4.575
 8842W        W80458  37.261  42.850  10.217
 8843W        W80459   2.992  42.017  14.406
 8844W        W80460  25.997  35.961   0.763
 8845W        W80461  22.627  31.657  11.613
 8846W        W80462  10.221  24.906  10.106
 8847W        W80463  41.346  38.353   1.645
 8848W        W80464  44.633  34.495  12.048
 8849W        W80465   8.677  22.843   2.845
 8850W        W80466  42.228  43.300  12.951
 8851W        W80467  44.721   7.130  13.406
 8852W        W80468   4.902  13.529   4.225
 8853W        W80469  24.448  31.566   0.458
 8854W        W80470   0.812  27.590  13.452
 8855W        W80471  10.809   1.355  14.265
 8856W        W80472  21.540  19.719  13.904
 8857W        W80473  26.170   1.715   2.814
 8858W        W80474  29.697  25.455   4.946
 8859W        W80475  43.059  11.651  10.997
 8860W        W80476  30.581  22.901  12.499
 8861W        W80477   0.846  26.961  14.304
 8862W        W80478  17.925   4.184  13.350
 8863W        W80479   1.413  14.165   0.840
 8864W        W80480   7.793  24.571  13.077
 8865W        W80481  36.069  40.882  13.477
 8866W        W80482   8.693  16.035   4.648
 8867W        W80483   7.411  23.716  13.011
 8868W        W80484  25.680  44.953   4.011
 8869W        W80485   6.707  11.896  13.295
 8870W        W80486  43.515  28.118  10.616
 8871W        W80487  37.402   7.046  14.458
 8872W        W80488   4.034  28.570   1.888
 8873W        W80489  36.449   8.110  14.042
 8874W        W80490  20.870  19.647   1.720
 8875W        W80491  29.875   3.318   1.681
 8876W        W80492  20.470  38.065  11.488
 8877W        W80493  31.754  23.504  10.229
 8878W        W80494  14.201  12.413  11.941
 8879W        W80495  31.104   4.944  12.507
 8880W        W80496  15.552  28.031   1.422
 8881W        W80497   9.190  13.706  12.324
 8882W        W80498   5.800  26.732  12.980
 8883W        W80499  26.734  32.947   9.809
 8884W        W80500  11.210  31.275   2.627
 8885W        W80501   4.367   2.578  14.446
 8886W        W80502  36.384  14.291   2.807
 8887W        W80503  42.813  10.940  12.538
 8888W        W80504  41.013  18.556   4.730
 8889W        W80505  35.414  23.735  13.895
 8890W        W80506  29.026  34.358   2.117
 8891W        W80507  33.676  25.382  13.780
 8892W        W80508  19.147  30.110  10.681
 8893W        W80509  32.333  36.963   0.822
 8894W        W80510   0.539  27.368  13.046
 8895W        W80511  28.077   1.363   2.720
 8896W        W80512  43.516   0.651   1.284
 8897W        W80513  17.308  41.416   3.639
 8898W        W80514  40.630  37.103  10.656
 8899W        W80515  39.105   8.308   1.671
 8900W        W80516  41.405  21.276   4.031
 8901W        W80517  39.288   5.771   4.587
 8902W        W80518   3.379  23.144  13.833
 8903W        W80519  24.259   5.990  10.772
 8904W        W80520  21.039  40.567  11.055
 8905W        W80521   9.135  19.931  12.099
 8906W        W80522  11.388   8.843  12.288
 8907W        W80523   7.077   1.899   1.954
 8908W        W80524   4.696  38.936  10.660
 8909W        W80525  18.366  20.408   3.148
 8910W        W80526  39.031  36.034   4.663
 8911W        W80527  24.221  43.971   4.236
 8912W        W80528   4.949  31.989   3.702
 8913W        W80529  10.126  21.499  14.923
 8914W        W80530  16.865  43.589  10.748
 8915W        W80531  35.925   6.960  11.556
 8916W        W80532   0.101  30.572  14.084
 8917W        W80533  17.729   9.125   0.896
 8918W        W80534  11.609   8.156   3.170
 8919W        W80535  14.802  10.588   1.845
 8920W        W80536   3.827  39.239  11.129
 8921W        W80537  42.727  38.279   3.802
 8922W        W80538  26.793  19.083  14.974
 8923W        W80539  37.629  12.979  14.202
 8924W        W80540  23.919   0.613   2.614
 8925W        W80541  11.565  24.471  11.121
 8926W        W80542  16.541  16.536   2.449
 8927W        W80543  17.749   9.923   0.434
 8928W        W80544   6.429  22.256  13.558
 8929W        W80545  15.869  18.102   3.291
 8930W        W80546  11.235  14.884  10.649
 8931W        W80547   4.480  42.538   5.035
 8932W        W80548   0.149   2.834   1.920
 8933W        W80549  25.046   1.320  11.941
 8934W        W80550  26.264   3.434  14.759
 8935W        W80551  36.303  28.486   0.418
 8936W        W80552   2.001   5.847  12.682
 8937W        W80553  35.184   0.000  13.989
 8938W        W80554   2.673  24.027   1.126
 8939W        W80555  15.627  40.429   0.478
 8940W        W80556  14.746   4.996   3.341
 8941W        W80557  38.021  24.946   1.456
 8942W        W80558  38.395  33.087   3.117
 8943W        W80559  22.479  20.873   1.208
 8944W        W80560  12.885  24.514   3.170
 8945W        W80561   7.382  21.758   0.048
 8946W        W80562  42.905  25.788  10.340
 8947W        W80563  32.036  24.638   3.381
 8948W        W80564   6.760  20.691   2.826
 8949W        W80565  16.882  30.916   4.796
 8950W        W80566  25.032  34.439   0.269
 8951W        W80567  22.642   8.778   1.689
 8952W        W80568  28.600  40.836  12.837
 8953W        W80569  27.105  35.607   3.383
 8954W        W80570  10.761  22.268   4.870
 8955W        W80571  28.465  24.512  12.509
 8956W        W80572  34.036  42.257   0.995
 8957W        W80573   0.110  23.754  10.663
 8958W        W80574   3.729  18.092  10.611
 8959W        W80575  44.126  26.948  10.314
 8960W        W80576   0.492  15.158   3.297
 8961W        W80577  36.652  41.315  11.021
 8962W        W80578  30.694  34.982   4.562
 8963W        W80579  10.049  37.040   3.139
 8964W        W80580  11.336  43.982  11.551
 8965W        W80581   9.313   0.012   1.398
 8966W        W80582   9.325  27.838   4.048
 8967W        W80583  42.073  12.434  13.474
 8968W        W80584   1.509   5.356   4.552
 8969W        W80585  10.790  30.577  12.319
 8970W        W80586  13.324  44.527   1.864
 8971W        W80587  26.716  40.552   1.324
 8972W        W80588   8.193  36.936  11.571
 8973W        W80589  27.576   3.446  13.271
 8974W        W80590  23.998  19.777   4.692
 8975W        W80591  40.763  25.275   2.411
 8976W        W80592  26.001   9.821  13.393
 8977W        W80593   0.474   3.630   4.223
 8978W        W80594  28.129  18.572  10.858
 8979W        W80595   0.384  39.862   2.638
 8980W        W80596  27.109  38.989  10.458
 8981W        W80597  32.155   4.156  11.113
 8982W        W80598  29.446  17.454  13.013
 8983W        W80599   2.981  19.268   3.760
 8984W        W80600   3.826  34.016   3.873
 8985W        W80601   8.339  28.887  10.402
 8986W        W80602  14.301  16.322  10.249
 8987W        W80603  11.210  21.003   4.607
 8988W        W80604  15.538  28.941   0.261
 8989W        W80605  26.467   0.872  12.390
 8990W        W80606  40.043   6.258   3.065
 8991W        W80607   3.982  13.622   1.783
 8992W        W80608  35.669  32.520   4.434
 8993W        W80609  43.524  18.591  10.240
 8994W        W80610  18.120  11.909  12.057
 8995W        W80611   1.937  44.996   1.314
 8996W        W80612  16.507  41.585   2.791
 8997W        W80613   8.329  22.252  13.834
 8998W        W80614  39.797  39.006  12.226
 8999W        W80615   8.711  33.990  11.546
 9000W        W80616  25.292  40.026   0.847
 9001W        W80617  43.403  41.914  12.550
 9002W        W80618  24.078  42.537  14.782
 9003W        W80619  43.227  27.997   1.902
 9004W        W80620  20.087  42.018   3.225
 9005W        W80621  10.646  10.414   2.589
 9006W        W80622  17.478  25.727  14.295
 9007W        W80623  12.204  40.926   1.480
 9008W        W80624  30.342  11.095   3.580
 9009W        W80625  24.422  21.079   4.136
 9010W        W80626   3.876  16.183   4.396
 9011W        W80627  23.166  27.571   3.084
 9012W        W80628   5.466   6.012  13.375
 9013W        W80629  17.754  17.231  14.569
 9014W        W80630  13.727  31.012   0.864
 9015W        W80631  20.092  37.008  11.567
 9016W        W80632   7.960   5.046  12.040
 9017W        W80633  43.069  30.368  14.773
 9018W        W80634  24.104  29.740  12.922
 9019W        W80635  14.259   7.680  10.828
 9020W        W80636  20.094   7.498   9.704
 9021W        W80637  27.921   7.427   1.149
 9022W        W80638  39.521  41.480   1.772
 9023W        W80639  39.367  27.249  12.223
 9024W        W80640  39.823  26.047   0.007
 9025W        W80641  25.728   2.250   3.664
 9026W        W80642  38.945  44.691   0.751
 9027W        W80643  11.312   2.010   1.848
 9028W        W80644  18.974   1.705  12.038
 9029W        W80645  18.591  21.359   0.785
 9030W        W80646  32.034  28.182  12.397
 9031W        W80647  43.758  41.820   3.021
 9032W        W80648  15.349  32.083  13.315
 9033W        W80649  19.450   8.590   3.325
 9034W        W80650  11.363   0.374   0.753
 9035W        W80651  31.075  26.182  14.897
 9036W        W80652  20.918   7.170  12.060
 9037W        W80653   1.394  12.612   4.742
 9038W        W80654  28.233  25.191  13.840
 9039W        W80655  18.774   2.992   4.075
 9040W        W80656  36.407   4.235  10.644
 9041W        W80657  39.212  15.990  11.367
 9042W        W80658  43.101  24.729   4.208
 9043W        W80659  36.967   8.744   0.305
 9044W        W80660   0.953  20.055  11.177
 9045W        W80661   4.504  12.613   2.985
 9046W        W80662   7.201   8.854  13.532
 9047W        W80663   6.388   4.039  13.900
 9048W        W80664   8.694  30.136  10.663
 9049W        W80665  44.161  31.543   3.328
 9050W        W80666  20.705  19.821   4.654
 9051W        W80667  12.621  14.936   2.530
 9052W        W80668  40.496  28.720   0.445
 9053W        W80669  39.584  12.481  13.592
 9054W        W80670  44.258   9.839  13.873
 9055W        W80671  28.573  42.772  14.969
 9056W        W80672  11.911  44.358   3.037
 9057W        W80673  15.942   7.917  12.823
 9058W        W80674   5.283  25.481   0.767
 9059W        W80675   4.331  18.547   3.663
 9060W        W80676  24.491   2.120  11.070
 9061W        W80677  35.210  24.692  13.385
 9062W        W80678  13.743   1.654   0.932
 9063W        W80679  41.294  34.713   0.973
 9064W        W80680  35.467  11.853   3.876
 9065W        W80681  13.043  41.521  12.892
 9066W        W80682  30.510  40.516  12.046
 9067W        W80683  44.155  40.845   0.984
 9068W        W80684  38.455  17.314   4.509
 9069W        W80685  10.731  22.687  11.898
 9070W        W80686  32.166  25.640  13.939
 9071W        W80687   0.256  18.642  12.158
 9072W        W80688   6.503   4.273  14.365
 9073W        W80689  17.100   1.902   3.270
 9074W        W80690  32.342   2.013  10.700
 9075W        W80691  16.555  18.104   1.199
 9076W        W80692   2.235  15.554   4.212
 9077W        W80693  36.538  14.376   1.445
 9078W        W80694  11.537  36.885   2.270
 9079W        W80695  18.835  16.058  11.709
 9080W        W80696   1.466  13.327   2.898
 9081W        W80697   5.344  30.490   1.814
 9082W        W80698  19.006  27.135   0.665
 9083W        W80699  44.017   9.815   3.223
 9084W        W80700  22.593  23.991  14.011
 9085W        W80701  13.871  32.211  11.064
 9086W        W80702  30.622  18.507   1.198
 9087W        W80703  26.490  13.217   4.518
 9088W        W80704  35.398  29.473   0.579
 9089W        W80705  11.710   5.001  11.166
 9090W        W80706  34.898  15.804   0.936
 9091W        W80707  26.156  41.716  12.727
 9092W        W80708  36.996   0.103  12.176
 9093W        W80709  35.976  35.313   3.620
 9094W        W80710  31.889  12.604   3.438
 9095W        W80711   4.796  15.380   3.620
 9096W        W80712   2.747   6.839  14.661
 9097W        W80713  26.989   2.829  14.326
 9098W        W80714  19.087   8.554   2.718
 9099W        W80715  37.683  33.387  14.503
 9100W        W80716  12.965  44.205  13.403
 9101W        W80717  18.568  11.690  14.002
 9102W        W80718   7.702  18.711   0.970
 9103W        W80719   0.827  41.001  12.050
 9104W        W80720  32.461  20.821   2.017
 9105W        W80721   7.909  38.782   4.617
 9106W        W80722   7.375  44.606   2.288
 9107W        W80723  27.920  15.990   4.989
 9108W        W80724  25.651   6.671   1.785
 9109W        W80725  28.469  29.386   1.140
 9110W        W80726  40.691  31.613  14.275
 9111W        W80727  42.004  13.330   2.553
 9112W        W80728  34.747  30.442   1.836
 9113W        W80729  26.491  24.279  13.578
 9114W        W80730  22.537  26.138  10.584
 9115W        W80731  22.812  36.917   2.808
 9116W        W80732  18.762  27.663  13.942
 9117W        W80733  31.155  34.919  12.038
 9118W        W80734  21.697  28.535  12.896
 9119W        W80735  13.192   0.905  14.830
 9120W        W80736  17.192  37.713  13.039
 9121W        W80737  35.898  21.691  12.824
 9122W        W80738   8.611  14.810   1.873
 9123W        W80739  30.560  26.501   3.158
 9124W        W80740  18.538   0.060  13.433
 9125W        W80741  21.530  23.841   2.197
 9126W        W80742  13.824  42.229   3.257
 9127W        W80743  17.982  26.649   4.661
 9128W        W80744  11.780  29.664   2.385
 9129W        W80745  19.302   0.392   0.544
 9130W        W80746  26.232  15.014   0.801
 9131W        W80747  28.175  35.701   1.430
 9132W        W80748   4.340   0.023  13.628
 9133W        W80749  38.584  13.070   3.501
 9134W        W80750  42.373  34.598  13.334
 9135W        W80751  28.015  10.579   3.106
 9136W        W80752  29.887  25.120   3.617
 9137W        W80753  27.183   2.368  11.222
 9138W        W80754  16.087  26.631   2.789
 9139W        W80755  28.291   9.192  14.750
 9140W        W80756   2.243  22.969   3.185
 9141W        W80757   9.883  17.001  11.983
 9142W        W80758  26.333  35.999  13.042
 9143W        W80759   1.420   2.162  11.165
 9144W        W80760   3.375  41.693   0.313
 9145W        W80761  24.861   3.929   4.676
 9146W        W80762  15.283  36.169  11.706
 9147W        W80763  15.775  35.497   0.944
 9148W        W80764  17.475   8.460   2.234
 9149W        W80765  33.867  32.470  11.430
 9150W        W80766   8.799  23.943   4.590
 9151W        W80767  33.120   2.635  12.904
 9152W        W80768  42.778  28.532  12.391
 9153W        W80769  24.162   5.698   0.303
 9154W        W80770  12.449  25.105   1.296
 9155W        W80771  11.600   7.211  13.114
 9156W        W80772   9.184  19.897  12.622
 9157W        W80773  14.059  22.327  11.698
 9158W        W80774  19.212  37.972  14.969
 9159W        W80775  26.817   8.905   1.310
 9160W        W80776  34.980  36.544  13.878
 9161W        W80777  24.614  13.997   1.802
 9162W        W80778   6.047  29.268   5.101
 9163W        W80779  40.844  14.317  14.735
 9164W        W80780  42.143   5.728  12.825
 9165W        W80781   7.967   3.678   2.322
 9166W        W80782  38.924  30.037   0.765
 9167W        W80783   2.263  32.172  11.189
 9168W        W80784  42.627  33.091   4.134
 9169W        W80785  10.677   0.895   4.495
 9170W        W80786  27.696  44.796   4.139
 9171W        W80787   6.514  18.698   1.801
 9172W        W80788   4.746  29.932   1.398
 9173W        W80789  30.632  31.661  12.351
 9174W        W80790  13.067  16.742  14.426
 9175W        W80791  41.432  26.494  10.062
 9176W        W80792  33.488  11.950  13.147
 9177W        W80793  31.282  18.195   2.756
 9178W        W80794   7.078   3.349   3.600
 9179W        W80795  15.233   7.463   2.215
 9180W        W80796  38.288   3.670   3.370
 9181W        W80797  44.326  20.171  12.602
 9182W        W80798   5.891  24.652   4.707
 9183W        W80799  40.430  40.585   4.616
 9184W        W80800  17.022   8.144  10.592
 9185W        W80801  36.247  16.785   3.916
 9186W        W80802  25.160  15.761   4.785
 9187W        W80803  11.831  32.061  14.330
 9188W        W80804   5.166  39.351   3.929
 9189W        W80805   2.929  40.939   4.388
 9190W        W80806  40.338   0.603  12.071
 9191W        W80807   4.890  36.834  14.810
 9192W        W80808  36.836  28.807  14.390
 9193W        W80809  40.410  41.530  14.462
 9194W        W80810   1.052  35.437   4.986
 9195W        W80811  34.317  34.166  13.145
 9196W        W80812  14.266  23.338   2.414
 9197W        W80813  29.204  21.754   0.945
 9198W        W80814  33.709  11.190   2.282
 9199W        W80815  32.445   0.537   2.819
 9200W        W80816   1.775  28.659  12.648
 9201W        W80817  27.708  38.487  10.634
 9202W        W80818  13.174  40.091  13.045
 9203W        W80819  38.801  32.086   0.342
 9204W        W80820  38.176  25.209   4.740
 9205W        W80821  23.778  22.087   3.713
 9206W        W80822   0.883   7.218   2.929
 9207W        W80823   2.985   6.915  11.910
 9208W        W80824  10.673  11.214   2.161
 9209W        W80825  18.197  23.478   4.155
 9210W        W80826  24.176   0.137  14.827
 9211W        W80827  44.351  40.512  14.287
 9212W        W80828  35.337  14.550   3.326
 9213W        W80829  31.581  28.652  10.632
 9214W        W80830  33.384  10.733  14.241
 9215W        W80831   6.778  31.714  12.896
 9216W        W80832  25.499  30.660  10.354
 9217W        W80833  14.410  17.587  14.961
 9218W        W80834   9.711  39.054  10.561
 9219W        W80835  12.370  10.276  14.441
 9220W        W80836  36.568   1.195   2.785
 9221W        W80837  15.119  28.412  10.987
 9222W        W80838  32.410  18.316   1.285
 9223W        W80839  45.000   4.358   1.922
 9224W        W80840  22.938  34.986   2.883
 9225W        W80841  15.062  29.044   2.812
 9226W        W80842  29.555  38.858   1.372
 9227W        W80843   0.719   7.876  12.032
 9228W        W80844  16.220  10.377   1.977
 9229W        W80845  17.528  16.262  14.385
 9230W        W80846  29.017  39.163  11.601
 9231W        W80847  27.983  18.701  12.347
 9232W        W80848   9.833  41.494   2.631
 9233W        W80849  44.080   0.297  12.463
 9234W        W80850  37.355  24.108   0.210
 9235W        W80851  18.830  32.557  14.761
 9236W        W80852  30.700  25.016   3.165
 9237W        W80853  24.067   4.729   1.911
 9238W        W80854  43.747  39.982   4.225
 9239W        W80855  34.350   5.653   1.747
 9240W        W80856  37.548  11.326  14.266
 9241W        W80857   1.516  19.955   1.518
 9242W        W80858  29.039   3.269  13.851
 9243W        W80859  25.385  42.696  12.369
 9244W        W80860   9.199  29.960   0.511
 9245W        W80861  27.023  35.467  11.027
 9246W        W80862   3.602  43.852  11.567
 9247W        W80863  18.523  28.441   2.899
 9248W        W80864   5.222  40.506  13.109
 9249W        W80865  26.583  39.774   1.609
 9250W        W80866  32.165  18.699   4.064
 9251W        W80867  25.915   0.888  12.497
 9252W        W80868  38.915  31.901   2.689
 9253W        W80869  16.879   8.115  11.086
 9254W        W80870  27.065  43.770  13.345
 9255W        W80871  14.003  43.777   1.774
 9256W        W80872   1.808   1.953   3.650
 9257W        W80873   2.774  19.009  13.324
 9258W        W80874  25.554  17.130   1.903
 9259W        W80875   1.769   0.378  12.641
 9260W        W80876  44.010  33.681   2.331
 9261W        W80877   3.449  27.617  11.535
 9262W        W80878  25.163  19.322   0.677
 9263W        W80879   6.613  39.440  13.491
 9264W        W80880  13.281  38.409  13.869
 9265W        W80881  29.552  37.439   0.914
 9266W        W80882  10.407  34.613   3.799
 9267W        W80883  42.161  40.210  14.554
 9268W        W80884   0.776  15.366  12.893
 9269W        W80885   8.861   0.816  10.515
 9270W        W80886  38.833   3.836  13.326
 9271W        W80887  17.277  44.728   1.382
 9272W        W80888  12.173  35.642  13.761
 9273W        W80889  41.558  26.745   3.653
 9274W        W80890   8.837  22.505  10.773
 9275W        W80891   2.325  18.617   2.142
 9276W        W80892  33.190   9.738   4.934
 9277W        W80893   4.644  24.896  11.095
 9278W        W80894   4.438  28.651   1.306
 9279W        W80895  37.194  21.708   2.502
 9280W        W80896  14.815  15.329   4.214
 9281W        W80897  34.524  14.614  13.853
 9282W        W80898  10.775  36.303  13.103
 9283W        W80899   2.828  35.004  11.933
 9284W        W80900  15.697  30.023  12.888
 9285W        W80901  34.718  41.450  12.074
 9286W        W80902  33.576  19.053  11.669
 9287W        W80903  27.949  19.457   2.734
 9288W        W80904  32.542   1.755  14.419
 9289W        W80905  14.580  14.217   1.661
 9290W        W80906  13.131  29.546  14.070
 9291W        W80907  31.895  38.720  11.919
 9292W        W80908  34.763  35.964  10.275
 9293W        W80909  34.727  35.165   4.873
 9294W        W80910  39.977  25.733   2.245
 9295W        W80911  33.380   4.432  12.918
 9296W        W80912  30.539   3.834  10.796
 9297W        W80913  26.215  39.308  12.438
 9298W        W80914  25.483  39.885   1.449
 9299W        W80915  34.979  40.232   4.580
 9300W        W80916  27.943  20.364   4.813
 9301W        W80917  44.998  28.482   2.818
 9302W        W80918  32.787  15.518   3.152
 9303W        W80919  37.446  33.807   1.753
 9304W        W80920   7.154  42.534  12.472
 9305W        W80921  23.274   5.501   1.327
 9306W        W80922  37.808  17.734   4.155
 9307W        W80923  12.870  22.778   0.587
 9308W        W80924  25.223  28.906   4.265
 9309W        W80925  24.693   5.923   4.396
 9310W        W80926  17.630  12.680   0.813
 9311W        W80927  35.056  15.307  14.978
 9312W        W80928  21.218  17.835  10.521
 9313W        W80929  27.865  27.128  13.924
 9314W        W80930  16.179   8.226  12.033
 9315W        W80931  35.159   9.284   2.208
 9316W        W80932  25.275  28.975  12.583
 9317W        W80933  30.063  22.208  14.729
 9318W        W80934  11.706  29.125   4.558
 9319W        W80935  41.235   3.880   0.933
 9320W        W80936  22.804   3.815   1.102
 9321W        W80937  26.119  37.037   3.370
 9322W        W80938  11.763  44.776   0.767
 9323W        W80939  36.068  22.319   3.324
 9324W        W80940  13.977   9.263  12.313
 9325W        W80941  26.793  28.813   3.382
 9326W        W80942   3.891   5.895  14.256
 9327W        W80943  23.798  38.889   4.514
 9328W        W80944  30.638   4.304   0.729
 9329W        W80945  21.074   9.790  13.568
 9330W        W80946   9.485  21.432  11.863
 9331W        W80947   6.911   6.318   1.497
 9332W        W80948  39.568  23.237  13.915
 9333W        W80949  41.151  11.503   3.355
 9334W        W80950   3.208  10.143  12.067
 9335W        W80951  11.819   4.708   4.976
 9336W        W80952  10.984  31.065  12.337
 9337W        W80953  43.496   4.797   4.648
 9338W        W80954  41.244  40.943   1.451
 9339W        W80955  17.105  24.951  13.076
 9340W        W80956  10.374  14.540   2.696
 9341W        W80957  18.125  42.058   2.153
 9342W        W80958  27.536  14.280  12.006
 9343W        W80959  13.553   6.827   4.345
 9344W        W80960  22.512  28.233  12.419
 9345W        W80961  11.847  41.292   1.372
 9346W        W80962  14.614   4.527   0.006
 9347W        W80963  37.732  13.173  10.130
 9348W        W80964  27.657  38.297  13.896
 9349W        W80965  24.622  31.953   1.448
 9350W        W80966  36.453  32.853   1.036
 9351W        W80967  30.926  14.325   1.310
 9352W        W80968  16.815  23.686   4.660
 9353W        W80969  38.122  33.047   0.829
 9354W        W80970  42.773  32.539   1.447
 9355W        W80971  20.342  17.306  11.023
 9356W        W80972  40.807  33.183   0.016
 9357W        W80973   3.329  39.527  12.454
 9358W        W80974  30.076   4.143  12.940
 9359W        W80975  15.501  13.208   4.235
 9360W        W80976  32.437  11.557   2.742
 9361W        W80977  13.696  18.704   3.319
 9362W        W80978  19.384  14.185  11.658
 9363W        W80979  28.498  33.340  11.165
 9364W        W80980  31.252  25.226  11.142
 9365W        W80981  29.608  17.544  13.947
 9366W        W80982  11.863  38.833  14.199
 9367W        W80983  43.274  15.726   3.808
 9368W        W80984  34.185  18.725  12.042
 9369W        W80985   0.779  25.228  12.805
 9370W        W80986  13.169  36.516   2.565
 9371W        W80987  42.337  12.634  12.640
 9372W        W80988  10.121  12.738  10.661
 9373W        W80989   4.876  43.059   1.902
 9374W        W80990  17.665  27.492  11.383
 9375W        W80991  38.824  25.062   4.178
 9376W        W80992  32.891  32.441   4.597
 9377W        W80993  34.787  34.811   3.283
 9378W        W80994  27.544  22.260   2.889
 9379W        W80995  12.833  25.000   4.905
 9380W        W80996  39.770  26.103   2.772
 9381W        W80997  19.336  15.551   4.207
 9382W        W80998   7.146  33.979   4.690
 9383W        W80999  12.934  11.134  13.555
 9384W        W81000  40.451   6.957   4.203
 9385W        W81001  11.646  33.362  12.845
 9386W        W81002  28.508   6.897  13.463
 9387W        W81003  11.792  35.587  10.732
 9388W        W81004  19.265  26.450   0.720
 9389W        W81005  25.289  24.110   3.802
 9390W        W81006   5.897  10.155   4.369
 9391W        W81007  40.065  10.862   4.272
 9392W        W81008   9.695  17.641   4.824
 9393W        W81009   4.853  17.980   4.897
 9394W        W81010  43.554  23.217  12.082
 9395W        W81011  34.493  26.603  11.629
 9396W        W81012  18.040  34.494   2.213
 9397W        W81013  31.966   8.965  11.556
 9398W        W81014   7.813   8.377  13.296
 9399W        W81015  32.419  30.642   4.860
 9400W        W81016  43.728   7.544  14.410
 9401W        W81017  12.840   1.765   1.942
 9402W        W81018  40.710  28.428   2.790
 9403W        W81019   1.201   4.857  10.761
 9404W        W81020   7.676  15.007   2.769
 9405W        W81021  18.103  42.118  10.493
 9406W        W81022  20.275  10.700  11.564
 9407W        W81023   8.086  38.978   2.798
 9408W        W81024  18.143  18.974   0.715
 9409W        W81025  33.421   1.468  12.280
 9410W        W81026   4.438  15.642   0.266
 9411W        W81027  25.021  21.897  14.850
 9412W        W81028  38.068  28.230   1.405
 9413W        W81029   8.588  43.677  13.411
 9414W        W81030  44.790   0.468  10.192
 9415W        W81031  14.793   4.891  11.144
 9416W        W81032  34.928  10.751  14.433
 9417W        W81033  22.021   6.153   4.133
 9418W        W81034  39.821   8.440  13.486
 9419W        W81035  25.165   8.705   0.950
 9420W        W81036   2.234  15.592  14.237
 9421W        W81037  44.913  16.171  12.455
 9422W        W81038  39.926  18.840  13.514
 9423W        W81039  30.798  11.359  11.834
 9424W        W81040  30.662  25.025   4.149
 9425W        W81041  28.409  37.361   4.971
 9426W        W81042  22.574   7.784   0.020
 9427W        W81043  37.498  27.340   3.434
 9428W        W81044  12.730  18.626   2.718
 9429W        W81045  25.604  10.111   4.265
 9430W        W81046  29.649  26.496   0.717
 9431W        W81047  29.204  38.010  11.830
 9432W        W81048  12.140  17.222  12.439
 9433W        W81049  20.014  14.768   2.679
 9434W        W81050  38.255  38.551  11.472
 9435W        W81051  16.507  12.385  14.498
 9436W        W81052   4.988   4.473  10.546
 9437W        W81053  16.539  38.118  14.794
 9438W        W81054  20.228   0.420   1.863
 9439W        W81055  40.925  21.712  12.454
 9440W        W81056  24.631  12.909  12.658
 9441W        W81057  22.316  25.000   1.184
 9442W        W81058  25.016  14.821  13.498
 9443W        W81059  29.731   2.878  11.995
 9444W        W81060  33.472   4.433  11.523
 9445W        W81061   5.862  42.930   0.805
 9446W        W81062  30.901  12.730   3.592
 9447W        W81063  12.531  39.034   4.048
 9448W        W81064  28.341  38.333   0.306
 9449W        W81065  12.254  40.314  12.058
 9450W        W81066  14.446  44.767   2.744
 9451W        W81067  13.252   2.004  13.572
 9452W        W81068  29.564  10.856   2.807
 9453W        W81069   4.563  43.496   5.067
 9454W        W81070  27.134  41.306  12.818
 9455W        W81071   7.243  37.912  12.869
 9456W        W81072   0.735   8.304   2.012
 9457W        W81073  35.241  36.437   2.660
 9458W        W81074   6.884   6.072  14.810
 9459W        W81075  26.563  24.143   3.080
 9460W        W81076  40.076  39.820  11.035
 9461W        W81077  34.490  13.628  11.715
 9462W        W81078  20.100  34.336  12.510
 9463W        W81079   7.101  37.071  13.494
 9464W        W81080  44.191  21.385   1.767
 9465W        W81081  25.162   7.772   4.168
 9466W        W81082   6.365  25.799   0.188
 9467W        W81083  32.528  33.556   0.504
 9468W        W81084  15.176  10.247  14.073
 9469W        W81085  33.593   1.285   0.295
 9470W        W81086  12.586  13.115  12.899
 9471W        W81087  44.447   0.306  11.571
 9472W        W81088  11.331   5.273  14.898
 9473W        W81089  37.304  12.758   3.358
 9474W        W81090  41.403  14.870   4.882
 9475W        W81091  11.359  28.755  13.491
 9476W        W81092   8.356  32.821   1.937
 9477W        W81093  34.646  26.192   1.352
 9478W        W81094   6.495   4.754   3.136
 9479W        W81095  30.125   4.148   2.650
 9480W        W81096  43.287   5.146   1.201
 9481W        W81097  33.165  13.360  12.956
 9482W        W81098  23.190  11.666   2.279
 9483W        W81099  12.290  28.444   2.695
 9484W        W81100  15.283   5.375   5.076
 9485W        W81101  24.800  19.663   4.129
 9486W        W81102  30.009  31.544   4.593
 9487W        W81103   6.637  34.561   0.971
 9488W        W81104   0.469  16.351   2.808
 9489W        W81105  21.679  37.353   2.292
 9490W        W81106  24.792  22.490   2.297
 9491W        W81107  26.987  29.067  14.284
 9492W        W81108  27.496   5.803   4.055
 9493W        W81109  14.385  17.618  10.927
 9494W        W81110  24.240   2.843   1.169
 9495W        W81111  10.871  27.006  12.545
 9496W        W81112   9.647  20.523   0.979
 9497W        W81113  19.506  20.913  14.368
 9498W        W81114   7.590  24.928  11.119
 9499W        W81115  23.686  37.603  11.585
 9500W        W81116  31.540  15.545  10.516
 9501W        W81117  43.778  29.919  13.884
 9502W        W81118  21.192  22.080   2.949
 9503W        W81119  38.027   0.394   1.955
 9504W        W81120  25.807  33.743  11.036
 9505W        W81121   6.657  10.833  14.374
 9506W        W81122  19.048  41.429   0.433
 9507W        W81123  41.351  15.263   1.846
 9508W        W81124  13.128  33.917   0.614
 9509W        W81125  30.380   6.431   4.177
 9510W        W81126   8.192  29.562   1.420
 9511W        W81127  22.587  14.673   3.316
 9512W        W81128  20.446  38.093   2.225
 9513W        W81129  34.970  26.431   3.727
 9514W        W81130   3.213  17.390   4.148
 9515W        W81131  13.731   5.398  13.524
 9516W        W81132  19.420   4.051   2.655
 9517W        W81133  12.676   0.675   0.738
 9518W        W81134  10.613   4.128  11.237
 9519W        W81135  12.172   7.168  10.586
 9520W        W81136  22.159  28.399   2.663
 9521W        W81137  16.147  25.619  14.803
 9522W        W81138  16.234  12.201   3.305
 9523W        W81139  31.694  40.797   0.971
 9524W        W81140   0.739  37.459   2.033
 9525W        W81141  35.107  16.781  13.991
 9526W        W81142  40.796   7.343  12.191
 9527W        W81143  28.037  18.664  11.835
 9528W        W81144  19.011  17.417  10.537
 9529W        W81145  37.796  12.059  12.198
 9530W        W81146   7.374  13.462  11.894
 9531W        W81147   5.699  36.119   1.739
 9532W        W81148  18.589  43.891  14.717
 9533W        W81149   7.390  10.205   1.749
 9534W        W81150  25.528  27.422   0.819
 9535W        W81151  12.366  40.841   2.487
 9536W        W81152   2.955  10.430   1.323
 9537W        W81153  16.361  41.516   0.842
 9538W        W81154  18.152  29.044  10.645
 9539W        W81155  29.561  44.958   0.480
 9540W        W81156  42.793  28.373   3.789
 9541W        W81157  27.565  24.730  14.951
 9542W        W81158  17.827  40.940  14.203
 9543W        W81159   8.713  43.760  12.399
 9544W        W81160  10.771   1.214   2.694
 9545W        W81161   4.273   1.879   1.281
 9546W        W81162  28.454  44.982   2.126
 9547W        W81163  37.478  32.854  13.390
 9548W        W81164  33.731  29.909  11.592
 9549W        W81165  36.015  27.312  11.972
 9550W        W81166  41.865  23.444  11.404
 9551W        W81167  30.893  43.162   1.664
 9552W        W81168   2.532  28.551  14.370
 9553W        W81169  30.951   5.584  12.138
 9554W        W81170  40.540  35.115  12.511
 9555W        W81171  30.475  32.874   2.720
 9556W        W81172  25.895   1.762   3.671
 9557W        W81173  12.664  27.532  10.752
 9558W        W81174   7.129  41.398  13.736
 9559W        W81175  41.799  20.133   1.973
 9560W        W81176  12.806  17.230  13.789
 9561W        W81177  43.241   1.023  12.104
 9562W        W81178  18.742  27.982   0.403
 9563W        W81179   5.754   2.420   4.030
 9564W        W81180  15.184  30.081  12.564
 9565W        W81181  20.314  13.486  13.418
 9566W        W81182   8.954   5.420  14.867
 9567W        W81183   8.605  38.322  14.754
 9568W        W81184   6.919   5.631  13.492
 9569W        W81185  13.215   9.142   0.385
 9570W        W81186  15.569  44.275  14.785
 9571W        W81187   5.626  31.357  13.972
 9572W        W81188   3.016  40.340   2.182
 9573W        W81189   6.823  24.689  14.775
 9574W        W81190  28.473  24.648  13.012
 9575W        W81191  26.063  33.781  13.292
 9576W        W81192  15.663  11.463  11.574
 9577W        W81193  14.759  43.978  12.376
 9578W        W81194   9.426  17.141   3.670
 9579W        W81195  14.337  28.575  12.751
 9580W        W81196  30.090   1.673  12.943
 9581W        W81197  21.031  24.548  12.016
 9582W        W81198   3.632  13.111   0.714
 9583W        W81199   9.777   8.296  14.502
 9584W        W81200   8.643  32.463  11.360
 9585W        W81201   5.827  19.381   4.553
 9586W        W81202  23.695   6.430   2.349
 9587W        W81203   6.852  33.115   2.106
 9588W        W81204  13.159  26.539  12.541
 9589W        W81205  33.981  29.393   2.720
 9590W        W81206  22.720  23.259   2.266
 9591W        W81207  14.840  16.786  11.928
 9592W        W81208   4.463  18.008   2.701
 9593W        W81209  40.433  15.140  13.957
 9594W        W81210   3.912  39.483   2.739
 9595W        W81211  10.278  37.778   0.492
 9596W        W81212  10.623  11.306   3.069
 9597W        W81213  32.605  15.677   3.622
 9598W        W81214   6.749  42.250   3.267
 9599W        W81215  26.417  23.905  12.047
 9600W        W81216  12.385  18.667  14.911
 9601W        W81217  17.282  23.312  11.834
 9602W        W81218   6.477  11.277  12.011
 9603W        W81219   8.434   4.466  11.547
 9604W        W81220  30.074  23.700  12.387
 9605W        W81221  22.828  37.306   4.140
 9606W        W81222  17.671  42.417  13.033
 9607W        W81223  15.077  20.000   1.021
 9608W        W81224  14.845  28.576   4.435
 9609W        W81225  26.029  35.622  11.086
 9610W        W81226  44.443  35.517  12.131
 9611W        W81227  40.645  19.288   3.588
 9612W        W81228  10.325  31.500  11.532
 9613W        W81229  25.279  35.408  13.959
 9614W        W81230   7.987  30.177   0.739
 9615W        W81231  40.276  28.551   4.816
 9616W        W81232  28.438  38.288   1.756
 9617W        W81233  37.280   7.592   1.940
 9618W        W81234  32.019  25.223   4.334
 9619W        W81235   3.247   5.858   3.559
 9620W        W81236  38.784   4.883   3.138
 9621W        W81237  40.469  11.655  10.861
 9622W        W81238  32.823   5.030  12.513
 9623W        W81239   5.234  14.263   1.926
 9624W        W81240  11.363  31.096   0.328
 9625W        W81241   5.664  10.215   0.995
 9626W        W81242  30.121  42.876  12.875
 9627W        W81243  16.795  17.554   0.289
 9628W        W81244  21.045   5.365   5.033
 9629W        W81245   6.085  12.519  13.125
 9630W        W81246   0.722  42.543   2.794
 9631W        W81247  28.627  38.431  11.150
 9632W        W81248  17.664  24.402   4.625
 9633W        W81249  16.407  39.764  13.781
 9634W        W81250  18.680  28.445   3.941
 9635W        W81251  26.293  36.536  10.718
 9636W        W81252  10.801   7.335   0.741
 9637W        W81253  18.939   8.134  13.371
 9638W        W81254  16.041   8.931   4.644
 9639W        W81255   6.386   1.965  14.757
 9640W        W81256   9.116   4.645  14.309
 9641W        W81257   7.904   1.668  12.951
 9642W        W81258  17.239  20.618   0.488
 9643W        W81259  25.817  13.129  14.936
 9644W        W81260  17.791  14.335  14.061
 9645W        W81261  15.251   1.698   0.242
 9646W        W81262   0.268  12.180   1.000
 9647W        W81263   7.719  32.723  10.442
 9648W        W81264  16.755   9.167   4.324
 9649W        W81265   3.768  43.451   9.855
 9650W        W81266   7.856  16.567  12.414
 9651W        W81267  14.729  40.307   0.502
 9652W        W81268  10.755   5.946   2.636
 9653W        W81269  40.824  24.491   2.791
 9654W        W81270  24.273  30.177   4.163
 9655W        W81271  28.374  41.430  13.329
 9656W        W81272  15.279  32.322   0.909
 9657W        W81273  33.257   8.992   1.409
 9658W        W81274   9.947  37.605  12.385
 9659W        W81275  15.075  37.019   0.369
 9660W        W81276  22.500  16.187   2.755
 9661W        W81277  19.231  19.553   3.890
 9662W        W81278  21.326  42.281  10.779
 9663W        W81279   6.159  16.367   0.464
 9664W        W81280   6.473  34.618  14.803
 9665W        W81281  11.101   2.898   1.878
 9666W        W81282  24.713  38.796   1.364
 9667W        W81283  16.677  32.285   1.227
 9668W        W81284   6.997  28.411  11.406
 9669W        W81285   0.859  40.432   1.393
 9670W        W81286   3.523  21.547   4.766
 9671W        W81287  13.987   9.572   3.235
 9672W        W81288   5.849   8.664  14.456
 9673W        W81289  32.041  11.411   4.666
 9674W        W81290  36.184  24.539   1.112
 9675W        W81291  26.853  27.057   0.024
 9676W        W81292   2.223  42.560  11.518
 9677W        W81293  19.651  13.680   3.820
 9678W        W81294  37.904  23.931   3.641
 9679W        W81295  35.052   3.785  12.393
 9680W        W81296  20.580  27.176   4.187
 9681W        W81297  20.064   3.960  13.543
 9682W        W81298   9.562  21.952  11.698
 9683W        W81299  17.139  22.489  11.546
 9684W        W81300  11.204  36.070  12.879
 9685W        W81301  11.716   8.882   1.324
 9686W        W81302  23.657   5.353  14.023
 9687W        W81303  38.069  31.704  10.760
 9688W        W81304  28.368  19.032  11.017
 9689W        W81305  40.449  17.189  13.065
 9690W        W81306   1.803  26.483   0.191
 9691W        W81307  39.933  10.572   3.841
 9692W        W81308  39.893  20.168  10.706
 9693W        W81309  30.117  35.954   2.409
 9694W        W81310   6.863  19.624  12.796
 9695W        W81311   9.343  42.627  12.027
 9696W        W81312  32.919   8.536   3.211
 9697W        W81313  43.437  33.889   0.797
 9698W        W81314  41.924   3.675  11.092
 9699W        W81315  28.589  20.449   0.864
 9700W        W81316   3.887  25.541   2.096
 9701W        W81317   6.105  25.201  14.414
 9702W        W81318  39.498  36.406   2.232
 9703W        W81319   4.849  34.673  11.580
 9704W        W81320  43.441  25.233   4.054
 9705W        W81321  29.630   6.631   3.835
 9706W        W81322   4.482   2.439   2.225
 9707W        W81323   7.863  11.854  14.400
 9708W        W81324   7.181  41.729   2.807
 9709W        W81325  36.475  27.711  10.637
 9710W        W81326  22.968  29.619   1.783
 9711W        W81327  12.143  25.047  13.823
 9712W        W81328  14.654  21.980  12.355
 9713W        W81329   1.116  40.278   2.238
 9714W        W81330  27.650  12.444  10.684
 9715W        W81331  31.495   7.186  13.065
 9716W        W81332  24.049  15.130   2.345
 9717W        W81333   4.806   6.302   0.934
 9718W        W81334  33.477  20.504  11.583
 9719W        W81335  33.664   1.727   1.969
 9720W        W81336  20.982  17.625  14.583
 9721W        W81337  39.445  26.486  11.396
 9722W        W81338  25.783  22.163  12.974
 9723W        W81339  21.593  24.648   2.748
 9724W        W81340  26.143   5.982  14.430
 9725W        W81341   6.893  31.024  12.594
 9726W        W81342   4.940  21.388   0.914
 9727W        W81343  15.372  36.817  11.195
 9728W        W81344  22.250   6.642   3.287
 9729W        W81345  13.019  43.099  12.944
 9730W        W81346  40.971   2.746   1.952
 9731W        W81347  43.341  15.519   1.235
 9732W        W81348  36.059  19.020  11.618
 9733W        W81349   6.771  38.997   1.928
 9734W        W81350  21.326  27.233  13.762
 9735W        W81351  42.385  21.523  10.938
 9736W        W81352  27.330  40.461  12.413
 9737W        W81353   6.163  21.045  10.768
 9738W        W81354  42.433  14.278   0.991
 9739W        W81355  34.530  37.945   3.681
 9740W        W81356  30.197  39.883   4.420
 9741W        W81357  21.210  31.370  10.345
 9742W        W81358  30.150  28.740   3.614
 9743W        W81359  35.100  43.037  13.355
 9744W        W81360  15.451  28.055   0.416
 9745W        W81361  35.162  19.800  12.880
 9746W        W81362   5.527  30.491  12.417
 9747W        W81363  27.602  11.304  14.293
 9748W        W81364  17.379  31.942   2.298
 9749W        W81365  32.056  39.559  14.008
 9750W        W81366   9.314   3.683  13.120
 9751W        W81367  35.406  18.166  14.790
 9752W        W81368  39.774  31.373   4.089
 9753W        W81369  34.631   0.021   4.096
 9754W        W81370  13.791  20.686   2.213
 9755W        W81371  42.430  17.254  12.719
 9756W        W81372   5.636   9.317   1.156
 9757W        W81373  35.287  31.029  10.638
 9758W        W81374  33.419  24.646  11.095
 9759W        W81375  17.870  37.863   1.557
 9760W        W81376   1.342  44.476   2.227
 9761W        W81377   0.779  37.658   2.844
 9762W        W81378  41.931  15.483   3.703
 9763W        W81379  10.217   8.010   4.107
 9764W        W81380   7.949   2.183  13.720
 9765W        W81381  42.456  18.578  12.870
 9766W        W81382  17.099   4.694  13.035
 9767W        W81383  22.495  27.201   1.984
 9768W        W81384   1.965  43.732   3.799
 9769W        W81385  29.076  43.056  12.003
 9770W        W81386  13.056  37.165  14.495
 9771W        W81387  32.164  34.867   4.554
 9772W        W81388  27.691  39.794   2.916
 9773W        W81389  16.245   2.798   3.649
 9774W        W81390   1.888  20.911   0.217
 9775W        W81391   3.174   0.072  12.050
 9776W        W81392   5.376  14.030  11.270
 9777W        W81393  11.277  25.095   4.514
 9778W        W81394  37.995   8.646   4.506
 9779W        W81395  17.291  42.372  14.829
 9780W        W81396  24.458  41.428  14.389
 9781W        W81397  32.601  41.172  14.678
 9782W        W81398  16.257   0.588   3.644
 9783W        W81399  34.847   6.876  10.768
 9784W        W81400  20.216  21.946   4.830
 9785W        W81401  31.562  40.072   1.254
 9786W        W81402  15.124   3.792  14.485
 9787W        W81403  24.325  29.687   3.283
 9788W        W81404  19.998   2.446   0.220
 9789W        W81405  44.222  14.630   3.235
 9790W        W81406  29.108  24.278  14.115
 9791W        W81407  28.956  23.721   3.355
 9792W        W81408   2.028   6.713  10.806
 9793W        W81409  28.638   6.257  10.989
 9794W        W81410  39.305  10.616   3.091
 9795W        W81411   7.250  28.001   1.978
 9796W        W81412  38.402   8.355  10.995
 9797W        W81413  23.733  36.621   2.712
 9798W        W81414   9.653   8.688  11.147
 9799W        W81415   3.291  16.189   4.718
 9800W        W81416  15.617  36.568  14.321
 9801W        W81417  39.569  15.843  12.980
 9802W        W81418   9.169  44.839   3.613
 9803W        W81419  28.459  12.625   2.446
 9804W        W81420  17.684  19.709  10.535
 9805W        W81421   5.528   6.354   3.909
 9806W        W81422  18.126  25.852  13.071
 9807W        W81423   0.509   2.917  10.677
 9808W        W81424  32.089  21.501  14.811
 9809W        W81425   3.813  16.145  14.578
 9810W        W81426   2.353  36.133   2.274
 9811W        W81427  32.237  28.796   9.866
 9812W        W81428  33.327  25.802   1.935
 9813W        W81429  28.647  24.685  14.803
 9814W        W81430  25.431  12.588   2.990
 9815W        W81431   7.741  13.264  12.839
 9816W        W81432  37.805  30.001  11.185
 9817W        W81433  18.198  31.052   0.895
 9818W        W81434   3.276  39.303  13.794
 9819W        W81435  20.166   2.971  13.139
 9820W        W81436   8.898  30.430   4.213
 9821W        W81437   3.936  20.284  12.860
 9822W        W81438  28.589  39.309   1.132
 9823W        W81439  32.676   7.049   1.789
 9824W        W81440  44.254  27.048  13.728
 9825W        W81441  30.748   9.339  10.726
 9826W        W81442  32.784  33.396   3.851
 9827W        W81443  33.425   1.306   1.789
 9828W        W81444   2.955   1.831  12.392
 9829W        W81445  23.191  10.228  11.572
 9830W        W81446  20.651  31.592  13.797
 9831W        W81447  10.871   6.371  11.466
 9832W        W81448   2.980  20.797  13.891
 9833W        W81449  14.203  35.023   4.294
 9834W        W81450   6.252  19.179   2.705
 9835W        W81451  39.721  42.806  14.943
 9836W        W81452   7.504  17.147   2.129
 9837W        W81453   4.022  43.537  10.978
 9838W        W81454  36.146  34.592  13.966
 9839W        W81455  11.381  24.630  13.312
 9840W        W81456   5.859  26.403  11.636
 9841W        W81457   0.246  15.053  14.353
 9842W        W81458   4.451  24.578   5.117
 9843W        W81459  25.118   1.556   2.202
 9844W        W81460  29.663  26.748  11.671
 9845W        W81461   0.403  32.204   0.225
 9846W        W81462  28.407   7.818  12.901
 9847W        W81463   1.304  18.683  10.693
 9848W        W81464  26.741  21.916  10.760
 9849W        W81465  39.845  23.150   0.861
 9850W        W81466  35.366  13.556  13.943
 9851W        W81467  34.858  28.231   0.495
 9852W        W81468  44.847  35.825  13.962
 9853W        W81469  18.464   0.927   1.818
 9854W        W81470   8.517  37.357   1.241
 9855W        W81471  37.375  31.709  12.625
 9856W        W81472   1.195  29.004  13.511
 9857W        W81473  19.808  14.678  14.869
 9858W        W81474  39.124  30.720   1.872
 9859W        W81475  32.800  22.899   2.598
 9860W        W81476  18.133  27.365   2.209
 9861W        W81477  32.028   4.042  12.934
 9862W        W81478  25.907   5.788  14.858
 9863W        W81479   5.257  41.528  14.270
 9864W        W81480  10.809  25.502  10.994
 9865W        W81481  28.706  38.386   2.257
 9866W        W81482  11.642   1.065  14.940
 9867W        W81483  39.406  39.471  11.951
 9868W        W81484  36.285  43.603  10.632
 9869W        W81485  43.971  31.859   3.714
 9870W        W81486  19.760  44.250  12.169
 9871W        W81487   3.682  16.247   1.084
 9872W        W81488  27.523  33.265  11.328
 9873W        W81489  34.076  36.582   4.544
 9874W        W81490   0.953  13.525   3.777
 9875W        W81491  26.749  44.541  12.493
 9876W        W81492  10.150  27.053  14.159
 9877W        W81493  26.124  36.147  10.402
 9878W        W81494   1.237  33.477   0.259
 9879W        W81495   2.736   4.915   0.695
 9880W        W81496   6.266  32.663   3.807
 9881W        W81497  19.862  14.327  13.021
 9882W        W81498   4.969  22.552   2.737
 9883W        W81499  16.104  23.574  12.210
 9884W        W81500  22.218  39.237  11.277
 9885W        W81501   2.907  11.190  14.107
 9886W        W81502  17.764  41.963  12.187
 9887W        W81503   0.986  17.297   1.242
 9888W        W81504  20.445  22.705   1.670
 9889W        W81505  10.841  41.121   1.242
 9890W        W81506   6.921  35.978  14.889
 9891W        W81507  33.960  40.022   4.626
 9892W        W81508  43.922   6.066  11.578
 9893W        W81509   5.263  32.955  13.695
 9894W        W81510   8.894  37.308   3.836
 9895W        W81511  23.800  42.784   3.756
 9896W        W81512  36.686  30.920   0.889
 9897W        W81513  30.168   9.382   1.130
 9898W        W81514  34.599  36.492   3.626
 9899W        W81515  14.120  23.270   3.232
 9900W        W81516  39.490   4.348  12.990
 9901W        W81517  35.539  36.795  12.426
 9902W        W81518   1.026  26.591  13.367
 9903W        W81519  23.261  33.960  10.509
 9904W        W81520  41.830  44.867  10.667
 9905W        W81521  41.477  15.221   3.573
 9906W        W81522   4.275  38.165  12.907
 9907W        W81523  27.551   0.085   3.736
 9908W        W81524  30.089  40.577  14.028
 9909W        W81525  35.799  22.967   2.705
 9910W        W81526  40.985  10.775   4.393
 9911W        W81527  35.813  42.289   1.749
 9912W        W81528  32.575   3.559  13.600
 9913W        W81529  21.068   0.292  12.570
 9914W        W81530  41.430   8.254  14.366
 9915W        W81531  11.409  36.091  13.763
 9916W        W81532   8.596  44.046   1.839
 9917W        W81533  37.905  28.146  11.644
 9918W        W81534  26.149  11.390  13.398
 9919W        W81535   9.052  22.128   2.388
 9920W        W81536   8.888  16.517   4.016
 9921W        W81537  33.360  10.140  14.810
 9922W        W81538  11.293  33.470  12.364
 9923W        W81539  10.836   3.775  13.955
 9924W        W81540  40.786  21.657  13.352
 9925W        W81541  38.970  23.272   2.505
 9926W        W81542  42.571  29.908   1.846
 9927W        W81543  21.695   2.357   0.023
 9928W        W81544  11.770  29.903  14.240
 9929W        W81545  36.555   8.660  13.365
 9930W        W81546  32.260  31.962   1.867
 9931W        W81547  36.834  12.403   0.265
 9932W        W81548  39.852  24.507   1.721
 9933W        W81549   9.410  25.118  10.287
 9934W        W81550  28.246   0.582  12.407
 9935W        W81551  19.131  33.649   4.936
 9936W        W81552  16.355   0.363  11.219
 9937W        W81553   5.548  13.421   0.962
 9938W        W81554  29.033  16.303   0.443
 9939W        W81555  37.956   4.805   0.475
 9940W        W81556  24.787   0.295   2.530
 9941W        W81557  28.051  14.091  13.150
 9942W        W81558  16.476  21.589   3.844
 9943W        W81559  13.514   3.236   1.842
 9944W        W81560  40.291  43.570   3.873
 9945W        W81561  11.204  31.667  12.067
 9946W        W81562  27.530  17.281   3.537
 9947W        W81563   2.608  16.564  13.427
 9948W        W81564  19.920  39.989   1.799
 9949W        W81565  32.970  21.119   4.481
 9950W        W81566  16.521   9.282   2.294
 9951W        W81567  36.146  11.309   4.668
 9952W        W81568  19.476  43.422  11.601
 9953W        W81569  23.020  17.408   3.354
 9954W        W81570  31.804  17.492   3.116
 9955W        W81571  35.235  23.411   3.371
 9956W        W81572   7.671  18.102   0.219
 9957W        W81573  41.756  24.942  13.332
 9958W        W81574  41.340  39.818  13.446
 9959W        W81575   9.936   0.526  10.476
 9960W        W81576  35.892  30.935   0.222
 9961W        W81577   7.135  33.859   3.731
 9962W        W81578  19.057  22.231  11.948
 9963W        W81579  24.608  11.052   4.380
 9964W        W81580  36.891  34.084  12.915
 9965W        W81581  25.640  13.631  14.880
 9966W        W81582  35.520  21.625   4.390
 9967W        W81583  32.275  21.639  11.621
 9968W        W81584  41.570  44.371  12.851
 9969W        W81585  17.468  11.138   3.216
 9970W        W81586   3.750  36.081   3.713
 9971W        W81587  19.127  33.954  12.939
 9972W        W81588  32.558   6.463   3.779
 9973W        W81589  19.623  20.909   1.229
 9974W        W81590  13.137   3.195   3.206
 9975W        W81591  43.461  10.881   4.827
 9976W        W81592  22.971   2.702  13.585
 9977W        W81593  31.002   2.849   4.584
 9978W        W81594  28.983   2.735   3.725
 9979W        W81595  25.314  34.520   1.167
 9980W        W81596  36.232  11.438   2.385
 9981W        W81597  31.950  26.646   1.222
 9982W        W81598  40.530  23.080   2.661
 9983W        W81599  26.952  32.456   3.192
 9984W        W81600  35.049   6.429   4.109
 9985W        W81601  17.069  40.089  14.362
 9986W        W81602  24.026  27.039   2.777
 9987W        W81603  44.110  24.580   0.357
 9988W        W81604  39.082   9.770  12.597
 9989W        W81605  43.850  17.799  11.546
 9990W        W81606  22.749   1.290   2.412
 9991W        W81607  28.513   3.820  13.552
 9992W        W81608  21.195  14.602  14.578
 9993W        W81609  37.694  30.036   2.904
 9994W        W81610  22.057  20.239  10.583
 9995W        W81611  31.824   7.968   2.737
 9996W        W81612   3.899  26.202  11.484
 9997W        W81613   6.754  24.221   3.588
 9998W        W81614  20.110  35.857  10.721
 9999W        W81615  12.045  21.602   2.815
10000W        W81616  22.249  36.849  14.253
10001W        W81617  19.804  37.346  12.806
10002W        W81618   6.874  25.556   2.322
10003W        W81619  42.022  19.494  12.535
10004W        W81620   3.747   7.645  13.000
10005W        W81621  20.690  31.403   3.908
10006W        W81622  15.810  15.113   5.082
10007W        W81623  22.537  43.088  11.515
10008W        W81624  35.329  38.614   3.648
10009W        W81625  18.099  38.964   3.755
10010W        W81626   0.636  42.890  12.895
10011W        W81627  27.586   3.985   3.404
10012W        W81628  18.567  15.642   1.552
10013W        W81629  23.799  40.049  12.912
10014W        W81630  42.802  40.225  11.198
10015W        W81631  24.406  44.003   0.017
10016W        W81632  10.173   7.161  11.631
10017W        W81633   6.260  35.843  11.104
10018W        W81634  20.036  31.306   0.242
10019W        W81635  20.891   5.291  14.818
10020W        W81636  24.172  28.469   0.794
10021W        W81637   9.086  25.960   0.950
10022W        W81638  41.799  37.492  10.488
10023W        W81639  30.502  41.321  11.623
10024W        W81640   6.433  39.553  14.012
10025W        W81641   4.408  34.867   1.207
10026W        W81642  26.326  34.673  11.869
10027W        W81643  29.954  37.863   2.807
10028W        W81644  44.769  24.474  14.526
10029W        W81645  17.748  29.741   2.358
10030W        W81646  17.400  39.789  12.105
10031W        W81647   5.103  42.931  14.009
10032W        W81648  19.953  26.669   0.053
10033W        W81649  14.945  37.884   2.456
10034W        W81650   8.848  16.163   2.130
10035W        W81651  15.776  16.539   4.779
10036W        W81652  23.602  27.947   4.642
10037W        W81653  17.064   6.887  11.016
10038W        W81654  44.213   8.962   2.326
10039W        W81655  12.811  36.898   2.449
10040W        W81656   0.039  18.997  13.377
10041W        W81657  21.611  15.364  11.578
10042W        W81658  10.352  11.594   4.896
10043W        W81659  20.130  13.389  12.522
10044W        W81660  14.247  39.001   3.301
10045W        W81661  11.226   5.860   2.980
10046W        W81662  34.899  35.911   1.824
10047W        W81663  11.086  32.931  10.397
10048W        W81664   1.874  18.267   4.672
10049W        W81665  15.492  29.684   5.023
10050W        W81666   5.893  13.631   0.022
10051W        W81667   8.072  25.021   0.015
10052W        W81668  32.359  30.598   4.332
10053W        W81669   7.201  38.552  13.468
10054W        W81670  27.506  33.075   1.856
10055W        W81671  32.153   2.203  13.837
10056W        W81672  27.589  41.167  14.155
10057W        W81673  36.450  25.898   2.817
10058W        W81674  10.304   4.541  12.529
10059W        W81675  32.367  42.440   3.893
10060W        W81676  41.145   9.818  10.756
10061W        W81677   8.643   8.678   1.741
10062W        W81678   7.684  44.439  14.866
10063W        W81679  12.594   6.153   2.763
10064W        W81680  29.065  43.840   3.702
10065W        W81681  38.410  39.078  13.894
10066W        W81682   7.702  33.425   4.704
10067W        W81683  13.447   8.869   1.121
10068W        W81684  30.683  28.940   2.903
10069W        W81685  36.612  19.787   3.296
10070W        W81686  28.998  32.861   4.232
10071W        W81687   2.457   2.600   2.242
10072W        W81688   2.965  12.795   1.193
10073W        W81689  32.148  17.756   1.900
10074W        W81690  10.394   3.723  12.983
10075W        W81691  34.467  34.408  11.135
10076W        W81692  41.725  18.708  14.492
10077W        W81693  19.652  25.497   2.381
10078W        W81694  38.979  42.805  12.429
10079W        W81695  21.318  36.857   1.463
10080W        W81696  42.988  32.949  13.727
10081W        W81697  33.879  10.899   4.093
10082W        W81698  43.410  32.424   3.251
10083W        W81699  16.480  25.664   2.600
10084W        W81700  22.897  24.482   0.868
10085W        W81701  21.947  41.216  14.902
10086W        W81702  11.137   7.163  14.361
10087W        W81703  41.379  43.910  12.666
10088W        W81704   5.699  33.063  13.434
10089W        W81705   2.057  27.581  12.069
10090W        W81706  32.510  14.681   3.313
10091W        W81707   1.258   2.249   2.689
10092W        W81708  17.155  15.124   4.383
10093W        W81709  41.890  17.320   5.101
10094W        W81710  41.810  10.929  13.541
10095W        W81711  40.457  42.988  14.240
10096W        W81712  39.548  26.504  12.900
10097W        W81713  25.169  11.808   0.042
10098W        W81714  10.358  33.518  12.344
10099W        W81715  16.627  19.253  13.444
10100W        W81716  16.494   6.910  14.332
10101W        W81717   8.747  11.363  13.814
10102W        W81718   5.200  10.518  11.926
10103W        W81719   3.886   5.558  13.382
10104W        W81720   6.933  23.537   0.216
10105W        W81721  16.605  38.818  13.402
10106W        W81722  10.238   3.337   2.717
10107W        W81723   8.568  33.668   4.462
10108W        W81724  39.053  14.206   1.844
10109W        W81725  11.671  31.525   0.350
10110W        W81726  43.775   7.775   4.660
10111W        W81727  33.952  34.418  11.221
10112W        W81728  22.465  41.824   3.788
10113W        W81729  15.065  15.816  12.455
10114W        W81730  22.506  31.900   3.198
10115W        W81731  16.042  14.820  10.601
10116W        W81732  27.196   1.406   1.743
10117W        W81733  35.884  42.351  13.961
10118W        W81734  35.141   4.627   4.646
10119W        W81735  29.731  13.386   0.346
10120W        W81736  12.668  37.969  14.936
10121W        W81737  17.580  15.798   1.686
10122W        W81738  35.449  27.574   1.716
10123W        W81739  17.805  21.801   2.353
10124W        W81740  39.159  37.070   2.896
10125W        W81741  14.768  44.898  14.902
10126W        W81742  17.630   3.603   5.138
10127W        W81743  36.402  43.505  14.943
10128W        W81744  22.710  31.885   1.417
10129W        W81745  11.555  38.499   0.473
10130W        W81746  26.292  21.612   2.895
10131W        W81747  33.499   2.775  14.295
10132W        W81748   2.178   5.161  13.082
10133W        W81749   9.640  32.992  14.702
10134W        W81750  42.736  36.066   4.808
10135W        W81751  38.371  35.903  11.464
10136W        W81752   0.170   6.814  13.602
10137W        W81753  13.799  18.486   0.425
10138W        W81754   9.950  23.267  13.855
10139W        W81755   4.090   4.529  13.347
10140W        W81756  29.027  40.282   2.863
10141W        W81757   5.375  34.932   0.791
10142W        W81758   6.764  39.527  14.804
10143W        W81759  14.146  16.022  12.934
10144W        W81760  32.961  24.581   3.183
10145W        W81761  27.618   0.383  13.927
10146W        W81762  12.564  17.568   2.004
10147W        W81763  43.540  13.415  10.689
10148W        W81764   2.785  20.670  11.929
10149W        W81765   2.553   7.891   0.986
10150W        W81766  11.600   0.708  11.099
10151W        W81767  22.727  31.200   0.105
10152W        W81768  28.625  37.912   0.994
10153W        W81769  41.469   8.718   0.724
10154W        W81770  20.462  34.418  11.151
10155W        W81771   7.339  29.286   4.642
10156W        W81772  32.027   3.909  14.750
10157W        W81773  41.953  26.236  13.844
10158W        W81774  39.148   0.975  13.133
10159W        W81775  20.540  31.489   1.167
10160W        W81776  39.141  28.162  14.987
10161W        W81777  39.509  31.511  12.470
10162W        W81778  19.670  42.073  12.952
10163W        W81779  26.154   1.026   3.229
10164W        W81780  18.515  44.362   3.652
10165W        W81781  27.949  18.975   2.923
10166W        W81782  27.595  19.261  13.485
10167W        W81783  29.035  20.659   4.182
10168W        W81784   9.346  11.766   4.167
10169W        W81785  24.045  43.921  12.447
10170W        W81786  27.478  19.490   0.770
10171W        W81787  36.202  38.958   2.265
10172W        W81788  34.922  20.087   2.785
10173W        W81789  33.293  32.544   4.918
10174W        W81790  22.012   6.219  12.510
10175W        W81791  24.266   6.529  10.741
10176W        W81792  21.591  27.347   2.349
10177W        W81793   2.290   9.603   4.420
10178W        W81794   1.445   0.269   4.546
10179W        W81795   8.913   5.850   4.868
10180W        W81796  13.323  33.806   2.025
10181W        W81797  38.422  28.817   3.435
10182W        W81798  22.098   3.220  12.493
10183W        W81799  17.334   4.195   3.354
10184W        W81800  40.568   4.135  14.156
10185W        W81801  20.260  23.807  12.330
10186W        W81802  32.442  17.568  13.299
10187W        W81803  44.015   7.307   4.578
10188W        W81804  16.991   5.689  10.310
10189W        W81805  27.149  43.870   1.340
10190W        W81806  37.244   4.358   4.544
10191W        W81807  16.384  15.847  11.990
10192W        W81808  41.899  15.205   0.212
10193W        W81809   5.350   1.519   1.117
10194W        W81810   6.608   4.147  13.435
10195W        W81811  36.367  17.718   3.763
10196W        W81812  43.011  36.574  12.162
10197W        W81813   6.634  15.325  13.559
10198W        W81814  44.589  15.053  13.512
10199W        W81815  39.330  44.924  14.267
10200W        W81816   3.859  41.833  14.547
10201W        W81817  23.496  15.103   3.248
10202W        W81818  21.538   1.654  14.493
10203W        W81819  41.758  22.849   0.019
10204W        W81820  18.881  41.211  12.603
10205W        W81821  26.969   1.316   3.545
10206W        W81822  43.475  16.210   0.729
10207W        W81823  27.598  27.014  13.129
10208W        W81824  10.096  43.258   2.986
10209W        W81825  11.191   5.931  11.576
10210W        W81826   8.455  15.469  11.960
10211W        W81827  33.520   2.848  10.901
10212W        W81828   5.398  30.095  13.021
10213W        W81829  19.322   4.105   1.376
10214W        W81830   1.731  25.522  14.162
10215W        W81831  16.771  24.491   0.407
10216W        W81832   7.688  43.854  11.528
10217W        W81833  33.929  42.123  12.013
10218W        W81834   1.085  38.681   4.432
10219W        W81835  19.109  36.306   3.625
10220W        W81836  42.512  16.060   3.216
10221W        W81837  26.517  42.829  14.017
10222W        W81838  19.188   1.158   0.481
10223W        W81839   5.980  40.946   1.623
10224W        W81840  29.825  26.740  14.853
10225W        W81841  38.664   6.242   4.185
10226W        W81842  17.333  44.238  11.582
10227W        W81843  42.761  28.046  11.575
10228W        W81844   3.949   9.761  12.869
10229W        W81845  33.781   0.271   0.787
10230W        W81846  28.096  23.208   3.583
10231W        W81847  27.908  33.827   3.884
10232W        W81848  15.238  27.750   0.777
10233W        W81849  18.031   3.426   1.686
10234W        W81850  24.729  32.220   4.763
10235W        W81851  41.290  10.693   4.862
10236W        W81852  37.671   4.637  13.480
10237W        W81853  14.365  37.332   3.153
10238W        W81854  14.309   6.451   2.185
10239W        W81855  24.988  11.655  13.055
10240W        W81856  25.972  36.590   2.637
10241W        W81857  37.424  24.097   0.717
10242W        W81858  24.772  25.346  11.046
10243W        W81859   4.400  10.752  14.434
10244W        W81860  30.717  44.711  14.812
10245W        W81861  10.387   1.008  11.642
10246W        W81862   1.971  18.774  12.468
10247W        W81863  20.611  10.722  13.494
10248W        W81864  33.506  24.935   2.371
10249W        W81865  29.278  24.107  12.271
10250W        W81866  26.856  43.759   1.742
10251W        W81867  39.367   3.187  10.957
10252W        W81868   7.869   2.354   0.017
10253W        W81869  13.126   9.619   2.300
10254W        W81870  14.414  20.156  10.640
10255W        W81871  30.823  24.243  13.386
10256W        W81872  25.716  41.529  12.981
10257W        W81873  38.895  20.581  11.542
10258W        W81874  37.980  38.115  11.575
10259W        W81875  14.591   4.912   2.852
10260W        W81876  40.460  32.120   3.046
10261W        W81877  20.611  42.271   4.620
10262W        W81878  21.061  26.893  11.572
10263W        W81879  35.522  15.897  14.850
10264W        W81880  10.677  38.826  11.354
10265W        W81881   8.147  34.121  13.694
10266W        W81882  23.015  37.460   0.007
10267W        W81883   8.260  29.665  14.542
10268W        W81884   7.662  38.041   1.424
10269W        W81885  16.842  14.381  12.648
10270W        W81886  28.993  23.739   4.639
10271W        W81887  30.591  17.057   2.224
10272W        W81888  33.461  37.942  12.397
10273W        W81889  31.441  30.374  11.485
10274W        W81890  24.256   6.308  11.590
10275W        W81891  30.747   1.817  11.208
10276W        W81892  16.272  43.480  12.998
10277W        W81893  30.936  30.618  12.676
10278W        W81894  13.094  44.451  12.173
10279W        W81895  11.793   1.014   3.543
10280W        W81896  38.857  12.864   4.920
10281W        W81897  43.390   7.758   3.416
10282W        W81898   9.111  33.343  11.087
10283W        W81899  22.777   6.318   4.605
10284W        W81900  24.978  41.364  11.196
10285W        W81901  22.269  36.296   3.691
10286W        W81902   5.312  43.896  11.974
10287W        W81903  19.804  42.031  11.554
10288W        W81904  13.301   0.056  10.885
10289W        W81905  37.251  31.290  11.883
10290W        W81906  32.536  16.729   0.660
10291W        W81907  44.955  39.474   1.388
10292W        W81908  13.040  42.949  14.280
10293W        W81909  40.539  27.147   1.620
10294W        W81910  13.237  28.680   0.826
10295W        W81911  22.952  21.763   0.926
10296W        W81912  11.384  23.761   0.804
10297W        W81913  18.182  33.661  14.949
10298W        W81914  33.308  15.359  13.516
10299W        W81915  40.840   5.897   4.578
10300W        W81916  19.292  26.530   4.579
10301W        W81917   1.947  42.252   0.740
10302W        W81918  38.559   2.922  12.858
10303W        W81919   8.767   2.304   5.068
10304W        W81920   1.840  40.979   0.040
10305W        W81921  19.929  37.008  13.369
10306W        W81922  14.833   8.280  11.165
10307W        W81923  18.844  24.346   2.221
10308W        W81924   9.172   8.160   1.813
10309W        W81925   7.283  13.148  10.743
10310W        W81926  22.090  31.631  14.266
10311W        W81927  21.893  17.569  13.317
10312W        W81928   1.740  12.579  13.334
10313W        W81929  20.260   9.660  14.639
10314W        W81930  18.236  26.340  12.928
10315W        W81931  21.571   0.301  12.278
10316W        W81932  44.243  11.183  11.524
10317W        W81933  40.025   7.631   4.712
10318W        W81934  22.107  19.096   2.815
10319W        W81935  31.905   1.693   0.080
10320W        W81936  26.151   0.393   1.446
10321W        W81937  39.885   7.913  11.988
10322W        W81938  20.178  24.305  10.505
10323W        W81939  40.927  36.186   4.028
10324W        W81940  11.854  43.080   9.815
10325W        W81941  33.927  15.695   1.833
10326W        W81942   0.379   0.903   2.655
10327W        W81943  21.121   9.838  14.446
10328W        W81944  34.147   4.393  14.334
10329W        W81945  28.938  19.867  13.439
10330W        W81946  41.383  22.655  13.745
10331W        W81947   2.298   7.677  11.936
10332W        W81948  43.722  36.963   2.508
10333W        W81949  35.662  14.746   1.041
10334W        W81950  17.027  23.664  12.111
10335W        W81951  27.048  13.369  11.032
10336W        W81952  37.414   6.930  13.057
10337W        W81953  44.803  22.981   1.158
10338W        W81954   5.697  17.562  10.362
10339W        W81955   8.890  32.160  14.464
10340W        W81956   1.772  26.729  11.125
10341W        W81957  44.408  12.364  12.099
10342W        W81958  10.388  43.829   4.195
10343W        W81959  43.404  38.152  10.593
10344W        W81960  30.518  30.527  14.485
10345W        W81961  18.814  44.888  14.527
10346W        W81962   8.857  13.825   2.803
10347W        W81963  21.213   3.238  11.399
10348W        W81964  25.989  38.234  10.590
10349W        W81965  17.155  14.262   1.234
10350W        W81966  42.580  32.556   4.615
10351W        W81967  22.385   1.442  14.067
10352W        W81968  19.678  10.615   0.819
10353W        W81969  28.107  21.553  12.087
10354W        W81970  36.835  12.828   3.112
10355W        W81971   6.873  20.116   3.345
10356W        W81972  37.921  34.656  12.415
10357W        W81973  31.617   9.276  10.710
10358W        W81974  11.227  24.094   0.402
10359W        W81975  30.450  33.128   0.560
10360W        W81976   6.419   5.359   2.477
10361W        W81977  32.094  43.532   3.690
10362W        W81978   4.032   7.382  14.658
10363W        W81979  43.444  32.166  10.302
10364W        W81980   5.712   2.785   1.864
10365W        W81981  13.039  32.110   4.317
10366W        W81982   5.563  37.797  11.881
10367W        W81983  37.976  25.707  12.613
10368W        W81984  43.228  15.098   2.681
10369W        W81985  34.962  31.531   1.358
10370W        W81986   2.804  16.404  13.931
10371W        W81987  35.466  40.237   0.342
10372W        W81988  15.858   0.132  13.791
10373W        W81989  27.192  20.781  13.784
10374W        W81990  18.696   2.371   1.866
10375W        W81991  39.068   7.460   2.322
10376W        W81992  25.158  26.991   2.691
10377W        W81993  36.929  44.099  12.429
10378W        W81994  16.137   4.473   5.089
10379W        W81995  16.741  20.747  11.165
10380W        W81996   4.030  11.327  10.405
10381W        W81997  31.499  37.914   0.203
10382W        W81998   7.206  12.593  11.436
10383W        W81999  39.496  20.128  11.534
10384W        W82000  27.436  33.951  14.935
10385W        W82001   8.448  13.653   1.987
10386W        W82002  43.338  41.861   1.857
10387W        W82003  24.672  39.562  13.455
10388W        W82004   5.940  42.855  12.938
10389W        W82005  12.310  14.854   4.140
10390W        W82006  28.150  27.466  14.716
10391W        W82007  28.987  12.697  12.062
10392W        W82008  12.356  19.231   1.738
10393W        W82009  21.682  17.203   1.282
10394W        W82010   4.229  13.729  13.876
10395W        W82011  30.006  39.276   1.775
10396W        W82012  22.599  31.524  14.278
10397W        W82013  27.950  11.307   4.075
10398W        W82014  17.241   7.182  14.871
10399W        W82015  44.878  29.115   1.303
10400W        W82016  17.637   1.979  11.097
10401W        W82017  34.201  35.878   2.239
10402W        W82018  33.612  39.008  12.470
10403W        W82019   7.192   5.720  10.661
10404W        W82020  30.663  31.724  11.429
10405W        W82021   4.485  30.793  14.553
10406W        W82022  11.143  44.284   2.726
10407W        W82023  34.119  15.916   2.256
10408W        W82024   8.331   0.479  13.949
10409W        W82025  21.955  19.045   2.307
10410W        W82026  36.977  31.676   2.899
10411W        W82027  38.576  41.248   0.881
10412W        W82028  11.203  38.067  14.085
10413W        W82029   9.595   5.945  14.499
10414W        W82030  44.563  24.788   1.269
10415W        W82031  23.513  10.695  11.173
10416W        W82032  20.069  23.905   3.128
10417W        W82033  40.777   1.396  11.329
10418W        W82034  20.279  15.352   1.871
10419W        W82035  10.698  10.818   4.863
10420W        W82036  30.403  19.049  13.588
10421W        W82037  38.867  21.274  13.359
10422W        W82038  17.954   1.047   2.846
10423W        W82039  12.848   9.839  10.736
10424W        W82040  13.289  25.306   5.085
10425W        W82041  28.535  23.550  13.342
10426W        W82042  35.047  32.383   3.783
10427W        W82043  21.998  23.711   1.381
10428W        W82044  16.144  36.876   4.520
10429W        W82045  31.654  12.666  13.684
10430W        W82046  18.856   3.624   3.377
10431W        W82047  14.280  20.535  12.879
10432W        W82048  28.566  38.943   3.409
10433W        W82049  43.220  31.139  11.136
10434W        W82050   3.278   2.731  14.129
10435W        W82051  20.505  40.641   1.261
10436W        W82052  40.915  40.431   0.889
10437W        W82053  28.591  12.127   4.719
10438W        W82054  28.218  17.841  12.473
10439W        W82055  25.644  11.816  14.735
10440W        W82056  44.964  18.230   2.365
10441W        W82057  25.727  26.758   3.642
10442W        W82058   2.774  36.634  11.294
10443W        W82059  24.576   8.312  13.894
10444W        W82060  22.684  23.634   3.763
10445W        W82061  33.083   2.714   2.206
10446W        W82062  38.516   1.194   3.229
10447W        W82063   6.367  24.422  12.412
10448W        W82064   3.053  32.400  13.178
10449W        W82065  42.023   9.465  12.261
10450W        W82066   4.657   3.887  13.523
10451W        W82067  19.558  34.164   0.771
10452W        W82068  31.144  20.998  14.025
10453W        W82069  16.640  13.596   4.239
10454W        W82070  25.774   2.392   2.091
10455W        W82071   6.664  38.697  12.010
10456W        W82072   5.158  43.544  12.866
10457W        W82073   5.386  11.225   3.679
10458W        W82074   7.678  24.051   4.037
10459W        W82075  20.748   2.543  14.717
10460W        W82076   8.909  28.151   4.187
10461W        W82077   9.642  37.471  11.883
10462W        W82078  32.048  14.593   1.708
10463W        W82079  28.678  11.256   4.760
10464W        W82080  43.274  11.718  10.060
10465W        W82081  24.005  25.033   0.394
10466W        W82082  28.963  32.984  14.678
10467W        W82083  29.777  14.665  11.096
10468W        W82084  13.633  27.318   2.716
10469W        W82085   7.610  30.150  14.022
10470W        W82086   3.672   9.556  11.556
10471W        W82087  42.804  41.595  10.926
10472W        W82088  39.988   5.116   4.464
10473W        W82089  35.345  36.893   0.931
10474W        W82090  38.993  24.062   0.874
10475W        W82091  44.622  26.651  11.188
10476W        W82092  24.552  11.268   3.888
10477W        W82093  24.104  29.505  12.067
10478W        W82094  24.555  43.947  13.992
10479W        W82095   4.919  13.849   1.824
10480W        W82096  26.649  35.854   2.903
10481W        W82097   2.921  30.567  12.834
10482W        W82098  33.381  15.038  10.756
10483W        W82099  39.988  28.604  11.160
10484W        W82100  13.146  14.028  13.472
10485W        W82101  15.514  41.509   0.361
10486W        W82102  15.834  40.012   2.270
10487W        W82103  41.528  15.283  11.572
10488W        W82104  16.850  44.368  14.438
10489W        W82105  24.144  11.328  14.532
10490W        W82106  14.351  31.641   5.055
10491W        W82107  40.020  43.438  10.294
10492W        W82108  41.642   4.756   4.675
10493W        W82109   6.276  43.851   1.602
10494W        W82110   0.355  32.682  14.975
10495W        W82111  40.562   9.180  11.249
10496W        W82112  18.199  10.896  14.849
10497W        W82113   9.890  14.329   2.735
10498W        W82114   8.839   6.256  13.530
10499W        W82115  27.378   7.282   3.475
10500W        W82116  32.870  29.148   3.820
10501W        W82117  17.271  17.825  13.866
10502W        W82118  16.625  27.994   2.881
10503W        W82119  21.098  21.628   2.738
10504W        W82120  35.000  33.810  13.794
10505W        W82121  13.692  37.333  12.342
10506W        W82122  43.253  26.051  13.018
10507W        W82123  31.645  32.954   3.282
10508W        W82124   7.217   3.794   0.171
10509W        W82125  29.306   4.740  14.960
10510W        W82126  17.868  39.553   1.345
10511W        W82127  30.206  16.742   0.458
10512W        W82128  12.640  26.615   0.680
10513W        W82129  10.195  21.077   2.299
10514W        W82130  37.796  12.117  12.768
10515W        W82131   7.752  32.393  11.407
10516W        W82132  21.166  14.145   0.036
10517W        W82133   2.416  31.832   2.235
10518W        W82134  18.764   2.219   3.433
10519W        W82135  19.409   2.681  13.889
10520W        W82136  28.822  19.704   0.452
10521W        W82137   6.688  42.812  12.527
10522W        W82138   3.006  25.189   9.748
10523W        W82139  40.974   8.515  14.493
10524W        W82140  22.475  25.510  14.316
10525W        W82141  41.283  33.675   1.532
10526W        W82142  16.230  34.154   0.362
10527W        W82143  37.286  20.639  14.398
10528W        W82144  11.247  41.431  13.924
10529W        W82145  21.537  33.442   3.616
10530W        W82146  15.308  44.332   1.697
10531W        W82147  30.536  18.503  13.971
10532W        W82148  24.036  35.183  12.714
10533W        W82149  25.950  43.752   2.295
10534W        W82150  12.745  22.472  14.758
10535W        W82151  36.049  36.854   2.434
10536W        W82152  19.511  39.517   4.758
10537W        W82153  43.787  42.384   2.438
10538W        W82154  39.672  42.422   2.346
10539W        W82155   3.446  36.065  11.048
10540W        W82156  11.595  24.031   2.500
10541W        W82157   6.656  37.205   0.834
10542W        W82158  39.673  43.793  13.488
10543W        W82159  41.631   8.254   0.873
10544W        W82160  28.494  44.374  12.893
10545W        W82161   8.304  25.185   4.957
10546W        W82162  31.562  31.383  10.656
10547W        W82163  43.353  21.328   1.421
10548W        W82164  13.276  30.472   3.266
10549W        W82165  21.537  36.839   3.149
10550W        W82166   6.398  22.133  11.034
10551W        W82167  23.193   6.764  14.949
10552W        W82168  21.286  16.670  12.621
10553W        W82169  35.411   2.819   1.979
10554W        W82170  26.462  18.607  12.534
10555W        W82171   8.799  25.692  14.920
10556W        W82172  30.115   1.000   0.058
10557W        W82173  11.624  15.871  12.434
10558W        W82174   1.989  38.453   0.822
10559W        W82175  37.888   2.810  13.414
10560W        W82176  31.188  13.803  11.100
10561W        W82177  24.037  31.815   0.783
10562W        W82178  14.211  17.792  12.912
10563W        W82179  22.188  20.866  12.079
10564W        W82180   8.722  29.017  11.681
10565W        W82181  11.732  29.500  11.557
10566W        W82182  32.161  18.243  13.065
10567W        W82183   0.354  21.307   4.890
10568W        W82184  13.792  36.684   0.970
10569W        W82185  18.471   2.871   2.306
10570W        W82186  32.264  13.593  11.107
10571W        W82187  15.362  27.689  11.460
10572W        W82188  43.729  11.803   0.237
10573W        W82189   7.387  23.933  14.951
10574W        W82190   3.935  36.142  10.706
10575W        W82191  29.371  19.127  10.725
10576W        W82192  33.927  26.495   4.534
10577W        W82193  31.141  32.391  12.480
10578W        W82194  34.187   4.604   4.483
10579W        W82195  16.421   0.525  12.574
10580W        W82196  40.628  39.870  10.346
10581W        W82197  11.795  38.795   2.247
10582W        W82198  43.936  13.837   1.140
10583W        W82199  40.361  10.341  14.900
10584W        W82200   1.346   2.935   4.326
10585W        W82201  35.322  12.438  12.946
10586W        W82202   6.686   6.771   4.553
10587W        W82203  24.874  25.562  13.107
10588W        W82204  42.701  10.359   1.490
10589W        W82205  27.920  43.813   3.835
10590W        W82206  16.236  30.244   2.283
10591W        W82207  29.572  20.956   2.225
10592W        W82208   8.294   1.566  11.525
10593W        W82209   0.851  44.961  12.377
10594W        W82210   9.549  28.946   2.191
10595W        W82211  36.918  35.360  11.653
10596W        W82212   4.407  44.189   4.149
10597W        W82213  23.982  16.382   4.080
10598W        W82214  14.728  14.590   2.031
10599W        W82215  31.543  14.867   3.286
10600W        W82216  41.311   4.767  14.964
10601W        W82217  38.897  12.596  11.450
10602W        W82218  20.022  30.261  10.357
10603W        W82219  24.031   1.730   3.812
10604W        W82220  22.233  23.230   1.382
10605W        W82221  32.951  39.753  11.478
10606W        W82222  32.563  30.653  13.958
10607W        W82223   2.694  20.613  13.414
10608W        W82224  21.778   7.637   1.733
10609W        W82225  34.079   3.494  14.051
10610W        W82226  37.963  36.254   1.873
10611W        W82227  33.761   7.508  12.854
10612W        W82228  14.701  15.593   1.657
10613W        W82229  28.826  32.085  11.465
10614W        W82230  40.542  42.390   4.755
10615W        W82231  26.922  14.828   1.995
10616W        W82232  19.855   0.280  13.531
10617W        W82233  37.570  44.218  12.908
10618W        W82234  40.479  38.967   3.439
10619W        W82235  19.012  34.458  11.598
10620W        W82236  23.189   5.244   3.354
10621W        W82237  17.697  14.116   2.120
10622W        W82238  29.809   3.761  13.819
10623W        W82239   2.225  10.261  10.060
10624W        W82240  20.611  20.066  14.428
10625W        W82241  30.071  26.060  10.733
10626W        W82242  30.572  41.580  12.079
10627W        W82243  42.318  37.767   0.717
10628W        W82244  14.278  35.273  11.633
10629W        W82245  20.556  15.677  10.523
10630W        W82246  36.435  11.822  11.197
10631W        W82247  29.536  22.219  14.527
10632W        W82248  19.640  44.713  11.944
10633W        W82249  11.248   3.356   4.209
10634W        W82250  22.054  29.185  12.467
10635W        W82251  11.762  42.059  11.374
10636W        W82252  38.418   7.401  11.582
10637W        W82253  15.016  18.988   1.407
10638W        W82254  15.418  38.800   4.461
10639W        W82255   6.842  26.468   4.800
10640W        W82256  21.168  15.861  11.066
10641W        W82257  25.449  26.620   4.609
10642W        W82258  41.954  22.637  10.200
10643W        W82259  19.357   9.088  12.039
10644W        W82260  38.078  26.074  13.569
10645W        W82261  36.282  22.610   1.883
10646W        W82262  29.401  38.472  13.485
10647W        W82263   7.121  22.679   0.883
10648W        W82264  31.756  10.847  11.113
10649W        W82265  13.849  41.479  13.353
10650W        W82266  25.992  27.963   3.824
10651W        W82267  13.174  41.073   1.794
10652W        W82268  28.593   2.010   1.900
10653W        W82269  31.883  31.784  11.937
10654W        W82270  14.076  23.140  10.650
10655W        W82271   8.683  35.606  14.433
10656W        W82272  31.664  30.603   0.943
10657W        W82273   0.305  19.559  14.060
10658W        W82274  33.064  29.931   2.361
10659W        W82275  21.835  11.141  13.414
10660W        W82276  37.925   5.746   2.739
10661W        W82277   1.825  36.956   3.188
10662W        W82278  44.521  22.261  11.654
10663W        W82279   9.808  33.555   0.444
10664W        W82280  40.244  28.978   4.495
10665W        W82281  33.397  19.748  12.412
10666W        W82282  26.246  25.073   4.608
10667W        W82283  28.898  14.680  11.603
10668W        W82284  27.465   6.757   3.430
10669W        W82285  10.825  18.519   3.142
10670W        W82286  33.507  40.868  12.481
10671W        W82287  38.341   7.574   2.750
10672W        W82288  15.628  43.278  12.665
10673W        W82289   9.585  42.935   1.739
10674W        W82290  24.409   9.304   4.373
10675W        W82291  20.089  29.742  14.559
10676W        W82292  41.278   9.319  14.090
10677W        W82293  35.603  13.580  14.891
10678W        W82294  15.293   7.283   0.766
10679W        W82295  31.220   1.490   3.295
10680W        W82296  21.185  19.844   3.593
10681W        W82297   8.474  34.510  13.846
10682W        W82298  33.614   4.217  10.656
10683W        W82299  44.347  31.843  14.818
10684W        W82300  32.979  24.106  13.400
10685W        W82301   8.867  38.866   3.125
10686W        W82302   1.047  10.615   5.005
10687W        W82303  32.457  17.558  11.920
10688W        W82304   9.248  44.974  14.315
10689W        W82305  11.930   7.812  13.020
10690W        W82306  40.621   3.150   3.658
10691W        W82307  10.595   7.216   3.894
10692W        W82308   2.344  33.533  11.200
10693W        W82309  12.114   1.444   4.317
10694W        W82310  33.425  36.619   0.041
10695W        W82311   4.172   4.097  13.654
10696W        W82312  22.067  19.711  10.731
10697W        W82313  17.553  36.910   1.338
10698W        W82314  43.205  12.442   2.780
10699W        W82315  42.739  21.305  12.619
10700W        W82316  33.622  36.572  14.548
10701W        W82317  30.720  43.177   2.150
10702W        W82318   3.754  26.054   4.103
10703W        W82319  15.701  15.355   4.235
10704W        W82320  20.770  20.331   4.671
10705W        W82321  27.030  14.214  11.946
10706W        W82322   8.265  20.172   0.362
10707W        W82323  25.620   5.900   1.137
10708W        W82324  33.145  37.536   0.940
10709W        W82325  23.552  11.079   4.556
10710W        W82326  41.819  14.259   0.244
10711W        W82327  11.626  16.036   1.823
10712W        W82328  22.095  23.429   2.836
10713W        W82329  30.183  39.482  12.836
10714W        W82330  36.382   6.495   4.664
10715W        W82331  29.188  23.830   1.838
10716W        W82332  36.364  12.680  13.855
10717W        W82333   4.708   6.942  14.451
10718W        W82334  32.876  24.950   4.264
10719W        W82335  44.399  30.099   3.726
10720W        W82336  43.908  38.760  10.871
10721W        W82337  12.035  39.224  12.603
10722W        W82338  44.250  42.997  14.547
10723W        W82339  37.567  36.292  14.293
10724W        W82340   2.626  42.707   3.797
10725W        W82341   5.760  16.823   3.791
10726W        W82342  13.785  18.968  11.571
10727W        W82343  10.558  17.983   4.923
10728W        W82344   7.117   8.116  11.540
10729W        W82345   2.692  43.348  14.052
10730W        W82346  35.416  26.657   3.641
10731W        W82347   0.899   8.778   2.200
10732W        W82348  26.555  34.581   4.448
10733W        W82349  13.321   3.200  11.905
10734W        W82350  42.302  25.217  11.023
10735W        W82351  42.519  36.548  12.029
10736W        W82352   3.982  14.114  14.967
10737W        W82353  33.808  37.109  12.974
10738W        W82354  28.567  41.632   0.518
10739W        W82355  14.125   6.762  10.266
10740W        W82356  28.892  20.767  13.607
10741W        W82357  20.998  24.941   2.698
10742W        W82358   8.626  21.719   4.098
10743W        W82359  15.047  13.379   1.458
10744W        W82360   5.381  27.924  10.710
10745W        W82361   3.191  10.397  13.825
10746W        W82362  21.318  15.187  11.971
10747W        W82363  13.341  25.654   3.225
10748W        W82364  13.154  40.431   2.401
10749W        W82365  22.692  30.668   0.045
10750W        W82366   7.884  31.236  12.360
10751W        W82367  26.609  40.997   2.276
10752W        W82368  27.498  14.638  10.389
10753W        W82369  40.367  38.395  13.882
10754W        W82370  21.578  35.023  12.880
10755W        W82371   0.935   5.019  12.020
10756W        W82372   6.550   2.316  13.296
10757W        W82373  28.976  43.368   4.310
10758W        W82374   8.177  44.275  11.156
10759W        W82375  11.727  39.564  14.466
10760W        W82376   9.846  31.500  12.163
10761W        W82377  11.259  17.765   3.125
10762W        W82378  24.952  33.414   1.439
10763W        W82379  27.637  31.460   4.171
10764W        W82380  44.018  40.340  13.894
10765W        W82381  40.919   1.279  14.917
10766W        W82382  16.669  12.688  14.091
10767W        W82383  26.640  25.534   5.129
10768W        W82384  14.548   2.949   3.377
10769W        W82385  43.061  35.339  12.804
10770W        W82386  13.513  21.437  10.601
10771W        W82387  28.440   1.034   3.673
10772W        W82388  21.557   0.425  14.733
10773W        W82389  34.527  11.211  12.863
10774W        W82390  34.654  36.904  14.453
10775W        W82391   1.222  30.852  10.989
10776W        W82392  16.691  31.653  14.000
10777W        W82393   5.919  37.797  13.537
10778W        W82394  24.750  18.771  12.715
10779W        W82395  43.066  30.517   4.392
10780W        W82396   1.911  20.993  12.019
10781W        W82397  34.443  44.769  12.007
10782W        W82398  13.753  33.038  10.620
10783W        W82399  12.274  39.469   3.886
10784W        W82400  29.731  19.589   3.105
10785W        W82401  35.822  32.332   4.937
10786W        W82402  10.607   5.853  11.504
10787W        W82403  44.219  43.516  12.112
10788W        W82404  15.113   1.739   2.688
10789W        W82405   9.905   8.278  11.346
10790W        W82406  29.091  31.540  13.877
10791W        W82407   1.973  30.921  12.638
10792W        W82408  39.522  12.793  11.057
10793W        W82409  33.643  16.295   3.119
10794W        W82410  38.402  35.871   2.862
10795W        W82411  22.245  20.781   1.788
10796W        W82412  33.259  39.600  11.888
10797W        W82413  26.353  27.615  11.351
10798W        W82414  20.683  10.394   1.333
10799W        W82415   4.396  30.462  14.973
10800W        W82416   7.626  19.740   4.066
10801W        W82417  16.798  31.540  11.493
10802W        W82418  17.318  42.906  10.160
10803W        W82419  33.134  43.275   2.913
10804W        W82420  40.745  13.194   0.878
10805W        W82421  11.312  30.194  11.703
10806W        W82422  43.849  26.685   4.664
10807W        W82423  31.069  38.518  13.135
10808W        W82424  10.690  15.633   1.054
10809W        W82425  11.660  17.594   4.979
10810W        W82426  28.695   3.751   2.886
10811W        W82427  43.906  30.654  14.278
10812W        W82428   1.085   4.703   3.618
10813W        W82429  14.951  18.715  14.462
10814W        W82430  22.410   4.425  12.045
10815W        W82431  43.017  24.606  14.202
10816W        W82432   3.349   5.710   4.032
10817W        W82433  13.274  21.061  12.660
10818W        W82434  42.076  29.537   0.826
10819W        W82435   5.295  30.137   2.244
10820W        W82436  14.263  22.825   0.897
10821W        W82437  31.559  20.176   3.814
10822W        W82438   3.665   6.775  14.541
10823W        W82439  17.954  27.952  12.054
10824W        W82440  30.698  16.527   1.871
10825W        W82441  31.610   0.750   1.176
10826W        W82442  35.999   1.069   3.878
10827W        W82443   5.365  27.978   3.410
10828W        W82444  22.303   4.777   3.104
10829W        W82445  31.450  32.141  11.129
10830W        W82446   3.442  25.848  11.488
10831W        W82447   2.448  38.310  12.571
10832W        W82448   0.008  32.984   1.714
10833W        W82449  33.973  25.374   4.581
10834W        W82450  18.695   6.511  10.831
10835W        W82451  26.070  23.662   1.187
10836W        W82452  26.201  18.157   2.646
10837W        W82453  14.781  31.354   1.864
10838W        W82454   6.205  26.847   4.558
10839W        W82455   4.563  30.572   2.249
10840W        W82456  17.538  27.161  12.671
10841W        W82457  21.517  18.958  14.770
10842W        W82458   2.765  29.924   4.156
10843W        W82459   9.761  11.053   4.383
10844W        W82460   7.954  12.096   1.354
10845W        W82461  17.496  27.003  13.990
10846W        W82462  27.597  15.585   0.462
10847W        W82463  39.333  37.313  13.844
10848W        W82464  33.961   2.515  12.282
10849W        W82465  19.834  28.080  14.516
10850W        W82466  26.718   5.963  13.043
10851W        W82467  17.622  32.926  13.890
10852W        W82468  30.404  29.518  12.502
10853W        W82469  24.454  26.502   2.273
10854W        W82470  30.165  26.293   0.262
10855W        W82471  31.893   1.157  10.796
10856W        W82472  22.239  18.722   4.177
10857W        W82473  11.565  43.439   1.770
10858W        W82474  37.598  23.234   0.755
10859W        W82475  15.510  19.862   0.687
10860W        W82476   3.180   3.256  12.869
10861W        W82477  21.269  25.703  11.043
10862W        W82478  28.702  26.902   4.660
10863W        W82479   6.740   7.791  12.740
10864W        W82480  28.712   4.628  12.522
10865W        W82481   3.816  31.090   2.355
10866W        W82482  44.461  22.700   1.406
10867W        W82483  11.246  35.121  13.978
10868W        W82484  23.574  15.163  10.721
10869W        W82485  14.090  10.135   2.768
10870W        W82486   8.601  16.303  14.814
10871W        W82487   7.811  26.931   0.884
10872W        W82488  27.641  18.225   3.854
10873W        W82489  33.234  23.572  10.395
10874W        W82490  26.673  23.206   0.916
10875W        W82491  12.373  24.553   3.275
10876W        W82492  13.368   6.730  12.986
10877W        W82493   3.917  34.935  12.454
10878W        W82494  27.404  30.552  10.486
10879W        W82495  20.247  14.102   2.257
10880W        W82496  42.485   8.596   1.550
10881W        W82497  11.252  13.841  12.084
10882W        W82498  39.947  24.516   1.208
10883W        W82499  27.449  23.339  14.857
10884W        W82500  44.351  22.203  14.923
10885W        W82501  13.058   8.335   1.896
10886W        W82502  37.538   6.467  14.501
10887W        W82503   9.350   7.389   1.262
10888W        W82504  23.652  42.480   0.432
10889W        W82505  36.818  42.174  13.920
10890W        W82506   5.425   2.268  14.545
10891W        W82507  30.433  33.581  10.976
10892W        W82508  12.891   0.086  10.567
10893W        W82509  36.533  15.008  13.558
10894W        W82510  29.401  16.299   2.222
10895W        W82511   0.007  23.451   1.207
10896W        W82512  20.274  14.332  13.707
10897W        W82513   4.424  16.882   0.929
10898W        W82514  16.082  16.801   2.109
10899W        W82515  19.750  12.725  12.825
10900W        W82516  44.902   5.176  12.411
10901W        W82517  20.973  28.628   2.263
10902W        W82518   8.486   0.862  12.942
10903W        W82519   0.324  23.524  11.084
10904W        W82520   1.865  27.992   2.897
10905W        W82521  26.461  26.441  13.825
10906W        W82522   9.682  26.474   0.686
10907W        W82523  37.054  40.090   2.299
10908W        W82524  24.622   5.493   4.702
10909W        W82525  15.004  41.751   0.878
10910W        W82526  38.573  14.459   0.804
10911W        W82527  25.055  32.046  13.413
10912W        W82528   1.184   7.028  11.188
10913W        W82529  10.764  43.287  11.902
10914W        W82530  10.232  35.884   3.703
10915W        W82531  37.339  42.372   0.505
10916W        W82532  29.393  26.231  12.475
10917W        W82533  13.126  12.460   3.162
10918W        W82534   9.887  37.607  10.613
10919W        W82535  27.695   9.453   3.714
10920W        W82536  29.538  34.268   1.689
10921W        W82537  41.273  33.379  13.210
10922W        W82538  41.562  23.586   0.893
10923W        W82539  40.775  19.752  11.690
10924W        W82540  22.217  14.121   0.484
10925W        W82541  12.180   7.172   0.359
10926W        W82542   9.149  26.603   1.905
10927W        W82543  35.905  25.690   1.804
10928W        W82544  20.379  21.763  12.033
10929W        W82545   8.655  38.260   1.619
10930W        W82546  38.311   6.776  11.046
10931W        W82547  29.866  33.135   1.904
10932W        W82548  39.861   0.780  10.778
10933W        W82549  33.371   6.250   4.360
10934W        W82550  17.748  14.992   3.744
10935W        W82551  27.056  15.436  13.948
10936W        W82552  20.099   2.067  14.430
10937W        W82553   0.292  39.084   4.631
10938W        W82554  42.892  18.526   2.327
10939W        W82555  29.423   9.607  12.062
10940W        W82556  28.762  36.683  10.653
10941W        W82557  36.272   1.845  12.154
10942W        W82558   2.894   9.375  11.097
10943W        W82559  15.184  32.428   2.791
10944W        W82560  15.105  33.553   2.044
10945W        W82561  25.580  24.727   4.187
10946W        W82562  19.612  42.379  14.315
10947W        W82563   8.856   8.882  10.652
10948W        W82564   8.269  43.888   1.412
10949W        W82565  42.949  35.077   4.571
10950W        W82566   3.380  12.236   4.676
10951W        W82567   5.779  25.168   0.872
10952W        W82568   0.736  41.270   0.758
10953W        W82569  43.909  42.483  13.896
10954W        W82570  15.091  30.018   2.426
10955W        W82571  30.727  23.555   4.109
10956W        W82572  28.011  11.054  11.556
10957W        W82573  16.288   3.166   4.385
10958W        W82574   4.432  39.643  14.304
10959W        W82575  25.471  27.667  10.714
10960W        W82576  18.792  32.947  13.973
10961W        W82577  35.947   0.789   1.387
10962W        W82578  33.367   4.440   4.576
10963W        W82579  28.673  14.878   4.783
10964W        W82580  24.677  15.694   3.640
10965W        W82581  15.649  33.460  13.834
10966W        W82582   7.793  38.662  10.466
10967W        W82583  43.099  22.547  10.739
10968W        W82584  32.013   0.231   5.090
10969W        W82585   4.673  20.450   1.777
10970W        W82586  24.736   1.873   1.441
10971W        W82587  19.154  32.087   2.041
10972W        W82588   7.277  15.724   4.637
10973W        W82589  39.557   9.649  14.859
10974W        W82590   4.193  20.494   3.571
10975W        W82591  37.770  12.814   2.298
10976W        W82592  17.001  17.011  11.191
10977W        W82593  40.677  37.901   4.673
10978W        W82594  42.364  41.584  10.670
10979W        W82595  28.126   1.355  11.982
10980W        W82596  39.607  17.196   4.661
10981W        W82597  33.510  11.187  13.348
10982W        W82598  23.024  10.646  11.292
10983W        W82599  12.098  18.095  12.507
10984W        W82600  33.431  26.049   4.573
10985W        W82601  14.777   5.499   3.479
10986W        W82602   5.198  40.060   1.867
10987W        W82603  36.320  30.958   0.512
10988W        W82604  15.717  22.123  11.586
10989W        W82605   0.869  39.347  12.419
10990W        W82606  34.429  28.934   0.910
10991W        W82607  34.661  34.120  14.374
10992W        W82608  38.026  10.151   2.361
10993W        W82609   9.929  26.025   2.699
10994W        W82610  28.585  40.395  13.994
10995W        W82611  33.798  44.430  12.027
10996W        W82612  27.897  32.531  12.203
10997W        W82613  40.602   3.490  11.892
10998W        W82614  31.209  28.566   4.481
10999W        W82615   4.738  27.066   1.990
11000W        W82616  29.932   2.604  13.970
11001W        W82617  25.001  12.702   0.020
11002W        W82618  23.141  41.023   0.387
11003W        W82619  41.409  25.044   0.241
11004W        W82620  29.616  27.652   4.215
11005W        W82621  15.795  38.039   4.939
11006W        W82622  41.077  23.791  10.645
11007W        W82623   7.238  26.795  14.755
11008W        W82624   2.405  36.579  13.068
11009W        W82625  15.706  15.378  10.750
11010W        W82626  19.199   5.684  11.470
11011W        W82627  28.169  32.040   3.116
11012W        W82628   2.734  19.290  10.696
11013W        W82629  23.205  35.613   4.536
11014W        W82630  22.108   1.795  13.422
11015W        W82631  42.407  25.084   4.058
11016W        W82632  41.232  16.743   2.394
11017W        W82633  31.057  18.271   1.336
11018W        W82634  20.846   4.014  11.101
11019W        W82635  19.332  15.173   4.600
11020W        W82636   3.131   0.815  14.433
11021W        W82637  35.027  40.882  14.855
11022W        W82638   0.815  38.054  12.809
11023W        W82639  15.847   4.221  14.299
11024W        W82640   2.652  39.474   0.323
11025W        W82641  32.634  12.374  13.789
11026W        W82642  18.006  37.766  14.930
11027W        W82643  38.866  28.167  14.533
11028W        W82644  10.267  30.711  10.680
11029W        W82645  44.733  41.818   3.150
11030W        W82646  26.401  16.207   3.333
11031W        W82647   0.096   8.199  12.834
11032W        W82648  31.991  41.910  10.740
11033W        W82649  13.639  28.593  13.332
11034W        W82650  36.365   7.621  13.930
11035W        W82651   7.092  11.523   0.679
11036W        W82652  29.217  35.860  11.512
11037W        W82653  18.316  18.123   1.812
11038W        W82654  30.649  41.949   2.765
11039W        W82655  21.047  21.629  14.767
11040W        W82656  21.478  22.568   0.075
11041W        W82657  13.774   2.741   1.913
11042W        W82658  32.354  10.409   1.804
11043W        W82659  26.073  29.245   1.829
11044W        W82660  16.692   8.995  12.226
11045W        W82661   1.669  26.457   1.220
11046W        W82662  34.564  27.062  13.330
11047W        W82663  15.540  16.318   0.934
11048W        W82664  37.019  36.184   1.522
11049W        W82665  38.600  37.993  14.021
11050W        W82666  44.755  29.985   4.469
11051W        W82667  24.084  43.712   1.699
11052W        W82668  12.661  42.371  14.006
11053W        W82669   2.778   8.286   3.944
11054W        W82670   0.018  44.547  12.833
11055W        W82671  10.402   5.887  10.633
11056W        W82672   5.612  27.952   0.981
11057W        W82673   3.392  35.501   4.863
11058W        W82674  42.599  36.588  13.722
11059W        W82675  42.267   5.382  13.622
11060W        W82676  18.306  19.443   3.015
11061W        W82677  10.943  21.078  13.046
11062W        W82678  27.091  13.168   2.471
11063W        W82679  22.906  44.571  14.940
11064W        W82680   6.769  21.622   3.964
11065W        W82681  13.331   7.453  11.131
11066W        W82682  36.920  38.213   1.753
11067W        W82683   4.502  36.649   0.554
11068W        W82684  28.188  11.854  11.109
11069W        W82685   6.613  32.641  13.119
11070W        W82686  12.981  33.592  12.463
11071W        W82687  37.065   9.737   5.095
11072W        W82688   3.301   7.819   1.784
11073W        W82689   2.593  36.517  10.841
11074W        W82690  34.615  43.877  14.310
11075W        W82691  29.596  10.766  13.720
11076W        W82692  34.111  31.532  12.701
11077W        W82693  25.687  27.891  13.020
11078W        W82694  40.440  13.326   0.456
11079W        W82695  14.159  42.472   2.663
11080W        W82696  35.101   9.295   0.384
11081W        W82697  17.967  43.474   4.660
11082W        W82698  35.652  14.965  13.288
11083W        W82699  36.956  15.708  11.591
11084W        W82700  35.595   8.061  12.981
11085W        W82701   4.030  40.863   4.076
11086W        W82702  41.038  40.380   2.813
11087W        W82703  29.434   3.671  11.500
11088W        W82704   0.812  35.118   1.147
11089W        W82705   6.951  16.381   1.717
11090W        W82706  10.333  26.961   0.162
11091W        W82707  38.541  41.876  10.763
11092W        W82708  16.734  28.882  13.781
11093W        W82709  17.576  25.060   0.721
11094W        W82710  21.985  16.265   3.599
11095W        W82711  11.708  31.765  11.055
11096W        W82712  38.799  12.098  11.412
11097W        W82713   4.200   2.287   2.650
11098W        W82714  34.150  30.215   2.350
11099W        W82715   7.346  18.255   4.110
11100W        W82716  17.887  42.911   4.615
11101W        W82717   0.230  29.052   1.919
11102W        W82718  22.189  12.409  11.194
11103W        W82719  13.812  27.881  12.969
11104W        W82720  36.974  31.467  13.446
11105W        W82721   4.458   6.710   0.849
11106W        W82722   7.188   5.458   3.170
11107W        W82723   2.693  38.438  13.279
11108W        W82724  40.875  33.856   2.730
11109W        W82725  34.162  35.040   0.279
11110W        W82726  37.611  29.230   3.504
11111W        W82727   3.836  13.794  11.731
11112W        W82728  27.945  10.469   0.293
11113W        W82729   6.042  30.112  14.459
11114W        W82730  23.176  22.148   3.082
11115W        W82731   0.507  37.077   0.374
11116W        W82732  20.078  32.948  11.596
11117W        W82733  36.927  25.683   3.069
11118W        W82734  29.092  29.918   9.670
11119W        W82735  43.396  21.516   0.932
11120W        W82736   8.198  29.148  14.823
11121W        W82737  13.019   0.765  13.442
11122W        W82738  39.072  35.991  13.677
11123W        W82739  37.537  41.868  14.345
11124W        W82740  14.282  34.515   3.227
11125W        W82741   1.464  17.223  10.698
11126W        W82742  21.630  14.344   3.263
11127W        W82743  29.464  22.637  10.735
11128W        W82744   5.434  18.023   2.760
11129W        W82745  12.802   1.396   3.747
11130W        W82746  14.208  35.896  12.939
11131W        W82747   6.125  42.712  10.000
11132W        W82748  13.783  11.648  11.907
11133W        W82749  18.564  27.674  14.433
11134W        W82750  33.722  27.035  11.130
11135W        W82751   0.186  30.518   2.858
11136W        W82752  39.059  15.234  12.450
11137W        W82753  39.862  39.085   4.297
11138W        W82754  22.188  36.533  11.971
11139W        W82755  11.077   8.905  14.784
11140W        W82756  25.681  38.366   4.587
11141W        W82757  14.305  28.026  11.536
11142W        W82758  20.655  44.296  12.616
11143W        W82759  21.519   0.826  11.449
11144W        W82760  16.250  40.839   3.961
11145W        W82761  19.569  14.195   0.953
11146W        W82762   6.012   5.464   2.853
11147W        W82763   7.118  26.226  12.003
11148W        W82764  24.111  42.291   0.249
11149W        W82765  37.154  33.587  12.061
11150W        W82766  21.751   0.120   4.135
11151W        W82767  14.604  32.966   4.035
11152W        W82768  22.463  33.433   1.876
11153W        W82769  37.866  38.417   2.890
11154W        W82770   4.714   8.316   2.351
11155W        W82771  13.335  34.637  14.447
11156W        W82772  40.111  34.288  10.615
11157W        W82773  19.090  27.107  12.144
11158W        W82774  28.213  31.856  14.735
11159W        W82775  39.306   1.985   3.104
11160W        W82776  11.548  43.501  14.981
11161W        W82777  13.602  25.198   3.182
11162W        W82778  12.320   7.562   3.137
11163W        W82779  44.778   3.194  12.105
11164W        W82780  12.730   3.383  11.185
11165W        W82781  23.947  25.479  14.431
11166W        W82782  13.243  18.163   1.020
11167W        W82783  17.711   0.916  14.902
11168W        W82784  37.615  14.063  10.146
11169W        W82785  25.791  21.338   2.076
11170W        W82786  24.233  40.002   0.859
11171W        W82787  38.671   6.621  13.792
11172W        W82788  23.283  23.222   1.262
11173W        W82789   1.717   4.221   1.718
11174W        W82790   5.924  36.331   1.313
11175W        W82791  15.695  31.112  11.394
11176W        W82792  41.084  22.274  14.956
11177W        W82793  43.330  34.909  10.597
11178W        W82794  16.657  30.309  14.994
11179W        W82795   9.422  35.592  11.460
11180W        W82796  26.025   8.283   1.767
11181W        W82797   7.356  15.361  12.923
11182W        W82798  22.328  31.179  10.601
11183W        W82799   1.351  26.616   3.346
11184W        W82800   2.740  35.987   4.504
11185W        W82801   6.230  28.614  14.973
11186W        W82802   2.484  13.738  13.101
11187W        W82803  12.130   8.443   4.996
11188W        W82804  24.786   6.119  12.490
11189W        W82805  42.418  44.909  13.786
11190W        W82806  17.756  12.745   2.721
11191W        W82807   5.328  16.139  12.842
11192W        W82808  17.641  31.465  14.886
11193W        W82809  44.879  11.264   0.924
11194W        W82810  29.174   0.993   0.973
11195W        W82811   9.907   6.435  12.838
11196W        W82812  37.499  35.759  10.422
11197W        W82813  38.212   9.386  13.458
11198W        W82814   3.968  23.053  14.909
11199W        W82815  12.273   3.665  13.980
11200W        W82816   6.266   0.524  11.952
11201W        W82817   6.831  34.804   4.588
11202W        W82818  12.101   3.232   3.601
11203W        W82819   3.673   5.202   3.202
11204W        W82820  44.880   5.446   3.676
11205W        W82821  36.060  31.596  11.517
11206W        W82822  22.291  10.212   2.696
11207W        W82823  37.991  39.358  12.099
11208W        W82824  31.585  44.030  12.091
11209W        W82825   8.369  41.313  12.955
11210W        W82826  17.933  38.827   2.393
11211W        W82827  43.907  29.941   1.856
11212W        W82828   1.844  30.675  14.720
11213W        W82829  27.619  44.315  11.103
11214W        W82830  11.837  12.647   0.831
11215W        W82831  15.834  14.198  11.120
11216W        W82832  32.110   1.011   3.272
11217W        W82833  44.873   8.609  14.469
11218W        W82834  29.126  22.193   1.221
11219W        W82835   7.913  19.734   3.644
11220W        W82836   1.861   1.061   5.219
11221W        W82837   0.553  22.060   0.422
11222W        W82838  36.772   8.380  14.748
11223W        W82839   6.416   0.174   4.120
11224W        W82840  43.757  33.105   1.776
11225W        W82841  33.116   3.203  12.639
11226W        W82842  26.781  22.231  12.070
11227W        W82843   3.748  39.478  13.990
11228W        W82844   6.802  40.927  11.230
11229W        W82845   4.322  41.964  14.779
11230W        W82846  36.022   7.607   4.105
11231W        W82847  29.327  40.506   0.414
11232W        W82848  39.228  24.999   3.748
11233W        W82849  37.590  32.844   3.665
11234W        W82850  42.380  16.265  13.933
11235W        W82851  25.151  13.812   3.003
11236W        W82852  40.387  17.066   0.341
11237W        W82853  27.459  31.204   0.197
11238W        W82854  27.997   0.500   0.217
11239W        W82855  18.259  25.227   4.515
11240W        W82856  35.646  32.135   3.413
11241W        W82857  31.598  41.527   2.002
11242W        W82858  41.443  25.619  13.091
11243W        W82859  25.472  13.555   2.670
11244W        W82860  11.288  26.203   4.583
11245W        W82861  28.425  31.457   1.120
11246W        W82862  23.732  14.081  11.573
11247W        W82863  24.790  17.222  11.534
11248W        W82864  39.340   1.895  11.827
11249W        W82865   3.246   5.350   4.401
11250W        W82866  42.769  34.627   2.620
11251W        W82867  15.084  25.610  12.049
11252W        W82868  43.015   1.674   3.598
11253W        W82869  12.676  12.252  12.890
11254W        W82870   1.192   5.662   0.385
11255W        W82871  36.405  29.928   2.456
11256W        W82872  11.690   0.753  12.948
11257W        W82873   9.851  26.649  13.914
11258W        W82874   9.412  14.183  14.462
11259W        W82875  38.950   5.201   0.271
11260W        W82876  15.260  42.041   2.465
11261W        W82877  33.025  42.531  13.131
11262W        W82878  10.389   1.305   0.747
11263W        W82879  37.416  21.289   0.483
11264W        W82880  25.899   4.811   3.307
11265W        W82881  34.004  24.638  13.256
11266W        W82882  29.463  13.308  12.510
11267W        W82883  16.531  23.691  11.963
11268W        W82884  38.982  36.977  13.194
11269W        W82885  36.102  10.184  11.170
11270W        W82886  23.058  39.448  13.808
11271W        W82887  30.464  19.579   2.690
11272W        W82888  14.262  21.077  10.840
11273W        W82889  19.324  42.249  14.929
11274W        W82890   9.367   3.886  13.627
11275W        W82891  22.659  23.951   1.528
11276W        W82892   4.251  36.793   3.153
11277W        W82893  28.081  44.916  10.842
11278W        W82894   6.073  15.854  14.314
11279W        W82895   8.374   9.310   0.105
11280W        W82896   1.259   0.806   3.787
11281W        W82897  23.155   3.368  10.826
11282W        W82898  22.655  41.518  12.474
11283W        W82899  44.953  13.696  12.808
11284W        W82900  10.859  35.863  11.065
11285W        W82901   6.277  36.382  12.201
11286W        W82902  31.901   4.497   0.494
11287W        W82903  22.211  18.160  10.767
11288W        W82904  18.817  13.775   3.220
11289W        W82905  10.071  18.765   4.129
11290W        W82906   3.526  32.371  11.458
11291W        W82907  32.109  15.448   2.762
11292W        W82908  26.034  34.612   4.495
11293W        W82909  40.212  28.609   2.864
11294W        W82910  29.949  43.303   0.250
11295W        W82911  10.712  31.228   1.474
11296W        W82912  27.878  14.992   3.384
11297W        W82913  34.465  44.404  11.455
11298W        W82914   5.848  25.155   3.234
11299W        W82915   1.339  43.880   1.081
11300W        W82916  32.614  24.987  11.774
11301W        W82917   1.523   2.161  12.454
11302W        W82918  16.554  27.488   2.735
11303W        W82919   9.737  37.296  13.456
11304W        W82920  13.600  34.437  10.710
11305W        W82921  38.532  30.427  13.371
11306W        W82922  25.218  19.397   0.163
11307W        W82923  41.590  25.621   1.050
11308W        W82924  28.046  44.718   2.327
11309W        W82925   4.606  29.983   0.894
11310W        W82926  25.190  39.017   4.589
11311W        W82927   3.429  10.315  12.499
11312W        W82928  38.506  26.902  12.373
11313W        W82929  33.644   8.844  11.194
11314W        W82930  42.350  13.682  12.876
11315W        W82931  18.113  36.501  13.206
11316W        W82932  42.338  39.287  10.534
11317W        W82933  30.935  35.819  14.375
11318W        W82934  13.218   0.343  12.161
11319W        W82935  34.715  44.447   4.342
11320W        W82936  24.460  41.231   3.166
11321W        W82937  31.523   1.907   3.587
11322W        W82938  21.018  43.578  12.027
11323W        W82939  23.235  11.759   1.345
11324W        W82940  28.689  12.717   3.430
11325W        W82941  27.237  27.114  10.673
11326W        W82942  18.210  18.912   2.890
11327W        W82943   8.987  12.712   3.881
11328W        W82944  37.874  34.782  14.062
11329W        W82945  36.063   4.339   3.114
11330W        W82946  18.271  17.543  12.519
11331W        W82947   5.847  35.344  13.638
11332W        W82948  22.225   0.799   0.280
11333W        W82949   6.365  43.269   2.386
11334W        W82950   4.241   2.323  10.969
11335W        W82951  30.121  39.482  11.415
11336W        W82952  39.667  27.713  14.356
11337W        W82953  35.281  13.176  14.903
11338W        W82954  23.560   7.825   2.331
11339W        W82955   2.203   6.251  11.640
11340W        W82956   4.315   3.327  10.801
11341W        W82957  32.456  32.481   2.647
11342W        W82958  35.846  17.617   2.190
11343W        W82959  24.070  29.479   4.736
11344W        W82960  38.131   4.204  12.457
11345W        W82961  14.255  37.678   5.165
11346W        W82962  39.380  15.153  10.730
11347W        W82963   6.593  11.761   2.765
11348W        W82964  44.852  34.782  11.219
11349W        W82965  25.204  24.591  10.933
11350W        W82966  24.330  31.738   2.318
11351W        W82967  33.458  14.825   0.319
11352W        W82968   0.435  41.048   0.083
11353W        W82969  27.927   1.446   4.501
11354W        W82970  28.668  36.770  13.348
11355W        W82971  18.139   0.779  12.974
11356W        W82972  11.015  28.287   2.439
11357W        W82973  36.921   5.407  12.192
11358W        W82974  17.661  10.276  12.118
11359W        W82975  25.077  23.181  13.567
11360W        W82976   1.482  29.593   1.529
11361W        W82977   9.829  43.475   0.157
11362W        W82978   9.479  42.749   3.214
11363W        W82979   1.059   2.281  14.007
11364W        W82980  29.231  28.252  12.009
11365W        W82981  21.842  25.632  12.415
11366W        W82982  16.781  23.213  12.020
11367W        W82983   1.753  38.435   3.650
11368W        W82984  39.397  28.700   4.212
11369W        W82985  13.214   2.228  11.843
11370W        W82986  20.562  14.146   1.803
11371W        W82987  33.454  11.172   4.288
11372W        W82988  43.967  31.953   0.750
11373W        W82989  38.715   1.191  12.918
11374W        W82990  41.719  20.178   2.477
11375W        W82991   1.206  44.526  11.585
11376W        W82992  20.131  20.969   1.345
11377W        W82993   3.905   8.493  13.394
11378W        W82994  42.229   9.212  14.344
11379W        W82995  17.035  27.201  12.877
11380W        W82996  43.492  14.831  11.548
11381W        W82997  10.826  22.171  13.963
11382W        W82998  29.416  15.920  13.404
11383W        W82999  12.204  17.063   0.516
11384W        W83000  23.723   8.903   1.379
11385W        W83001  37.426   7.549   0.454
11386W        W83002   8.359  29.867  13.496
11387W        W83003  28.932  14.347  12.905
11388W        W83004   0.429  30.070   2.753
11389W        W83005   2.338  12.255   4.150
11390W        W83006  19.338  35.046   1.720
11391W        W83007  35.960  15.868  13.984
11392W        W83008  38.237  23.378  13.375
11393W        W83009   7.608  23.080  14.597
11394W        W83010  33.625  42.972   3.023
11395W        W83011  17.254   1.854   0.343
11396W        W83012   4.633   0.473   2.967
11397W        W83013  11.306   1.478  14.965
11398W        W83014  16.785  10.949  11.975
11399W        W83015  11.121   4.432  12.431
11400W        W83016  35.332  12.162   1.807
11401W        W83017  22.479  18.837  10.657
11402W        W83018  41.622  21.712   4.220
11403W        W83019  18.588  39.450  10.646
11404W        W83020  11.116  34.384   3.254
11405W        W83021   6.352  31.637   2.294
11406W        W83022  14.780  32.106  11.647
11407W        W83023  32.050   5.921   4.561
11408W        W83024  41.061  21.011  14.489
11409W        W83025  41.048  31.468  10.755
11410W        W83026  40.212  23.543   2.301
11411W        W83027  20.234  22.871  11.838
11412W        W83028  11.895  42.953  12.498
11413W        W83029   5.752  37.559  11.006
11414W        W83030   8.094  39.452   1.574
11415W        W83031  35.646  31.703  13.262
11416W        W83032  41.913   2.317   4.868
11417W        W83033  40.982  38.041   0.521
11418W        W83034  21.514  33.313   4.564
11419W        W83035  43.434   4.015   2.189
11420W        W83036  16.343  27.035   0.440
11421W        W83037  12.210  12.806   4.538
11422W        W83038  18.165   0.993   2.227
11423W        W83039  41.180  16.135  12.089
11424W        W83040  27.199   9.470  14.521
11425W        W83041  41.339   6.739  12.534
11426W        W83042  38.120  26.943   0.912
11427W        W83043  42.509  41.355   2.694
11428W        W83044  24.923  17.738   2.025
11429W        W83045   1.433  44.075  12.894
11430W        W83046   5.109  17.160   4.346
11431W        W83047   8.403   0.327  12.979
11432W        W83048  31.264  20.622  12.529
11433W        W83049  23.925  24.603   3.711
11434W        W83050  44.211  34.152   3.790
11435W        W83051  12.348  21.052  14.811
11436W        W83052  29.758   7.878  14.469
11437W        W83053   5.699  24.456  14.005
11438W        W83054  44.620  40.756   4.642
11439W        W83055  11.189  17.968  13.040
11440W        W83056  43.755  26.175   3.453
11441W        W83057  41.869  10.015  13.945
11442W        W83058  36.537  10.823   3.716
11443W        W83059  34.124   3.243   1.806
11444W        W83060  38.198   2.918   4.017
11445W        W83061  17.032  15.092   3.295
11446W        W83062  14.183   6.328   1.678
11447W        W83063  36.625  17.222   0.396
11448W        W83064  26.366   6.501   4.360
11449W        W83065  38.450   5.322  13.342
11450W        W83066  10.192   8.690   3.143
11451W        W83067  17.511  28.604  13.472
11452W        W83068  16.012   1.732   1.280
11453W        W83069   4.375  19.918   5.031
11454W        W83070  38.365  26.323  10.623
11455W        W83071  27.443   2.775   4.648
11456W        W83072  41.878  36.993  11.471
11457W        W83073  35.454  23.942   4.564
11458W        W83074  20.993  18.111   3.698
11459W        W83075  37.036  16.811   0.830
11460W        W83076   5.347  34.142   2.815
11461W        W83077  33.396  26.486   0.939
11462W        W83078  41.008  17.103   4.580
11463W        W83079  16.285  16.577   4.625
11464W        W83080   8.165  29.064  11.924
11465W        W83081  43.991  38.591   0.067
11466W        W83082  37.877  11.690   0.900
11467W        W83083  23.728  43.560  10.700
11468W        W83084  14.862  28.007   4.982
11469W        W83085  20.541  32.379   1.003
11470W        W83086  12.235  44.715  14.998
11471W        W83087   4.921  41.759   4.035
11472W        W83088  15.698  25.722  10.701
11473W        W83089  17.297  43.942  14.724
11474W        W83090  18.819  24.208   2.732
11475W        W83091   0.138  16.824   3.668
11476W        W83092   0.218  29.469  10.658
11477W        W83093  38.187   8.825   3.033
11478W        W83094   0.288  44.470  14.913
11479W        W83095  11.895  34.177   2.605
11480W        W83096  39.795  27.203  11.892
11481W        W83097  23.530  19.810  11.610
11482W        W83098  19.890   3.733  10.257
11483W        W83099   9.694  29.872  13.047
11484W        W83100  22.956  36.790   0.864
11485W        W83101   7.375  14.777   4.660
11486W        W83102  32.559  25.089   5.035
11487W        W83103  40.812  36.707   3.316
11488W        W83104   8.574  43.641   1.044
11489W        W83105  41.617   9.317  13.623
11490W        W83106  30.699  12.273   0.575
11491W        W83107  27.738  32.943   4.204
11492W        W83108  27.052  26.014   3.334
11493W        W83109  41.138  11.742   1.813
11494W        W83110  40.336  20.087  10.422
11495W        W83111  44.562   2.348  10.728
11496W        W83112  40.020   1.754   1.683
11497W        W83113  24.573  30.634  14.370
11498W        W83114   9.306   2.792   4.414
11499W        W83115  26.591  15.247   2.402
11500W        W83116  26.243  16.333   1.710
11501W        W83117  15.596   6.625  10.520
11502W        W83118  20.314  26.015   3.378
11503W        W83119  12.646   9.318  12.472
11504W        W83120   4.159   0.335   1.008
11505W        W83121  24.446  42.782  11.601
11506W        W83122   6.264  39.295   2.178
11507W        W83123  43.888  29.758  14.696
11508W        W83124  37.454  28.042  10.737
11509W        W83125  38.194  42.905   1.205
11510W        W83126  17.036  31.961   1.906
11511W        W83127  31.895  24.906   1.808
11512W        W83128  37.472  18.150   1.946
11513W        W83129  38.572  27.743   4.582
11514W        W83130  23.780  42.030   3.245
11515W        W83131  34.470  15.683   1.242
11516W        W83132  28.840   5.734   1.610
11517W        W83133   1.927  13.805   0.292
11518W        W83134  44.316  44.341  14.810
11519W        W83135  22.103   7.845  11.661
11520W        W83136  36.798  42.388   2.062
11521W        W83137   4.253  11.890  14.761
11522W        W83138  10.661  16.584  12.169
11523W        W83139  32.668   6.207   1.429
11524W        W83140  10.376  15.264  13.329
11525W        W83141   4.366  14.797  14.859
11526W        W83142   6.908  18.916   1.516
11527W        W83143  26.615  25.039   3.378
11528W        W83144  23.407  28.760  14.734
11529W        W83145   9.621  35.128  12.500
11530W        W83146  39.405  44.306   2.131
11531W        W83147  22.572   7.122  10.426
11532W        W83148  15.861  29.105  13.482
11533W        W83149  25.127  36.697  11.236
11534W        W83150  11.353   5.960  11.088
11535W        W83151  42.217  32.186   4.475
11536W        W83152  43.952   3.841   0.301
11537W        W83153  30.720   9.701  11.534
11538W        W83154  29.997  21.677  14.750
11539W        W83155   9.929   4.476   0.416
11540W        W83156  12.747  37.642   0.429
11541W        W83157  43.428  32.845   4.575
11542W        W83158  27.713  21.714  10.645
11543W        W83159  17.228   7.306  12.537
11544W        W83160   2.436  34.096  13.470
11545W        W83161  12.867  32.534  14.828
11546W        W83162  31.019  10.766   4.794
11547W        W83163   8.336  39.413  12.641
11548W        W83164  31.767  31.070  13.865
11549W        W83165   0.033  38.321  11.117
11550W        W83166  22.046  39.864  13.413
11551W        W83167  42.789  38.935  12.896
11552W        W83168  19.282  42.358   3.321
11553W        W83169  13.134  23.218   0.516
11554W        W83170  34.046   4.037  12.417
11555W        W83171  33.966  15.104   0.394
11556W        W83172  10.891  27.439  10.805
11557W        W83173  37.571  35.116  11.153
11558W        W83174   4.600   1.258  12.007
11559W        W83175   7.134  10.370  11.572
11560W        W83176  40.125   2.388  13.269
11561W        W83177  41.040   3.505   3.227
11562W        W83178  42.371  37.917  14.306
11563W        W83179   5.493  21.743  10.707
11564W        W83180   2.315  37.968  13.018
11565W        W83181  18.316  44.694   4.822
11566W        W83182  12.929  39.398   3.172
11567W        W83183  39.416  37.370   1.467
11568W        W83184  39.082  36.985  14.489
11569W        W83185  12.770  35.460  14.666
11570W        W83186  29.072   4.463   1.247
11571W        W83187  24.054  28.116  13.947
11572W        W83188  39.023  31.445  12.668
11573W        W83189   5.508  40.781   0.273
11574W        W83190  29.220  26.116   3.499
11575W        W83191  12.087  27.992  11.259
11576W        W83192  42.155  13.167  10.892
11577W        W83193  32.498  43.292  13.020
11578W        W83194  44.913  15.828   4.653
11579W        W83195  13.747  29.002   2.188
11580W        W83196   1.213   1.287  10.335
11581W        W83197   7.016  28.049  13.311
11582W        W83198  21.978  13.554   4.097
11583W        W83199  29.899  22.187  13.746
11584W        W83200  27.218  16.129   4.479
11585W        W83201  32.651  35.964  11.865
11586W        W83202  33.652   7.835   2.404
11587W        W83203   8.661  16.786  14.960
11588W        W83204   6.208  22.562  14.521
11589W        W83205  37.914   2.839   3.560
11590W        W83206  24.917  44.783   1.929
11591W        W83207  31.060   4.033  13.544
11592W        W83208   0.431  37.555   3.496
11593W        W83209   8.872  12.699   1.921
11594W        W83210  28.106  37.611  10.962
11595W        W83211  40.104  26.943   1.870
11596W        W83212   0.166   4.384  14.194
11597W        W83213   0.463  18.239   0.860
11598W        W83214   7.301   7.850  13.765
11599W        W83215  13.767  44.799   0.232
11600W        W83216  17.116  11.823   4.496
11601W        W83217   6.247  33.245   4.672
11602W        W83218  18.712   4.867  11.517
11603W        W83219  24.968  29.521   4.488
11604W        W83220  28.526  25.462   3.441
11605W        W83221  11.331  12.600  11.123
11606W        W83222  36.818   4.345   1.051
11607W        W83223  18.893  31.473   3.656
11608W        W83224   6.883  34.624  11.002
11609W        W83225  10.233  31.640   2.649
11610W        W83226  36.295  34.885  12.733
11611W        W83227  44.752  34.042   2.099
11612W        W83228  19.441  20.169   3.241
11613W        W83229  44.776   2.036  14.366
11614W        W83230  37.086  32.916   1.938
11615W        W83231  18.204  28.053  11.149
11616W        W83232  10.014  19.783  12.318
11617W        W83233  23.462   9.238   4.738
11618W        W83234   9.838   6.203  11.339
11619W        W83235  20.192  38.908   2.442
11620W        W83236  44.872   0.798   3.980
11621W        W83237  32.989   1.172   4.150
11622W        W83238  24.528  39.656  14.860
11623W        W83239  22.728  22.387  10.664
11624W        W83240  30.244  28.048   0.255
11625W        W83241   5.766  24.753   1.914
11626W        W83242  43.978  11.027  14.584
11627W        W83243  21.588  26.058  10.637
11628W        W83244  18.375  17.923   1.312
11629W        W83245   8.366   0.471  14.819
11630W        W83246   7.362  11.630   1.454
11631W        W83247  14.561  39.921   1.698
11632W        W83248  30.162  17.215  12.895
11633W        W83249  12.385  29.208  12.445
11634W        W83250  39.761  29.418   2.901
11635W        W83251  38.575   2.203   0.774
11636W        W83252  12.138  35.943   3.882
11637W        W83253  34.453  27.519  13.563
11638W        W83254  32.821  23.094   0.315
11639W        W83255  36.071  31.531  10.611
11640W        W83256  39.106  13.160   3.422
11641W        W83257  11.164  24.577   0.929
11642W        W83258  26.662  27.598   1.822
11643W        W83259  40.007   7.277   0.411
11644W        W83260  42.482  40.641   4.111
11645W        W83261   7.943  39.994  10.471
11646W        W83262  38.531  42.751  14.982
11647W        W83263  42.461   3.817  12.109
11648W        W83264  26.124  23.645  14.229
11649W        W83265  37.038  21.989   0.940
11650W        W83266  19.192  38.536   4.917
11651W        W83267  28.532  20.659  12.550
11652W        W83268   1.044   8.408   3.354
11653W        W83269  35.183   4.213   0.096
11654W        W83270  15.030  17.109  10.245
11655W        W83271  35.427  18.137  12.809
11656W        W83272  13.305  42.359   2.339
11657W        W83273  18.711  30.114   0.529
11658W        W83274  32.895  30.478   4.657
11659W        W83275  34.626   4.695  11.784
11660W        W83276  42.859   5.916   1.749
11661W        W83277  34.412   4.368   0.190
11662W        W83278   4.211   4.676   0.531
11663W        W83279  16.431   9.964  11.299
11664W        W83280  14.746   0.963  11.976
11665W        W83281  17.383  12.752   0.292
11666W        W83282  26.891   2.451   5.096
11667W        W83283  24.916  28.186   3.225
11668W        W83284  13.455  29.554  12.427
11669W        W83285   7.693   1.758   3.301
11670W        W83286  22.147   1.307  10.416
11671W        W83287  22.522   6.304  12.478
11672W        W83288  25.660  12.705   0.782
11673W        W83289  30.091  36.782  13.305
11674W        W83290  32.244  32.260  13.006
11675W        W83291  33.513  14.304  14.525
11676W        W83292  18.151  11.295  10.747
11677W        W83293  43.919  28.686   3.040
11678W        W83294  35.815   6.883  14.534
11679W        W83295  18.579  10.765   4.407
11680W        W83296  22.128   1.558  12.973
11681W        W83297  12.764  41.305  10.758
11682W        W83298  14.616   0.338  14.577
11683W        W83299  19.252  10.981  13.054
11684W        W83300  13.310  24.250  14.732
11685W        W83301   3.378  37.034   1.707
11686W        W83302   1.601  25.297  10.025
11687W        W83303  12.152  42.484   0.395
11688W        W83304  21.138  42.812   0.783
11689W        W83305  22.236  36.088  11.105
11690W        W83306  20.583  39.366   2.323
11691W        W83307   5.341  14.202  12.986
11692W        W83308  38.294   9.737   3.359
11693W        W83309   4.523  25.064  13.481
11694W        W83310  22.557  13.135   2.346
11695W        W83311  15.818  43.401  14.224
11696W        W83312  27.679  13.470   3.289
11697W        W83313   9.380  30.930   4.895
11698W        W83314  30.402  22.621  12.921
11699W        W83315  41.815  33.284  12.458
11700W        W83316  10.075  34.156   0.367
11701W        W83317  19.486   9.652   0.542
11702W        W83318   2.376   6.061  11.172
11703W        W83319  30.255  44.031  12.897
11704W        W83320   6.227  17.548   4.822
11705W        W83321   2.336  28.125   1.617
11706W        W83322  39.863  34.776   0.233
11707W        W83323   2.799  21.750   2.505
11708W        W83324  24.005  44.709   1.979
11709W        W83325   0.784  12.552  14.433
11710W        W83326  29.587  36.634   2.233
11711W        W83327  40.950   7.077  11.500
11712W        W83328  29.489  33.008   0.883
11713W        W83329  38.455  23.748   3.857
11714W        W83330  25.689  15.012   0.841
11715W        W83331   7.459  34.937   4.408
11716W        W83332  18.964   4.757  11.941
11717W        W83333  39.492  15.587  13.423
11718W        W83334   7.204   2.678   2.792
11719W        W83335   5.697  26.580   0.999
11720W        W83336  20.955   9.054  14.810
11721W        W83337  19.116  21.544  10.907
11722W        W83338  25.200  29.173   1.297
11723W        W83339  15.164  37.816   4.191
11724W        W83340   5.663  16.193   0.454
11725W        W83341   7.979  24.360  14.348
11726W        W83342  19.686  15.100  10.668
11727W        W83343   9.797   3.959   3.815
11728W        W83344  12.691  32.332   1.412
11729W        W83345  34.909  14.120  13.435
11730W        W83346  27.991  44.001   0.110
11731W        W83347  10.239   7.278   2.582
11732W        W83348  26.279  17.985  12.094
11733W        W83349  20.533   8.821   1.886
11734W        W83350  36.161  14.655   1.186
11735W        W83351  25.682   7.697   1.906
11736W        W83352  22.263   8.738   0.485
11737W        W83353   8.383   0.942  10.771
11738W        W83354   2.830  28.064  10.769
11739W        W83355  15.566  33.597   5.370
11740W        W83356  24.716  28.464  12.004
11741W        W83357   8.681  27.076  12.486
11742W        W83358   8.243  14.882   4.557
11743W        W83359  28.070  37.562  12.476
11744W        W83360  23.991  35.801   3.113
11745W        W83361  41.214   3.572   4.176
11746W        W83362  44.295  26.430   4.522
11747W        W83363  27.855  13.203  13.108
11748W        W83364   8.611  24.129  12.796
11749W        W83365  39.261  29.234  10.734
11750W        W83366   9.824   4.846   0.792
11751W        W83367  22.512   4.678  10.791
11752W        W83368  24.207   4.944  14.786
11753W        W83369   7.041  30.819  12.016
11754W        W83370  17.537  36.880   4.384
11755W        W83371  35.325   4.300   1.255
11756W        W83372  26.758  17.529   2.684
11757W        W83373  26.454  14.760   2.262
11758W        W83374   2.186  33.022   2.752
11759W        W83375  21.692  34.454  12.788
11760W        W83376  18.314  24.554  14.340
11761W        W83377  40.766   9.501  14.432
11762W        W83378  14.583  26.431  12.340
11763W        W83379  16.269   8.298  14.848
11764W        W83380   3.919  28.170   3.758
11765W        W83381   0.481  24.772   4.831
11766W        W83382  39.228  14.855   2.193
11767W        W83383  16.970  18.821  11.436
11768W        W83384  36.393  13.719  12.529
11769W        W83385  29.212  23.236  12.666
11770W        W83386  40.977  37.120  13.966
11771W        W83387   3.912  14.921   4.728
11772W        W83388  11.145  23.965  12.153
11773W        W83389  30.390  43.917   0.752
11774W        W83390  18.175   9.851  14.795
11775W        W83391  36.473  15.677  14.700
11776W        W83392   3.489  21.969  10.999
11777W        W83393  25.236  21.092   4.578
11778W        W83394  17.828  41.940   1.741
11779W        W83395  18.093  16.673   0.141
11780W        W83396   6.445  44.539  13.443
11781W        W83397  42.099  17.982  10.827
11782W        W83398   7.287  29.403   3.248
11783W        W83399  43.106  21.614  11.506
11784W        W83400  41.998  41.920  13.999
11785W        W83401  36.834  11.393   0.281
11786W        W83402  17.106  31.523   2.190
11787W        W83403  42.753  25.095  11.969
11788W        W83404  33.442   7.321   3.486
11789W        W83405  26.469   7.895   3.751
11790W        W83406  44.187  37.871   5.368
11791W        W83407  25.752  24.892  13.496
11792W        W83408  35.037  37.468   3.225
11793W        W83409  26.010  12.130  14.073
11794W        W83410  35.103   3.285  12.593
11795W        W83411  16.383  18.096   1.707
11796W        W83412  44.925  31.539   2.691
11797W        W83413  19.919  20.214   2.299
11798W        W83414  44.503  25.163  10.703
11799W        W83415  15.323  34.852  14.898
11800W        W83416  34.274   8.430   0.393
11801W        W83417  12.815  15.420  11.896
11802W        W83418  10.866  14.296  13.482
11803W        W83419  21.755  38.623  14.789
11804W        W83420   4.448  43.333  11.736
11805W        W83421  35.511  23.487   1.835
11806W        W83422  39.503  28.671  11.927
11807W        W83423  10.289   2.825  12.695
11808W        W83424  22.764  32.036  12.985
11809W        W83425  31.042  35.527   2.300
11810W        W83426   8.821  19.022  12.575
11811W        W83427  11.248  33.787  14.228
11812W        W83428  14.007  32.439   1.371
11813W        W83429  32.393   7.250  10.712
11814W        W83430  34.243  23.118   2.759
11815W        W83431  39.938  15.382   4.076
11816W        W83432  34.551  16.680   2.159
11817W        W83433  25.530  42.991   2.328
11818W        W83434  36.460   8.748  12.342
11819W        W83435  22.670  24.682   4.729
11820W        W83436  33.383  13.244  11.410
11821W        W83437   9.250  19.353  12.580
11822W        W83438  11.706   1.958  10.653
11823W        W83439  28.866  37.161   5.109
11824W        W83440  35.707  29.424  14.517
11825W        W83441  30.696  17.677  14.998
11826W        W83442   6.469  38.906  10.841
11827W        W83443  26.129   5.704   0.344
11828W        W83444  43.812   1.854   3.826
11829W        W83445  42.134  10.154  11.661
11830W        W83446  39.886  32.363   2.446
11831W        W83447  17.259  19.301   0.992
11832W        W83448   0.924  18.526   2.089
11833W        W83449  12.210  40.881  13.776
11834W        W83450  30.096   7.340  12.538
11835W        W83451   3.629  20.641   1.829
11836W        W83452  25.636  43.697   4.619
11837W        W83453  25.644  19.226   0.424
11838W        W83454  12.300  39.595  13.386
11839W        W83455  42.801  11.642   0.201
11840W        W83456  30.982  15.807  12.822
11841W        W83457  26.920  35.031  10.596
11842W        W83458  37.050   5.541   1.237
11843W        W83459  35.270  32.095  11.615
11844W        W83460   8.365  14.120  13.596
11845W        W83461  37.794  44.945  10.578
11846W        W83462   7.414  15.747  11.166
11847W        W83463   5.568  12.111   0.428
11848W        W83464  32.463  15.887  12.507
11849W        W83465  23.020   2.966   3.264
11850W        W83466  28.218  41.770   4.449
11851W        W83467  22.831  28.954   2.412
11852W        W83468  12.902  40.868   2.257
11853W        W83469  34.981  13.564   0.391
11854W        W83470   1.382  21.075  10.275
11855W        W83471  24.425  27.382   3.727
11856W        W83472  23.984   5.891  11.706
11857W        W83473  14.299  23.697  13.943
11858W        W83474  40.360  30.354   1.520
11859W        W83475  31.979  20.180   2.139
11860W        W83476   1.716  21.253  14.854
11861W        W83477   2.887  38.450   4.171
11862W        W83478  20.676  28.248   3.753
11863W        W83479  15.801  35.495  12.973
11864W        W83480   0.702  26.803   5.000
11865W        W83481   6.888  36.850   1.854
11866W        W83482  43.475  32.373  10.860
11867W        W83483  11.127  44.467   1.200
11868W        W83484   1.883  30.467  10.430
11869W        W83485  34.406  41.976   0.808
11870W        W83486   0.524  41.116   3.864
11871W        W83487  21.960   8.914  14.768
11872W        W83488   4.707  13.730  12.506
11873W        W83489  42.216  44.014  14.605
11874W        W83490   2.836  21.249   3.258
11875W        W83491  22.716  11.609   1.301
11876W        W83492  12.112  37.102   3.180
11877W        W83493  14.516  16.690   5.248
11878W        W83494  15.681   6.001   4.138
11879W        W83495  33.564  22.536   1.321
11880W        W83496  18.493  38.007   3.917
11881W        W83497  42.429   3.769   3.167
11882W        W83498  19.759  24.176   1.789
11883W        W83499  22.660  19.031   3.731
11884W        W83500  36.162  21.107  11.974
11885W        W83501   3.188   6.730  14.350
11886W        W83502  13.814  24.739   3.118
11887W        W83503  28.454  10.393   2.767
11888W        W83504  15.467   0.289  12.301
11889W        W83505  14.153  21.286   2.385
11890W        W83506  16.178  40.966   1.366
11891W        W83507  30.041  11.682   1.889
11892W        W83508   1.808   4.798   2.916
11893W        W83509  37.416  39.096  13.880
11894W        W83510  29.079  40.324   1.848
11895W        W83511  24.129   0.376   4.230
11896W        W83512  20.294  21.214   5.289
11897W        W83513  26.525  21.561   2.378
11898W        W83514  42.736   0.293  11.978
11899W        W83515  12.144  13.153   4.118
11900W        W83516   8.878  36.601   0.634
11901W        W83517   1.801  22.770  11.507
11902W        W83518  40.822  39.350  13.037
11903W        W83519  14.100  31.456   2.609
11904W        W83520  28.221  42.420   0.240
11905W        W83521  26.467   7.025   1.302
11906W        W83522  31.005  20.263   3.231
11907W        W83523  37.382  35.446   1.931
11908W        W83524   0.767  10.257   4.722
11909W        W83525   6.939  32.606  13.557
11910W        W83526  14.463  23.049   2.790
11911W        W83527  32.339   4.743   0.652
11912W        W83528  25.655  23.608  14.836
11913W        W83529   3.541  38.576  12.626
11914W        W83530  41.758  21.518  14.360
11915W        W83531  43.763  27.696   1.359
11916W        W83532   0.425  17.284  13.604
11917W        W83533   5.708  10.866  13.350
11918W        W83534  14.330  19.638  10.671
11919W        W83535  43.617  33.409  11.638
11920W        W83536  30.944  35.462  13.959
11921W        W83537  29.170   0.994  14.820
11922W        W83538  30.178   3.521   0.285
11923W        W83539  16.090   6.343   1.341
11924W        W83540  27.614  14.652  10.928
11925W        W83541  31.788  43.453  13.778
11926W        W83542  32.446  19.003  14.042
11927W        W83543  28.584  31.152   2.136
11928W        W83544   1.788  28.822   4.116
11929W        W83545  20.235  19.590  12.097
11930W        W83546  37.377   9.157   3.828
11931W        W83547  20.678  37.050  14.910
11932W        W83548  30.804  25.190  14.952
11933W        W83549  26.035   3.811   0.458
11934W        W83550  31.357  11.337   3.669
11935W        W83551  20.609   6.734   0.560
11936W        W83552   8.764  34.532  11.557
11937W        W83553  30.359  27.988   3.167
11938W        W83554  22.379  22.271   4.937
11939W        W83555  41.419   7.333   4.535
11940W        W83556  10.141   4.273  10.319
11941W        W83557  36.804  41.904   2.376
11942W        W83558  27.587  43.996   3.167
11943W        W83559  15.249  28.647   4.806
11944W        W83560  23.039  39.097  14.918
11945W        W83561  41.317  39.854   1.263
11946W        W83562  24.807  20.559   2.217
11947W        W83563   4.282  23.545   4.180
11948W        W83564  22.815  37.035  12.063
11949W        W83565  40.008  20.934   2.278
11950W        W83566   8.289  14.526  10.721
11951W        W83567  41.984  17.982   3.778
11952W        W83568   2.557   6.816   1.232
11953W        W83569  25.251  23.645   1.714
11954W        W83570  35.141  38.039   2.351
11955W        W83571  34.325  39.808  12.593
11956W        W83572  12.201  28.914  11.924
11957W        W83573  39.647  44.448   2.623
11958W        W83574  36.433  15.223  11.024
11959W        W83575  17.474  39.373  13.026
11960W        W83576  17.793  28.868   4.509
11961W        W83577   0.479  44.332  13.889
11962W        W83578  17.621  10.320  11.616
11963W        W83579  30.103   4.207  13.847
11964W        W83580   8.782  21.178  11.326
11965W        W83581  42.227  35.972   4.703
11966W        W83582  33.348   3.856  13.564
11967W        W83583   9.726  28.541   1.642
11968W        W83584  30.140  20.248   1.728
11969W        W83585  29.040   5.316  12.883
11970W        W83586  22.004  42.900   3.607
11971W        W83587   8.450  44.809  12.821
11972W        W83588  33.001   4.647   3.712
11973W        W83589   1.177  20.227   3.339
11974W        W83590  34.538  15.844  12.166
11975W        W83591   2.691  34.180   2.435
11976W        W83592  28.493  36.077  11.954
11977W        W83593  20.792   2.907  12.476
11978W        W83594  19.287  41.903   2.717
11979W        W83595  31.603   6.539   3.742
11980W        W83596  29.531  39.817  10.742
11981W        W83597  13.883  17.507   4.447
11982W        W83598  25.014  34.025  11.052
11983W        W83599  10.566  21.781   4.171
11984W        W83600  38.355  22.941   0.333
11985W        W83601   9.009  34.025  13.198
11986W        W83602  10.018  41.502   3.157
11987W        W83603  17.092  19.382  11.066
11988W        W83604  29.194   5.042  11.532
11989W        W83605   9.828  36.456  13.336
11990W        W83606   3.820  30.506  12.358
11991W        W83607  19.164  36.433   3.140
11992W        W83608  40.630  16.735   3.218
11993W        W83609   6.329  37.885  11.428
11994W        W83610   0.674  11.661   4.975
11995W        W83611   5.676  33.509  10.749
11996W        W83612   0.468   4.372  11.577
11997W        W83613  16.309  43.253  14.463
11998W        W83614  35.506  35.092   0.526
11999W        W83615  24.170  23.009  14.517
12000W        W83616  37.523  19.493   0.689
12001W        W83617  33.114  26.279  13.416
12002W        W83618   8.370  28.631  11.687
12003W        W83619   8.172  14.228   0.400
12004W        W83620  11.609  25.772   1.819
12005W        W83621  10.819  32.101   4.102
12006W        W83622  24.622  43.873   1.029
12007W        W83623  18.176  29.539   0.809
12008W        W83624  20.230   5.362  13.009
12009W        W83625  23.002  30.965   1.180
12010W        W83626  23.483  34.817  13.159
12011W        W83627  21.030  14.691   1.765
12012W        W83628  24.843   7.835   0.948
12013W        W83629  31.742  12.737  10.259
12014W        W83630  43.331  15.694   0.755
12015W        W83631   7.428  10.351  11.126
12016W        W83632   3.698  34.487   3.120
12017W        W83633  13.912  23.775  13.592
12018W        W83634  12.377  28.058   0.883
12019W        W83635   0.749  18.312  11.498
12020W        W83636   5.090   7.053   4.124
12021W        W83637  11.647  25.618  13.473
12022W        W83638  22.642   8.954  13.704
12023W        W83639  28.966  44.970   2.239
12024W        W83640  32.028   2.986   1.255
12025W        W83641  32.562  41.573   4.967
12026W        W83642   2.605  20.871   2.440
12027W        W83643   2.968   6.335   0.258
12028W        W83644  40.038   2.262   4.440
12029W        W83645   7.958  21.228  13.320
12030W        W83646  14.087  17.046   0.887
12031W        W83647  44.591  23.776  10.689
12032W        W83648  43.460  25.510   0.318
12033W        W83649  34.847  41.820  13.738
12034W        W83650   4.684  36.125   0.262
12035W        W83651  43.220  14.763   4.013
12036W        W83652  10.205  15.200   0.548
12037W        W83653   1.230  20.792   0.272
12038W        W83654  11.742  35.197  11.168
12039W        W83655  23.257  26.418   2.743
12040W        W83656   6.338  26.477   3.647
12041W        W83657  26.372  38.940   2.217
12042W        W83658   9.260  33.209   3.668
12043W        W83659  27.466  15.151  11.911
12044W        W83660  16.559   8.616  12.570
12045W        W83661  33.908  24.165   2.635
12046W        W83662   0.554  24.340  11.498
12047W        W83663  34.082   7.035  14.928
12048W        W83664  33.452  32.055   1.397
12049W        W83665  13.057  37.918  11.031
12050W        W83666  42.731   6.292   2.960
12051W        W83667  12.080  43.409   2.759
12052W        W83668  16.743  30.590  10.746
12053W        W83669  40.361   5.748   4.434
12054W        W83670  35.589   1.815   0.940
12055W        W83671  27.647  36.399  12.891
12056W        W83672   8.415  36.447  14.777
12057W        W83673  18.441  23.451  11.177
12058W        W83674  11.498  24.039   9.933
12059W        W83675   1.836  23.339  11.968
12060W        W83676  12.104  28.224  12.453
12061W        W83677   5.438  38.733   0.259
12062W        W83678  35.845  15.925   0.314
12063W        W83679   5.689  17.058   1.167
12064W        W83680  33.420  31.548   1.231
12065W        W83681  15.213  42.158  12.464
12066W        W83682  35.899  32.932  13.764
12067W        W83683  20.628  28.846  14.436
12068W        W83684  32.017   1.886  11.074
12069W        W83685  16.695   2.918   3.409
12070W        W83686  11.894   7.708  11.053
12071W        W83687  35.512  21.231  12.944
12072W        W83688  38.397   8.573   0.964
12073W        W83689  19.539  41.818  12.072
12074W        W83690  22.547  15.184   4.107
12075W        W83691   0.456  31.375   3.323
12076W        W83692  39.110  38.719   9.888
12077W        W83693   9.382  36.425   3.399
12078W        W83694  44.946   6.168  14.002
12079W        W83695   1.567  29.006   0.312
12080W        W83696  42.475  31.581  13.539
12081W        W83697   0.849  28.925   1.388
12082W        W83698  34.053  27.233  13.363
12083W        W83699   1.504  37.945  14.331
12084W        W83700  31.864  35.659  12.436
12085W        W83701   8.242  29.644   4.111
12086W        W83702  30.531   3.806  14.984
12087W        W83703  29.124  32.967  12.317
12088W        W83704  41.856   7.217  11.144
12089W        W83705   9.230   5.440   4.764
12090W        W83706  27.413  38.657  14.311
12091W        W83707  13.211  23.755   4.412
12092W        W83708  42.638   6.265  13.325
12093W        W83709   9.325  44.144   2.203
12094W        W83710  13.261   9.896  11.117
12095W        W83711  32.665  37.358   0.820
12096W        W83712   7.831  18.173   4.545
12097W        W83713  33.049   9.891   3.423
12098W        W83714  41.426  35.343   1.606
12099W        W83715  28.271  42.060  12.769
12100W        W83716  21.786  34.865  13.420
12101W        W83717   9.502   3.406  13.825
12102W        W83718  12.785  20.143   5.197
12103W        W83719  20.506   0.549   2.280
12104W        W83720  27.579  16.566  12.473
12105W        W83721  36.033  28.844  13.367
12106W        W83722  25.108  22.242  12.507
12107W        W83723  16.588   6.314   1.448
12108W        W83724  23.527  17.147   3.114
12109W        W83725  28.608  32.892  10.893
12110W        W83726  34.539  33.426  13.853
12111W        W83727  14.530  20.303  14.052
12112W        W83728   0.008  42.042   3.657
12113W        W83729  42.595  13.179  10.624
12114W        W83730  22.017  22.145  12.531
12115W        W83731   5.217  39.736  11.292
12116W        W83732  28.556   7.678   0.234
12117W        W83733  22.548  15.430  13.900
12118W        W83734  15.290  44.886   4.335
12119W        W83735  33.388  31.604  12.573
12120W        W83736  17.986  13.079   3.836
12121W        W83737  14.207  11.555  13.588
12122W        W83738  22.385   5.011  14.355
12123W        W83739  20.692  38.270   2.915
12124W        W83740  21.690   7.562  10.755
12125W        W83741  29.361  32.463  13.892
12126W        W83742  43.363   9.293  12.586
12127W        W83743  13.255  21.579   2.248
12128W        W83744   3.158  16.237  12.244
12129W        W83745  32.227  26.985   3.596
12130W        W83746  22.716  25.418  13.823
12131W        W83747   0.189  31.591   3.713
12132W        W83748  17.316  36.354   4.273
12133W        W83749   7.792  13.804   0.873
12134W        W83750  11.937  25.954  11.625
12135W        W83751  30.902   1.607  11.658
12136W        W83752  16.571  37.359  13.311
12137W        W83753  35.784  25.233  14.470
12138W        W83754  17.000  34.921   3.487
12139W        W83755  40.987   0.846  13.101
12140W        W83756  30.573  19.313   0.925
12141W        W83757  37.379  40.969   3.738
12142W        W83758  34.202  42.859   2.339
12143W        W83759   7.573   4.865  13.827
12144W        W83760   9.181  25.166   1.000
12145W        W83761  16.632  32.584  13.477
12146W        W83762  30.039  34.669   0.504
12147W        W83763  42.198   1.992   1.402
12148W        W83764  15.318   9.915  11.722
12149W        W83765  30.924  35.074  10.770
12150W        W83766  37.937  17.259  12.023
12151W        W83767   5.806   1.912   4.085
12152W        W83768  12.652  43.961   1.818
12153W        W83769  39.604  30.475  12.129
12154W        W83770  31.713  22.054  12.768
12155W        W83771   0.811   7.371  11.070
12156W        W83772   5.218  19.141  13.936
12157W        W83773   2.708   6.158  11.572
12158W        W83774  24.929   2.796  14.483
12159W        W83775  21.126  28.113   5.036
12160W        W83776  38.270   5.117   0.781
12161W        W83777   4.189   1.392   2.769
12162W        W83778  34.406  24.118   4.101
12163W        W83779  31.877  31.976  13.767
12164W        W83780  21.799  42.571   2.444
12165W        W83781   9.736  41.632  14.854
12166W        W83782  43.026  41.347   4.090
12167W        W83783   7.859   7.461   3.274
12168W        W83784   7.983  21.612  10.357
12169W        W83785  40.906  37.094   1.661
12170W        W83786  34.702  18.614   0.962
12171W        W83787  32.531   7.207   0.040
12172W        W83788  44.998  18.239  13.941
12173W        W83789  31.129   5.187   1.098
12174W        W83790  12.236  12.595  14.023
12175W        W83791  44.930  26.673  13.013
12176W        W83792  24.707  26.227  13.098
12177W        W83793   3.818  24.554  12.856
12178W        W83794  22.227  35.978  14.692
12179W        W83795  42.870   3.041  13.035
12180W        W83796  41.242  25.867  10.807
12181W        W83797  38.161  15.838   5.021
12182W        W83798  30.050   5.740   3.092
12183W        W83799  41.068  12.683   2.691
12184W        W83800  32.903  15.222  10.767
12185W        W83801  17.893   0.364   0.403
12186W        W83802  31.383  29.409  12.738
12187W        W83803   2.390  34.962   4.314
12188W        W83804  20.566  43.018   2.391
12189W        W83805  43.888   1.294   0.229
12190W        W83806  23.255  22.678  11.543
12191W        W83807  22.586  34.467  13.864
12192W        W83808   9.730  43.901   0.431
12193W        W83809  30.751  28.090   0.286
12194W        W83810  34.635  40.867  13.268
12195W        W83811  40.545  32.974  10.937
12196W        W83812  22.138  40.380   4.170
12197W        W83813  32.671  13.249  13.044
12198W        W83814   2.735  35.672   0.531
12199W        W83815  44.285   4.770  12.954
12200W        W83816   1.451  24.174   1.961
12201W        W83817  29.484  17.652  10.719
12202W        W83818  36.396  40.524  11.561
12203W        W83819   3.689  19.048   0.414
12204W        W83820  12.687   3.458   1.435
12205W        W83821  40.395  24.818   1.254
12206W        W83822  13.048  28.999   4.366
12207W        W83823   2.763  42.909  13.791
12208W        W83824  11.923  21.571   3.663
12209W        W83825  40.277  23.016   3.113
12210W        W83826  20.912  12.194   2.803
12211W        W83827  43.732  28.473  12.383
12212W        W83828  31.967  14.644  14.259
12213W        W83829  17.850   3.346   4.522
12214W        W83830  22.471  34.128  11.600
12215W        W83831  12.898  38.287   2.332
12216W        W83832   5.277  12.110   4.081
12217W        W83833  34.936  13.849  13.910
12218W        W83834  22.727  36.365   1.404
12219W        W83835  40.759  14.791  14.961
12220W        W83836  41.584  14.145  12.508
12221W        W83837  29.808   7.099   3.598
12222W        W83838  32.550  13.202   3.150
12223W        W83839  34.033  33.394  11.974
12224W        W83840  32.079   8.488  14.834
12225W        W83841   6.471  19.646   1.063
12226W        W83842  20.586  36.346  13.724
12227W        W83843  26.130  32.892  13.829
12228W        W83844  31.454   7.167  10.691
12229W        W83845   5.683  30.887   3.047
12230W        W83846  37.785  11.497  11.438
12231W        W83847   3.319   2.850   2.194
12232W        W83848  27.292  16.020  13.090
12233W        W83849  18.246  30.894   2.324
12234W        W83850  26.392  25.482   1.243
12235W        W83851  16.189   2.270   4.384
12236W        W83852  11.919   1.011   0.372
12237W        W83853  34.635  13.389   1.882
12238W        W83854  40.532  32.022  13.794
12239W        W83855   1.682  33.014   1.852
12240W        W83856  26.282  23.108  10.719
12241W        W83857   6.198  33.190  13.939
12242W        W83858  38.403  13.608  13.119
12243W        W83859  40.518  12.678  10.228
12244W        W83860  21.494  39.322   4.598
12245W        W83861   4.299  34.053  14.025
12246W        W83862  35.126  21.061   1.587
12247W        W83863   3.282  43.582  14.802
12248W        W83864  44.952  16.357   1.004
12249W        W83865  15.768  23.575  11.320
12250W        W83866  12.889  24.039  11.081
12251W        W83867   7.780  16.732   2.192
12252W        W83868   6.664  10.815   4.654
12253W        W83869  10.357  34.450  11.868
12254W        W83870  41.770   8.172   3.174
12255W        W83871  15.084  18.233  11.046
12256W        W83872  36.143  12.827  14.287
12257W        W83873  19.999  40.027   0.336
12258W        W83874  30.803  38.877  10.115
12259W        W83875  28.951  10.334   1.167
12260W        W83876   0.409  35.873   2.937
12261W        W83877  39.618  17.545  11.540
12262W        W83878  23.981   4.245   4.125
12263W        W83879  38.044   3.592  12.929
12264W        W83880  42.226  37.369   4.182
12265W        W83881  33.116  36.454   1.932
12266W        W83882   8.202   5.579   2.282
12267W        W83883   0.832  44.207   2.274
12268W        W83884  10.634  39.418   0.818
12269W        W83885   6.045   4.103  12.626
12270W        W83886  10.329  44.467   1.622
12271W        W83887  19.341  39.866   3.487
12272W        W83888  35.717  17.109   4.837
12273W        W83889  37.784   1.320  12.554
12274W        W83890  11.950   8.600  11.671
12275W        W83891  11.228   0.872  11.438
12276W        W83892   2.544  16.656  11.190
12277W        W83893  34.247   0.421   4.144
12278W        W83894  38.842  33.084   3.384
12279W        W83895  20.685   5.895  14.434
12280W        W83896  15.670   6.701   2.378
12281W        W83897  20.052   0.493  11.476
12282W        W83898  15.841  12.870  11.579
12283W        W83899  22.489  13.265   4.511
12284W        W83900  23.138  17.022  14.042
12285W        W83901  42.969  39.980  10.364
12286W        W83902   4.389  18.706   0.510
12287W        W83903   6.707  26.537  13.932
12288W        W83904  42.889  16.368   3.428
12289W        W83905  27.881  19.861  11.547
12290W        W83906  17.419   2.851  10.146
12291W        W83907  17.164   3.225  11.063
12292W        W83908  43.719   3.138  13.293
12293W        W83909  21.765   4.417  13.778
12294W        W83910   2.548  33.461   0.798
12295W        W83911   5.249  35.960   1.542
12296W        W83912  10.688  15.098  10.973
12297W        W83913  17.409  34.927   1.699
12298W        W83914  12.257   3.965   0.980
12299W        W83915  21.559   0.232   0.634
12300W        W83916  35.419  26.664   4.598
12301W        W83917  41.482  35.039   4.117
12302W        W83918  31.398  42.926   0.973
12303W        W83919  24.159  26.577   0.977
12304W        W83920   0.154  23.039   0.328
12305W        W83921  35.072  35.413   3.579
12306W        W83922  31.864  42.552   3.915
12307W        W83923  18.777  14.753   3.253
12308W        W83924  27.177  41.819  10.727
12309W        W83925  21.176  21.286  11.658
12310W        W83926  11.902   8.720   0.863
12311W        W83927  14.138   4.555   3.390
12312W        W83928  32.614   2.744  13.008
12313W        W83929  10.192   8.176   3.165
12314W        W83930  37.798  23.081   3.453
12315W        W83931  32.216   7.561  14.821
12316W        W83932   8.918  16.707   1.265
12317W        W83933   4.240   4.863  10.736
12318W        W83934  11.149  15.676   4.573
12319W        W83935  25.239  25.100  11.067
12320W        W83936  32.111   9.907   1.808
12321W        W83937  39.186   5.132   1.698
12322W        W83938  21.753  43.826  10.533
12323W        W83939  22.972   0.985   1.648
12324W        W83940  20.663  34.158  10.711
12325W        W83941  44.541  12.284   0.080
12326W        W83942  30.633  37.450   3.636
12327W        W83943  44.440  32.042  13.398
12328W        W83944  27.362   1.043   3.708
12329W        W83945  23.992   4.722  13.826
12330W        W83946   1.183  38.793  11.515
12331W        W83947  15.304  10.650   2.828
12332W        W83948  39.651  32.705  12.057
12333W        W83949   6.341  41.002  13.448
12334W        W83950  11.671  16.945   5.015
12335W        W83951  14.548   1.926  11.170
12336W        W83952  32.839  33.967  13.887
12337W        W83953  44.002  23.261  12.828
12338W        W83954   4.971  23.844   4.931
12339W        W83955   0.364  11.865  10.741
12340W        W83956  22.072  20.115  12.571
12341W        W83957  19.357   7.308   0.732
12342W        W83958  16.474  26.031  14.841
12343W        W83959  36.894  27.385   1.727
12344W        W83960  44.777   1.503  12.107
12345W        W83961  36.451   9.469   4.140
12346W        W83962  31.843  19.655   0.226
12347W        W83963  36.307  14.220  11.401
12348W        W83964  12.676  11.312  14.923
12349W        W83965  24.525   9.485  13.412
12350W        W83966  21.686  39.380   3.554
12351W        W83967  44.934  24.120   4.630
12352W        W83968  23.624  22.317  14.436
12353W        W83969   9.913  25.359  14.877
12354W        W83970  27.429  21.171  14.551
12355W        W83971  41.807   5.877   1.718
12356W        W83972  44.205  10.780  11.129
12357W        W83973  32.591  39.035  13.265
12358W        W83974  22.244  25.224   0.716
12359W        W83975   9.218  42.832  11.599
12360W        W83976  32.361   2.896   3.777
12361W        W83977  17.637  40.717   2.327
12362W        W83978  38.854  20.816   4.742
12363W        W83979   1.204  39.328  12.874
12364W        W83980  21.298   3.307  10.900
12365W        W83981  30.582  21.808   3.730
12366W        W83982   4.764  25.927   1.320
12367W        W83983  30.774  18.380  11.986
12368W        W83984  30.575  39.826  14.949
12369W        W83985  13.239  26.124  11.557
12370W        W83986  40.131  36.498  12.907
12371W        W83987  38.299  32.216   0.307
12372W        W83988  24.801  31.476  10.394
12373W        W83989  29.090  40.360   3.360
12374W        W83990  22.709   4.773   1.266
12375W        W83991  21.617  22.283   3.812
12376W        W83992  13.246  11.770  14.994
12377W        W83993   6.875   2.314   1.716
12378W        W83994  29.952  13.015   3.570
12379W        W83995  38.921  22.312  13.504
12380W        W83996  35.422  16.219   2.060
12381W        W83997  42.876  13.982   1.880
12382W        W83998  36.538  38.374   1.362
12383W        W83999  14.713  39.338   2.103
12384W        W84000  26.508   0.940   2.765
12385W        W84001  44.084  15.204  13.313
12386W        W84002  24.207   8.879  12.662
12387W        W84003   3.240   5.811  10.977
12388W        W84004  32.377  34.695  14.950
12389W        W84005   2.808  44.804   2.147
12390W        W84006   1.157   4.225  14.554
12391W        W84007  12.365  21.758  13.065
12392W        W84008   4.771  37.653   4.615
12393W        W84009  32.499  10.163   4.843
12394W        W84010  44.223  26.552   5.022
12395W        W84011   6.329  12.043   3.125
12396W        W84012  18.471  11.397  11.689
12397W        W84013  43.674  38.426  11.227
12398W        W84014  28.550  34.575   2.784
12399W        W84015  22.040   2.921  13.799
12400W        W84016  28.067   6.655  13.565
12401W        W84017   6.199  10.090  14.256
12402W        W84018  37.838  11.659  13.465
12403W        W84019  33.982  37.523  12.173
12404W        W84020  23.974  41.465  10.248
12405W        W84021  40.053   4.374   5.008
12406W        W84022  12.637  44.476  14.125
12407W        W84023  38.904  33.261   5.016
12408W        W84024  25.094  30.521   0.933
12409W        W84025  38.896  25.697   2.560
12410W        W84026  30.071  37.975  14.927
12411W        W84027  41.151  28.904   3.966
12412W        W84028   3.254  36.915  10.857
12413W        W84029  27.740  20.942  11.104
12414W        W84030  23.036  37.906  14.253
12415W        W84031   2.368  25.541   1.390
12416W        W84032  28.494  37.412  13.704
12417W        W84033  21.656  30.850   1.186
12418W        W84034  17.706  11.381   3.617
12419W        W84035   8.384   2.482  13.732
12420W        W84036   9.712  32.715  14.270
12421W        W84037  43.967   8.419  14.427
12422W        W84038  34.330  13.204  11.422
12423W        W84039  11.836  12.625  14.389
12424W        W84040   3.872  33.127   9.941
12425W        W84041  35.541  23.614  11.767
12426W        W84042  20.272  39.457  14.600
12427W        W84043  42.415  41.920   2.929
12428W        W84044  25.352  34.642  14.025
12429W        W84045  10.471  44.267   9.950
12430W        W84046  43.027  41.404  14.748
12431W        W84047   6.669  32.220  12.834
12432W        W84048   6.698   1.887  12.464
12433W        W84049  42.357   9.185   2.889
12434W        W84050  34.517  31.128   3.812
12435W        W84051  44.509   7.121  12.147
12436W        W84052  27.730   2.075   1.759
12437W        W84053  19.812  30.493  13.510
12438W        W84054   4.467   1.786   0.183
12439W        W84055  18.670  10.139  14.030
12440W        W84056   1.439  10.794   1.520
12441W        W84057   3.311  39.186   4.911
12442W        W84058   1.709   5.199   2.053
12443W        W84059  17.761  44.435   2.272
12444W        W84060  43.184  37.717  12.265
12445W        W84061  38.430  34.546  12.192
12446W        W84062  28.912   9.678  12.063
12447W        W84063  41.977  12.678   4.840
12448W        W84064  30.577  20.565   1.664
12449W        W84065  25.026  13.803  13.366
12450W        W84066  16.654  42.272  11.583
12451W        W84067  12.655  21.183  10.662
12452W        W84068  20.232  27.749   1.973
12453W        W84069  23.514  43.384  12.028
12454W        W84070   4.680   4.334   5.371
12455W        W84071   5.399   0.762   4.110
12456W        W84072  38.518   9.142  15.000
12457W        W84073  13.537  35.300  14.047
12458W        W84074  26.942  13.145  10.601
12459W        W84075  36.549  18.196   4.556
12460W        W84076  23.947  33.326  14.292
12461W        W84077   1.395  23.110   0.949
12462W        W84078  20.382  38.325   0.765
12463W        W84079   8.469  43.957   4.241
12464W        W84080   1.666  24.708   2.384
12465W        W84081  43.463  27.543   4.749
12466W        W84082  37.249  32.992  13.855
12467W        W84083  35.894  24.253  10.724
12468W        W84084  29.426  18.756  12.518
12469W        W84085   2.906  13.138   4.415
12470W        W84086  36.986  28.593  12.445
12471W        W84087  44.978  34.921   1.819
12472W        W84088  18.657  13.861  12.518
12473W        W84089  20.595  16.196   3.909
12474W        W84090  13.373   1.427  10.702
12475W        W84091  39.914  16.247  12.986
12476W        W84092  21.956  30.506   0.440
12477W        W84093  36.976  21.396   1.775
12478W        W84094  14.454  22.471  14.377
12479W        W84095  16.253  26.993   1.396
12480W        W84096  16.354  37.542   1.176
12481W        W84097  13.291  31.029  13.562
12482W        W84098  22.268  26.527  13.138
12483W        W84099  20.176  41.861   3.955
12484W        W84100   2.799  30.865  10.574
12485W        W84101  38.245  27.658   2.056
12486W        W84102  20.228  25.121   3.357
12487W        W84103  38.472  14.088   2.757
12488W        W84104  25.735  24.577   2.205
12489W        W84105  15.248  10.126  11.224
12490W        W84106  20.241  11.224  12.463
12491W        W84107  24.194  28.099  11.679
12492W        W84108  13.154  36.865   3.623
12493W        W84109  36.885  25.771   3.575
12494W        W84110  14.295  11.898   5.053
12495W        W84111  22.648  39.243  12.081
12496W        W84112   8.178  39.876   0.707
12497W        W84113   9.487  28.085  10.669
12498W        W84114   0.555  28.671   4.287
12499W        W84115   2.307  34.266  13.982
12500W        W84116  36.356  22.700   2.753
12501W        W84117  43.742  42.614   0.671
12502W        W84118  34.455  37.713  10.902
12503W        W84119  19.616  45.000   2.302
12504W        W84120  20.938   1.451  11.861
12505W        W84121   5.364   0.339   1.680
12506W        W84122  35.634  38.580   2.773
12507W        W84123  31.106  17.062  11.670
12508W        W84124  15.235  17.880  14.742
12509W        W84125   3.175  41.558   1.689
12510W        W84126  30.734   0.928   3.993
12511W        W84127  28.095   9.781  14.557
12512W        W84128  41.855  27.259  13.974
12513W        W84129  34.910   5.787  12.091
12514W        W84130  11.906  17.735  10.871
12515W        W84131  18.868  14.603   4.057
12516W        W84132   1.873   5.913   1.809
12517W        W84133  24.196   7.130  12.965
12518W        W84134  35.522  39.063   3.852
12519W        W84135  28.427  30.195   0.448
12520W        W84136  18.146  17.835  10.908
12521W        W84137  38.773  26.239  12.879
12522W        W84138  16.599   9.668   4.477
12523W        W84139  20.608  28.587  13.834
12524W        W84140   1.767  36.140   1.050
12525W        W84141  17.825   6.198  12.843
12526W        W84142  24.578  15.268  14.498
12527W        W84143  23.141  22.171  12.682
12528W        W84144  13.225  43.121   1.844
12529W        W84145  44.275  30.245  11.051
12530W        W84146   5.891   2.554  12.441
12531W        W84147   6.492   1.276   0.969
12532W        W84148  33.577  40.458   2.163
12533W        W84149  37.377  33.166   4.280
12534W        W84150  35.572  39.586  12.986
12535W        W84151  16.073  26.800  13.713
12536W        W84152   2.237  27.194   1.715
12537W        W84153   5.960   8.289  12.958
12538W        W84154  15.861  16.723   0.729
12539W        W84155   1.344  28.151  14.231
12540W        W84156  33.882  37.464   4.276
12541W        W84157  44.750  39.947   1.405
12542W        W84158  27.267  39.006  12.854
12543W        W84159  31.463  30.773  13.504
12544W        W84160  25.125   9.615   1.246
12545W        W84161  41.858  10.690   1.374
12546W        W84162  14.613  10.355  12.515
12547W        W84163  35.274  35.002   3.330
12548W        W84164  39.527  24.510  11.700
12549W        W84165  16.719  22.586   0.360
12550W        W84166   6.483  42.927  12.068
12551W        W84167  12.604  38.482  12.172
12552W        W84168  37.384  22.261   4.149
12553W        W84169   0.715  16.827   3.677
12554W        W84170  15.507  37.487  12.265
12555W        W84171  27.543   1.276   2.691
12556W        W84172  17.199  10.584  13.405
12557W        W84173  37.659   1.923  13.197
12558W        W84174  34.452  43.040  14.997
12559W        W84175  10.633  21.910   3.318
12560W        W84176  27.505   3.814  12.877
12561W        W84177   5.448  21.310   4.161
12562W        W84178  21.602  42.719  12.810
12563W        W84179  21.626   3.200   0.976
12564W        W84180  38.513  10.980   1.318
12565W        W84181   4.355  25.590  11.408
12566W        W84182   5.623  32.815  11.249
12567W        W84183  39.331  30.995   1.425
12568W        W84184  23.377  26.197  14.610
12569W        W84185   6.762  42.896   0.234
12570W        W84186  10.368  20.529  13.928
12571W        W84187  14.841  28.562  14.466
12572W        W84188  41.030  39.818   0.791
12573W        W84189  13.859  16.038   0.115
12574W        W84190   5.446   0.276   0.290
12575W        W84191  16.964  27.180   2.883
12576W        W84192  16.897  42.580  12.828
12577W        W84193  13.797  22.316  12.152
12578W        W84194  39.772  41.914   2.463
12579W        W84195  11.316  16.021   3.159
12580W        W84196  23.559  10.850   3.689
12581W        W84197  42.676   9.676  13.917
12582W        W84198  21.868  19.665   0.776
12583W        W84199  16.271  31.183  11.292
12584W        W84200  19.011  36.139  13.050
12585W        W84201  20.395  40.688   2.692
12586W        W84202  34.007  13.107   3.646
12587W        W84203  16.195   9.897   1.770
12588W        W84204   5.462  17.388  13.156
12589W        W84205  38.260   5.510  12.829
12590W        W84206  18.997  38.828  11.666
12591W        W84207  25.019  29.166  10.516
12592W        W84208  26.154  16.155   2.199
12593W        W84209  30.622  29.412   1.474
12594W        W84210  34.926  33.398  13.481
12595W        W84211  41.495  37.894   4.150
12596W        W84212   4.210  38.333  12.030
12597W        W84213  19.437   3.801  11.960
12598W        W84214  39.080  44.060   3.624
12599W        W84215  17.918  12.817  13.010
12600W        W84216  12.163  28.142   1.362
12601W        W84217   3.811   0.851   3.870
12602W        W84218  32.937  41.557  14.857
12603W        W84219  34.141  11.907   1.922
12604W        W84220  44.509  16.082   0.834
12605W        W84221  39.843  12.915   4.929
12606W        W84222  27.988  27.201  13.403
12607W        W84223  11.181  22.491  14.788
12608W        W84224  32.642  29.627   2.224
12609W        W84225  27.742  28.659   0.966
12610W        W84226   4.343  32.199   0.812
12611W        W84227  18.846  41.004   1.633
12612W        W84228  41.507  31.248  11.159
12613W        W84229  35.870  11.479  14.825
12614W        W84230  41.894  30.442   0.332
12615W        W84231  30.170  13.288  14.514
12616W        W84232   6.875  22.502   1.349
12617W        W84233  27.455   2.269   2.300
12618W        W84234  16.123  11.775   3.712
12619W        W84235   4.221  41.903   0.300
12620W        W84236  21.628  21.617   2.730
12621W        W84237  36.075  31.008   3.253
12622W        W84238  40.524  32.300  14.214
12623W        W84239  19.871   8.715   0.400
12624W        W84240  39.552  38.312   1.495
12625W        W84241  23.206  22.274   1.585
12626W        W84242   7.795   2.336   0.937
12627W        W84243   0.964  13.896  13.931
12628W        W84244  20.866  36.622   0.144
12629W        W84245  35.082  43.294  12.899
12630W        W84246  29.241  20.273   1.892
12631W        W84247  28.998  15.135   1.966
12632W        W84248  11.791  29.020   2.575
12633W        W84249  22.725  36.341  11.117
12634W        W84250   6.774  32.108   0.984
12635W        W84251  23.169  12.906  11.420
12636W        W84252  11.954  27.447   1.492
12637W        W84253   4.242  25.991   3.396
12638W        W84254  34.057  13.613  14.397
12639W        W84255   1.015  43.909   1.886
12640W        W84256  22.155  33.208  11.976
12641W        W84257  27.027  24.507   2.923
12642W        W84258  14.860  35.914   0.454
12643W        W84259   0.199  22.960  12.580
12644W        W84260  12.241  14.470  13.117
12645W        W84261   0.246  15.284  12.957
12646W        W84262  31.986  10.433  12.405
12647W        W84263  20.107  15.852  14.636
12648W        W84264  19.883  22.682  11.516
12649W        W84265  30.652   6.211   4.552
12650W        W84266  36.096  41.666   0.056
12651W        W84267   9.793  37.173  14.421
12652W        W84268  17.884  16.152  12.635
12653W        W84269  27.241  44.334  10.741
12654W        W84270  37.241  21.195   1.338
12655W        W84271  24.679  28.084   4.489
12656W        W84272  23.693  15.423  12.594
12657W        W84273  15.285  12.711   2.629
12658W        W84274  24.248  36.413   3.971
12659W        W84275   2.871   6.270  11.091
12660W        W84276  23.335  34.385   4.193
12661W        W84277  23.639  22.245  12.503
12662W        W84278  11.266   2.024  12.376
12663W        W84279   1.459  24.767  13.124
12664W        W84280  44.588  24.074  11.481
12665W        W84281  18.097  25.075   2.425
12666W        W84282  27.245  21.906  12.865
12667W        W84283   2.720  25.848  13.403
12668W        W84284  44.340  17.889   0.186
12669W        W84285  28.217   7.684  11.964
12670W        W84286  30.641   8.084   1.275
12671W        W84287  25.528  23.051  13.124
12672W        W84288  23.210  35.165  14.859
12673W        W84289  25.456  14.945  11.558
12674W        W84290  36.500  41.698  11.913
12675W        W84291  15.214   7.662  13.323
12676W        W84292  35.421  37.979  10.403
12677W        W84293  22.668  40.527   1.312
12678W        W84294  27.859  15.561   1.677
12679W        W84295   9.335   2.233   2.827
12680W        W84296  38.004  40.556   1.380
12681W        W84297  18.714  18.708  14.032
12682W        W84298  14.609   2.833   1.415
12683W        W84299   5.781  44.531   0.653
12684W        W84300   5.365  15.219  11.315
12685W        W84301  39.538  41.557   0.761
12686W        W84302   6.286  16.758  10.715
12687W        W84303  31.167  14.661   0.993
12688W        W84304  32.332   7.973   2.807
12689W        W84305  32.601  38.462   0.262
12690W        W84306  41.076   4.871   2.790
12691W        W84307  34.951  28.340   3.915
12692W        W84308  43.323  33.577  10.402
12693W        W84309   5.280  36.764   3.713
12694W        W84310   9.862  31.420  13.169
12695W        W84311  16.200  36.345   1.894
12696W        W84312  40.266  39.476   0.910
12697W        W84313  17.013  29.495   1.976
12698W        W84314   0.377  42.325   3.899
12699W        W84315  28.489  40.154  13.544
12700W        W84316  21.536  36.447   1.273
12701W        W84317  10.816  35.307  11.673
12702W        W84318  23.258   4.399   4.586
12703W        W84319  23.859   6.783  10.520
12704W        W84320  42.046  43.531   3.662
12705W        W84321  21.455  44.330  11.989
12706W        W84322  32.944  32.564   4.101
12707W        W84323  26.237  32.402   0.876
12708W        W84324  44.729  29.622   1.392
12709W        W84325  11.924  15.637  12.048
12710W        W84326   8.919  31.976  13.968
12711W        W84327  30.005  36.159   4.551
12712W        W84328  35.627   8.488   0.427
12713W        W84329  41.633  32.085   4.272
12714W        W84330  32.912  38.898   0.378
12715W        W84331  39.543   7.405  12.589
12716W        W84332   7.605  11.977  10.385
12717W        W84333  19.077  40.927   4.086
12718W        W84334  44.322  22.462   0.943
12719W        W84335  18.850   0.406  10.949
12720W        W84336  26.421  17.215   0.442
12721W        W84337   1.380  11.096  11.629
12722W        W84338  33.319   5.715  14.395
12723W        W84339  21.285   0.272   2.100
12724W        W84340  16.201  21.694  10.825
12725W        W84341  43.687  27.447  13.452
12726W        W84342  11.071  41.031  11.540
12727W        W84343  22.595  41.309   3.756
12728W        W84344   7.214   6.029  12.022
12729W        W84345  12.823  20.158  13.290
12730W        W84346  27.956  30.082   0.184
12731W        W84347  22.655  33.919   2.401
12732W        W84348   4.045  19.220   2.580
12733W        W84349  15.337  40.047   3.764
12734W        W84350  41.064   9.986  13.574
12735W        W84351  44.447  12.784  14.816
12736W        W84352  34.971  39.799   2.917
12737W        W84353   2.008  39.039   4.263
12738W        W84354   6.817  10.229   3.966
12739W        W84355   9.910  43.212  14.292
12740W        W84356  34.564  39.049  13.647
12741W        W84357  41.761  31.068  11.734
12742W        W84358  41.398  41.797   4.574
12743W        W84359  26.204   8.281  12.948
12744W        W84360  25.956  37.749  13.571
12745W        W84361   4.870  43.102  11.888
12746W        W84362   6.888   2.282   4.536
12747W        W84363  40.285  26.513   3.233
12748W        W84364  38.534   8.568   2.709
12749W        W84365  24.144  35.777  14.711
12750W        W84366   1.847  14.774   2.308
12751W        W84367  24.335  30.382  11.997
12752W        W84368   8.290   8.924   1.430
12753W        W84369  11.432  34.956   1.357
12754W        W84370  13.664  19.842   2.742
12755W        W84371  17.166  21.614   0.257
12756W        W84372  39.365  29.747  10.631
12757W        W84373  39.785  44.889   2.428
12758W        W84374  12.033  14.922  11.680
12759W        W84375  10.222  35.383   3.573
12760W        W84376  41.431  27.136   0.289
12761W        W84377  32.282  39.974  14.198
12762W        W84378  14.574  28.887   2.778
12763W        W84379  35.513  35.817  14.272
12764W        W84380  29.008   8.867  12.714
12765W        W84381  23.523  41.360   4.329
12766W        W84382   9.937  20.513  14.536
12767W        W84383  27.206   6.734   0.901
12768W        W84384  33.367  27.660   2.840
12769W        W84385   2.844  34.801  14.245
12770W        W84386  12.566  16.050   2.692
12771W        W84387  34.988   0.142   3.344
12772W        W84388  22.552  34.887   4.635
12773W        W84389  35.331   4.888   3.620
12774W        W84390   1.403  10.574  11.622
12775W        W84391  26.522  25.607  10.775
12776W        W84392   1.468  16.450  12.842
12777W        W84393   9.772  38.194  14.286
12778W        W84394  27.952  39.414   1.757
12779W        W84395  19.484   1.952   3.743
12780W        W84396  42.113  41.084  10.782
12781W        W84397  26.606  44.398   2.602
12782W        W84398  34.066   8.211  12.549
12783W        W84399  16.283   7.508   3.701
12784W        W84400   5.706  19.692  10.663
12785W        W84401   3.767  24.665   0.785
12786W        W84402  43.255  12.302   4.186
12787W        W84403  33.003   5.518  12.342
12788W        W84404  38.062  39.359   0.855
12789W        W84405  22.200  44.371   2.698
12790W        W84406   0.677  24.766  11.240
12791W        W84407  32.166  19.010  13.549
12792W        W84408  32.522   3.846   2.719
12793W        W84409   5.216  10.803   4.389
12794W        W84410  38.087  12.870  11.573
12795W        W84411  16.307  12.256   3.802
12796W        W84412  18.027  30.538   0.866
12797W        W84413  32.165   3.548   2.141
12798W        W84414  18.003   8.813  13.739
12799W        W84415  10.594  30.975  13.165
12800W        W84416  36.036  30.916  13.626
12801W        W84417  41.036   8.640   1.324
12802W        W84418  29.525  37.502   4.402
12803W        W84419  39.948   9.120   4.292
12804W        W84420  18.025  14.553   0.505
12805W        W84421  33.933  15.899  11.502
12806W        W84422  19.789  11.401   1.299
12807W        W84423  30.745  29.629  10.790
12808W        W84424   0.056  43.363  10.714
12809W        W84425  19.186  29.338  12.214
12810W        W84426  19.437  21.199   2.334
12811W        W84427   0.048  32.935   1.210
12812W        W84428  30.354  14.390  10.853
12813W        W84429  10.771  42.042  14.353
12814W        W84430  19.692  13.325   0.011
12815W        W84431   3.914   5.264   4.561
12816W        W84432  29.723  39.805   4.621
12817W        W84433  37.306   0.014   3.695
12818W        W84434  44.527  27.505  13.919
12819W        W84435  33.007  18.577   2.240
12820W        W84436  30.086  44.510   1.289
12821W        W84437  26.614  43.392  13.797
12822W        W84438  42.696  18.222   2.775
12823W        W84439  20.090  17.997  13.062
12824W        W84440  31.299   2.417  14.020
12825W        W84441  19.137  22.406  14.405
12826W        W84442   2.724  28.611  13.888
12827W        W84443  15.345  25.412   0.941
12828W        W84444  29.471  36.315  12.944
12829W        W84445  40.587  10.961   4.052
12830W        W84446   4.936  42.110   0.944
12831W        W84447  28.607   4.810  13.415
12832W        W84448  16.550  14.330   3.811
12833W        W84449  23.618  37.712   4.253
12834W        W84450  13.221  30.585  13.263
12835W        W84451  13.864  20.400   1.714
12836W        W84452  35.521  40.825  11.483
12837W        W84453  41.260   9.631   0.884
12838W        W84454  44.225  34.475   1.674
12839W        W84455  27.545  20.948   2.677
12840W        W84456  31.101  24.507  14.296
12841W        W84457   4.810   7.952  11.217
12842W        W84458  43.573   5.114  14.457
12843W        W84459  29.140  34.940   2.578
12844W        W84460   8.151  12.597   1.314
12845W        W84461  38.728  13.803   1.942
12846W        W84462  43.542  41.400  14.841
12847W        W84463   8.711  32.133   3.326
12848W        W84464  30.411   9.275  11.615
12849W        W84465  15.733  24.991   3.445
12850W        W84466   9.652   4.355   0.864
12851W        W84467   6.488  39.875  10.731
12852W        W84468  35.983   6.328   2.837
12853W        W84469  29.835  12.335  10.800
12854W        W84470  35.809  13.656   3.231
12855W        W84471  35.890  22.401  11.566
12856W        W84472  36.055  27.396  13.921
12857W        W84473   6.831  44.477  11.597
12858W        W84474  26.060  24.110  12.380
12859W        W84475  40.825  24.956  10.589
12860W        W84476  39.978  20.116   3.224
12861W        W84477  27.526  11.794   0.317
12862W        W84478   6.061  22.239   4.044
12863W        W84479  15.354  34.130  12.587
12864W        W84480   3.375  27.744  12.418
12865W        W84481  20.843  29.554   4.166
12866W        W84482  41.773  38.283  11.964
12867W        W84483  10.438  36.108  12.446
12868W        W84484  10.490   9.913  12.051
12869W        W84485   0.291   1.204  14.512
12870W        W84486  40.403  12.147  10.707
12871W        W84487  39.283   9.186   1.362
12872W        W84488  27.519  16.332   4.940
12873W        W84489  40.862   1.892  10.715
12874W        W84490  31.811   1.241   4.821
12875W        W84491  15.837  36.511   2.394
12876W        W84492  33.334  31.509   9.817
12877W        W84493   1.016  27.675  11.989
12878W        W84494   1.400   9.169  12.158
12879W        W84495  17.731  21.740  10.742
12880W        W84496  36.459   1.705  11.693
12881W        W84497  43.319  44.238  10.120
12882W        W84498  25.934  21.772   3.674
12883W        W84499   8.235   3.232  14.681
12884W        W84500   7.530  37.366  13.562
12885W        W84501  41.497  15.503   2.301
12886W        W84502  29.671   9.983  12.924
12887W        W84503  27.783  40.865   2.297
12888W        W84504   3.228  29.580   3.157
12889W        W84505  27.413  41.333   1.374
12890W        W84506  30.864  27.966  14.364
12891W        W84507  38.086   4.677  13.819
12892W        W84508   7.701  39.662  14.384
12893W        W84509  19.164  44.811  10.617
12894W        W84510   6.306  16.319  14.484
12895W        W84511  17.348  34.970  14.910
12896W        W84512  31.632  24.021  11.492
12897W        W84513  21.286  17.130  12.932
12898W        W84514  31.010  11.389  13.923
12899W        W84515  20.918   4.747   3.681
12900W        W84516  41.250   2.189   1.318
12901W        W84517  11.870  26.758   1.654
12902W        W84518  13.408  41.859  11.111
12903W        W84519  42.893  17.726   3.607
12904W        W84520   0.467  25.083   1.699
12905W        W84521   9.740   7.332  14.491
12906W        W84522   1.713  39.348  12.861
12907W        W84523  13.618  21.715  13.889
12908W        W84524   7.685  40.383   1.373
12909W        W84525  27.916  20.657  13.306
12910W        W84526  22.762   4.843   4.257
12911W        W84527   0.148  10.626   3.414
12912W        W84528  32.415  25.759   3.555
12913W        W84529  27.012  24.169  14.280
12914W        W84530   8.957  23.027   0.823
12915W        W84531  38.970   1.083   9.735
12916W        W84532  41.825   0.983   4.546
12917W        W84533  37.624   3.153   1.301
12918W        W84534  26.308  13.231   3.648
12919W        W84535  15.946  18.090   0.490
12920W        W84536  41.282  32.959  14.994
12921W        W84537  44.376  17.000  14.390
12922W        W84538   4.190  13.403  10.984
12923W        W84539  38.105  22.005   0.362
12924W        W84540   0.452  35.015   2.477
12925W        W84541  17.374  21.062  12.576
12926W        W84542  40.383  11.147   9.959
12927W        W84543  16.296   1.939   2.655
12928W        W84544  37.510  22.988   4.671
12929W        W84545  28.526   9.883   2.740
12930W        W84546  39.548  42.379   1.519
12931W        W84547  11.654  40.973   0.842
12932W        W84548  12.863  33.498   2.187
12933W        W84549  21.127  16.652  11.684
12934W        W84550  20.471   7.412  12.102
12935W        W84551  43.789  14.841   0.962
12936W        W84552   1.034  37.039   2.244
12937W        W84553  40.938   2.955  11.002
12938W        W84554  16.294  26.543   4.094
12939W        W84555  29.724  11.746   0.607
12940W        W84556  42.701  12.237   2.763
12941W        W84557  40.125  30.851   3.128
12942W        W84558  32.350  23.043   1.669
12943W        W84559  16.114  38.726  11.135
12944W        W84560  43.778  32.786   1.329
12945W        W84561   8.712   9.708  13.166
12946W        W84562  43.314   2.361   4.929
12947W        W84563  30.086  44.294  13.330
12948W        W84564  16.536  21.713   4.631
12949W        W84565  37.655  28.967  11.915
12950W        W84566   3.047  24.626  11.507
12951W        W84567  38.551  14.435   3.119
12952W        W84568  33.464  25.709  14.118
12953W        W84569  44.415  25.504  13.004
12954W        W84570  15.589  10.763  14.062
12955W        W84571  42.933   2.514   4.565
12956W        W84572  14.273  41.284   4.995
12957W        W84573   0.671  33.538  10.746
12958W        W84574  24.182  33.311   4.720
12959W        W84575   8.352   9.743   0.446
12960W        W84576   4.244  34.159  12.926
12961W        W84577  15.553   6.338   4.597
12962W        W84578  44.262  40.001  14.297
12963W        W84579  38.595  22.674  10.926
12964W        W84580  24.561   5.185   3.149
12965W        W84581  26.875   3.743  14.232
12966W        W84582  27.031  13.333  10.144
12967W        W84583  32.991  26.568   3.446
12968W        W84584  26.203  37.449  10.839
12969W        W84585  39.475   7.723  13.417
12970W        W84586  10.025  31.084  11.590
12971W        W84587  20.717   5.500   4.544
12972W        W84588  42.478  17.806   1.853
12973W        W84589  20.225  44.965   3.219
12974W        W84590  35.788  24.588   0.814
12975W        W84591  36.529  30.485   5.073
12976W        W84592  16.615   6.410  14.333
12977W        W84593  34.497  12.783   3.886
12978W        W84594  30.952  40.563   0.980
12979W        W84595  26.155  26.938   2.696
12980W        W84596   6.625  27.681  14.912
12981W        W84597  32.604  41.429   0.660
12982W        W84598  36.567  40.824   4.154
12983W        W84599   1.759  18.795  12.951
12984W        W84600  25.989   6.143  11.116
12985W        W84601  27.725  32.117   2.805
12986W        W84602   1.276   8.120  13.536
12987W        W84603   3.777   4.605  12.484
12988W        W84604  32.125  26.438   0.444
12989W        W84605  37.930  13.340   4.228
12990W        W84606  19.633  37.096   2.693
12991W        W84607  18.390  37.878   3.238
12992W        W84608   4.155  21.266   1.414
12993W        W84609  25.262  22.192  11.596
12994W        W84610   0.937  20.450  13.843
12995W        W84611  44.304  18.476   0.787
12996W        W84612   5.391  43.434  10.791
12997W        W84613   4.903   4.894  10.075
12998W        W84614  37.314   4.416  11.903
12999W        W84615  35.419  43.043  11.665
13000W        W84616   2.456  34.083   3.247
13001W        W84617  33.000  18.016   4.454
13002W        W84618  27.673   4.236   1.341
13003W        W84619  11.585  43.804   2.192
13004W        W84620  27.875   2.271   3.249
13005W        W84621  32.125  15.501   1.524
13006W        W84622  26.278   6.938  14.623
13007W        W84623  18.674  35.775   2.820
13008W        W84624   6.485  37.921  14.822
13009W        W84625  41.843  39.806  12.017
13010W        W84626  35.088  39.967   1.447
13011W        W84627  18.988  29.111   2.868
13012W        W84628  18.810  41.872  11.516
13013W        W84629  31.163   3.312   4.823
13014W        W84630   4.662  38.754  14.961
13015W        W84631  43.418  24.981   1.895
13016W        W84632   1.203   8.003   1.240
13017W        W84633  17.518   5.169   3.948
13018W        W84634   0.913  23.011   9.822
13019W        W84635   8.646  17.750   0.888
13020W        W84636  39.510  17.175  12.973
13021W        W84637  23.470  15.148  12.986
13022W        W84638  39.919  21.312  13.456
13023W        W84639  22.572   5.843   3.681
13024W        W84640  28.966  24.653  12.884
13025W        W84641  29.861   1.846  13.392
13026W        W84642  25.084   7.393  11.151
13027W        W84643  41.545  38.918  14.133
13028W        W84644  44.351  40.980  14.984
13029W        W84645   7.207  31.223  13.553
13030W        W84646   1.333  31.904  14.275
13031W        W84647   7.700  44.840  12.452
13032W        W84648  12.142  30.126  12.409
13033W        W84649   0.984   0.927  10.664
13034W        W84650  18.218  12.170   1.332
13035W        W84651  25.159  30.125  11.493
13036W        W84652  10.865  26.679   1.349
13037W        W84653  40.330  27.095   3.639
13038W        W84654  27.534  16.033   4.053
13039W        W84655  40.875   0.516   3.166
13040W        W84656  41.325  36.957   0.795
13041W        W84657  36.445   5.143  13.093
13042W        W84658  36.769  21.165   1.125
13043W        W84659  34.500  12.842   3.361
13044W        W84660  34.311  32.416  12.175
13045W        W84661  31.335  44.487  14.930
13046W        W84662  14.128  37.555  11.037
13047W        W84663  28.637  35.822  11.168
13048W        W84664   4.761  26.537  14.674
13049W        W84665  22.828  21.208   2.846
13050W        W84666   8.714   8.125   4.919
13051W        W84667  36.117  33.978  13.856
13052W        W84668  40.505  23.183   0.068
13053W        W84669  12.275  21.304   2.082
13054W        W84670   2.086  26.622  11.991
13055W        W84671  24.295   4.875  13.459
13056W        W84672   1.970  36.498  12.486
13057W        W84673  23.917   1.720   1.948
13058W        W84674  24.546   1.278  10.593
13059W        W84675  14.884   5.000  14.874
13060W        W84676  21.617  22.433   2.285
13061W        W84677  33.644  30.068   2.394
13062W        W84678  31.201   2.827   0.278
13063W        W84679  20.112   8.325   1.216
13064W        W84680  21.113  17.540  14.060
13065W        W84681  42.530   0.310  11.526
13066W        W84682  10.276  28.681   0.884
13067W        W84683  21.480  12.105   4.512
13068W        W84684   9.609  10.817  12.360
13069W        W84685  10.863  22.189   4.318
13070W        W84686  12.777  10.716   1.793
13071W        W84687  26.442  30.603   5.066
13072W        W84688  31.594  40.326  11.755
13073W        W84689  39.843   5.603  11.072
13074W        W84690  12.206  19.518   1.301
13075W        W84691   5.725  35.540   1.708
13076W        W84692  23.927   3.348   4.102
13077W        W84693  40.074  14.584  10.440
13078W        W84694  43.279  33.597  13.458
13079W        W84695  25.102  11.718  14.024
13080W        W84696  34.351  14.229   0.071
13081W        W84697  16.219  21.434  14.769
13082W        W84698   5.139  14.390   2.412
13083W        W84699  14.884  30.690  11.660
13084W        W84700  29.823  35.944  13.017
13085W        W84701  27.943  40.325  14.277
13086W        W84702  19.256  28.640   1.327
13087W        W84703  28.572  14.601   1.754
13088W        W84704  11.662  11.237  13.841
13089W        W84705  27.266  20.047  14.922
13090W        W84706   3.925  31.230  11.608
13091W        W84707  12.303   4.643   0.273
13092W        W84708   5.591  26.123   1.258
13093W        W84709  38.486  43.967  13.341
13094W        W84710  23.738  11.191  11.259
13095W        W84711  32.559   3.804   4.674
13096W        W84712  37.867  43.683   3.699
13097W        W84713  20.637  20.800  14.748
13098W        W84714  44.240  15.176   2.742
13099W        W84715   7.366  14.850  13.010
13100W        W84716   1.668  11.688   4.603
13101W        W84717  37.436  31.945  14.389
13102W        W84718   1.994  17.291  10.734
13103W        W84719  25.188  30.997  11.083
13104W        W84720  17.836  18.064  11.792
13105W        W84721  26.593  12.642  14.757
13106W        W84722   5.394  21.364  11.590
13107W        W84723   0.083  15.757  13.792
13108W        W84724   3.003   8.362   2.922
13109W        W84725  37.330  14.181  11.461
13110W        W84726  32.821  43.754   0.694
13111W        W84727  41.519  22.500   2.117
13112W        W84728  18.753   5.328   2.274
13113W        W84729   0.744  11.358  13.253
13114W        W84730  14.855   2.830  12.053
13115W        W84731  19.066  20.017  11.107
13116W        W84732   5.685  17.240   2.547
13117W        W84733  12.231   3.908  14.426
13118W        W84734  28.127  30.898   1.678
13119W        W84735   2.774   3.893  11.670
13120W        W84736  27.562  33.464  14.843
13121W        W84737  11.519   0.579   4.373
13122W        W84738  11.804  34.239   4.366
13123W        W84739  35.472  34.537  14.922
13124W        W84740  21.197  18.358   1.688
13125W        W84741  23.683  25.132   3.704
13126W        W84742  14.166  32.803   2.806
13127W        W84743  23.974   8.232   1.885
13128W        W84744   8.642  29.328  14.555
13129W        W84745  16.251  39.594   3.588
13130W        W84746   0.591  14.236  14.069
13131W        W84747   8.951  34.515   1.899
13132W        W84748  33.853  24.944  14.414
13133W        W84749  36.315  34.077   2.228
13134W        W84750  44.924  27.628   3.934
13135W        W84751   4.415  12.630  10.656
13136W        W84752  26.947  27.080   3.185
13137W        W84753  15.351   4.444  10.689
13138W        W84754   6.649  26.143  11.137
13139W        W84755  16.647  25.233   4.478
13140W        W84756   3.379  16.148   4.220
13141W        W84757  18.665  21.960  13.365
13142W        W84758  37.577  25.020   0.531
13143W        W84759  30.920  43.041   0.461
13144W        W84760  25.191   3.922   4.270
13145W        W84761   3.282  14.876   0.861
13146W        W84762  36.502  31.708  14.440
13147W        W84763  17.981  37.390   3.625
13148W        W84764  14.317  22.990   1.441
13149W        W84765  36.785  36.951   0.888
13150W        W84766  17.152  29.970   2.239
13151W        W84767  25.726  13.939  11.480
13152W        W84768  23.503  44.225  11.478
13153W        W84769   0.361  38.558  10.454
13154W        W84770  10.302  32.873  13.449
13155W        W84771   3.860  24.600  11.132
13156W        W84772  38.885  32.452  12.493
13157W        W84773   8.619  32.827  12.551
13158W        W84774   6.338   0.686   3.197
13159W        W84775  19.196  42.402   0.931
13160W        W84776  33.855  11.589  10.321
13161W        W84777  38.306  12.026   2.699
13162W        W84778  25.230  39.725   0.422
13163W        W84779   2.962  33.485   0.445
13164W        W84780  13.306  25.090   0.088
13165W        W84781  29.701   8.635  12.102
13166W        W84782   2.294  32.381   1.345
13167W        W84783  12.355  40.502   1.757
13168W        W84784  38.710  17.327   5.119
13169W        W84785   8.600   0.708   0.797
13170W        W84786  16.452  11.266  13.195
13171W        W84787  38.516   0.188  10.703
13172W        W84788   7.233  35.979   2.616
13173W        W84789   9.902  30.595  13.573
13174W        W84790  22.443  38.960   2.731
13175W        W84791  24.127  11.102   0.846
13176W        W84792  36.527  27.551  11.152
13177W        W84793  36.374  29.761   3.313
13178W        W84794  36.796  14.212   4.232
13179W        W84795  15.256   1.254   4.686
13180W        W84796  22.172  37.293   2.504
13181W        W84797  25.395  34.762   0.709
13182W        W84798  38.795   7.759  12.995
13183W        W84799   5.289  26.192  13.923
13184W        W84800  37.480  17.721   4.573
13185W        W84801  24.216   5.809   4.702
13186W        W84802   5.202  20.845   4.106
13187W        W84803  41.802  17.560  11.779
13188W        W84804  12.232  35.528   2.655
13189W        W84805  31.929   7.947  10.711
13190W        W84806   4.769   6.516   0.465
13191W        W84807  16.153  21.062   2.471
13192W        W84808  26.491  19.224   0.879
13193W        W84809  38.424  33.023  10.576
13194W        W84810  11.496  23.023  13.544
13195W        W84811   6.184  20.250  12.584
13196W        W84812  42.861  37.872  14.862
13197W        W84813  17.725  41.559   2.804
13198W        W84814  41.109  28.063   5.114
13199W        W84815  40.012  38.661  13.608
13200W        W84816  29.060  20.693  14.083
13201W        W84817  16.845  26.404   3.189
13202W        W84818  15.759  16.304   1.414
13203W        W84819  37.355   5.370   3.896
13204W        W84820  10.425   7.448   1.701
13205W        W84821  22.945   8.314  14.337
13206W        W84822  29.886  24.657   3.871
13207W        W84823  21.850  15.183  11.995
13208W        W84824  29.696  35.761   1.456
13209W        W84825  33.745   6.298   0.774
13210W        W84826  14.692  35.148  12.338
13211W        W84827  32.172   2.160   0.857
13212W        W84828  32.579   7.608  13.417
13213W        W84829  15.564  27.181  10.518
13214W        W84830   5.900  42.913   2.738
13215W        W84831   0.666  40.000   4.416
13216W        W84832  38.603   6.782   0.059
13217W        W84833   1.102  36.036   3.605
13218W        W84834   6.357  34.932   4.802
13219W        W84835  32.407  42.002  13.989
13220W        W84836  29.822  13.352   2.377
13221W        W84837   4.724  20.744  11.364
13222W        W84838  15.096   4.313  11.091
13223W        W84839  30.601   7.343  13.333
13224W        W84840  37.306  41.980  13.900
13225W        W84841  44.689  31.931  12.938
13226W        W84842  35.528   0.519   0.452
13227W        W84843  33.818  21.275   1.741
13228W        W84844  13.122  21.268   4.596
13229W        W84845   9.907  37.833  11.070
13230W        W84846  29.994  42.802  10.939
13231W        W84847  33.558   4.563  10.151
13232W        W84848  20.936   1.237   2.218
13233W        W84849  20.635   3.497   4.846
13234W        W84850  26.510  31.184  12.414
13235W        W84851  10.106  18.330  12.490
13236W        W84852   0.390  14.830  12.424
13237W        W84853   6.037  22.131   2.329
13238W        W84854   6.438  28.259  11.610
13239W        W84855  30.915  12.763   1.799
13240W        W84856  18.507  40.770   1.293
13241W        W84857  24.988  17.111   2.457
13242W        W84858  35.697   7.704   2.069
13243W        W84859  28.035  17.644  10.956
13244W        W84860  27.489  37.097  10.715
13245W        W84861  25.620  10.626  13.438
13246W        W84862  31.909   4.533  12.909
13247W        W84863  33.553   4.198   2.414
13248W        W84864  32.662   8.937  14.807
13249W        W84865  19.721  10.093   4.671
13250W        W84866  23.668   5.667   0.978
13251W        W84867  32.318  39.302  12.032
13252W        W84868  19.158  42.056   4.618
13253W        W84869  40.420  15.814  13.142
13254W        W84870  31.675  44.155   4.208
13255W        W84871  37.811   1.958   1.313
13256W        W84872  41.710  42.372  13.922
13257W        W84873  37.584   5.718  14.968
13258W        W84874  26.948  15.883   1.062
13259W        W84875  33.786  22.608  11.731
13260W        W84876  14.372  41.915  14.238
13261W        W84877  12.322  41.408   0.238
13262W        W84878  37.455  31.313  13.496
13263W        W84879  21.509   4.843  10.402
13264W        W84880  24.068  42.023  14.746
13265W        W84881  29.000  26.975  11.102
13266W        W84882  18.726  44.574  13.330
13267W        W84883  18.576   3.718  10.544
13268W        W84884   3.945   8.921   1.973
13269W        W84885  15.311   4.780  11.166
13270W        W84886  41.435  39.369  11.478
13271W        W84887  35.983  42.480   4.043
13272W        W84888  19.249  25.101   2.418
13273W        W84889  10.107  31.007  13.360
13274W        W84890   2.854  43.889  14.833
13275W        W84891  34.622   9.689   1.574
13276W        W84892   6.650  33.454   1.735
13277W        W84893  14.792  39.378   4.637
13278W        W84894  34.644  37.997   2.179
13279W        W84895  28.623   5.900   3.331
13280W        W84896   4.767  13.269  12.719
13281W        W84897   2.403  44.472   4.723
13282W        W84898  27.686  10.760  12.379
13283W        W84899  18.278  15.639  12.549
13284W        W84900  24.196  24.538   0.368
13285W        W84901  39.297  12.111  12.630
13286W        W84902  43.407  16.584  13.515
13287W        W84903  35.118   6.869   3.841
13288W        W84904  42.672  19.096  14.676
13289W        W84905  21.536  40.793   3.650
13290W        W84906  34.640  13.230  10.976
13291W        W84907  10.948  30.384   1.170
13292W        W84908  22.916   0.460  11.116
13293W        W84909  26.494  11.719  12.433
13294W        W84910  31.242   3.674  14.370
13295W        W84911  42.049  27.301  12.479
13296W        W84912   3.530  32.620   1.318
13297W        W84913   6.867  23.717  14.751
13298W        W84914  42.474  18.091   2.326
13299W        W84915  41.516  42.092  12.167
13300W        W84916  18.212  34.481  12.237
13301W        W84917   9.246  28.450   2.875
13302W        W84918  44.023  12.080  13.484
13303W        W84919  25.066  34.992   1.046
13304W        W84920   0.284  27.586  14.465
13305W        W84921  20.673  21.851  13.975
13306W        W84922  19.153  19.259  12.884
13307W        W84923  39.777  28.083  12.601
13308W        W84924  32.196  34.463   0.401
13309W        W84925  41.491  20.198  11.579
13310W        W84926  17.510  24.983  10.453
13311W        W84927   6.936  23.686  14.260
13312W        W84928  42.644  10.438   3.742
13313W        W84929  39.013  37.734  13.835
13314W        W84930   6.045  39.341   1.255
13315W        W84931  37.315   9.174  11.194
13316W        W84932   5.350   1.807  14.809
13317W        W84933  34.126  15.666   3.723
13318W        W84934  18.457  21.331  12.083
13319W        W84935   3.858  23.571  11.597
13320W        W84936  11.944   2.883  14.961
13321W        W84937  19.635  19.755   3.013
13322W        W84938  44.197  15.042  14.390
13323W        W84939  31.951  11.120  14.966
13324W        W84940  23.279  38.671   1.347
13325W        W84941  20.953  37.426   2.860
13326W        W84942  25.672   7.774  14.858
13327W        W84943  12.830  27.552  14.513
13328W        W84944  22.027  16.834  10.789
13329W        W84945  36.604  10.764  13.998
13330W        W84946  29.624   0.415  13.054
13331W        W84947  25.325  25.454   4.204
13332W        W84948   2.673  12.213   2.012
13333W        W84949   1.761  18.460  13.921
13334W        W84950  38.561  19.032   2.921
13335W        W84951  30.180  16.827  11.668
13336W        W84952  12.722   1.703   0.845
13337W        W84953  20.188  35.980  12.490
13338W        W84954  17.236  32.801   2.478
13339W        W84955  23.243  13.423  13.569
13340W        W84956  21.008  14.752  14.105
13341W        W84957  12.862  15.770  13.900
13342W        W84958  31.744  13.759  11.137
13343W        W84959  15.944   4.936   4.608
13344W        W84960  11.152   8.797   2.689
13345W        W84961  32.991   6.972  14.878
13346W        W84962  41.581  16.605  14.842
13347W        W84963   5.793  20.757   4.523
13348W        W84964  35.868  10.129  11.631
13349W        W84965  42.487  38.526   4.699
13350W        W84966  43.947  42.156   0.781
13351W        W84967   5.723  44.312   1.137
13352W        W84968  13.750   5.028  11.336
13353W        W84969  31.323  22.258   4.900
13354W        W84970  25.027  25.199   3.283
13355W        W84971  37.864  44.905  14.384
13356W        W84972   2.743   5.243  13.932
13357W        W84973  13.017  35.329   3.233
13358W        W84974  40.422  11.265   3.671
13359W        W84975  25.691  17.056   2.915
13360W        W84976  14.136  30.713  12.704
13361W        W84977  20.547  36.392   2.845
13362W        W84978   1.363  10.577  12.501
13363W        W84979  40.914   5.618  13.991
13364W        W84980  39.820   3.703  13.541
13365W        W84981   6.815   5.542   1.871
13366W        W84982  25.938  26.167   0.653
13367W        W84983  35.476  25.492   3.404
13368W        W84984  18.368  13.197   1.054
13369W        W84985  10.679  29.299  12.904
13370W        W84986   3.970  31.884   3.620
13371W        W84987  37.412   5.900   1.428
13372W        W84988  20.752  35.430  11.188
13373W        W84989  33.986  14.519   3.068
13374W        W84990  11.378  34.872   3.424
13375W        W84991  35.644  39.936   3.875
13376W        W84992  40.820  32.035  10.671
13377W        W84993  29.539  22.369   0.438
13378W        W84994  23.243   2.218   3.802
13379W        W84995   8.607  38.992   2.697
13380W        W84996   6.344  11.527  11.554
13381W        W84997  29.367  26.959  13.907
13382W        W84998   8.580  26.003   0.957
13383W        W84999  29.612  25.631   2.132
13384W        W85000  17.381  17.309   5.086
13385W        W85001  25.997  13.821   4.327
13386W        W85002  26.426  44.486  11.462
13387W        W85003  11.567  41.928   0.761
13388W        W85004  12.699  23.596  14.415
13389W        W85005  39.282  14.597   4.546
13390W        W85006   2.328  37.050  11.971
13391W        W85007  30.173  34.039   2.873
13392W        W85008  29.911  18.746   0.281
13393W        W85009  34.233  11.283   2.313
13394W        W85010   2.514  32.417  14.745
13395W        W85011  23.149  13.575  14.933
13396W        W85012  29.418  25.622  11.014
13397W        W85013   9.743  38.870   4.174
13398W        W85014  32.423  15.345  12.475
13399W        W85015  24.965  38.591   1.763
13400W        W85016  37.453  31.822  13.508
13401W        W85017   1.931   1.709   0.921
13402W        W85018  13.882  43.750  11.972
13403W        W85019  13.163  30.935   1.321
13404W        W85020   8.739   4.742  11.873
13405W        W85021  23.270  22.613  12.379
13406W        W85022  34.615   1.461   2.664
13407W        W85023  34.803  12.797  12.334
13408W        W85024  20.028  35.489   1.205
13409W        W85025  26.189  27.780   2.974
13410W        W85026  12.860  40.875  14.464
13411W        W85027  24.603  30.399   2.209
13412W        W85028  39.756  21.077   3.130
13413W        W85029   5.773   2.528   3.074
13414W        W85030  20.712  23.467   3.532
13415W        W85031   1.409  34.815  13.996
13416W        W85032  19.499  26.386   2.153
13417W        W85033  33.392  36.238   1.549
13418W        W85034   5.737  32.282  13.987
13419W        W85035  13.884  38.421  11.363
13420W        W85036  28.698  42.802   1.347
13421W        W85037  14.746  10.324  13.797
13422W        W85038   1.974  40.088   4.554
13423W        W85039  30.055   0.137   0.374
13424W        W85040  10.218  40.597   0.382
13425W        W85041  42.459  40.724  10.504
13426W        W85042  16.224  43.036  11.575
13427W        W85043  42.368   8.774   4.504
13428W        W85044  22.879  11.462  12.604
13429W        W85045  20.202  39.125   3.520
13430W        W85046  21.114   1.043  14.326
13431W        W85047  29.537   6.329   0.470
13432W        W85048  20.197  12.054  13.427
13433W        W85049  33.024   4.752  13.713
13434W        W85050  25.405  40.867   0.406
13435W        W85051  36.745   0.857   5.059
13436W        W85052  24.449  43.009   0.429
13437W        W85053  11.323  22.090   3.862
13438W        W85054  11.843  37.094  10.711
13439W        W85055  17.511   9.357   2.208
13440W        W85056   6.328  14.348   1.766
13441W        W85057  22.634   5.924   2.827
13442W        W85058   1.919   1.319   3.290
13443W        W85059  26.201  30.821  10.650
13444W        W85060   4.001   9.300  12.408
13445W        W85061  21.283  26.686  10.648
13446W        W85062  27.401  40.423  12.934
13447W        W85063  40.791  35.144  11.623
13448W        W85064  20.077  36.868  10.661
13449W        W85065  28.125  23.736  12.028
13450W        W85066  15.115  39.468   2.432
13451W        W85067   9.811  32.033   4.129
13452W        W85068  26.550  12.844   2.210
13453W        W85069  30.971  17.104  12.427
13454W        W85070  28.523  25.695   3.928
13455W        W85071   9.763  39.560  13.089
13456W        W85072  36.488  17.274  14.507
13457W        W85073  31.495  41.119  14.695
13458W        W85074  36.472  37.743  14.440
13459W        W85075  34.145  18.026  10.984
13460W        W85076   1.582  25.821  11.350
13461W        W85077  42.982  20.550   2.297
13462W        W85078  13.938   8.073   1.555
13463W        W85079  16.288  20.648   1.618
13464W        W85080  30.416   8.249   1.719
13465W        W85081  40.428  43.277  11.745
13466W        W85082  33.031   9.766  14.904
13467W        W85083   5.241  17.223  11.983
13468W        W85084  28.340  43.121   0.272
13469W        W85085  20.004  10.327  11.885
13470W        W85086  35.569   5.497   1.789
13471W        W85087  27.466  26.295   4.232
13472W        W85088   8.654   1.534   2.418
13473W        W85089  26.258   1.821  13.424
13474W        W85090  34.208   2.512  10.440
13475W        W85091  11.334  35.287   3.103
13476W        W85092   3.325   3.930   4.648
13477W        W85093   9.611  41.799  12.864
13478W        W85094  28.026  18.831   4.718
13479W        W85095  24.837  35.577   0.233
13480W        W85096  37.014  37.288  14.929
13481W        W85097  41.267  13.405  12.981
13482W        W85098  26.940  27.755   1.419
13483W        W85099   4.258  14.522  12.969
13484W        W85100  11.425  34.521   4.608
13485W        W85101  18.631  31.942   2.808
13486W        W85102   8.754  17.665   3.679
13487W        W85103  33.226  16.270  13.368
13488W        W85104  36.451  35.051  11.395
13489W        W85105  18.146   2.943   0.372
13490W        W85106  21.123  28.480   1.446
13491W        W85107  24.996  35.355   3.260
13492W        W85108  15.321  42.412   3.261
13493W        W85109  31.978  35.370  10.978
13494W        W85110  18.096  32.448  10.658
13495W        W85111  10.775  14.615  10.778
13496W        W85112  10.341  22.745   3.140
13497W        W85113  27.701   2.475   0.888
13498W        W85114  25.211  26.899  13.080
13499W        W85115   6.720  13.253  11.582
13500W        W85116  41.553   2.973   3.844
13501W        W85117  26.421   5.660   1.840
13502W        W85118   3.923   3.764  14.043
13503W        W85119   1.761  44.673   2.464
13504W        W85120   7.926  18.294   1.791
13505W        W85121  11.456  31.635   1.265
13506W        W85122  21.532  14.726  14.069
13507W        W85123   5.011  24.012   4.017
13508W        W85124  16.804  26.131   3.806
13509W        W85125  13.575  40.518  10.976
13510W        W85126  36.550  21.965   4.161
13511W        W85127  17.595  41.057   2.827
13512W        W85128  34.707  17.758  14.095
13513W        W85129   8.688   9.375  10.531
13514W        W85130  32.324  32.048   5.022
13515W        W85131  34.747  26.418  10.675
13516W        W85132  27.445  19.979  14.446
13517W        W85133  43.761  26.276   2.945
13518W        W85134  27.480  39.827   2.418
13519W        W85135  12.190  17.206   4.429
13520W        W85136   2.608   4.232  14.920
13521W        W85137   7.201   3.373  12.495
13522W        W85138  29.415  26.427  14.818
13523W        W85139  20.281  37.586  11.520
13524W        W85140  21.543  37.990   4.172
13525W        W85141   9.419   1.946  12.082
13526W        W85142  32.917  13.745   4.642
13527W        W85143  39.281  10.189  11.800
13528W        W85144  36.120  37.496   1.169
13529W        W85145   6.042  37.054  13.000
13530W        W85146   3.853   8.208  11.593
13531W        W85147  11.175  26.627  11.554
13532W        W85148  13.623  20.190   4.801
13533W        W85149  14.286  10.594  13.830
13534W        W85150   2.973  28.842   0.882
13535W        W85151  11.879  34.912  14.614
13536W        W85152  19.162  34.004  14.834
13537W        W85153  14.248  30.897  12.207
13538W        W85154  39.396  38.910   4.438
13539W        W85155  26.530   3.182  12.987
13540W        W85156   7.839  16.724   1.689
13541W        W85157  23.652  11.763  13.760
13542W        W85158  30.875  36.491   3.553
13543W        W85159   6.369  13.639  13.533
13544W        W85160  30.099   2.255  12.037
13545W        W85161  33.006   8.873   3.799
13546W        W85162  18.280  13.850   4.838
13547W        W85163  23.056  36.985  13.845
13548W        W85164  11.895  18.031   4.274
13549W        W85165  34.448  23.772  14.899
13550W        W85166  41.932  38.856  14.965
13551W        W85167  32.462  20.324  10.996
13552W        W85168   7.671   7.821   2.918
13553W        W85169  26.913  29.311   3.428
13554W        W85170  31.789  13.255  13.283
13555W        W85171  22.317   3.216   1.674
13556W        W85172   8.830  43.974   2.295
13557W        W85173   3.741  18.253   2.684
13558W        W85174  31.548  18.023  14.906
13559W        W85175  35.205  30.518  13.908
13560W        W85176   3.284  21.019   3.463
13561W        W85177  18.801  21.791  12.062
13562W        W85178  10.904  30.764   1.545
13563W        W85179   4.988  16.705  13.410
13564W        W85180  18.951  36.654  12.951
13565W        W85181  11.870  14.297   0.397
13566W        W85182  23.510  33.909   4.091
13567W        W85183  27.497  25.003  11.578
13568W        W85184  10.950   9.875  12.293
13569W        W85185  28.533  42.465   2.378
13570W        W85186   5.703  42.874   1.716
13571W        W85187  11.150  14.301  11.889
13572W        W85188   7.291  33.905  13.905
13573W        W85189  35.480  26.290  11.298
13574W        W85190  11.703  37.990   1.911
13575W        W85191  27.951  39.866  10.225
13576W        W85192  19.132   7.758   3.280
13577W        W85193   5.878  21.529   1.661
13578W        W85194  38.599   7.694   0.440
13579W        W85195   0.160   1.343   3.453
13580W        W85196  25.591  24.135   2.458
13581W        W85197  16.495  17.063   2.329
13582W        W85198  40.516  41.304   1.722
13583W        W85199  37.277  13.226  13.898
13584W        W85200  16.047   0.896  13.385
13585W        W85201  11.861  33.647   2.909
13586W        W85202   4.313  12.437  11.166
13587W        W85203  22.412  28.956  12.029
13588W        W85204   3.435   0.893   0.774
13589W        W85205  27.427  11.200  12.397
13590W        W85206  30.861  22.805   3.782
13591W        W85207  13.122  14.859   2.631
13592W        W85208  22.470  25.415   3.386
13593W        W85209  30.003  29.411  10.274
13594W        W85210  25.556  34.924  11.473
13595W        W85211  18.820  34.117   1.267
13596W        W85212  17.618  42.348  13.532
13597W        W85213  26.136  32.066  12.922
13598W        W85214  19.230  20.653   3.348
13599W        W85215  37.326  41.135  12.129
13600W        W85216  13.121  22.120   2.396
13601W        W85217  27.195  39.846   1.408
13602W        W85218  18.550  37.677  11.209
13603W        W85219   1.853  31.105   3.564
13604W        W85220  19.022  28.617  12.699
13605W        W85221   7.289  32.880  14.792
13606W        W85222  27.049  33.337   0.013
13607W        W85223  20.855  44.014   0.346
13608W        W85224  18.436  43.796  11.054
13609W        W85225  23.081   0.241  10.672
13610W        W85226  29.089  42.767   1.687
13611W        W85227  26.707  10.694   1.320
13612W        W85228  30.345  26.394   5.043
13613W        W85229  21.068  18.815   1.408
13614W        W85230  25.854  41.382  13.854
13615W        W85231  23.110  31.678  11.420
13616W        W85232   3.096  38.365   2.233
13617W        W85233  25.478   8.592   0.254
13618W        W85234  19.016  14.770  13.955
13619W        W85235  13.548  41.911  13.332
13620W        W85236   4.141  32.602  13.136
13621W        W85237  36.894  19.583   1.282
13622W        W85238  44.258  28.372   4.662
13623W        W85239  44.850  33.445   4.589
13624W        W85240  11.231  36.626  14.382
13625W        W85241  20.341  31.135  11.392
13626W        W85242  13.674   5.308   4.410
13627W        W85243  20.061  40.020  12.471
13628W        W85244  23.644   8.306   2.853
13629W        W85245  32.522  11.539   1.261
13630W        W85246  21.397  31.932  11.571
13631W        W85247  21.320   3.087  11.873
13632W        W85248   9.412  36.123  14.788
13633W        W85249   4.010  29.530  14.357
13634W        W85250   7.654  17.182  12.460
13635W        W85251  23.413  26.855   0.503
13636W        W85252  33.738  44.516   3.112
13637W        W85253  22.571   7.635   4.124
13638W        W85254  18.062  25.587   0.750
13639W        W85255  18.463  25.164  13.160
13640W        W85256  21.778  27.827  11.190
13641W        W85257   1.199  44.796   0.160
13642W        W85258  23.940  44.113  14.795
13643W        W85259  32.550  36.584  13.505
13644W        W85260  36.520  27.895  12.579
13645W        W85261  17.769  31.063   3.709
13646W        W85262  32.999  32.167   3.759
13647W        W85263   7.660  10.331  11.593
13648W        W85264  36.804  39.133   0.418
13649W        W85265  41.277  43.928   4.660
13650W        W85266  19.035   1.355  14.013
13651W        W85267  22.489  41.791   1.901
13652W        W85268  33.082  20.616   3.243
13653W        W85269  43.567  24.024  14.261
13654W        W85270  13.016  43.743  14.188
13655W        W85271  22.781  30.464  12.077
13656W        W85272  37.107   2.956  13.912
13657W        W85273  30.968   7.000   2.463
13658W        W85274  14.841  13.435   2.798
13659W        W85275   0.216  40.575   0.801
13660W        W85276  19.879  33.070   1.432
13661W        W85277  39.532  21.543   0.226
13662W        W85278  22.282  34.223   2.179
13663W        W85279   8.465  40.305  14.333
13664W        W85280  10.354   0.856   1.466
13665W        W85281  14.190  13.531  13.803
13666W        W85282  23.144  20.062   1.015
13667W        W85283  36.929  34.082   1.419
13668W        W85284   8.846  16.690  14.032
13669W        W85285  25.060   5.391  13.057
13670W        W85286  34.396  16.103   3.691
13671W        W85287  43.309  35.349  12.096
13672W        W85288   6.167  31.968  11.941
13673W        W85289  27.117   4.237  13.595
13674W        W85290  30.147  11.144   0.007
13675W        W85291  39.958  21.519   3.332
13676W        W85292   4.883  14.152   2.813
13677W        W85293   2.321   7.118  14.833
13678W        W85294  11.791   0.008   1.229
13679W        W85295  22.105  40.854  14.564
13680W        W85296  29.554  25.455  13.040
13681W        W85297  14.713   7.703   0.472
13682W        W85298  26.624   3.502  12.515
13683W        W85299  26.606  33.476  13.790
13684W        W85300  22.769   0.018  12.378
13685W        W85301   4.238  15.413   0.703
13686W        W85302  17.011  26.549   4.613
13687W        W85303  37.386  35.011  14.250
13688W        W85304   9.084  14.742   4.879
13689W        W85305  41.023  27.434   0.734
13690W        W85306  33.040   6.466   3.177
13691W        W85307  32.705   2.314   4.573
13692W        W85308   6.150  33.637  12.168
13693W        W85309   4.715  31.361   2.886
13694W        W85310  39.887  38.167  13.832
13695W        W85311   5.770  21.143   4.907
13696W        W85312   4.452  20.507   1.010
13697W        W85313  13.552  21.535   4.705
13698W        W85314   2.310  35.846   1.839
13699W        W85315  12.824   5.477  14.891
13700W        W85316  31.351  24.022  11.056
13701W        W85317   2.862  28.779   2.721
13702W        W85318  31.417  23.987  12.385
13703W        W85319  28.669  17.797   3.597
13704W        W85320  30.929  10.751  14.270
13705W        W85321  17.211  24.523  12.528
13706W        W85322  28.974   6.905   3.112
13707W        W85323  20.579  32.878   2.206
13708W        W85324  30.986  16.036  14.268
13709W        W85325   6.954   7.629  14.856
13710W        W85326  27.759  27.495  13.019
13711W        W85327  30.708  21.430   4.128
13712W        W85328  14.761  30.255  10.610
13713W        W85329  26.491  36.839  12.485
13714W        W85330  28.534   7.372  13.276
13715W        W85331   9.539  24.745  13.413
13716W        W85332  24.736  15.049   2.733
13717W        W85333  35.855   5.336   3.565
13718W        W85334   6.412   0.873  11.050
13719W        W85335   6.884  14.054   3.960
13720W        W85336  19.240  24.446  11.161
13721W        W85337  22.247   1.887   2.722
13722W        W85338  34.169  18.559   4.151
13723W        W85339   5.595  28.287  13.140
13724W        W85340  13.170  14.196  12.983
13725W        W85341   6.088  37.854   0.197
13726W        W85342  35.049   3.734  13.904
13727W        W85343  23.135  33.543  12.657
13728W        W85344  40.428  40.044  13.442
13729W        W85345  17.346  25.700  13.779
13730W        W85346  24.734  27.081   1.914
13731W        W85347  35.680  37.778  13.869
13732W        W85348  16.779  44.305   3.384
13733W        W85349  13.677  14.777  13.026
13734W        W85350  18.122   4.000   3.679
13735W        W85351  16.272   4.653   4.235
13736W        W85352   2.486  20.624  11.504
13737W        W85353  15.626  27.929   3.643
13738W        W85354  32.361  10.257  11.692
13739W        W85355   2.488  34.286  11.555
13740W        W85356   1.023  18.072  11.132
13741W        W85357  42.789  11.280   4.907
13742W        W85358  35.010   8.682  12.329
13743W        W85359  34.890  13.762   4.657
13744W        W85360  26.493  12.275  12.917
13745W        W85361  25.562  15.776  12.670
13746W        W85362   5.632  38.081   3.270
13747W        W85363  13.273  28.571   3.236
13748W        W85364  26.459  35.458  11.364
13749W        W85365   8.671  30.441   0.119
13750W        W85366   4.255   7.558  13.160
13751W        W85367  37.819  11.629  12.515
13752W        W85368   9.160  28.298  13.500
13753W        W85369   5.859   0.894  11.918
13754W        W85370  19.986  27.262   0.781
13755W        W85371  33.740  22.336  14.378
13756W        W85372  27.143  18.346   4.092
13757W        W85373   8.842  35.844  13.977
13758W        W85374   6.775  17.500  10.697
13759W        W85375  41.900  43.576  14.442
13760W        W85376  11.343  43.552   3.408
13761W        W85377  28.040  10.863   1.449
13762W        W85378  36.078   7.778   1.267
13763W        W85379  15.181   3.411   5.275
13764W        W85380  16.514  30.478   0.951
13765W        W85381   3.168  33.844  11.569
13766W        W85382  12.547   2.447   2.864
13767W        W85383   0.727   6.982  12.003
13768W        W85384   3.973   6.692   3.036
13769W        W85385  33.367  29.949   3.238
13770W        W85386   3.674  35.203  12.091
13771W        W85387   0.608  12.083  14.533
13772W        W85388  37.259   5.681   4.650
13773W        W85389  40.474  34.926  14.214
13774W        W85390  26.438   5.365   0.675
13775W        W85391  14.656  44.164  10.378
13776W        W85392  12.069   2.422   3.009
13777W        W85393  43.593  27.546   0.778
13778W        W85394  41.934  28.992  11.094
13779W        W85395   7.602  31.960   3.153
13780W        W85396  27.351  14.327   2.202
13781W        W85397   7.418  28.144  10.079
13782W        W85398  35.903  31.070   3.734
13783W        W85399  17.767  37.657  13.867
13784W        W85400  33.195  37.098   1.273
13785W        W85401  34.434  40.414  13.386
13786W        W85402  14.526   5.335  12.392
13787W        W85403  30.733  36.102   3.234
13788W        W85404   5.114  17.099   1.164
13789W        W85405  41.830   3.931   4.782
13790W        W85406  20.779  12.639   4.088
13791W        W85407   2.730  10.338   4.354
13792W        W85408  17.599   1.753  13.417
13793W        W85409   9.252  33.113  10.638
13794W        W85410  33.596  15.678  14.299
13795W        W85411  15.697  30.183  12.379
13796W        W85412   3.269  36.153  11.605
13797W        W85413   2.421  40.085   2.003
13798W        W85414  35.047  32.571   2.972
13799W        W85415  21.658  22.681   2.747
13800W        W85416  43.734   2.964   0.081
13801W        W85417  37.002  35.464   2.305
13802W        W85418  34.456  29.357   2.228
13803W        W85419  15.849  13.338   0.430
13804W        W85420   0.080  33.138   3.147
13805W        W85421   6.441  19.897   5.078
13806W        W85422   4.353  12.034   0.958
13807W        W85423  25.297  14.029  10.202
13808W        W85424  39.473  15.348  12.947
13809W        W85425   8.405   4.924  13.532
13810W        W85426  41.747   0.528   4.773
13811W        W85427  30.724  16.852   0.427
13812W        W85428  14.314  19.059   0.783
13813W        W85429  25.096  12.334  10.748
13814W        W85430  19.104   2.868  14.266
13815W        W85431  43.536   9.398   3.976
13816W        W85432  34.509  21.299  10.336
13817W        W85433   7.707  29.644   4.140
13818W        W85434   0.300   8.961  11.590
13819W        W85435   4.185   3.575  13.583
13820W        W85436  22.097   7.917   4.159
13821W        W85437   3.070   4.004   4.172
13822W        W85438  33.886   4.876  13.389
13823W        W85439  26.945  26.120   0.934
13824W        W85440   8.329   1.834  10.722
13825W        W85441  33.928  39.799  10.463
13826W        W85442  30.184  44.249  11.947
13827W        W85443  12.232  20.642   3.385
13828W        W85444  27.111  43.271   0.013
13829W        W85445   9.087  14.218   1.893
13830W        W85446  20.834  18.157  10.625
13831W        W85447  17.084  41.527  11.366
13832W        W85448   5.125  20.254   3.770
13833W        W85449   5.705  41.363   1.750
13834W        W85450  25.979   9.377  12.485
13835W        W85451   8.213   2.382   4.379
13836W        W85452   3.242   6.914   2.267
13837W        W85453  20.770  15.157  13.830
13838W        W85454  36.992  18.256   2.217
13839W        W85455  11.641  29.125   3.543
13840W        W85456   7.443  20.264  12.971
13841W        W85457  17.578   9.372   0.437
13842W        W85458  31.873  41.575  14.735
13843W        W85459  16.015   9.170   2.290
13844W        W85460   4.909  22.038  13.744
13845W        W85461  23.105  20.996   4.677
13846W        W85462  23.540  29.135  13.761
13847W        W85463  36.819   6.458  11.530
13848W        W85464   3.516   4.905  12.066
13849W        W85465  10.680  33.684  13.531
13850W        W85466  12.138  14.020   2.735
13851W        W85467  14.795   6.344   5.377
13852W        W85468  19.276  44.203   2.355
13853W        W85469  40.039  10.226   3.417
13854W        W85470  27.207  24.387   2.438
13855W        W85471  38.381  26.808   4.158
13856W        W85472  22.751  15.129   4.570
13857W        W85473  39.076  43.296  12.288
13858W        W85474  21.629   7.633   0.858
13859W        W85475  40.582  20.604   0.186
13860W        W85476  32.028  21.267  13.047
13861W        W85477  37.417  34.013   1.277
13862W        W85478  22.485  11.320  14.306
13863W        W85479  24.803  18.527  14.075
13864W        W85480  38.508  38.394   1.629
13865W        W85481  19.461   8.593  12.764
13866W        W85482  30.775  18.585   3.112
13867W        W85483  32.861  21.105   3.172
13868W        W85484  26.616   3.946   0.622
13869W        W85485  32.639   4.479   1.988
13870W        W85486  31.114  29.588  11.763
13871W        W85487  27.118  42.752  11.429
13872W        W85488  13.581  41.429   1.641
13873W        W85489  21.764  32.294   3.776
13874W        W85490  15.055  18.417   0.290
13875W        W85491   5.648  10.117   0.493
13876W        W85492  23.538  33.657   1.857
13877W        W85493  41.993   1.113   2.684
13878W        W85494  39.980  42.806  14.449
13879W        W85495  42.191   7.387  12.624
13880W        W85496  27.392  15.832   4.864
13881W        W85497  28.663  38.743   1.905
13882W        W85498  29.139  15.080  10.244
13883W        W85499  28.080   5.678  14.782
13884W        W85500  12.883  18.636   0.042
13885W        W85501  10.226  41.038  12.590
13886W        W85502  16.729  29.524  11.945
13887W        W85503   8.193  24.277   0.206
13888W        W85504   2.274  44.792  12.412
13889W        W85505   2.725  20.163   3.320
13890W        W85506   4.287   8.042   3.593
13891W        W85507  38.067  14.947   3.387
13892W        W85508  20.192  35.519   2.666
13893W        W85509  21.124  44.907   4.907
13894W        W85510  40.764   4.151  11.975
13895W        W85511  34.235  29.382   3.566
13896W        W85512  33.270  23.037   4.223
13897W        W85513  42.798  21.301   2.705
13898W        W85514  14.716  29.302   1.454
13899W        W85515  19.181  12.796  11.613
13900W        W85516  44.338  33.653   3.787
13901W        W85517  37.393  14.557   1.151
13902W        W85518  31.457   9.189  11.616
13903W        W85519   6.321   3.104   4.176
13904W        W85520  43.206   4.327   3.726
13905W        W85521  41.332  38.447   4.457
13906W        W85522  42.054  21.301   5.129
13907W        W85523  22.283  20.529   2.260
13908W        W85524  28.495  33.556  10.286
13909W        W85525  29.469  14.972  13.597
13910W        W85526  26.052  20.297  11.406
13911W        W85527  38.768  42.474  11.332
13912W        W85528  24.161  21.159  12.508
13913W        W85529  44.484  43.871   2.652
13914W        W85530  17.287  44.465  10.509
13915W        W85531  26.343  34.369  10.065
13916W        W85532  22.825  17.550  14.789
13917W        W85533  44.434  14.527  14.424
13918W        W85534  29.707  39.186  11.580
13919W        W85535   5.921  26.962   2.950
13920W        W85536  32.354  17.212  11.099
13921W        W85537   8.380  14.663  12.044
13922W        W85538  19.028   4.265   3.776
13923W        W85539  39.862  38.619  14.084
13924W        W85540   4.163  14.264   2.214
13925W        W85541  36.880  27.013  11.619
13926W        W85542  40.399  33.628  11.591
13927W        W85543  42.274  23.974  13.868
13928W        W85544  21.832  40.377   1.717
13929W        W85545  17.726  22.428  13.349
13930W        W85546  21.507  16.605  12.016
13931W        W85547  11.811  15.551  11.076
13932W        W85548  39.061  35.296   2.845
13933W        W85549  27.143  21.980   3.126
13934W        W85550  38.269   5.695  12.341
13935W        W85551  43.092  11.253   1.966
13936W        W85552  35.605  17.130   2.851
13937W        W85553  39.502  37.550   2.764
13938W        W85554   7.621  36.292   3.215
13939W        W85555  13.617  39.928   4.605
13940W        W85556  34.163   3.528  12.423
13941W        W85557   4.825   6.187   5.591
13942W        W85558  13.111   7.870   3.663
13943W        W85559  23.157  33.574  14.054
13944W        W85560  40.622   3.069  12.835
13945W        W85561  36.326  20.169   4.017
13946W        W85562  39.080   3.756  14.037
13947W        W85563   7.713  37.706  14.537
13948W        W85564   2.340  13.088   1.339
13949W        W85565   8.793   9.688   4.800
13950W        W85566  12.893  11.095  13.056
13951W        W85567  11.292   3.180   3.243
13952W        W85568   1.332   5.566   2.864
13953W        W85569  43.777  30.995   1.741
13954W        W85570  30.663  23.068  12.999
13955W        W85571  11.705  29.642   1.810
13956W        W85572   9.652  40.082  10.748
13957W        W85573  36.456  28.503   4.568
13958W        W85574  35.151   8.286   0.583
13959W        W85575  26.108  15.894  10.910
13960W        W85576  11.241  39.484   1.992
13961W        W85577  23.942  28.066  14.915
13962W        W85578  38.373  19.314  14.091
13963W        W85579   9.267  26.134   4.148
13964W        W85580   6.651  43.992  10.862
13965W        W85581   0.850  22.448  11.625
13966W        W85582  43.929   5.187  12.515
13967W        W85583  44.823  28.196  12.120
13968W        W85584  31.829  42.524  12.483
13969W        W85585  36.552  33.453   4.327
13970W        W85586  28.535  21.695  10.417
13971W        W85587  16.575  41.983   3.548
13972W        W85588  19.558  36.994  11.573
13973W        W85589  44.594  32.071   5.080
13974W        W85590  15.581  27.212  12.514
13975W        W85591  42.912   3.543   3.316
13976W        W85592   3.825  40.563   0.940
13977W        W85593  21.051  27.004   3.273
13978W        W85594   4.849  38.032   1.164
13979W        W85595  29.589  13.420  10.686
13980W        W85596  26.629  20.101  13.891
13981W        W85597  24.367   2.265  12.941
13982W        W85598  33.885  22.510   0.777
13983W        W85599  28.184  24.051   1.275
13984W        W85600  15.551  12.128   4.172
13985W        W85601   6.009   3.005   2.247
13986W        W85602  36.477  17.798   1.458
13987W        W85603   3.310  30.640   4.551
13988W        W85604  26.134  19.562   3.235
13989W        W85605  44.318   5.524   0.062
13990W        W85606  29.160  33.449  11.642
13991W        W85607  18.759   1.089  13.657
13992W        W85608  41.311   0.847   4.568
13993W        W85609  28.736  41.054   1.909
13994W        W85610  15.539  18.138   4.290
13995W        W85611  34.491  10.172   5.134
13996W        W85612  29.343  38.892   4.705
13997W        W85613  36.514  34.522   3.365
13998W        W85614  32.996  10.664   4.386
13999W        W85615  33.894   7.071   1.415
14000W        W85616  17.280   9.090   4.183
14001W        W85617  26.991  12.569   0.395
14002W        W85618  37.550  32.910   1.682
14003W        W85619  28.571  40.286   3.146
14004W        W85620  44.467  39.516   4.262
14005W        W85621  36.908  44.429   3.224
14006W        W85622  32.131  16.668   3.282
14007W        W85623   4.517  11.764   3.548
14008W        W85624   9.823   7.563   2.733
14009W        W85625  27.556  40.533   0.670
14010W        W85626   7.925   3.945  12.861
14011W        W85627  37.331  33.339  14.892
14012W        W85628  40.195   0.181   0.866
14013W        W85629  19.348  16.106  13.933
14014W        W85630  40.023  41.207  14.324
14015W        W85631  17.391  18.189  13.516
14016W        W85632  13.668  36.343  14.517
14017W        W85633  12.088  28.406   3.176
14018W        W85634   9.560  35.231   0.921
14019W        W85635   1.910  28.530  11.228
14020W        W85636  22.944   4.743  13.779
14021W        W85637  20.100   6.995   4.626
14022W        W85638  16.826  32.904  11.086
14023W        W85639  31.952  30.677   5.069
14024W        W85640  17.269  13.882  14.020
14025W        W85641   6.264  42.075  11.162
14026W        W85642  27.252  41.920  14.265
14027W        W85643  17.034  27.377   1.088
14028W        W85644  24.573  23.947   4.577
14029W        W85645  31.541  36.589   4.751
14030W        W85646  31.618  38.633  14.964
14031W        W85647  24.553  35.949  14.995
14032W        W85648  28.893  34.749  12.126
14033W        W85649  21.206  40.039   0.639
14034W        W85650  32.396  10.633   2.331
14035W        W85651  21.182  14.554   1.271
14036W        W85652  31.960  25.296  14.366
14037W        W85653   7.698  17.394  10.696
14038W        W85654  35.813  29.852  14.231
14039W        W85655  34.741  36.730  11.148
14040W        W85656  26.942  38.426   1.803
14041W        W85657  19.193  18.201  14.757
14042W        W85658  43.675  28.457   0.275
14043W        W85659  35.913  31.829  12.829
14044W        W85660  20.290   2.975  11.569
14045W        W85661  22.020   0.885   0.774
14046W        W85662   0.477  16.489  13.938
14047W        W85663  33.073  38.480  13.993
14048W        W85664  25.264   9.054  14.863
14049W        W85665  14.580  38.075   5.071
14050W        W85666   7.727  28.650   2.229
14051W        W85667   3.965  12.356  13.851
14052W        W85668  22.689  14.701  11.081
14053W        W85669  19.635  16.414   4.188
14054W        W85670  39.743   9.912   2.660
14055W        W85671   7.685  43.559  14.934
14056W        W85672  11.251   8.516  10.972
14057W        W85673  27.030  22.528   3.985
14058W        W85674  19.454   5.110   2.821
14059W        W85675  39.433  34.086  13.560
14060W        W85676   7.564  15.769  13.446
14061W        W85677  30.774   7.928  11.541
14062W        W85678  24.585  30.158  13.578
14063W        W85679  30.495   3.402   4.092
14064W        W85680  27.755  15.123  11.105
14065W        W85681   4.329  21.635  14.229
14066W        W85682  12.235  40.430  10.661
14067W        W85683   0.492  13.614   0.390
14068W        W85684  25.472  36.302  12.830
14069W        W85685  31.502  44.386  14.440
14070W        W85686  24.636  25.761  12.482
14071W        W85687  39.528  36.946   1.861
14072W        W85688  37.657   0.757   2.011
14073W        W85689  34.245  27.399   3.028
14074W        W85690   6.748  15.808   4.620
14075W        W85691   1.265   4.961   0.807
14076W        W85692  43.286  27.908   5.320
14077W        W85693  24.536   9.141   3.513
14078W        W85694  26.965  23.010   3.189
14079W        W85695   5.732   2.347   0.386
14080W        W85696  40.505   0.031  12.385
14081W        W85697  11.764  40.072  11.365
14082W        W85698  33.029  19.562  13.362
14083W        W85699  35.893  36.027   4.690
14084W        W85700  35.650  25.067   0.710
14085W        W85701   9.757  30.168   4.021
14086W        W85702  33.551  38.411   0.199
14087W        W85703  29.568  31.639  11.976
14088W        W85704   9.126  42.257  14.908
14089W        W85705  22.746  28.122  13.463
14090W        W85706  22.720  13.853  14.857
14091W        W85707  18.270   0.707   3.827
14092W        W85708  10.313  43.729  14.565
14093W        W85709  40.962  20.948  10.254
14094W        W85710  32.444  20.261   4.807
14095W        W85711   5.887  31.777   0.872
14096W        W85712  29.175  42.837  13.961
14097W        W85713  24.330  24.629  10.987
14098W        W85714   8.753   2.880  11.502
14099W        W85715  10.373  26.157  10.517
14100W        W85716  35.423  40.073   4.898
14101W        W85717  17.020  41.476  14.324
14102W        W85718  22.578  18.497   3.705
14103W        W85719  23.753   2.569   0.727
14104W        W85720  42.828   8.647   0.974
14105W        W85721   0.706  23.513   4.478
14106W        W85722   1.536  34.885   3.843
14107W        W85723   4.832  33.820   0.760
14108W        W85724   5.685  22.146   0.335
14109W        W85725   2.964   7.602  10.799
14110W        W85726   5.576  14.130   1.251
14111W        W85727  13.917  44.750  14.234
14112W        W85728  37.344  36.299  12.667
14113W        W85729   0.343  18.661   3.639
14114W        W85730  11.094   2.565  10.652
14115W        W85731   3.775   0.753  11.995
14116W        W85732  12.701  25.543  11.152
14117W        W85733  29.603  40.049   1.820
14118W        W85734  19.158  12.783   0.020
14119W        W85735   5.285   9.912   3.752
14120W        W85736  15.231   3.651   2.870
14121W        W85737  43.469  34.319   5.085
14122W        W85738  16.304  27.712  11.507
14123W        W85739  33.804  30.111  13.846
14124W        W85740  19.245   1.716   4.187
14125W        W85741  32.125  42.953   0.509
14126W        W85742  24.626   8.699  12.389
14127W        W85743  37.125  36.188  13.846
14128W        W85744  27.671  29.739  10.696
14129W        W85745  19.700   2.506   1.963
14130W        W85746  22.220  40.184  14.369
14131W        W85747  30.327  12.442  14.459
14132W        W85748  19.222  10.435  13.070
14133W        W85749  38.399  13.671   9.846
14134W        W85750   9.827  25.163  13.311
14135W        W85751  11.366  39.399   1.452
14136W        W85752  30.223  29.618  10.745
14137W        W85753  14.277  40.384  10.623
14138W        W85754  27.172  12.264  11.449
14139W        W85755  16.728  11.656  13.394
14140W        W85756  24.569  33.769  11.111
14141W        W85757  17.371  35.234   1.264
14142W        W85758  34.131   8.114   2.247
14143W        W85759  18.545   2.833   4.555
14144W        W85760   8.989  39.417   3.774
14145W        W85761  14.794  15.655  13.524
14146W        W85762  21.971  31.966  13.853
14147W        W85763  31.532  28.259  14.540
14148W        W85764   6.205  27.943  10.747
14149W        W85765  22.470  33.032  11.610
14150W        W85766   3.838  32.197  13.063
14151W        W85767  20.460  22.412  14.807
14152W        W85768  42.065   1.968  11.667
14153W        W85769  38.807  19.783   1.923
14154W        W85770  23.937  37.909  12.019
14155W        W85771  28.686  43.712  11.289
14156W        W85772   4.634  13.783  10.167
14157W        W85773  13.784  16.352  13.823
14158W        W85774  23.249  26.471  11.986
14159W        W85775  11.429   2.779   2.317
14160W        W85776  31.393  23.183  13.421
14161W        W85777  16.527   1.457   2.761
14162W        W85778  19.737  10.071   1.341
14163W        W85779  27.085  15.554  11.213
14164W        W85780  17.048  27.674   2.774
14165W        W85781  11.528  14.843  11.617
14166W        W85782  10.361  41.782  11.086
14167W        W85783   7.411  32.674   1.016
14168W        W85784  16.856   5.690  13.821
14169W        W85785   5.693  36.791   2.604
14170W        W85786   2.337  34.311   4.992
14171W        W85787  41.780   9.583  12.963
14172W        W85788  30.991   6.410  13.580
14173W        W85789  30.296  19.582   0.549
14174W        W85790  13.745  15.386   1.797
14175W        W85791  10.353  42.707  11.081
14176W        W85792  22.113   5.612  11.584
14177W        W85793  30.974  38.035  12.899
14178W        W85794  16.192  22.758   3.398
14179W        W85795  43.806  23.030   4.246
14180W        W85796  17.773  37.356   1.258
14181W        W85797   5.721  25.678   0.984
14182W        W85798  35.586   4.282  11.618
14183W        W85799  38.808  19.770  13.590
14184W        W85800  14.053   8.714   2.094
14185W        W85801   6.346  12.279   0.846
14186W        W85802  40.242  44.422   1.226
14187W        W85803   3.276  15.144  13.947
14188W        W85804  13.507  11.555   2.263
14189W        W85805  23.121  40.264  11.379
14190W        W85806  15.243   5.198  13.460
14191W        W85807  21.018  10.974   0.366
14192W        W85808  18.494  33.713   3.847
14193W        W85809  12.574   8.330  13.973
14194W        W85810  39.114  42.326   0.016
14195W        W85811  42.910  20.523  14.486
14196W        W85812  38.398   2.250   2.334
14197W        W85813  13.742   0.379  11.379
14198W        W85814   2.394   4.361   2.882
14199W        W85815  36.089  14.143  11.894
14200W        W85816   5.876  29.410  11.238
14201W        W85817  30.934  33.115   3.638
14202W        W85818  42.962   7.593   3.159
14203W        W85819   7.316   2.190  14.324
14204W        W85820   1.781  25.594  10.493
14205W        W85821  32.517  30.404   5.492
14206W        W85822   6.738  17.153   1.377
14207W        W85823  39.469  16.510  10.735
14208W        W85824  27.241   9.265  12.991
14209W        W85825  25.150   8.651   1.464
14210W        W85826  32.342  23.976  14.064
14211W        W85827  23.055  41.283  14.517
14212W        W85828  42.513  15.107  11.443
14213W        W85829  25.698   4.254  12.345
14214W        W85830  43.944  12.800   3.199
14215W        W85831   9.279  12.466   9.968
14216W        W85832  40.908  43.717  14.382
14217W        W85833  39.997  32.663   4.448
14218W        W85834  23.667   4.414  12.515
14219W        W85835   1.405  26.584   3.866
14220W        W85836  10.814  43.561  14.407
14221W        W85837  17.902   6.318   4.227
14222W        W85838  15.468  13.790  14.886
14223W        W85839  42.884  41.852   0.002
14224W        W85840  12.126  14.033  10.714
14225W        W85841   3.402   1.227   4.138
14226W        W85842  27.592  36.186  14.290
14227W        W85843  16.142  36.324  11.309
14228W        W85844  41.263  32.727  10.868
14229W        W85845   7.444  17.390   0.919
14230W        W85846  39.452  11.615   4.559
14231W        W85847  37.579   5.786   3.635
14232W        W85848  41.264  36.578   4.188
14233W        W85849   1.201  10.211   4.429
14234W        W85850   1.350  22.715   0.149
14235W        W85851   7.290  24.478   4.674
14236W        W85852  11.692  33.775  12.531
14237W        W85853   4.730  13.234   0.384
14238W        W85854   3.833   8.257  14.793
14239W        W85855  16.586  30.506   2.925
14240W        W85856  43.389  15.558   4.307
14241W        W85857  41.936  29.035  10.236
14242W        W85858  12.216  31.055   3.774
14243W        W85859  43.911   0.426   2.618
14244W        W85860  36.904  35.070  14.503
14245W        W85861  37.554   4.335  12.882
14246W        W85862  26.406  14.238   2.234
14247W        W85863   1.339  34.973  13.498
14248W        W85864  35.326  40.064  11.983
14249W        W85865  24.496  25.426   4.630
14250W        W85866  40.452  36.613  11.574
14251W        W85867  34.760  16.756   2.742
14252W        W85868  35.853  37.426   0.025
14253W        W85869  13.716   0.355  10.378
14254W        W85870  40.419   7.732   1.248
14255W        W85871  41.986  41.074   4.310
14256W        W85872  11.877  10.358  10.839
14257W        W85873  27.511   8.873   2.437
14258W        W85874  29.433  14.814   0.331
14259W        W85875  25.445  40.908   3.151
14260W        W85876  40.365  29.356   2.335
14261W        W85877   0.969  33.531  14.223
14262W        W85878  28.182  18.475  13.961
14263W        W85879   7.897  35.516  12.924
14264W        W85880  42.867  31.703   2.761
14265W        W85881  23.700  18.133  13.163
14266W        W85882  26.767  17.141   0.873
14267W        W85883  15.600  43.804  12.481
14268W        W85884  43.898  29.572  10.541
14269W        W85885  22.767  32.091   2.748
14270W        W85886  34.808   6.405   1.782
14271W        W85887  10.756   6.106  13.314
14272W        W85888  41.883  31.092  12.229
14273W        W85889  33.990   1.775  12.909
14274W        W85890  17.637  39.831  10.764
14275W        W85891  19.282  35.282   2.737
14276W        W85892  31.939  41.939   3.359
14277W        W85893  14.112  27.336   0.730
14278W        W85894  25.883  39.184   3.747
14279W        W85895   3.421  10.556   1.050
14280W        W85896  32.122  28.001  14.890
14281W        W85897  16.949   8.934  11.014
14282W        W85898  10.634   9.293   4.608
14283W        W85899  24.685  44.778  14.620
14284W        W85900  33.444  21.788   0.022
14285W        W85901   8.838   9.467  13.642
14286W        W85902  28.406   8.218  11.055
14287W        W85903  26.498  38.711  11.197
14288W        W85904   9.682  13.172   0.269
14289W        W85905  18.935  34.600   4.613
14290W        W85906   7.564   2.145  12.577
14291W        W85907  16.086  44.769   3.781
14292W        W85908   0.559  29.101   0.926
14293W        W85909  32.651  30.626  11.281
14294W        W85910   8.801  28.282   5.042
14295W        W85911   6.380  33.665  14.987
14296W        W85912  39.376  37.032   3.380
14297W        W85913  21.734  33.937  12.068
14298W        W85914  19.695   5.282  12.126
14299W        W85915  24.345  28.173  13.048
14300W        W85916  14.602  30.160   2.406
14301W        W85917  40.005  17.133  12.795
14302W        W85918  38.769   6.291   1.873
14303W        W85919  40.102  37.121  11.207
14304W        W85920  31.677  37.415   4.573
14305W        W85921   0.390   5.194  11.089
14306W        W85922  13.741  29.673   4.604
14307W        W85923  21.693   9.879   3.708
14308W        W85924  31.596   3.320  12.677
14309W        W85925  37.258   0.783  14.009
14310W        W85926  35.881   9.529  12.868
14311W        W85927   3.516  20.058   4.642
14312W        W85928  39.308  15.508  11.565
14313W        W85929  27.405  44.753   0.949
14314W        W85930  25.856  16.964  14.138
14315W        W85931   5.547  35.097   3.679
14316W        W85932   4.455  21.110  11.907
14317W        W85933  22.009  33.024  14.457
14318W        W85934   9.638  40.327   4.600
14319W        W85935  44.752  40.478  11.623
14320W        W85936  33.888  42.447  12.461
14321W        W85937  32.792   6.219  11.632
14322W        W85938   4.759  12.354  11.416
14323W        W85939  23.999  42.280  10.721
14324W        W85940  35.172  19.681  11.961
14325W        W85941  27.464  24.177   2.850
14326W        W85942  18.160  25.482   1.254
14327W        W85943   9.282   6.477  13.882
14328W        W85944  38.020  19.282   1.769
14329W        W85945  38.046   6.928   2.212
14330W        W85946  37.015  39.811  13.163
14331W        W85947  39.745  30.834  11.575
14332W        W85948  40.620  19.777   3.724
14333W        W85949   3.727  10.874  11.631
14334W        W85950   2.176  27.271  14.025
14335W        W85951   8.737  28.417  12.799
14336W        W85952  25.532   4.453  11.482
14337W        W85953  14.796   5.792  13.984
14338W        W85954  25.198   2.388  12.255
14339W        W85955  10.685   7.310   4.712
14340W        W85956  21.114  31.168   3.577
14341W        W85957  15.622  13.283  12.856
14342W        W85958  44.447  30.686  11.259
14343W        W85959  34.432  12.381  10.752
14344W        W85960  40.099  39.852  11.560
14345W        W85961  26.931  14.283   4.246
14346W        W85962  30.951  20.085  10.345
14347W        W85963  17.560  12.721  14.784
14348W        W85964  11.159  44.068  12.100
14349W        W85965  14.373  39.986   2.198
14350W        W85966  18.827   6.996  11.018
14351W        W85967   1.258  27.891   2.226
14352W        W85968  34.435   4.145   0.652
14353W        W85969   1.465   6.460   0.738
14354W        W85970  24.225   2.067  13.522
14355W        W85971  29.899  42.005  14.765
14356W        W85972  24.206  41.489  11.664
14357W        W85973  11.682  14.102  12.008
14358W        W85974  15.077  29.129   1.822
14359W        W85975  33.459   6.176   2.119
14360W        W85976  34.615  36.606   0.315
14361W        W85977   2.282  42.854  10.788
14362W        W85978  42.113   1.512  10.769
14363W        W85979   7.055  37.970  11.437
14364W        W85980   2.703  39.835   0.726
14365W        W85981  27.027   6.689   1.856
14366W        W85982   1.338  20.761   4.393
14367W        W85983  31.015  18.240   4.669
14368W        W85984  31.430  28.858  11.494
14369W        W85985  21.077  23.471   3.138
14370W        W85986   0.175  39.550  12.950
14371W        W85987  13.003   5.278   0.325
14372W        W85988  42.362  40.398  13.273
14373W        W85989  39.251   2.656   2.707
14374W        W85990  36.076  24.607   4.545
14375W        W85991  14.615  14.537  10.781
14376W        W85992  19.199  17.540   4.885
14377W        W85993   9.027  44.365   1.805
14378W        W85994  20.283  41.328   0.028
14379W        W85995  23.007  41.449  10.734
14380W        W85996   5.990   0.755   1.394
14381W        W85997   6.220  12.378   2.713
14382W        W85998  11.353  42.725  13.752
14383W        W85999  17.148  44.083   4.712
14384W        W86000  43.361  24.237   3.145
14385W        W86001  29.700  26.918  10.746
14386W        W86002   0.197  33.563   0.241
14387W        W86003  39.446  27.013   2.281
14388W        W86004  37.680  43.401  12.580
14389W        W86005  23.188   4.333  12.807
14390W        W86006  25.557  22.441   0.291
14391W        W86007   0.712  33.089   3.745
14392W        W86008  42.344  37.962   3.828
14393W        W86009  34.907  14.871   3.329
14394W        W86010  26.046  17.136   0.081
14395W        W86011  24.057  36.773   0.908
14396W        W86012   3.723  44.407   4.010
14397W        W86013  41.981   5.561  14.052
14398W        W86014  24.090  41.982  13.833
14399W        W86015  33.437  35.189  13.345
14400W        W86016  32.151  34.568   3.780
14401W        W86017  32.432  22.212  10.981
14402W        W86018  41.396  12.042  12.785
14403W        W86019  25.971  25.144  11.506
14404W        W86020  38.001  11.211   5.326
14405W        W86021  18.628  42.818   2.311
14406W        W86022  18.728   0.310   2.683
14407W        W86023  17.181  20.544   3.954
14408W        W86024  17.307  24.953   2.533
14409W        W86025  14.359  36.967  12.012
14410W        W86026  39.070  33.491   0.380
14411W        W86027  33.987  29.458  14.331
14412W        W86028   5.804  40.253  13.761
14413W        W86029  35.314   5.406  14.957
14414W        W86030   6.785  34.858  13.589
14415W        W86031  41.515  15.771  11.963
14416W        W86032  14.528  42.385   0.545
14417W        W86033  24.189  12.660   2.143
14418W        W86034  31.437  24.433  13.860
14419W        W86035  14.499  18.627   4.705
14420W        W86036   3.575  37.549  14.974
14421W        W86037  40.280  26.244   1.016
14422W        W86038  31.678  11.313  12.813
14423W        W86039  37.587   1.699   1.767
14424W        W86040  24.090  38.103   2.226
14425W        W86041  14.587   7.190   1.330
14426W        W86042  24.009  37.301   3.473
14427W        W86043  14.111  37.628  12.569
14428W        W86044  16.248  41.876   3.162
14429W        W86045  44.239  39.310   4.683
14430W        W86046   7.097  38.813  13.041
14431W        W86047  13.695  33.975   1.683
14432W        W86048  18.586   2.498   5.009
14433W        W86049  15.359   0.161   3.884
14434W        W86050  20.713  39.010  12.952
14435W        W86051  42.513  17.162  11.227
14436W        W86052  26.928  31.853   3.047
14437W        W86053  25.920  28.929  11.452
14438W        W86054  36.549  11.265   5.045
14439W        W86055  27.680   2.656  12.880
14440W        W86056  15.912  43.331   4.101
14441W        W86057  19.010  16.600  13.033
14442W        W86058   9.200  24.750  11.591
14443W        W86059  17.708  35.316  12.059
14444W        W86060   3.097   0.437  10.282
14445W        W86061  19.709  18.551  12.436
14446W        W86062   0.913  24.181  14.859
14447W        W86063  28.084  44.119   2.999
14448W        W86064  12.647  35.574  11.074
14449W        W86065  35.934  22.172   2.312
14450W        W86066  18.779  27.604   2.901
14451W        W86067   3.964  37.769  12.478
14452W        W86068  35.163  38.432  10.453
14453W        W86069  36.622   5.712   3.356
14454W        W86070  36.724  12.221  11.036
14455W        W86071  22.596  17.893  10.562
14456W        W86072  19.777  33.812  11.685
14457W        W86073  17.179  11.771  12.644
14458W        W86074  26.466  21.705   1.844
14459W        W86075  24.056  38.808  14.720
14460W        W86076  33.427  13.524   2.168
14461W        W86077  18.545  27.667   0.802
14462W        W86078   4.345  29.932  13.919
14463W        W86079  17.817  44.855   1.355
14464W        W86080   0.024  28.717  12.833
14465W        W86081  15.719  21.961   0.069
14466W        W86082  11.593  36.576   1.810
14467W        W86083  40.056   4.503   1.154
14468W        W86084  20.622   5.039   5.129
14469W        W86085   4.610  14.286  10.033
14470W        W86086   5.850  27.993  12.808
14471W        W86087  39.097  35.867   3.710
14472W        W86088   2.782   7.214   2.335
14473W        W86089  23.537  42.542   1.954
14474W        W86090   9.462  19.977   4.576
14475W        W86091  10.349   2.364  14.080
14476W        W86092   0.880  39.562   4.208
14477W        W86093   6.822  37.955   0.205
14478W        W86094  34.984  35.800   3.130
14479W        W86095   7.444  39.524   3.200
14480W        W86096  26.315  23.574  13.700
14481W        W86097   0.043  42.499   0.070
14482W        W86098  37.840  18.310  12.979
14483W        W86099  31.821  25.563   2.931
14484W        W86100  16.156   5.460   3.772
14485W        W86101  12.392  30.568   3.818
14486W        W86102  31.230  30.334   0.884
14487W        W86103  20.717  19.674   3.216
14488W        W86104   8.161  14.293  14.037
14489W        W86105  24.944   7.223  13.341
14490W        W86106  13.693   1.246  13.018
14491W        W86107  19.158  21.483   4.031
14492W        W86108   8.485   6.866   3.661
14493W        W86109  42.265  14.594  12.173
14494W        W86110  10.372   6.459  14.034
14495W        W86111  33.659  21.746   0.485
14496W        W86112  25.964   7.421  12.490
14497W        W86113   8.311  42.075   4.033
14498W        W86114  18.518  10.325  10.231
14499W        W86115   6.212  30.311  11.472
14500W        W86116  21.902  28.908  11.969
14501W        W86117  16.861   7.313  10.173
14502W        W86118  35.890  12.437  14.593
14503W        W86119  37.555   2.599  11.840
14504W        W86120   7.737  12.687  13.942
14505W        W86121   8.929  19.673   4.777
14506W        W86122  12.194   4.671   9.689
14507W        W86123  15.278   7.929   4.130
14508W        W86124  25.009  17.171   0.218
14509W        W86125  42.457  30.404   3.167
14510W        W86126  40.489  27.907  13.424
14511W        W86127   4.594  30.448   4.300
14512W        W86128   7.415  32.105   0.315
14513W        W86129  39.907  13.844  12.871
14514W        W86130  11.955  39.921  13.918
14515W        W86131  28.876  18.360  10.548
14516W        W86132  29.424  31.906  12.978
14517W        W86133  37.570  10.868   0.396
14518W        W86134   3.796  22.720   3.866
14519W        W86135   3.911   7.620   3.774
14520W        W86136  21.992  41.063   1.368
14521W        W86137  30.491  33.388   2.950
14522W        W86138   4.197  25.875  10.689
14523W        W86139  15.599  14.952   5.521
14524W        W86140  27.845  41.892  13.067
14525W        W86141  42.800  13.752  14.862
14526W        W86142  12.051  41.956  14.977
14527W        W86143  13.334   9.875   1.843
14528W        W86144  31.552  37.489  13.450
14529W        W86145  19.195  20.601  13.843
14530W        W86146  12.702   2.624   2.012
14531W        W86147  39.879   4.391  13.950
14532W        W86148  20.604   9.227  11.567
14533W        W86149   5.733   4.631  13.965
14534W        W86150  33.974  15.551   2.758
14535W        W86151  44.754  20.123   1.944
14536W        W86152  34.118  30.637   3.222
14537W        W86153  33.598   0.215   4.459
14538W        W86154  27.269   9.660  10.463
14539W        W86155  12.739  21.366  12.907
14540W        W86156  40.522  25.782   0.944
14541W        W86157  20.233   2.261   3.122
14542W        W86158   4.720  12.218   3.422
14543W        W86159  30.390  42.465   1.837
14544W        W86160  12.275  30.396  13.080
14545W        W86161   7.688  18.347  11.665
14546W        W86162   5.250  37.396  11.174
14547W        W86163  18.534  22.999  11.506
14548W        W86164  36.964  37.570   2.189
14549W        W86165  13.560  43.019   3.754
14550W        W86166  12.090   5.357   1.483
14551W        W86167  43.537  19.023  11.600
14552W        W86168  39.489   4.384  11.498
14553W        W86169  21.015  15.897  10.570
14554W        W86170   4.231  11.105   0.800
14555W        W86171  32.567  35.593   4.298
14556W        W86172  29.909   9.773  13.366
14557W        W86173  26.471  14.611   1.293
14558W        W86174  36.836   5.034  10.217
14559W        W86175  21.754  39.266  11.960
14560W        W86176  36.693  22.177   1.279
14561W        W86177   5.761  34.306  11.169
14562W        W86178  14.907  40.896  11.223
14563W        W86179  27.722  28.246   0.670
14564W        W86180  38.073  43.906  10.698
14565W        W86181  26.226  37.320   0.262
14566W        W86182  12.811  20.260  12.223
14567W        W86183   6.223  32.480  11.090
14568W        W86184  33.795  37.921  13.937
14569W        W86185  25.727  40.971  10.999
14570W        W86186  41.569  30.070  11.366
14571W        W86187  20.627   1.306  14.430
14572W        W86188   2.788  18.409  13.719
14573W        W86189  30.677  42.058   4.688
14574W        W86190  38.016  18.799   1.502
14575W        W86191   9.732   7.901   3.328
14576W        W86192  27.455  38.135  14.359
14577W        W86193   3.729  13.983   2.310
14578W        W86194  40.746  11.432  13.158
14579W        W86195  30.433  33.262   3.513
14580W        W86196   3.887  29.019  14.447
14581W        W86197  12.244  22.954  11.399
14582W        W86198  22.755   4.300   4.651
14583W        W86199  26.112  26.116   4.782
14584W        W86200  35.407  19.212  12.902
14585W        W86201  33.562  11.952   3.188
14586W        W86202   7.883   0.537   0.426
14587W        W86203   1.348  18.198   4.874
14588W        W86204  15.614   7.868  12.372
14589W        W86205  34.334  41.781  13.752
14590W        W86206  11.617   9.318  11.996
14591W        W86207  38.838  28.655   4.498
14592W        W86208  31.531  19.701  11.904
14593W        W86209  13.225  41.622   0.763
14594W        W86210  12.215  34.597  12.972
14595W        W86211  16.125  15.686   2.932
14596W        W86212  13.560   0.267   0.964
14597W        W86213   2.915  23.181   1.459
14598W        W86214   6.676  27.714  10.740
14599W        W86215  40.420   2.252  14.458
14600W        W86216  35.928  38.469   2.354
14601W        W86217  41.355  23.227  13.327
14602W        W86218   8.362  21.711  14.350
14603W        W86219   3.771  16.689   0.331
14604W        W86220   0.291  44.077  11.586
14605W        W86221  44.555  20.511   3.739
14606W        W86222  36.549  40.765   3.333
14607W        W86223  29.445  31.291   1.247
14608W        W86224  38.649  24.631  12.042
14609W        W86225   3.172  22.494   2.314
14610W        W86226  31.717  30.620   0.033
14611W        W86227  40.075  34.427  11.446
14612W        W86228  12.238  44.963  12.670
14613W        W86229  42.710   7.130   4.112
14614W        W86230  11.101  30.655   0.403
14615W        W86231  35.821  35.058   3.200
14616W        W86232   1.832  12.815   1.701
14617W        W86233  43.627  32.960  14.430
14618W        W86234  22.627  19.700  13.456
14619W        W86235  14.792  14.331   0.149
14620W        W86236  34.110  24.997  12.911
14621W        W86237  41.075  10.184  10.366
14622W        W86238  24.971   8.269   3.309
14623W        W86239  14.217  38.337  10.594
14624W        W86240  32.927  30.641   0.334
14625W        W86241  43.252  41.951  11.317
14626W        W86242   5.787  18.482  12.029
14627W        W86243  16.304   6.849   3.117
14628W        W86244  11.699  23.523  11.595
14629W        W86245   2.627  19.576   4.351
14630W        W86246  16.098  42.580  12.605
14631W        W86247  32.815  24.170  13.877
14632W        W86248  20.327   8.845   1.346
14633W        W86249  28.238  42.457  11.914
14634W        W86250   2.855  19.170  14.684
14635W        W86251  12.147  43.444  12.547
14636W        W86252  10.977   5.393   2.199
14637W        W86253  38.252  20.435   1.787
14638W        W86254  38.493  22.940  13.157
14639W        W86255  11.689  20.756   4.731
14640W        W86256   9.684   9.880  13.021
14641W        W86257  40.037  29.443   3.319
14642W        W86258  26.426  26.096   0.789
14643W        W86259   0.924  35.525   3.590
14644W        W86260   1.551  23.902  13.894
14645W        W86261  42.860  40.462   5.032
14646W        W86262  43.083  33.123  10.321
14647W        W86263   4.862  24.113   0.829
14648W        W86264  27.873  43.508  12.500
14649W        W86265   4.376  20.507  13.162
14650W        W86266   8.247  27.602  14.613
14651W        W86267  29.907  29.544   0.905
14652W        W86268  34.035  31.014  10.932
14653W        W86269  34.817   7.808   1.760
14654W        W86270  32.534   4.780   4.515
14655W        W86271  38.374  30.663  12.459
14656W        W86272   3.386   8.789   0.981
14657W        W86273   2.525  14.714  13.024
14658W        W86274  43.563  40.272   1.281
14659W        W86275  38.013   2.325  13.265
14660W        W86276  22.569  30.964  13.606
14661W        W86277  21.541  39.167  13.945
14662W        W86278  24.278  15.394  12.057
14663W        W86279  14.231  37.434  11.551
14664W        W86280  40.590  20.610   0.702
14665W        W86281  20.238  39.771   2.755
14666W        W86282  38.312   2.715  12.450
14667W        W86283  23.676  40.554  13.147
14668W        W86284  22.166  32.608  11.557
14669W        W86285  22.779  28.603  13.928
14670W        W86286  28.240  35.004   4.425
14671W        W86287   5.394  17.484   3.367
14672W        W86288   0.979   7.352   4.924
14673W        W86289   1.495   1.227   3.565
14674W        W86290   2.814  28.873  11.182
14675W        W86291  18.108  11.062  13.445
14676W        W86292   1.013  14.285   0.539
14677W        W86293  31.575  35.814  12.843
14678W        W86294  10.359  31.919   4.302
14679W        W86295  21.036  31.782   4.243
14680W        W86296  41.791   5.896   0.888
14681W        W86297  43.021  24.785  10.798
14682W        W86298   3.923  34.236  14.821
14683W        W86299  38.449   0.488   1.663
14684W        W86300  17.325   6.818   2.403
14685W        W86301  11.975  40.456  12.992
14686W        W86302   7.163  43.985  11.518
14687W        W86303   1.361   3.812  14.792
14688W        W86304   1.188  28.550  14.913
14689W        W86305  10.928   7.036   5.078
14690W        W86306   7.742  42.428   4.153
14691W        W86307  23.627   2.727  13.916
14692W        W86308   4.194  42.943  11.471
14693W        W86309  29.467  11.953  10.777
14694W        W86310  21.295   6.281   2.348
14695W        W86311   2.808   3.708   3.397
14696W        W86312  18.621  23.626  14.879
14697W        W86313  26.151  13.530  14.902
14698W        W86314  11.601  32.909   3.119
14699W        W86315  14.806  16.139  13.697
14700W        W86316  22.202  13.556  12.100
14701W        W86317  26.258  12.761   3.299
14702W        W86318  10.269   0.284  14.873
14703W        W86319  17.727  34.303   4.753
14704W        W86320  25.234  11.974  11.168
14705W        W86321  35.415  20.004   2.664
14706W        W86322  38.007  40.248   4.168
14707W        W86323  13.123   5.902   4.531
14708W        W86324  42.331   4.534  14.264
14709W        W86325  29.945  17.250  11.872
14710W        W86326  15.440  42.842  13.920
14711W        W86327  39.050  22.607   0.890
14712W        W86328   7.357  27.241  12.990
14713W        W86329  21.714  10.781   4.656
14714W        W86330   7.341  30.809  11.567
14715W        W86331  36.482  17.037   2.601
14716W        W86332   6.844  36.607  14.756
14717W        W86333  18.624  33.418  14.879
14718W        W86334  21.332   5.408   1.511
14719W        W86335  27.493   1.239  13.074
14720W        W86336  24.922  35.934  14.312
14721W        W86337  40.020   8.396  12.103
14722W        W86338   0.781  30.175   4.693
14723W        W86339  28.540   7.663  12.425
14724W        W86340  33.026   1.946   0.363
14725W        W86341  25.081  38.344  10.662
14726W        W86342  40.366   3.520  12.898
14727W        W86343  42.032   0.483   3.757
14728W        W86344  37.653   1.716   0.438
14729W        W86345  21.604  19.266   4.827
14730W        W86346  39.488  27.771   3.272
14731W        W86347  44.270   4.988   0.957
14732W        W86348  21.392  20.701  14.119
14733W        W86349  18.537  20.737   2.020
14734W        W86350  28.509  31.992   1.967
14735W        W86351  22.035   1.756  14.329
14736W        W86352  22.587  20.720  11.721
14737W        W86353  30.065  18.848  13.909
14738W        W86354  10.106   0.214  10.905
14739W        W86355  20.774  24.593  12.490
14740W        W86356   6.189  25.657  13.346
14741W        W86357  33.481  20.506   1.198
14742W        W86358  28.818  39.006  12.996
14743W        W86359  18.956  42.691  11.906
14744W        W86360  24.862  38.895  12.742
14745W        W86361  18.177  20.802   4.574
14746W        W86362  19.996  15.619  12.974
14747W        W86363  25.462  36.826  11.604
14748W        W86364  27.941  15.030  14.006
14749W        W86365  21.729  39.597   2.565
14750W        W86366  38.022  31.039   0.937
14751W        W86367  17.245  23.698  12.596
14752W        W86368  23.107   0.425   2.755
14753W        W86369  42.740  33.494  13.519
14754W        W86370  28.539  22.949  14.453
14755W        W86371   8.206  16.643   3.399
14756W        W86372  40.056  15.125  11.564
14757W        W86373  31.897   4.214   4.487
14758W        W86374   1.422  38.113   0.699
14759W        W86375  22.295  38.073   3.820
14760W        W86376   0.906   5.215   3.249
14761W        W86377  40.855  35.619  12.984
14762W        W86378  37.330  26.442   3.334
14763W        W86379  15.077  22.622   4.532
14764W        W86380   4.981  39.479   2.854
14765W        W86381  38.251   5.472   1.573
14766W        W86382  38.982  30.107  10.682
14767W        W86383  34.435  22.830   3.815
14768W        W86384   7.684   7.274  10.433
14769W        W86385  40.107  42.783   4.110
14770W        W86386  11.807  40.401   2.669
14771W        W86387  11.260  18.393   1.836
14772W        W86388   8.701  26.472  11.239
14773W        W86389  21.452  28.497  13.403
14774W        W86390  42.255  36.409   1.587
14775W        W86391   7.714   7.943  11.547
14776W        W86392  14.305   7.097   5.468
14777W        W86393  32.363  23.848   9.896
14778W        W86394   6.462  37.671   1.011
14779W        W86395   7.193   6.342  13.937
14780W        W86396  35.881   2.371   0.452
14781W        W86397  40.372  29.429  13.564
14782W        W86398  37.930  33.909   4.167
14783W        W86399  31.386  19.512  13.437
14784W        W86400   6.329   5.477   1.693
14785W        W86401  17.043  18.861   1.173
14786W        W86402  42.511  25.179   0.815
14787W        W86403   7.806  14.869   1.878
14788W        W86404   9.100  14.583   0.273
14789W        W86405  39.175  19.217  11.984
14790W        W86406   3.544  22.646  14.922
14791W        W86407   8.755  10.575   4.550
14792W        W86408  22.374  16.131   0.431
14793W        W86409  30.597  42.345  14.504
14794W        W86410  35.344  15.773   4.161
14795W        W86411   5.710   9.780  14.059
14796W        W86412  13.198  18.145   0.070
14797W        W86413  44.635  24.659   0.346
14798W        W86414  33.099  41.800  11.567
14799W        W86415   1.051  15.259  13.328
14800W        W86416   6.595   8.241  11.675
14801W        W86417  20.262  40.250   5.133
14802W        W86418  22.331  26.736   4.615
14803W        W86419  28.740  10.893  14.038
14804W        W86420  27.431  32.093  14.522
14805W        W86421  18.156   1.691   2.851
14806W        W86422   2.321  11.094  14.975
14807W        W86423  21.621   2.940  10.352
14808W        W86424  31.591  44.910   4.963
14809W        W86425  14.357  29.470   3.258
14810W        W86426  24.760  43.516  13.392
14811W        W86427  27.163   3.053  10.633
14812W        W86428  24.246  38.863  13.437
14813W        W86429  17.905  23.182   2.265
14814W        W86430  19.951  14.771  12.057
14815W        W86431   7.667   1.324  14.899
14816W        W86432  12.160  39.238  14.449
14817W        W86433   7.746  16.671   3.174
14818W        W86434  20.750  39.584  12.892
14819W        W86435  43.493  37.058   0.930
14820W        W86436   8.204  27.300  12.568
14821W        W86437   8.859  27.554  13.877
14822W        W86438   0.964  18.092   1.793
14823W        W86439   8.819  13.580  10.967
14824W        W86440  39.042  28.393  12.031
14825W        W86441  38.293  24.517   2.875
14826W        W86442  28.844   8.990  13.180
14827W        W86443  42.706  28.301   2.494
14828W        W86444  21.702  14.863  11.575
14829W        W86445  21.722  20.250   2.819
14830W        W86446  23.217  24.509   3.606
14831W        W86447  43.939  36.584   0.344
14832W        W86448   1.636   5.482   1.632
14833W        W86449  17.830  30.108  14.328
14834W        W86450   4.340  39.954   3.674
14835W        W86451  32.722   4.959  11.984
14836W        W86452  22.962  14.633  14.185
14837W        W86453  37.788  27.204  13.493
14838W        W86454  30.925  18.416  12.998
14839W        W86455  15.750  14.677   3.849
14840W        W86456   8.569  32.511   1.581
14841W        W86457   5.492  27.676  13.030
14842W        W86458  19.778  11.689   3.137
14843W        W86459   1.315   1.833  13.962
14844W        W86460  17.506   6.416  14.563
14845W        W86461   2.332   6.667  12.077
14846W        W86462  26.884  32.041  11.457
14847W        W86463  16.982  19.825  11.312
14848W        W86464   7.740  19.269   2.849
14849W        W86465  35.478  18.099  13.806
14850W        W86466  12.587  13.586   0.284
14851W        W86467  32.845  43.008  11.122
14852W        W86468  17.829   9.003  11.946
14853W        W86469  36.226  25.486  13.788
14854W        W86470   7.353  18.032  10.394
14855W        W86471   1.542   8.789   1.018
14856W        W86472  27.994   3.265  14.486
14857W        W86473  19.328  34.135   1.368
14858W        W86474  23.636  27.460   4.421
14859W        W86475  20.720  15.151   4.835
14860W        W86476  27.627  13.875  10.042
14861W        W86477  15.840  33.943  13.839
14862W        W86478  21.091  24.877  11.532
14863W        W86479  12.113   0.254   3.843
14864W        W86480  30.722  26.469  13.311
14865W        W86481  15.059   7.599  11.231
14866W        W86482  27.937  37.924   3.896
14867W        W86483  35.445  37.825  12.509
14868W        W86484  29.964  23.485   1.393
14869W        W86485   8.899  15.608   3.658
14870W        W86486  33.616  11.550   5.300
14871W        W86487   7.145   8.949  11.155
14872W        W86488  39.293  30.641   4.679
14873W        W86489  31.662   5.276  10.784
14874W        W86490  10.712  15.803  14.318
14875W        W86491  10.317  40.403   1.272
14876W        W86492  42.350  42.223   0.813
14877W        W86493  29.517   1.360   0.665
14878W        W86494  29.880  20.398  10.656
14879W        W86495   7.420   2.042  13.822
14880W        W86496   4.965  11.349   5.016
14881W        W86497  32.217  42.262   2.966
14882W        W86498  16.785   3.157  10.665
14883W        W86499  38.625  38.896  10.751
14884W        W86500  33.652  18.210   4.972
14885W        W86501  25.521  36.442   3.876
14886W        W86502  34.958  21.682  14.307
14887W        W86503   3.809  25.627   0.774
14888W        W86504  32.144  22.249   1.357
14889W        W86505  21.773   8.208  14.978
14890W        W86506  16.397   2.331   3.057
14891W        W86507   2.989   3.239   3.277
14892W        W86508  35.959  12.006  11.152
14893W        W86509  36.832   5.336   3.920
14894W        W86510   5.701   2.212  11.590
14895W        W86511  28.977  18.650  13.474
14896W        W86512  41.495   4.220   1.252
14897W        W86513  43.825  23.977   4.254
14898W        W86514  18.587  19.983  11.929
14899W        W86515   2.436   1.966  12.416
14900W        W86516  22.132   7.330  11.644
14901W        W86517  37.061   7.278  11.917
14902W        W86518  33.990   8.848   3.440
14903W        W86519  10.359  30.014  11.473
14904W        W86520   9.972   0.267   4.618
14905W        W86521  13.726  42.459   4.657
14906W        W86522  18.202  28.545  14.919
14907W        W86523   0.027  39.244   3.747
14908W        W86524  43.511  25.452  11.484
14909W        W86525   2.130   1.598  14.743
14910W        W86526  28.438  10.133  14.347
14911W        W86527  10.205  14.658  11.998
14912W        W86528  26.416  13.156   0.824
14913W        W86529  28.891   9.010   4.187
14914W        W86530  32.534  18.381   2.298
14915W        W86531   0.217   1.702   4.174
14916W        W86532  44.326  37.130   0.919
14917W        W86533  36.830  21.620  14.429
14918W        W86534  29.508  22.862   0.291
14919W        W86535  40.746  23.161  11.261
14920W        W86536  13.203  35.118  14.571
14921W        W86537   7.263  21.749  10.972
14922W        W86538  28.063  13.743   0.357
14923W        W86539  41.864  10.332  14.842
14924W        W86540  38.962  41.332   4.115
14925W        W86541  19.556  13.021  11.904
14926W        W86542  32.081   7.156  11.114
14927W        W86543  10.880  42.456   2.803
14928W        W86544   3.772  29.161  11.490
14929W        W86545  34.151  30.263   0.629
14930W        W86546  39.821   5.287  13.873
14931W        W86547  28.576  30.320  10.516
14932W        W86548   8.119  36.880  14.401
14933W        W86549  38.019  16.611   2.793
14934W        W86550  17.714  16.908  13.534
14935W        W86551  20.676  40.080  14.840
14936W        W86552  44.269  23.210  11.661
14937W        W86553   5.028  39.530   4.593
14938W        W86554  17.769  36.019   1.803
14939W        W86555   9.821  13.649   0.442
14940W        W86556   7.474   3.956   2.280
14941W        W86557   0.926  32.365   2.627
14942W        W86558  18.737  13.048   1.404
14943W        W86559  36.515   3.864   4.693
14944W        W86560  11.701  11.820   2.760
14945W        W86561  35.420  16.252   0.397
14946W        W86562   5.542  37.771   3.707
14947W        W86563  32.967  18.911   0.160
14948W        W86564  36.851   1.326   1.751
14949W        W86565  21.447  34.738  12.434
14950W        W86566  18.061   1.667   4.247
14951W        W86567  13.778  21.550   3.222
14952W        W86568  14.289   0.964   2.241
14953W        W86569  17.788  36.821  12.882
14954W        W86570  32.483   8.247   3.260
14955W        W86571   2.067  37.480  13.922
14956W        W86572  44.915  43.282   0.465
14957W        W86573  35.935   6.838   2.355
14958W        W86574  43.006   2.450   1.863
14959W        W86575  34.382  22.608  12.607
14960W        W86576   4.632  32.954   3.627
14961W        W86577  34.031  44.033   1.327
14962W        W86578  11.907   9.834  10.761
14963W        W86579  31.654   2.170   4.669
14964W        W86580  32.337   6.515   0.822
14965W        W86581   9.766  23.047   1.343
14966W        W86582  11.223  10.844   0.837
14967W        W86583  13.155   2.659  12.501
14968W        W86584   9.372  39.902  11.140
14969W        W86585  44.876  14.822   0.328
14970W        W86586  28.735  29.165   2.175
14971W        W86587  44.765  26.190   2.205
14972W        W86588  33.433   9.138   1.873
14973W        W86589   0.330  22.543  12.867
14974W        W86590   1.402  33.887  10.445
14975W        W86591   7.155  38.332  11.066
14976W        W86592  24.939  36.322  14.989
14977W        W86593  40.354   3.201  13.297
14978W        W86594  32.035  11.379  10.525
14979W        W86595  19.869   0.881  12.855
14980W        W86596  29.419   7.221   1.612
14981W        W86597  37.588  18.277   3.358
14982W        W86598  34.350  19.073   3.259
14983W        W86599  36.837  16.727   0.339
14984W        W86600  11.948  38.380   3.687
14985W        W86601   8.632   8.172   1.865
14986W        W86602  28.053   6.938  11.553
14987W        W86603  40.511  42.965   0.528
14988W        W86604   0.327  13.920  12.560
14989W        W86605   8.223  36.503   4.821
14990W        W86606  42.465  35.509   3.088
14991W        W86607   0.625  35.012   3.702
14992W        W86608  14.885  32.046  11.144
14993W        W86609   6.909  25.683   1.283
14994W        W86610  37.483  15.579  11.674
14995W        W86611  36.429  36.994  12.828
14996W        W86612  21.575  24.016  14.681
14997W        W86613   3.179  21.221  10.531
14998W        W86614  24.989  10.638   0.312
14999W        W86615  38.250  17.471  13.106
15000W        W86616   0.656  37.356  11.640
15001W        W86617   8.837  11.929   4.147
15002W        W86618   4.797  20.829  14.392
15003W        W86619  30.550   0.297   0.419
15004W        W86620  33.363   5.917   0.872
15005W        W86621   1.262  16.639   3.427
15006W        W86622  40.375  35.352  12.946
15007W        W86623  35.394  41.434   4.564
15008W        W86624  39.882  44.531   3.803
15009W        W86625   9.698  17.378   1.880
15010W        W86626   9.666  18.515   0.208
15011W        W86627  41.826  24.581   3.496
15012W        W86628  33.504  35.036   0.864
15013W        W86629  38.969  35.108  13.154
15014W        W86630  20.164  27.688   0.989
15015W        W86631  39.088  37.887  12.888
15016W        W86632  30.410  32.158  12.028
15017W        W86633  36.049   7.333   2.202
15018W        W86634  25.440  13.561   3.694
15019W        W86635  32.491  12.751  13.117
15020W        W86636  28.966  20.114  12.445
15021W        W86637   8.645  19.496   2.112
15022W        W86638  18.779  26.065  14.291
15023W        W86639  25.201  18.114  14.796
15024W        W86640  26.063  41.280  11.331
15025W        W86641   9.259  40.428  10.697
15026W        W86642  32.133  21.009  13.950
15027W        W86643  38.346  16.266  11.148
15028W        W86644  26.477  40.991  11.545
15029W        W86645  41.131   3.293   3.724
15030W        W86646  38.510   7.869   1.261
15031W        W86647  21.714  32.653   1.832
15032W        W86648  10.073   4.873   4.086
15033W        W86649  26.117  43.258  12.866
15034W        W86650  31.385  16.265  14.865
15035W        W86651  37.015  42.333  11.867
15036W        W86652  36.512   4.047   3.925
15037W        W86653  34.642  37.005   3.833
15038W        W86654  33.951   0.883  13.304
15039W        W86655  38.774  19.298  13.775
15040W        W86656  32.987  11.604   0.966
15041W        W86657  19.238  44.716   3.224
15042W        W86658  20.752  27.075   1.473
15043W        W86659  12.912  17.692  11.536
15044W        W86660  10.979  10.214  10.711
15045W        W86661  40.335   1.837   3.117
15046W        W86662  29.091  30.391  13.321
15047W        W86663  32.899  25.146  14.619
15048W        W86664  42.083  22.558   0.965
15049W        W86665  43.794  34.533  14.457
15050W        W86666  21.013  25.412  12.555
15051W        W86667   5.829  37.269   2.809
15052W        W86668  44.502  24.018   4.897
15053W        W86669  24.599  19.235   1.205
15054W        W86670  13.694  26.558   4.953
15055W        W86671   7.911  44.319   4.670
15056W        W86672  34.869  24.891   3.818
15057W        W86673  28.133  36.101   4.584
15058W        W86674  36.920   3.207   2.922
15059W        W86675  33.395  17.411  14.360
15060W        W86676  27.658  24.312  13.893
15061W        W86677  23.092   3.003   1.322
15062W        W86678   1.749  26.603   0.723
15063W        W86679   8.508   2.369  12.419
15064W        W86680  38.338  33.875  11.168
15065W        W86681  35.978  44.549   2.329
15066W        W86682  27.754  40.451   3.890
15067W        W86683  29.876   2.023   4.028
15068W        W86684   6.019  12.282  12.671
15069W        W86685   2.754  42.473  14.304
15070W        W86686  15.313  12.572   3.622
15071W        W86687  17.124  42.962  10.638
15072W        W86688  11.345  40.608   2.872
15073W        W86689  28.938   0.592  14.241
15074W        W86690   6.307  37.196  12.464
15075W        W86691  25.593  23.595  11.889
15076W        W86692  24.044  37.526  10.224
15077W        W86693  31.120  27.677  13.758
15078W        W86694   1.404  24.540   4.547
15079W        W86695  37.397  26.005  11.984
15080W        W86696  40.296  12.706  11.551
15081W        W86697   6.528  10.438   1.257
15082W        W86698  33.330  27.680   1.941
15083W        W86699  18.146  44.019  14.980
15084W        W86700   3.345  26.895  12.191
15085W        W86701  26.113   2.168   1.745
15086W        W86702   6.799   9.843   1.892
15087W        W86703  19.719  17.867   3.209
15088W        W86704   3.898  30.151   0.122
15089W        W86705   7.929  30.963   0.345
15090W        W86706  32.421  29.225   5.093
15091W        W86707  19.013   1.248   4.345
15092W        W86708   5.666  20.361  11.699
15093W        W86709  21.118  44.977   0.705
15094W        W86710  20.254  34.983   1.868
15095W        W86711  18.760  11.316   3.616
15096W        W86712  17.631   3.018   0.919
15097W        W86713   5.492   0.569   3.346
15098W        W86714  26.994   4.333  11.536
15099W        W86715  25.065  32.472   0.987
15100W        W86716   5.974   2.730   4.371
15101W        W86717  11.714  21.697  12.489
15102W        W86718  44.716  38.551   4.116
15103W        W86719  20.776  33.051   4.155
15104W        W86720  25.425  43.573   0.767
15105W        W86721  21.235  10.439  12.276
15106W        W86722  42.322  26.561   1.492
15107W        W86723  13.676  29.012  13.635
15108W        W86724  36.959  37.017  10.639
15109W        W86725  15.175  23.058  14.504
15110W        W86726  30.819  20.460   2.646
15111W        W86727  44.717  26.166   3.136
15112W        W86728  29.499  34.485   0.294
15113W        W86729  37.654   0.429   3.181
15114W        W86730  22.187  34.434  14.541
15115W        W86731  16.146  25.797   5.029
15116W        W86732  36.976  42.649   3.565
15117W        W86733  42.000  34.820  14.355
15118W        W86734  37.401  10.316   4.644
15119W        W86735  40.395  29.994  12.006
15120W        W86736  25.550   6.062   2.739
15121W        W86737  34.408  34.366   4.755
15122W        W86738  24.477   0.948  13.416
15123W        W86739  25.854  36.972   1.807
15124W        W86740  16.287  33.572   4.224
15125W        W86741  23.457  15.763  13.575
15126W        W86742  22.648   6.710   1.394
15127W        W86743   4.774  11.614   2.116
15128W        W86744  32.397   0.896   4.833
15129W        W86745  43.015  40.066   2.372
15130W        W86746  18.003  30.011   1.421
15131W        W86747  40.447  17.696  11.166
15132W        W86748  36.097  24.441  13.353
15133W        W86749  22.135   4.561  11.551
15134W        W86750  29.307  23.600   3.729
15135W        W86751   2.902  30.726  12.347
15136W        W86752  32.870   4.127  13.776
15137W        W86753   5.305  18.074  10.727
15138W        W86754   7.655   3.455  14.276
15139W        W86755  31.450  43.447  12.849
15140W        W86756  20.180  32.157   3.318
15141W        W86757  15.890  39.424  14.649
15142W        W86758  40.340  25.735  11.372
15143W        W86759  21.281  39.509   1.890
15144W        W86760  28.493  32.410   3.624
15145W        W86761  29.710   2.218   3.091
15146W        W86762  24.409  44.757   0.575
15147W        W86763  37.535  24.571   3.151
15148W        W86764  14.009   6.773   0.048
15149W        W86765  25.195  10.506   2.525
15150W        W86766  26.035  44.278   2.750
15151W        W86767  28.656  32.382  10.645
15152W        W86768  11.449  15.046   3.200
15153W        W86769  20.691  39.551  13.790
15154W        W86770  20.058  35.428   0.693
15155W        W86771  18.528  38.340  10.640
15156W        W86772  42.799  14.542  12.144
15157W        W86773  43.821  42.704   3.053
15158W        W86774  33.844  14.123  13.436
15159W        W86775   4.690  39.831   4.303
15160W        W86776  14.401   0.277   2.742
15161W        W86777  15.852  10.611   2.816
15162W        W86778  22.295   1.107  12.120
15163W        W86779   3.846  17.356   1.782
15164W        W86780  21.006  30.475  11.980
15165W        W86781  26.763  16.720  10.723
15166W        W86782  23.149  33.618  14.943
15167W        W86783   4.562  20.673   3.243
15168W        W86784  25.615   5.646  12.391
15169W        W86785   6.255   8.242  13.655
15170W        W86786  40.284   6.772   4.649
15171W        W86787   1.457  41.788  14.385
15172W        W86788  29.881  10.299  13.265
15173W        W86789   8.078  19.575   4.246
15174W        W86790   7.336  24.345  12.400
15175W        W86791  34.579   1.756   1.263
15176W        W86792  28.538  39.198   0.258
15177W        W86793  42.260  35.546   0.094
15178W        W86794  17.814  18.135   3.055
15179W        W86795  13.237  13.659   4.148
15180W        W86796   2.472  15.929  12.365
15181W        W86797  18.003  43.445   1.275
15182W        W86798  13.651  24.541  11.657
15183W        W86799  40.980  20.351  13.410
15184W        W86800  41.435  20.561   3.286
15185W        W86801  11.104  19.557  12.534
15186W        W86802  13.133  33.522  11.279
15187W        W86803  32.954  29.890   0.762
15188W        W86804   0.748  27.169   2.340
15189W        W86805  25.182  29.449   0.153
15190W        W86806  32.074  11.351   1.466
15191W        W86807  10.217   7.075   1.356
15192W        W86808  33.320  34.052  11.939
15193W        W86809   1.763   5.905  14.449
15194W        W86810   6.389  11.303   3.874
15195W        W86811  44.996   0.029   3.619
15196W        W86812   4.390  42.236  13.792
15197W        W86813  28.339  18.771  13.554
15198W        W86814  43.331  43.045  11.181
15199W        W86815  17.648  29.099  13.352
15200W        W86816   6.484   6.312   2.817
15201W        W86817  41.593  43.261  13.930
15202W        W86818   3.653   0.293  13.284
15203W        W86819   7.769  37.097   2.620
15204W        W86820   8.345  11.701  14.285
15205W        W86821   5.782  17.040  11.651
15206W        W86822  37.339  26.831   3.667
15207W        W86823  27.000   1.439  10.755
15208W        W86824  20.637   5.030   1.039
15209W        W86825  22.314  18.325  13.027
15210W        W86826   2.706  12.134  14.511
15211W        W86827  24.722  22.024   3.942
15212W        W86828  30.420  33.143  11.269
15213W        W86829  30.378   2.400  14.401
15214W        W86830  42.585  14.531  12.620
15215W        W86831  37.923  17.344   1.069
15216W        W86832  31.389  35.492  13.660
15217W        W86833  20.644  25.230   1.280
15218W        W86834  23.560  25.500  10.756
15219W        W86835  44.566  10.340  10.304
15220W        W86836  38.912  27.082   3.459
15221W        W86837  30.059  25.908  14.402
15222W        W86838  30.708  27.595   3.130
15223W        W86839   1.562  18.010  14.465
15224W        W86840   4.654  27.876  13.185
15225W        W86841  41.995  38.613   2.380
15226W        W86842  14.684  20.748  14.218
15227W        W86843  22.065  39.217  13.988
15228W        W86844  40.800  35.912   1.791
15229W        W86845   0.093  30.047   1.303
15230W        W86846  44.303  38.564   0.486
15231W        W86847   2.369  36.357   4.516
15232W        W86848  43.525  33.425   4.522
15233W        W86849  26.246  30.013   0.851
15234W        W86850   0.018   7.679  11.071
15235W        W86851  14.772   5.707   2.246
15236W        W86852  27.285  44.432   3.219
15237W        W86853   1.390   2.082   0.102
15238W        W86854  28.830  25.442   2.571
15239W        W86855  40.490  34.492   4.414
15240W        W86856  34.609  22.991   2.201
15241W        W86857  43.980  24.606  12.131
15242W        W86858  30.718  16.310  12.903
15243W        W86859  40.577   2.288   5.111
15244W        W86860  28.088  16.249  10.489
15245W        W86861  15.121  30.517   0.882
15246W        W86862  27.894  38.899   2.214
15247W        W86863   5.650  23.894  12.529
15248W        W86864   2.201  19.277  11.498
15249W        W86865  26.271   1.989  12.933
15250W        W86866  23.010  30.934  14.726
15251W        W86867  12.446  13.799   0.722
15252W        W86868   1.521  15.100   3.262
15253W        W86869  41.936  12.761   4.305
15254W        W86870  28.058   5.074   4.557
15255W        W86871   8.661  35.347  11.130
15256W        W86872   6.151  23.996  11.639
15257W        W86873   4.234  29.972  14.800
15258W        W86874   2.339  20.498   3.406
15259W        W86875  25.351  22.903  14.987
15260W        W86876  43.871   7.808   3.236
15261W        W86877  27.709   4.891   0.656
15262W        W86878  31.324  17.690   3.167
15263W        W86879  22.547  24.702  12.887
15264W        W86880  27.416  17.247  10.635
15265W        W86881   4.492  41.759  13.921
15266W        W86882   8.238  18.504   1.258
15267W        W86883  29.464  15.190   2.268
15268W        W86884  16.989   0.399  11.405
15269W        W86885  42.559  42.490   3.649
15270W        W86886  34.294  14.129   1.374
15271W        W86887  14.755  44.243  11.017
15272W        W86888  12.759  36.055  11.730
15273W        W86889  31.324  32.900   4.555
15274W        W86890  28.732  25.115  13.736
15275W        W86891  35.640  40.850  14.483
15276W        W86892   3.306  42.440   3.107
15277W        W86893  12.781  41.418  13.451
15278W        W86894  18.653  33.812   4.806
15279W        W86895  22.966  43.966  13.522
15280W        W86896  29.859  29.051  14.454
15281W        W86897   8.348   9.210  13.692
15282W        W86898  36.440  35.931   4.577
15283W        W86899  36.451   6.871   1.274
15284W        W86900   6.227  27.781  11.573
15285W        W86901  34.546  35.943  10.748
15286W        W86902  13.288  16.739   2.167
15287W        W86903  34.360  41.760   0.336
15288W        W86904  40.235  38.009   3.750
15289W        W86905  19.314  19.187  14.387
15290W        W86906  11.128   7.282   2.728
15291W        W86907  25.150  20.754  11.504
15292W        W86908  20.303  10.374  14.944
15293W        W86909   3.236  24.769   3.987
15294W        W86910  23.672   3.227   4.548
15295W        W86911  34.195  25.475   2.894
15296W        W86912  16.172   1.466   1.744
15297W        W86913  20.119  40.252  11.990
15298W        W86914   0.900  15.833  13.052
15299W        W86915  30.393   9.357   0.651
15300W        W86916  13.406  44.577  14.163
15301W        W86917  28.103   1.241   1.788
15302W        W86918  36.776  14.480  12.540
15303W        W86919   4.417  30.085   2.783
15304W        W86920   8.198  26.582  10.381
15305W        W86921  24.498  25.188   3.344
15306W        W86922  24.292  43.017  11.173
15307W        W86923  28.529  42.398   3.297
15308W        W86924  33.995  28.992   1.208
15309W        W86925   6.102  23.425   2.734
15310W        W86926  25.764   9.671   1.913
15311W        W86927   1.247   7.891  12.023
15312W        W86928  43.722  23.499   0.349
15313W        W86929  22.208   9.952  10.786
15314W        W86930   9.662   1.543   4.189
15315W        W86931  34.371  30.045   4.588
15316W        W86932  24.593  37.224   1.209
15317W        W86933  17.101   0.789   5.030
15318W        W86934  15.555  28.037  12.128
15319W        W86935  15.295  10.701   2.038
15320W        W86936  21.224  15.678   1.337
15321W        W86937  16.289   3.419  10.479
15322W        W86938  14.610  37.550  13.445
15323W        W86939  11.961  23.520  12.922
15324W        W86940  28.223  31.121   0.750
15325W        W86941  31.660   7.917   1.371
15326W        W86942  38.285   8.309   2.243
15327W        W86943  14.569  13.427   4.214
15328W        W86944  43.694  23.729  11.216
15329W        W86945   7.781  13.914  13.994
15330W        W86946  15.293  38.494   3.719
15331W        W86947  21.507  19.773   2.651
15332W        W86948  37.143   4.393  14.321
15333W        W86949   2.751  17.050   1.128
15334W        W86950  21.199  43.441   3.633
15335W        W86951   4.024  25.130   0.771
15336W        W86952   6.333   5.141  10.072
15337W        W86953  15.542  14.862   0.397
15338W        W86954  13.643  30.677   1.265
15339W        W86955   5.239  33.010  10.726
15340W        W86956  34.946  30.337  13.499
15341W        W86957  40.877  36.315  13.411
15342W        W86958  19.515  31.106   3.201
15343W        W86959  28.530  29.101  12.364
15344W        W86960  31.922   5.316  11.943
15345W        W86961  18.249  44.985  12.428
15346W        W86962  13.238  11.253   3.585
15347W        W86963   2.737  36.864   3.237
15348W        W86964  44.958  37.856   5.126
15349W        W86965   1.828  21.109   3.047
15350W        W86966  38.043   7.926   3.250
15351W        W86967  32.547  12.343  14.978
15352W        W86968   2.033  16.021   4.235
15353W        W86969   1.807  42.347   3.997
15354W        W86970  16.546  18.748  13.520
15355W        W86971  13.138   0.425   0.665
15356W        W86972   2.890   4.670   4.936
15357W        W86973  21.749  33.479  11.829
15358W        W86974  38.334  16.381   4.107
15359W        W86975  30.946  37.120  12.164
15360W        W86976  40.608  42.873  11.497
15361W        W86977   5.932  15.392  14.096
15362W        W86978  36.309  26.676   2.308
15363W        W86979  34.426  12.765   1.435
15364W        W86980  17.769  16.695   2.734
15365W        W86981  29.660  28.191  14.539
15366W        W86982   8.233   5.063   2.350
15367W        W86983  37.825  19.548   4.580
15368W        W86984  23.809  11.728   4.970
15369W        W86985   9.117  10.655   2.736
15370W        W86986   1.524  42.276   1.810
15371W        W86987  17.922  19.764   4.621
15372W        W86988  11.236  21.303   2.891
15373W        W86989   9.236  14.027  13.092
15374W        W86990  12.740  22.481   1.943
15375W        W86991  39.607  21.773  14.775
15376W        W86992  27.910  15.222   2.925
15377W        W86993  27.539  20.274   4.147
15378W        W86994   2.241  24.098   0.410
15379W        W86995  13.411  39.988  14.982
15380W        W86996  24.910  18.069   2.439
15381W        W86997  21.667   9.756   0.348
15382W        W86998  16.753  27.112  12.085
15383W        W86999   8.407  18.157  12.994
15384W        W87000  32.983  11.109  12.605
15385W        W87001   1.253  29.578  10.799
15386W        W87002   2.516  41.303  11.125
15387W        W87003  26.163  23.579  14.776
15388W        W87004  39.949  21.132   4.168
15389W        W87005   0.043  34.004   1.677
15390W        W87006   9.778  39.104  14.506
15391W        W87007   6.373  33.075  12.936
15392W        W87008  30.912  22.388  14.441
15393W        W87009  14.403  23.161  12.103
15394W        W87010  19.590  24.729  14.895
15395W        W87011  21.542  24.989  10.660
15396W        W87012  24.617  16.153   3.848
15397W        W87013  13.985  17.357  13.046
15398W        W87014  16.314  14.792   3.018
15399W        W87015  16.140  21.959  14.757
15400W        W87016  23.581  39.448   2.155
15401W        W87017   3.071  15.217  10.706
15402W        W87018  27.189   4.967  14.788
15403W        W87019  11.599   8.306  14.067
15404W        W87020   4.678  15.814  14.540
15405W        W87021  20.601  18.992   4.328
15406W        W87022  39.815  23.167   4.875
15407W        W87023  25.675   0.373   2.120
15408W        W87024  32.275  22.170  13.443
15409W        W87025  16.617  25.154  12.392
15410W        W87026  31.149  12.484  11.076
15411W        W87027  42.446  34.184  14.813
15412W        W87028  11.678  20.314  10.655
15413W        W87029   1.269  43.854  12.074
15414W        W87030  40.009  44.886   1.814
15415W        W87031   3.503   1.900   0.008
15416W        W87032  21.932  36.864   2.311
15417W        W87033  27.001   4.230  14.109
15418W        W87034   4.192  10.327   4.234
15419W        W87035   1.232  44.425  10.665
15420W        W87036  17.784   8.151  11.178
15421W        W87037  26.580  33.402  11.538
15422W        W87038  42.963  25.144  13.529
15423W        W87039  42.474  19.226   0.707
15424W        W87040   3.321  43.461  11.734
15425W        W87041  19.267  14.381  14.204
15426W        W87042  44.426  12.836   1.780
15427W        W87043  17.805  13.460  11.598
15428W        W87044  42.347  30.960   3.849
15429W        W87045  36.587   1.479   2.317
15430W        W87046  44.288  42.041  12.484
15431W        W87047   6.354  43.463   1.921
15432W        W87048   3.688  28.882  11.050
15433W        W87049  34.994  38.636  12.394
15434W        W87050   1.960  30.166  14.820
15435W        W87051  25.040  25.954   1.311
15436W        W87052  11.339  42.542   3.485
15437W        W87053  20.775  31.950   1.175
15438W        W87054   5.929   0.307   2.314
15439W        W87055   3.790  10.866   0.875
15440W        W87056  34.831   9.841  10.744
15441W        W87057  36.537   8.758   2.023
15442W        W87058  39.976  14.761  12.520
15443W        W87059  24.552  24.335  11.980
15444W        W87060   1.782   5.357  12.137
15445W        W87061  14.249  16.543  13.083
15446W        W87062   0.336   0.912  11.492
15447W        W87063  38.889  37.769   4.038
15448W        W87064  43.119  37.452   3.869
15449W        W87065  19.653  19.303  13.950
15450W        W87066  38.537   4.276   2.754
15451W        W87067  19.340  21.991   1.385
15452W        W87068  27.494  24.755  14.139
15453W        W87069  34.007   4.992   1.517
15454W        W87070  28.759  11.727   0.895
15455W        W87071  22.800  21.674  12.003
15456W        W87072  29.445   3.764   4.686
15457W        W87073  44.800   6.690  11.077
15458W        W87074  12.188  19.270   3.991
15459W        W87075  30.086  39.647  14.892
15460W        W87076  10.304  42.900  10.608
15461W        W87077  41.392  25.710  11.967
15462W        W87078  38.458  35.577  14.960
15463W        W87079  42.724  18.770  11.417
15464W        W87080  20.508  44.026  13.648
15465W        W87081   3.675  33.177   3.491
15466W        W87082  32.600  33.641  13.126
15467W        W87083  16.589  27.041  13.062
15468W        W87084  31.943  31.927   2.304
15469W        W87085  16.398  22.038   2.376
15470W        W87086  44.956  39.275   0.919
15471W        W87087  41.287   5.228   0.689
15472W        W87088   4.610  14.058  14.394
15473W        W87089  28.298  13.468  11.257
15474W        W87090  20.183  14.806  14.498
15475W        W87091  44.928   2.233  10.327
15476W        W87092  23.536   6.866   4.867
15477W        W87093  12.703  22.150  11.485
15478W        W87094  19.248   3.717  13.049
15479W        W87095  40.891   4.700  11.341
15480W        W87096  40.209  38.856   3.935
15481W        W87097  16.823  34.951   0.004
15482W        W87098  39.910  18.978  12.696
15483W        W87099  39.799  10.601  10.683
15484W        W87100  15.676  31.671   3.913
15485W        W87101  37.071  29.496  11.659
15486W        W87102  42.248  20.040  11.179
15487W        W87103   1.846  14.835  13.523
15488W        W87104   0.338  39.225  14.237
15489W        W87105   9.439  14.090  12.618
15490W        W87106  35.680  23.737   1.386
15491W        W87107   8.542  37.500   4.161
15492W        W87108  18.648  31.154   0.640
15493W        W87109  15.768  26.234   2.814
15494W        W87110  24.821  31.939   2.334
15495W        W87111  30.205  24.175   4.333
15496W        W87112  15.036  32.088  10.646
15497W        W87113  15.004  25.081  13.341
15498W        W87114  14.043  41.760   4.264
15499W        W87115   3.377  10.621   1.556
15500W        W87116   5.778  22.437   3.674
15501W        W87117  12.349   5.482  13.328
15502W        W87118  13.618  41.499  14.311
15503W        W87119  35.005  44.767  11.313
15504W        W87120  36.321  12.900   1.270
15505W        W87121  39.878  34.794   2.170
15506W        W87122  25.176  24.051  11.288
15507W        W87123  11.367  12.089   3.675
15508W        W87124  27.571  10.238  14.041
15509W        W87125  37.930  15.263   3.791
15510W        W87126  23.411  31.451  13.981
15511W        W87127   0.723   5.903   2.765
15512W        W87128   7.345  24.578   4.129
15513W        W87129   7.374   6.237   1.869
15514W        W87130  31.082  30.872   4.356
15515W        W87131  24.583  36.647   2.378
15516W        W87132  14.300  18.508  14.890
15517W        W87133  38.047   5.695  10.717
15518W        W87134  18.519  26.539  14.333
15519W        W87135   6.924  44.560   1.989
15520W        W87136  29.239  27.496   1.825
15521W        W87137   1.913  32.084  11.981
15522W        W87138  35.821  21.188   0.060
15523W        W87139   9.031  37.396   4.322
15524W        W87140  33.086  22.781  14.003
15525W        W87141   1.491   2.260  13.724
15526W        W87142  18.863  25.252  11.066
15527W        W87143  37.862   8.774  13.787
15528W        W87144  24.342  35.432   0.102
15529W        W87145  23.769   4.472  11.128
15530W        W87146  18.312  15.227  14.808
15531W        W87147  23.912  30.862   2.782
15532W        W87148  24.083  37.850  13.628
15533W        W87149  21.231   2.792  12.823
15534W        W87150  36.551   0.215  11.911
15535W        W87151  33.559  43.540   2.788
15536W        W87152  43.423  33.049  13.975
15537W        W87153  25.316  12.740   4.306
15538W        W87154   4.721  34.608  14.333
15539W        W87155  14.676  44.416   3.782
15540W        W87156  14.286  38.047   1.337
15541W        W87157   7.757  18.286  10.182
15542W        W87158  11.029  37.727   3.159
15543W        W87159   1.006  22.985   5.154
15544W        W87160  20.469   1.565   2.149
15545W        W87161  33.106  29.722  11.162
15546W        W87162   4.906  21.621   3.098
15547W        W87163  15.676   8.514   1.014
15548W        W87164  16.211   5.982   5.530
15549W        W87165   2.966  36.056  13.328
15550W        W87166  26.136  32.064   1.291
15551W        W87167  11.860   4.733   4.465
15552W        W87168  42.280  26.729  11.309
15553W        W87169  32.093   2.964   2.218
15554W        W87170   3.860  16.612  10.899
15555W        W87171  39.841   5.961   2.677
15556W        W87172  37.403  28.457   4.831
15557W        W87173  38.578   2.474   0.328
15558W        W87174   2.991  25.550  14.178
15559W        W87175  37.857   7.630   4.590
15560W        W87176  31.630   8.298   1.009
15561W        W87177  28.677  37.542   3.893
15562W        W87178  39.498   8.432  12.070
15563W        W87179   6.262  33.312   0.353
15564W        W87180   6.778  27.686  13.592
15565W        W87181  41.549  17.081  11.672
15566W        W87182  41.287  35.049  11.761
15567W        W87183  37.154  33.926  12.473
15568W        W87184  32.899  15.406  14.370
15569W        W87185   2.184  25.783  14.122
15570W        W87186  39.585  19.268  11.082
15571W        W87187   8.745  23.641   0.228
15572W        W87188  40.881  40.255  14.952
15573W        W87189  19.491  30.112  12.023
15574W        W87190  37.900   8.883   1.684
15575W        W87191  34.577  21.558   4.548
15576W        W87192  43.929   3.194   0.980
15577W        W87193  38.560  20.243   1.402
15578W        W87194  42.113  26.634  13.074
15579W        W87195  23.664  35.096   1.741
15580W        W87196  23.985  44.081   3.798
15581W        W87197  44.365  42.945   4.884
15582W        W87198  14.284  40.376   1.872
15583W        W87199  24.492  39.548   0.970
15584W        W87200  28.631   9.971   0.267
15585W        W87201   9.483  23.046  13.990
15586W        W87202  15.594  15.684   0.099
15587W        W87203  15.795  15.186   3.766
15588W        W87204  20.453   6.375   4.136
15589W        W87205  14.278   1.348  14.405
15590W        W87206  43.603   0.071   0.311
15591W        W87207   1.996  43.269  14.879
15592W        W87208  13.021  30.373  10.304
15593W        W87209  40.939  18.060   0.959
15594W        W87210   0.961  27.517  10.561
15595W        W87211  23.973  18.242   0.753
15596W        W87212  36.821  28.932  10.592
15597W        W87213  36.488  22.620   0.046
15598W        W87214  32.023  19.992  13.885
15599W        W87215  19.198  28.911   1.794
15600W        W87216  15.068  12.138  11.522
15601W        W87217  19.700  12.160  14.988
15602W        W87218   5.805  44.835   3.292
15603W        W87219  24.202  21.160  14.885
15604W        W87220  31.783  21.814  11.636
15605W        W87221  14.407  15.645  13.195
15606W        W87222   2.439  26.174  13.120
15607W        W87223  34.423  26.325   3.968
15608W        W87224  21.584  15.766  13.013
15609W        W87225   0.214   8.716   4.120
15610W        W87226  39.116  16.198  11.834
15611W        W87227  38.581   9.207  12.154
15612W        W87228  18.852  40.060   4.321
15613W        W87229  37.835  13.898   5.249
15614W        W87230  25.569   2.839   0.397
15615W        W87231  24.023  27.116   4.557
15616W        W87232  19.461   8.269   1.986
15617W        W87233  44.778  37.731   3.449
15618W        W87234   8.280  26.523  11.632
15619W        W87235   3.340  40.286  14.049
15620W        W87236   5.809  36.002   4.684
15621W        W87237  22.261  24.565   3.322
15622W        W87238  31.480   1.563   5.063
15623W        W87239  40.285  14.677  14.797
15624W        W87240  24.236   4.812  11.190
15625W        W87241  18.293  43.497  13.470
15626W        W87242  27.698  12.892   1.834
15627W        W87243  36.104  17.305   2.848
15628W        W87244  10.474  23.131   0.892
15629W        W87245  10.076  40.534   3.177
15630W        W87246   4.301  36.956   2.100
15631W        W87247  34.188  22.615   3.056
15632W        W87248   2.481   3.462  10.764
15633W        W87249  36.167  19.757  12.831
15634W        W87250   0.064   9.746  12.779
15635W        W87251  22.178   8.049   4.675
15636W        W87252  44.902  23.919   2.138
15637W        W87253  32.387  13.038  11.059
15638W        W87254  44.052  43.914   1.713
15639W        W87255  35.048  22.604   0.339
15640W        W87256  26.165  11.686  13.836
15641W        W87257  15.000  21.300  12.037
15642W        W87258  17.299   1.398   3.264
15643W        W87259   9.616  11.248   3.026
15644W        W87260  11.882  30.106   3.317
15645W        W87261   8.808  14.640  12.476
15646W        W87262  43.134  20.582  12.984
15647W        W87263   4.359  42.347   0.581
15648W        W87264  39.760  36.169  11.114
15649W        W87265  10.634  44.252   2.835
15650W        W87266  34.904  12.203   2.736
15651W        W87267  38.074   4.934  11.233
15652W        W87268  30.111  23.319   3.309
15653W        W87269  25.667  28.479  14.037
15654W        W87270  34.451  14.639   4.602
15655W        W87271  13.725  18.956   5.074
15656W        W87272   8.863   6.452   2.639
15657W        W87273  28.655  34.102  12.383
15658W        W87274  15.840   1.068   4.907
15659W        W87275  13.245  24.385  13.461
15660W        W87276  21.177  20.044   4.471
15661W        W87277  30.176  27.175   4.396
15662W        W87278   9.973   9.419  13.082
15663W        W87279  40.603  25.898   4.267
15664W        W87280  35.570  30.621   2.182
15665W        W87281  18.791  30.386   3.939
15666W        W87282   1.370  18.050   2.657
15667W        W87283   9.517  36.903   3.324
15668W        W87284  24.431  14.783  14.410
15669W        W87285  22.260  16.086  12.033
15670W        W87286  32.207   9.255   3.212
15671W        W87287  31.122  28.386  12.903
15672W        W87288   9.310  24.514  11.138
15673W        W87289  20.586  44.460   0.442
15674W        W87290  25.102  17.861  11.632
15675W        W87291  24.888  34.476   1.457
15676W        W87292  29.043   5.254   1.704
15677W        W87293  26.702   4.699  10.347
15678W        W87294   3.513  33.128  11.059
15679W        W87295  22.166  34.428   0.491
15680W        W87296  19.193  36.468   4.636
15681W        W87297  14.543  23.077   4.147
15682W        W87298  35.995  18.043   3.135
15683W        W87299  11.941  25.945   4.114
15684W        W87300  24.776  19.083  12.012
15685W        W87301   3.871  35.017   0.483
15686W        W87302  26.249  18.338  13.873
15687W        W87303  39.926  38.592   4.409
15688W        W87304  30.195  20.641  12.566
15689W        W87305  10.050  22.546  10.728
15690W        W87306   3.920  12.776  13.551
15691W        W87307   4.419  30.301  14.418
15692W        W87308  13.655  35.443   5.115
15693W        W87309  17.032  18.342   1.164
15694W        W87310  25.322  32.394   4.151
15695W        W87311  27.063  19.180   0.694
15696W        W87312  14.042  11.326  11.603
15697W        W87313  12.831  10.635  12.858
15698W        W87314  13.275  32.093  12.205
15699W        W87315   6.288  31.457   1.155
15700W        W87316  35.596  34.881  10.754
15701W        W87317  39.867   6.980   1.712
15702W        W87318  22.884  36.967   3.690
15703W        W87319   5.882   2.996   0.014
15704W        W87320  34.121  35.132  10.681
15705W        W87321  16.836  25.166   2.365
15706W        W87322   3.315  44.951  13.542
15707W        W87323  40.879  24.864  13.947
15708W        W87324  22.728   3.370   0.370
15709W        W87325  33.571  36.004  11.079
15710W        W87326  29.164   6.124  14.180
15711W        W87327  29.432  12.606  10.204
15712W        W87328  44.324  25.637  14.934
15713W        W87329  17.334  17.726   9.703
15714W        W87330   0.734   1.990   1.854
15715W        W87331   1.588  37.758   1.632
15716W        W87332  14.838  40.986   1.474
15717W        W87333  44.326  31.917  11.906
15718W        W87334  34.332  37.186  13.077
15719W        W87335  11.794  18.045  11.252
15720W        W87336  11.265  27.868   3.359
15721W        W87337  14.370  26.909  13.907
15722W        W87338  29.570  22.206   2.882
15723W        W87339  28.598  16.245  12.987
15724W        W87340  32.693  29.483  13.525
15725W        W87341  12.876  23.751  11.521
15726W        W87342   7.909  44.857  14.610
15727W        W87343  26.931  41.739  11.594
15728W        W87344  22.130  18.477  13.481
15729W        W87345  28.121  18.062   2.094
15730W        W87346  20.308  28.023  13.086
15731W        W87347  33.073  44.976   0.434
15732W        W87348  32.584  42.756  13.000
15733W        W87349   1.807   1.727  11.539
15734W        W87350  36.355  34.528   2.462
15735W        W87351  14.522  43.154  13.900
15736W        W87352   9.876  20.888  12.012
15737W        W87353   3.209   3.455  14.563
15738W        W87354  11.461  24.944  11.893
15739W        W87355   1.082  19.096  13.942
15740W        W87356  31.062  34.967   3.673
15741W        W87357  39.847  24.495  10.744
15742W        W87358   4.181  43.108  13.434
15743W        W87359  27.886  40.595  13.056
15744W        W87360  22.257   3.867  11.133
15745W        W87361  13.103  29.515   1.730
15746W        W87362  43.552  11.842  11.768
15747W        W87363  17.565  38.833  14.441
15748W        W87364  13.840   8.358  13.480
15749W        W87365  13.883   5.396   3.461
15750W        W87366   8.252  39.420   2.569
15751W        W87367   7.667  25.249   1.313
15752W        W87368  31.055  25.084   2.754
15753W        W87369  32.151  41.116  11.049
15754W        W87370  17.046  26.855   1.006
15755W        W87371   6.397  37.453   0.020
15756W        W87372  10.432  36.115  11.220
15757W        W87373  38.340  25.207  13.396
15758W        W87374  44.777   2.381   2.536
15759W        W87375  38.347  44.869   2.459
15760W        W87376  23.987  31.101   1.386
15761W        W87377  29.547  21.924  11.895
15762W        W87378  20.288  20.838  11.079
15763W        W87379  28.003   8.625  12.962
15764W        W87380  30.648  11.105  11.012
15765W        W87381  28.018  31.039   3.447
15766W        W87382  25.289  40.492  10.659
15767W        W87383  32.512   0.872   1.262
15768W        W87384   1.331  15.965   1.152
15769W        W87385  43.522   0.499  13.713
15770W        W87386  37.849  40.021   4.701
15771W        W87387   0.498  20.798  11.490
15772W        W87388  12.573  43.457   1.867
15773W        W87389  34.115  10.010   2.956
15774W        W87390  27.438  32.400  12.005
15775W        W87391   8.142  13.556  11.615
15776W        W87392   6.231  21.677  11.245
15777W        W87393  29.130  31.419  11.842
15778W        W87394   1.384  29.408   2.200
15779W        W87395   5.850  27.125  13.306
15780W        W87396  24.699  21.997   3.400
15781W        W87397   8.674  15.254   1.431
15782W        W87398  18.541  18.702   2.078
15783W        W87399  44.966  25.555  12.934
15784W        W87400  17.035  19.175  13.811
15785W        W87401  40.594  33.649   4.804
15786W        W87402  15.534   0.181   1.269
15787W        W87403  18.374  38.524   0.851
15788W        W87404  26.811  24.990   2.876
15789W        W87405  40.291  30.919  14.740
15790W        W87406  33.608   5.202   3.266
15791W        W87407  15.032  32.930   2.849
15792W        W87408  25.527  32.754   2.673
15793W        W87409  10.707  20.131  14.107
15794W        W87410   2.408  40.080  12.631
15795W        W87411   0.325  11.101  12.972
15796W        W87412  30.847   2.203  11.535
15797W        W87413  37.829  11.185   2.182
15798W        W87414  11.513  27.946  13.660
15799W        W87415  38.828  40.619   2.860
15800W        W87416  14.729  25.979  12.582
15801W        W87417  43.667  41.225  13.940
15802W        W87418  40.671  22.683   3.022
15803W        W87419  27.467   1.003  14.054
15804W        W87420  41.929  29.937   0.520
15805W        W87421  25.165  10.829  12.155
15806W        W87422  24.908  10.628  13.120
15807W        W87423  23.618  29.598   3.916
15808W        W87424  43.577   7.272  14.000
15809W        W87425   9.897  33.942  11.206
15810W        W87426  27.684   8.128   2.655
15811W        W87427  12.572  19.112   1.297
15812W        W87428  15.263  33.373  11.719
15813W        W87429  24.936  21.665  13.415
15814W        W87430  34.625   9.267   3.686
15815W        W87431  26.217   4.782  10.493
15816W        W87432  13.229  11.891   2.534
15817W        W87433   0.648  19.683   3.775
15818W        W87434  34.802  25.552  14.230
15819W        W87435   3.869  14.833   4.203
15820W        W87436  13.106  20.701  14.540
15821W        W87437   6.610  37.638  12.343
15822W        W87438  31.496   3.426   3.867
15823W        W87439   8.738  40.758   0.599
15824W        W87440  14.289   3.304  14.470
15825W        W87441  11.880  41.951  12.469
15826W        W87442  19.000   3.279  13.116
15827W        W87443  36.910  24.644  12.824
15828W        W87444  21.058  37.889   0.547
15829W        W87445  23.111  43.578   1.409
15830W        W87446  26.330  42.321  10.361
15831W        W87447  29.603   4.801   4.687
15832W        W87448   6.994  43.346   0.366
15833W        W87449   6.933  14.602  13.055
15834W        W87450  16.169   0.943   1.879
15835W        W87451  22.988  32.973   2.127
15836W        W87452   0.563  38.254  14.501
15837W        W87453  38.617   2.843   4.373
15838W        W87454  25.011  14.591   0.207
15839W        W87455  14.757  21.286   4.560
15840W        W87456  14.578  18.003  10.244
15841W        W87457  37.336  37.652   3.231
15842W        W87458  16.239  26.207  12.864
15843W        W87459   0.200  30.142  11.927
15844W        W87460  25.358   6.857  12.915
15845W        W87461  38.034   9.303  14.970
15846W        W87462  35.173   7.496   2.033
15847W        W87463  33.794  40.431   0.369
15848W        W87464  27.167  26.424   2.900
15849W        W87465  30.653   7.082   3.464
15850W        W87466  40.552  12.694   2.613
15851W        W87467   1.851  10.709   4.102
15852W        W87468  24.686  20.942  14.923
15853W        W87469  44.153  42.361   3.698
15854W        W87470  24.985  17.761   2.870
15855W        W87471   5.114  43.943   3.696
15856W        W87472   6.856  43.319   2.169
15857W        W87473  25.067  15.374   1.476
15858W        W87474  24.572  34.082   1.381
15859W        W87475  14.141  33.872   0.785
15860W        W87476  14.790  30.641   2.352
15861W        W87477   0.076   8.694  11.208
15862W        W87478   3.540   6.287  14.404
15863W        W87479   0.906  32.501  13.835
15864W        W87480   6.127   2.688   3.402
15865W        W87481  15.527  30.188   0.310
15866W        W87482  40.776  30.540  12.998
15867W        W87483  25.708  30.094  13.977
15868W        W87484  40.366  14.236  11.113
15869W        W87485  12.336  17.639   4.149
15870W        W87486  17.704   2.409  12.969
15871W        W87487  12.030  14.409   4.178
15872W        W87488  21.489   5.166   4.072
15873W        W87489  41.200  12.183  11.102
15874W        W87490  24.991  43.421  11.903
15875W        W87491  31.634  39.282  12.952
15876W        W87492   7.846   6.043   2.618
15877W        W87493  21.570  21.476  13.561
15878W        W87494  36.105  11.465   1.594
15879W        W87495   8.856  32.597   2.015
15880W        W87496  19.163  25.202  13.305
15881W        W87497  10.643  20.105   2.756
15882W        W87498  31.388  40.364   4.210
15883W        W87499  37.427  25.541   3.158
15884W        W87500   5.640  42.879  10.130
15885W        W87501  30.874  10.834  12.969
15886W        W87502  10.664  25.905  12.619
15887W        W87503  16.868  14.753   2.233
15888W        W87504  36.262   2.247   1.864
15889W        W87505   9.824  16.217   2.683
15890W        W87506  10.399  12.100   2.638
15891W        W87507  10.397  36.477  11.663
15892W        W87508  40.593  38.687  12.430
15893W        W87509  34.893  29.116  13.860
15894W        W87510  28.422  22.238  11.091
15895W        W87511  13.899  14.630   0.074
15896W        W87512   4.277  38.136   2.883
15897W        W87513  32.054  35.398   1.808
15898W        W87514  43.863  18.591  14.810
15899W        W87515  10.747  38.989  13.371
15900W        W87516  14.781  32.473   0.872
15901W        W87517   7.922   0.124   1.309
15902W        W87518  41.931  42.498   0.741
15903W        W87519  27.979  40.838   0.578
15904W        W87520  35.391  24.177   4.105
15905W        W87521  36.111  38.094   0.190
15906W        W87522   7.877  22.778   3.746
15907W        W87523  19.564  30.650   4.571
15908W        W87524   6.848  13.853  10.485
15909W        W87525  32.516  27.384   1.313
15910W        W87526   1.275  25.521  12.090
15911W        W87527   5.871   8.600  12.559
15912W        W87528  15.555  15.338   9.841
15913W        W87529  12.313   4.695  10.587
15914W        W87530  35.184  20.327   0.347
15915W        W87531  20.260   2.298   4.706
15916W        W87532  28.697   2.346   1.191
15917W        W87533  41.991   3.711  14.777
15918W        W87534  20.143  17.855   2.882
15919W        W87535   3.278  30.065  14.518
15920W        W87536   0.233  37.530  13.853
15921W        W87537  43.323  32.757   2.869
15922W        W87538  34.257  16.903  13.188
15923W        W87539  40.729  18.809   4.355
15924W        W87540  13.243  26.729   2.442
15925W        W87541  22.217  21.617  12.675
15926W        W87542   1.283  14.639   3.174
15927W        W87543  10.197  15.738   4.764
15928W        W87544  36.421  23.922  13.010
15929W        W87545  23.379  31.402   0.398
15930W        W87546  22.951  42.023   0.315
15931W        W87547  21.787   3.230  11.698
15932W        W87548  41.310  36.131   4.479
15933W        W87549  27.144  29.105   2.473
15934W        W87550  10.059   9.137   1.026
15935W        W87551   8.695  11.113   2.535
15936W        W87552   7.212  14.799   3.638
15937W        W87553   0.708   8.555   4.136
15938W        W87554   3.504  10.761   4.579
15939W        W87555   3.898  37.778  11.242
15940W        W87556   2.464  21.667  10.695
15941W        W87557  12.235  10.157   2.530
15942W        W87558  41.390   2.846   0.928
15943W        W87559  21.193  35.746   1.878
15944W        W87560  14.772  25.096  10.776
15945W        W87561  11.743  32.678  14.740
15946W        W87562   7.829  18.466   4.966
15947W        W87563   3.498  12.409  10.737
15948W        W87564  10.523  21.044  12.624
15949W        W87565  10.718  33.122   1.809
15950W        W87566  27.072   4.037   2.144
15951W        W87567  34.440   6.798  14.124
15952W        W87568  22.769  18.157   4.716
15953W        W87569  42.786  25.089   4.409
15954W        W87570  32.540   5.423   2.764
15955W        W87571  22.082  26.428  14.456
15956W        W87572  35.348  35.779  11.490
15957W        W87573  16.753   4.449   4.138
15958W        W87574   3.660  16.597  14.366
15959W        W87575  21.070  13.242   2.922
15960W        W87576  34.436   5.855   3.263
15961W        W87577  23.317  14.312   1.838
15962W        W87578  20.234   3.722   1.801
15963W        W87579  39.362  38.816  14.786
15964W        W87580  11.715  18.022   2.678
15965W        W87581  10.695  43.755   4.621
15966W        W87582  14.642  28.564   3.184
15967W        W87583  30.660  15.720  14.970
15968W        W87584  18.523  30.467  11.257
15969W        W87585   3.006  15.330   3.244
15970W        W87586  15.248  30.449   2.778
15971W        W87587  21.698   9.103   1.896
15972W        W87588  12.922  14.131  14.376
15973W        W87589   2.250  19.610  11.090
15974W        W87590   7.245  27.655  12.588
15975W        W87591   8.486   9.801  14.939
15976W        W87592  18.136  20.007   1.777
15977W        W87593  37.979  44.571   4.061
15978W        W87594  18.694  42.207  11.142
15979W        W87595  11.101   0.403   0.308
15980W        W87596  15.155   4.471   4.651
15981W        W87597  42.917  42.468  10.658
15982W        W87598  24.069  16.573   2.246
15983W        W87599  22.139   0.070   1.348
15984W        W87600  10.302  10.793  10.762
15985W        W87601  31.938  19.757   3.800
15986W        W87602  19.023  27.878   1.732
15987W        W87603  11.907  17.247  11.158
15988W        W87604  32.649  18.403  12.822
15989W        W87605   4.743  11.173   0.728
15990W        W87606  23.012  32.827  13.348
15991W        W87607   1.430  11.030  14.820
15992W        W87608   9.152  12.104   2.238
15993W        W87609   9.167  34.883  13.403
15994W        W87610   0.079  19.269  14.909
15995W        W87611  34.870   2.718  13.291
15996W        W87612   0.790  12.619   0.294
15997W        W87613  44.726   6.343  14.878
15998W        W87614  22.565  41.060  12.871
15999W        W87615  36.104  10.679   0.479
16000W        W87616  29.118  29.395  12.929
16001W        W87617  12.165  40.813   0.983
16002W        W87618   6.635  34.752   0.301
16003W        W87619  16.148   0.732   2.368
16004W        W87620  26.629  40.099  14.242
16005W        W87621  22.636  34.218   0.412
16006W        W87622  19.761   4.158   4.138
16007W        W87623   8.812  35.895   2.335
16008W        W87624  29.654   3.361  13.001
16009W        W87625  40.677  15.801  14.989
16010W        W87626  37.591  31.622  11.670
16011W        W87627  33.853  40.699  11.668
16012W        W87628  20.717  20.003  12.403
16013W        W87629  31.636   4.805   0.155
16014W        W87630  18.144  18.828   0.219
16015W        W87631  42.966  43.249  11.540
16016W        W87632  39.008  23.191  13.897
16017W        W87633  33.090  20.795  11.429
16018W        W87634  19.394  28.264   3.652
16019W        W87635  19.197  20.292   0.322
16020W        W87636  31.014  15.995   2.889
16021W        W87637  39.140  11.141  10.311
16022W        W87638  30.560  40.487   2.958
16023W        W87639  12.288  34.704  14.384
16024W        W87640   8.391   3.848  13.604
16025W        W87641  11.807  43.101   3.886
16026W        W87642  34.491  28.240   4.119
16027W        W87643  18.081   2.878  13.494
16028W        W87644   0.803  29.650   2.187
16029W        W87645  43.641   5.901   0.393
16030W        W87646  19.060  35.660  14.279
16031W        W87647  24.786  32.383   0.289
16032W        W87648  14.364  25.343   1.265
16033W        W87649  20.984   9.655   0.290
16034W        W87650  19.635   4.960  11.730
16035W        W87651   1.045  28.717   4.156
16036W        W87652  23.413   3.352   4.981
16037W        W87653   5.562   5.081  13.483
16038W        W87654  42.198  12.298   2.660
16039W        W87655  13.677  31.160   2.198
16040W        W87656  29.494   6.293   3.398
16041W        W87657  23.301  28.030   0.924
16042W        W87658  11.798   2.043  13.316
16043W        W87659   9.766  17.770   4.314
16044W        W87660  37.528  33.538  11.711
16045W        W87661  29.180  29.591  13.637
16046W        W87662  20.327  15.146  12.040
16047W        W87663  44.920  41.830   0.417
16048W        W87664   7.857  24.643  11.465
16049W        W87665  31.112  19.141   1.641
16050W        W87666  40.598   5.658  11.098
16051W        W87667   2.532   4.916   1.652
16052W        W87668  30.402   4.872   1.389
16053W        W87669  38.878  20.746   3.347
16054W        W87670  28.445   3.847   0.088
16055W        W87671  29.699  22.532  14.926
16056W        W87672  15.570  10.202   2.700
16057W        W87673  11.141  23.530  11.796
16058W        W87674  15.801  19.636  13.815
16059W        W87675   6.899  34.458  11.476
16060W        W87676  20.170  39.451  11.182
16061W        W87677  18.333   7.849   1.846
16062W        W87678  26.044  13.310   4.864
16063W        W87679  24.020  11.202  12.896
16064W        W87680  16.203  29.004   4.037
16065W        W87681   3.516   1.839  10.547
16066W        W87682  30.310  25.675   2.815
16067W        W87683   6.416   7.884  14.013
16068W        W87684   0.030  34.926   4.339
16069W        W87685  20.619   1.530   2.643
16070W        W87686  33.535   2.425  11.678
16071W        W87687   2.528  28.912  10.177
16072W        W87688  26.630  41.796   1.927
16073W        W87689   7.749  20.819  13.553
16074W        W87690  25.644  34.913   1.936
16075W        W87691  38.241  28.081   3.340
16076W        W87692   3.323  39.779  13.965
16077W        W87693  22.490  12.782   1.920
16078W        W87694  25.212  27.129   2.197
16079W        W87695  42.450  16.222   1.001
16080W        W87696  44.343  39.466  14.811
16081W        W87697  31.790  18.241   2.673
16082W        W87698  32.257  33.220  10.983
16083W        W87699  21.755  23.651  14.316
16084W        W87700   0.969  14.813   3.680
16085W        W87701  25.137  27.474  14.348
16086W        W87702  28.706   1.355  11.418
16087W        W87703  23.752  13.792   4.463
16088W        W87704   4.618   8.420  11.215
16089W        W87705  31.805  18.530   3.162
16090W        W87706  27.143  21.872   0.007
16091W        W87707  28.385  36.075   0.689
16092W        W87708  21.334  38.660   0.982
16093W        W87709  44.539  16.397   2.182
16094W        W87710  11.574  22.434   2.366
16095W        W87711  15.685  41.382   4.720
16096W        W87712  25.994  22.285   3.699
16097W        W87713  14.617  27.693   3.793
16098W        W87714  28.057  42.052   1.374
16099W        W87715  11.332  27.417  11.085
16100W        W87716  12.178  27.024   4.662
16101W        W87717  16.730   1.335   4.559
16102W        W87718  15.711  32.103  11.782
16103W        W87719   5.484  20.570  14.803
16104W        W87720  22.492  40.992   1.509
16105W        W87721   0.737   2.260  13.165
16106W        W87722   0.561  27.031   3.819
16107W        W87723  17.531  35.782  11.581
16108W        W87724  18.082   5.678  12.529
16109W        W87725  17.491  32.584   4.538
16110W        W87726  17.337  10.768  12.945
16111W        W87727  33.162   6.980   2.310
16112W        W87728  42.295  17.141   4.117
16113W        W87729  25.944  32.501   4.075
16114W        W87730  19.565  10.869  12.384
16115W        W87731  39.767  28.216   3.012
16116W        W87732   4.315  14.930   0.816
16117W        W87733  10.140  36.287  12.069
16118W        W87734  31.161  28.575   1.236
16119W        W87735  43.910   7.704  12.750
16120W        W87736  42.449   9.663  14.396
16121W        W87737  31.562  40.040  13.468
16122W        W87738  38.014  39.888  11.326
16123W        W87739  19.774  27.159  14.371
16124W        W87740  20.480   5.272  11.477
16125W        W87741  19.188  33.368   0.590
16126W        W87742   7.225  26.223   2.160
16127W        W87743  27.705   5.615   4.472
16128W        W87744  23.124  32.131  10.995
16129W        W87745  43.547  12.385   4.624
16130W        W87746  26.230  37.132   1.444
16131W        W87747  33.292  21.377   1.755
16132W        W87748   2.722  40.391  11.140
16133W        W87749   6.387   3.061  11.080
16134W        W87750   3.324  36.688  14.838
16135W        W87751  11.126  26.136  12.717
16136W        W87752  42.553   2.378   1.038
16137W        W87753  29.557  29.677   4.611
16138W        W87754  15.135  12.114  14.246
16139W        W87755   6.716  14.648   2.741
16140W        W87756  22.120  12.045   3.015
16141W        W87757  15.139  11.159   2.799
16142W        W87758  33.935  21.493  12.332
16143W        W87759  43.046  28.457  10.799
16144W        W87760   7.249   1.743  13.435
16145W        W87761  14.145  14.034  14.498
16146W        W87762  40.937  19.773   3.266
16147W        W87763  41.770  24.082   3.755
16148W        W87764  23.693  34.591  11.507
16149W        W87765   2.142   9.173  12.251
16150W        W87766  41.568  35.276  11.028
16151W        W87767   0.935  22.681  14.800
16152W        W87768  16.060  42.035   3.658
16153W        W87769  32.373  31.949   4.066
16154W        W87770   6.106  25.461  12.408
16155W        W87771   4.744  38.804   0.892
16156W        W87772  37.948  40.800   3.701
16157W        W87773  31.127   4.165   1.870
16158W        W87774  35.431  42.501  11.712
16159W        W87775  44.800  36.018   0.721
16160W        W87776   0.205  26.497   3.134
16161W        W87777   5.722  22.811  14.529
16162W        W87778  32.582  37.334  14.497
16163W        W87779  32.272  14.177  10.378
16164W        W87780  16.603  24.081  11.011
16165W        W87781  38.196  20.620  13.796
16166W        W87782  31.935  44.197  13.274
16167W        W87783  12.801   3.040  12.373
16168W        W87784  20.067  28.966   2.740
16169W        W87785  11.344  31.055  14.489
16170W        W87786  43.866  13.177   0.570
16171W        W87787   9.351  18.242   1.892
16172W        W87788  35.817  14.324  11.501
16173W        W87789  19.560  12.305  12.001
16174W        W87790  22.532  12.808  10.350
16175W        W87791   3.774  21.282   3.587
16176W        W87792  30.579  39.757  11.561
16177W        W87793  13.631  13.200  12.928
16178W        W87794  41.749   3.944   0.841
16179W        W87795  21.245  21.066   4.373
16180W        W87796  27.941   7.777   1.548
16181W        W87797  10.915  34.601   4.604
16182W        W87798  41.598  38.790   4.807
16183W        W87799  18.708  19.340  14.829
16184W        W87800   9.080  16.703  11.997
16185W        W87801  42.419   4.469  11.061
16186W        W87802  44.856  34.326  12.914
16187W        W87803  14.281  29.666   0.699
16188W        W87804   1.755  14.108  14.360
16189W        W87805  23.871  40.346  14.012
16190W        W87806  25.511  14.236   2.264
16191W        W87807   8.139  17.805   0.840
16192W        W87808  21.655  26.031   0.971
16193W        W87809  44.590  20.801   4.152
16194W        W87810  44.226  12.107  14.349
16195W        W87811  26.737  19.551   1.220
16196W        W87812  22.026   6.609  13.343
16197W        W87813   8.592  11.930   2.728
16198W        W87814  35.054  25.465  11.549
16199W        W87815  10.635  11.372   0.566
16200W        W87816  39.554  42.426   3.628
16201W        W87817  31.616   6.343   4.218
16202W        W87818  39.367  13.523   2.625
16203W        W87819  17.462  16.307  13.506
16204W        W87820  29.008  24.653   4.918
16205W        W87821  13.128  43.880  10.818
16206W        W87822   7.173  25.899   3.143
16207W        W87823  24.730   5.749   3.368
16208W        W87824   7.851  14.492   2.235
16209W        W87825  13.726  29.012  14.151
16210W        W87826  13.819  11.178  13.533
16211W        W87827   8.126  23.110  14.537
16212W        W87828  13.187   4.897   1.439
16213W        W87829   5.419  12.845  10.728
16214W        W87830   7.439  19.686  11.595
16215W        W87831  19.041  31.407   4.688
16216W        W87832   5.084  36.980  12.911
16217W        W87833  18.018  25.904  11.044
16218W        W87834  23.873  29.950   4.563
16219W        W87835  24.633   5.923   0.403
16220W        W87836  15.672   8.167   0.478
16221W        W87837  23.313  12.746   3.230
16222W        W87838  22.585  27.295   5.143
16223W        W87839  13.142  16.253   2.305
16224W        W87840   9.420  10.053  11.134
16225W        W87841  29.063  11.394   2.351
16226W        W87842  15.580  30.567  11.266
16227W        W87843   8.678  25.165  11.033
16228W        W87844   3.927  19.487   4.783
16229W        W87845  10.162  17.180   1.817
16230W        W87846  24.385  26.616  10.664
16231W        W87847   1.060   8.756   0.804
16232W        W87848  33.629   4.669   3.266
16233W        W87849  24.346  21.307  12.053
16234W        W87850   5.874  32.648   1.697
16235W        W87851  44.341  13.719  10.908
16236W        W87852  10.267  17.768  12.608
16237W        W87853  39.056  22.669  11.717
16238W        W87854  13.117  32.109   3.761
16239W        W87855   9.593  31.074  13.475
16240W        W87856  26.781  32.879   2.253
16241W        W87857  33.465   4.944   2.843
16242W        W87858  15.148  35.650   2.242
16243W        W87859   9.332  23.698   4.567
16244W        W87860  12.976  36.771  10.672
16245W        W87861  37.419  34.115   3.316
16246W        W87862  24.108  22.524   0.939
16247W        W87863  31.429   2.870   2.643
16248W        W87864  34.504   5.275   2.407
16249W        W87865  44.458  10.206   3.252
16250W        W87866  29.664  17.848  13.540
16251W        W87867  23.657  21.113  14.886
16252W        W87868  41.867  40.285  13.122
16253W        W87869  39.740   1.874  12.140
16254W        W87870  37.352   3.970   2.651
16255W        W87871  10.648  34.895   4.195
16256W        W87872  21.823  36.833  13.316
16257W        W87873  19.656   8.718  11.850
16258W        W87874  44.778  27.927  13.010
16259W        W87875  40.380  10.750   3.620
16260W        W87876  33.985  36.738  14.007
16261W        W87877  14.862   8.742  13.849
16262W        W87878  22.034  44.532  12.881
16263W        W87879   3.763   2.292  10.476
16264W        W87880  13.643   5.915  13.487
16265W        W87881  42.653  41.528   1.372
16266W        W87882  41.970   0.960  12.041
16267W        W87883   3.289  32.423  14.749
16268W        W87884   0.868  28.211  13.653
16269W        W87885   4.949  14.065  14.794
16270W        W87886  25.623  13.230  14.097
16271W        W87887   5.437  15.727   1.322
16272W        W87888   2.025  12.240  11.564
16273W        W87889  13.882  15.319   2.669
16274W        W87890   1.532   0.444  11.271
16275W        W87891   5.651   5.643   4.191
16276W        W87892  25.672  26.617  11.463
16277W        W87893   0.557  29.335  11.484
16278W        W87894  42.307   8.771   2.013
16279W        W87895  39.345   0.890   1.859
16280W        W87896  38.675  25.571  13.925
16281W        W87897   4.981  20.575  13.957
16282W        W87898  27.954  17.184   2.614
16283W        W87899  33.359  39.441   2.159
16284W        W87900   2.315  16.512   0.283
16285W        W87901  31.180   5.801  11.339
16286W        W87902  14.729  28.640   0.512
16287W        W87903  31.310  25.194   3.725
16288W        W87904  40.831  21.727  11.433
16289W        W87905  40.915   0.288  14.796
16290W        W87906  39.953  38.485  11.149
16291W        W87907  13.409  13.770  14.898
16292W        W87908  21.357  14.681   4.510
16293W        W87909  31.980  33.824   2.462
16294W        W87910  35.653  30.492   1.677
16295W        W87911  27.846  27.075  14.890
16296W        W87912   3.754  40.357   4.716
16297W        W87913  28.211  26.927  10.336
16298W        W87914  43.758  44.310  12.185
16299W        W87915   8.311  31.650  12.051
16300W        W87916  41.101  38.869   4.683
16301W        W87917  19.623  19.641  10.339
16302W        W87918  17.161   2.265  10.768
16303W        W87919  22.299  32.937  13.752
16304W        W87920   7.842  19.489  11.131
16305W        W87921  11.445   1.534   2.007
16306W        W87922   0.977  29.059  12.333
16307W        W87923  38.418  33.980  14.386
16308W        W87924  31.419  25.715  12.647
16309W        W87925   9.381  40.607  13.493
16310W        W87926  31.743  34.493  12.382
16311W        W87927  37.419  14.565   5.051
16312W        W87928   6.122   8.312  14.153
16313W        W87929  31.987  22.406  11.918
16314W        W87930   4.634  26.030   1.807
16315W        W87931  10.227  17.772  14.875
16316W        W87932  30.173   9.913  12.367
16317W        W87933   7.161  40.491   3.703
16318W        W87934   9.817  38.474  12.144
16319W        W87935  32.232   6.806  13.681
16320W        W87936  16.591  36.618  12.864
16321W        W87937   7.366  28.523   1.859
16322W        W87938  43.503  36.328   4.230
16323W        W87939  26.240   0.247  14.843
16324W        W87940   2.665  33.841  11.420
16325W        W87941  15.322  44.839   4.861
16326W        W87942   6.237   4.881  10.749
16327W        W87943  38.142  35.895   2.258
16328W        W87944  42.067  42.933   4.168
16329W        W87945  19.494  37.885  13.986
16330W        W87946  36.430  14.013  10.509
16331W        W87947  40.054   9.857   2.236
16332W        W87948  16.650   0.023  12.092
16333W        W87949   5.435  32.628   4.035
16334W        W87950   4.535  42.306   0.113
16335W        W87951  13.241  39.598   9.918
16336W        W87952  38.205  24.451   0.125
16337W        W87953  41.200  34.965   4.531
16338W        W87954  36.344  14.779  11.275
16339W        W87955  24.680  21.650  11.171
16340W        W87956  24.818  29.760  13.862
16341W        W87957  38.914  11.079  10.758
16342W        W87958  14.791  22.076  14.319
16343W        W87959   0.489  37.883   0.274
16344W        W87960  41.474  25.688   0.494
16345W        W87961  18.186  36.358  13.717
16346W        W87962  37.013  11.006   3.743
16347W        W87963   6.529  32.694   2.097
16348W        W87964  24.399  34.574   1.248
16349W        W87965  32.848   1.688  14.841
16350W        W87966  29.031  39.502  13.315
16351W        W87967  42.872   2.498   3.205
16352W        W87968   4.701  44.173   2.785
16353W        W87969   7.693  24.171   0.309
16354W        W87970  11.788  14.609  12.052
16355W        W87971  19.710  34.624  13.832
16356W        W87972  23.655   9.948  12.097
16357W        W87973  40.899   2.989   2.393
16358W        W87974  19.127  30.969  13.425
16359W        W87975  31.478   0.590   2.674
16360W        W87976  32.838  32.068   4.225
16361W        W87977  18.492  17.800   0.826
16362W        W87978  41.541   2.779  12.948
16363W        W87979  40.707  35.837   5.003
16364W        W87980  37.053  41.054   2.808
16365W        W87981  15.814  24.525  12.421
16366W        W87982  23.648  18.531  14.483
16367W        W87983   9.075   8.421  13.774
16368W        W87984  20.159   3.385   4.988
16369W        W87985  38.828  27.144   1.413
16370W        W87986   8.609  17.277   5.112
16371W        W87987   3.396  32.612  10.992
16372W        W87988  17.259  18.707   4.145
16373W        W87989  23.241  41.934  13.945
16374W        W87990  38.369  19.612   0.764
16375W        W87991  25.136   4.157  11.621
16376W        W87992  16.177  40.731  10.416
16377W        W87993   1.449   6.000   2.421
16378W        W87994   5.812   5.500   0.459
16379W        W87995  22.577   6.720  14.017
16380W        W87996  43.913  31.978  11.503
16381W        W87997  34.611  44.535   1.847
16382W        W87998   8.700  34.822  11.126
16383W        W87999  26.665   4.365   4.875
16384W        W88000   9.801   9.707  10.396
16385W        W88001  23.729  41.859  12.942
16386W        W88002  10.930   2.904  12.071
16387W        W88003  39.684  19.166  11.902
16388W        W88004  15.851  26.604   9.990
16389W        W88005   3.147   9.523  11.528
16390W        W88006   0.421  32.922  11.920
16391W        W88007   3.295  44.021   2.899
16392W        W88008  23.535  13.221  13.131
16393W        W88009  31.113  15.480   3.661
16394W        W88010  20.446  17.278   0.856
16395W        W88011  29.209  23.288   1.782
16396W        W88012   5.888  42.874   4.156
16397W        W88013   0.275  40.148   3.653
16398W        W88014  33.908   6.696  12.332
16399W        W88015  37.495  38.084   3.658
16400W        W88016  39.986  44.868   1.297
16401W        W88017  36.417  33.902   3.146
16402W        W88018  25.907   1.678   1.819
16403W        W88019  12.834  38.460  13.505
16404W        W88020  17.492  33.596   1.916
16405W        W88021  31.364  17.613   3.673
16406W        W88022  34.429   0.405  13.407
16407W        W88023  33.179  41.992   1.230
16408W        W88024  26.100  38.790  11.495
16409W        W88025  32.702  16.554   4.120
16410W        W88026   1.746  29.944  14.390
16411W        W88027  28.534  31.185   2.643
16412W        W88028  11.392   4.365   3.238
16413W        W88029   0.183  39.917  13.390
16414W        W88030  38.255  16.565  14.124
16415W        W88031  23.175  40.464   4.081
16416W        W88032  13.726  38.098  13.947
16417W        W88033   5.943  12.917  10.753
16418W        W88034  43.599  44.058   1.941
16419W        W88035  41.964  35.305   2.307
16420W        W88036   0.179  36.503  12.412
16421W        W88037  43.959  13.389   1.412
16422W        W88038   1.260  22.582   4.941
16423W        W88039  18.963  39.759  10.847
16424W        W88040  34.432   0.632  12.617
16425W        W88041  35.555  10.786  13.829
16426W        W88042  36.954  25.137  12.146
16427W        W88043  43.673  27.257  12.983
16428W        W88044  31.360  40.859  12.527
16429W        W88045  42.224  42.383  14.001
16430W        W88046  23.264  26.980   3.866
16431W        W88047   2.890  19.068  12.425
16432W        W88048  19.746  24.355  13.467
16433W        W88049  21.845  32.585  12.368
16434W        W88050  22.531   5.025  11.191
16435W        W88051  38.496  36.502  14.502
16436W        W88052  13.075   7.168   2.211
16437W        W88053   8.776   6.884  10.594
16438W        W88054   5.420   3.238  12.748
16439W        W88055  43.323  35.187   3.593
16440W        W88056  27.413  11.261   4.105
16441W        W88057   6.926  43.982  13.360
16442W        W88058  37.766   0.262   4.564
16443W        W88059  35.581   1.304  14.853
16444W        W88060  24.975   6.387  11.150
16445W        W88061  30.144  25.766  14.906
16446W        W88062  19.143  44.449  12.458
16447W        W88063  35.651   9.422  12.048
16448W        W88064  32.036  29.709  10.108
16449W        W88065  10.625  12.078  12.900
16450W        W88066  34.247   4.666   1.881
16451W        W88067  12.542  12.817  11.158
16452W        W88068  43.475  34.078  10.319
16453W        W88069  15.469  21.003   2.791
16454W        W88070   4.343  24.711   2.421
16455W        W88071  38.104   6.505  12.481
16456W        W88072   9.306  11.377  14.515
16457W        W88073  30.075   5.927   2.612
16458W        W88074   6.842  41.913  12.361
16459W        W88075  27.938  33.990   4.867
16460W        W88076  14.371  41.614  12.384
16461W        W88077  15.515  18.360   0.503
16462W        W88078  39.887   7.093  11.958
16463W        W88079  29.856  39.989  12.056
16464W        W88080  30.060  10.133  13.721
16465W        W88081   2.731  23.114   0.423
16466W        W88082  33.355   7.828   1.000
16467W        W88083   3.003  34.290  11.443
16468W        W88084  22.489  29.710   0.040
16469W        W88085  37.969  26.778   4.532
16470W        W88086   4.699  43.782  10.208
16471W        W88087  17.822   4.447  10.732
16472W        W88088  35.414  41.879  14.328
16473W        W88089  40.282  36.105   0.531
16474W        W88090  31.333  18.542  14.266
16475W        W88091  19.768   0.711  14.354
16476W        W88092  22.089   9.682  14.191
16477W        W88093  32.895  11.589   0.454
16478W        W88094   8.159  12.656  14.240
16479W        W88095   2.421   9.604   3.382
16480W        W88096  23.393  35.478   2.365
16481W        W88097  22.554  10.088   0.842
16482W        W88098  24.055   3.443   0.920
16483W        W88099   8.217  15.134   2.749
16484W        W88100  10.859  38.459  14.096
16485W        W88101  22.225  42.734   3.159
16486W        W88102  42.931  28.518   0.249
16487W        W88103   5.332  37.501  10.673
16488W        W88104  40.124   6.737  13.791
16489W        W88105  17.158  19.598   1.913
16490W        W88106  26.571  37.430   4.965
16491W        W88107  15.955  37.962   1.806
16492W        W88108  36.450  21.474  12.201
16493W        W88109  40.775  26.003  10.945
16494W        W88110  27.181  27.567   1.891
16495W        W88111  44.922  37.573   2.454
16496W        W88112  23.990   0.838   0.835
16497W        W88113  39.354  32.675  12.515
16498W        W88114  27.413  38.208   0.365
16499W        W88115  35.177  20.167  14.317
16500W        W88116  16.361  17.818   0.317
16501W        W88117   7.564  30.873  13.347
16502W        W88118  42.418  27.768  13.353
16503W        W88119  14.248   0.518   3.170
16504W        W88120  12.882  24.438   1.893
16505W        W88121  34.115   9.890   4.875
16506W        W88122   0.001  30.556  13.425
16507W        W88123  24.495  14.626  10.736
16508W        W88124   6.802  18.480  14.482
16509W        W88125  35.475  26.492  12.708
16510W        W88126  18.181  44.799   3.772
16511W        W88127  20.976  44.980   3.829
16512W        W88128   2.498  30.420  13.084
16513W        W88129  32.096  27.029   2.589
16514W        W88130   0.540  25.202  11.561
16515W        W88131  27.456  12.916   4.145
16516W        W88132  29.203  13.967   3.765
16517W        W88133  34.982  21.233  13.009
16518W        W88134  28.160  32.053   0.227
16519W        W88135  23.206   2.510   3.388
16520W        W88136   4.682  37.052   3.307
16521W        W88137  24.399  29.104  12.192
16522W        W88138  21.265   0.461  13.513
16523W        W88139  37.015   3.874  14.361
16524W        W88140  36.823  24.038  11.490
16525W        W88141  19.397  22.419   1.074
16526W        W88142  16.299  43.455   2.263
16527W        W88143   6.289  12.917   1.544
16528W        W88144  11.144  24.628   3.720
16529W        W88145  23.345  17.538  14.898
16530W        W88146  33.926   9.460   4.485
16531W        W88147  26.575   1.863   3.328
16532W        W88148  41.121   0.416   0.944
16533W        W88149  21.648  41.844   3.179
16534W        W88150  25.541  42.431   4.002
16535W        W88151   6.483  21.678  10.295
16536W        W88152   0.515  29.092   4.595
16537W        W88153   0.513   6.975   2.317
16538W        W88154   2.211  24.109   4.631
16539W        W88155  20.267   0.386  10.977
16540W        W88156   2.515  20.701   0.778
16541W        W88157  13.380  14.284  11.108
16542W        W88158  26.943  23.494  14.838
16543W        W88159  16.677  23.302   3.146
16544W        W88160  30.078   5.342   3.659
16545W        W88161   6.770  44.786   0.937
16546W        W88162  40.983   7.388  13.208
16547W        W88163  29.493   1.762   1.440
16548W        W88164   5.275  35.324  14.370
16549W        W88165  37.076  22.287   0.514
16550W        W88166  17.195  41.625  10.405
16551W        W88167   3.737  23.273   0.796
16552W        W88168  20.108  11.871  10.697
16553W        W88169  26.270  39.413   1.396
16554W        W88170  37.548  44.725  12.810
16555W        W88171  23.650  26.742  11.138
16556W        W88172  30.406  37.337  13.876
16557W        W88173  17.960  23.225   4.563
16558W        W88174  29.009   1.818   1.672
16559W        W88175  37.156   4.011  12.942
16560W        W88176  26.565  16.378  10.401
16561W        W88177   3.263  34.928  10.655
16562W        W88178  40.177  43.833  13.438
16563W        W88179  12.265  43.347   3.880
16564W        W88180   5.664  31.570   0.399
16565W        W88181   5.266   1.018   1.090
16566W        W88182  13.849  13.292  11.084
16567W        W88183  30.843  10.247   0.788
16568W        W88184  39.894  30.334  11.544
16569W        W88185  30.171  28.251   1.871
16570W        W88186  16.495  16.061   0.912
16571W        W88187  18.502  11.826   3.668
16572W        W88188  43.027   1.263  13.361
16573W        W88189  24.007   0.231   1.892
16574W        W88190  42.010  37.598   3.747
16575W        W88191  28.602  16.582  12.550
16576W        W88192  39.033  40.781   4.625
16577W        W88193  16.484  10.835   3.172
16578W        W88194  15.050  21.547  10.698
16579W        W88195  36.526  10.295   3.608
16580W        W88196  39.067   1.692  13.523
16581W        W88197  42.718  18.816   3.126
16582W        W88198   3.278  36.527  11.228
16583W        W88199  20.993  22.223   0.869
16584W        W88200   2.199  43.067   4.650
16585W        W88201  38.444   0.907   4.496
16586W        W88202   4.466   2.009   3.609
16587W        W88203  31.459  11.240  13.745
16588W        W88204  10.119  33.395   1.773
16589W        W88205  27.520  42.019  12.152
16590W        W88206  20.084  10.712   2.911
16591W        W88207  22.685  25.788  11.909
16592W        W88208  34.068  13.671  11.422
16593W        W88209  39.080  40.969  11.757
16594W        W88210  40.758  27.141  12.382
16595W        W88211  25.079   4.469   3.389
16596W        W88212  16.570  20.667  13.007
16597W        W88213   6.129  43.340   4.082
16598W        W88214   8.900  26.006  12.978
16599W        W88215   6.284  30.401  13.749
16600W        W88216  29.283   8.781  11.752
16601W        W88217  38.011  24.772   3.254
16602W        W88218  18.533  15.833   2.016
16603W        W88219   9.164  41.964  13.582
16604W        W88220  34.906  12.830  14.866
16605W        W88221  25.489  41.367  12.123
16606W        W88222  26.715  39.579  12.408
16607W        W88223  43.740  26.886  12.206
16608W        W88224   8.109  42.445   0.451
16609W        W88225  20.977   5.180   4.039
16610W        W88226  25.020  26.658   1.747
16611W        W88227  28.392  39.415  10.687
16612W        W88228  40.220  11.913   4.243
16613W        W88229   6.619  32.360   0.035
16614W        W88230  28.793  42.157   3.656
16615W        W88231  37.357  22.987   3.692
16616W        W88232   7.843  31.577   3.380
16617W        W88233  27.087  32.575  13.476
16618W        W88234  43.274   5.080   4.259
16619W        W88235  13.813   4.590  11.597
16620W        W88236  44.840   4.875   1.943
16621W        W88237  31.631   1.517   1.934
16622W        W88238  24.434  22.240   2.719
16623W        W88239  13.164  37.632   1.807
16624W        W88240  37.559  19.612  13.021
16625W        W88241  29.499  33.762  12.076
16626W        W88242  16.570  15.074  11.424
16627W        W88243  10.078  19.045  13.355
16628W        W88244   4.020  34.452   4.071
16629W        W88245   5.581   3.228   0.885
16630W        W88246  19.133   0.340   4.808
16631W        W88247  41.320   6.110   0.412
16632W        W88248  22.438  31.956   2.347
16633W        W88249  30.485  17.972  12.251
16634W        W88250  15.180  38.232  11.253
16635W        W88251   8.103  39.603   0.264
16636W        W88252  15.367  31.561  13.414
16637W        W88253  13.162  11.754   3.862
16638W        W88254  33.778  33.021  14.420
16639W        W88255   9.230  27.852  13.253
16640W        W88256  35.955  13.525  11.100
16641W        W88257  20.694   2.264   1.346
16642W        W88258  36.446  18.351   2.325
16643W        W88259  25.994  34.575  10.416
16644W        W88260   4.192  24.101  10.609
16645W        W88261  25.978  24.455   0.790
16646W        W88262  17.160   7.078  10.540
16647W        W88263   5.754   7.546  12.525
16648W        W88264  24.181  19.526   0.355
16649W        W88265  11.335  25.906  11.426
16650W        W88266   7.955  37.544   2.795
16651W        W88267  15.182  29.435   0.245
16652W        W88268  25.279  26.594  12.338
16653W        W88269  20.658  44.506  14.937
16654W        W88270   3.221   6.130  12.899
16655W        W88271  28.971   6.995   3.689
16656W        W88272  22.298  22.708   1.329
16657W        W88273  34.109  34.999   3.689
16658W        W88274  10.716  42.531   1.398
16659W        W88275   4.677  30.023   3.654
16660W        W88276  13.564  22.762   3.702
16661W        W88277   9.407  27.214   0.471
16662W        W88278  23.622  21.474   1.124
16663W        W88279  24.055  17.786  12.997
16664W        W88280  16.092  29.894   1.485
16665W        W88281  40.052  32.693   3.865
16666W        W88282  29.850  26.930  14.052
16667W        W88283  42.252  21.884   2.197
16668W        W88284  39.476  38.456   4.201
16669W        W88285  43.220  39.118  14.851
16670W        W88286   6.773  37.610   4.822
16671W        W88287  27.550  36.164   1.885
16672W        W88288  16.533  33.424  12.356
16673W        W88289  24.609  40.064  13.627
16674W        W88290   4.972  42.077   5.022
16675W        W88291  32.154  40.728   1.749
16676W        W88292  21.700  41.871  10.699
16677W        W88293  15.602  31.957  12.768
16678W        W88294  20.121   1.805   1.832
16679W        W88295  17.228   4.675   0.337
16680W        W88296  33.220   5.475   1.980
16681W        W88297  36.071   9.372   3.634
16682W        W88298  30.126  10.892   0.448
16683W        W88299  44.331  19.213   2.962
16684W        W88300  29.128  35.088  11.227
16685W        W88301   5.171  33.316  12.822
16686W        W88302  21.178   2.873   4.377
16687W        W88303  10.699  34.977  14.561
16688W        W88304   7.405   4.709  13.352
16689W        W88305  34.938  20.099   1.740
16690W        W88306  12.161  14.258  11.903
16691W        W88307  22.379  35.517  13.062
16692W        W88308  39.019  29.945   2.700
16693W        W88309   6.221   6.763  13.492
16694W        W88310   7.914   0.256  14.960
16695W        W88311   4.263  34.501   0.855
16696W        W88312  17.498   5.379  10.757
16697W        W88313  33.212  24.807   0.516
16698W        W88314  36.657  28.982  13.950
16699W        W88315  18.976  41.730  13.328
16700W        W88316   5.615   9.886  11.566
16701W        W88317  39.169  16.766  13.050
16702W        W88318  41.059  20.332  12.508
16703W        W88319  27.125  44.853  10.747
16704W        W88320  44.420  28.503  14.221
16705W        W88321  26.729  17.080  13.818
16706W        W88322   5.295  36.481  14.854
16707W        W88323   9.777   3.883   2.168
16708W        W88324  10.044  26.132   4.860
16709W        W88325  26.980  15.062   3.611
16710W        W88326  15.681   4.877   4.105
16711W        W88327  33.067  23.572   3.374
16712W        W88328  29.608  12.318   4.621
16713W        W88329  37.957   2.517   2.294
16714W        W88330  16.290  44.005  13.026
16715W        W88331  15.869  43.481   4.573
16716W        W88332  32.194  43.771   3.238
16717W        W88333  42.505  25.154   3.539
16718W        W88334   4.966   3.856   2.369
16719W        W88335  13.073   3.731  10.441
16720W        W88336  10.941  23.084   4.188
16721W        W88337  35.452  21.175  14.365
16722W        W88338  23.916  30.590  13.796
16723W        W88339  40.037  10.677   1.555
16724W        W88340   9.830  41.951  10.366
16725W        W88341   1.784  32.244   1.242
16726W        W88342  21.643  13.060   2.295
16727W        W88343   3.245   9.385   3.654
16728W        W88344   4.479  29.041   3.539
16729W        W88345  31.936  25.998   3.774
16730W        W88346  33.665   0.368  12.836
16731W        W88347  10.062  31.198  10.720
16732W        W88348  10.110  30.427   4.835
16733W        W88349  22.321   3.955   3.659
16734W        W88350  24.757   5.314   1.302
16735W        W88351  29.364   8.867   1.231
16736W        W88352  20.917  10.347  11.878
16737W        W88353  32.707   3.981   4.141
16738W        W88354  22.122  19.397   4.852
16739W        W88355   5.168  26.448   4.058
16740W        W88356   9.152   5.109  11.138
16741W        W88357  13.694  44.917  11.173
16742W        W88358   9.843  24.633  10.887
16743W        W88359  24.035  31.961   0.285
16744W        W88360  24.079   8.931  14.417
16745W        W88361   9.089  32.146   4.607
16746W        W88362  38.934  17.785   0.690
16747W        W88363  17.789  22.786  10.717
16748W        W88364  18.369   0.666   0.451
16749W        W88365  12.733  44.837  12.443
16750W        W88366  16.024  18.673  13.508
16751W        W88367   5.739   1.719   1.388
16752W        W88368  38.475  17.243   2.256
16753W        W88369  11.921   6.771   4.031
16754W        W88370  15.589  44.070   3.203
16755W        W88371  38.405  13.274  11.431
16756W        W88372   5.720  14.084   0.338
16757W        W88373  44.653  27.765   1.892
16758W        W88374  36.845  11.308  13.098
16759W        W88375  37.683  17.469  13.347
16760W        W88376  34.596  28.056  12.381
16761W        W88377  21.703  20.232   3.710
16762W        W88378  23.535  43.209  11.556
16763W        W88379  27.077   9.845   2.712
16764W        W88380  34.854   0.321   5.350
16765W        W88381  22.736  33.835   3.352
16766W        W88382  32.190   4.025   1.266
16767W        W88383  11.267  32.602   3.415
16768W        W88384  33.865  37.011  11.535
16769W        W88385  14.065  39.849   1.808
16770W        W88386  43.705   3.920   1.714
16771W        W88387  17.814  23.986   2.731
16772W        W88388   7.630   5.840  11.632
16773W        W88389   6.237   5.964  10.432
16774W        W88390  22.220   0.481  13.913
16775W        W88391   3.470  42.240  14.471
16776W        W88392  42.436  13.533   2.294
16777W        W88393  20.045  32.076   5.089
16778W        W88394   4.847  38.815  11.612
16779W        W88395  21.697   1.852  14.941
16780W        W88396  30.468  31.973  12.959
16781W        W88397  10.075  32.177   4.627
16782W        W88398  38.561  23.760  13.422
16783W        W88399  11.614  24.241  14.320
16784W        W88400  21.038  16.337   3.659
16785W        W88401   1.386  13.572  13.870
16786W        W88402  37.381  41.711  10.926
16787W        W88403  17.344   5.758   3.219
16788W        W88404  10.695   1.619   5.207
16789W        W88405  23.522  35.333  11.228
16790W        W88406   3.722   3.794   3.609
16791W        W88407   6.762  35.660  11.009
16792W        W88408   7.823  19.991   2.268
16793W        W88409  37.334  43.237   1.046
16794W        W88410  22.096  24.690  14.377
16795W        W88411  42.107  36.256  11.991
16796W        W88412  37.569  20.755  14.884
16797W        W88413  10.627  12.737  14.397
16798W        W88414  23.085  28.000   3.692
16799W        W88415  31.283   2.794  12.304
16800W        W88416   4.894  11.684   4.070
16801W        W88417  30.996   8.136  11.117
16802W        W88418  25.594  42.557  14.717
16803W        W88419  43.389   4.306   1.015
16804W        W88420  15.737  30.713  12.233
16805W        W88421  29.814  35.081  13.381
16806W        W88422  22.242  28.647  14.036
16807W        W88423  10.923   3.839   3.666
16808W        W88424  22.982  17.844  14.372
16809W        W88425  28.974  39.129  14.986
16810W        W88426  29.496  15.373   4.640
16811W        W88427  15.668   3.371   0.772
16812W        W88428   9.615  11.226   2.163
16813W        W88429  41.576  33.971  14.125
16814W        W88430  17.017  43.970   0.835
16815W        W88431   7.228  27.616  14.496
16816W        W88432  17.624  16.864   1.934
16817W        W88433  21.515  44.829  12.059
16818W        W88434   7.283  31.736  13.393
16819W        W88435  33.875  20.105   4.079
16820W        W88436  42.218  20.061   2.303
16821W        W88437  12.881  32.578  12.924
16822W        W88438  38.869  26.639   1.363
16823W        W88439  23.175  27.539  12.878
16824W        W88440  36.115  28.392   0.897
16825W        W88441  28.480  26.787   4.200
16826W        W88442  24.999   7.752   0.467
16827W        W88443  19.719   1.232  10.657
16828W        W88444  10.691  19.822   4.171
16829W        W88445  23.295  44.102   2.272
16830W        W88446  31.876  13.656  13.920
16831W        W88447  16.173  44.552   0.803
16832W        W88448  31.017  10.679   2.650
16833W        W88449  12.154  10.797  11.138
16834W        W88450  27.503  12.084   3.732
16835W        W88451  35.497  23.113  12.687
16836W        W88452   8.823  30.895  14.884
16837W        W88453  35.431  40.599  12.996
16838W        W88454   6.787  17.037  10.410
16839W        W88455  19.757  15.077  11.719
16840W        W88456  22.220  24.159  13.124
16841W        W88457   1.913   2.392  11.177
16842W        W88458  13.073   6.191  14.009
16843W        W88459   6.386   2.480  14.684
16844W        W88460   7.099  37.518   3.067
16845W        W88461  13.588   4.437   9.977
16846W        W88462  22.123  33.051   0.926
16847W        W88463  26.174   6.396  11.546
16848W        W88464   1.961   9.831   0.351
16849W        W88465  16.050  35.152   3.167
16850W        W88466  20.792  26.745   3.700
16851W        W88467   7.955  25.152   4.581
16852W        W88468  32.587   5.448  10.716
16853W        W88469  34.118  13.608   1.501
16854W        W88470  36.623  43.030  14.974
16855W        W88471  10.714  12.830  11.652
16856W        W88472  38.410  15.260   3.566
16857W        W88473   9.916  23.040  14.964
16858W        W88474  43.655  23.069  13.166
16859W        W88475  31.735  21.546  12.688
16860W        W88476  16.268  10.756  11.209
16861W        W88477   9.264   7.615   3.381
16862W        W88478  38.879  19.272  14.970
16863W        W88479  29.426  18.777   3.659
16864W        W88480  10.435  19.277   0.738
16865W        W88481  20.252  29.216  14.428
16866W        W88482   6.989   5.235   4.606
16867W        W88483  44.752  23.276  13.351
16868W        W88484  43.343  26.496  12.401
16869W        W88485  17.336  21.079   0.696
16870W        W88486  33.387  29.030  10.210
16871W        W88487  17.184  42.375  13.226
16872W        W88488  26.220  13.358  12.407
16873W        W88489  27.090  29.045  11.236
16874W        W88490   6.156   7.792   2.820
16875W        W88491  37.993  36.907  12.242
16876W        W88492  33.011   5.672   2.709
16877W        W88493  22.021   2.156  11.179
16878W        W88494   0.426  13.033   0.888
16879W        W88495  18.234  11.599   4.101
16880W        W88496   2.777  37.038  10.972
16881W        W88497  34.510  29.706  11.584
16882W        W88498  25.703  10.894  10.700
16883W        W88499  11.099  44.435  10.617
16884W        W88500   8.484  33.180   2.757
16885W        W88501   1.509  30.027  10.687
16886W        W88502  29.197   4.733   1.733
16887W        W88503  27.778  23.601  14.421
16888W        W88504  42.472  37.808   2.223
16889W        W88505   7.779  15.609   4.546
16890W        W88506  16.855  14.983  13.443
16891W        W88507  13.884   0.237   1.882
16892W        W88508  22.231  23.153   2.373
16893W        W88509   5.407  18.526   2.649
16894W        W88510  13.459   1.167   1.164
16895W        W88511  38.163  34.575   4.508
16896W        W88512  19.178  38.730   9.847
16897W        W88513  21.049  37.526  11.166
16898W        W88514  40.296  32.346  12.534
16899W        W88515  35.439  10.756  11.358
16900W        W88516  14.774  17.127  11.547
16901W        W88517   8.176  38.059   2.712
16902W        W88518  20.726  39.017  10.687
16903W        W88519  41.989   3.395   3.182
16904W        W88520   0.065  30.473  12.902
16905W        W88521  28.963  21.601   3.184
16906W        W88522  12.148   8.687   1.509
16907W        W88523  13.514  37.049   4.311
16908W        W88524  38.441  44.596  14.935
16909W        W88525   1.856  37.633   4.634
16910W        W88526  12.608  44.998  13.280
16911W        W88527  17.230  16.364  13.987
16912W        W88528  37.083  39.020  11.413
16913W        W88529  35.927  37.394  12.037
16914W        W88530  27.479  15.699  12.670
16915W        W88531  29.032  44.469   1.373
16916W        W88532   3.727  41.069   0.962
16917W        W88533  18.335   7.779   0.405
16918W        W88534  42.772  31.216   3.672
16919W        W88535  27.794  38.448   1.171
16920W        W88536  29.137   6.477   3.754
16921W        W88537  17.615  30.762  13.769
16922W        W88538   3.229  11.394   3.889
16923W        W88539   4.286  10.141   1.081
16924W        W88540  29.955  41.370  10.875
16925W        W88541   5.838  25.159  14.880
16926W        W88542  14.738  27.779  12.242
16927W        W88543  39.282  42.339   0.518
16928W        W88544   8.262   3.409   1.595
16929W        W88545  13.219  19.866   3.297
16930W        W88546  42.281  32.963  14.520
16931W        W88547  29.635   1.807  10.383
16932W        W88548  21.194   8.122  12.025
16933W        W88549  30.941  12.828  12.008
16934W        W88550  34.603  44.486  14.951
16935W        W88551  32.499  26.350   0.099
16936W        W88552  27.170  21.028   4.471
16937W        W88553  15.529  33.100   2.713
16938W        W88554   7.722  17.505   0.042
16939W        W88555  10.169  20.619   0.952
16940W        W88556  42.351  38.928   0.685
16941W        W88557  31.054   7.757  12.372
16942W        W88558   1.356  36.066  11.972
16943W        W88559   2.641  13.555   2.148
16944W        W88560  16.427  35.109   0.310
16945W        W88561  27.825   9.604  10.449
16946W        W88562  13.643   2.951   1.445
16947W        W88563   2.200  11.180   2.875
16948W        W88564  27.218  14.202  10.077
16949W        W88565   1.834  25.721  13.695
16950W        W88566  23.675  30.000  13.863
16951W        W88567  10.838  44.723  13.242
16952W        W88568  43.466  15.045   1.344
16953W        W88569  31.114  40.507  11.708
16954W        W88570   2.925  12.117  12.136
16955W        W88571  39.205  21.139   4.346
16956W        W88572  31.953  27.149  14.301
16957W        W88573  21.993  16.518  12.121
16958W        W88574   7.252  11.122   2.855
16959W        W88575  43.170   8.890  10.777
16960W        W88576  15.142  15.699  11.599
16961W        W88577  41.472  23.064   3.787
16962W        W88578  36.200  34.688  10.091
16963W        W88579  37.608  22.942  13.813
16964W        W88580  43.988   2.411  13.813
16965W        W88581   1.977   1.339  11.129
16966W        W88582   8.177  40.338   1.132
16967W        W88583  26.043  24.868   2.487
16968W        W88584  34.799  11.163  13.930
16969W        W88585  11.796   9.954  12.588
16970W        W88586   2.947  28.630   3.228
16971W        W88587  44.548   0.138  12.386
16972W        W88588   5.697  12.762   4.358
16973W        W88589  37.227  34.797  12.493
16974W        W88590  32.965  39.836  14.425
16975W        W88591  12.907  16.637  12.792
16976W        W88592  30.524  44.854  12.982
16977W        W88593  22.582   5.892  10.233
16978W        W88594  42.431  16.966  14.480
16979W        W88595   9.756  33.886  14.568
16980W        W88596  18.525  40.899   3.304
16981W        W88597  13.806   8.863   0.715
16982W        W88598  12.370  10.282  13.483
16983W        W88599  44.557  28.515  12.887
16984W        W88600  26.168  21.069   4.903
16985W        W88601  21.109  17.359  10.719
16986W        W88602  10.494   8.599  12.164
16987W        W88603   8.801  19.481  11.606
16988W        W88604   1.831   1.234  14.515
16989W        W88605  19.597  10.112  12.866
16990W        W88606  31.376  17.321  14.062
16991W        W88607  38.424  12.546  14.050
16992W        W88608   7.812  33.018  11.182
16993W        W88609  23.501  32.870  11.964
16994W        W88610   7.831  35.831  12.016
16995W        W88611   6.810  41.774   4.589
16996W        W88612  17.305  33.847   3.056
16997W        W88613  31.641   8.945  11.132
16998W        W88614  18.033  33.687   1.887
16999W        W88615  21.526  12.293  11.820
17000W        W88616  35.515  27.634   0.280
17001W        W88617   1.012  24.618   3.686
17002W        W88618  23.890  40.938   2.400
17003W        W88619  10.702  43.445   4.067
17004W        W88620  38.454  31.737   0.503
17005W        W88621  39.327  36.275   1.326
17006W        W88622  16.323   0.062   2.889
17007W        W88623  16.345   6.200   0.045
17008W        W88624  13.117  30.465  11.960
17009W        W88625   9.265   2.251   3.637
17010W        W88626  32.665  21.057  11.570
17011W        W88627  37.452  16.860   2.161
17012W        W88628   5.571  10.387   1.988
17013W        W88629  31.626  34.890   1.019
17014W        W88630  29.020  42.531   2.651
17015W        W88631  34.746   9.393  12.063
17016W        W88632   4.580  37.095  13.382
17017W        W88633  10.757  27.238  13.013
17018W        W88634  36.913  43.974  14.347
17019W        W88635   6.228   5.437  11.574
17020W        W88636   5.501  10.677   1.300
17021W        W88637   0.358  13.233  12.438
17022W        W88638  27.682   5.460   3.219
17023W        W88639  41.399  16.795  14.015
17024W        W88640   7.463  22.036  11.366
17025W        W88641  31.352   1.304   1.257
17026W        W88642   2.851  25.087   1.718
17027W        W88643  28.154  42.422  14.243
17028W        W88644  22.999  17.519   1.203
17029W        W88645  38.936   1.023  10.698
17030W        W88646  21.814  24.554  13.885
17031W        W88647  27.161  18.613  12.893
17032W        W88648  37.445  41.811   4.627
17033W        W88649  37.583  24.686   4.041
17034W        W88650  44.435  43.779  10.631
17035W        W88651  18.104   4.801   1.412
17036W        W88652  35.316  32.000  10.755
17037W        W88653  33.132  22.495  13.562
17038W        W88654  42.513  22.194   1.840
17039W        W88655  13.509   5.472  10.640
17040W        W88656   8.904   5.541  10.647
17041W        W88657  40.790   9.822   0.968
17042W        W88658  12.139   8.192  12.164
17043W        W88659   5.624  31.638  13.512
17044W        W88660   1.725   3.686   1.797
17045W        W88661  21.181  33.390   4.184
17046W        W88662   3.121  44.020   0.958
17047W        W88663  31.190  38.400  12.628
17048W        W88664  41.722  32.775  14.753
17049W        W88665  40.063  14.236  13.184
17050W        W88666  15.685  30.873   4.205
17051W        W88667  31.122  35.595  14.810
17052W        W88668  14.238  15.043  13.996
17053W        W88669   5.629   6.835  12.926
17054W        W88670  26.940  11.171  12.517
17055W        W88671   3.444  44.400  12.347
17056W        W88672  11.162  19.635   4.281
17057W        W88673  18.015   1.322  12.971
17058W        W88674  12.185   6.316  13.567
17059W        W88675  21.131   6.108   3.696
17060W        W88676  28.102  22.679  12.387
17061W        W88677  38.083  37.080   0.409
17062W        W88678  28.518  29.951   1.405
17063W        W88679   1.663   9.870   2.226
17064W        W88680  33.974   6.815   4.568
17065W        W88681  24.181  33.057   3.236
17066W        W88682  28.645  41.859  13.107
17067W        W88683  22.092  39.570  11.666
17068W        W88684  32.382  34.096   2.190
17069W        W88685  30.904  38.669   3.833
17070W        W88686   7.561  16.294  13.322
17071W        W88687   8.489   6.736   2.892
17072W        W88688  35.959  18.563   4.023
17073W        W88689  37.574  25.204   1.425
17074W        W88690  28.098   2.323   0.566
17075W        W88691  24.414  14.851   3.112
17076W        W88692  40.931   9.268   3.112
17077W        W88693  12.809  11.080   4.783
17078W        W88694  30.430  33.067  13.518
17079W        W88695  41.225  33.926   1.042
17080W        W88696  34.366  38.969   3.309
17081W        W88697  11.593  18.150   1.210
17082W        W88698  36.188   8.592  11.938
17083W        W88699  24.208   3.181  14.649
17084W        W88700  34.881  24.692   3.334
17085W        W88701  27.315  23.255  13.990
17086W        W88702  31.886   0.742  11.102
17087W        W88703  15.324  13.063  11.624
17088W        W88704  23.761  33.596  13.454
17089W        W88705  31.139  27.078   1.939
17090W        W88706  31.655  26.638  11.042
17091W        W88707  34.028  34.952   1.327
17092W        W88708  17.735  37.941   2.107
17093W        W88709   6.899  22.129   4.090
17094W        W88710  36.903   0.100  11.122
17095W        W88711  18.701   3.947   0.574
17096W        W88712  29.520  35.049   3.737
17097W        W88713  31.685  25.628  12.178
17098W        W88714   4.771  39.043   3.788
17099W        W88715   9.197  26.665  10.592
17100W        W88716  41.254  26.537  12.552
17101W        W88717  20.581  19.595  10.570
17102W        W88718   2.565  30.567   3.147
17103W        W88719  37.309  30.184  13.762
17104W        W88720  41.927  39.479  10.180
17105W        W88721  44.977  36.891   3.610
17106W        W88722  18.244  14.600  11.073
17107W        W88723  32.096  39.819   4.488
17108W        W88724  24.985  23.708   3.891
17109W        W88725   0.784  34.845   0.698
17110W        W88726  13.647  40.467   3.145
17111W        W88727  16.904   0.150   0.334
17112W        W88728  22.592  30.237  10.005
17113W        W88729   5.261  24.641   1.941
17114W        W88730  14.637  43.713  13.868
17115W        W88731   1.592  42.833   3.847
17116W        W88732   4.921  13.567  14.985
17117W        W88733  34.952  20.305  12.663
17118W        W88734   7.299  34.836  13.923
17119W        W88735   6.214  42.778   2.345
17120W        W88736  17.478  30.487   0.808
17121W        W88737   8.861   4.956   3.161
17122W        W88738  37.228   4.486  10.398
17123W        W88739   5.224  41.363   3.702
17124W        W88740   3.367  37.557   2.411
17125W        W88741  36.966  19.280  11.185
17126W        W88742   0.054  20.527   3.657
17127W        W88743  44.280  34.851  13.384
17128W        W88744  28.747  21.135   0.028
17129W        W88745  44.156  19.228   1.926
17130W        W88746  40.828  15.113  12.102
17131W        W88747  43.765  35.451  11.893
17132W        W88748  32.436  13.804   3.784
17133W        W88749  43.423  10.263   2.305
17134W        W88750  24.304   2.075  10.233
17135W        W88751   5.477  37.548  13.459
17136W        W88752  25.625  41.843  13.943
17137W        W88753  30.709  17.712   3.302
17138W        W88754  40.993  16.168   1.239
17139W        W88755  22.100  14.349   2.345
17140W        W88756  27.522  39.513  14.535
17141W        W88757   5.567  43.864  10.418
17142W        W88758  22.903  28.603  13.421
17143W        W88759   9.842  26.244   1.386
17144W        W88760   7.581   0.449  12.844
17145W        W88761   7.958  35.452   2.616
17146W        W88762  32.168   4.195  12.422
17147W        W88763  28.995  25.883  12.229
17148W        W88764   0.805  10.758   3.954
17149W        W88765  44.231  42.634   0.416
17150W        W88766  24.227  30.902   4.558
17151W        W88767  18.647  27.928  13.464
17152W        W88768  33.498  25.710   3.706
17153W        W88769  31.486   1.454   3.814
17154W        W88770  23.699  41.891  11.230
17155W        W88771  10.146  10.531   2.637
17156W        W88772  31.130   6.737  12.319
17157W        W88773   0.127  28.816   0.932
17158W        W88774  36.502  29.166  13.269
17159W        W88775  35.336  31.009  12.452
17160W        W88776  27.614  11.782  14.807
17161W        W88777  32.824  37.328  10.899
17162W        W88778   7.889  13.164  14.941
17163W        W88779  42.565  23.816   1.107
17164W        W88780   4.698  23.593  13.906
17165W        W88781  31.455  26.849   0.778
17166W        W88782  13.209  42.338   1.431
17167W        W88783  32.168  40.189   1.830
17168W        W88784  18.029  16.833  13.108
17169W        W88785  18.557  40.884  13.373
17170W        W88786  39.546  32.365  12.915
17171W        W88787  29.129  33.309   4.016
17172W        W88788   1.758  23.416  13.977
17173W        W88789  26.949   4.685  13.792
17174W        W88790  38.168  35.096  12.468
17175W        W88791  40.494  10.134   2.115
17176W        W88792   8.573  10.053  14.452
17177W        W88793  11.174  36.303   3.678
17178W        W88794  30.641   0.037  14.405
17179W        W88795   7.763   1.674  13.749
17180W        W88796  42.781   8.926   1.836
17181W        W88797  35.910  20.255   1.847
17182W        W88798  17.757  11.113   0.673
17183W        W88799  38.880  16.172   0.376
17184W        W88800  19.675  16.688  10.749
17185W        W88801   9.176  27.021   4.635
17186W        W88802  24.923  12.125  12.425
17187W        W88803  34.848  17.847  13.225
17188W        W88804  21.850  24.473  14.842
17189W        W88805  23.017  32.189   4.109
17190W        W88806  11.385  25.719  13.903
17191W        W88807  37.527   5.851  14.092
17192W        W88808  27.730  16.665   0.303
17193W        W88809  43.101  35.345   4.996
17194W        W88810  27.426  19.652  11.559
17195W        W88811   7.805  23.888  14.319
17196W        W88812   3.273  41.982  14.881
17197W        W88813   6.846  32.653  12.654
17198W        W88814  15.879  27.094  11.988
17199W        W88815  42.542  20.574  13.837
17200W        W88816  35.602   6.938   0.457
17201W        W88817  18.053  12.124  11.603
17202W        W88818  10.795  26.582   0.825
17203W        W88819  31.558  44.055   4.708
17204W        W88820  32.930   3.761   3.639
17205W        W88821  34.736  28.302  12.864
17206W        W88822  38.699  31.124   0.283
17207W        W88823  27.335  43.271  10.553
17208W        W88824  12.958   1.352   1.222
17209W        W88825  37.775  33.637  14.973
17210W        W88826  43.779  13.696   0.665
17211W        W88827  32.177  25.530   0.343
17212W        W88828   9.398   6.835   0.675
17213W        W88829  34.755  44.389  14.287
17214W        W88830  44.356  17.607   1.387
17215W        W88831  14.369  35.123   1.406
17216W        W88832   3.328   4.030   0.840
17217W        W88833   2.357  24.497  14.716
17218W        W88834  33.113  38.001   0.721
17219W        W88835  43.319  34.947  12.476
17220W        W88836  22.779  38.102   1.007
17221W        W88837   7.429  17.002   3.389
17222W        W88838  10.847  12.852   3.339
17223W        W88839   5.509  12.167   1.283
17224W        W88840  17.213  18.935  12.385
17225W        W88841  26.146  29.904   3.905
17226W        W88842   3.287  32.421  10.315
17227W        W88843   3.121   4.271  14.848
17228W        W88844   0.867  25.182   3.324
17229W        W88845  15.363  29.632  12.818
17230W        W88846  37.516  15.329  14.478
17231W        W88847  28.403  39.819   2.332
17232W        W88848   3.827  25.507   3.924
17233W        W88849  32.641  13.167  14.847
17234W        W88850  20.042  17.505  14.201
17235W        W88851  33.105  32.361  13.986
17236W        W88852  42.475   0.452  12.499
17237W        W88853  26.565  23.725   0.952
17238W        W88854  35.245  16.989   1.728
17239W        W88855  26.963  21.696  11.205
17240W        W88856  12.768  44.780   3.199
17241W        W88857  13.258  22.279  12.970
17242W        W88858  19.494  38.876   4.100
17243W        W88859  33.965  36.109   0.838
17244W        W88860  21.942  36.376  14.034
17245W        W88861  43.322  37.534   0.875
17246W        W88862  10.545   6.884  12.410
17247W        W88863  30.441  22.639   4.039
17248W        W88864  16.707  30.498   3.418
17249W        W88865   4.599  36.374   1.699
17250W        W88866   6.649  29.924   3.726
17251W        W88867  17.001  39.587  12.989
17252W        W88868   6.595  16.335  12.124
17253W        W88869  33.936  36.963   1.212
17254W        W88870  35.062  17.066  11.334
17255W        W88871  25.918   4.333  10.597
17256W        W88872  40.999  35.372  12.510
17257W        W88873  42.873   0.810   3.644
17258W        W88874  14.228  34.968  14.597
17259W        W88875  23.933  27.534  13.466
17260W        W88876  37.698   9.777  10.271
17261W        W88877  32.078  35.702   2.265
17262W        W88878  26.555  42.872  10.253
17263W        W88879  24.122  16.784  12.113
17264W        W88880   2.243  20.222  10.730
17265W        W88881  10.709  25.528   2.583
17266W        W88882  41.553   7.833   2.846
17267W        W88883  12.279  32.793   4.567
17268W        W88884  43.226  26.487   4.087
17269W        W88885  37.308   5.781  14.535
17270W        W88886  15.040  40.643   4.253
17271W        W88887  34.507  37.066   1.792
17272W        W88888  13.372  11.369   1.802
17273W        W88889  34.098  30.605   1.030
17274W        W88890   8.385  34.957  14.798
17275W        W88891  10.837  26.935  10.717
17276W        W88892  32.466  41.005   1.388
17277W        W88893   1.667   8.339   1.258
17278W        W88894  42.749  25.489  14.703
17279W        W88895   4.044  17.339   3.141
17280W        W88896  29.567  36.422   0.807
17281W        W88897  40.356  40.280  14.765
17282W        W88898  19.200  30.918   0.435
17283W        W88899   9.838   8.498  13.320
17284W        W88900  38.827  18.104  11.724
17285W        W88901  13.942  37.050   3.268
17286W        W88902  38.885   4.447  14.235
17287W        W88903  40.529   3.509   3.289
17288W        W88904  16.587  17.222  13.999
17289W        W88905  38.260  43.383   1.921
17290W        W88906  30.402  30.611  13.427
17291W        W88907  14.815   9.781   0.736
17292W        W88908  25.655  38.950   0.432
17293W        W88909  31.680  11.127  10.245
17294W        W88910  33.426   3.397   1.098
17295W        W88911   2.955  42.430  13.823
17296W        W88912  34.976  17.556  12.044
17297W        W88913  36.902  34.556   0.796
17298W        W88914  38.851   1.995   2.310
17299W        W88915  14.584  36.429  11.134
17300W        W88916  13.168  24.930   3.315
17301W        W88917  44.506  34.369   0.263
17302W        W88918   8.754   3.118  13.556
17303W        W88919  43.274  14.064  13.002
17304W        W88920  19.206   3.349  14.860
17305W        W88921  32.573  14.067  14.336
17306W        W88922  34.988  10.609  11.120
17307W        W88923   1.350  16.331   0.790
17308W        W88924   9.704  15.917   4.665
17309W        W88925  14.587  21.601  14.270
17310W        W88926  30.658  20.600   4.141
17311W        W88927  20.480  16.490   1.177
17312W        W88928  31.835  29.201  13.830
17313W        W88929  37.346   7.387   0.949
17314W        W88930  20.051  26.972  13.959
17315W        W88931  41.646   3.819  14.395
17316W        W88932  15.297  14.843   3.700
17317W        W88933  32.214  17.788   3.274
17318W        W88934  19.216  37.892   2.716
17319W        W88935   8.845  13.466  12.628
17320W        W88936  30.718   0.100   4.344
17321W        W88937  26.423   9.792  14.892
17322W        W88938   8.170  29.843  14.030
17323W        W88939  23.742  26.642  12.096
17324W        W88940   5.457  25.973   0.661
17325W        W88941   7.074  16.151   2.154
17326W        W88942  40.320  22.074   1.229
17327W        W88943  39.039  17.400   3.482
17328W        W88944  43.761  25.219  13.124
17329W        W88945  13.685   6.789   9.498
17330W        W88946  38.310   8.733   3.604
17331W        W88947  25.233  24.504  10.437
17332W        W88948  40.971   7.414   4.850
17333W        W88949  28.237  28.520   2.686
17334W        W88950   6.909  13.390   4.724
17335W        W88951   1.933   8.858   0.233
17336W        W88952  12.183   3.653   4.153
17337W        W88953  14.308  12.747   3.664
17338W        W88954   6.778   2.746  11.167
17339W        W88955   3.949  14.191   3.184
17340W        W88956  34.984  31.712   0.879
17341W        W88957  41.289  39.068   5.141
17342W        W88958  22.560  37.119   0.890
17343W        W88959   8.356   5.805  13.821
17344W        W88960  12.658  37.845  12.995
17345W        W88961  18.136  21.512  10.456
17346W        W88962   2.947  44.824  12.956
17347W        W88963  40.034  35.205   0.486
17348W        W88964  12.909  17.683  14.004
17349W        W88965  30.281   9.109   4.773
17350W        W88966  13.535  27.959  14.326
17351W        W88967  41.794   8.981  10.809
17352W        W88968  28.010   1.051  12.375
17353W        W88969  18.959  10.378   3.544
17354W        W88970   8.242  43.355  11.164
17355W        W88971   7.199   0.828   2.415
17356W        W88972  38.540  11.672   3.831
17357W        W88973   0.453  12.526  14.840
17358W        W88974  33.662  24.677  13.628
17359W        W88975  14.846   4.486   2.708
17360W        W88976  25.503   2.487  13.495
17361W        W88977   1.007  38.424   2.318
17362W        W88978   9.651  41.388   0.325
17363W        W88979  22.704  35.827  11.124
17364W        W88980   2.912  25.379  11.055
17365W        W88981  25.440   0.841   1.955
17366W        W88982  34.363   7.759   0.873
17367W        W88983  26.143  25.634   0.813
17368W        W88984  19.130   4.679  10.549
17369W        W88985   4.193  25.365  10.439
17370W        W88986   6.636  17.537   2.311
17371W        W88987  35.389  24.080   0.042
17372W        W88988  31.062  25.516  11.512
17373W        W88989  13.268   2.402   4.617
17374W        W88990  19.312  22.607  13.957
17375W        W88991  10.263  39.283   3.692
17376W        W88992  31.187  36.820  12.534
17377W        W88993  39.613  35.366   3.299
17378W        W88994  42.021  23.079   3.695
17379W        W88995  14.941  19.547  11.069
17380W        W88996  12.234  24.519  13.855
17381W        W88997  39.511   4.301  14.934
17382W        W88998   7.262  40.978   3.516
17383W        W88999  44.521  28.061  12.551
17384W        W89000  30.983   2.012  14.072
17385W        W89001  19.097  14.125   1.695
17386W        W89002  32.572   5.946   2.823
17387W        W89003  42.879  10.194   0.489
17388W        W89004  41.007  30.114   4.782
17389W        W89005  26.132  41.871   4.618
17390W        W89006  40.486  11.526   1.306
17391W        W89007   3.418  33.414   0.685
17392W        W89008  16.477  20.664   5.157
17393W        W89009  19.051  13.289  10.548
17394W        W89010   1.723  28.861  14.836
17395W        W89011  29.475  41.323   0.068
17396W        W89012   6.357  23.079   3.648
17397W        W89013   2.939  41.093  13.952
17398W        W89014  39.338  31.623   2.752
17399W        W89015   0.899  30.537  10.702
17400W        W89016   5.677  10.797  11.503
17401W        W89017   8.786  36.374  11.986
17402W        W89018  28.896  11.576  12.045
17403W        W89019  39.931  29.244   1.223
17404W        W89020  15.262  31.323   3.335
17405W        W89021  19.547  15.465   0.761
17406W        W89022  31.227  43.221  10.678
17407W        W89023   4.396  13.569  12.907
17408W        W89024  22.518   7.355   4.550
17409W        W89025   1.864  15.850  14.517
17410W        W89026  21.627  21.002  11.563
17411W        W89027   7.230  42.039   3.248
17412W        W89028  35.145   7.804   1.351
17413W        W89029   9.606   2.918   1.960
17414W        W89030  15.174  33.122   0.421
17415W        W89031   9.820  19.958  10.761
17416W        W89032  24.654  15.044  12.099
17417W        W89033  36.402   5.650  14.057
17418W        W89034  25.106   7.731   2.296
17419W        W89035  38.903   0.760   1.614
17420W        W89036  43.851   3.271  11.837
17421W        W89037  13.213  30.299   4.416
17422W        W89038  22.022   8.934   4.058
17423W        W89039  32.404  44.044  13.975
17424W        W89040  34.608  16.232   0.827
17425W        W89041   2.451  20.889  14.452
17426W        W89042  39.489  10.991   4.073
17427W        W89043   4.728  33.531  11.212
17428W        W89044  14.709  16.743   2.415
17429W        W89045   9.958   4.371  12.968
17430W        W89046  12.435  41.194   0.727
17431W        W89047  22.636   9.567  14.924
17432W        W89048  18.074  36.241  14.978
17433W        W89049  44.408  10.441  10.783
17434W        W89050  21.593  39.520   0.579
17435W        W89051  15.178  29.368  10.706
17436W        W89052   4.379  28.161   2.303
17437W        W89053   9.552  12.903  13.419
17438W        W89054   2.826   5.635   2.802
17439W        W89055  12.802  14.314   1.991
17440W        W89056  24.153  13.310  12.022
17441W        W89057  43.432   3.779   4.833
17442W        W89058  36.715  38.913   2.282
17443W        W89059  39.051  18.536  12.484
17444W        W89060  13.240  22.618  14.750
17445W        W89061   7.866  32.968   4.113
17446W        W89062  44.003  17.884  10.737
17447W        W89063  27.111   5.729  13.357
17448W        W89064  23.991  27.814  11.263
17449W        W89065  21.600  22.174  13.787
17450W        W89066  32.441  27.725   2.003
17451W        W89067  34.013  11.144   0.772
17452W        W89068   8.620   9.754  14.006
17453W        W89069   3.622  31.485   3.592
17454W        W89070   5.745  29.309  14.746
17455W        W89071  40.812  42.096  13.365
17456W        W89072  31.245  30.802   2.291
17457W        W89073   7.079  34.396  13.022
17458W        W89074  35.588  26.291   2.660
17459W        W89075   1.898   5.344   3.685
17460W        W89076  10.311  41.061  12.084
17461W        W89077  20.744  20.140   1.356
17462W        W89078  33.872  29.950  10.357
17463W        W89079  18.796   0.406  14.370
17464W        W89080  25.428   6.392  10.303
17465W        W89081  20.679  28.304   1.247
17466W        W89082  44.572   6.819   2.847
17467W        W89083  42.508  42.889   3.299
17468W        W89084  19.531  11.192   3.214
17469W        W89085  15.256  28.570  14.889
17470W        W89086  15.622  43.525   3.146
17471W        W89087  16.220   2.245   1.204
17472W        W89088  16.651  17.560  12.477
17473W        W89089   3.209  19.217  13.137
17474W        W89090   8.646  41.059   4.044
17475W        W89091   1.816   9.081   2.903
17476W        W89092  14.857  19.847  14.838
17477W        W89093  39.319  18.695  14.397
17478W        W89094  15.308  17.133  11.571
17479W        W89095  34.699  42.033   2.664
17480W        W89096  44.368  41.720  14.004
17481W        W89097  40.770  38.731  14.002
17482W        W89098  35.015   5.441   3.235
17483W        W89099  10.400  26.975  12.785
17484W        W89100  33.719   2.313   4.562
17485W        W89101  34.451  34.592   0.796
17486W        W89102   6.512  11.907   1.304
17487W        W89103  39.001  16.329   2.780
17488W        W89104  17.640   6.307  12.352
17489W        W89105   9.604  38.225   2.482
17490W        W89106  13.380  43.799  11.616
17491W        W89107   2.829  30.440  10.868
17492W        W89108  18.807  37.477  12.563
17493W        W89109   6.242  11.680  13.394
17494W        W89110  14.892   8.167   2.516
17495W        W89111   3.708   7.144   4.284
17496W        W89112   0.874  18.998   4.489
17497W        W89113   8.671  26.511   1.723
17498W        W89114  33.047  14.106  13.859
17499W        W89115  14.949  32.461   4.858
17500W        W89116   6.595  40.078  13.916
17501W        W89117  34.770  35.511   4.000
17502W        W89118  25.747  36.606   0.360
17503W        W89119  37.886   0.026  12.092
17504W        W89120  41.721  13.327  14.826
17505W        W89121  43.213  44.964   4.126
17506W        W89122  20.114  42.535   1.213
17507W        W89123   8.135  18.312  12.524
17508W        W89124  13.897   0.254  13.474
17509W        W89125   4.896  42.816   2.354
17510W        W89126  20.458  11.099  11.841
17511W        W89127  44.326   9.401  13.595
17512W        W89128  42.665  22.661   2.707
17513W        W89129  21.183   8.628  11.143
17514W        W89130   4.422  35.014   1.721
17515W        W89131  42.436   9.126   4.883
17516W        W89132  10.893  26.277   2.389
17517W        W89133  30.543  13.187  12.044
17518W        W89134  13.595  10.712  13.548
17519W        W89135   8.189  40.504  11.398
17520W        W89136  14.408   2.943   4.178
17521W        W89137  21.566  31.475   3.795
17522W        W89138   9.293  30.167   3.792
17523W        W89139  13.849  41.495  10.680
17524W        W89140  26.253   7.152  12.850
17525W        W89141  28.300   7.777  13.489
17526W        W89142  20.931   3.474   2.617
17527W        W89143  25.400  36.406  10.882
17528W        W89144  27.020  21.788   2.483
17529W        W89145  44.027  18.687  10.407
17530W        W89146  33.018   6.195   2.692
17531W        W89147   9.602  27.547   1.758
17532W        W89148  31.166  11.266   3.193
17533W        W89149  41.089  42.764  13.780
17534W        W89150  44.194  40.846   2.913
17535W        W89151   1.278  18.867   0.886
17536W        W89152  39.831  13.100  11.544
17537W        W89153  39.784  33.084   3.627
17538W        W89154  41.100  24.645   4.654
17539W        W89155  17.324  42.641   3.764
17540W        W89156  31.751  29.060  12.746
17541W        W89157  36.515  25.249  13.398
17542W        W89158  23.210  32.107  12.689
17543W        W89159  33.676  35.943   3.762
17544W        W89160   3.155  12.680  14.875
17545W        W89161  12.266  24.971   2.743
17546W        W89162   8.718   6.025   2.918
17547W        W89163  37.366   6.001  12.878
17548W        W89164   4.230   5.451   3.295
17549W        W89165  37.552  39.979  11.673
17550W        W89166   4.616  19.400   4.193
17551W        W89167  26.231  17.064   0.910
17552W        W89168   2.395  21.635  12.531
17553W        W89169  30.963   5.079  10.194
17554W        W89170  42.577  27.099  14.734
17555W        W89171  13.019  12.254  10.622
17556W        W89172   9.306  15.875   2.156
17557W        W89173  17.850  23.706   0.540
17558W        W89174  43.313   5.452   2.796
17559W        W89175   1.226  10.927  13.910
17560W        W89176  16.827  31.900  10.231
17561W        W89177   5.821  41.664   4.651
17562W        W89178   4.311   8.081   2.635
17563W        W89179  17.692  36.112  10.648
17564W        W89180  33.496  36.265  12.840
17565W        W89181  23.109  44.810  12.732
17566W        W89182   4.851   2.405  14.521
17567W        W89183   0.011  19.039   0.798
17568W        W89184  16.679   3.747  10.567
17569W        W89185   1.923  27.854  14.941
17570W        W89186  30.503  40.527   0.700
17571W        W89187  24.912  39.531   4.540
17572W        W89188  44.937  22.274   3.612
17573W        W89189   5.900  11.243  11.573
17574W        W89190  31.854   6.880   4.720
17575W        W89191   2.712   4.996   3.292
17576W        W89192  34.584  43.346  13.003
17577W        W89193   7.770  23.193  13.730
17578W        W89194  35.899  10.348   1.064
17579W        W89195  34.408  16.823  12.333
17580W        W89196  25.713   2.206  11.671
17581W        W89197  43.939  13.159  11.995
17582W        W89198   2.199  28.227   2.124
17583W        W89199  14.612  20.182   0.776
17584W        W89200  31.152  11.041  13.380
17585W        W89201  44.206   9.379   0.896
17586W        W89202   0.326  17.654  10.373
17587W        W89203  26.559  31.545   4.202
17588W        W89204   5.977  19.810  12.048
17589W        W89205  30.460  21.840   0.978
17590W        W89206  19.804  36.950   4.703
17591W        W89207  36.579   9.089  10.649
17592W        W89208  40.400  21.030   9.978
17593W        W89209  26.414  36.802  11.583
17594W        W89210  16.122  15.525   5.102
17595W        W89211  23.159  29.977  12.973
17596W        W89212  19.050  20.010   4.119
17597W        W89213  40.678  14.708   3.801
17598W        W89214   2.438  40.494  11.561
17599W        W89215  40.807  13.805  14.774
17600W        W89216  32.741   6.891   0.827
17601W        W89217   2.522  25.475  14.433
17602W        W89218   1.304  11.633   3.807
17603W        W89219  30.143  21.043  14.481
17604W        W89220  37.029  19.607  13.047
17605W        W89221  12.056  16.582   1.715
17606W        W89222  31.007  20.191  12.379
17607W        W89223  22.269  23.640   0.945
17608W        W89224  29.770  34.947   4.621
17609W        W89225  21.691  23.886  11.996
17610W        W89226  13.214   8.278   0.987
17611W        W89227  29.670  38.769  12.933
17612W        W89228  30.471  32.114  11.111
17613W        W89229  20.670  13.328   4.603
17614W        W89230  44.993  21.002   3.083
17615W        W89231  19.283  19.676  14.202
17616W        W89232   1.003  15.067   3.227
17617W        W89233  23.623  32.085   0.965
17618W        W89234  13.840  29.387   3.263
17619W        W89235  14.699  10.803  13.573
17620W        W89236  44.139  41.483  10.671
17621W        W89237  19.959  22.203   3.863
17622W        W89238  33.983  12.760   1.708
17623W        W89239  31.824  41.411  10.766
17624W        W89240  10.046  18.356   3.307
17625W        W89241  32.467  35.066   4.191
17626W        W89242   0.888  12.786  12.040
17627W        W89243  26.974  22.729  11.951
17628W        W89244  30.869  26.675  14.929
17629W        W89245   5.476  24.605   0.974
17630W        W89246  26.912  23.209  11.753
17631W        W89247  20.699  25.547  13.395
17632W        W89248  44.288  27.424  10.429
17633W        W89249  19.510  31.441   1.245
17634W        W89250  29.571  25.274  10.664
17635W        W89251  11.579  25.012   4.064
17636W        W89252  30.442   1.222   3.686
17637W        W89253  16.809  17.340   4.630
17638W        W89254  33.019  13.274  13.465
17639W        W89255  32.001   4.447  11.576
17640W        W89256  28.385  30.726   0.350
17641W        W89257  44.267   9.841   2.310
17642W        W89258  41.267  34.407  14.211
17643W        W89259  24.257  11.292  11.484
17644W        W89260   5.813  31.532  14.474
17645W        W89261   3.381  22.285   4.309
17646W        W89262  22.130  19.584   0.338
17647W        W89263  21.392  44.028   1.600
17648W        W89264  19.168  12.291   2.527
17649W        W89265  42.233  33.161  11.904
17650W        W89266  33.561  44.248   1.377
17651W        W89267   2.656  18.215  12.837
17652W        W89268  15.590   1.962   3.313
17653W        W89269   0.221   2.844   0.494
17654W        W89270  18.642  30.113  11.577
17655W        W89271  14.766  35.979   3.326
17656W        W89272   2.272  25.156  13.891
17657W        W89273  21.388   8.997  10.312
17658W        W89274  38.955  35.793   2.809
17659W        W89275   3.846   9.610  10.609
17660W        W89276  33.958   5.947   2.306
17661W        W89277  13.466  36.851  14.577
17662W        W89278   7.932  32.049   3.608
17663W        W89279  12.629  17.654  13.001
17664W        W89280  26.978   1.024  14.869
17665W        W89281  36.080  13.226   3.339
17666W        W89282  10.745  29.879  10.561
17667W        W89283  30.889  33.126  11.497
17668W        W89284  41.364  13.915  12.918
17669W        W89285   3.764  13.337   2.779
17670W        W89286  15.520  16.102   4.601
17671W        W89287   1.969  34.338  14.488
17672W        W89288  28.499  11.664   4.475
17673W        W89289  33.877   6.384   3.720
17674W        W89290  27.962  33.699  13.616
17675W        W89291  29.058  21.971  11.566
17676W        W89292  38.234  44.765  10.817
17677W        W89293  31.424  34.325  14.255
17678W        W89294  38.787  36.363  11.154
17679W        W89295  13.896  31.121   1.359
17680W        W89296  25.008   3.723   0.303
17681W        W89297  13.457   9.287  14.487
17682W        W89298  42.546   1.189   0.541
17683W        W89299  35.037  39.363   3.869
17684W        W89300  41.489  35.882  12.873
17685W        W89301  14.805  42.238  12.005
17686W        W89302  13.068  27.077  13.455
17687W        W89303  19.109  30.854   4.783
17688W        W89304  23.558  19.046   1.429
17689W        W89305  39.350  41.864   0.313
17690W        W89306  21.975  19.810   3.568
17691W        W89307   6.855  43.410   1.282
17692W        W89308   3.742  39.021   1.332
17693W        W89309  16.797  24.381  11.417
17694W        W89310  15.274  25.108   2.648
17695W        W89311  31.992  14.873  10.739
17696W        W89312  44.011  35.393   1.648
17697W        W89313   6.816  38.249   3.533
17698W        W89314  28.207  13.789   4.198
17699W        W89315   7.443  12.257   3.578
17700W        W89316  28.216  42.276   4.509
17701W        W89317  24.194   9.883  11.513
17702W        W89318  38.808  37.967  12.463
17703W        W89319  31.683  24.758  10.764
17704W        W89320  15.932  20.720   2.820
17705W        W89321   1.750  11.730   0.178
17706W        W89322   4.414   3.506   0.365
17707W        W89323   1.448  15.595   3.294
17708W        W89324   9.277   4.205   2.316
17709W        W89325  17.756  19.257   2.940
17710W        W89326  18.671  37.552   2.052
17711W        W89327  43.868  35.562  10.924
17712W        W89328   0.811  11.487   1.355
17713W        W89329  36.588  11.402  14.416
17714W        W89330  29.133  28.016  12.476
17715W        W89331  22.804  29.632   5.024
17716W        W89332  22.575  31.913  12.035
17717W        W89333   3.410  34.329   1.426
17718W        W89334  14.122  21.385  12.947
17719W        W89335   1.969  39.869   2.420
17720W        W89336  44.014  25.585  14.480
17721W        W89337  14.731   9.199   0.221
17722W        W89338   0.847   2.535  13.588
17723W        W89339  36.489   6.178  14.927
17724W        W89340   1.444  22.557   3.658
17725W        W89341  16.586   3.510   0.674
17726W        W89342  13.412  15.572  13.351
17727W        W89343  17.480  24.760   3.763
17728W        W89344  26.132  17.488   4.655
17729W        W89345  26.052  29.433  14.616
17730W        W89346  31.301  24.146  13.471
17731W        W89347  16.484  14.547  11.441
17732W        W89348   9.853  20.037  14.805
17733W        W89349  26.142  41.113   0.018
17734W        W89350  32.694  37.266  12.591
17735W        W89351  23.772   5.472   3.127
17736W        W89352  44.991  10.150   3.806
17737W        W89353  24.020  32.628  12.129
17738W        W89354  24.191   5.720   3.298
17739W        W89355  24.944  14.863  14.380
17740W        W89356  31.385  28.955  13.678
17741W        W89357  31.996   3.776   2.838
17742W        W89358  12.196  35.823   1.014
17743W        W89359  28.917  26.746   2.224
17744W        W89360  29.926  20.493   2.283
17745W        W89361  39.061  25.802  13.014
17746W        W89362  28.030   6.270  10.244
17747W        W89363  11.770  29.877   1.353
17748W        W89364  25.564  14.813   2.329
17749W        W89365  16.620   6.888  11.663
17750W        W89366  36.886  28.669   1.256
17751W        W89367  32.302  20.271  10.521
17752W        W89368  21.356  43.968   0.387
17753W        W89369  41.733  36.901  13.458
17754W        W89370  20.421  42.764   3.693
17755W        W89371  40.482  26.696  12.403
17756W        W89372  15.066  30.633   1.377
17757W        W89373  37.981  31.981   3.224
17758W        W89374  26.736  35.792  13.882
17759W        W89375  42.871  29.526  10.695
17760W        W89376  37.938  15.237   0.825
17761W        W89377  32.498  42.567   1.761
17762W        W89378  23.194  17.759   2.162
17763W        W89379  42.038  24.171   2.260
17764W        W89380  40.163  16.545   1.313
17765W        W89381  22.054   2.830  10.606
17766W        W89382  28.092   1.968  11.717
17767W        W89383  14.252  15.854   3.286
17768W        W89384  16.679  38.910  11.596
17769W        W89385   5.650   5.867   1.299
17770W        W89386  10.460   6.449  13.536
17771W        W89387  11.738  42.584   3.801
17772W        W89388  22.022  35.943   2.300
17773W        W89389  33.593  37.883   0.425
17774W        W89390  26.668  42.845  11.150
17775W        W89391  34.996  39.534  14.717
17776W        W89392  38.062   0.063   3.277
17777W        W89393  37.450  38.629   3.135
17778W        W89394  11.158  41.383  10.898
17779W        W89395  42.789   8.313   4.104
17780W        W89396  16.114  31.064   3.448
17781W        W89397  35.140  42.705  14.951
17782W        W89398   9.452  20.735  14.310
17783W        W89399  41.568  16.739  13.522
17784W        W89400   2.039  15.261  12.063
17785W        W89401  25.136  40.398  13.037
17786W        W89402  12.665  16.053   4.315
17787W        W89403  15.277  22.269   3.658
17788W        W89404  34.884  21.131   4.428
17789W        W89405  29.264  23.692  11.994
17790W        W89406  30.483  43.192   1.341
17791W        W89407  32.013  22.610   4.280
17792W        W89408   9.097  24.995   2.346
17793W        W89409  16.669  44.029  11.721
17794W        W89410  23.564  20.486  13.811
17795W        W89411  33.501  17.116  11.556
17796W        W89412  38.989  30.055  14.419
17797W        W89413  39.937  35.067  12.961
17798W        W89414  38.637  36.143  12.371
17799W        W89415  31.115  41.785   4.518
17800W        W89416  28.069  25.175   3.650
17801W        W89417  22.740  33.528   4.270
17802W        W89418  35.509  13.395  11.930
17803W        W89419  36.993  17.330  10.577
17804W        W89420  35.046  41.801  14.680
17805W        W89421  17.564  16.941   9.616
17806W        W89422  34.020   9.858  10.850
17807W        W89423  28.166  10.624  11.356
17808W        W89424  32.149  44.331   4.144
17809W        W89425  22.607  22.099   3.752
17810W        W89426   0.029   4.239   3.298
17811W        W89427  37.490  39.515  10.753
17812W        W89428  23.467  32.620  13.432
17813W        W89429   5.144   1.402  13.978
17814W        W89430  31.192  11.309  12.958
17815W        W89431  40.386  42.293   1.881
17816W        W89432  44.230  26.724  12.494
17817W        W89433  12.769  15.200   1.810
17818W        W89434   5.717  14.670  11.906
17819W        W89435  30.559   6.256   2.325
17820W        W89436  11.417  13.653  13.832
17821W        W89437  15.166  22.233   1.304
17822W        W89438  22.954  34.138   0.805
17823W        W89439  31.812   4.319  12.044
17824W        W89440  44.471  38.587  14.909
17825W        W89441  22.177  41.411   2.126
17826W        W89442  27.607  13.679  14.001
17827W        W89443  35.656  13.324   3.624
17828W        W89444  27.643   1.310  14.905
17829W        W89445  36.567  11.736  13.137
17830W        W89446   1.427  18.290   4.386
17831W        W89447  21.061  10.128   3.244
17832W        W89448  25.503  39.317  13.805
17833W        W89449  16.849   0.375   4.823
17834W        W89450  12.147  25.881  14.831
17835W        W89451   0.536  11.524  14.866
17836W        W89452  27.145  29.668   4.327
17837W        W89453  42.273  35.397   5.276
17838W        W89454  38.703  20.325   4.534
17839W        W89455  10.576  31.077  11.447
17840W        W89456  20.699   8.416  11.221
17841W        W89457   7.214  28.459   2.349
17842W        W89458  30.642  42.457   0.022
17843W        W89459  17.197  15.914   2.890
17844W        W89460  16.784  41.522   3.732
17845W        W89461  37.724  34.441   1.191
17846W        W89462  10.280  36.588   0.134
17847W        W89463  18.036  21.825  14.786
17848W        W89464   7.837  13.227   3.842
17849W        W89465  12.647   3.036  11.879
17850W        W89466   6.253  10.351   9.945
17851W        W89467  40.820  32.565  10.712
17852W        W89468   4.299   3.947  11.644
17853W        W89469  16.811  25.962   2.901
17854W        W89470  20.814  29.574  10.689
17855W        W89471  44.505   8.328  12.172
17856W        W89472   7.547   7.203  12.960
17857W        W89473  10.753  20.272   0.111
17858W        W89474   7.253  16.197  14.919
17859W        W89475  22.209  27.819  14.946
17860W        W89476  15.833  39.403  10.636
17861W        W89477   5.660  11.157  11.117
17862W        W89478  29.664  14.488  13.227
17863W        W89479  13.644  41.241   1.172
17864W        W89480  33.884  38.804  14.953
17865W        W89481  24.088  34.132   9.942
17866W        W89482  13.721  44.597  12.342
17867W        W89483  40.291  33.329  12.993
17868W        W89484   3.438  40.927  13.853
17869W        W89485  22.934   2.907  10.763
17870W        W89486  14.068  12.339  11.444
17871W        W89487  34.190   4.124  14.785
17872W        W89488  28.865  32.397   3.273
17873W        W89489  28.215  29.518  14.044
17874W        W89490   4.775  30.005  12.933
17875W        W89491   6.337   7.839  11.501
17876W        W89492  42.519  21.982   3.230
17877W        W89493  19.597  41.876   1.306
17878W        W89494  35.299  33.494   4.502
17879W        W89495  27.613  29.447   1.268
17880W        W89496  15.328  16.650  11.001
17881W        W89497  32.086  10.224  13.777
17882W        W89498  17.231  28.252  13.889
17883W        W89499  22.644  41.266   1.932
17884W        W89500  40.904  19.278   3.146
17885W        W89501  12.329  20.129   2.645
17886W        W89502   0.295  39.338   0.275
17887W        W89503  11.692  42.501  11.603
17888W        W89504  39.491  16.100  14.443
17889W        W89505  21.785  37.074   2.766
17890W        W89506  27.563  22.784   2.835
17891W        W89507  24.106  38.628   2.252
17892W        W89508  40.776  40.598   0.419
17893W        W89509  25.595  35.917   3.069
17894W        W89510  35.811  38.930  11.144
17895W        W89511  33.935  16.413  11.536
17896W        W89512  15.192  13.602  13.421
17897W        W89513  30.586  41.553   1.871
17898W        W89514  43.197   6.282   0.774
17899W        W89515  38.570  10.564   5.205
17900W        W89516   8.808   3.716  11.941
17901W        W89517   2.315  34.500  10.719
17902W        W89518  41.558  31.448  10.685
17903W        W89519  35.435   8.352  12.445
17904W        W89520  18.503   0.765  10.781
17905W        W89521  37.315  35.056  11.596
17906W        W89522  42.823  34.927  10.458
17907W        W89523  22.078  29.209   1.963
17908W        W89524   1.567  27.343  12.869
17909W        W89525   5.953  20.306  12.119
17910W        W89526   7.278  38.115   4.307
17911W        W89527  42.546   4.742  10.645
17912W        W89528   3.372  14.800  10.662
17913W        W89529  35.437  30.092   1.983
17914W        W89530  17.072   2.003   2.116
17915W        W89531   8.193  18.583  13.446
17916W        W89532   0.077  41.649  13.056
17917W        W89533   0.721  13.723   4.193
17918W        W89534   2.947  43.893   1.725
17919W        W89535  31.594  35.444   2.308
17920W        W89536  30.401  30.963   1.312
17921W        W89537  44.998  39.961  11.945
17922W        W89538  32.500  28.083   4.140
17923W        W89539  36.360  12.835   2.871
17924W        W89540  30.149  40.030   3.926
17925W        W89541  18.758  27.010  13.506
17926W        W89542  38.975  37.471  14.308
17927W        W89543  13.140  31.257  12.184
17928W        W89544   1.465  43.593  10.447
17929W        W89545  26.422  30.971   1.400
17930W        W89546  23.988  26.615   1.919
17931W        W89547  42.790   0.788  13.339
17932W        W89548  25.726  25.276  11.075
17933W        W89549  16.164  11.803  13.443
17934W        W89550  23.251  22.035  14.619
17935W        W89551  12.575  22.980   1.835
17936W        W89552  12.080  32.114   0.887
17937W        W89553  18.467   4.697  11.989
17938W        W89554  12.406  24.492  14.977
17939W        W89555   0.338  35.143  11.865
17940W        W89556  21.169   4.945   1.308
17941W        W89557  29.063  42.076  14.344
17942W        W89558   8.425  35.562  13.974
17943W        W89559  37.211   4.652   4.999
17944W        W89560  44.818   4.578   2.369
17945W        W89561  43.734  44.491  12.672
17946W        W89562  19.352  32.164  12.802
17947W        W89563  34.342  32.238  10.738
17948W        W89564   7.233   4.351   1.380
17949W        W89565   5.212   3.904  12.611
17950W        W89566  35.171  21.123  11.640
17951W        W89567  25.729   6.798   3.170
17952W        W89568  12.697  16.318  13.176
17953W        W89569   8.346   8.697  10.677
17954W        W89570  38.994   9.168   5.095
17955W        W89571  36.871  18.398  14.923
17956W        W89572  36.440  21.745   1.366
17957W        W89573  12.679  31.092   2.249
17958W        W89574  40.265   3.300   0.467
17959W        W89575  38.921  28.996   1.736
17960W        W89576  20.724  25.506  11.835
17961W        W89577  38.810  33.973   1.061
17962W        W89578  44.959  25.100  13.324
17963W        W89579  21.626  32.369  11.970
17964W        W89580  41.044  43.452   4.742
17965W        W89581  41.554  13.381   4.486
17966W        W89582  20.121  22.351  12.674
17967W        W89583  30.324  21.681  11.594
17968W        W89584   3.268  44.915  14.403
17969W        W89585  26.952  18.760  12.433
17970W        W89586  27.057   5.578  11.963
17971W        W89587  23.334  44.874   3.567
17972W        W89588  29.493  13.580   0.746
17973W        W89589  13.181  16.973   1.054
17974W        W89590  13.033  10.191   3.186
17975W        W89591  37.654  18.180   0.325
17976W        W89592   4.697  38.372  13.287
17977W        W89593  29.457  21.716  10.584
17978W        W89594  15.660  23.412   1.636
17979W        W89595   7.293   6.424  13.413
17980W        W89596  29.703   3.962   2.884
17981W        W89597  28.246  32.797   1.251
17982W        W89598   2.648  37.511   2.548
17983W        W89599  26.603   0.459  13.892
17984W        W89600   2.872  42.290   0.765
17985W        W89601  29.029  28.457   2.313
17986W        W89602  36.381  19.686  10.189
17987W        W89603  13.751   6.888  12.647
17988W        W89604  17.082  19.236  14.959
17989W        W89605   3.714  18.543  12.419
17990W        W89606  22.707   1.458  13.193
17991W        W89607  39.818  21.996   3.909
17992W        W89608  44.323  13.663  12.507
17993W        W89609  22.691  10.341   1.750
17994W        W89610  37.257   7.910   0.917
17995W        W89611   2.896  40.760  12.504
17996W        W89612  15.722  28.795   5.030
17997W        W89613  12.307  13.236   2.645
17998W        W89614  39.342  40.144  12.869
17999W        W89615  22.256  13.349   3.671
18000W        W89616  38.014  29.001   3.731
18001W        W89617  35.594  24.675  11.556
18002W        W89618  13.748  16.102  12.488
18003W        W89619   3.293  16.616  12.979
18004W        W89620  38.342   3.901   0.242
18005W        W89621  11.259  27.373   3.331
18006W        W89622  23.037  41.113  13.149
18007W        W89623  29.268  20.212  12.033
18008W        W89624  34.881  20.734  12.926
18009W        W89625  29.163   3.742  11.926
18010W        W89626  41.105  19.021   3.567
18011W        W89627  25.161  38.351  12.855
18012W        W89628   6.016  40.981   2.613
18013W        W89629  41.929  19.239  13.014
18014W        W89630   1.978  25.550   3.302
18015W        W89631  41.853  26.081  14.748
18016W        W89632  41.084   3.146   0.036
18017W        W89633  28.151  19.675   1.434
18018W        W89634  28.932  29.928   2.234
18019W        W89635  38.862  34.436   3.826
18020W        W89636  44.073   6.667   2.789
18021W        W89637  21.758   2.734  11.529
18022W        W89638  19.037  14.680   1.718
18023W        W89639  24.595  22.479   3.170
18024W        W89640  23.603   9.973   3.172
18025W        W89641  38.967  16.185  14.347
18026W        W89642  13.260  16.306  10.523
18027W        W89643  19.190  36.847  14.784
18028W        W89644  14.691  29.659   2.391
18029W        W89645  40.973  18.766   3.132
18030W        W89646  10.852  31.945  14.296
18031W        W89647   6.288  19.679  12.443
18032W        W89648  43.728  36.068   4.622
18033W        W89649  23.698  43.876  12.062
18034W        W89650   1.419  42.775   0.335
18035W        W89651   3.379  12.692   1.871
18036W        W89652  10.846   2.740  11.582
18037W        W89653   1.802  20.189  13.064
18038W        W89654  33.020  35.470  11.058
18039W        W89655  24.487  15.249  12.943
18040W        W89656  16.837  24.750   4.357
18041W        W89657   8.024  15.557  13.531
18042W        W89658  32.029  37.932   1.287
18043W        W89659  23.560   7.881   3.269
18044W        W89660  35.028   3.223  13.939
18045W        W89661   3.433   3.784   2.641
18046W        W89662  20.960  10.865  10.630
18047W        W89663  17.802  18.099   1.919
18048W        W89664  35.074  24.539   0.262
18049W        W89665  17.778  26.128  14.442
18050W        W89666  37.431  41.754   3.140
18051W        W89667  12.744  35.466   2.456
18052W        W89668  39.799  31.496   3.269
18053W        W89669  31.873  14.176   3.162
18054W        W89670  16.772  33.813   1.327
18055W        W89671   9.877  34.536  11.671
18056W        W89672  23.107  22.222   3.629
18057W        W89673  13.509  35.093  13.147
18058W        W89674  22.020  13.166  11.519
18059W        W89675  44.959  30.363   4.737
18060W        W89676   6.127  31.713   2.794
18061W        W89677  25.515  44.798  14.229
18062W        W89678  22.392  23.569   1.750
18063W        W89679  33.055  17.964   0.747
18064W        W89680  21.852   3.858   2.769
18065W        W89681  27.555   0.708   0.648
18066W        W89682  12.824  43.770  11.609
18067W        W89683  43.907   6.947   0.861
18068W        W89684  27.017  26.047   3.858
18069W        W89685  36.532  15.474   4.538
18070W        W89686  19.691  42.522   0.251
18071W        W89687  18.730  41.670  12.464
18072W        W89688   3.202  18.363   4.081
18073W        W89689  38.027  13.068   4.644
18074W        W89690  42.116   6.226  13.532
18075W        W89691   6.764  12.734   1.565
18076W        W89692  29.631  20.111  13.937
18077W        W89693  16.328  19.325   0.973
18078W        W89694  33.823   8.269   4.067
18079W        W89695  20.802   9.824   4.429
18080W        W89696  14.542  17.017   2.813
18081W        W89697  26.793  17.339   5.081
18082W        W89698  32.170  10.401   4.540
18083W        W89699  13.867  12.382  13.573
18084W        W89700   7.872   3.155   1.376
18085W        W89701  20.520  32.873  14.509
18086W        W89702  27.872  41.425  13.286
18087W        W89703  22.580  22.139   2.871
18088W        W89704  16.200  14.275   2.824
18089W        W89705  21.258  25.801   1.446
18090W        W89706  33.455   5.993  14.930
18091W        W89707  22.140  28.578   0.405
18092W        W89708  27.274  25.245  14.316
18093W        W89709  11.030   8.397  14.769
18094W        W89710  39.984  10.063   3.894
18095W        W89711  24.138   9.781  12.474
18096W        W89712  11.774  40.446   0.874
18097W        W89713  14.802   2.422   1.154
18098W        W89714  26.670  17.260   1.369
18099W        W89715  27.187  24.663   1.996
18100W        W89716  28.467  34.291  14.265
18101W        W89717  38.016   0.788  10.689
18102W        W89718   0.200  26.692   5.069
18103W        W89719   7.616  31.438  14.361
18104W        W89720  23.080   1.762  10.696
18105W        W89721  14.428  19.998   4.234
18106W        W89722  42.770  18.187  12.657
18107W        W89723  27.565  16.830   1.899
18108W        W89724  40.862  25.749  14.263
18109W        W89725  42.601  42.539  11.051
18110W        W89726  11.762  37.914   2.814
18111W        W89727   6.040  40.596   0.144
18112W        W89728  13.194  41.329   0.316
18113W        W89729   0.099   6.179  10.987
18114W        W89730  17.117  32.589  14.612
18115W        W89731  24.244  19.935  12.136
18116W        W89732   3.537  42.037   4.683
18117W        W89733  13.195  21.764   1.230
18118W        W89734  40.092  26.624   3.736
18119W        W89735  14.703  13.715  13.798
18120W        W89736  40.306  13.088   0.003
18121W        W89737  10.790  40.904  13.309
18122W        W89738  39.338  16.577  13.538
18123W        W89739  13.145  36.636   0.401
18124W        W89740  27.129  38.176   3.056
18125W        W89741  34.347  38.826  14.111
18126W        W89742  18.721  12.036   1.512
18127W        W89743  33.382  14.734  14.273
18128W        W89744  44.250   5.908  14.495
18129W        W89745   3.280  28.331   4.594
18130W        W89746  24.476  33.488   3.109
18131W        W89747  39.161  41.899  13.114
18132W        W89748  41.129  20.697  14.901
18133W        W89749  15.746  29.125  14.406
18134W        W89750  37.500  17.176   0.042
18135W        W89751  28.064   7.904  11.520
18136W        W89752  23.176  36.831  10.599
18137W        W89753  41.832  21.525  11.583
18138W        W89754   2.463   5.365   0.923
18139W        W89755  27.053  12.674  11.700
18140W        W89756  36.521   0.430   3.936
18141W        W89757  41.879  19.261  11.185
18142W        W89758  13.103  15.409  12.323
18143W        W89759  14.002   2.894  14.328
18144W        W89760  30.223  20.133  14.344
18145W        W89761  13.174  42.244   3.657
18146W        W89762  38.358  29.504   2.980
18147W        W89763  42.624  44.831  11.796
18148W        W89764   2.788  44.356  14.595
18149W        W89765  33.524  28.238   0.478
18150W        W89766  43.086  25.965   4.544
18151W        W89767  32.745  20.005  13.386
18152W        W89768   0.904   7.352   0.865
18153W        W89769  28.054  24.645   1.895
18154W        W89770  12.757  28.072   4.608
18155W        W89771  38.998   0.841  12.113
18156W        W89772   6.415  32.063  13.276
18157W        W89773  35.080  44.758   4.153
18158W        W89774  32.406  42.817   0.928
18159W        W89775  23.565   8.866  11.989
18160W        W89776  44.852  21.555  10.536
18161W        W89777   4.962  40.827   2.006
18162W        W89778  44.024  41.111  12.413
18163W        W89779  18.786   9.252   0.521
18164W        W89780  41.806  16.044  11.116
18165W        W89781   2.775  10.646  10.561
18166W        W89782  29.067   7.151  14.272
18167W        W89783  33.508  44.804   1.295
18168W        W89784  39.575  32.092   4.531
18169W        W89785  43.526   8.211   4.715
18170W        W89786  42.944  14.815  14.953
18171W        W89787   7.342  21.676   3.208
18172W        W89788  17.326  36.455   2.436
18173W        W89789   2.595   3.317   3.677
18174W        W89790  36.849  25.086   0.143
18175W        W89791  36.267  11.581  13.526
18176W        W89792  21.503   6.172  10.524
18177W        W89793   0.248  42.764  13.944
18178W        W89794  12.563  10.892  11.581
18179W        W89795  25.039  42.932  12.651
18180W        W89796  21.075  43.981  12.439
18181W        W89797  18.613  14.244   3.217
18182W        W89798  44.483  28.071  11.126
18183W        W89799   1.863  13.195  13.288
18184W        W89800  41.002  35.061  14.237
18185W        W89801  43.019  13.105  11.926
18186W        W89802  20.215  24.981  14.380
18187W        W89803  12.850  16.530   1.385
18188W        W89804  20.162   3.220   1.967
18189W        W89805  40.255  41.537   2.747
18190W        W89806  16.241  17.530   1.207
18191W        W89807  13.714  41.361   4.755
18192W        W89808  16.116  28.677   0.327
18193W        W89809   2.485  19.095  11.109
18194W        W89810   9.205  31.548   2.614
18195W        W89811  44.957  34.568  11.673
18196W        W89812  38.009  15.521  11.468
18197W        W89813  20.059  39.447   2.385
18198W        W89814   0.246   3.868  12.093
18199W        W89815  36.925  24.704  11.872
18200W        W89816  12.026  26.954  14.448
18201W        W89817  35.609  13.144   1.968
18202W        W89818  22.971  39.824   0.450
18203W        W89819  36.118  26.220  10.661
18204W        W89820  27.120   6.918   3.077
18205W        W89821  21.434  27.680  11.616
18206W        W89822   4.205  30.155   2.310
18207W        W89823  43.230   9.596  11.210
18208W        W89824  20.671  32.156   4.117
18209W        W89825  34.450   8.660  13.627
18210W        W89826  37.748  16.722  12.914
18211W        W89827  19.186   4.180   1.870
18212W        W89828   9.509  30.054  11.688
18213W        W89829  31.478  37.529  11.215
18214W        W89830   5.485  15.340  13.873
18215W        W89831  23.079  36.978   2.374
18216W        W89832   5.352  11.395  14.919
18217W        W89833  34.316  32.914   0.830
18218W        W89834  29.193  16.807   0.370
18219W        W89835  27.052  36.353  11.157
18220W        W89836  25.827  30.201   4.698
18221W        W89837  43.824  20.558  10.756
18222W        W89838  30.371  12.201   2.319
18223W        W89839  37.464  39.088   4.036
18224W        W89840  35.944  32.832  10.504
18225W        W89841  20.137  13.136   3.769
18226W        W89842  23.547  27.207  12.548
18227W        W89843  36.128   3.678  11.059
18228W        W89844   0.862   0.238   3.298
18229W        W89845   7.322   3.823   3.601
18230W        W89846  31.013  30.476  14.288
18231W        W89847  16.715  17.540   2.360
18232W        W89848  39.797   0.317   1.144
18233W        W89849  18.855  23.651   3.773
18234W        W89850   6.255  22.320  14.067
18235W        W89851   2.522  28.569   1.899
18236W        W89852  20.473  42.749   4.485
18237W        W89853  36.705  16.135  14.740
18238W        W89854  29.983  16.358  14.494
18239W        W89855   1.892   1.284  12.135
18240W        W89856  20.538  10.142   0.871
18241W        W89857  20.226  15.270   4.636
18242W        W89858  33.422  24.404   1.482
18243W        W89859  26.607  40.821   2.753
18244W        W89860  19.166  38.464  12.782
18245W        W89861  23.293  31.741  13.573
18246W        W89862  16.279  26.370   2.383
18247W        W89863   2.498  12.939   3.657
18248W        W89864  32.366  39.394   4.226
18249W        W89865  22.239  16.332   2.258
18250W        W89866  19.113  30.197  12.460
18251W        W89867  19.598   4.176   2.181
18252W        W89868   6.499  35.816   4.492
18253W        W89869   4.969   6.271  13.354
18254W        W89870   5.196  33.520  11.432
18255W        W89871   6.515  23.544  13.519
18256W        W89872  20.653  36.176  11.521
18257W        W89873  28.529   2.242  11.950
18258W        W89874  34.371   5.500   2.847
18259W        W89875  17.270  37.089  11.735
18260W        W89876  25.240   2.772   1.482
18261W        W89877  29.029  22.488  11.510
18262W        W89878  17.993   5.669  10.691
18263W        W89879  37.815  40.727  13.374
18264W        W89880   1.910  25.092   4.653
18265W        W89881  29.907  29.301   4.294
18266W        W89882  35.515  21.448  10.043
18267W        W89883  29.018  29.578  10.057
18268W        W89884  17.643  20.334   0.885
18269W        W89885   3.675   2.223   3.655
18270W        W89886  27.987  16.821   5.047
18271W        W89887   7.996  41.835  14.368
18272W        W89888  34.920  37.214   0.864
18273W        W89889  16.147  17.482   4.918
18274W        W89890  11.174   1.394   4.036
18275W        W89891  37.278   6.916   1.212
18276W        W89892  38.917  19.549   9.990
18277W        W89893  27.832  19.574   4.641
18278W        W89894  20.695  33.335   1.938
18279W        W89895  20.884  21.606  11.995
18280W        W89896  44.879  43.894  11.851
18281W        W89897   0.859  13.105  10.788
18282W        W89898  36.693  41.938   4.273
18283W        W89899  29.479  21.525   3.192
18284W        W89900  40.704  43.346   2.907
18285W        W89901  28.400  11.809   2.662
18286W        W89902  25.438  37.000  14.012
18287W        W89903  24.785  30.880   4.489
18288W        W89904   2.065  25.626  10.074
18289W        W89905  33.582  44.437  10.353
18290W        W89906  31.888   2.200   0.296
18291W        W89907  29.609  30.530   0.904
18292W        W89908   1.934  43.804  14.877
18293W        W89909  36.421   2.544   1.223
18294W        W89910   5.341  20.031   2.413
18295W        W89911   9.100  11.051  13.017
18296W        W89912   8.824  20.452   3.119
18297W        W89913  19.297   8.598  12.212
18298W        W89914  35.807   0.168  13.555
18299W        W89915  40.393  16.747   2.712
18300W        W89916  39.951  29.013  14.641
18301W        W89917  42.939   5.321   0.003
18302W        W89918  38.938  25.907  14.491
18303W        W89919  24.047  19.137  14.513
18304W        W89920  27.231  35.359  14.858
18305W        W89921  35.988  24.106  14.480
18306W        W89922   5.244  32.943   1.017
18307W        W89923   3.994   4.326   0.867
18308W        W89924  41.770  17.954  12.614
18309W        W89925  16.099  14.811   1.669
18310W        W89926  20.950  28.431  13.449
18311W        W89927  16.154   0.513  10.783
18312W        W89928  26.011  34.397   0.461
18313W        W89929  26.390  26.109  13.404
18314W        W89930  40.482  41.943   4.498
18315W        W89931  13.842   3.270   5.011
18316W        W89932  24.127   0.915  12.796
18317W        W89933   1.490  14.808   3.676
18318W        W89934  27.330  29.386   3.724
18319W        W89935  25.731  13.417  11.504
18320W        W89936  11.335  22.952   3.657
18321W        W89937  18.135  43.729   1.922
18322W        W89938  37.459  13.048   1.072
18323W        W89939  25.081  12.650  12.508
18324W        W89940  10.297  36.220   3.304
18325W        W89941  15.654  11.693  13.555
18326W        W89942  14.945  29.448   4.107
18327W        W89943  32.918  38.917  12.022
18328W        W89944  15.155  31.895  13.809
18329W        W89945  11.128  22.191   2.171
18330W        W89946  43.901   0.959   2.622
18331W        W89947   7.125  40.052  14.133
18332W        W89948  41.977  20.049  11.623
18333W        W89949  31.013  39.733   0.290
18334W        W89950  28.964  31.069  14.027
18335W        W89951  41.306  33.662   0.577
18336W        W89952  43.309  33.334   3.013
18337W        W89953  12.825  37.017   0.754
18338W        W89954  23.961  34.529  10.721
18339W        W89955  17.841  37.004   1.790
18340W        W89956  22.618  30.173  14.816
18341W        W89957   1.711  26.817  12.798
18342W        W89958  38.229  18.890   0.443
18343W        W89959  35.020  27.550   1.271
18344W        W89960  35.123  34.930  10.534
18345W        W89961   5.383  42.833   4.137
18346W        W89962  13.125  30.513  11.171
18347W        W89963  43.947  15.095   3.714
18348W        W89964  12.437  14.432  10.605
18349W        W89965   5.295  21.704   3.439
18350W        W89966  28.869  43.369  12.370
18351W        W89967   7.492   3.699  10.683
18352W        W89968  16.580  13.916   1.207
18353W        W89969  16.527  19.105  13.935
18354W        W89970   6.235  19.668   0.046
18355W        W89971  15.175   8.132  13.763
18356W        W89972   7.180  24.239  11.516
18357W        W89973  12.263  23.052   3.626
18358W        W89974  15.946  21.088  11.584
18359W        W89975  30.666   8.313  10.716
18360W        W89976  26.657  16.774   1.697
18361W        W89977  33.965  32.860  11.999
18362W        W89978  38.468  16.256   2.065
18363W        W89979  19.420  39.055  12.576
18364W        W89980  38.732  27.966   3.283
18365W        W89981  14.638   0.573   5.095
18366W        W89982  44.245  12.646   4.147
18367W        W89983  21.316  18.239  10.918
18368W        W89984  43.914  34.890   1.748
18369W        W89985  28.092  44.075  10.236
18370W        W89986  41.488  17.606   4.913
18371W        W89987  13.590  24.971  10.930
18372W        W89988  18.537  26.152   1.811
18373W        W89989  33.640  26.345   0.504
18374W        W89990  41.766  12.818  10.770
18375W        W89991  15.159  24.161  12.082
18376W        W89992   7.887  42.558  12.967
18377W        W89993   8.176  18.239  11.531
18378W        W89994  31.876  20.921  11.097
18379W        W89995  38.959  20.749  13.411
18380W        W89996  42.079   1.204  11.205
18381W        W89997   8.941  19.868   1.824
18382W        W89998  25.256   4.383  13.034
18383W        W89999  10.994  31.605   2.243
18384W        W90000  36.838  32.365   0.505
18385W        W90001  26.563   5.179  10.567
18386W        W90002  20.036  43.192  13.840
18387W        W90003   7.908  30.995   4.445
18388W        W90004   3.104  15.167  12.604
18389W        W90005   0.755  16.870   4.685
18390W        W90006  34.782  36.487  11.985
18391W        W90007  31.322   4.004  13.980
18392W        W90008  33.414  18.425   1.264
18393W        W90009  44.820  16.568   3.247
18394W        W90010  23.702  33.095   0.667
18395W        W90011  34.301  26.943   0.943
18396W        W90012  12.906  23.136   2.786
18397W        W90013   2.634   2.427   2.714
18398W        W90014  11.846  28.174  14.733
18399W        W90015  11.314  30.932   4.009
18400W        W90016  44.343   6.319   3.665
18401W        W90017  29.127  30.564   1.702
18402W        W90018  13.469   3.228   4.256
18403W        W90019  29.726  37.506  12.901
18404W        W90020  13.578  28.468  11.344
18405W        W90021  15.287  25.141   3.691
18406W        W90022  22.617  29.847   2.282
18407W        W90023   5.172  21.914  12.415
18408W        W90024  20.249  29.595  14.098
18409W        W90025  44.435  30.579   3.496
18410W        W90026  27.255  32.543   3.632
18411W        W90027  41.782   9.233  14.099
18412W        W90028   8.303  21.753   1.955
18413W        W90029  26.065   7.654  13.909
18414W        W90030  35.065   5.378   2.355
18415W        W90031  28.157   0.689  13.370
18416W        W90032  15.751  14.332   2.489
18417W        W90033   2.832  11.244  13.606
18418W        W90034  26.124  19.216   1.706
18419W        W90035   2.543  17.203  13.299
18420W        W90036   5.229   8.972   2.207
18421W        W90037  25.772  28.174  13.488
18422W        W90038  44.559  28.934  10.610
18423W        W90039   2.068  25.176  14.372
18424W        W90040   3.322  31.583   2.720
18425W        W90041   9.779   8.122   3.833
18426W        W90042  40.905   5.424  10.768
18427W        W90043  42.145  25.957   3.389
18428W        W90044  13.493  13.222  11.470
18429W        W90045  43.794  14.784  13.483
18430W        W90046  37.533   4.190   3.190
18431W        W90047  38.174  29.447   1.762
18432W        W90048   3.743  32.663  12.807
18433W        W90049  27.791  44.487   3.208
18434W        W90050  11.787  15.408   2.910
18435W        W90051  13.715  17.050  10.287
18436W        W90052   3.979   4.407  10.799
18437W        W90053   8.228  28.749   2.021
18438W        W90054  36.469   6.110   4.323
18439W        W90055  43.758   8.875   3.291
18440W        W90056  34.270  30.629  11.639
18441W        W90057   5.304  23.631   3.813
18442W        W90058  39.423  27.539   0.915
18443W        W90059  34.382  27.893  11.922
18444W        W90060  27.430  28.031   3.220
18445W        W90061  26.336  15.088   0.049
18446W        W90062  41.789  19.229  14.553
18447W        W90063  38.050  22.933  13.498
18448W        W90064   9.159   6.750   4.905
18449W        W90065   2.076   5.033  13.571
18450W        W90066   8.342   1.298   0.299
18451W        W90067   6.327  26.457   0.160
18452W        W90068  10.830   8.196  11.684
18453W        W90069  39.307   7.830   4.179
18454W        W90070  29.576  18.623  13.915
18455W        W90071  15.744  22.195   4.942
18456W        W90072  25.254  33.052  13.378
18457W        W90073   2.862  22.182   1.731
18458W        W90074  14.188   0.366  10.134
18459W        W90075   6.694  12.105   3.758
18460W        W90076  11.420  11.607  12.956
18461W        W90077  10.253  24.193  11.467
18462W        W90078  12.298  40.310   0.889
18463W        W90079   7.911  11.252   0.877
18464W        W90080   4.322   6.279  11.938
18465W        W90081  41.370   3.901  13.972
18466W        W90082  33.218   1.869  10.643
18467W        W90083   3.976   1.461   2.282
18468W        W90084  37.467  29.440   2.595
18469W        W90085  11.604   0.270  14.441
18470W        W90086  20.058  28.805  11.037
18471W        W90087  11.015  29.584   4.190
18472W        W90088  27.377  11.424   1.843
18473W        W90089   6.149  32.289  12.321
18474W        W90090  24.788   8.761   3.268
18475W        W90091  26.652  29.133   2.621
18476W        W90092   7.888   7.862  12.008
18477W        W90093   8.598  28.582   4.073
18478W        W90094  38.815  13.037   2.176
18479W        W90095  41.068  22.554  12.804
18480W        W90096  25.315  20.332  12.171
18481W        W90097  19.748  21.149   0.284
18482W        W90098  32.563  33.992   2.663
18483W        W90099  16.998  10.334   3.721
18484W        W90100   0.443   9.409  14.873
18485W        W90101  19.278   0.705  11.927
18486W        W90102  41.398  24.699   4.236
18487W        W90103  31.585  31.724   4.103
18488W        W90104  41.113  43.923   2.189
18489W        W90105  35.291   5.819   4.618
18490W        W90106   8.941   3.731  14.955
18491W        W90107   7.492   6.399  14.392
18492W        W90108  33.581  15.338   1.979
18493W        W90109  43.867  20.734   3.384
18494W        W90110  11.816   2.554   3.586
18495W        W90111  31.576  28.270   2.693
18496W        W90112   8.265  19.782   1.794
18497W        W90113  26.445  41.393   0.973
18498W        W90114  20.644  21.762   4.600
18499W        W90115  36.308   8.665  10.715
18500W        W90116  21.976  13.175  10.739
18501W        W90117   5.441  31.513   2.016
18502W        W90118  29.249  28.407   0.841
18503W        W90119  37.294   4.266  14.987
18504W        W90120   4.581  26.321   2.703
18505W        W90121  33.365   0.706  11.208
18506W        W90122  31.776  33.873  11.350
18507W        W90123  30.024  33.527   1.616
18508W        W90124  17.832  42.823  12.380
18509W        W90125  32.231  34.578  12.543
18510W        W90126  39.007  22.576   4.161
18511W        W90127  24.240   4.170   3.165
18512W        W90128   9.190  30.377   0.239
18513W        W90129  34.139  24.126  14.089
18514W        W90130  44.302  43.205  13.206
18515W        W90131  40.200  38.062   4.607
18516W        W90132  39.598   8.581   3.114
18517W        W90133   2.479  17.684  12.118
18518W        W90134  18.642  20.282  10.972
18519W        W90135  33.149  28.179   3.717
18520W        W90136  17.488  43.060  13.724
18521W        W90137  21.757  36.964   4.566
18522W        W90138   4.626  35.819   3.507
18523W        W90139  31.218  44.746  12.434
18524W        W90140  27.455  41.391  10.882
18525W        W90141  22.275   8.674  14.413
18526W        W90142  25.564   7.722  13.977
18527W        W90143  38.367  34.690  14.910
18528W        W90144  13.145  30.097   3.934
18529W        W90145  10.868  27.685   4.741
18530W        W90146  38.137  36.737   1.766
18531W        W90147  13.749  22.923   3.238
18532W        W90148  32.451  29.666   3.213
18533W        W90149  12.105  16.994  13.348
18534W        W90150   2.733  38.778   4.708
18535W        W90151  42.954  25.734  10.849
18536W        W90152  14.716  29.976  12.292
18537W        W90153  26.511  40.065  13.310
18538W        W90154   6.029  34.878  14.592
18539W        W90155  43.331  34.901  13.410
18540W        W90156  22.678  39.259   1.680
18541W        W90157   9.354  41.805   4.126
18542W        W90158  21.256   7.844  11.599
18543W        W90159   6.648  27.440  11.639
18544W        W90160  10.476  28.240  14.328
18545W        W90161  33.346  25.256  12.604
18546W        W90162  17.198  31.654   2.717
18547W        W90163  20.189   5.264  14.406
18548W        W90164  43.391   4.852  13.881
18549W        W90165   9.921  32.355  11.535
18550W        W90166   6.409  41.789   0.752
18551W        W90167   5.746  28.603  10.897
18552W        W90168  14.845  31.682  14.225
18553W        W90169  14.768  29.786   1.252
18554W        W90170  24.113  22.480  14.457
18555W        W90171  34.834   1.641  12.026
18556W        W90172  30.886  34.393   0.419
18557W        W90173   4.903   1.713   3.663
18558W        W90174  40.317  38.957   0.733
18559W        W90175  37.814  35.000   2.414
18560W        W90176  42.099  16.604   0.915
18561W        W90177   9.231  29.048   3.284
18562W        W90178  41.154  34.715   2.398
18563W        W90179  37.368  13.290  11.581
18564W        W90180  31.830  36.623   0.460
18565W        W90181  20.020  35.653  13.267
18566W        W90182   1.828  20.208  12.551
18567W        W90183  31.505  33.930  13.421
18568W        W90184  43.508  37.353   2.277
18569W        W90185   8.857   7.257  12.701
18570W        W90186   5.448   2.943   2.304
18571W        W90187  23.718  23.638  13.022
18572W        W90188  28.521  36.402  14.716
18573W        W90189  15.802  22.282   2.711
18574W        W90190  17.047   9.595   4.226
18575W        W90191   7.905  14.836   3.228
18576W        W90192  10.770  17.310  14.339
18577W        W90193   6.953  18.381   1.651
18578W        W90194  28.938   1.339   4.344
18579W        W90195  14.150   9.546  11.194
18580W        W90196   7.159  42.888  10.759
18581W        W90197  28.435  44.343  13.933
18582W        W90198   5.920   1.439   0.284
18583W        W90199  30.464  29.032   4.086
18584W        W90200  34.592  39.345   3.573
18585W        W90201  31.327  36.408   3.781
18586W        W90202  10.363  14.746   0.805
18587W        W90203  12.365  30.537  10.673
18588W        W90204  43.362  10.168   4.355
18589W        W90205   3.951   0.900  14.938
18590W        W90206   7.634   6.775  10.555
18591W        W90207  35.755   0.282  11.983
18592W        W90208   9.646  20.141   3.659
18593W        W90209   3.453  21.762   4.299
18594W        W90210  26.072  32.173  14.266
18595W        W90211  38.022  37.579   1.247
18596W        W90212   8.426  33.013  13.044
18597W        W90213  34.455  36.625  13.780
18598W        W90214   5.415  11.629   3.339
18599W        W90215  15.193  14.150  11.535
18600W        W90216  23.162   6.170  13.216
18601W        W90217  30.897   6.832   3.094
18602W        W90218  35.932  31.391  11.968
18603W        W90219  25.532   8.438   1.713
18604W        W90220   7.161   4.148  14.794
18605W        W90221   0.205  40.415  11.368
18606W        W90222  25.568  39.007   1.592
18607W        W90223  23.076  23.213   1.760
18608W        W90224  31.108  29.901   4.547
18609W        W90225  13.032   4.678  11.946
18610W        W90226   5.366  33.536  12.405
18611W        W90227  25.026   8.849  11.158
18612W        W90228  25.463   9.351   0.910
18613W        W90229   9.477  19.287   1.749
18614W        W90230  38.462   8.597  13.059
18615W        W90231  36.802  36.981   1.410
18616W        W90232  30.100  12.775   3.127
18617W        W90233   4.741  38.435  12.012
18618W        W90234  37.377  44.369   4.924
18619W        W90235  44.465  43.430  13.635
18620W        W90236  38.933  36.368   3.706
18621W        W90237   4.732  30.002   4.634
18622W        W90238  14.328  43.894   2.585
18623W        W90239   0.369  25.708  11.736
18624W        W90240   3.518  30.508  14.410
18625W        W90241   8.268   7.746  14.720
18626W        W90242  41.905  42.554  14.403
18627W        W90243  35.633   3.365   0.160
18628W        W90244  43.777  34.644   2.634
18629W        W90245  43.430  23.883   1.320
18630W        W90246  18.833  43.121   3.640
18631W        W90247   7.824  44.095  12.872
18632W        W90248  24.717  27.957  12.138
18633W        W90249  21.341  32.327   2.012
18634W        W90250  15.165   8.092   1.256
18635W        W90251   2.621   1.910  11.923
18636W        W90252  36.748  23.974   1.438
18637W        W90253   0.150  27.945   4.825
18638W        W90254   1.005  20.765  12.455
18639W        W90255  22.941  44.992  11.368
18640W        W90256  32.055  19.829   2.624
18641W        W90257  27.043   5.863  11.530
18642W        W90258  20.629  11.238  13.905
18643W        W90259  23.923   7.391  13.352
18644W        W90260  28.070  27.657   2.217
18645W        W90261  44.492  16.465  11.524
18646W        W90262  19.111  14.123   1.176
18647W        W90263  36.159  14.160  14.383
18648W        W90264   0.234  40.351   2.783
18649W        W90265  19.056   4.922  13.581
18650W        W90266   4.902  39.866  14.236
18651W        W90267  18.158  33.885  13.106
18652W        W90268   4.045  42.030   4.594
18653W        W90269  13.620  29.210   3.727
18654W        W90270  10.661  27.467  14.708
18655W        W90271  10.863  34.539   1.652
18656W        W90272  42.082  16.939  12.497
18657W        W90273  17.162  13.353   1.967
18658W        W90274  17.608  35.584  13.512
18659W        W90275   9.276  16.170  12.906
18660W        W90276  36.900  30.159  11.111
18661W        W90277  36.883  24.510  13.778
18662W        W90278  29.417  33.983  13.554
18663W        W90279  24.771   4.164  13.061
18664W        W90280   5.340  40.293  13.971
18665W        W90281  16.089  32.177   3.193
18666W        W90282  23.970  11.718  13.006
18667W        W90283   5.826  43.357  11.101
18668W        W90284  36.477  42.673   3.289
18669W        W90285  38.051  26.227   2.822
18670W        W90286   7.902  23.267  11.545
18671W        W90287  26.485  21.716  11.599
18672W        W90288  12.224  26.113   2.153
18673W        W90289  40.712  35.584   0.978
18674W        W90290  13.222  20.083  13.723
18675W        W90291  14.548  18.547  10.303
18676W        W90292  34.156  40.752  12.145
18677W        W90293   4.655  37.406  11.858
18678W        W90294   5.164  36.784   4.754
18679W        W90295  41.605   8.078  12.566
18680W        W90296  27.052  29.974  11.173
18681W        W90297  37.760   7.860  13.807
18682W        W90298   3.526  21.249  11.927
18683W        W90299  40.160  35.676   0.247
18684W        W90300   0.566   4.113  12.965
18685W        W90301   5.873  22.790  13.135
18686W        W90302  14.857  33.911   1.552
18687W        W90303  37.056  39.053   0.879
18688W        W90304  31.632   9.800   1.936
18689W        W90305  16.166  24.409   2.462
18690W        W90306   7.685  13.983   5.124
18691W        W90307  10.132  37.285   0.520
18692W        W90308   1.844  19.569   3.245
18693W        W90309  44.304  42.812   3.888
18694W        W90310  38.742  10.749   1.726
18695W        W90311   3.970   1.885  10.788
18696W        W90312  29.542  14.137  10.233
18697W        W90313   8.315  28.360   4.832
18698W        W90314  26.893  18.689   3.251
18699W        W90315  40.978   9.728  14.002
18700W        W90316   4.284  26.694   1.388
18701W        W90317  43.985   5.702  12.461
18702W        W90318   2.265  32.709   0.323
18703W        W90319  18.771  15.810  13.470
18704W        W90320  42.987  36.818  13.974
18705W        W90321  24.600  43.211   2.717
18706W        W90322  20.282   5.229   2.381
18707W        W90323   8.012  26.177  10.692
18708W        W90324  39.975  22.145  14.260
18709W        W90325  26.115  40.076  10.723
18710W        W90326  23.665   1.910  14.309
18711W        W90327   0.920   8.358  11.977
18712W        W90328  15.205  37.685  11.408
18713W        W90329  35.729  39.911  12.567
18714W        W90330  28.164   3.333   4.647
18715W        W90331   9.495   0.374   4.779
18716W        W90332  30.493   2.294   2.309
18717W        W90333  34.955  37.426  13.402
18718W        W90334   1.980   0.008   3.779
18719W        W90335   2.119  44.518   5.172
18720W        W90336  24.032  32.223  11.803
18721W        W90337  26.504  24.507  13.120
18722W        W90338  35.113  11.897  11.538
18723W        W90339  13.011   6.371  13.133
18724W        W90340  33.193  27.546   1.444
18725W        W90341  35.376  33.619   2.316
18726W        W90342  41.291  36.055  11.124
18727W        W90343  19.606   9.241   3.650
18728W        W90344  17.321  26.730   4.026
18729W        W90345   4.790  11.337   0.243
18730W        W90346  38.441  11.681  13.464
18731W        W90347   5.826  21.923   3.674
18732W        W90348  21.570   0.875  13.409
18733W        W90349  17.823   9.659  12.514
18734W        W90350   4.960  23.624   0.508
18735W        W90351  16.578  24.258   2.736
18736W        W90352  39.983  10.682  12.528
18737W        W90353  10.636  36.326   4.322
18738W        W90354   4.148  32.287   4.074
18739W        W90355  39.908  31.348   0.603
18740W        W90356  35.266  26.518  10.717
18741W        W90357  41.231  35.519   1.035
18742W        W90358   0.874   3.921   0.003
18743W        W90359  19.376  10.999  11.529
18744W        W90360   6.504  34.020   3.375
18745W        W90361  13.836  31.471  10.554
18746W        W90362  36.802   1.436   0.712
18747W        W90363   3.438  22.126   4.830
18748W        W90364  32.352  11.443  14.865
18749W        W90365  42.470   9.250  12.001
18750W        W90366  33.457   2.786   4.351
18751W        W90367  41.659  22.657   5.076
18752W        W90368  43.176   2.746  12.322
18753W        W90369  40.280  42.500  10.681
18754W        W90370  33.008  31.041  11.432
18755W        W90371  28.960  27.986   2.616
18756W        W90372  35.614  41.049  12.077
18757W        W90373  18.216  14.221   2.241
18758W        W90374   2.097  35.376   1.864
18759W        W90375   5.526   0.490  13.939
18760W        W90376  44.010  41.121  11.047
18761W        W90377  19.317  40.578   0.376
18762W        W90378  31.532   7.948   3.195
18763W        W90379  37.447   1.205   4.709
18764W        W90380   9.987  19.072   1.672
18765W        W90381   4.202  37.284  12.423
18766W        W90382  16.856  18.537   5.597
18767W        W90383  40.457  41.107  12.114
18768W        W90384  40.606  13.413   1.339
18769W        W90385  13.096   1.057   5.052
18770W        W90386  15.842  37.323   2.754
18771W        W90387  22.363   3.247  14.231
18772W        W90388  35.121  34.838  13.947
18773W        W90389  26.247  43.471  14.660
18774W        W90390  24.478  23.962   2.014
18775W        W90391  19.229  39.995  12.094
18776W        W90392  28.612  16.056  11.608
18777W        W90393  24.486  20.103   1.365
18778W        W90394   1.700  30.466  10.942
18779W        W90395  23.511  23.527   2.702
18780W        W90396  20.768   2.881  14.317
18781W        W90397  17.525  30.889   4.132
18782W        W90398  28.717   2.705  12.874
18783W        W90399  37.293  39.996   0.277
18784W        W90400  12.877  32.040  12.555
18785W        W90401   9.283   4.298  12.477
18786W        W90402  10.699  19.219   2.853
18787W        W90403   8.872   3.819  11.139
18788W        W90404  43.881  39.032   1.755
18789W        W90405  24.313  39.020   3.677
18790W        W90406   0.469  20.213  12.868
18791W        W90407  18.340   2.700  13.086
18792W        W90408  40.039   2.245   2.886
18793W        W90409   2.130   8.176  14.008
18794W        W90410  26.253  34.027   3.279
18795W        W90411   8.797  27.142  14.781
18796W        W90412  17.907   4.925   1.929
18797W        W90413   0.021  33.499   2.780
18798W        W90414  40.732  29.835  11.281
18799W        W90415  35.391   1.976   4.048
18800W        W90416   9.615   1.714  12.627
18801W        W90417  22.196  22.658  14.788
18802W        W90418   7.873  22.188   0.923
18803W        W90419  21.938  21.082  13.551
18804W        W90420  38.099  14.137  14.253
18805W        W90421  40.206   4.840  10.558
18806W        W90422  40.802  10.278   1.274
18807W        W90423  27.977   6.808  12.065
18808W        W90424  17.136  23.406  14.143
18809W        W90425  37.964  42.410  12.998
18810W        W90426  17.787  32.193  13.260
18811W        W90427  15.314  26.112   5.008
18812W        W90428  37.821  24.470   1.399
18813W        W90429  26.257   8.744  11.842
18814W        W90430   3.336  37.004  13.936
18815W        W90431  19.345  25.617  14.155
18816W        W90432   3.783  39.357  12.126
18817W        W90433  29.246   0.923  13.911
18818W        W90434   2.229   5.340  13.941
18819W        W90435   8.813  42.515  14.515
18820W        W90436  20.372  14.570  13.268
18821W        W90437  37.847  18.088  13.829
18822W        W90438  30.829  31.118  14.130
18823W        W90439  25.884  43.074  14.509
18824W        W90440  24.149  22.736   3.824
18825W        W90441  18.119  43.174  13.023
18826W        W90442  37.830  21.640  14.051
18827W        W90443  26.743  20.656  11.106
18828W        W90444  21.056  21.454   0.313
18829W        W90445  36.915   9.400   3.705
18830W        W90446   8.253  12.096  13.517
18831W        W90447  28.769  39.822  12.994
18832W        W90448  36.203  14.264  13.250
18833W        W90449  24.562  40.113   2.630
18834W        W90450   9.681  19.745  12.718
18835W        W90451  37.381  25.272   5.137
18836W        W90452   9.917  34.381   0.821
18837W        W90453  17.539  25.637   3.954
18838W        W90454  31.118  41.832   0.308
18839W        W90455  32.071  16.718  13.847
18840W        W90456  14.571  31.126  10.595
18841W        W90457  32.506  15.538  10.831
18842W        W90458  21.650   1.293  11.586
18843W        W90459  34.599  23.327  13.666
18844W        W90460  28.939  41.819   3.239
18845W        W90461  32.411   8.039  14.994
18846W        W90462  24.572   0.231  13.897
18847W        W90463  39.316  29.195  12.862
18848W        W90464  32.154  27.668  11.631
18849W        W90465  26.777  42.353   0.169
18850W        W90466  14.826  17.355  13.384
18851W        W90467   3.807  43.525   2.394
18852W        W90468  24.597   5.853  13.611
18853W        W90469  30.532  31.106   0.366
18854W        W90470  29.107  27.591   4.273
18855W        W90471  33.698  16.791   4.048
18856W        W90472  25.501   6.427  14.817
18857W        W90473   1.040   7.837   0.788
18858W        W90474  15.488  28.695  13.430
18859W        W90475  43.919  43.819  14.782
18860W        W90476  18.718  37.989  14.825
18861W        W90477  44.449  12.126   0.592
18862W        W90478   7.988   3.999   1.034
18863W        W90479  28.970  15.707  11.503
18864W        W90480  24.549  20.690  13.606
18865W        W90481  37.056   3.392  13.624
18866W        W90482  26.708   2.283  11.449
18867W        W90483  31.065  41.976   0.829
18868W        W90484  27.543  44.822  11.128
18869W        W90485  37.565  34.105   0.332
18870W        W90486  16.324  30.313   1.760
18871W        W90487  10.405   8.677   2.259
18872W        W90488  17.349   3.810   0.037
18873W        W90489  13.687  10.386   0.872
18874W        W90490  37.898  13.391   2.762
18875W        W90491  32.864  44.919  13.876
18876W        W90492  43.028   1.007  12.919
18877W        W90493  11.831  36.335   3.147
18878W        W90494   1.574  37.115   4.686
18879W        W90495  21.089   7.888  12.496
18880W        W90496  22.489  13.272  11.658
18881W        W90497  24.959  34.333  13.886
18882W        W90498  35.176  12.813  10.336
18883W        W90499   8.781  24.137   5.067
18884W        W90500  26.142  29.070   0.856
18885W        W90501  25.153  23.238  12.566
18886W        W90502   5.817  40.740   3.327
18887W        W90503  30.505   2.407  12.321
18888W        W90504  36.575  31.192  11.196
18889W        W90505  18.845  38.534   1.980
18890W        W90506  32.939  12.705  14.999
18891W        W90507  39.479   2.906   1.921
18892W        W90508  31.138  17.603   4.133
18893W        W90509   2.470  18.524  14.494
18894W        W90510  16.948  25.056  12.014
18895W        W90511  15.768  35.970  12.513
18896W        W90512  10.096  41.106   0.530
18897W        W90513   8.513   6.056  14.271
18898W        W90514  26.006  24.366   2.639
18899W        W90515  23.984  35.484   1.555
18900W        W90516  21.753  28.167  14.640
18901W        W90517  43.576   6.547   0.397
18902W        W90518   6.184   2.974  13.042
18903W        W90519  25.173  12.824  10.491
18904W        W90520  34.348  44.795   4.472
18905W        W90521  25.213   7.460   1.861
18906W        W90522   1.792  19.120   0.487
18907W        W90523  14.089  17.745   3.245
18908W        W90524   4.925  41.588  13.034
18909W        W90525  32.413  28.518  14.158
18910W        W90526  11.315  23.520   1.655
18911W        W90527  42.953  21.989   4.171
18912W        W90528   3.618  35.719  12.120
18913W        W90529  30.637  23.716   1.656
18914W        W90530   8.845   4.518   4.099
18915W        W90531  32.588  31.446  13.126
18916W        W90532  35.865  41.578   3.867
18917W        W90533  29.196   0.874   5.030
18918W        W90534  15.736  22.288  12.449
18919W        W90535  30.093  26.533   3.364
18920W        W90536  14.112   4.384   0.157
18921W        W90537  43.683  16.703   2.438
18922W        W90538   3.230   2.727  11.275
18923W        W90539  35.825  23.506  12.330
18924W        W90540  16.749  36.969  11.880
18925W        W90541  20.972   8.217   2.897
18926W        W90542  41.731  14.643  13.528
18927W        W90543  11.310   4.259   3.795
18928W        W90544  42.065  29.724  12.501
18929W        W90545  38.540   3.442  12.906
18930W        W90546  44.975  24.497   1.283
18931W        W90547   3.626  42.715  10.542
18932W        W90548   1.346  12.093   4.730
18933W        W90549  44.394  13.156   4.064
18934W        W90550  38.543  10.461   1.282
18935W        W90551  25.888  31.800  10.552
18936W        W90552  33.722  37.534  12.649
18937W        W90553  28.218  16.081  14.848
18938W        W90554  35.468  39.617   1.241
18939W        W90555  37.830   0.805  14.932
18940W        W90556  11.785  24.721  13.616
18941W        W90557  27.024   1.605   0.722
18942W        W90558   7.683  26.859  12.006
18943W        W90559  29.720   7.897   1.283
18944W        W90560  25.265  18.147  13.005
18945W        W90561   2.218  28.937   2.652
18946W        W90562  17.627   2.750  12.506
18947W        W90563   4.835  35.629  12.550
18948W        W90564  33.109  20.149  12.600
18949W        W90565  27.869  27.674   1.341
18950W        W90566  18.955  22.100   0.995
18951W        W90567   8.182   4.798   1.842
18952W        W90568   1.313   0.312   2.696
18953W        W90569  15.339   8.610  13.648
18954W        W90570  28.084  23.712   2.694
18955W        W90571  30.934  37.924   2.399
18956W        W90572  43.014  11.216   1.439
18957W        W90573  39.202  31.051  12.394
18958W        W90574  32.062   1.666  14.597
18959W        W90575   2.644  12.161   1.502
18960W        W90576  10.214  41.333  11.363
18961W        W90577  15.159  27.655   4.595
18962W        W90578  38.441  25.705  13.486
18963W        W90579  10.636   1.356   0.282
18964W        W90580  31.901  42.050  13.813
18965W        W90581  39.815  18.865  10.852
18966W        W90582  36.280  15.375  12.095
18967W        W90583   2.990  16.951  13.437
18968W        W90584   4.934  15.250  10.688
18969W        W90585  44.396  15.794   9.971
18970W        W90586  21.547  33.619   0.851
18971W        W90587  15.706  38.792   3.642
18972W        W90588  22.066   7.212  10.614
18973W        W90589  33.177  18.302  11.325
18974W        W90590   3.943  13.876  10.246
18975W        W90591  31.565  24.260  10.633
18976W        W90592  39.746   5.147  11.363
18977W        W90593  26.453  28.948  10.644
18978W        W90594  27.265   2.375   1.825
18979W        W90595  12.641  36.420   2.634
18980W        W90596  12.777  38.962  12.284
18981W        W90597  18.808  28.969  12.342
18982W        W90598  17.737  26.946  13.535
18983W        W90599  28.810   3.595   4.191
18984W        W90600  29.083   9.637   0.216
18985W        W90601  42.997  34.215  11.401
18986W        W90602  42.376   8.247  11.896
18987W        W90603  23.701  36.873  12.103
18988W        W90604  17.437   9.324   3.439
18989W        W90605  13.139  10.808   3.306
18990W        W90606  31.424  38.791  12.855
18991W        W90607  19.799  44.719  11.455
18992W        W90608  43.433   7.278   3.653
18993W        W90609  10.984  42.988   2.215
18994W        W90610  19.643   5.254  10.885
18995W        W90611  32.227   9.900   3.842
18996W        W90612   0.420   7.533  11.355
18997W        W90613  15.341   7.842   2.575
18998W        W90614  29.452  32.669   0.476
18999W        W90615  43.469   2.885   1.002
19000W        W90616  11.441  11.262  14.971
19001W        W90617  12.946  29.977  11.983
19002W        W90618   4.293  28.506   3.474
19003W        W90619   8.516  13.062  14.329
19004W        W90620  16.773  39.396   3.642
19005W        W90621  27.131  15.860   3.172
19006W        W90622  18.776  44.671   1.421
19007W        W90623  34.717  19.942  11.971
19008W        W90624   6.544  32.465   3.367
19009W        W90625  14.001  31.941   3.953
19010W        W90626  11.455  19.697  12.097
19011W        W90627   4.434  23.075   5.022
19012W        W90628  22.245  21.257  11.142
19013W        W90629  28.213   2.996   4.221
19014W        W90630  35.519  41.314   2.536
19015W        W90631  23.742  15.169  12.141
19016W        W90632  16.696  19.571   1.640
19017W        W90633  28.174  12.621  13.338
19018W        W90634  36.872  18.123   1.368
19019W        W90635  33.320   6.420   1.007
19020W        W90636  17.455  18.507   4.573
19021W        W90637  29.447  21.366   1.350
19022W        W90638  21.997  41.430   0.774
19023W        W90639  11.506   9.132  14.560
19024W        W90640  30.857  23.251   4.609
19025W        W90641  24.807   4.372   4.374
19026W        W90642   9.655  44.866   4.632
19027W        W90643  35.899  11.737   4.474
19028W        W90644   8.575  26.675  14.873
19029W        W90645   6.124  23.718  13.886
19030W        W90646   0.662  33.411  11.586
19031W        W90647  30.091  44.821  14.833
19032W        W90648  40.822  28.044  11.232
19033W        W90649  42.447  23.474  13.896
19034W        W90650  16.609   5.533   1.678
19035W        W90651  44.250   7.913  12.346
19036W        W90652  37.590   4.937  12.542
19037W        W90653  15.035  16.721   5.239
19038W        W90654   1.415  40.044   1.719
19039W        W90655  14.718  41.441  14.564
19040W        W90656   5.852  14.604   0.340
19041W        W90657   0.969  26.405   1.747
19042W        W90658  41.905   9.632  14.402
19043W        W90659   9.605  40.070  11.634
19044W        W90660  22.016  18.085  14.075
19045W        W90661   0.775  17.808  10.698
19046W        W90662   0.006  29.973  12.398
19047W        W90663   9.134  36.368   1.652
19048W        W90664  31.626  37.425  14.281
19049W        W90665  30.526  41.964  14.092
19050W        W90666  38.506   4.848  10.705
19051W        W90667   3.186  40.075   0.891
19052W        W90668  26.166  41.345  14.554
19053W        W90669  27.588  22.206   3.386
19054W        W90670  10.903  10.827  11.911
19055W        W90671  34.559   8.290  12.850
19056W        W90672   6.127   5.194  13.342
19057W        W90673  44.856   0.042  12.794
19058W        W90674   5.209   9.667  11.879
19059W        W90675  11.926  29.379  14.233
19060W        W90676  19.205  35.536  11.685
19061W        W90677  30.336  42.772  11.595
19062W        W90678  18.757  11.054   2.722
19063W        W90679  34.667   4.339  14.340
19064W        W90680  42.098  27.109  14.432
19065W        W90681  19.768  42.911  13.093
19066W        W90682  28.197  31.094  10.682
19067W        W90683  40.360   2.012  14.916
19068W        W90684  36.521  13.860  12.023
19069W        W90685  37.859  17.799   0.765
19070W        W90686  24.254   1.018   0.429
19071W        W90687  19.289   7.855   2.255
19072W        W90688   7.709  24.338   1.749
19073W        W90689  24.515   4.625  12.932
19074W        W90690  33.355  44.833  14.002
19075W        W90691  32.171  34.402   0.934
19076W        W90692   5.831  22.659   0.434
19077W        W90693   2.925   6.207   3.754
19078W        W90694  43.569   7.342   3.157
19079W        W90695  43.764  12.775   3.688
19080W        W90696  17.076  18.989  13.335
19081W        W90697   2.764  26.235  12.139
19082W        W90698   1.378  42.509  13.938
19083W        W90699  29.618  35.422  10.864
19084W        W90700  39.057  27.355   1.910
19085W        W90701  35.884  31.179  12.873
19086W        W90702  41.139  24.245   2.428
19087W        W90703  34.055  41.629   4.097
19088W        W90704  11.051  38.554  14.569
19089W        W90705  44.927   5.693   2.354
19090W        W90706  24.435  41.863   1.274
19091W        W90707  27.458  16.909   4.976
19092W        W90708  24.050  24.045   4.498
19093W        W90709   8.668  44.808   3.634
19094W        W90710  19.775  35.144   2.659
19095W        W90711  20.542  39.120  12.456
19096W        W90712  31.558  43.063  14.641
19097W        W90713  25.995  18.134  11.165
19098W        W90714  18.784  11.979  14.430
19099W        W90715  41.865  38.461   0.292
19100W        W90716  39.328  29.515  12.424
19101W        W90717  23.753  36.936  14.535
19102W        W90718  21.692  29.532  10.734
19103W        W90719   8.191  11.597   2.722
19104W        W90720  23.831   5.414  11.500
19105W        W90721   5.939  33.112  11.568
19106W        W90722  36.357   0.421   3.434
19107W        W90723  23.734  19.136   1.912
19108W        W90724  31.431  23.221  10.519
19109W        W90725   1.047  43.359   4.081
19110W        W90726  39.680  17.759   2.362
19111W        W90727  26.576  19.127  12.533
19112W        W90728  29.464  20.603  12.318
19113W        W90729  29.881  33.919   1.933
19114W        W90730  29.934  32.057   2.392
19115W        W90731  27.170  38.449  13.395
19116W        W90732  35.810  22.323  12.441
19117W        W90733  17.691  38.819   1.339
19118W        W90734  34.534   2.745   1.606
19119W        W90735  27.206  11.335  11.115
19120W        W90736   4.271   2.162  10.458
19121W        W90737  42.746   7.750   1.308
19122W        W90738  11.144  19.516   1.252
19123W        W90739  17.016   4.864  10.053
19124W        W90740  14.280   9.748  14.467
19125W        W90741  23.133   5.753  12.882
19126W        W90742  12.616   8.820  11.574
19127W        W90743  27.681  36.519   2.287
19128W        W90744  38.541  42.423   2.739
19129W        W90745  30.373   6.836  13.700
19130W        W90746  40.337  15.629  14.140
19131W        W90747   3.434   7.486   4.935
19132W        W90748  10.869  25.117   2.861
19133W        W90749  37.318  35.682   3.300
19134W        W90750  29.671  29.045  10.947
19135W        W90751  39.856  25.712   4.651
19136W        W90752  44.471  40.028   2.590
19137W        W90753   9.097  37.622  11.038
19138W        W90754  24.663  39.789  12.297
19139W        W90755  18.477  40.496   3.649
19140W        W90756  22.592  43.428  13.394
19141W        W90757  34.790  44.334   2.888
19142W        W90758  17.198   3.508  14.356
19143W        W90759   3.416   6.180   0.494
19144W        W90760   3.287  15.449  12.195
19145W        W90761  36.630  14.341  14.345
19146W        W90762  22.072  18.079  14.592
19147W        W90763   9.595   2.966  12.032
19148W        W90764   2.084  36.585  10.751
19149W        W90765  28.112  31.395  14.925
19150W        W90766  41.786  17.155   1.778
19151W        W90767  44.318  19.653  12.883
19152W        W90768  17.971  30.417  13.930
19153W        W90769  22.210  14.338   3.767
19154W        W90770  37.937   2.480  10.678
19155W        W90771  14.166  37.343   1.660
19156W        W90772  14.247  38.598  11.039
19157W        W90773   0.304  38.404   4.080
19158W        W90774  41.045   8.368   1.820
19159W        W90775  37.079   7.952   0.440
19160W        W90776  26.191  19.226   4.052
19161W        W90777   8.391  32.435   4.020
19162W        W90778  38.989  15.660   5.054
19163W        W90779  15.972  11.337   0.778
19164W        W90780  22.163  35.534   4.492
19165W        W90781  35.598  20.583  10.605
19166W        W90782  30.920  36.015  13.032
19167W        W90783   9.185   1.638  11.651
19168W        W90784  36.760  31.228  11.706
19169W        W90785   2.856  30.851  13.843
19170W        W90786  21.477  10.216  14.351
19171W        W90787  18.072  11.634  11.451
19172W        W90788  24.555  23.639   1.191
19173W        W90789  11.653   3.358  11.445
19174W        W90790  38.851  15.675  10.179
19175W        W90791  29.684  11.672  12.487
19176W        W90792  31.392  40.437  12.197
19177W        W90793  38.025  28.192   4.785
19178W        W90794  43.518  25.210   5.106
19179W        W90795  23.565  23.445   0.256
19180W        W90796  42.762  11.152   4.176
19181W        W90797  33.351  42.327   1.630
19182W        W90798   6.748   9.838   4.294
19183W        W90799  36.606  27.714   3.251
19184W        W90800   1.678   6.241  11.628
19185W        W90801   4.902  38.602   2.885
19186W        W90802  17.213   2.235  11.264
19187W        W90803  11.528  26.204  12.425
19188W        W90804  25.597   8.091   0.262
19189W        W90805  43.035  31.584  12.109
19190W        W90806   5.240   9.769  12.384
19191W        W90807  41.992  27.922   9.960
19192W        W90808  11.397  17.612  13.935
19193W        W90809  33.580  23.050   2.155
19194W        W90810  43.451  38.430   9.815
19195W        W90811   4.810  36.326  14.800
19196W        W90812  28.102   2.463  12.595
19197W        W90813  38.973   4.540  11.120
19198W        W90814  36.901  10.122   5.406
19199W        W90815   9.593   0.777   3.251
19200W        W90816   6.459   7.814  10.946
19201W        W90817  21.783  37.897   4.647
19202W        W90818   4.046  12.330  13.303
19203W        W90819  13.735  16.182   4.151
19204W        W90820  15.028  36.164  12.922
19205W        W90821  10.601  30.281   0.190
19206W        W90822  28.178  28.618  11.992
19207W        W90823  16.295  40.733  14.599
19208W        W90824  21.647  22.535   3.253
19209W        W90825   6.838  12.725  11.036
19210W        W90826   5.614  32.094   1.466
19211W        W90827  43.471   1.427   3.740
19212W        W90828  27.162  30.188   4.362
19213W        W90829  38.653  44.565  12.052
19214W        W90830  28.440   7.783   2.736
19215W        W90831  21.311   9.492   0.663
19216W        W90832  15.167  16.223   2.335
19217W        W90833  30.112  41.371   1.205
19218W        W90834  40.989   1.259   1.217
19219W        W90835  21.682  29.976   2.247
19220W        W90836  24.243  39.970   4.660
19221W        W90837  38.358  29.535  11.987
19222W        W90838  26.484  17.648   0.125
19223W        W90839   7.798  22.697  12.128
19224W        W90840  41.539  19.769  14.788
19225W        W90841   7.294  37.901  12.343
19226W        W90842  27.687  24.251  13.114
19227W        W90843   0.920   3.026   2.869
19228W        W90844  18.789  14.405   2.338
19229W        W90845  21.968  39.793   0.337
19230W        W90846  43.828  10.791  12.374
19231W        W90847  17.590  29.432  13.924
19232W        W90848  20.209  11.765   3.399
19233W        W90849  41.606  26.957  14.376
19234W        W90850   3.879  18.372   4.605
19235W        W90851  16.134  13.818  12.483
19236W        W90852  15.912  10.177   1.279
19237W        W90853  28.069  37.389  11.616
19238W        W90854  24.195  42.850  12.958
19239W        W90855  35.437  42.624  11.219
19240W        W90856  32.928   2.428  10.148
19241W        W90857  13.225  27.518  10.592
19242W        W90858  28.476  19.875  10.932
19243W        W90859  40.402   6.006  12.013
19244W        W90860  38.823  16.527   2.349
19245W        W90861   7.319  22.258  10.912
19246W        W90862  16.053  24.589  11.956
19247W        W90863   6.270  32.196   2.116
19248W        W90864  13.230  14.766  10.954
19249W        W90865  22.333  37.861   4.670
19250W        W90866  38.941  36.527   0.246
19251W        W90867   4.930  22.678  10.667
19252W        W90868  22.996  28.907   1.504
19253W        W90869  26.015  20.165   0.307
19254W        W90870   0.209  24.656  13.507
19255W        W90871  34.062  27.662  14.823
19256W        W90872  13.099  33.435  12.938
19257W        W90873  30.185  23.551   1.863
19258W        W90874  43.457  21.302  14.290
19259W        W90875   1.425  23.484  11.618
19260W        W90876   9.464  26.329   3.732
19261W        W90877  13.131  38.954  14.933
19262W        W90878  33.046  37.312  13.378
19263W        W90879  42.992  31.996   2.221
19264W        W90880   6.274  24.170  10.303
19265W        W90881  20.696   0.791  14.474
19266W        W90882  40.567  20.141   4.691
19267W        W90883  16.144  24.658   4.913
19268W        W90884  25.535  41.957   1.322
19269W        W90885   3.000   6.593   3.421
19270W        W90886  28.255  42.887   2.178
19271W        W90887  37.693  41.786  12.916
19272W        W90888  10.927  11.142  14.789
19273W        W90889   8.367  23.223   3.183
19274W        W90890  26.056   5.141  11.230
19275W        W90891  34.524   7.895   3.053
19276W        W90892   0.367  36.310  13.369
19277W        W90893  21.217   2.163   1.411
19278W        W90894  40.417  28.121   3.532
19279W        W90895  23.042  14.239  12.904
19280W        W90896  21.412  27.470  11.105
19281W        W90897  21.138   5.598  14.424
19282W        W90898  25.428  31.959   0.759
19283W        W90899   7.941   3.337  13.816
19284W        W90900   4.773  34.668  12.501
19285W        W90901  14.748   7.276   2.270
19286W        W90902  31.977  26.830   0.748
19287W        W90903  30.145  26.010  11.657
19288W        W90904  23.737  26.465  11.587
19289W        W90905   2.097  31.612  10.436
19290W        W90906  28.386  14.575  11.476
19291W        W90907  40.613   7.722  12.507
19292W        W90908  37.438  30.233  12.406
19293W        W90909  26.869  38.885  10.901
19294W        W90910  22.067  38.259  12.800
19295W        W90911  40.385  11.209  12.864
19296W        W90912  29.667  23.323   0.468
19297W        W90913   1.986  30.077   3.988
19298W        W90914   6.380  19.258  10.793
19299W        W90915  40.293  33.439  14.815
19300W        W90916   8.947  19.263   0.887
19301W        W90917  36.398   9.685  11.039
19302W        W90918   8.029   0.994  11.145
19303W        W90919  35.437  35.462  12.882
19304W        W90920  11.080   2.504  14.923
19305W        W90921  11.063  42.848   5.106
19306W        W90922  23.892   9.220   3.268
19307W        W90923  15.370   3.342  10.417
19308W        W90924  19.047   7.693  12.185
19309W        W90925   0.017  27.979   0.629
19310W        W90926  11.771  28.930  11.613
19311W        W90927  15.399  39.363  14.446
19312W        W90928  22.695   5.153  12.045
19313W        W90929  16.776   1.173  14.474
19314W        W90930  32.698  17.725  14.030
19315W        W90931  21.489  13.941   1.170
19316W        W90932  39.038  41.138  10.846
19317W        W90933   9.900  30.651   4.057
19318W        W90934  16.662  38.767  10.259
19319W        W90935   8.382  29.040   4.020
19320W        W90936  24.421  33.714   2.662
19321W        W90937   3.332   8.468  14.854
19322W        W90938  39.900  20.313  13.454
19323W        W90939  29.597  31.205  13.318
19324W        W90940  10.618  16.243   1.756
19325W        W90941  13.278  20.970  11.628
19326W        W90942  32.416  36.978  11.507
19327W        W90943  40.412   6.319   0.477
19328W        W90944  36.074  38.942  11.582
19329W        W90945  33.708  39.336  10.496
19330W        W90946   4.816   4.926  14.929
19331W        W90947  24.844  33.327  11.128
19332W        W90948  39.561  15.786   2.408
19333W        W90949  14.097  13.516  12.973
19334W        W90950  29.106  28.886   3.813
19335W        W90951  23.037  21.549   0.413
19336W        W90952  12.068  44.911   2.202
19337W        W90953   5.457  29.561  14.379
19338W        W90954  44.494  31.413  10.467
19339W        W90955  27.200  40.964  12.443
19340W        W90956  36.045  39.041   3.611
19341W        W90957   4.710  10.424   2.847
19342W        W90958  28.524  25.388   1.445
19343W        W90959  44.578  11.626   3.273
19344W        W90960  14.806  13.749   1.735
19345W        W90961  12.821  11.806  11.587
19346W        W90962  30.783  14.259  10.179
19347W        W90963  34.943  40.273   2.730
19348W        W90964  35.065  11.318  10.304
19349W        W90965  30.851  28.203   3.148
19350W        W90966  35.732  27.706   2.698
19351W        W90967  15.313  10.125  14.877
19352W        W90968  35.915  26.443   0.859
19353W        W90969  15.060  22.351  12.038
19354W        W90970  23.553  37.302  12.948
19355W        W90971   4.519  19.069  10.422
19356W        W90972  28.342   6.292   3.200
19357W        W90973  17.161  37.233  14.992
19358W        W90974  13.878  36.117  13.296
19359W        W90975   0.965  34.047  10.787
19360W        W90976  43.514  22.223  14.743
19361W        W90977  26.596  38.793   1.773
19362W        W90978  21.368  37.507  10.777
19363W        W90979   2.273  20.534   1.725
19364W        W90980  41.779   8.739  13.951
19365W        W90981  14.746  43.695   4.523
19366W        W90982  33.504  27.616  12.877
19367W        W90983  30.890   9.170  12.446
19368W        W90984  29.121   7.834  11.866
19369W        W90985  38.041  36.078   4.696
19370W        W90986  29.886   1.367  10.325
19371W        W90987  29.664  25.221  12.591
19372W        W90988  42.540  11.340   1.638
19373W        W90989  35.975  41.311   3.387
19374W        W90990  29.648  20.261  11.094
19375W        W90991  14.313   1.765   3.621
19376W        W90992  12.262  38.611   4.236
19377W        W90993  32.935  39.550   3.122
19378W        W90994   8.634   7.361  10.748
19379W        W90995  13.280  25.424  13.440
19380W        W90996  25.713   5.171  14.254
19381W        W90997  21.593   9.219  12.192
19382W        W90998  43.118   4.689   2.745
19383W        W90999  32.303  10.558   1.321
19384W        W91000  33.199   9.771  11.125
19385W        W91001  13.688  10.344  10.322
19386W        W91002  19.076   5.308   3.905
19387W        W91003  17.274  33.737   5.118
19388W        W91004  28.931  26.482   4.828
19389W        W91005  19.968  33.564  12.856
19390W        W91006  35.048  21.039   1.086
19391W        W91007  13.748   0.451  12.045
19392W        W91008  13.866  23.267  10.198
19393W        W91009  42.298  15.667  14.861
19394W        W91010  33.232  25.101   1.938
19395W        W91011  12.727  30.095   3.096
19396W        W91012  13.885  32.006  13.388
19397W        W91013  39.822  23.986  10.995
19398W        W91014  35.509  22.054  11.203
19399W        W91015  42.567  14.096  14.544
19400W        W91016  23.781  21.898  10.703
19401W        W91017  28.088  32.974  13.018
19402W        W91018   0.462   9.323  12.078
19403W        W91019  31.168  20.532   4.232
19404W        W91020  39.602  14.114  12.563
19405W        W91021  26.554  29.950  11.590
19406W        W91022  34.856   9.113  12.992
19407W        W91023  13.936  39.420   3.229
19408W        W91024  35.178  22.482  14.298
19409W        W91025   1.544  37.803  13.452
19410W        W91026  13.861  32.664   3.682
19411W        W91027  34.920  40.088   1.953
19412W        W91028  10.206  34.116  14.455
19413W        W91029  27.681  29.378  12.870
19414W        W91030  27.192  13.596   0.715
19415W        W91031  19.582  27.749   2.349
19416W        W91032  21.712  39.964   0.801
19417W        W91033  40.505  41.012  14.521
19418W        W91034  43.036  29.954  11.561
19419W        W91035  39.412  39.462   1.631
19420W        W91036   0.053  12.803  13.936
19421W        W91037  33.573  27.997  13.361
19422W        W91038  41.817  16.709  14.327
19423W        W91039  33.553  33.003  10.654
19424W        W91040   1.419  34.281   1.076
19425W        W91041  16.138  29.451  10.864
19426W        W91042  31.646  38.861   1.888
19427W        W91043  29.763  42.454   4.904
19428W        W91044   7.108  17.250  11.133
19429W        W91045  32.660  23.842  11.864
19430W        W91046  27.759   3.317   0.845
19431W        W91047  20.207  27.233   1.870
19432W        W91048  43.422  37.059   2.937
19433W        W91049  27.556  29.031   2.886
19434W        W91050  24.285   0.687  13.846
19435W        W91051  16.676  31.845   3.857
19436W        W91052   2.472  23.780   2.867
19437W        W91053   0.932  24.308  12.924
19438W        W91054  24.576  24.095  11.520
19439W        W91055  29.130  32.575   2.385
19440W        W91056  19.095  41.007  12.174
19441W        W91057  24.133  36.276  12.987
19442W        W91058  33.131  13.814  13.425
19443W        W91059   8.243   9.875   2.326
19444W        W91060   3.247   9.175  14.401
19445W        W91061   7.248  18.760   4.103
19446W        W91062  42.918  20.552  13.470
19447W        W91063   1.254   8.688  14.795
19448W        W91064  11.665  27.509   1.070
19449W        W91065  38.380  44.980  13.302
19450W        W91066   9.198   5.722   0.221
19451W        W91067  17.768   0.723   3.696
19452W        W91068  37.373  20.506   2.042
19453W        W91069  17.356  16.747   4.143
19454W        W91070  13.643   2.259  11.534
19455W        W91071  29.357  18.252   4.225
19456W        W91072  17.248  21.741  12.966
19457W        W91073  25.278   1.244   3.131
19458W        W91074   9.911  40.574   3.681
19459W        W91075  42.511  10.703   4.158
19460W        W91076  25.939  28.562   0.047
19461W        W91077   7.395  15.718   1.680
19462W        W91078  37.940  31.097   4.680
19463W        W91079   5.793  15.983   2.169
19464W        W91080   9.228  16.822  14.892
19465W        W91081   2.853  41.282  11.644
19466W        W91082  42.536  23.708  12.005
19467W        W91083  40.742  29.616   4.685
19468W        W91084  21.258  13.076  11.110
19469W        W91085  19.820  19.325  11.970
19470W        W91086  24.116  14.107   2.252
19471W        W91087  28.126  23.920   4.573
19472W        W91088  20.601  39.109   1.256
19473W        W91089   0.737   3.261  13.052
19474W        W91090  29.943  32.457  11.172
19475W        W91091   0.381   9.368   3.122
19476W        W91092  24.506   7.285   2.373
19477W        W91093  16.121  33.904  11.372
19478W        W91094  16.414  23.785   1.346
19479W        W91095   4.466  32.374   4.513
19480W        W91096  24.065  36.124  12.493
19481W        W91097  44.223  28.583  13.291
19482W        W91098  39.702  24.617  13.565
19483W        W91099  33.283   1.846   3.571
19484W        W91100  10.842  24.570  10.574
19485W        W91101  41.106  26.073   0.424
19486W        W91102  38.630  28.135   2.137
19487W        W91103  34.396  43.719   4.044
19488W        W91104  13.775  43.256   3.365
19489W        W91105  30.564  44.235   1.171
19490W        W91106  21.060  34.968  12.681
19491W        W91107  10.152  12.483   0.942
19492W        W91108  20.788  42.571   4.115
19493W        W91109  23.740  23.647  11.184
19494W        W91110  40.321  31.685  11.473
19495W        W91111   0.495  18.396   2.351
19496W        W91112   3.233  21.615   0.828
19497W        W91113  32.386  22.744   3.787
19498W        W91114  36.047  43.510  14.527
19499W        W91115  27.679  16.455  10.734
19500W        W91116  36.822  15.400  14.313
19501W        W91117  32.462  32.193   3.087
19502W        W91118  18.702  17.298  12.364
19503W        W91119  30.596  12.865   0.339
19504W        W91120  32.197  20.829   2.793
19505W        W91121  17.562  10.142   0.883
19506W        W91122  12.221  40.111  11.069
19507W        W91123   7.492  37.727   1.843
19508W        W91124  24.207  31.871  10.041
19509W        W91125  26.923  38.315  14.301
19510W        W91126  18.650  34.717  14.314
19511W        W91127   0.814   8.597   5.010
19512W        W91128  37.747   7.803   0.835
19513W        W91129  36.573  19.183   3.923
19514W        W91130   2.317  17.607   2.692
19515W        W91131  25.717   8.238  12.753
19516W        W91132  11.840   4.957   1.764
19517W        W91133   2.234  20.329  13.354
19518W        W91134   1.992  27.943  11.123
19519W        W91135  15.265   4.877   1.778
19520W        W91136  19.155  34.077   4.082
19521W        W91137  22.253   0.248   4.136
19522W        W91138  39.300  23.886  12.409
19523W        W91139  31.987  24.783  11.198
19524W        W91140  39.791   9.206   1.433
19525W        W91141   5.856  32.881   4.609
19526W        W91142  22.721  33.630  11.570
19527W        W91143  24.245  41.381   3.623
19528W        W91144  28.969  32.034  13.789
19529W        W91145  25.953  29.016   0.348
19530W        W91146  29.222  39.634   4.617
19531W        W91147  11.893   2.014   0.386
19532W        W91148   0.324   4.286  12.481
19533W        W91149  28.148  33.344  11.600
19534W        W91150  20.090  42.391   4.630
19535W        W91151  33.666  19.769   4.536
19536W        W91152  19.038  44.685  11.996
19537W        W91153   3.315  39.378   3.926
19538W        W91154  14.359  19.134  12.912
19539W        W91155  40.776  19.816  13.411
19540W        W91156  21.286  12.686   2.246
19541W        W91157  21.307   4.576  13.606
19542W        W91158  17.829  15.122   0.005
19543W        W91159  40.285  20.513  14.745
19544W        W91160  26.760  23.799   1.837
19545W        W91161  44.811  25.642   4.490
19546W        W91162   7.872  44.420   2.363
19547W        W91163  11.683  23.191  12.628
19548W        W91164   1.332   2.210   0.980
19549W        W91165   1.682   2.145   4.475
19550W        W91166  39.889   3.922   3.688
19551W        W91167  22.104  26.219  10.305
19552W        W91168  23.754  15.214   2.799
19553W        W91169   4.169  41.966   1.382
19554W        W91170   5.231   4.910   3.723
19555W        W91171   6.790   5.761   2.349
19556W        W91172  33.074  19.455   1.912
19557W        W91173  10.899  39.995   2.354
19558W        W91174  20.444  26.906  12.680
19559W        W91175   3.521  16.130  13.423
19560W        W91176  25.155   4.332  13.554
19561W        W91177   0.977  33.566  12.877
19562W        W91178  12.631  23.465  12.097
19563W        W91179  20.073  16.263  11.871
19564W        W91180  11.272   6.360  12.071
19565W        W91181  13.588  26.404   3.780
19566W        W91182  12.460   6.161   0.459
19567W        W91183  11.032  42.973  11.584
19568W        W91184  38.927  33.058   2.860
19569W        W91185  34.913  24.537  12.835
19570W        W91186  30.101   2.348  10.718
19571W        W91187   1.966  38.259  11.080
19572W        W91188  24.321  28.418  10.493
19573W        W91189  33.780   3.220  14.916
19574W        W91190  13.167  15.747  10.635
19575W        W91191  43.843  24.507  14.392
19576W        W91192   5.037  20.875   2.358
19577W        W91193  29.963  13.557  13.506
19578W        W91194   3.814   5.646  12.497
19579W        W91195  39.261  35.459  12.401
19580W        W91196  37.552   1.254   2.094
19581W        W91197   9.379  44.978  12.368
19582W        W91198  21.155  44.807  14.825
19583W        W91199  36.595  26.304  14.221
19584W        W91200  13.060   8.896  13.317
19585W        W91201  13.089   0.836  12.509
19586W        W91202  43.334  34.003  11.091
19587W        W91203   8.189  11.444   1.825
19588W        W91204  16.349  38.773   1.823
19589W        W91205  32.346   3.340   3.466
19590W        W91206  38.507  41.808  13.951
19591W        W91207   1.804   5.763   2.752
19592W        W91208  22.585  30.066   0.394
19593W        W91209  29.949   9.575  12.037
19594W        W91210   2.285  15.292  11.131
19595W        W91211   8.298  38.847  10.470
19596W        W91212   2.908  15.345   0.367
19597W        W91213  17.171   3.734  13.101
19598W        W91214   1.695  30.563   2.625
19599W        W91215  26.741  27.228   4.978
19600W        W91216  13.643  42.008   3.697
19601W        W91217  18.224  38.824   4.677
19602W        W91218  32.368  21.696   2.429
19603W        W91219  39.374  34.545   3.808
19604W        W91220  42.386  41.967  11.633
19605W        W91221   0.110  14.773  12.898
19606W        W91222  18.740  33.854   4.295
19607W        W91223  43.045  23.838  12.017
19608W        W91224  20.145  18.071   4.547
19609W        W91225  42.871  16.785   1.268
19610W        W91226  28.415  18.749   3.401
19611W        W91227  21.251  36.568   3.486
19612W        W91228  21.358  21.532  13.011
19613W        W91229  26.112  20.594   4.076
19614W        W91230  35.281  32.617  11.913
19615W        W91231  31.069   2.654  13.556
19616W        W91232  24.520  26.068   3.404
19617W        W91233  41.958  40.595  11.575
19618W        W91234  13.587  26.927   3.743
19619W        W91235  23.519   4.873   4.681
19620W        W91236  19.249  25.252  12.807
19621W        W91237  37.633  39.342  13.463
19622W        W91238  15.294   8.424   0.219
19623W        W91239   4.164  28.068  14.264
19624W        W91240  16.329  39.985   1.342
19625W        W91241   6.725  19.153  11.985
19626W        W91242  39.464  29.038   4.930
19627W        W91243  35.780   2.952   4.331
19628W        W91244  14.660  15.078   0.867
19629W        W91245  29.689  20.230   3.591
19630W        W91246  12.712   5.782   2.385
19631W        W91247  35.991  22.804  10.518
19632W        W91248   7.493  24.423  11.150
19633W        W91249  22.013   2.914   0.394
19634W        W91250   9.873  34.058  13.054
19635W        W91251  41.502  33.921  10.881
19636W        W91252   7.042  14.125  12.942
19637W        W91253  12.195  24.617   4.465
19638W        W91254  26.719   0.211   3.696
19639W        W91255   9.876  43.933  14.882
19640W        W91256   0.531  20.680   3.568
19641W        W91257  41.001  12.604   0.873
19642W        W91258  13.066  38.715  11.574
19643W        W91259   1.004  19.296   1.045
19644W        W91260  41.840  14.300   2.262
19645W        W91261  23.753  19.193  14.963
19646W        W91262  23.649  42.227  14.948
19647W        W91263  10.984   3.375  12.327
19648W        W91264  29.044  11.746   0.458
19649W        W91265  26.038   0.753  11.053
19650W        W91266  17.599  26.044   4.275
19651W        W91267  43.208  30.513   1.340
19652W        W91268  16.590  20.796   1.203
19653W        W91269  11.239  14.573   3.119
19654W        W91270  28.187   0.196  14.846
19655W        W91271  44.427  29.469   9.832
19656W        W91272  40.283  21.671  13.413
19657W        W91273  13.256   4.206   3.273
19658W        W91274  10.204   4.504  11.165
19659W        W91275  16.320  11.387   2.411
19660W        W91276  43.966  39.827   2.868
19661W        W91277  14.813  28.496  13.930
19662W        W91278  37.281  27.360  11.532
19663W        W91279  40.454   7.436  10.754
19664W        W91280  30.183  17.581  11.513
19665W        W91281  13.580  44.786  12.797
19666W        W91282  10.109  24.968   5.381
19667W        W91283   2.045  20.665  12.417
19668W        W91284  18.587  19.053   3.238
19669W        W91285  33.399  41.538  10.660
19670W        W91286  29.499   7.803   4.825
19671W        W91287  16.115  10.744  14.015
19672W        W91288  32.341  21.125   0.262
19673W        W91289  16.555  27.132   0.936
19674W        W91290  28.631   4.426   0.860
19675W        W91291  38.415  21.966   0.787
19676W        W91292  20.100  36.564  13.641
19677W        W91293  39.086  32.185   3.080
19678W        W91294  13.649  25.519  12.156
19679W        W91295  28.983  12.773   1.664
19680W        W91296  13.889  25.419  12.623
19681W        W91297  17.313  32.112  14.526
19682W        W91298  43.298  11.924   4.560
19683W        W91299   6.030  12.187  11.076
19684W        W91300  31.595  21.779  11.157
19685W        W91301   2.806  40.492   3.807
19686W        W91302  19.881   4.253  10.348
19687W        W91303  26.946   9.547   1.696
19688W        W91304  13.824  32.015  14.620
19689W        W91305  32.376  22.561  11.642
19690W        W91306   8.445  23.600  13.520
19691W        W91307  32.569   0.736   3.312
19692W        W91308  33.956  37.148   0.743
19693W        W91309  40.098  38.008  11.238
19694W        W91310  21.139  15.786  13.275
19695W        W91311   7.313  44.878   2.747
19696W        W91312   8.629  33.586  14.397
19697W        W91313  43.866  24.731   0.896
19698W        W91314  26.204  31.993   1.831
19699W        W91315   3.726   3.765  14.547
19700W        W91316   5.949  39.531   4.627
19701W        W91317  43.993   0.554  13.912
19702W        W91318  37.825   6.269   3.624
19703W        W91319   0.338  37.634  12.028
19704W        W91320  36.009  17.560  11.025
19705W        W91321   3.276  27.832  14.358
19706W        W91322  34.425   0.750   3.375
19707W        W91323  40.829   8.738   4.430
19708W        W91324  30.450   5.788  12.067
19709W        W91325  32.134  12.078   0.244
19710W        W91326  25.517  33.237   2.838
19711W        W91327  37.507   4.225   0.465
19712W        W91328  17.497  39.494   2.956
19713W        W91329  35.185  23.107  14.880
19714W        W91330  35.551  43.857  11.128
19715W        W91331  22.685  14.330   1.192
19716W        W91332  41.018  14.777   2.431
19717W        W91333  21.082  38.913   5.038
19718W        W91334  12.320  29.026   1.410
19719W        W91335   5.437   8.314  12.797
19720W        W91336  42.008  13.150   4.624
19721W        W91337  23.645  28.056  12.507
19722W        W91338  22.969  17.663  13.443
19723W        W91339  16.929  19.241  10.620
19724W        W91340  39.027  38.869  11.105
19725W        W91341  32.203  20.089   3.070
19726W        W91342  11.203  38.121  12.069
19727W        W91343  38.770   1.797  12.239
19728W        W91344  41.916  25.183  13.776
19729W        W91345   2.144  18.315  10.114
19730W        W91346  39.325  12.387  10.747
19731W        W91347  17.843  13.550  14.712
19732W        W91348  18.725   9.172   3.334
19733W        W91349  28.224  23.728  10.194
19734W        W91350  11.563  43.004  12.932
19735W        W91351  28.585  17.451   2.613
19736W        W91352  19.700   2.351  13.179
19737W        W91353   4.374   5.194   3.732
19738W        W91354  23.102  33.330  14.501
19739W        W91355   1.753  13.725   4.355
19740W        W91356   7.640  23.611   2.123
19741W        W91357   1.971  15.699   4.665
19742W        W91358  30.731  29.521  12.112
19743W        W91359   7.826  31.121   3.128
19744W        W91360  12.166  20.287   1.724
19745W        W91361  16.636   0.918   4.237
19746W        W91362  20.120  28.130   2.935
19747W        W91363  28.155  25.908  13.386
19748W        W91364  32.307  31.112  13.876
19749W        W91365  23.466  27.686  13.281
19750W        W91366   3.035  29.348  13.454
19751W        W91367  44.854  29.684   0.499
19752W        W91368  23.190  43.736  10.725
19753W        W91369  40.020  29.042   0.289
19754W        W91370   2.487   3.470  11.537
19755W        W91371  32.949  23.513   2.485
19756W        W91372  31.420   6.853  14.280
19757W        W91373   2.751  22.202   2.255
19758W        W91374  11.845  24.766  11.438
19759W        W91375   6.735   3.459  11.650
19760W        W91376   7.857  41.029  11.723
19761W        W91377  13.542  39.485   2.396
19762W        W91378   8.604  25.584   5.052
19763W        W91379  31.158  18.634   0.694
19764W        W91380   4.074   2.148  14.469
19765W        W91381  29.076  37.599  14.789
19766W        W91382  10.143   7.447   4.015
19767W        W91383  34.746  41.380  11.147
19768W        W91384  38.140   0.566   3.392
19769W        W91385  22.965  23.496   2.702
19770W        W91386  39.048  15.273   1.917
19771W        W91387   4.686  37.549   3.492
19772W        W91388   8.599  42.793  10.210
19773W        W91389  14.704  31.583   0.362
19774W        W91390  15.592  24.737   1.704
19775W        W91391  23.099  37.085  12.958
19776W        W91392  27.521  21.659   0.811
19777W        W91393  28.192  27.657  13.733
19778W        W91394   6.978  13.668   1.891
19779W        W91395  32.892  20.202   4.035
19780W        W91396  19.731   6.291  11.942
19781W        W91397  26.872  37.035  11.558
19782W        W91398   0.661  37.913   4.665
19783W        W91399  30.868  42.275   4.091
19784W        W91400  31.274  35.012  10.396
19785W        W91401  11.938   5.459  12.477
19786W        W91402  25.238   8.140  10.756
19787W        W91403  39.502  19.152   1.185
19788W        W91404  10.877  27.511  13.930
19789W        W91405  16.168  22.467  14.863
19790W        W91406   5.651  31.051   0.378
19791W        W91407  33.632  31.465   4.053
19792W        W91408  30.855   5.745  14.781
19793W        W91409  22.568  22.656   2.821
19794W        W91410  12.327  29.871   4.155
19795W        W91411  18.355  13.215   3.427
19796W        W91412   0.004  12.410   2.380
19797W        W91413  18.270  43.896   3.604
19798W        W91414  15.238  28.186   1.864
19799W        W91415   6.384   9.672   2.662
19800W        W91416  16.913  22.149   2.225
19801W        W91417  13.185  22.923  11.629
19802W        W91418  20.671  13.434  12.867
19803W        W91419  24.010  36.960  14.041
19804W        W91420  40.943  34.515  10.923
19805W        W91421  29.155   1.205  11.593
19806W        W91422   1.364  38.068   3.081
19807W        W91423  28.407   2.832  10.749
19808W        W91424  25.243  37.412   2.372
19809W        W91425   1.386  18.991  11.117
19810W        W91426  30.705  13.673  11.787
19811W        W91427   9.294   9.944   3.611
19812W        W91428  43.083  16.743   2.592
19813W        W91429  26.403  16.099   5.064
19814W        W91430  13.657  27.954   0.272
19815W        W91431   7.591  34.471   1.203
19816W        W91432   6.842   2.174   2.325
19817W        W91433  28.282   6.178  14.736
19818W        W91434  41.364  28.525  12.507
19819W        W91435  30.516  36.020  10.990
19820W        W91436  25.207  43.088   3.318
19821W        W91437  16.785  35.101  11.538
19822W        W91438  21.975  14.532  11.849
19823W        W91439  44.022  18.416  10.844
19824W        W91440   9.067  41.651   0.552
19825W        W91441  15.835  35.964   1.684
19826W        W91442  16.080  10.343  11.477
19827W        W91443   2.395  31.452  11.873
19828W        W91444   0.017  37.575   4.281
19829W        W91445  44.696   2.417   4.095
19830W        W91446  32.023  21.999   3.418
19831W        W91447   9.563  18.665   4.008
19832W        W91448   2.259  38.627  14.460
19833W        W91449  22.595  37.404   4.609
19834W        W91450  12.154  28.549  11.520
19835W        W91451  31.141   7.224   2.877
19836W        W91452  43.960   0.213  10.678
19837W        W91453  29.000  33.578  14.422
19838W        W91454  23.224  12.801  14.423
19839W        W91455  14.351  27.467  12.089
19840W        W91456  32.168  43.815  12.715
19841W        W91457   9.362   7.172  13.340
19842W        W91458  17.577   4.830  13.360
19843W        W91459  11.288  28.993   4.827
19844W        W91460  42.507  12.309   3.623
19845W        W91461  25.755  20.195   4.753
19846W        W91462  38.994  11.568  10.609
19847W        W91463  44.033   7.300  12.027
19848W        W91464   4.712  14.690   4.966
19849W        W91465  20.620  27.735  12.764
19850W        W91466  37.373  39.883   4.565
19851W        W91467  42.539  16.356   0.519
19852W        W91468  12.599   9.780   3.195
19853W        W91469  29.923  33.603  11.094
19854W        W91470  18.850  30.928  12.994
19855W        W91471  33.859  40.466   3.181
19856W        W91472  10.702  24.251   0.421
19857W        W91473  23.204  11.643  11.137
19858W        W91474   3.701  19.346  13.071
19859W        W91475   0.840  37.535   0.091
19860W        W91476  37.108  24.139   2.102
19861W        W91477  23.123   9.432   0.252
19862W        W91478  15.297   1.382  13.427
19863W        W91479  30.419  28.174   4.415
19864W        W91480   8.737   6.365   4.804
19865W        W91481  27.915  16.999  14.806
19866W        W91482  41.965  20.190  14.418
19867W        W91483  32.951  44.808  12.263
19868W        W91484  24.286  19.720  11.178
19869W        W91485  13.143   4.179   0.260
19870W        W91486  28.556  26.426  10.684
19871W        W91487  35.108  22.975   3.116
19872W        W91488  23.458  35.526   1.467
19873W        W91489  10.869  27.097   3.149
19874W        W91490  39.413  41.121   2.202
19875W        W91491  41.006   2.438   3.269
19876W        W91492   0.070   9.282  10.740
19877W        W91493  41.859  19.807   3.202
19878W        W91494   6.777   9.240  12.613
19879W        W91495  30.024  42.000  14.245
19880W        W91496  40.808  39.234   4.393
19881W        W91497  42.546  10.613  13.784
19882W        W91498  35.244  36.318   1.772
19883W        W91499  16.179  32.873  13.496
19884W        W91500  28.861  36.117   1.960
19885W        W91501  16.646  15.260  12.304
19886W        W91502   0.895  24.015  13.359
19887W        W91503  37.387   7.252  11.530
19888W        W91504   9.253  10.567  12.879
19889W        W91505  28.035  15.728   2.938
19890W        W91506  32.646  33.648   4.772
19891W        W91507  33.513   1.771   0.495
19892W        W91508  38.214  15.943   2.380
19893W        W91509  21.034  36.817   3.902
19894W        W91510   0.254   5.118  14.736
19895W        W91511  24.142  15.714   0.279
19896W        W91512   6.508   7.749   1.823
19897W        W91513  21.441  10.563   0.673
19898W        W91514  10.242   9.732   0.555
19899W        W91515   3.813  31.890  12.645
19900W        W91516   2.398  27.093  10.653
19901W        W91517  36.010  39.269   4.917
19902W        W91518  21.252  14.787  12.509
19903W        W91519  18.980  41.032  13.091
19904W        W91520  36.942   5.315   1.935
19905W        W91521  38.180   0.983  13.093
19906W        W91522   0.930  26.481  12.865
19907W        W91523   8.317   5.867   0.793
19908W        W91524  20.192   6.883   0.861
19909W        W91525   9.960  13.832  11.793
19910W        W91526   7.407  16.024  14.271
19911W        W91527  18.339   1.865   4.622
19912W        W91528   2.439  11.427  11.204
19913W        W91529  37.531  43.107  12.081
19914W        W91530   8.302  31.342  11.593
19915W        W91531  32.541  19.976  13.859
19916W        W91532  21.996  15.195  11.263
19917W        W91533  26.771  40.158  11.101
19918W        W91534   0.887  31.609  14.085
19919W        W91535  10.134   7.437   0.991
19920W        W91536  17.235   8.284   3.950
19921W        W91537  28.450  14.817   1.279
19922W        W91538  39.503  34.999   4.049
19923W        W91539  39.282   5.395  11.545
19924W        W91540   3.306   2.193  14.010
19925W        W91541  44.432  16.636   4.179
19926W        W91542  33.972  13.313  13.946
19927W        W91543  44.493  12.865  11.087
19928W        W91544   1.845  12.364   4.026
19929W        W91545   3.326  19.130   3.377
19930W        W91546  43.040  28.033   2.817
19931W        W91547  24.463   5.849  14.925
19932W        W91548  32.705  25.574   0.409
19933W        W91549  22.112  33.025  14.974
19934W        W91550  30.559   4.284  12.771
19935W        W91551  34.795  37.571  11.316
19936W        W91552  38.898  18.821  14.702
19937W        W91553  44.899  28.532  11.554
19938W        W91554  12.465   9.803   4.568
19939W        W91555  20.599  25.057  10.650
19940W        W91556  27.225  44.940   2.821
19941W        W91557  35.736  12.774  11.563
19942W        W91558   3.233   7.385   4.069
19943W        W91559  18.210  19.091  12.811
19944W        W91560  25.644  39.015  10.750
19945W        W91561   7.853   6.800  12.821
19946W        W91562  15.786  11.123   4.157
19947W        W91563  22.739  28.232  12.930
19948W        W91564  34.010  33.628   4.234
19949W        W91565  44.969  41.348  13.460
19950W        W91566  41.968  30.964   0.483
19951W        W91567  35.468  16.106   3.396
19952W        W91568  13.882  37.146  11.270
19953W        W91569   5.341  20.641   1.182
19954W        W91570  16.530  43.808  11.206
19955W        W91571  24.018   7.666  12.095
19956W        W91572  36.049  19.580  14.972
19957W        W91573  22.304  38.384  10.928
19958W        W91574  11.172   0.210   2.685
19959W        W91575  33.293  36.302  11.373
19960W        W91576  18.735  28.638   1.755
19961W        W91577  22.050  40.457  11.854
19962W        W91578  31.038  44.820  10.780
19963W        W91579  41.006  18.313   0.448
19964W        W91580   0.507  39.043  10.316
19965W        W91581   0.811  35.296   0.416
19966W        W91582   2.248  16.045  11.915
19967W        W91583  21.379  14.844   2.776
19968W        W91584   3.390   7.871   0.855
19969W        W91585  32.573   9.642  13.430
19970W        W91586  21.351   8.723   5.183
19971W        W91587  13.805  34.443  14.271
19972W        W91588  30.874   0.211   0.869
19973W        W91589  21.709   5.336   3.639
19974W        W91590  19.503  15.689  12.976
19975W        W91591  27.488  32.709   4.623
19976W        W91592  10.381  40.333   3.638
19977W        W91593  30.492  21.574  13.507
19978W        W91594  12.428  19.369   4.492
19979W        W91595  30.161  34.044  14.007
19980W        W91596  25.553  40.485   0.755
19981W        W91597  30.887   6.894   0.734
19982W        W91598  15.117  43.016  10.545
19983W        W91599  29.165  16.167   2.839
19984W        W91600  29.127  13.821  10.902
19985W        W91601   0.264  36.611  11.075
19986W        W91602  24.720  18.201   1.399
19987W        W91603  23.178  18.346   3.379
19988W        W91604  39.247   2.465  13.953
19989W        W91605  16.045   0.242   2.195
19990W        W91606   7.843   6.865  11.816
19991W        W91607   6.413  29.921  13.483
19992W        W91608  19.480   2.770   2.401
19993W        W91609  10.861  31.569  10.476
19994W        W91610  25.005  26.733  14.839
19995W        W91611  29.775  30.328  11.114
19996W        W91612  17.039  22.988  11.518
19997W        W91613   3.170  27.078   4.547
19998W        W91614  35.479  43.496   1.413
19999W        W91615  32.425  11.264   3.741
20000W        W91616   0.838  15.304   0.732
20001W        W91617   1.672  24.693  13.591
20002W        W91618  14.279   0.712  12.106
20003W        W91619   0.344  13.883   2.786
20004W        W91620  36.346   1.484  10.659
20005W        W91621  44.721   3.530   0.323
20006W        W91622  40.103  23.602  14.441
20007W        W91623  38.936  24.451   3.176
20008W        W91624  15.738  42.809  12.889
20009W        W91625   2.699  17.751   0.330
20010W        W91626  26.491  35.948  14.309
20011W        W91627  11.268  16.324   2.724
20012W        W91628  33.989   8.626   4.388
20013W        W91629  23.489  16.175  13.248
20014W        W91630   1.004  24.785   4.182
20015W        W91631  26.497   9.309  10.689
20016W        W91632  19.925  32.326  13.976
20017W        W91633  42.817  14.047  11.926
20018W        W91634  44.019   8.218  11.539
20019W        W91635  20.618  35.207  14.906
20020W        W91636  43.827  41.411   4.110
20021W        W91637   8.667  12.117  10.524
20022W        W91638   2.617  29.563  14.806
20023W        W91639  36.698  38.825  12.801
20024W        W91640  42.283  23.919  14.882
20025W        W91641  15.820  36.868  14.695
20026W        W91642  34.951  33.043  11.907
20027W        W91643  27.149  33.533   4.843
20028W        W91644  36.291   5.469   2.738
20029W        W91645  40.010  17.537  12.458
20030W        W91646  44.539   1.886  13.383
20031W        W91647  17.290   8.807   1.293
20032W        W91648   1.796   3.633   4.071
20033W        W91649  10.259  28.229   3.082
20034W        W91650  25.496  12.450  12.983
20035W        W91651   1.209   7.428   0.401
20036W        W91652  31.948   5.262   0.076
20037W        W91653  44.963   2.733  11.978
20038W        W91654   8.683  44.733  13.443
20039W        W91655  32.656  15.845  11.207
20040W        W91656  18.938  33.966   1.941
20041W        W91657  42.931  19.668   1.327
20042W        W91658   3.519  23.090  11.947
20043W        W91659  24.176  31.977   1.751
20044W        W91660   0.940  10.732  11.491
20045W        W91661   0.936  28.422   1.160
20046W        W91662  24.537  13.811   2.259
20047W        W91663  13.419   6.238   1.133
20048W        W91664  33.145  18.839  12.018
20049W        W91665  33.171  44.346  10.037
20050W        W91666  17.344  25.148   5.082
20051W        W91667  10.194  19.727  11.511
20052W        W91668  26.257  20.218   0.773
20053W        W91669   5.815  16.197  10.624
20054W        W91670  11.543  39.239   2.354
20055W        W91671  25.639  18.117  11.604
20056W        W91672  31.503  18.946   3.350
20057W        W91673  29.020  41.167  10.689
20058W        W91674  34.798   2.283   0.435
20059W        W91675  15.657  15.172  14.968
20060W        W91676   7.847   5.768  13.562
20061W        W91677   3.811  20.995  14.744
20062W        W91678  33.374  19.094   0.842
20063W        W91679  37.527  26.225  14.507
20064W        W91680  12.698  31.083  14.902
20065W        W91681  18.778  41.629   3.561
20066W        W91682  13.334  10.149   0.556
20067W        W91683  38.912   6.255  11.376
20068W        W91684  37.980   1.478   2.345
20069W        W91685  13.661  33.065   0.761
20070W        W91686   1.202   7.250   1.744
20071W        W91687   4.613  30.692   0.429
20072W        W91688  44.785  42.817  10.709
20073W        W91689  26.518  24.960  14.413
20074W        W91690  26.673  34.597  13.449
20075W        W91691   2.048  29.669  14.888
20076W        W91692  34.869   5.475   4.403
20077W        W91693  15.338  13.116  12.443
20078W        W91694  22.899  43.587  11.439
20079W        W91695  32.205  44.233   5.035
20080W        W91696   0.058  36.359  10.688
20081W        W91697  19.248  12.205  12.418
20082W        W91698  33.127   9.355   3.634
20083W        W91699   0.712  32.464  13.359
20084W        W91700  44.572  24.512   4.699
20085W        W91701  43.738   9.852   4.169
20086W        W91702  34.436  17.583   4.056
20087W        W91703   0.227  19.105  10.451
20088W        W91704   6.255  19.169   1.721
20089W        W91705  18.631  33.126   2.331
20090W        W91706  14.338   1.478  11.618
20091W        W91707   0.260  26.973   2.199
20092W        W91708   7.229  15.757   5.168
20093W        W91709  26.076  42.771  10.449
20094W        W91710  25.132   0.783  12.862
20095W        W91711  28.034  15.489   3.410
20096W        W91712  31.409  28.076   1.351
20097W        W91713  13.124  14.543   4.035
20098W        W91714  20.463  37.376   2.724
20099W        W91715  13.321  40.810   3.670
20100W        W91716  40.462  43.263   0.974
20101W        W91717  36.197  30.904   1.034
20102W        W91718  24.202   3.840  12.057
20103W        W91719  39.239  11.705  10.176
20104W        W91720  41.216  29.556  12.850
20105W        W91721  22.735  27.894  10.300
20106W        W91722  25.723  20.581   0.379
20107W        W91723   5.925   0.805  10.927
20108W        W91724   3.216  33.469   2.374
20109W        W91725   2.483  33.559   0.269
20110W        W91726  35.923  23.554   0.952
20111W        W91727  21.320  13.669   3.743
20112W        W91728   5.397  31.133   4.275
20113W        W91729  38.035  35.298  14.121
20114W        W91730  25.674  38.749  11.194
20115W        W91731  38.587   0.508  12.385
20116W        W91732  20.609  23.226   4.803
20117W        W91733  35.011  27.977  14.044
20118W        W91734  28.498  26.439   2.340
20119W        W91735  31.785   5.708  10.490
20120W        W91736  31.058   0.952   1.976
20121W        W91737   0.447  42.430   1.490
20122W        W91738  25.602   0.320   3.189
20123W        W91739   4.106   5.400  14.997
20124W        W91740   8.082  26.558  12.954
20125W        W91741  25.513  24.545   1.176
20126W        W91742  40.711   1.651   2.457
20127W        W91743   4.402  27.659  11.155
20128W        W91744  13.922  12.035  11.027
20129W        W91745  10.878  43.345   4.967
20130W        W91746  14.225   6.361   3.666
20131W        W91747  21.484  12.700  12.618
20132W        W91748  24.675  41.848  11.672
20133W        W91749   9.376  24.650   1.641
20134W        W91750   3.118  43.549  12.181
20135W        W91751  43.353  42.431  12.630
20136W        W91752   3.250   2.509  13.610
20137W        W91753  28.222  41.362   3.679
20138W        W91754  21.236  20.611   2.241
20139W        W91755  35.015  40.315  14.112
20140W        W91756  25.431  38.680   1.970
20141W        W91757  21.034  13.112   3.409
20142W        W91758  26.982  21.425   4.781
20143W        W91759   2.533  20.622   3.904
20144W        W91760  25.650  18.738  14.356
20145W        W91761  35.570   9.775  12.482
20146W        W91762  14.579  24.587  12.163
20147W        W91763   9.678  28.095  13.133
20148W        W91764  10.135  36.088  14.335
20149W        W91765  39.264  32.796   4.126
20150W        W91766  40.523  30.851  11.111
20151W        W91767  40.888  18.567   1.867
20152W        W91768   5.730  20.011  12.546
20153W        W91769  37.652  37.038  11.647
20154W        W91770  40.886  26.942   0.967
20155W        W91771   6.096  38.655   0.187
20156W        W91772   1.368  30.874  14.901
20157W        W91773  42.365  38.539  11.042
20158W        W91774  43.206  13.562  13.090
20159W        W91775  14.466  39.920  14.787
20160W        W91776   9.384  13.626  11.029
20161W        W91777  23.408   4.650  14.265
20162W        W91778  41.824  27.977   0.004
20163W        W91779  12.721  16.032   1.333
20164W        W91780  26.944  13.148   0.872
20165W        W91781   3.287  26.564   1.773
20166W        W91782   4.506  14.940   1.854
20167W        W91783   7.161   3.854   0.682
20168W        W91784  14.195  20.342   0.313
20169W        W91785   3.385   1.176  12.812
20170W        W91786  25.008  38.416   3.262
20171W        W91787   1.444  35.647   0.717
20172W        W91788   3.933  27.688  14.010
20173W        W91789  15.817  22.714   3.010
20174W        W91790  14.830  16.257   5.023
20175W        W91791   5.247  10.398  12.927
20176W        W91792   1.787   6.181   4.171
20177W        W91793  16.210  23.552  10.389
20178W        W91794  21.215  33.184  11.101
20179W        W91795  32.106  42.796   2.673
20180W        W91796  37.096  28.427  10.689
20181W        W91797  35.440  10.233   1.258
20182W        W91798  30.993  35.818   1.355
20183W        W91799  22.107   7.225  13.500
20184W        W91800  18.721  33.307   1.409
20185W        W91801  37.781  28.524  12.727
20186W        W91802  44.046  21.174  13.053
20187W        W91803   5.745   8.281   1.960
20188W        W91804   9.786  24.277  11.229
20189W        W91805  25.982   1.618   4.726
20190W        W91806  16.589  14.577   2.628
20191W        W91807   9.673   6.295   0.827
20192W        W91808  12.618  27.271   2.761
20193W        W91809  22.036  31.162  14.524
20194W        W91810  36.172  38.948  14.259
20195W        W91811  15.332  20.723   0.534
20196W        W91812   6.747   9.793  13.488
20197W        W91813   4.940  25.943   2.783
20198W        W91814   2.423   4.379  11.626
20199W        W91815  44.569  39.471   3.754
20200W        W91816  39.869  42.417   3.220
20201W        W91817  39.079  10.306   3.819
20202W        W91818   1.283  33.316  13.850
20203W        W91819  13.660  26.044   1.881
20204W        W91820  15.736  39.636   3.254
20205W        W91821  15.773  39.077   3.216
20206W        W91822  34.914  16.022   0.459
20207W        W91823  42.878  26.872   4.076
20208W        W91824   2.233  38.303  14.869
20209W        W91825  26.756  13.344   2.109
20210W        W91826   0.445   3.871  11.628
20211W        W91827  44.753  24.658  12.558
20212W        W91828  40.619  40.624   2.503
20213W        W91829  27.562  24.660  13.422
20214W        W91830  16.136   0.904  11.351
20215W        W91831   0.282  18.544  13.050
20216W        W91832  42.555  37.820   3.173
20217W        W91833   5.301  38.867   2.178
20218W        W91834   8.873  29.927   4.005
20219W        W91835  25.222   0.063   2.248
20220W        W91836   4.261  16.207  14.861
20221W        W91837  22.016  40.036   1.233
20222W        W91838  42.579   3.705  13.903
20223W        W91839  22.801   0.746   3.082
20224W        W91840  36.933  14.511   3.402
20225W        W91841  17.772  21.560  11.272
20226W        W91842  41.802  26.787  11.599
20227W        W91843  12.211  21.801   2.349
20228W        W91844  41.302  43.108   3.689
20229W        W91845  10.399  34.599  14.793
20230W        W91846   6.265  35.990   2.963
20231W        W91847  43.393   9.701  10.724
20232W        W91848   6.801   1.461   1.446
20233W        W91849  40.462  10.086   4.957
20234W        W91850  29.445  27.249  13.487
20235W        W91851   5.161   6.157  14.715
20236W        W91852   4.379   6.154   0.500
20237W        W91853  24.966  11.127  13.016
20238W        W91854  20.500   4.197   1.877
20239W        W91855  36.782   5.318   0.844
20240W        W91856   6.955   6.007   2.799
20241W        W91857  30.971  21.087  11.029
20242W        W91858   2.953  43.379  10.275
20243W        W91859  14.630  23.434  11.702
20244W        W91860  19.159  28.832   0.765
20245W        W91861  21.704  37.343   3.274
20246W        W91862   8.326  30.534   0.504
20247W        W91863  43.866  34.203   0.849
20248W        W91864  37.574  25.421   2.267
20249W        W91865  41.277  15.228   2.694
20250W        W91866   5.470   6.406   1.952
20251W        W91867  16.727  18.156   3.296
20252W        W91868  21.636  23.098  13.521
20253W        W91869   9.067  17.863  12.481
20254W        W91870  25.074  22.645   4.067
20255W        W91871  20.614  32.813   2.731
20256W        W91872  38.441  25.891   4.593
20257W        W91873  27.015  42.789   3.273
20258W        W91874  26.337  13.714   4.693
20259W        W91875  18.712  42.698  12.406
20260W        W91876  26.223  44.770   2.702
20261W        W91877  16.828  21.368  13.410
20262W        W91878  19.615  12.609   1.840
20263W        W91879  35.491   9.466   1.798
20264W        W91880  24.948  18.490  10.861
20265W        W91881  15.310  26.059   3.575
20266W        W91882  18.820  14.187  12.897
20267W        W91883  39.348  14.208   3.195
20268W        W91884  11.225  29.360   3.319
20269W        W91885  44.344   3.846   3.292
20270W        W91886  39.429  21.258   1.148
20271W        W91887  21.745   9.369   4.737
20272W        W91888  38.428   7.637  12.640
20273W        W91889  22.586  25.857  14.839
20274W        W91890  24.638  27.081  12.273
20275W        W91891  34.050  14.238   0.889
20276W        W91892  44.461   8.399   2.780
20277W        W91893  37.793  22.811  14.337
20278W        W91894  35.497   9.951  11.985
20279W        W91895   9.206   8.194  12.041
20280W        W91896   4.995  35.005   3.648
20281W        W91897  39.538  32.906   3.213
20282W        W91898  36.649  24.017   2.851
20283W        W91899  18.089  20.713  14.774
20284W        W91900  36.039   1.736  11.018
20285W        W91901   5.714  42.686  11.894
20286W        W91902  22.716  11.088  11.166
20287W        W91903  27.965  20.225   2.219
20288W        W91904   2.552  37.997  11.658
20289W        W91905  44.166  21.735   0.416
20290W        W91906  24.889  19.575  12.898
20291W        W91907  30.417  17.855   0.419
20292W        W91908  28.125  16.315   0.455
20293W        W91909  21.071  42.543   3.655
20294W        W91910  24.513  28.356   1.208
20295W        W91911   2.900  33.644   1.928
20296W        W91912  35.667  14.316  12.840
20297W        W91913  15.821  43.824  14.963
20298W        W91914   7.239  16.488   3.225
20299W        W91915  43.696  29.209  13.879
20300W        W91916  19.361  44.910  14.478
20301W        W91917  19.667  44.520  14.675
20302W        W91918   0.726  18.065   4.105
20303W        W91919  29.492   2.682   1.079
20304W        W91920  25.583  41.435   1.218
20305W        W91921  16.801  34.455   1.233
20306W        W91922  34.798  32.718   0.735
20307W        W91923  43.298  29.165   4.094
20308W        W91924  36.322  40.708  13.977
20309W        W91925   1.042  34.324  14.446
20310W        W91926  12.007  31.514   3.604
20311W        W91927  12.194  44.348   3.703
20312W        W91928  34.844   5.869  14.330
20313W        W91929  12.174  40.337  11.553
20314W        W91930   0.505  36.665   1.726
20315W        W91931  31.631  23.775   4.117
20316W        W91932  30.737  41.527  12.572
20317W        W91933  11.842  25.244  11.627
20318W        W91934   7.894  36.507   0.446
20319W        W91935  40.437  29.105  14.493
20320W        W91936  34.396  41.517  12.607
20321W        W91937  28.692   4.182   2.249
20322W        W91938  11.455  14.688  13.763
20323W        W91939   1.529  11.228   0.299
20324W        W91940  12.645  10.717  13.336
20325W        W91941  10.910  36.049   5.301
20326W        W91942   1.853  33.020  14.998
20327W        W91943  33.976  32.744   2.186
20328W        W91944  12.881  19.088   0.349
20329W        W91945  39.736  11.969   0.525
20330W        W91946  12.332   1.903   2.200
20331W        W91947  29.076   3.377   3.003
20332W        W91948  26.758   9.975   4.592
20333W        W91949  41.364  38.519  12.189
20334W        W91950  14.794  23.902  14.013
20335W        W91951  36.037  44.896   4.076
20336W        W91952   2.980  22.347  10.306
20337W        W91953  33.565  20.182   1.590
20338W        W91954  21.704  25.428  11.945
20339W        W91955   1.340   4.882   3.177
20340W        W91956  39.512  38.932   2.313
20341W        W91957  28.183  29.079   2.408
20342W        W91958  44.197   1.125   4.677
20343W        W91959   1.020   9.928   0.403
20344W        W91960  17.224  35.183   2.700
20345W        W91961  42.545  43.954   0.440
20346W        W91962  28.230  11.424   0.362
20347W        W91963  13.239  40.917   2.663
20348W        W91964   5.825  18.702   4.392
20349W        W91965  26.098  33.163   4.743
20350W        W91966   2.979   3.392  11.600
20351W        W91967  19.096   3.743  10.638
20352W        W91968  14.336  13.991  12.968
20353W        W91969  31.129  20.075   0.263
20354W        W91970  32.491  28.134  10.659
20355W        W91971  14.350  28.404   1.837
20356W        W91972  13.345  12.512  13.484
20357W        W91973  32.888  33.927   2.222
20358W        W91974  10.449  25.224   1.785
20359W        W91975  14.379  42.538  11.883
20360W        W91976  10.980  35.396   1.764
20361W        W91977   5.274  33.712   3.530
20362W        W91978  22.450   2.510  12.067
20363W        W91979  33.013   3.402  11.597
20364W        W91980  19.658  16.836  13.459
20365W        W91981  11.883   6.252   3.314
20366W        W91982   7.742  13.867  10.734
20367W        W91983  11.771  20.806   3.143
20368W        W91984  10.930  35.614   2.988
20369W        W91985  24.102  24.687  13.823
20370W        W91986  36.924  18.501   0.431
20371W        W91987   9.861  13.801  11.266
20372W        W91988  35.937  32.358  12.049
20373W        W91989  39.890   9.826  12.922
20374W        W91990  16.299  10.916  12.217
20375W        W91991   2.943   7.132   3.685
20376W        W91992  15.575  22.471  11.979
20377W        W91993  34.596  25.937  10.757
20378W        W91994  38.276  33.111  13.932
20379W        W91995  39.300  27.533   3.688
20380W        W91996  35.162   3.763  10.471
20381W        W91997  35.781  12.201  12.837
20382W        W91998  44.888  13.750   3.081
20383W        W91999   0.781  14.308   3.698
20384W        W92000   9.432   5.384  11.512
20385W        W92001  14.602  13.950   4.029
20386W        W92002  24.195  16.599   1.723
20387W        W92003  35.586  36.428   0.207
20388W        W92004  36.866   5.042  11.827
20389W        W92005  29.707   9.745  12.468
20390W        W92006  26.903  12.107  10.607
20391W        W92007  42.026  31.560  12.391
20392W        W92008  20.737   5.828   1.968
20393W        W92009  40.133   5.947   4.022
20394W        W92010  16.345  36.069   0.410
20395W        W92011  22.543  14.632   4.141
20396W        W92012  11.730  33.452   4.656
20397W        W92013   0.996   4.919   2.737
20398W        W92014   7.279  22.026  12.808
20399W        W92015  18.919  31.394   4.170
20400W        W92016  23.437   0.802   1.804
20401W        W92017   6.640  21.123  10.568
20402W        W92018   6.644  13.596   1.424
20403W        W92019  32.795  32.001  14.244
20404W        W92020  17.216   2.131  14.376
20405W        W92021  18.270  17.171   2.969
20406W        W92022   0.791  14.106  12.877
20407W        W92023   5.090  14.086   4.845
20408W        W92024  39.416  40.376  11.494
20409W        W92025  12.189  11.199  13.783
20410W        W92026  41.375  29.876  14.524
20411W        W92027  28.650  33.123   2.926
20412W        W92028   2.884   2.780  12.415
20413W        W92029  36.040  30.715   2.002
20414W        W92030  38.381   0.344  14.379
20415W        W92031   4.911  15.592   2.719
20416W        W92032  23.490  24.743   3.983
20417W        W92033   6.229  15.148   0.409
20418W        W92034  28.058  21.006   2.794
20419W        W92035  15.726   3.004   1.887
20420W        W92036  15.543   2.440  14.861
20421W        W92037   6.916  37.306   3.883
20422W        W92038   5.181  20.442   0.193
20423W        W92039   6.310  12.880  14.977
20424W        W92040   9.228  27.439   3.681
20425W        W92041  27.968   5.248   1.472
20426W        W92042  29.698  16.694  11.497
20427W        W92043  37.782  24.242  11.757
20428W        W92044  28.010  30.600   4.699
20429W        W92045  31.995   8.659  11.986
20430W        W92046   2.836  18.287  14.211
20431W        W92047  39.452  18.309   0.268
20432W        W92048  31.562  41.277   3.775
20433W        W92049  41.062  38.859   2.374
20434W        W92050  16.789  43.463   3.179
20435W        W92051  43.505  24.679  13.033
20436W        W92052  16.853  20.446   3.344
20437W        W92053   2.297  28.986   2.133
20438W        W92054   6.363   7.726  13.522
20439W        W92055  31.146  29.634  10.434
20440W        W92056  44.928  40.286   1.089
20441W        W92057  25.435  17.626  10.918
20442W        W92058  14.352  34.738  11.653
20443W        W92059  30.479  35.306  11.644
20444W        W92060  24.786  27.535  12.456
20445W        W92061  10.875  20.308   1.428
20446W        W92062   8.815   8.334   3.378
20447W        W92063  24.219  11.411   5.231
20448W        W92064  14.700  43.659   3.285
20449W        W92065  14.199  32.245  12.473
20450W        W92066  37.293   5.171   3.263
20451W        W92067   0.892  16.804  13.888
20452W        W92068  14.621  30.894  12.559
20453W        W92069  36.986   6.027  14.851
20454W        W92070   5.925   7.977  13.361
20455W        W92071   9.911  23.439   1.689
20456W        W92072  20.128  15.711  14.114
20457W        W92073  13.969  26.542   0.951
20458W        W92074  27.125  12.685  13.462
20459W        W92075  43.425  43.081  12.085
20460W        W92076  20.221  13.370   2.750
20461W        W92077  37.112  33.533   5.045
20462W        W92078  30.402  13.234  12.592
20463W        W92079  10.566  28.969  10.747
20464W        W92080  43.993  21.041  10.630
20465W        W92081   2.971  23.635  12.407
20466W        W92082   6.961  25.150  11.475
20467W        W92083   0.397  29.506   4.884
20468W        W92084   7.457  44.376  12.546
20469W        W92085   0.709   6.751   2.825
20470W        W92086  27.056   4.976   1.244
20471W        W92087  34.459  17.192   4.371
20472W        W92088  31.005  27.018   5.054
20473W        W92089  23.649  28.952  11.568
20474W        W92090  34.005  42.024   4.450
20475W        W92091   8.853  21.708   2.170
20476W        W92092  17.781  16.563   0.971
20477W        W92093  33.970  39.278   1.499
20478W        W92094   7.101  25.312  12.359
20479W        W92095  18.592  13.455  10.721
20480W        W92096  26.487  23.281   3.220
20481W        W92097  26.448  16.613  11.535
20482W        W92098   9.289  13.161  14.899
20483W        W92099  26.421   3.339   3.306
20484W        W92100  22.785  17.741  12.435
20485W        W92101  19.057  41.859   4.138
20486W        W92102  10.344  10.697  11.256
20487W        W92103  41.013  27.209   2.344
20488W        W92104   2.952  26.260  13.193
20489W        W92105  11.355   7.216   1.685
20490W        W92106   9.064   1.849  12.945
20491W        W92107  43.961  20.170   5.195
20492W        W92108  10.642   6.361  10.623
20493W        W92109  17.859  41.308   0.968
20494W        W92110  29.988  34.378  11.588
20495W        W92111  39.020   1.814   3.703
20496W        W92112  42.446  24.586   1.192
20497W        W92113  31.165  36.129  14.813
20498W        W92114  39.018  30.470   3.297
20499W        W92115   3.406  44.897   0.762
20500W        W92116  28.203  41.467   2.837
20501W        W92117  39.747  29.879   3.223
20502W        W92118  27.709   8.305  13.278
20503W        W92119  42.183  27.514   3.672
20504W        W92120  20.680  27.956  13.478
20505W        W92121  27.049   7.453   4.926
20506W        W92122  24.347  30.346   0.775
20507W        W92123  25.527  33.036  10.392
20508W        W92124  28.244  27.570   1.721
20509W        W92125  24.249  42.134   3.438
20510W        W92126  38.870   3.409  11.061
20511W        W92127  37.848  34.397   3.245
20512W        W92128   8.796   1.297  14.984
20513W        W92129  31.668  34.938  11.994
20514W        W92130  34.233  43.512  14.210
20515W        W92131   2.802   6.880  11.094
20516W        W92132  43.290  24.017  14.878
20517W        W92133   8.058  29.014  13.476
20518W        W92134  25.634  11.202   2.779
20519W        W92135  25.089  17.511   4.670
20520W        W92136  18.145   8.771   3.721
20521W        W92137  42.255   4.768   1.724
20522W        W92138  15.059   3.764   0.360
20523W        W92139  42.527  31.607  12.255
20524W        W92140  16.285  25.728   0.778
20525W        W92141  36.235  27.164  14.393
20526W        W92142  28.397   5.027  12.969
20527W        W92143  12.862  41.014  11.216
20528W        W92144  43.408  32.352   4.830
20529W        W92145  12.677  32.806   0.776
20530W        W92146  40.228  35.419   0.905
20531W        W92147  28.787  25.105  11.104
20532W        W92148  34.937  19.371  13.037
20533W        W92149  34.014  34.006   4.678
20534W        W92150  35.381  13.218  14.397
20535W        W92151  18.214  14.056   3.694
20536W        W92152  33.835   8.240   0.066
20537W        W92153  29.957   5.493  10.806
20538W        W92154  16.224  33.648  14.443
20539W        W92155  42.100  21.994  14.846
20540W        W92156  12.798  15.532   1.419
20541W        W92157  32.622   3.063  13.436
20542W        W92158   6.383  12.882   2.737
20543W        W92159  21.027  19.263   3.263
20544W        W92160  31.015  13.058   4.016
20545W        W92161  44.293  40.336   4.646
20546W        W92162   8.795  43.890  14.251
20547W        W92163  31.792  12.314  14.423
20548W        W92164   8.106  21.731  14.803
20549W        W92165  29.855  34.294   1.265
20550W        W92166  19.642  28.886  11.299
20551W        W92167  33.487  43.873  13.824
20552W        W92168   4.193  38.892  10.656
20553W        W92169  36.376  37.779  11.148
20554W        W92170  40.421  33.582  13.494
20555W        W92171  29.137  17.814   3.386
20556W        W92172   4.693  43.305  13.454
20557W        W92173  10.742  30.891   1.039
20558W        W92174   0.155   5.669   0.295
20559W        W92175   5.890  32.296   3.763
20560W        W92176  33.591   3.212   4.610
20561W        W92177  32.442  32.788  11.224
20562W        W92178  22.551   8.057   0.961
20563W        W92179  37.527  30.260   4.331
20564W        W92180  11.839  29.584   3.351
20565W        W92181  36.320  20.175   3.498
20566W        W92182  25.957  23.882  11.036
20567W        W92183  31.466  12.369  13.280
20568W        W92184  43.212  11.328  12.588
20569W        W92185  17.640  15.868   0.310
20570W        W92186  31.086  22.314  11.957
20571W        W92187  24.323   2.276  11.523
20572W        W92188  27.967   2.674   0.218
20573W        W92189  28.554   5.498  12.992
20574W        W92190   8.466  29.158   2.259
20575W        W92191  35.063   5.507  11.318
20576W        W92192  40.988  27.443   1.873
20577W        W92193   7.814  30.161  10.474
20578W        W92194  10.762  28.675  14.374
20579W        W92195  13.538  28.984   4.189
20580W        W92196   4.720   5.897  14.625
20581W        W92197  20.497  14.650  12.084
20582W        W92198   6.795  25.107   4.625
20583W        W92199   0.923  42.219   4.579
20584W        W92200  39.591  12.193  14.998
20585W        W92201  21.778  44.364   1.746
20586W        W92202  41.416   7.299  11.402
20587W        W92203   7.400   2.272  10.796
20588W        W92204   0.761  36.610   0.399
20589W        W92205   4.342  28.037   0.590
20590W        W92206  10.264   5.342   4.655
20591W        W92207  23.993  31.382   4.535
20592W        W92208  12.094  14.120  14.961
20593W        W92209   9.665   2.540   1.140
20594W        W92210  42.951   7.886  12.457
20595W        W92211  29.426  25.557  13.969
20596W        W92212  16.334  30.523  13.452
20597W        W92213  25.168  23.797  14.838
20598W        W92214   1.868   0.698  10.176
20599W        W92215  11.050  38.524   2.757
20600W        W92216  18.492  32.535  12.903
20601W        W92217  36.510  39.590  10.724
20602W        W92218  43.384  39.276   0.340
20603W        W92219  25.587  42.514   2.639
20604W        W92220  40.134   0.222  11.443
20605W        W92221   3.457  25.515  12.851
20606W        W92222  23.678  19.702  12.456
20607W        W92223   6.649  26.923   2.175
20608W        W92224  39.270  37.530   3.260
20609W        W92225  16.799  16.888  13.067
20610W        W92226  11.257   5.716   1.927
20611W        W92227   0.299  25.766   0.358
20612W        W92228  44.368  33.968  13.845
20613W        W92229   9.778  23.559  11.568
20614W        W92230  41.477   6.437  13.931
20615W        W92231  37.095  44.096  11.028
20616W        W92232  24.110   5.368  11.036
20617W        W92233  43.318  39.574   1.263
20618W        W92234   9.772  21.149  14.392
20619W        W92235  20.113  17.592  11.842
20620W        W92236  31.978  18.752  12.444
20621W        W92237  35.486  14.333  11.109
20622W        W92238   4.380  29.947   4.230
20623W        W92239  43.990  42.279  11.573
20624W        W92240  34.079  25.997  10.681
20625W        W92241  32.746   9.847  11.347
20626W        W92242   1.222  20.149  10.743
20627W        W92243  38.768  38.655  10.288
20628W        W92244  10.687   4.823   1.315
20629W        W92245  14.267  27.895   1.948
20630W        W92246  24.714  42.770  13.924
20631W        W92247  37.284  13.878   5.079
20632W        W92248  18.249  25.053  14.505
20633W        W92249  23.199   1.914   4.209
20634W        W92250  42.759  29.622  11.851
20635W        W92251  32.188  11.576  13.526
20636W        W92252  30.913   7.352   2.094
20637W        W92253  17.234  11.651   2.340
20638W        W92254  38.626  43.311   0.975
20639W        W92255  34.778   6.790  14.512
20640W        W92256  20.700  22.635  11.104
20641W        W92257  24.387  41.916   2.416
20642W        W92258  18.361  17.783  11.733
20643W        W92259  11.769   3.723   0.947
20644W        W92260  18.246  35.703   4.219
20645W        W92261  12.480  21.623   1.728
20646W        W92262  19.553  14.705   0.309
20647W        W92263   8.966  34.424  12.031
20648W        W92264  13.685   5.812   1.323
20649W        W92265   8.839   5.418   4.410
20650W        W92266  37.241  23.081  12.166
20651W        W92267  30.938  29.672   4.985
20652W        W92268   3.667  28.207   4.233
20653W        W92269  39.315  31.848   1.764
20654W        W92270   2.323  19.109  11.964
20655W        W92271  38.982  12.083  13.390
20656W        W92272  22.814  10.614  12.116
20657W        W92273  22.691   1.738   5.050
20658W        W92274  25.533  44.931   3.527
20659W        W92275  38.418  15.092  13.946
20660W        W92276  16.490  35.452  10.730
20661W        W92277  24.052  19.112  13.241
20662W        W92278  40.364  24.073   0.266
20663W        W92279   9.489   4.933   4.049
20664W        W92280  12.605  21.451  11.101
20665W        W92281  21.371  29.597   4.065
20666W        W92282  39.493   4.005   0.857
20667W        W92283  23.086   9.818   3.294
20668W        W92284  13.802  38.908  11.181
20669W        W92285   0.017  34.843  12.121
20670W        W92286  12.351  23.030   1.201
20671W        W92287  19.658  44.813  10.433
20672W        W92288  34.484  33.286   1.301
20673W        W92289  21.211  38.277  11.864
20674W        W92290  43.064  43.860   0.316
20675W        W92291  25.234  29.892   4.211
20676W        W92292  25.069   4.831  12.880
20677W        W92293  43.056  33.437  13.920
20678W        W92294  39.239  17.257  11.075
20679W        W92295  14.011  19.269  12.437
20680W        W92296  12.183  44.914  14.507
20681W        W92297  27.053  19.807   0.759
20682W        W92298  11.869  18.873   3.779
20683W        W92299  14.092  36.122   0.035
20684W        W92300  18.193  31.910   3.944
20685W        W92301   5.150  38.629  12.985
20686W        W92302   4.812  31.060   2.032
20687W        W92303  39.043   5.439  13.320
20688W        W92304   0.705  11.704  13.948
20689W        W92305  12.753  40.581   2.701
20690W        W92306  34.553  16.609  14.697
20691W        W92307  26.081  19.126  11.980
20692W        W92308   5.767   5.563  13.438
20693W        W92309  17.543  43.832  11.357
20694W        W92310  35.075  21.043  13.563
20695W        W92311  42.098  21.217   0.773
20696W        W92312  40.527  35.547   3.335
20697W        W92313   1.454   9.275   1.283
20698W        W92314  16.257   7.284  12.379
20699W        W92315  12.751  28.565   4.409
20700W        W92316  38.569  23.573   2.398
20701W        W92317   8.286   1.993   0.983
20702W        W92318  35.324  13.099   1.489
20703W        W92319  28.558   5.111  10.294
20704W        W92320  24.897  28.925  13.569
20705W        W92321   3.950  43.277   1.330
20706W        W92322   9.907   3.525   3.383
20707W        W92323  19.017  34.884  11.910
20708W        W92324  24.567   8.454  11.951
20709W        W92325  40.597  30.168   0.714
20710W        W92326  38.028  39.806  11.818
20711W        W92327  41.466  15.000   2.259
20712W        W92328  31.304  27.765  14.582
20713W        W92329  35.382   4.175  10.715
20714W        W92330  25.741   9.181   2.146
20715W        W92331  37.012  16.078  11.222
20716W        W92332  20.177  29.463   2.735
20717W        W92333  39.852  19.202   3.242
20718W        W92334  19.196  14.560  14.825
20719W        W92335  36.522   6.610  13.982
20720W        W92336   7.861  43.580  12.819
20721W        W92337  33.558  21.003  13.878
20722W        W92338  15.213  41.404  14.922
20723W        W92339   5.254  26.558   1.324
20724W        W92340  26.004  20.347  12.758
20725W        W92341  11.219  13.650   1.346
20726W        W92342  14.806  15.740   9.732
20727W        W92343  10.749  15.328   2.768
20728W        W92344  40.497  33.152   3.064
20729W        W92345  18.047  42.487  11.635
20730W        W92346  33.314  28.490  11.202
20731W        W92347  37.041  18.680  10.580
20732W        W92348  26.013  43.343  11.827
20733W        W92349   1.879   8.187  13.529
20734W        W92350  27.410  27.393  11.993
20735W        W92351   8.771  22.131   0.487
20736W        W92352  21.480   6.340  11.895
20737W        W92353  33.558   4.882  13.791
20738W        W92354   2.690  12.569  10.412
20739W        W92355  13.420   4.239  13.762
20740W        W92356  23.924   2.343  10.499
20741W        W92357  24.515  35.938  12.689
20742W        W92358   4.258   0.976  13.264
20743W        W92359  22.313  14.151   1.513
20744W        W92360   8.809  36.329  10.795
20745W        W92361  34.416  24.495   3.243
20746W        W92362   7.893  30.105  14.861
20747W        W92363  43.429  34.874   3.139
20748W        W92364   2.770   0.008  11.078
20749W        W92365  40.643  36.399  11.994
20750W        W92366  12.097   5.167  13.894
20751W        W92367  19.703  38.194  11.957
20752W        W92368  26.665  39.607   4.547
20753W        W92369  27.562   5.941   2.185
20754W        W92370  13.283   7.318   0.897
20755W        W92371  44.861  42.053   0.947
20756W        W92372   9.845  21.482  10.639
20757W        W92373  19.119  34.793  14.107
20758W        W92374  31.399  25.169  10.660
20759W        W92375  38.368  10.136   4.521
20760W        W92376  43.428  36.539   1.753
20761W        W92377  11.190   5.468   4.558
20762W        W92378  29.139  17.840  12.419
20763W        W92379  13.578  34.006  14.731
20764W        W92380   3.449  23.713  14.882
20765W        W92381  38.243  38.414   2.066
20766W        W92382  41.266  20.756   4.231
20767W        W92383  18.691  28.765   4.942
20768W        W92384  13.142  26.993  10.410
20769W        W92385   6.909  25.993  13.074
20770W        W92386  24.090  12.323   0.382
20771W        W92387  25.014  34.298  11.527
20772W        W92388  40.819  43.689  11.129
20773W        W92389  38.011   6.010  14.865
20774W        W92390  29.749  11.123   1.863
20775W        W92391  21.759  38.609  12.552
20776W        W92392  15.088  21.081  11.442
20777W        W92393  19.280   7.427   4.574
20778W        W92394   9.708  44.038   4.797
20779W        W92395  35.106  37.112  12.453
20780W        W92396  21.055  22.531   3.166
20781W        W92397  23.498  43.347  13.164
20782W        W92398   9.201   1.893  13.435
20783W        W92399  13.108  43.526  11.212
20784W        W92400  10.301  22.189  10.419
20785W        W92401  39.034  18.673   4.933
20786W        W92402  18.537  42.478  10.714
20787W        W92403  34.368  30.110  13.834
20788W        W92404  19.445  32.371  13.830
20789W        W92405  36.459   6.128  10.731
20790W        W92406   4.382  42.711   2.234
20791W        W92407  15.875   0.472  12.576
20792W        W92408  25.505  43.390   2.714
20793W        W92409   6.493  27.583  14.033
20794W        W92410   0.838  16.977  13.397
20795W        W92411  28.634  42.808  13.986
20796W        W92412  33.587   2.255   2.700
20797W        W92413  11.289   6.886  13.868
20798W        W92414  38.761   8.767   1.901
20799W        W92415  38.193  30.397  13.763
20800W        W92416   7.914  44.850   4.163
20801W        W92417  11.783  36.597  12.632
20802W        W92418  37.457  10.591  13.474
20803W        W92419  15.864   9.822  11.551
20804W        W92420  16.213  30.500  10.726
20805W        W92421  42.853  41.054   1.396
20806W        W92422  44.359  21.765   3.285
20807W        W92423  25.662  17.692   0.709
20808W        W92424   7.902  21.266   1.861
20809W        W92425  28.562  37.291  13.227
20810W        W92426  10.779  10.643  10.952
20811W        W92427  26.914  20.975  14.959
20812W        W92428  40.566  36.592  10.432
20813W        W92429  42.463  19.360  11.779
20814W        W92430  20.201  23.631   2.319
20815W        W92431   8.982   8.706   3.692
20816W        W92432   3.742  22.030  13.385
20817W        W92433  19.358  38.381   2.775
20818W        W92434   0.691  40.390   0.860
20819W        W92435  21.684  36.385  13.559
20820W        W92436  14.288  39.789   2.668
20821W        W92437  36.986   9.347   1.485
20822W        W92438  32.180  25.708  12.246
20823W        W92439  38.884  30.788  13.422
20824W        W92440  29.242  30.579   4.153
20825W        W92441  44.289  21.621  12.968
20826W        W92442  43.533  31.199   3.260
20827W        W92443  28.170  38.450   2.167
20828W        W92444  20.527  33.970  13.388
20829W        W92445  10.731  37.409   1.283
20830W        W92446  14.646  31.548  11.171
20831W        W92447  41.588   2.074   2.662
20832W        W92448  41.060  35.330   3.308
20833W        W92449  32.261  37.527   2.881
20834W        W92450  15.113   4.518  11.552
20835W        W92451  17.053   4.669  12.082
20836W        W92452  29.214  39.741  13.776
20837W        W92453  32.075  43.818  11.200
20838W        W92454  39.898  44.361  11.519
20839W        W92455  28.560  15.281   1.072
20840W        W92456  40.885   2.419  12.431
20841W        W92457   4.232  14.436   0.908
20842W        W92458  32.590  25.482  12.432
20843W        W92459  13.697  20.238  13.531
20844W        W92460  33.890   4.149   4.524
20845W        W92461  27.331   8.791   1.355
20846W        W92462  44.946  12.047   3.816
20847W        W92463  38.042  31.355  11.664
20848W        W92464  31.431   9.089  13.764
20849W        W92465  16.537  31.439   0.473
20850W        W92466  42.806  10.410   4.453
20851W        W92467   1.335  31.240   1.958
20852W        W92468  23.207  44.910   3.035
20853W        W92469  25.967   5.196   4.143
20854W        W92470  12.188  22.540   4.567
20855W        W92471  20.202  39.828   1.405
20856W        W92472   1.738  31.590   3.846
20857W        W92473  21.167  34.662   4.530
20858W        W92474  13.943  43.547  14.845
20859W        W92475  28.050  18.962  14.074
20860W        W92476  12.940   9.030  11.244
20861W        W92477  26.615  24.789  12.693
20862W        W92478  33.615   8.706   0.070
20863W        W92479  38.035  13.306  13.343
20864W        W92480  38.734  40.800  11.090
20865W        W92481  26.115  13.809  14.455
20866W        W92482   5.712  23.727   0.707
20867W        W92483  28.788  31.525  14.303
20868W        W92484  36.052  13.019  11.166
20869W        W92485   7.663  22.489   2.829
20870W        W92486  29.494  14.088   0.880
20871W        W92487  28.990  30.490   3.722
20872W        W92488   5.113  16.600  12.897
20873W        W92489   5.292  26.630  12.290
20874W        W92490  19.050  10.732  13.460
20875W        W92491   9.322  39.408  12.841
20876W        W92492  28.297   3.494   4.172
20877W        W92493   6.343  34.924  13.073
20878W        W92494   2.972  32.175   3.753
20879W        W92495  31.215  39.918   2.147
20880W        W92496  32.079   6.539   3.997
20881W        W92497  44.842  22.545   2.484
20882W        W92498  37.828  39.926  10.830
20883W        W92499  38.788  24.106   2.189
20884W        W92500  30.365  24.326  13.193
20885W        W92501  42.278   0.865  13.430
20886W        W92502  39.271  27.056  10.709
20887W        W92503   0.735   1.839  11.327
20888W        W92504  33.549  30.666  11.999
20889W        W92505  44.526  36.146  13.339
20890W        W92506   2.634   0.857  14.196
20891W        W92507  29.239  31.726   9.870
20892W        W92508  12.619  31.607  13.318
20893W        W92509  11.226   3.872   3.247
20894W        W92510   3.950  22.929   1.732
20895W        W92511   2.101   8.372   0.387
20896W        W92512  17.424  27.432   3.047
20897W        W92513  43.712  28.992   2.674
20898W        W92514  28.448  28.159  13.619
20899W        W92515  34.055  16.407   2.356
20900W        W92516  14.760  24.336  13.291
20901W        W92517  12.081  31.718   0.089
20902W        W92518  42.974   3.845   3.884
20903W        W92519  14.310   7.356   0.882
20904W        W92520  17.342  31.584   0.354
20905W        W92521  33.757  29.639  14.800
20906W        W92522  32.626   9.268  11.985
20907W        W92523  42.290   8.420   4.115
20908W        W92524  15.600  30.920   2.027
20909W        W92525   9.236  29.163  11.654
20910W        W92526   0.091  17.782  14.210
20911W        W92527  35.168  24.210   2.343
20912W        W92528  16.607  41.966  10.834
20913W        W92529  32.886  38.767   1.469
20914W        W92530  16.692   1.246  10.866
20915W        W92531  43.800  16.154  14.063
20916W        W92532  30.998  21.557  13.356
20917W        W92533  38.100  14.163   4.591
20918W        W92534  11.268  16.064   2.249
20919W        W92535  11.350  11.253   1.376
20920W        W92536   5.240  36.439   3.291
20921W        W92537  21.501   1.157   4.062
20922W        W92538   0.281  18.136   4.366
20923W        W92539   2.220  23.594  12.984
20924W        W92540  27.185  16.584   3.759
20925W        W92541  14.297  19.634  11.647
20926W        W92542   0.269  22.710  14.540
20927W        W92543  30.467  17.245  14.791
20928W        W92544  40.006  23.238   2.724
20929W        W92545  10.924  20.929   3.077
20930W        W92546  25.987  26.529  10.549
20931W        W92547  20.007  11.012   1.579
20932W        W92548  41.076  39.395   0.470
20933W        W92549  13.199  15.070  11.891
20934W        W92550   6.261   4.543  11.181
20935W        W92551  12.742  18.843   2.219
20936W        W92552  12.513  44.016   2.317
20937W        W92553  15.839  26.038   0.882
20938W        W92554  27.194  13.639  14.309
20939W        W92555  30.559  29.074  11.395
20940W        W92556  43.955  26.461   2.467
20941W        W92557   6.462   2.430   1.179
20942W        W92558  22.654  39.911  14.249
20943W        W92559  21.202  38.129   1.022
20944W        W92560  20.896  15.608   4.639
20945W        W92561  15.159   4.660   3.211
20946W        W92562  18.305  33.190   3.250
20947W        W92563   7.370  44.961  13.844
20948W        W92564  18.451   5.158   2.715
20949W        W92565  29.591  32.096   4.238
20950W        W92566  36.470  39.774   4.119
20951W        W92567  22.061  30.907  13.760
20952W        W92568  28.041  13.714   1.677
20953W        W92569  41.598  26.570   2.678
20954W        W92570  33.937  37.686  11.132
20955W        W92571  15.845  40.307   0.947
20956W        W92572  21.098   9.942  12.140
20957W        W92573  22.289  37.016   1.331
20958W        W92574  34.160  23.507   3.330
20959W        W92575  22.513  43.965   2.737
20960W        W92576   1.291  25.996  12.280
20961W        W92577  39.297  30.708  13.097
20962W        W92578  27.444   6.191   3.707
20963W        W92579  39.310  35.474  11.510
20964W        W92580  32.169  27.610  10.320
20965W        W92581   2.621  29.005   1.244
20966W        W92582  37.855  34.334  13.736
20967W        W92583  29.339  29.019  14.451
20968W        W92584  21.035  44.074  11.932
20969W        W92585   5.929  16.810  12.547
20970W        W92586  19.768   6.718  11.204
20971W        W92587   0.819  42.657  12.476
20972W        W92588  15.885  15.190  10.251
20973W        W92589  27.962  33.019  12.011
20974W        W92590  13.117  29.545   3.095
20975W        W92591  13.060   3.023   0.902
20976W        W92592  16.534  30.737   4.355
20977W        W92593  16.544  21.665  14.074
20978W        W92594  35.868  40.951  13.970
20979W        W92595  36.082   1.335  14.758
20980W        W92596  23.959  44.033  13.825
20981W        W92597   8.562  27.423   1.805
20982W        W92598  28.518  17.898   3.100
20983W        W92599  38.951  15.301  12.942
20984W        W92600  12.215   6.405   0.917
20985W        W92601   1.170  24.105  12.498
20986W        W92602  44.354  33.651   5.103
20987W        W92603   7.851  11.583   1.286
20988W        W92604  15.906  32.112   0.343
20989W        W92605  43.662  41.308  10.709
20990W        W92606   6.270  35.322  11.116
20991W        W92607  16.248  41.072   0.595
20992W        W92608  16.049   4.553   2.883
20993W        W92609  35.502  24.962   1.656
20994W        W92610  22.746  37.337   2.226
20995W        W92611  27.418  44.574   1.729
20996W        W92612  27.893  10.284  11.099
20997W        W92613  30.045  19.506  12.066
20998W        W92614  39.754  32.719  13.258
20999W        W92615   3.803   1.449  13.016
21000W        W92616  37.748   8.121   3.632
21001W        W92617   6.983   7.193   4.659
21002W        W92618  19.053  39.811  14.346
21003W        W92619   0.540   3.154   3.248
21004W        W92620  12.224   9.163   2.487
21005W        W92621  35.923  28.538   3.363
21006W        W92622   5.800  26.005  13.860
21007W        W92623  11.136  12.133  14.718
21008W        W92624  27.192  29.169  12.713
21009W        W92625  30.136  14.126   2.623
21010W        W92626  20.654  16.274   0.299
21011W        W92627  21.316  14.830   0.860
21012W        W92628  35.486  14.856  11.110
21013W        W92629  20.693  17.146  13.762
21014W        W92630  24.438  40.883  14.304
21015W        W92631  31.451  37.778  13.900
21016W        W92632   9.834   3.943   1.143
21017W        W92633   2.713  27.878   0.770
21018W        W92634  44.967  36.034   2.313
21019W        W92635  20.859  38.971  14.524
21020W        W92636   0.496  25.203   1.182
21021W        W92637  41.410  32.841   1.206
21022W        W92638  28.113  29.023   0.906
21023W        W92639  13.383   9.505  14.964
21024W        W92640  31.211  28.926   4.842
21025W        W92641  38.234  14.023  10.224
21026W        W92642  31.864  28.648  10.203
21027W        W92643   7.172   5.264  14.865
21028W        W92644   2.754  34.856   3.077
21029W        W92645  11.732  27.482  10.562
21030W        W92646   7.132  32.626  13.085
21031W        W92647  29.098   2.946  13.379
21032W        W92648  20.829  15.353  12.025
21033W        W92649  33.121  32.041  12.473
21034W        W92650   9.890  36.837   1.348
21035W        W92651  39.916  32.310  13.542
21036W        W92652  39.977  11.626   1.225
21037W        W92653   4.227  39.084   2.513
21038W        W92654  25.353   9.221   4.703
21039W        W92655   0.221   0.373   3.232
21040W        W92656  36.269   8.623   3.739
21041W        W92657  42.848  15.891   0.929
21042W        W92658  17.750   8.010   2.251
21043W        W92659  37.007  39.971   0.772
21044W        W92660  36.992  21.100   3.215
21045W        W92661  42.601  34.008   1.901
21046W        W92662  24.647  22.292  14.711
21047W        W92663   4.947   3.478  12.790
21048W        W92664  44.012   4.973   2.892
21049W        W92665  38.821   3.721  12.379
21050W        W92666  10.134  42.756  13.448
21051W        W92667  20.511   4.837  10.687
21052W        W92668  41.350  23.013  11.107
21053W        W92669   4.086  38.316   2.412
21054W        W92670   3.723   1.423   0.034
21055W        W92671  25.666  31.918  12.723
21056W        W92672  39.605  24.424   2.279
21057W        W92673  10.601  41.978   2.921
21058W        W92674  24.477   7.121  12.522
21059W        W92675  18.594   4.243  14.205
21060W        W92676  31.577  31.815   1.269
21061W        W92677  19.831  29.804  11.139
21062W        W92678   0.409  41.328  12.285
21063W        W92679   0.262   9.262  12.555
21064W        W92680  26.516   6.041   4.199
21065W        W92681  26.724  24.557   4.316
21066W        W92682  17.671  15.035   2.714
21067W        W92683  31.257  36.636  14.777
21068W        W92684  30.936   5.737  13.854
21069W        W92685  39.288  32.541  13.438
21070W        W92686   1.307  19.510  11.975
21071W        W92687  37.475  17.043  10.493
21072W        W92688  38.484  37.019  14.389
21073W        W92689   2.708  15.539  11.567
21074W        W92690  38.925   2.478   1.289
21075W        W92691  24.097  26.969   3.701
21076W        W92692  40.727  19.474  12.558
21077W        W92693  21.793  10.648  14.354
21078W        W92694   5.977   5.720   3.764
21079W        W92695  16.226  11.800   0.844
21080W        W92696  32.143  11.360  13.063
21081W        W92697  15.307   8.333  14.689
21082W        W92698   7.822  32.059   2.705
21083W        W92699  19.510  14.855   2.647
21084W        W92700   7.654   1.975   2.500
21085W        W92701  13.854  17.551   2.642
21086W        W92702  15.185  17.789  13.301
21087W        W92703  22.363  34.929   5.127
21088W        W92704  26.212  30.596   4.594
21089W        W92705  13.029  28.174  14.294
21090W        W92706  27.252  36.384   4.139
21091W        W92707  20.535  10.657   0.898
21092W        W92708  38.161   8.882   4.087
21093W        W92709  43.838   0.728  13.363
21094W        W92710  19.231  30.081   2.380
21095W        W92711   8.750   9.158   4.111
21096W        W92712  20.631  42.835  11.146
21097W        W92713  36.368   7.623  13.038
21098W        W92714  21.719  36.248  12.560
21099W        W92715  14.883   6.848   3.658
21100W        W92716  39.917   7.655   2.386
21101W        W92717  15.010  27.995  11.266
21102W        W92718  39.232   5.344  10.510
21103W        W92719  37.425  23.672  14.935
21104W        W92720  17.331   0.376   2.854
21105W        W92721  27.732  15.287  12.940
21106W        W92722   7.116  14.312   2.861
21107W        W92723  14.765   2.904  10.683
21108W        W92724  26.572  35.553   0.085
21109W        W92725  35.454  40.346  14.407
21110W        W92726  14.786  36.898   3.639
21111W        W92727  22.648  43.325  12.875
21112W        W92728   8.258  39.589   4.793
21113W        W92729  44.259   2.951  12.913
21114W        W92730  34.439  30.726  10.747
21115W        W92731   5.675  44.835  13.323
21116W        W92732  23.631  21.555  13.937
21117W        W92733   8.788  25.678  12.227
21118W        W92734  13.450   6.301  10.236
21119W        W92735  41.425  35.355  14.069
21120W        W92736  24.495  35.450   1.589
21121W        W92737  31.411  44.442   9.593
21122W        W92738  12.274  26.423  11.164
21123W        W92739  29.169  33.974  12.493
21124W        W92740   7.816  41.389   0.486
21125W        W92741  43.529  22.219   3.331
21126W        W92742  28.954  10.652   0.067
21127W        W92743  44.839  43.899  11.353
21128W        W92744  18.242  17.842   3.741
21129W        W92745  42.168  14.962   3.702
21130W        W92746  42.744  20.217  11.215
21131W        W92747  15.115  34.915   0.793
21132W        W92748  36.395  44.757   2.681
21133W        W92749  26.545  14.756   3.582
21134W        W92750  15.751  41.318   2.154
21135W        W92751  11.224  20.519  12.105
21136W        W92752  32.128  21.776  11.102
21137W        W92753  19.533  31.021   0.046
21138W        W92754  15.783  26.560   4.099
21139W        W92755   8.348  42.719  14.367
21140W        W92756  38.906  40.297   0.944
21141W        W92757   5.970  14.155   3.844
21142W        W92758  25.523  39.281  12.051
21143W        W92759  16.533   3.509  12.737
21144W        W92760  38.655   8.942   3.919
21145W        W92761  35.538   4.819   1.217
21146W        W92762  17.809  31.942  11.206
21147W        W92763  29.542  39.538   0.733
21148W        W92764  36.659  33.620  12.931
21149W        W92765  34.879  27.639   3.056
21150W        W92766  24.411   2.413  10.653
21151W        W92767  34.212  39.293   1.971
21152W        W92768  29.042  15.578   4.560
21153W        W92769   3.728  19.546   2.346
21154W        W92770   4.748   2.516   1.329
21155W        W92771   3.193  22.284  12.499
21156W        W92772  43.206  33.701   2.644
21157W        W92773  24.030  32.565   3.655
21158W        W92774  44.642  41.298  14.157
21159W        W92775  32.962   2.489  11.790
21160W        W92776  10.741  44.437  11.007
21161W        W92777  28.801  14.686  10.167
21162W        W92778  33.656  14.827   3.327
21163W        W92779  19.260  39.351  11.037
21164W        W92780   9.420  44.813  11.868
21165W        W92781  18.863  41.957   1.772
21166W        W92782   6.448   5.937   3.681
21167W        W92783   1.838   6.925  11.241
21168W        W92784  38.747   5.285  12.908
21169W        W92785  12.286  21.568  14.899
21170W        W92786  22.615   9.272   1.892
21171W        W92787  38.376  28.007  11.833
21172W        W92788  12.586  23.161   3.213
21173W        W92789  19.243  42.520   1.446
21174W        W92790  17.974  12.112   0.447
21175W        W92791  25.624  16.848   0.232
21176W        W92792  28.181  38.917   1.785
21177W        W92793  27.420  42.122  13.810
21178W        W92794  43.605  14.210  11.276
21179W        W92795  27.546  37.271  14.065
21180W        W92796  37.906   0.921  11.668
21181W        W92797  37.807  30.307  12.886
21182W        W92798  10.251  30.639  13.968
21183W        W92799  27.431  44.078   1.820
21184W        W92800  18.065   2.222  14.963
21185W        W92801  38.178  23.187  12.525
21186W        W92802  14.641  17.686   1.761
21187W        W92803  37.398  41.291   4.640
21188W        W92804   2.865  10.942  12.392
21189W        W92805  36.498  25.316  14.258
21190W        W92806  18.713  35.323  12.991
21191W        W92807  18.209   0.775   4.848
21192W        W92808  18.905   4.465  13.284
21193W        W92809  19.246   5.945   4.561
21194W        W92810  30.398  39.490  13.307
21195W        W92811  44.409   9.380   3.568
21196W        W92812  28.657  33.432   4.190
21197W        W92813  15.287   8.681  12.115
21198W        W92814  10.738  18.124  10.802
21199W        W92815  21.071  19.758   1.243
21200W        W92816  22.759  20.445   1.153
21201W        W92817  12.694  18.375  11.070
21202W        W92818  23.766  30.922   0.850
21203W        W92819   4.617  41.347   4.149
21204W        W92820  15.846  33.882  10.573
21205W        W92821  26.016  37.796   0.329
21206W        W92822   8.737  41.372   3.629
21207W        W92823  42.076  44.493   3.731
21208W        W92824   1.917  10.744   4.621
21209W        W92825   1.482  34.613  14.470
21210W        W92826  27.547  28.125  14.228
21211W        W92827  12.602  29.497   2.863
21212W        W92828  33.959  33.956   3.696
21213W        W92829  14.586  23.533   4.528
21214W        W92830  25.095  22.867   1.285
21215W        W92831  24.186  14.629   2.244
21216W        W92832  13.289  16.941  11.873
21217W        W92833  13.805  21.623  11.418
21218W        W92834  39.432  32.593   2.295
21219W        W92835  11.726   7.129  13.619
21220W        W92836  38.398  39.952   0.901
21221W        W92837  12.752  23.749   2.441
21222W        W92838   8.511  40.672   1.721
21223W        W92839  34.347  11.025   1.490
21224W        W92840   2.256  22.124   5.636
21225W        W92841  13.739   3.701   1.866
21226W        W92842  32.860  12.767   3.082
21227W        W92843  11.817  14.883   0.929
21228W        W92844  30.852   5.287  14.143
21229W        W92845   8.383  28.896  13.870
21230W        W92846   7.780   6.249   3.350
21231W        W92847  36.016  24.078   4.674
21232W        W92848  11.073  32.013   4.553
21233W        W92849  32.150  11.777   4.313
21234W        W92850   3.233  39.830   1.356
21235W        W92851  23.871  35.162   2.934
21236W        W92852  10.479  33.697   0.933
21237W        W92853   7.150  10.618   2.937
21238W        W92854  22.134  37.903   0.809
21239W        W92855  32.342  28.461  10.263
21240W        W92856   5.805  42.624   4.970
21241W        W92857  12.146  35.439   3.760
21242W        W92858  33.629  35.291  14.249
21243W        W92859   6.148   9.213   1.678
21244W        W92860   8.926  44.875   4.098
21245W        W92861  33.251  33.556   3.753
21246W        W92862   5.294   2.209   2.764
21247W        W92863  29.971  38.621  14.978
21248W        W92864  13.185   0.052  11.384
21249W        W92865  29.100  29.634   5.415
21250W        W92866   4.982  21.464   1.670
21251W        W92867  40.755  10.702   2.846
21252W        W92868  40.145  15.867   4.102
21253W        W92869   9.656   7.648   0.814
21254W        W92870  35.883  27.050  11.539
21255W        W92871  23.029   6.501  14.109
21256W        W92872  35.361  15.351  11.131
21257W        W92873  34.482   2.704  11.382
21258W        W92874  14.753  30.922   2.788
21259W        W92875  42.338   2.367  14.556
21260W        W92876  10.780  38.052  10.877
21261W        W92877  22.083   8.047   1.674
21262W        W92878  21.033  44.534  14.374
21263W        W92879  41.285  15.325   4.104
21264W        W92880  38.704   1.898  14.110
21265W        W92881  24.157   6.237   0.372
21266W        W92882  30.908  26.244   2.389
21267W        W92883   4.789  16.863   2.840
21268W        W92884  34.994  31.656  11.561
21269W        W92885   8.754  34.442   2.899
21270W        W92886  18.375  42.005  14.494
21271W        W92887  22.755  41.965   0.829
21272W        W92888  24.685  11.627   2.906
21273W        W92889   0.305  11.835  11.245
21274W        W92890   2.714  35.528  12.020
21275W        W92891   6.449   8.872   1.955
21276W        W92892  36.893  26.625   0.928
21277W        W92893  30.417  32.644  11.088
21278W        W92894  10.741  28.103   3.234
21279W        W92895  14.415   2.029  12.516
21280W        W92896  28.575  13.745  12.584
21281W        W92897  27.040  18.775  11.923
21282W        W92898  19.257  13.181   1.290
21283W        W92899   1.786  27.899   3.736
21284W        W92900  17.109  27.059  11.039
21285W        W92901  34.229  33.173  14.239
21286W        W92902  26.478  25.199  11.493
21287W        W92903  29.615  32.866   0.014
21288W        W92904   1.434  29.541  14.288
21289W        W92905  29.629  27.757  10.151
21290W        W92906  14.409   7.284   1.820
21291W        W92907  35.010  14.653  12.435
21292W        W92908  33.933  44.916   2.182
21293W        W92909  44.393  27.624  12.845
21294W        W92910  31.638  21.090   1.239
21295W        W92911  44.269  41.751   2.927
21296W        W92912  26.428   1.754   1.821
21297W        W92913  13.753  11.757   1.304
21298W        W92914  35.474   7.228  11.639
21299W        W92915  31.371  12.793   0.872
21300W        W92916  24.715  30.907  14.831
21301W        W92917  22.816  19.697  11.234
21302W        W92918  42.264  23.229  14.320
21303W        W92919  32.187   6.920   4.317
21304W        W92920  18.336  19.511   4.067
21305W        W92921  21.829   5.251  10.475
21306W        W92922  24.568   9.101  11.310
21307W        W92923  37.052  13.260   3.845
21308W        W92924  22.711  13.152  11.217
21309W        W92925   0.703   5.836   3.602
21310W        W92926   9.166  35.982  11.678
21311W        W92927  40.373   6.230  12.666
21312W        W92928   7.409  29.139   0.322
21313W        W92929  27.471  20.187  11.577
21314W        W92930  29.452  35.632   3.787
21315W        W92931  17.378  43.559   4.019
21316W        W92932   5.574  21.584  13.321
21317W        W92933  36.242  37.807  13.780
21318W        W92934   2.748  40.075   1.174
21319W        W92935  12.375  36.705   1.300
21320W        W92936  36.898  40.395  11.587
21321W        W92937  23.959  10.841   4.312
21322W        W92938   6.885   0.444  13.427
21323W        W92939  10.674  24.013  14.465
21324W        W92940  14.123  13.252   0.034
21325W        W92941  19.338  40.310   1.877
21326W        W92942   1.405   2.852  10.622
21327W        W92943  28.527  41.451  14.540
21328W        W92944  38.904  15.817  12.715
21329W        W92945  10.739  24.521   2.172
21330W        W92946  30.175   0.320  13.049
21331W        W92947  15.804   1.505   0.801
21332W        W92948  40.505  14.159  12.968
21333W        W92949  33.177  28.811  13.931
21334W        W92950  37.020   2.382  11.928
21335W        W92951   4.068  37.968  10.762
21336W        W92952  37.977  26.967  11.049
21337W        W92953  34.690  17.519   0.879
21338W        W92954  17.112   4.664  10.641
21339W        W92955  41.884   7.294  13.065
21340W        W92956  27.906  29.889  12.885
21341W        W92957   6.918  32.711   0.334
21342W        W92958  24.402  37.183   4.302
21343W        W92959  15.292  15.306   0.366
21344W        W92960  38.916   4.707  11.634
21345W        W92961  41.550  32.841  13.117
21346W        W92962  27.626  28.854  12.838
21347W        W92963  37.110  10.746   1.317
21348W        W92964  37.409   9.872   0.337
21349W        W92965  14.178   5.920  13.459
21350W        W92966   0.415  35.955   4.104
21351W        W92967   5.819  29.266   1.200
21352W        W92968   6.986  19.757  11.889
21353W        W92969  38.534  22.244  14.454
21354W        W92970  10.783  36.806  12.967
21355W        W92971  26.451  31.632  12.976
21356W        W92972   0.810   6.799  10.744
21357W        W92973  38.408  23.103  11.222
21358W        W92974  31.447  17.107   0.004
21359W        W92975  35.034  21.640  10.932
21360W        W92976   6.827  24.754  12.224
21361W        W92977  34.114  35.638  10.652
21362W        W92978  33.952  18.653   0.481
21363W        W92979  20.664  31.899  13.238
21364W        W92980  16.860  20.879   0.761
21365W        W92981  39.964  14.805   0.920
21366W        W92982   3.182  10.126   3.182
21367W        W92983  44.230   8.461   5.043
21368W        W92984  42.864   2.686   3.708
21369W        W92985   5.474  17.531  14.103
21370W        W92986  10.650   0.395  12.175
21371W        W92987   0.838  37.943   5.531
21372W        W92988  41.087  41.100  10.764
21373W        W92989  14.348  35.477   2.725
21374W        W92990  16.269  19.586  13.610
21375W        W92991  37.602  23.352  12.870
21376W        W92992  17.647   1.487  12.008
21377W        W92993  14.264  17.257   0.434
21378W        W92994  21.612  35.536  13.906
21379W        W92995  12.576  22.702   0.190
21380W        W92996  15.113   1.523  12.965
21381W        W92997  28.622  35.846  14.727
21382W        W92998  25.541  22.958   4.958
21383W        W92999  33.589   0.809   0.506
21384W        W93000   2.348  17.259   1.429
21385W        W93001  11.403  14.250  14.439
21386W        W93002  24.429  37.383   3.820
21387W        W93003  40.617   2.739  14.456
21388W        W93004  28.730  31.314   0.710
21389W        W93005   0.658  25.583  12.149
21390W        W93006   6.404  23.306   1.368
21391W        W93007  20.526  19.597   0.417
21392W        W93008  40.517   9.247  14.806
21393W        W93009  14.906   0.302   1.958
21394W        W93010  24.931  42.463  11.625
21395W        W93011  43.094  39.856   0.857
21396W        W93012   4.885  36.618  12.590
21397W        W93013   2.738  11.365   3.699
21398W        W93014  19.602  35.587   0.937
21399W        W93015  40.498  37.256   2.737
21400W        W93016  12.117  12.672  12.645
21401W        W93017   3.205  42.056   1.785
21402W        W93018  43.884   6.562  11.578
21403W        W93019  14.645  31.857   1.881
21404W        W93020  33.963  39.516   3.335
21405W        W93021  27.293  27.588  13.259
21406W        W93022   5.398  23.499   4.295
21407W        W93023   9.630  25.745  12.067
21408W        W93024  40.475  28.388  12.059
21409W        W93025  19.717  31.573  13.306
21410W        W93026  43.437  27.994   1.015
21411W        W93027   9.335  33.609  14.941
21412W        W93028  41.473  11.838   1.349
21413W        W93029   4.461  29.831   3.230
21414W        W93030  27.974  37.327  12.949
21415W        W93031  37.642  17.686  14.834
21416W        W93032  21.562  10.952  13.809
21417W        W93033  18.233   0.989  11.660
21418W        W93034  43.000  26.743   2.315
21419W        W93035   4.756   4.759  12.563
21420W        W93036  21.304  26.162   3.790
21421W        W93037  37.028  35.895   0.020
21422W        W93038  35.776   5.226   2.714
21423W        W93039  26.150   0.928  10.567
21424W        W93040  18.067  31.657  13.931
21425W        W93041  33.388  16.181  14.332
21426W        W93042  40.757  44.719   4.355
21427W        W93043   0.775  22.936   1.513
21428W        W93044   7.321   2.244   4.828
21429W        W93045  20.957  39.053   0.887
21430W        W93046  19.259  38.240   1.893
21431W        W93047  18.696  38.465  12.556
21432W        W93048  39.411  10.033   0.166
21433W        W93049  33.437  16.639  10.682
21434W        W93050   3.964  22.573   0.266
21435W        W93051  17.700  41.945   1.235
21436W        W93052  30.556  11.268  13.699
21437W        W93053  13.833   6.703   1.401
21438W        W93054  10.641  38.653  11.832
21439W        W93055   8.945  11.442  13.328
21440W        W93056  44.975  22.906  13.051
21441W        W93057  32.020   6.017   2.278
21442W        W93058  36.575  33.891  14.520
21443W        W93059  23.963  43.391  11.201
21444W        W93060  35.625  29.702  12.473
21445W        W93061   6.936  39.609   3.264
21446W        W93062  10.940  24.573  13.609
21447W        W93063  44.117   8.548  11.926
21448W        W93064  36.543  29.878  10.875
21449W        W93065  23.176  10.712   4.871
21450W        W93066  38.385  16.108  13.913
21451W        W93067  25.963  33.550   0.009
21452W        W93068  33.462  33.885   0.581
21453W        W93069  36.462  15.331   3.307
21454W        W93070  32.894  23.721  11.176
21455W        W93071  34.894  16.874  12.545
21456W        W93072  32.992  16.169   1.614
21457W        W93073  35.204   5.917  12.485
21458W        W93074  32.371  26.185   1.858
21459W        W93075   7.252  37.760   0.421
21460W        W93076  38.616   0.786   3.567
21461W        W93077  23.282  36.627   3.719
21462W        W93078  14.842  34.343   3.823
21463W        W93079  25.075  12.828  10.987
21464W        W93080  36.969   2.730   1.525
21465W        W93081  41.000  10.728  13.855
21466W        W93082  29.945  15.613   5.012
21467W        W93083  38.127  36.513   4.389
21468W        W93084  29.777  20.027   4.121
21469W        W93085  33.878  27.003  13.986
21470W        W93086  13.325   0.797  12.968
21471W        W93087  18.271  19.317   0.363
21472W        W93088   2.289  18.818   4.107
21473W        W93089  24.169   2.688  14.776
21474W        W93090  26.235  36.406   2.213
21475W        W93091  38.990  26.924  12.114
21476W        W93092  14.437  35.924   1.903
21477W        W93093  36.145  41.309  11.006
21478W        W93094  20.189   9.681   2.727
21479W        W93095  37.018  11.708  11.913
21480W        W93096  10.874  42.061   4.223
21481W        W93097  36.553  15.343  12.958
21482W        W93098  15.824  33.230  10.681
21483W        W93099  38.806   5.131   0.778
21484W        W93100  32.956  37.844  14.214
21485W        W93101  21.483   1.838  13.050
21486W        W93102  13.416  11.881  11.104
21487W        W93103   6.648  40.848  11.700
21488W        W93104  43.063  25.787   1.871
21489W        W93105   6.660   8.079  14.839
21490W        W93106  12.587  33.015  14.940
21491W        W93107  44.480  23.676   2.401
21492W        W93108  36.954  41.811  14.281
21493W        W93109  42.241  24.953  12.739
21494W        W93110  19.651  16.289  11.090
21495W        W93111  28.301  19.631   0.503
21496W        W93112  25.727  42.668   4.414
21497W        W93113  43.993  44.730   2.377
21498W        W93114  21.397  44.786  10.690
21499W        W93115  25.298  29.219   2.267
21500W        W93116  15.642  14.679  12.845
21501W        W93117  22.573  13.638  13.158
21502W        W93118   9.561  31.609   3.821
21503W        W93119  33.545  12.764  10.536
21504W        W93120  15.643  38.618   2.376
21505W        W93121  34.624  10.156  11.101
21506W        W93122  33.544  38.570   3.248
21507W        W93123  43.773  42.912   2.549
21508W        W93124  40.918  35.525   1.461
21509W        W93125  18.283   4.135  10.714
21510W        W93126  32.613  21.696  10.974
21511W        W93127  42.463  17.763  13.422
21512W        W93128  37.473  12.493  13.394
21513W        W93129  41.441  41.687   1.823
21514W        W93130  23.702  43.227  13.948
21515W        W93131  31.101  27.726   0.144
21516W        W93132  37.521  12.317   2.111
21517W        W93133  33.161  33.111   1.238
21518W        W93134  38.810  36.414  13.885
21519W        W93135  17.179   2.990   3.226
21520W        W93136  25.982   2.252  13.366
21521W        W93137  35.785  44.965  14.900
21522W        W93138  31.002  17.967   2.383
21523W        W93139  40.515  26.749   4.058
21524W        W93140   1.954  39.822  12.682
21525W        W93141  28.403  18.600   4.419
21526W        W93142  30.966  29.607  14.795
21527W        W93143  20.151   7.608  11.083
21528W        W93144  11.918  41.702   0.421
21529W        W93145  23.611  19.769  13.330
21530W        W93146   0.797  22.956  11.472
21531W        W93147   0.309  23.113  11.620
21532W        W93148  13.894  23.277  12.008
21533W        W93149  16.509  29.078   0.474
21534W        W93150  39.343  21.530  14.379
21535W        W93151  24.685  23.020   3.186
21536W        W93152  23.081  19.650  10.760
21537W        W93153  43.481  42.085   1.417
21538W        W93154  12.908  25.404   3.345
21539W        W93155  16.176  20.190   3.794
21540W        W93156  35.537  39.776   2.213
21541W        W93157  17.842  17.503  11.814
21542W        W93158  41.402  29.074   4.398
21543W        W93159  40.243  43.977  14.972
21544W        W93160  33.404  18.969  12.973
21545W        W93161  38.632  21.515   0.017
21546W        W93162  10.721  44.786  11.748
21547W        W93163  44.700  44.980   1.845
21548W        W93164  41.014  17.551   3.728
21549W        W93165  24.254  12.283   1.775
21550W        W93166  18.251  44.332   9.818
21551W        W93167  24.241   4.169  12.936
21552W        W93168   5.315   1.802   4.181
21553W        W93169  10.832   4.411   2.481
21554W        W93170   9.307  40.472  13.992
21555W        W93171  19.210  24.082   0.942
21556W        W93172  12.524   4.806  11.938
21557W        W93173  17.407  23.554   3.549
21558W        W93174  13.160  41.303   3.396
21559W        W93175  21.476  39.066  14.721
21560W        W93176   8.230  24.219  10.723
21561W        W93177  38.528  43.784   4.492
21562W        W93178  43.177  35.349   4.180
21563W        W93179  30.437  43.251  13.961
21564W        W93180  30.079  30.380   0.738
21565W        W93181   8.804  28.193  11.177
21566W        W93182  20.311   3.097   3.331
21567W        W93183  36.937   7.003  12.868
21568W        W93184  25.063  44.699   3.428
21569W        W93185   6.361   6.357   4.325
21570W        W93186  21.330  18.509  13.102
21571W        W93187  24.607  36.328   1.578
21572W        W93188  16.295  15.336   3.780
21573W        W93189   4.220  34.302  11.904
21574W        W93190  27.727  31.907  13.527
21575W        W93191  12.878  14.423   2.514
21576W        W93192  17.267  23.127  13.285
21577W        W93193  17.467  33.065  12.380
21578W        W93194  40.115  32.092   4.632
21579W        W93195  35.946  11.832  12.500
21580W        W93196   6.305  31.527  11.064
21581W        W93197   1.724  43.078  13.000
21582W        W93198  17.464  42.354   2.408
21583W        W93199  11.154   1.015   4.971
21584W        W93200  16.804  20.233   2.875
21585W        W93201  18.242  32.382   9.957
21586W        W93202  12.818  20.763   0.814
21587W        W93203  34.435   8.219   1.800
21588W        W93204  27.330  43.914  12.854
21589W        W93205  42.355  15.449  14.370
21590W        W93206  20.725  16.338  11.828
21591W        W93207   5.277   6.368   0.703
21592W        W93208   5.720   1.526   3.153
21593W        W93209  16.071  33.913   4.585
21594W        W93210  34.901   9.172  12.486
21595W        W93211  19.807   3.206   3.272
21596W        W93212   9.628  16.215  14.757
21597W        W93213  39.878  15.740  14.396
21598W        W93214  26.698  27.766   0.264
21599W        W93215  32.147  11.400   1.989
21600W        W93216  44.335   2.717  11.067
21601W        W93217  34.659  20.184  11.162
21602W        W93218  11.235  19.238  12.071
21603W        W93219  32.669  17.791  12.411
21604W        W93220  13.337  12.373  12.253
21605W        W93221  36.619  38.030   2.137
21606W        W93222  13.578   6.619  14.810
21607W        W93223  29.584  32.231   3.671
21608W        W93224  31.411  29.368  11.390
21609W        W93225  10.950   6.757  14.896
21610W        W93226  10.342  39.002  14.391
21611W        W93227  29.321   5.542   4.276
21612W        W93228  42.866  37.801   0.812
21613W        W93229  37.085  32.988  12.425
21614W        W93230  10.912  44.042   1.428
21615W        W93231  17.198   7.898   3.583
21616W        W93232  17.242  22.089  10.725
21617W        W93233   9.708  36.379   4.213
21618W        W93234  24.776   2.364   0.509
21619W        W93235  15.134  19.237   0.353
21620W        W93236  38.745  32.663  12.941
21621W        W93237  17.114  11.808  11.632
21622W        W93238  33.310   7.447   2.447
21623W        W93239  33.985   0.086   1.269
21624W        W93240  25.660  13.606   0.396
21625W        W93241   6.774  41.315  14.549
21626W        W93242  31.906  37.817  11.350
21627W        W93243  29.918  22.707   2.355
21628W        W93244  18.531  14.649  11.905
21629W        W93245  25.905  13.817   2.314
21630W        W93246  19.108   8.137   1.241
21631W        W93247  39.948  24.237   3.236
21632W        W93248  37.719  39.955   3.217
21633W        W93249  31.846  10.444   1.862
21634W        W93250  13.897  11.911  13.797
21635W        W93251  21.354  29.723   1.296
21636W        W93252  40.724   3.440  11.029
21637W        W93253   9.151   1.320   2.393
21638W        W93254  11.332  23.556  12.718
21639W        W93255  35.605  34.339   2.839
21640W        W93256   2.513  21.547  10.199
21641W        W93257  19.263  12.693  12.617
21642W        W93258  15.584  19.175   9.694
21643W        W93259  35.367  34.901   4.264
21644W        W93260  15.578  28.543   3.279
21645W        W93261  14.293   5.411   2.233
21646W        W93262  40.726  13.041   2.955
21647W        W93263   9.637   6.316   3.205
21648W        W93264  33.967  25.115  10.480
21649W        W93265  23.065  20.352  14.649
21650W        W93266   8.415  43.673  13.932
21651W        W93267   6.690   6.360  13.954
21652W        W93268  40.724  23.851   2.306
21653W        W93269   1.789  18.349  11.522
21654W        W93270   8.706  27.399   4.561
21655W        W93271  38.070  30.764  10.702
21656W        W93272  30.347  22.497  13.798
21657W        W93273   3.871  17.817   4.620
21658W        W93274  13.948   7.858   3.645
21659W        W93275  36.287  41.666   3.562
21660W        W93276  39.962   8.818   3.419
21661W        W93277   3.477  13.730   1.826
21662W        W93278   2.750   6.773  13.332
21663W        W93279  31.878  27.946  11.952
21664W        W93280   5.919   7.085  14.129
21665W        W93281  22.197  32.457  10.678
21666W        W93282  17.372  14.195  13.119
21667W        W93283  42.991  38.114   3.143
21668W        W93284  43.085  16.930   0.802
21669W        W93285  29.925   2.525   1.338
21670W        W93286  32.197  12.809  14.561
21671W        W93287   2.002  27.142  11.371
21672W        W93288  12.421  21.954  12.353
21673W        W93289  29.384  37.204   5.117
21674W        W93290  40.459  20.117  14.468
21675W        W93291  24.758  21.788  12.922
21676W        W93292  15.972   5.542  12.388
21677W        W93293  17.607  19.810  14.503
21678W        W93294   6.426  18.289   0.893
21679W        W93295  20.054  11.667   0.200
21680W        W93296   4.939   4.794  10.952
21681W        W93297  28.092  43.514   1.452
21682W        W93298  37.119  22.400  12.902
21683W        W93299  16.810   3.789  14.982
21684W        W93300   7.956  31.704  13.808
21685W        W93301  29.141  25.842  13.449
21686W        W93302   9.203   6.328   4.059
21687W        W93303  19.659  38.121  14.417
21688W        W93304   2.254  15.086   2.193
21689W        W93305  23.050  13.678   2.377
21690W        W93306  17.728  20.633   2.744
21691W        W93307  25.789   4.745  12.215
21692W        W93308  44.239  29.007   2.696
21693W        W93309  37.632   0.442  10.764
21694W        W93310  30.495  31.932   1.299
21695W        W93311  21.097  22.086  13.829
21696W        W93312   7.744   5.160   3.838
21697W        W93313   5.380  10.635   4.859
21698W        W93314  36.395  26.601   0.738
21699W        W93315  24.353  18.390  10.618
21700W        W93316   2.289  19.508  12.922
21701W        W93317  36.986  41.483   3.108
21702W        W93318  13.335  15.564  13.866
21703W        W93319  41.950  39.057  12.487
21704W        W93320  14.759  20.263   1.751
21705W        W93321  29.228  34.527  13.053
21706W        W93322  24.286  32.993  14.528
21707W        W93323  33.154  25.423   4.168
21708W        W93324  41.311  25.941   2.341
21709W        W93325  37.489  39.161  12.162
21710W        W93326  28.406  36.921   1.031
21711W        W93327  26.468  36.627  13.550
21712W        W93328  42.503   8.158   2.738
21713W        W93329  18.898  24.302   4.041
21714W        W93330  37.896  19.285  13.235
21715W        W93331  42.440   8.735  12.104
21716W        W93332  31.440  24.259   3.985
21717W        W93333  34.056  10.884  12.166
21718W        W93334  31.862  32.894  10.961
21719W        W93335   7.411  35.836   1.300
21720W        W93336   0.057  38.949   5.049
21721W        W93337  16.572  40.025  12.948
21722W        W93338   9.656   8.190   4.423
21723W        W93339  31.084   0.729  13.491
21724W        W93340  23.196  13.524  10.581
21725W        W93341   6.833  17.563  14.321
21726W        W93342   4.780  28.510  14.368
21727W        W93343   9.728  17.004  14.801
21728W        W93344  24.556  32.350  11.002
21729W        W93345  42.533  32.102  13.564
21730W        W93346  19.538  39.603   2.291
21731W        W93347   9.265   2.556  13.999
21732W        W93348  38.641  44.798  13.715
21733W        W93349   2.237  13.995   2.650
21734W        W93350  17.195   8.660  10.659
21735W        W93351   7.410   1.407   3.670
21736W        W93352   9.098  17.111  12.947
21737W        W93353  21.194   6.812  10.867
21738W        W93354  27.045  11.636  10.724
21739W        W93355  18.237  27.022  14.529
21740W        W93356  10.421  17.686   0.330
21741W        W93357  30.414   8.395   0.343
21742W        W93358  38.981  26.430  14.402
21743W        W93359  26.490  42.572   2.396
21744W        W93360   5.716  14.056  13.330
21745W        W93361  18.222  10.378  13.898
21746W        W93362  28.452  25.520  12.985
21747W        W93363  30.432  31.957  14.047
21748W        W93364  38.040  15.259   4.777
21749W        W93365   1.878  14.304  11.891
21750W        W93366  20.722  34.833   1.144
21751W        W93367  23.885  38.026   4.585
21752W        W93368  18.187  16.601   4.503
21753W        W93369  43.663   0.336  14.829
21754W        W93370   3.222  16.109  13.006
21755W        W93371  27.975  35.987  11.901
21756W        W93372  35.951  41.278  14.741
21757W        W93373   7.427  39.024  11.722
21758W        W93374   6.386  36.104   0.519
21759W        W93375   6.726  36.857  11.705
21760W        W93376  27.249  38.024   1.799
21761W        W93377  21.622   9.709  14.417
21762W        W93378  16.476  12.324   0.419
21763W        W93379  35.324  15.806   2.874
21764W        W93380  34.763  40.981   1.511
21765W        W93381  27.888  22.651   1.109
21766W        W93382  40.744  31.843   1.859
21767W        W93383  12.732  38.145  12.571
21768W        W93384  24.014   0.012   2.438
21769W        W93385  23.850  26.688   0.238
21770W        W93386  24.141  39.142   2.262
21771W        W93387  15.293  24.538  12.402
21772W        W93388   9.337  35.027   3.281
21773W        W93389  41.497  37.893  13.275
21774W        W93390  43.505  43.278   4.247
21775W        W93391  42.813  13.685   4.639
21776W        W93392   9.876  26.063   3.541
21777W        W93393  44.593  27.179   3.654
21778W        W93394   7.136  13.312   0.465
21779W        W93395  19.841  29.894  13.861
21780W        W93396  36.235  14.672  14.429
21781W        W93397  30.163   2.153  13.112
21782W        W93398   1.996   8.764   1.280
21783W        W93399   6.084  38.894  12.921
21784W        W93400  11.853  28.851   1.262
21785W        W93401  25.448  23.526  13.406
21786W        W93402  15.615   2.999  13.469
21787W        W93403   8.806   6.012   9.837
21788W        W93404  25.522  28.286   5.012
21789W        W93405  28.003  14.268   5.070
21790W        W93406  29.188  17.040  10.151
21791W        W93407   3.833   8.608   4.604
21792W        W93408   4.265  26.415   1.853
21793W        W93409  33.530  44.254  12.881
21794W        W93410  26.919  11.205  13.824
21795W        W93411  25.684   3.644  13.006
21796W        W93412  14.438  17.570   3.595
21797W        W93413  22.533  40.247  11.990
21798W        W93414  44.261  17.234  12.468
21799W        W93415   4.466  10.250   3.799
21800W        W93416  10.830   0.991   4.009
21801W        W93417  27.146   3.840   0.717
21802W        W93418  16.966  11.437  11.970
21803W        W93419   7.318  10.679   1.444
21804W        W93420  19.101  10.301  10.299
21805W        W93421   7.395  30.177  13.554
21806W        W93422  36.852  12.157  14.834
21807W        W93423  43.407   0.057  10.645
21808W        W93424   5.320  34.979  13.212
21809W        W93425  24.110  34.472   2.156
21810W        W93426  13.782   8.372   2.377
21811W        W93427  19.721  40.309   4.066
21812W        W93428   5.382  20.174  13.948
21813W        W93429  36.921  42.315  13.428
21814W        W93430  29.194  29.642  12.067
21815W        W93431  27.559   6.734  12.507
21816W        W93432  38.908  24.973   0.635
21817W        W93433  39.490  14.595   0.901
21818W        W93434   6.700  43.513  13.397
21819W        W93435  16.887   6.895  13.448
21820W        W93436  16.264  34.898   2.367
21821W        W93437   9.594  18.425   3.542
21822W        W93438   9.187  19.553   2.147
21823W        W93439  36.775  32.291  13.008
21824W        W93440  13.014  44.054   2.178
21825W        W93441  18.453   4.904  13.117
21826W        W93442   9.628  37.495  14.813
21827W        W93443  28.430  23.252  12.876
21828W        W93444  44.880  29.473   4.153
21829W        W93445  12.933  26.024  14.468
21830W        W93446  39.439   2.771   3.513
21831W        W93447   0.430  10.702   0.499
21832W        W93448  28.578  26.864  12.538
21833W        W93449  21.220  22.765  14.379
21834W        W93450  16.111  22.594   4.720
21835W        W93451   6.239   0.995   0.566
21836W        W93452  15.350  21.099  12.426
21837W        W93453  27.209  14.695  12.061
21838W        W93454  21.056  21.301  13.383
21839W        W93455  42.730  33.674   2.862
21840W        W93456  32.658  21.566   4.058
21841W        W93457   3.947  14.646  11.205
21842W        W93458  43.925  36.130   2.192
21843W        W93459  39.532  29.907   1.432
21844W        W93460  40.124   8.979  11.113
21845W        W93461  39.629  34.929   3.568
21846W        W93462  26.962  32.795  11.923
21847W        W93463  34.638  11.397  11.921
21848W        W93464  22.794  12.573   3.281
21849W        W93465  23.654  26.928  10.594
21850W        W93466  44.033  39.530   1.713
21851W        W93467  21.202  35.534   0.552
21852W        W93468  19.753  41.441   1.906
21853W        W93469  37.283  28.276  13.896
21854W        W93470  41.788  44.330   0.413
21855W        W93471  37.467  42.591  11.971
21856W        W93472  18.937  43.936   4.932
21857W        W93473  44.318  36.893  12.713
21858W        W93474  21.749   1.727   2.676
21859W        W93475  32.451   6.281   4.761
21860W        W93476  10.824   9.551  11.931
21861W        W93477  40.522  30.800   4.150
21862W        W93478  24.689  11.375  12.647
21863W        W93479   9.282  36.600   2.447
21864W        W93480  42.815  32.030  12.375
21865W        W93481   5.745  43.680  13.916
21866W        W93482  28.755  15.878   9.820
21867W        W93483  22.108  28.011   4.094
21868W        W93484  12.394  14.353   5.201
21869W        W93485  26.388  33.181  12.008
21870W        W93486  39.284  37.389   2.004
21871W        W93487  10.769  33.997   3.165
21872W        W93488  36.980  29.420   0.854
21873W        W93489  40.460   7.843   4.568
21874W        W93490  27.953  16.935   4.224
21875W        W93491  17.341  24.894  11.718
21876W        W93492  44.474   9.938  10.642
21877W        W93493  43.934  23.128   1.413
21878W        W93494  28.488  42.526  12.926
21879W        W93495  25.559  25.416  14.970
21880W        W93496  19.275   2.325  13.509
21881W        W93497  24.073   9.450  14.396
21882W        W93498  35.985  31.791   3.172
21883W        W93499  34.909  28.904  14.527
21884W        W93500  33.183  24.021   2.454
21885W        W93501   0.351  26.264  14.828
21886W        W93502   8.838  30.966   2.694
21887W        W93503  23.792  44.614  11.586
21888W        W93504   3.614  12.615  14.561
21889W        W93505  42.836  28.169   3.304
21890W        W93506  17.003  44.908  12.966
21891W        W93507   3.951  14.745  12.620
21892W        W93508  22.741   4.651   2.227
21893W        W93509  18.524  16.637  12.873
21894W        W93510   2.122   8.507  10.274
21895W        W93511  23.751  13.795   2.585
21896W        W93512   2.995  19.847  14.810
21897W        W93513   2.643  21.326  14.651
21898W        W93514  44.480   5.972   2.267
21899W        W93515  12.169   9.061  11.677
21900W        W93516  13.637  33.031  14.841
21901W        W93517   3.814  36.041  14.738
21902W        W93518  40.142  13.756   4.143
21903W        W93519  13.774  38.304   1.938
21904W        W93520  32.874  43.007  14.989
21905W        W93521  41.313   5.843   1.863
21906W        W93522  25.989  22.578   4.675
21907W        W93523  26.043  28.478  11.696
21908W        W93524  27.171   5.342   3.377
21909W        W93525  31.583  13.259   0.732
21910W        W93526  16.101  40.451   1.392
21911W        W93527  33.931  27.397   4.501
21912W        W93528  36.426  41.574   1.488
21913W        W93529  25.196   6.608  10.743
21914W        W93530  37.718  32.385   3.461
21915W        W93531  31.953   2.244  13.345
21916W        W93532   0.410  11.792   1.303
21917W        W93533  33.078  34.586   3.765
21918W        W93534  22.142  23.055  12.266
21919W        W93535  31.524  30.561  13.960
21920W        W93536   8.880   6.674   1.791
21921W        W93537  31.091  26.613  12.681
21922W        W93538  13.586  10.898   4.383
21923W        W93539  30.708  30.357   3.649
21924W        W93540  23.202  36.161  14.921
21925W        W93541  21.625  21.106  10.577
21926W        W93542   6.456  40.356  11.565
21927W        W93543  30.030  40.378   2.940
21928W        W93544  22.258   4.579   2.519
21929W        W93545   1.902  40.904  11.882
21930W        W93546  44.536   6.812  14.390
21931W        W93547  27.479  22.575   0.741
21932W        W93548  15.726  32.585  12.046
21933W        W93549  42.556  12.903  11.924
21934W        W93550  12.268  14.032  12.824
21935W        W93551   7.808  10.653   1.220
21936W        W93552   0.280   6.680   1.837
21937W        W93553  11.362  29.413   1.000
21938W        W93554  23.757  39.010  14.343
21939W        W93555  14.169  27.362   2.058
21940W        W93556  25.071  37.029  14.882
21941W        W93557  19.425  27.136  12.561
21942W        W93558  14.894   4.313   5.803
21943W        W93559  27.433  16.801  14.869
21944W        W93560  16.659  35.703   1.515
21945W        W93561  33.724  31.575  13.977
21946W        W93562  38.899   6.179  10.857
21947W        W93563  38.417  17.419  11.988
21948W        W93564   5.902  11.402   3.670
21949W        W93565  36.047  39.557   0.961
21950W        W93566  21.475  25.142   2.681
21951W        W93567  16.146  15.669  10.186
21952W        W93568  18.553  41.836   4.221
21953W        W93569  14.037   1.740  13.421
21954W        W93570  18.594  27.940   3.774
21955W        W93571  26.520  39.249  12.028
21956W        W93572   2.490   7.355  10.714
21957W        W93573  36.020   4.009  11.640
21958W        W93574  11.090  26.730   3.738
21959W        W93575  24.547  25.610  14.982
21960W        W93576   9.874  39.995  11.206
21961W        W93577  11.743   6.224  14.727
21962W        W93578  28.361  15.609   1.837
21963W        W93579  10.132  20.720  12.461
21964W        W93580  12.223  13.131   2.157
21965W        W93581  10.822  21.291  12.172
21966W        W93582  14.069  14.626   3.270
21967W        W93583  28.396  43.819   2.740
21968W        W93584  44.857   2.303  13.351
21969W        W93585  16.207   4.421   2.417
21970W        W93586  29.969   6.439   1.213
21971W        W93587  36.894  18.177  13.197
21972W        W93588   7.855  10.066  11.160
21973W        W93589  22.692  20.861   4.986
21974W        W93590   0.475  28.610   1.919
21975W        W93591  38.998   4.884  13.454
21976W        W93592  16.256  24.654  12.881
21977W        W93593  22.656   3.907   0.608
21978W        W93594  31.457  43.798   9.609
21979W        W93595   8.220  17.024   1.470
21980W        W93596  33.971  34.532   4.543
21981W        W93597  25.155  37.615   0.952
21982W        W93598  28.577  28.948   2.735
21983W        W93599  33.802  31.769   9.945
21984W        W93600  30.002   1.193   2.748
21985W        W93601  41.024   6.374   3.725
21986W        W93602  28.982  34.646  14.537
21987W        W93603  43.759   3.791  12.614
21988W        W93604   4.788  14.646   2.718
21989W        W93605  42.006  13.834   2.391
21990W        W93606   3.776  22.463  12.514
21991W        W93607   1.795  11.838   2.390
21992W        W93608  42.459  36.265  10.667
21993W        W93609  11.844  17.792  14.884
21994W        W93610  39.690  13.456  10.008
21995W        W93611  10.181  23.372  11.277
21996W        W93612  43.381  40.680  12.361
21997W        W93613  21.236  42.532  12.140
21998W        W93614  29.931   6.814  12.254
21999W        W93615   3.693  44.842   0.279
22000W        W93616  21.245  26.735   1.935
22001W        W93617  11.711  11.624   0.702
22002W        W93618  41.807  44.850  13.085
22003W        W93619  11.165  37.532   0.932
22004W        W93620  15.501  38.925  14.194
22005W        W93621  30.952   4.508   2.244
22006W        W93622  11.729   0.792   3.069
22007W        W93623  33.491  17.305   3.256
22008W        W93624  18.487  28.258  11.897
22009W        W93625   5.157   0.358  10.198
22010W        W93626  36.749   0.085  13.353
22011W        W93627  29.395  43.884   0.272
22012W        W93628  21.525   6.791   1.675
22013W        W93629   3.402  39.387   2.901
22014W        W93630   9.783   9.110  12.712
22015W        W93631  23.038  26.133  10.730
22016W        W93632  20.239  30.174  14.334
22017W        W93633  43.048  32.151   4.032
22018W        W93634   5.113   5.882   2.229
22019W        W93635   6.129  34.978   1.933
22020W        W93636  38.298  33.582  12.961
22021W        W93637  29.493  34.234  11.387
22022W        W93638  42.442  13.140   2.707
22023W        W93639  13.555  40.559   1.276
22024W        W93640  19.701  18.279  11.975
22025W        W93641  41.327  11.338   1.512
22026W        W93642  28.669  32.448   0.891
22027W        W93643  20.104  33.428  11.777
22028W        W93644  16.101  41.251   1.791
22029W        W93645  14.132  23.493   1.437
22030W        W93646  31.096  22.650  12.366
22031W        W93647   9.654  40.915  11.383
22032W        W93648  14.128  28.652   2.730
22033W        W93649  43.034  42.663   5.361
22034W        W93650  21.694  39.095   1.863
22035W        W93651  20.292  21.563   3.176
22036W        W93652  27.090  32.303  12.816
22037W        W93653  40.465  13.629  10.631
22038W        W93654  31.037  10.366  10.971
22039W        W93655  42.328   5.926  13.914
22040W        W93656  23.103  35.497   2.786
22041W        W93657  36.935  34.480   2.595
22042W        W93658  16.075  21.674  14.313
22043W        W93659   7.277  35.033   4.871
22044W        W93660   6.727  20.083   0.997
22045W        W93661  18.562  28.112   1.668
22046W        W93662  12.994  26.698  12.070
22047W        W93663   6.429   2.023  12.881
22048W        W93664  22.370  31.184   0.476
22049W        W93665  34.975  21.228  10.615
22050W        W93666   9.861   8.797   4.607
22051W        W93667  19.816  13.437  12.110
22052W        W93668  22.591  35.033   3.262
22053W        W93669   9.449  34.318   1.824
22054W        W93670  14.300  21.539   1.092
22055W        W93671  35.667  13.118   1.092
22056W        W93672  11.631  15.527   3.758
22057W        W93673  19.616  29.610  12.049
22058W        W93674  39.933   8.482   4.981
22059W        W93675  19.526   8.183   0.482
22060W        W93676  25.044  42.684  10.792
22061W        W93677   7.291  32.388  11.647
22062W        W93678   5.419  43.261   0.104
22063W        W93679  24.150  11.871   1.335
22064W        W93680  18.401  15.234  10.566
22065W        W93681  19.992  44.762   2.607
22066W        W93682  20.083  27.303   4.635
22067W        W93683   4.321  26.879  12.347
22068W        W93684  13.862   7.294  13.511
22069W        W93685  28.103  37.074  14.788
22070W        W93686   0.240  27.717   1.046
22071W        W93687  18.317  11.220  11.228
22072W        W93688  13.162  36.811   4.669
22073W        W93689  29.101   9.193  12.016
22074W        W93690   2.374  10.296   2.499
22075W        W93691  14.059  14.171   1.627
22076W        W93692  18.553  41.957  10.696
22077W        W93693  28.914  28.532  10.282
22078W        W93694  10.562  13.757  12.536
22079W        W93695  15.284  16.599   4.115
22080W        W93696  36.089  10.637   1.958
22081W        W93697  21.512  35.834   2.376
22082W        W93698  40.646  20.868  14.749
22083W        W93699   7.901  37.558   1.289
22084W        W93700   8.422  17.263   0.088
22085W        W93701  35.123  14.714   3.791
22086W        W93702   8.730  14.227  11.540
22087W        W93703  23.720  13.888  12.560
22088W        W93704  11.291   8.398   4.655
22089W        W93705  36.293   1.859   4.373
22090W        W93706  43.988   0.059  11.557
22091W        W93707  14.213  23.627  11.476
22092W        W93708  36.262  35.315   4.047
22093W        W93709   2.301  12.698   9.648
22094W        W93710  20.007  20.793  10.625
22095W        W93711   5.455  16.634   1.341
22096W        W93712   7.104  31.461  14.270
22097W        W93713  41.929  34.029   2.758
22098W        W93714  18.033  10.281   2.213
22099W        W93715   8.879   7.859  10.699
22100W        W93716  27.430  34.118  14.442
22101W        W93717  10.739   9.693  14.960
22102W        W93718  25.547  22.005  14.949
22103W        W93719  38.083  38.602   3.328
22104W        W93720  21.711  32.699   0.031
22105W        W93721  39.462  41.895  10.862
22106W        W93722  13.830  38.315  13.116
22107W        W93723  34.291   8.809   2.993
22108W        W93724  38.176   2.015   0.445
22109W        W93725  24.163  31.205  13.079
22110W        W93726  11.833  36.404   1.296
22111W        W93727  11.064  39.419   2.825
22112W        W93728   2.450  29.507   1.277
22113W        W93729  38.309  20.283  10.750
22114W        W93730   6.977  11.783   1.138
22115W        W93731  43.624  25.268  10.589
22116W        W93732  25.441  10.849   1.322
22117W        W93733  13.579   4.207   5.393
22118W        W93734   0.469  38.479  10.940
22119W        W93735  32.360  30.419   1.440
22120W        W93736   8.821  41.347  12.373
22121W        W93737  20.221  38.632   3.370
22122W        W93738  15.650   3.157   5.412
22123W        W93739  42.693   6.135  12.055
22124W        W93740   4.361  39.142  14.461
22125W        W93741  19.759   2.433   4.613
22126W        W93742  35.930  21.398  11.508
22127W        W93743  40.026   2.191   0.297
22128W        W93744  24.148  19.801   2.454
22129W        W93745  18.792  13.743  14.845
22130W        W93746   2.680   1.851   3.436
22131W        W93747  32.585  23.166  13.464
22132W        W93748   4.582   0.822   3.405
22133W        W93749  43.932  40.489   2.083
22134W        W93750  34.840   5.741   2.688
22135W        W93751  40.700  18.965   4.891
22136W        W93752   0.243  17.275   2.890
22137W        W93753  20.241   3.071  10.686
22138W        W93754  37.334   3.320   0.493
22139W        W93755  31.118   8.454  12.871
22140W        W93756   5.964  14.977   2.243
22141W        W93757  11.433   6.958   4.181
22142W        W93758  24.884  26.030  13.532
22143W        W93759  17.236  34.891  10.716
22144W        W93760   5.199  11.394   1.858
22145W        W93761   2.658   8.156  13.008
22146W        W93762  36.077  32.523   4.109
22147W        W93763  22.494   3.726  10.348
22148W        W93764  36.902  26.518   3.633
22149W        W93765  22.576   5.683   2.363
22150W        W93766   9.218  27.679   0.480
22151W        W93767  23.252  26.025   1.066
22152W        W93768  40.063  16.809  13.515
22153W        W93769   7.903  29.184   4.051
22154W        W93770   3.438  19.768   1.655
22155W        W93771  11.227  15.404   1.454
22156W        W93772  11.479  35.148   2.638
22157W        W93773  12.865  22.077  14.341
22158W        W93774  27.221  19.462   3.431
22159W        W93775  35.542  23.284  14.540
22160W        W93776  22.858   7.809  10.124
22161W        W93777  42.302  11.516  11.201
22162W        W93778  39.215  43.124   1.143
22163W        W93779  16.679  11.799  10.802
22164W        W93780  16.824   6.911  12.137
22165W        W93781   0.946  28.723   2.635
22166W        W93782  23.081   2.871  11.567
22167W        W93783   2.382   1.413   3.044
22168W        W93784  40.780  25.802  13.751
22169W        W93785  21.724   5.468   2.807
22170W        W93786   8.679   3.660  10.684
22171W        W93787  27.240  16.085   3.631
22172W        W93788  36.444  42.384  14.996
22173W        W93789   7.548   0.098  11.105
22174W        W93790  32.691   7.324   4.694
22175W        W93791  39.762   6.330  14.927
22176W        W93792  31.147  42.353  11.622
22177W        W93793  32.144   2.427  14.374
22178W        W93794   3.275  25.401   1.760
22179W        W93795  31.136  26.552   1.998
22180W        W93796  26.646  14.283   3.788
22181W        W93797   7.165  42.266  12.024
22182W        W93798  27.711   3.756  13.927
22183W        W93799  19.740  22.630   2.715
22184W        W93800  30.373   1.856   4.040
22185W        W93801  27.898  31.533   0.387
22186W        W93802   7.085  24.751   0.388
22187W        W93803  33.088  17.845  14.395
22188W        W93804  20.021  31.674  12.138
22189W        W93805  14.218  30.203  14.853
22190W        W93806  27.898  27.151   4.539
22191W        W93807  36.864  17.663   0.449
22192W        W93808   0.557   4.817   1.396
22193W        W93809   1.369  30.199   1.839
22194W        W93810   4.717  18.594  11.138
22195W        W93811  15.606  39.536   2.275
22196W        W93812  20.392  30.108   5.003
22197W        W93813  43.242   0.450  12.037
22198W        W93814  44.035  34.930   9.852
22199W        W93815  43.285  34.561   2.659
22200W        W93816   0.059  10.201   1.575
22201W        W93817  34.321  20.696   0.941
22202W        W93818  19.875  15.605   1.619
22203W        W93819   2.698  12.687   2.675
22204W        W93820  11.891   0.225  10.882
22205W        W93821  36.563  20.924  12.250
22206W        W93822  43.119  10.308   1.807
22207W        W93823   1.556  34.518  13.587
22208W        W93824  41.891  41.927   3.109
22209W        W93825  22.652  42.796   2.827
22210W        W93826   0.425  18.741   0.749
22211W        W93827  43.052   6.107   2.175
22212W        W93828  27.033  31.347   1.982
22213W        W93829  20.820  30.671  13.793
22214W        W93830  22.781  33.373  13.753
22215W        W93831  25.687  42.073  10.900
22216W        W93832  11.815  43.652   1.287
22217W        W93833  10.765   3.264  13.297
22218W        W93834  12.830  35.113   4.503
22219W        W93835  23.120  10.822   3.347
22220W        W93836  10.724   8.008   4.272
22221W        W93837  22.830  26.682  12.337
22222W        W93838  41.780  15.152  13.681
22223W        W93839  22.917  11.884  10.758
22224W        W93840  25.968  30.133   2.931
22225W        W93841  19.294  42.384   4.201
22226W        W93842  17.131   3.215  13.345
22227W        W93843   9.935  34.725  12.593
22228W        W93844  14.179  31.560  13.467
22229W        W93845  15.569  26.170   4.389
22230W        W93846  23.754  27.094  11.506
22231W        W93847  12.241   3.702   5.038
22232W        W93848  26.602  25.632  14.929
22233W        W93849   9.384  11.644   1.259
22234W        W93850  41.027  23.464  12.997
22235W        W93851  19.115  18.288  13.769
22236W        W93852   6.284  35.622  13.513
22237W        W93853  35.829  26.747   1.748
22238W        W93854  23.074  30.517  14.377
22239W        W93855  40.499   3.023  12.171
22240W        W93856   7.531  38.781   3.117
22241W        W93857   6.640  16.260  14.081
22242W        W93858  36.125  28.058   2.259
22243W        W93859   6.266   0.550  12.786
22244W        W93860  29.091  23.910  13.750
22245W        W93861  13.609  32.343   2.642
22246W        W93862  35.085  13.651  12.383
22247W        W93863  27.816  26.729  11.117
22248W        W93864  17.591  30.202   3.269
22249W        W93865  31.075  22.963   3.080
22250W        W93866  17.621  34.608   0.797
22251W        W93867  13.209  37.945   4.630
22252W        W93868  23.763  11.604   4.431
22253W        W93869  40.399  26.124  10.603
22254W        W93870  41.398  22.527  11.209
22255W        W93871  21.637  20.386  12.662
22256W        W93872  38.911  44.136   4.579
22257W        W93873   3.796  41.570   4.621
22258W        W93874  30.284  42.040   0.112
22259W        W93875   6.429  30.118  11.053
22260W        W93876  12.270  13.510  11.561
22261W        W93877  24.632  40.507  13.349
22262W        W93878  27.927   1.603  12.388
22263W        W93879  41.852  18.873   3.378
22264W        W93880  26.634  39.198   2.832
22265W        W93881   8.935  36.903   4.664
22266W        W93882   2.776  26.593   3.495
22267W        W93883  32.401  34.476   1.427
22268W        W93884   6.689  24.693   3.348
22269W        W93885  38.884  37.051   4.541
22270W        W93886   9.782   4.353   2.363
22271W        W93887  33.448  21.002  12.975
22272W        W93888   4.830  33.309   1.889
22273W        W93889  16.917  30.717   0.217
22274W        W93890  43.672   1.002   3.434
22275W        W93891  27.047  10.680   2.268
22276W        W93892  43.961  20.669  13.812
22277W        W93893  28.629  38.040   2.967
22278W        W93894   1.773  10.699  10.799
22279W        W93895  35.593  39.993   4.391
22280W        W93896  12.208  39.019   4.609
22281W        W93897  39.383  15.615  14.597
22282W        W93898  24.947  36.776  13.902
22283W        W93899  32.495  34.563   1.947
22284W        W93900  36.040   0.546  14.001
22285W        W93901  43.521  35.168  13.008
22286W        W93902  37.885  28.477   2.227
22287W        W93903  14.925  13.219   2.342
22288W        W93904   0.034  24.450   2.764
22289W        W93905  42.946   0.260  12.431
22290W        W93906   7.964   7.978   3.317
22291W        W93907  31.183  11.107   2.363
22292W        W93908   8.816  28.922   3.735
22293W        W93909   5.740  12.697   4.880
22294W        W93910   2.746  34.464   3.477
22295W        W93911  16.705  19.584   5.295
22296W        W93912  17.722  44.235  14.757
22297W        W93913  29.129  43.707  14.016
22298W        W93914  10.163  17.157   2.696
22299W        W93915   5.759  33.595  13.470
22300W        W93916  35.582  31.471   4.656
22301W        W93917  38.775   7.648   1.657
22302W        W93918  28.575  14.592  13.871
22303W        W93919   4.440  44.266   0.304
22304W        W93920  35.479  16.282  14.470
22305W        W93921  20.497  35.206   0.854
22306W        W93922  17.238  17.743  13.301
22307W        W93923  28.014   4.207   3.248
22308W        W93924  28.430   3.325  13.705
22309W        W93925  41.419   1.424  12.536
22310W        W93926  24.461   5.384  13.365
22311W        W93927  18.767  44.467   4.675
22312W        W93928   0.796   4.950  13.934
22313W        W93929   3.178   4.488  12.035
22314W        W93930  24.197  40.111   2.255
22315W        W93931  44.727  43.141  14.716
22316W        W93932  33.340  35.068  11.068
22317W        W93933   6.499  16.521  11.124
22318W        W93934  42.277  15.045  11.929
22319W        W93935  11.179  28.859   3.347
22320W        W93936  18.083  43.759  13.088
22321W        W93937  16.568  32.142  13.880
22322W        W93938  35.512  12.403  11.814
22323W        W93939   6.440  43.799  13.046
22324W        W93940  36.267  17.776   1.934
22325W        W93941   2.279   8.235   4.120
22326W        W93942  34.993   7.915   2.262
22327W        W93943  25.232  42.317   4.988
22328W        W93944  15.677   8.518   1.937
22329W        W93945  36.148  44.818  12.973
22330W        W93946  26.962   3.346  12.137
22331W        W93947   3.398   0.812   2.227
22332W        W93948  25.459   6.640  12.049
22333W        W93949  17.233   5.930   1.015
22334W        W93950  30.919  30.415  12.189
22335W        W93951   8.387  24.204   4.732
22336W        W93952  33.867  39.874  14.359
22337W        W93953  30.229  27.194   1.780
22338W        W93954  31.046  30.401   4.572
22339W        W93955  16.343  27.623  14.616
22340W        W93956  13.321  14.089  13.965
22341W        W93957   4.992  23.118   0.980
22342W        W93958   3.209   8.647  11.527
22343W        W93959  33.567  41.767   4.197
22344W        W93960  43.701  14.703   3.178
22345W        W93961  35.457  20.546  12.427
22346W        W93962  13.472  13.526   0.844
22347W        W93963  27.475   6.236  14.413
22348W        W93964  12.643  40.392   2.223
22349W        W93965  22.016  16.794   2.197
22350W        W93966   9.890  11.282   2.596
22351W        W93967  42.336   5.298   4.485
22352W        W93968  23.716   3.761  12.092
22353W        W93969  32.459  28.930  11.961
22354W        W93970  23.772  16.759  11.172
22355W        W93971  13.760  27.523   4.620
22356W        W93972   2.191  34.468   1.742
22357W        W93973   1.966  35.019  12.380
22358W        W93974   4.810  14.616  12.245
22359W        W93975   4.074  19.640  11.640
22360W        W93976  25.559   3.355   1.862
22361W        W93977   7.823  25.303   3.810
22362W        W93978   9.657  36.066  11.542
22363W        W93979  21.661  44.315  10.687
22364W        W93980  22.696  26.710  12.867
22365W        W93981  40.420  14.314   3.528
22366W        W93982  37.821   2.238  13.738
22367W        W93983  39.699  28.175  11.252
22368W        W93984  44.912   7.673  11.585
22369W        W93985  15.200  43.916   4.352
22370W        W93986   4.910  22.618  14.615
22371W        W93987   1.735   4.065  11.265
22372W        W93988  33.210  41.883  13.301
22373W        W93989  19.337  29.653  10.868
22374W        W93990   9.195  28.887  13.537
22375W        W93991  17.338  32.921   4.055
22376W        W93992  24.560  17.686  11.399
22377W        W93993  24.591  24.240   3.210
22378W        W93994  30.190  40.341  12.810
22379W        W93995  23.121  17.393   4.192
22380W        W93996  44.120  34.096   2.019
22381W        W93997  36.869  39.214  12.469
22382W        W93998  18.154  22.164   3.168
22383W        W93999  21.613  43.552   0.244
22384W        W94000  34.350  42.840   4.551
22385W        W94001  24.189  23.364  13.588
22386W        W94002  16.813  40.074  13.888
22387W        W94003  11.695  31.464  13.368
22388W        W94004  43.314   7.700   4.896
22389W        W94005  37.559  39.543   0.322
22390W        W94006  16.247  11.680  12.951
22391W        W94007  32.799  24.742   2.699
22392W        W94008  36.609  19.240   2.485
22393W        W94009  11.324  29.208  11.710
22394W        W94010  42.987  11.937  13.462
22395W        W94011  18.097  21.246   4.870
22396W        W94012  25.901  25.595  12.174
22397W        W94013  34.449  13.129  13.247
22398W        W94014   6.441   9.823  13.041
22399W        W94015  34.639  43.595  13.866
22400W        W94016  16.330  17.088  12.491
22401W        W94017  40.293   1.450   3.813
22402W        W94018  13.255  30.080   2.910
22403W        W94019  30.239   2.820  12.074
22404W        W94020  28.151  36.445  12.002
22405W        W94021  29.661  35.438   4.695
22406W        W94022  31.597   2.404  12.535
22407W        W94023  18.422  18.574   1.571
22408W        W94024  37.494  33.840   0.805
22409W        W94025  24.734  19.080   1.703
22410W        W94026   6.436  38.778   2.257
22411W        W94027  14.743   8.647   1.741
22412W        W94028   0.222   4.918   0.461
22413W        W94029  29.394  27.654   4.693
22414W        W94030  22.787   2.906   0.837
22415W        W94031   4.029   6.129  12.496
22416W        W94032  20.818  28.132  13.027
22417W        W94033  34.914  25.546  13.318
22418W        W94034  38.260  41.545   1.348
22419W        W94035   9.802  33.976   3.534
22420W        W94036  30.937  27.947   5.033
22421W        W94037  18.836  32.488  11.075
22422W        W94038   5.318  42.425  12.084
22423W        W94039   9.662  13.565   3.852
22424W        W94040  36.826   7.822   3.765
22425W        W94041  12.387   8.188  12.631
22426W        W94042  17.065  31.089  11.579
22427W        W94043  31.724  10.334   0.628
22428W        W94044   4.723  20.059  13.288
22429W        W94045   4.264   9.698  10.894
22430W        W94046   1.095   5.403   4.244
22431W        W94047  13.322   1.651   2.218
22432W        W94048  34.628  37.407  14.348
22433W        W94049   8.107  20.673  14.707
22434W        W94050  12.259  40.773   4.697
22435W        W94051   7.626  22.002  14.514
22436W        W94052  16.113  39.525   2.231
22437W        W94053  12.843  39.520  13.570
22438W        W94054  36.317  19.038  14.437
22439W        W94055  28.669  26.203   0.341
22440W        W94056  15.306  29.104   2.339
22441W        W94057  43.005  29.246  11.111
22442W        W94058  26.048  38.740   2.593
22443W        W94059  34.144  38.323   2.707
22444W        W94060  30.320  21.703  10.707
22445W        W94061  21.193  38.601   9.948
22446W        W94062  41.754  25.692   4.604
22447W        W94063  23.574  33.404   4.135
22448W        W94064  19.539   1.800   3.247
22449W        W94065  33.124  15.545  11.092
22450W        W94066  37.288  12.875  12.494
22451W        W94067  33.804  41.135  14.432
22452W        W94068  37.928  33.057   4.613
22453W        W94069  41.415  16.233   3.674
22454W        W94070  39.954  25.682   1.305
22455W        W94071  17.681   5.624   4.688
22456W        W94072   1.289   9.196   3.703
22457W        W94073   1.909  24.287  14.889
22458W        W94074  22.224  34.187  12.070
22459W        W94075  34.571   8.697  14.581
22460W        W94076  25.124  35.422   2.422
22461W        W94077  22.998  23.967  13.702
22462W        W94078  23.609  24.861  12.464
22463W        W94079  37.686  30.468   0.315
22464W        W94080  38.508   5.784   3.985
22465W        W94081  10.648   4.921  11.836
22466W        W94082  36.897  33.065  14.767
22467W        W94083  26.003  10.625   0.445
22468W        W94084  36.327  32.861  14.057
22469W        W94085  28.710   8.457  10.721
22470W        W94086  11.158  23.172  11.113
22471W        W94087  18.137  40.094  10.731
22472W        W94088  11.456  26.684   4.655
22473W        W94089  34.054  17.178  12.430
22474W        W94090  27.926  14.352  11.194
22475W        W94091  38.000  23.458   5.045
22476W        W94092  11.358  20.814   2.751
22477W        W94093  17.342   0.461  12.380
22478W        W94094  16.348   3.352   2.968
22479W        W94095   6.428  43.768   3.246
22480W        W94096  18.107   1.757  12.108
22481W        W94097  34.684  34.490   2.895
22482W        W94098  33.534   7.336  13.794
22483W        W94099  16.810  23.480  11.591
22484W        W94100  31.006   8.941   1.208
22485W        W94101  25.241  39.851  13.007
22486W        W94102  36.908  34.166  14.797
22487W        W94103  11.242  33.541  13.761
22488W        W94104  28.392  44.502   1.686
22489W        W94105  34.603  43.945  11.617
22490W        W94106  36.070  34.160   2.714
22491W        W94107  26.294  12.935  14.452
22492W        W94108   5.284  25.508  14.254
22493W        W94109  28.970  19.353  13.684
22494W        W94110  43.865  33.747  11.941
22495W        W94111  41.625  36.568   2.809
22496W        W94112  12.582  17.733   3.212
22497W        W94113   1.742   4.029   3.693
22498W        W94114  23.277  28.834  12.445
22499W        W94115  26.765  12.122  11.125
22500W        W94116  32.105  36.827   3.934
22501W        W94117   6.305  37.491  12.915
22502W        W94118  25.108  16.410  11.148
22503W        W94119  23.121  24.702  12.515
22504W        W94120  20.641  18.580  13.321
22505W        W94121  25.660  44.827  11.357
22506W        W94122  40.689  30.581   2.738
22507W        W94123  12.218  32.989  12.456
22508W        W94124  27.572  29.191  11.564
22509W        W94125  10.363  44.979   1.294
22510W        W94126   9.309   6.877  10.694
22511W        W94127  44.717  10.237   1.159
22512W        W94128  39.976   5.517   3.647
22513W        W94129   9.756  14.540   4.200
22514W        W94130   9.952  24.032   3.218
22515W        W94131  36.345  31.096  10.744
22516W        W94132  43.304  31.407  13.323
22517W        W94133  25.887  37.417  11.230
22518W        W94134  33.020  18.326   3.607
22519W        W94135  44.049  19.321  13.343
22520W        W94136   3.675   7.204   2.305
22521W        W94137   4.586  35.412  13.070
22522W        W94138  23.087  43.970   2.742
22523W        W94139  36.397  43.359  12.012
22524W        W94140  15.582  34.052  14.694
22525W        W94141   1.560  31.518  14.500
22526W        W94142  10.059  30.178  13.879
22527W        W94143   0.527  28.170   3.435
22528W        W94144   0.711  43.534  12.169
22529W        W94145   9.118  42.874  13.412
22530W        W94146  27.094   4.451   4.528
22531W        W94147  17.889  43.795  10.979
22532W        W94148  31.120  24.588   2.891
22533W        W94149  40.001   2.656   2.175
22534W        W94150  19.323  22.595   1.907
22535W        W94151  36.995   8.380   0.742
22536W        W94152  22.908  12.615  14.047
22537W        W94153  29.004  12.569  13.874
22538W        W94154  22.977  34.439   1.723
22539W        W94155  44.489  44.212  13.950
22540W        W94156  21.776  15.289   2.861
22541W        W94157  38.438  38.992  11.228
22542W        W94158  38.542   1.794   3.884
22543W        W94159  12.770  37.995  11.464
22544W        W94160   7.823   7.265  12.487
22545W        W94161  36.403  13.154   4.291
22546W        W94162  33.073   8.316   4.518
22547W        W94163  41.541  12.353  11.950
22548W        W94164  26.206  28.466  13.501
22549W        W94165  10.107  34.628   4.232
22550W        W94166  32.714  26.642  14.368
22551W        W94167   0.935  12.149   4.068
22552W        W94168  11.608  30.617   0.263
22553W        W94169  28.040   0.917   0.541
22554W        W94170  22.561   2.195  11.253
22555W        W94171   9.868  19.253  14.213
22556W        W94172  29.146  12.274  10.500
22557W        W94173  43.023  21.465  12.086
22558W        W94174   1.354  28.673   4.607
22559W        W94175  25.076  13.411   3.349
22560W        W94176   5.253  31.982   1.846
22561W        W94177  26.626  39.017  11.577
22562W        W94178  38.173  44.185   2.866
22563W        W94179  32.935  21.234  13.062
22564W        W94180  17.631  24.063  14.455
22565W        W94181   0.985  12.700  13.978
22566W        W94182  25.657  15.251  10.586
22567W        W94183  40.492   0.079  14.219
22568W        W94184  29.804  28.342   3.658
22569W        W94185  21.202  32.715  12.133
22570W        W94186  13.269  37.723   0.232
22571W        W94187  30.496   5.294   2.485
22572W        W94188  33.244   5.289  11.323
22573W        W94189  26.475  15.804  12.960
22574W        W94190  30.858  31.871  11.901
22575W        W94191  21.174  30.966  11.849
22576W        W94192  23.191  36.561  14.602
22577W        W94193  22.763  32.238   5.131
22578W        W94194  10.227  36.816  10.677
22579W        W94195  34.579   9.231   1.343
22580W        W94196   7.396   5.205   2.765
22581W        W94197  33.245  22.688   4.720
22582W        W94198  44.805  41.503  10.823
22583W        W94199  28.536   4.305  14.839
22584W        W94200  27.889  39.322  11.647
22585W        W94201  38.526   5.427   0.447
22586W        W94202  39.655  28.919  10.543
22587W        W94203  39.433  12.789   3.317
22588W        W94204  10.772  10.853   2.840
22589W        W94205   2.717  19.654   3.001
22590W        W94206  38.633   3.997   3.186
22591W        W94207   5.843  18.599   0.002
22592W        W94208  36.017  36.036   2.840
22593W        W94209  38.068  20.189  11.221
22594W        W94210  30.253  44.481   5.013
22595W        W94211  15.910   8.292  12.482
22596W        W94212  12.910  29.227  14.668
22597W        W94213  39.917  35.831   0.794
22598W        W94214  42.897  41.323   0.933
22599W        W94215  34.961  32.019  12.024
22600W        W94216  32.203   2.350  11.233
22601W        W94217  21.603   9.559   2.820
22602W        W94218  16.071   7.831  14.828
22603W        W94219   1.876  25.238  10.853
22604W        W94220  21.489   8.231  14.064
22605W        W94221  30.932  37.939  10.453
22606W        W94222   0.763  16.803  10.778
22607W        W94223  26.297  19.661   3.746
22608W        W94224  25.964   9.318   1.113
22609W        W94225  32.592  36.107   2.643
22610W        W94226   0.769  31.984   0.541
22611W        W94227  29.099  21.773   2.303
22612W        W94228  23.810   5.223   2.662
22613W        W94229  10.016   8.395  11.999
22614W        W94230  29.996  22.300   4.195
22615W        W94231  19.318  15.288   3.773
22616W        W94232  33.507  19.683   1.730
22617W        W94233  37.313   5.039   1.695
22618W        W94234  23.397  29.746   0.334
22619W        W94235  28.022  18.317   4.627
22620W        W94236  29.386  37.028   1.838
22621W        W94237   2.814   1.333   1.013
22622W        W94238  32.347  34.672   5.096
22623W        W94239  17.693  39.812   3.894
22624W        W94240   4.232  10.733  12.531
22625W        W94241  28.163   3.559  12.129
22626W        W94242  36.134   9.678  14.851
22627W        W94243   2.151   8.166  13.084
22628W        W94244   6.916   2.178   0.657
22629W        W94245  36.177  37.842  12.033
22630W        W94246  28.668  35.030   3.657
22631W        W94247  23.280  41.741  11.488
22632W        W94248  27.234  29.928   4.823
22633W        W94249   0.467  35.510  14.994
22634W        W94250   9.721  13.276   0.877
22635W        W94251   2.804  32.507  12.160
22636W        W94252  34.968  28.824   4.751
22637W        W94253  26.502  21.055  14.232
22638W        W94254   4.973  19.037   1.307
22639W        W94255   7.207  12.790  14.737
22640W        W94256  13.290  12.680   3.832
22641W        W94257  10.528   5.184   2.285
22642W        W94258  17.247   0.015   9.820
22643W        W94259  16.480  43.883   3.225
22644W        W94260  40.412  26.328  11.077
22645W        W94261  25.129  33.580   3.757
22646W        W94262  19.521  42.865   3.303
22647W        W94263   4.909  26.918   4.036
22648W        W94264  13.187   2.936   2.735
22649W        W94265  15.515   0.901  13.401
22650W        W94266  40.504   3.615  14.131
22651W        W94267   8.082  41.032   3.119
22652W        W94268  23.610  10.102   0.751
22653W        W94269  40.665  31.352  12.407
22654W        W94270   9.286  35.697   2.234
22655W        W94271  11.246  44.910  11.503
22656W        W94272   6.461  37.509  14.487
22657W        W94273  17.043  44.310  13.972
22658W        W94274  39.607  33.897  14.511
22659W        W94275  23.576  35.453  12.270
22660W        W94276  43.237  18.659   0.847
22661W        W94277  20.588  21.077  13.363
22662W        W94278  15.416  31.015   1.535
22663W        W94279  36.462  35.866  12.920
22664W        W94280  13.153  44.219  10.430
22665W        W94281  13.395  11.398   1.153
22666W        W94282  10.934  15.603   3.191
22667W        W94283  19.680  34.086   0.251
22668W        W94284  26.921  35.547  10.529
22669W        W94285  10.722  29.845  13.986
22670W        W94286  18.115   6.223   3.357
22671W        W94287  43.087  34.883   4.018
22672W        W94288   9.682  16.268  10.898
22673W        W94289  35.834  28.780  12.062
22674W        W94290  24.634   0.396   4.908
22675W        W94291  25.290  15.610  10.531
22676W        W94292  33.163  19.225   3.804
22677W        W94293  14.137  30.246  12.923
22678W        W94294   6.720  21.739   0.832
22679W        W94295  11.629   4.025   2.291
22680W        W94296  16.145  34.366  11.126
22681W        W94297  27.525   1.538   0.943
22682W        W94298   9.242   9.800  13.826
22683W        W94299  32.454   5.723   2.325
22684W        W94300  37.112   3.921  12.047
22685W        W94301  29.673  34.848  12.459
22686W        W94302  13.034  16.222   2.841
22687W        W94303  21.004  12.089  13.975
22688W        W94304  36.201   8.909  14.179
22689W        W94305  30.994  11.232   4.067
22690W        W94306  13.615  12.317  11.766
22691W        W94307  10.964  36.106   2.135
22692W        W94308  18.901  17.972  10.514
22693W        W94309  23.953  41.232   4.590
22694W        W94310  42.894  39.091   2.079
22695W        W94311  20.292  19.212   3.807
22696W        W94312  25.452  34.023  11.307
22697W        W94313  42.509  41.009   2.271
22698W        W94314  36.576  13.252   3.613
22699W        W94315   0.585  27.196  11.507
22700W        W94316  37.624  21.509  12.952
22701W        W94317  23.101   2.175  13.609
22702W        W94318   7.441  44.948  12.898
22703W        W94319  27.517  21.620  13.227
22704W        W94320   7.054  33.960  12.416
22705W        W94321  35.592  40.881  12.596
22706W        W94322  20.812  10.883  14.382
22707W        W94323  20.278  29.716   3.193
22708W        W94324  17.073  13.797  10.719
22709W        W94325   0.801   9.274   1.823
22710W        W94326  26.089  36.991   3.878
22711W        W94327   5.393   8.146   1.313
22712W        W94328  37.084   5.490  14.889
22713W        W94329  44.807  18.700   2.123
22714W        W94330   7.751  15.578   2.685
22715W        W94331  21.662   3.866   0.104
22716W        W94332  37.125  43.873  10.546
22717W        W94333  23.020   6.405  11.071
22718W        W94334  35.370   6.419   1.713
22719W        W94335  32.981  37.696   3.255
22720W        W94336  21.502  28.865  11.099
22721W        W94337  17.597  37.751   3.749
22722W        W94338   9.893  30.500  11.004
22723W        W94339  29.152   4.770   3.192
22724W        W94340  20.708   5.806  14.992
22725W        W94341  12.299   4.217   3.247
22726W        W94342  36.499  32.644   3.850
22727W        W94343  31.529  38.549  10.964
22728W        W94344  43.378  41.742  13.030
22729W        W94345  15.136  17.232   5.019
22730W        W94346  14.164  36.746  13.861
22731W        W94347  17.596  18.716  10.641
22732W        W94348  11.730   9.797   0.337
22733W        W94349  16.299  27.225  11.716
22734W        W94350  28.706  37.523  10.191
22735W        W94351   3.902   7.698   0.909
22736W        W94352  32.715  22.588   4.694
22737W        W94353  23.486  34.440   1.400
22738W        W94354  25.117  11.839   2.356
22739W        W94355  15.149  21.466   0.670
22740W        W94356   4.278  43.390   2.724
22741W        W94357   5.363  26.498   1.848
22742W        W94358   5.247  14.137   3.225
22743W        W94359  22.851  44.161   1.896
22744W        W94360  37.989  16.270   1.774
22745W        W94361  22.340   6.641   4.115
22746W        W94362  21.265  27.883   2.774
22747W        W94363  12.057  26.223  12.568
22748W        W94364  35.767  28.551  13.960
22749W        W94365  44.367   4.031  11.987
22750W        W94366  11.791  42.971   1.822
22751W        W94367  15.857  40.599  11.561
22752W        W94368  28.636  12.621  14.915
22753W        W94369  20.031  20.777  12.422
22754W        W94370  15.770   1.888  13.068
22755W        W94371  25.027   5.268  13.586
22756W        W94372  32.136   0.212  14.253
22757W        W94373  11.496  33.852   2.592
22758W        W94374  10.766  23.577  13.523
22759W        W94375  11.228  23.621  11.310
22760W        W94376  33.111  23.884  11.618
22761W        W94377  39.576  13.589  12.440
22762W        W94378   9.890  11.301   1.703
22763W        W94379  39.624  40.062  11.151
22764W        W94380   7.112  33.944   0.745
22765W        W94381   8.886  32.424   0.779
22766W        W94382  25.843  22.539   1.990
22767W        W94383   7.597  12.371   2.236
22768W        W94384  34.125   6.143   0.479
22769W        W94385  20.135  40.573   3.850
22770W        W94386   1.310   6.358   3.283
22771W        W94387  38.175  16.551  13.171
22772W        W94388  42.292  32.006  11.601
22773W        W94389  22.563   7.551   1.025
22774W        W94390  14.253  19.230  11.970
22775W        W94391  33.468  27.478  14.321
22776W        W94392  28.126  29.649   3.930
22777W        W94393   4.547  30.130  13.409
22778W        W94394  34.060   3.918   1.430
22779W        W94395  10.738  10.814   1.798
22780W        W94396  44.725  28.533   1.207
22781W        W94397   4.139  44.979  12.366
22782W        W94398  36.382  31.964  10.703
22783W        W94399  36.096  36.026  11.978
22784W        W94400  40.693  44.909   0.243
22785W        W94401  37.387  18.033  13.023
22786W        W94402  29.907   5.642  13.294
22787W        W94403   2.624  41.511  12.196
22788W        W94404  39.845  15.702  10.906
22789W        W94405  24.453  20.790  12.090
22790W        W94406   9.877  20.372  12.071
22791W        W94407  27.159  18.174  11.869
22792W        W94408  39.479  39.931  13.302
22793W        W94409  13.178  41.425   2.865
22794W        W94410  41.589  27.933   2.774
22795W        W94411  25.926   3.007   2.071
22796W        W94412  33.733  15.826  12.011
22797W        W94413  15.214  41.472  11.713
22798W        W94414   4.424  26.041   2.277
22799W        W94415  31.311   8.014   2.676
22800W        W94416  40.283  24.728  14.874
22801W        W94417  36.321  34.412  13.366
22802W        W94418  42.244  23.054  10.876
22803W        W94419  16.317  35.603  13.011
22804W        W94420  26.515  42.061   2.405
22805W        W94421  28.920   4.237   4.162
22806W        W94422  16.757  29.406   3.258
22807W        W94423  10.369  13.915   3.795
22808W        W94424   4.837  28.265   4.129
22809W        W94425  36.292  13.732   4.901
22810W        W94426  32.491   5.136   4.885
22811W        W94427  15.301  32.876  11.916
22812W        W94428  24.164  42.556  13.370
22813W        W94429  19.869   2.048   4.948
22814W        W94430  40.780  12.224   2.748
22815W        W94431  34.288  24.950   2.995
22816W        W94432  17.003   3.473   2.422
22817W        W94433  34.354  24.138  11.925
22818W        W94434  19.333  16.672  11.199
22819W        W94435  13.308  44.882   4.455
22820W        W94436  29.264  37.889   4.674
22821W        W94437  40.300  42.520  14.048
22822W        W94438   3.986  43.433  10.327
22823W        W94439  25.896  21.151  10.582
22824W        W94440   8.137  25.482   3.236
22825W        W94441  21.978  13.501   3.105
22826W        W94442   7.371  41.102   3.046
22827W        W94443  14.575  35.549  12.004
22828W        W94444   1.954   5.510  13.460
22829W        W94445  19.064  29.841  12.086
22830W        W94446  15.670   5.463   3.227
22831W        W94447  42.320  11.192   2.626
22832W        W94448  15.663   6.521   4.129
22833W        W94449  25.720  44.345  14.381
22834W        W94450  20.056  16.137   3.374
22835W        W94451  30.572  31.660   1.749
22836W        W94452  41.227  32.378  10.438
22837W        W94453  10.449  31.469   3.127
22838W        W94454   0.914   6.800   4.870
22839W        W94455  34.868  18.057   1.411
22840W        W94456  31.623  42.147   4.602
22841W        W94457  21.024   4.361  11.405
22842W        W94458  19.006  36.204   0.365
22843W        W94459  43.235  20.110   1.321
22844W        W94460  26.921  10.325  12.540
22845W        W94461  35.953  16.494  12.568
22846W        W94462  39.069  13.080  13.405
22847W        W94463  14.902  26.072  12.105
22848W        W94464   6.778   1.282   0.170
22849W        W94465  40.054  37.883   0.207
22850W        W94466  41.846  43.748  12.392
22851W        W94467  25.627  40.574  12.854
22852W        W94468  35.348  27.678  14.340
22853W        W94469  44.047  11.859  14.791
22854W        W94470  29.039  14.197  10.090
22855W        W94471  44.288  21.306  14.935
22856W        W94472  15.181  33.951  11.705
22857W        W94473  10.772   4.377  11.986
22858W        W94474  10.476  39.729   2.402
22859W        W94475  41.029  18.878   2.243
22860W        W94476  22.504  37.996   3.281
22861W        W94477   2.459  23.829   4.249
22862W        W94478  23.981  12.734   1.682
22863W        W94479  42.035  29.955  11.142
22864W        W94480  10.198  33.700   4.601
22865W        W94481  18.848  44.927  11.568
22866W        W94482  34.146  15.027   2.618
22867W        W94483  19.553  40.797  12.005
22868W        W94484   8.691  10.219   4.925
22869W        W94485  23.152  12.664  10.973
22870W        W94486  41.778  21.055   2.166
22871W        W94487   7.726   5.923   1.676
22872W        W94488  14.675   5.682  13.476
22873W        W94489  13.188   6.371   1.850
22874W        W94490  40.972   8.767  14.946
22875W        W94491   4.966  22.742  13.095
22876W        W94492  18.981  32.868  13.479
22877W        W94493  26.171  12.844   4.678
22878W        W94494  20.189  29.052  12.429
22879W        W94495  43.358  20.781  10.667
22880W        W94496  34.786  31.921  10.731
22881W        W94497  17.404  39.908  12.999
22882W        W94498  16.693  40.583  11.189
22883W        W94499  36.920   4.154  10.705
22884W        W94500   0.304   0.772   0.401
22885W        W94501  24.629  44.872   3.628
22886W        W94502   0.755  34.608   1.217
22887W        W94503  42.876  16.333   2.885
22888W        W94504  35.258   0.545  11.485
22889W        W94505  34.546  18.777  13.896
22890W        W94506   9.149  44.002  10.569
22891W        W94507  15.616  19.246   0.562
22892W        W94508  16.867  33.654  10.726
22893W        W94509  43.794  37.968   2.508
22894W        W94510   5.645  17.835   0.983
22895W        W94511  24.149  16.673   4.503
22896W        W94512   1.847  35.633   4.248
22897W        W94513  22.731  25.412   1.409
22898W        W94514  16.557  44.510   9.961
22899W        W94515  36.269  35.790   0.336
22900W        W94516  18.829  44.426   0.906
22901W        W94517  39.124  22.169   1.749
22902W        W94518   2.821  13.876  13.758
22903W        W94519  34.420   1.930  12.105
22904W        W94520  29.893  10.630   1.761
22905W        W94521  19.816  18.349   0.929
22906W        W94522  10.967  15.290  11.347
22907W        W94523  15.201  38.091  11.731
22908W        W94524  32.627  36.503   4.763
22909W        W94525   9.221  43.328   1.755
22910W        W94526  35.541  37.954   1.737
22911W        W94527  22.227  34.632   2.846
22912W        W94528  23.529  22.620  12.954
22913W        W94529  26.707  39.241   4.171
22914W        W94530   9.329  13.601   2.631
22915W        W94531   6.707  10.294  14.370
22916W        W94532  15.276  18.035  13.791
22917W        W94533  15.069  35.470   1.474
22918W        W94534  35.714  18.194  11.419
22919W        W94535  34.080  38.115   4.519
22920W        W94536  23.232  35.608   3.642
22921W        W94537  27.058   1.824   4.689
22922W        W94538   0.843   9.834   4.397
22923W        W94539   8.664  24.702  12.715
22924W        W94540  16.006  19.379  10.928
22925W        W94541  10.402  13.812   0.809
22926W        W94542  12.950   1.563  11.535
22927W        W94543  20.193   5.983   4.341
22928W        W94544   6.885  26.593   1.343
22929W        W94545  39.391  14.223   1.339
22930W        W94546  21.523  14.730  10.728
22931W        W94547  18.103   3.842   4.828
22932W        W94548  18.717  33.658   0.382
22933W        W94549  29.064  17.330  12.333
22934W        W94550  16.036  19.014   5.517
22935W        W94551  21.060   0.037  10.983
22936W        W94552  41.385  18.535  11.923
22937W        W94553   0.282   1.895   2.788
22938W        W94554  20.252  23.845  10.981
22939W        W94555  14.834  16.618  13.865
22940W        W94556  38.539  26.204   1.291
22941W        W94557  40.302   0.529   1.883
22942W        W94558  21.977  41.978   1.389
22943W        W94559  33.777  16.678  13.148
22944W        W94560  24.718  15.572   2.788
22945W        W94561   7.302  30.936   4.423
22946W        W94562  23.601   6.652   2.819
22947W        W94563  24.413  40.054  11.032
22948W        W94564  43.354   9.912   0.342
22949W        W94565  13.498  16.827  10.697
22950W        W94566  33.498   0.679   3.527
22951W        W94567  36.591  12.447   1.675
22952W        W94568  18.246   6.186  14.814
22953W        W94569  28.930  15.714   5.040
22954W        W94570  32.904  39.079  14.898
22955W        W94571   0.981  35.555   4.466
22956W        W94572  15.737  17.788   3.788
22957W        W94573  18.338  33.928   2.716
22958W        W94574  22.924  34.054  11.377
22959W        W94575  19.257  43.541   1.600
22960W        W94576  36.074  29.482  12.539
22961W        W94577  29.059  36.068  14.525
22962W        W94578  28.619  31.042  13.254
22963W        W94579   5.298  25.554   4.605
22964W        W94580  39.438  14.705  11.024
22965W        W94581  33.521  35.261  12.812
22966W        W94582  17.988   0.849  10.794
22967W        W94583  33.589  22.298  13.397
22968W        W94584  13.539  15.044   1.439
22969W        W94585  27.277  20.719   0.346
22970W        W94586  40.268  12.257   2.685
22971W        W94587  21.703  37.112  14.846
22972W        W94588   2.363   8.343   0.824
22973W        W94589  25.092  35.832  14.821
22974W        W94590  44.358   3.947  14.247
22975W        W94591   2.741  10.271  14.820
22976W        W94592  28.707  14.696   4.320
22977W        W94593  24.078   8.774   5.043
22978W        W94594  44.279  30.118   4.245
22979W        W94595  36.546  17.179  13.105
22980W        W94596  32.391  32.889  14.917
22981W        W94597  33.862  20.955   3.077
22982W        W94598  17.551  29.728   1.261
22983W        W94599   0.624  22.671   5.453
22984W        W94600  13.527  28.745   1.259
22985W        W94601  40.857  14.091  13.322
22986W        W94602   1.255  27.961  10.567
22987W        W94603  31.570   5.458   3.694
22988W        W94604  44.915   5.347  14.446
22989W        W94605  37.242   3.370   4.946
22990W        W94606  29.977  37.121   4.936
22991W        W94607  27.599  37.134   1.501
22992W        W94608  29.542  16.481   3.177
22993W        W94609  11.302  44.432  14.849
22994W        W94610  23.520  44.497  11.040
22995W        W94611  21.626  18.586  10.696
22996W        W94612  26.474  22.746   0.792
22997W        W94613  32.570   5.221  14.395
22998W        W94614   7.043  33.385  10.310
22999W        W94615  31.623  42.363  13.477
23000W        W94616  36.467   7.187  12.126
23001W        W94617  16.765  32.780   1.335
23002W        W94618  41.321   3.192   2.925
23003W        W94619   0.149   5.913  13.355
23004W        W94620  36.191  19.077   1.656
23005W        W94621  30.985  30.666   9.564
23006W        W94622  40.404  26.696   1.304
23007W        W94623  42.761  25.570  13.756
23008W        W94624  31.607  21.201  12.330
23009W        W94625   2.233  39.383  12.902
23010W        W94626  40.940   0.638   2.292
23011W        W94627  28.540   6.957  14.782
23012W        W94628  39.384  37.026  12.890
23013W        W94629  44.835  27.650   2.385
23014W        W94630  19.578  42.729   2.417
23015W        W94631  35.954  37.651  12.487
23016W        W94632  21.029   9.413  10.609
23017W        W94633  17.779  41.083  11.878
23018W        W94634   6.858  41.289  12.074
23019W        W94635   8.800  32.059   1.793
23020W        W94636  34.131  13.654  13.495
23021W        W94637  30.689  13.367  14.569
23022W        W94638  22.880   7.741   3.719
23023W        W94639  34.092  18.954  14.554
23024W        W94640  25.143  11.733   4.381
23025W        W94641  21.248  24.232   4.075
23026W        W94642   8.408   6.243  11.698
23027W        W94643   0.119  35.389  14.378
23028W        W94644  33.424   8.845  10.202
23029W        W94645  33.660  36.115  13.290
23030W        W94646  40.962  33.494   0.933
23031W        W94647  13.310  44.073  13.910
23032W        W94648   1.149  12.717  11.578
23033W        W94649  15.062  30.776  13.842
23034W        W94650  40.282   1.015  13.899
23035W        W94651  11.405  13.843   4.542
23036W        W94652  35.034   0.646  13.000
23037W        W94653  33.344  44.937  10.518
23038W        W94654   2.235   3.986   0.254
23039W        W94655  14.553  20.589  13.342
23040W        W94656  13.817  18.696  14.946
23041W        W94657  12.758  30.145  14.761
23042W        W94658  42.755  30.633  12.009
23043W        W94659  13.669  29.116  12.052
23044W        W94660  44.576   2.698  11.614
23045W        W94661  25.232  31.590  14.397
23046W        W94662   5.143  15.837  11.519
23047W        W94663  42.947  21.437   0.716
23048W        W94664  37.777  43.087   0.784
23049W        W94665  13.675  10.527  13.048
23050W        W94666  36.078  17.825  10.587
23051W        W94667  44.880  27.431  11.589
23052W        W94668  11.445   1.189  11.817
23053W        W94669  41.276  17.164   2.719
23054W        W94670  29.140   2.876   0.767
23055W        W94671  25.260  38.196   2.769
23056W        W94672   6.208  43.428  14.738
23057W        W94673  10.532  18.288   3.498
23058W        W94674  38.591   5.312   2.251
23059W        W94675   7.185  40.530  14.385
23060W        W94676  43.863  22.473  13.908
23061W        W94677  13.118  34.187  14.502
23062W        W94678  13.161  24.429  11.517
23063W        W94679   0.653   2.977   1.869
23064W        W94680  44.334  17.057  13.396
23065W        W94681   7.852  10.922   4.068
23066W        W94682   2.870  26.102   4.573
23067W        W94683   8.579  44.308  14.445
23068W        W94684  32.185  15.193  11.996
23069W        W94685   0.221  33.176   3.647
23070W        W94686   3.203  44.806   3.267
23071W        W94687  30.832  18.802  11.658
23072W        W94688  12.368  44.352   0.969
23073W        W94689   0.946  42.392   2.301
23074W        W94690  22.219  15.169   4.552
23075W        W94691  33.449  15.818   0.305
23076W        W94692  40.844  35.101   2.196
23077W        W94693  38.638   2.184  13.223
23078W        W94694  29.145  32.251   2.820
23079W        W94695  20.021  22.176   4.401
23080W        W94696   8.662  25.628  11.261
23081W        W94697  18.013  34.460  10.731
23082W        W94698  27.753  12.954   3.217
23083W        W94699  33.582  33.043   3.910
23084W        W94700  21.774   6.567  11.542
23085W        W94701  29.589   8.400   1.272
23086W        W94702  26.528  20.906   1.400
23087W        W94703   7.264  18.497   3.659
23088W        W94704  40.405  28.051   1.652
23089W        W94705  44.493  14.121   3.161
23090W        W94706  15.202   5.364   2.152
23091W        W94707  41.811  34.404   3.107
23092W        W94708  15.199   6.923  10.616
23093W        W94709   3.489   9.672  12.015
23094W        W94710  28.038   5.896   9.459
23095W        W94711  22.524  36.129  12.016
23096W        W94712  23.372  21.184  12.539
23097W        W94713   8.765  22.636  14.505
23098W        W94714  11.618   4.064  10.784
23099W        W94715  17.583  33.198   3.660
23100W        W94716  20.804   0.934   4.576
23101W        W94717   3.852  26.754   3.496
23102W        W94718  42.920  36.134  11.872
23103W        W94719  30.863  30.583  10.079
23104W        W94720  20.143  19.049  13.888
23105W        W94721  23.543  36.797   4.176
23106W        W94722   9.780   4.779   2.636
23107W        W94723   5.702  27.024   4.680
23108W        W94724  19.114   8.910   0.776
23109W        W94725   8.168  21.150  10.541
23110W        W94726   0.357   8.327   1.217
23111W        W94727  40.979  38.793  11.041
23112W        W94728  24.572   1.516  14.810
23113W        W94729   2.298  20.587   4.800
23114W        W94730  33.451  13.210   1.246
23115W        W94731  33.046  17.143  12.852
23116W        W94732  14.153  41.309  11.052
23117W        W94733  29.226  34.024   2.544
23118W        W94734  30.050  31.159   0.531
23119W        W94735  10.186  20.529   3.280
23120W        W94736  23.194  13.586   3.705
23121W        W94737  35.630  29.054  13.137
23122W        W94738   2.491  15.237   1.732
23123W        W94739  33.176  32.003   4.662
23124W        W94740  23.165   1.282  14.801
23125W        W94741   0.045  10.659   4.699
23126W        W94742  31.244  41.841  11.496
23127W        W94743   7.430   6.256   2.812
23128W        W94744  10.671  32.813  11.336
23129W        W94745  13.954  39.016   0.512
23130W        W94746   0.290   8.219   4.127
23131W        W94747  29.427  22.266   4.325
23132W        W94748  16.809  42.545  14.901
23133W        W94749  20.079  22.993  13.060
23134W        W94750  19.989   4.380   2.448
23135W        W94751  33.959  21.298  10.304
23136W        W94752  15.288  33.843   0.077
23137W        W94753  14.337  40.203  14.352
23138W        W94754  13.643   0.747   1.446
23139W        W94755  34.578  19.045  11.893
23140W        W94756  28.165   9.616  13.038
23141W        W94757  32.846  21.467   0.834
23142W        W94758  12.633  18.118   2.876
23143W        W94759  12.412  15.247  13.506
23144W        W94760  26.674   7.792  11.544
23145W        W94761  44.530  21.940  10.319
23146W        W94762  21.748  36.440   4.291
23147W        W94763  44.681  21.787   0.561
23148W        W94764  10.810   5.611  14.123
23149W        W94765  35.331  20.829   0.328
23150W        W94766  19.523   1.375   0.152
23151W        W94767   1.502   7.029   1.388
23152W        W94768  21.042  19.964  10.687
23153W        W94769  37.031   0.416   1.762
23154W        W94770  13.511  24.063   1.866
23155W        W94771  39.000   8.937  14.998
23156W        W94772   9.214  44.329   4.439
23157W        W94773  32.205   8.379  12.372
23158W        W94774   6.383   1.449   4.595
23159W        W94775  16.598  19.561  14.865
23160W        W94776   6.163  24.281   0.209
23161W        W94777   6.125   4.277   4.299
23162W        W94778   5.003   4.360   3.618
23163W        W94779  23.425  31.161   3.852
23164W        W94780   5.394  41.975  10.685
23165W        W94781  43.412  17.967  14.191
23166W        W94782   8.373  33.616  13.710
23167W        W94783  35.168  40.926  11.823
23168W        W94784  21.269  24.088  14.265
23169W        W94785   1.882  37.961  13.856
23170W        W94786  28.082  11.086   2.289
23171W        W94787  13.202  32.301   1.670
23172W        W94788  34.829  39.002   0.431
23173W        W94789   6.157  27.273  11.594
23174W        W94790  43.487  18.809   2.673
23175W        W94791  43.424  37.620  13.068
23176W        W94792  20.617  19.804  13.952
23177W        W94793  44.455  13.154  12.489
23178W        W94794  30.600  24.563   1.901
23179W        W94795  20.472  25.611  11.386
23180W        W94796  15.303   1.160   0.323
23181W        W94797   7.794  41.929   4.220
23182W        W94798  44.462   7.949  11.518
23183W        W94799   8.428  44.289  11.585
23184W        W94800  44.786  36.843  11.883
23185W        W94801  42.357  23.762  14.340
23186W        W94802  16.175  15.515  12.371
23187W        W94803  32.612  20.299  14.228
23188W        W94804   6.446  36.755   1.610
23189W        W94805  41.441  21.742   4.694
23190W        W94806  27.565   4.823   1.296
23191W        W94807  28.024  26.602  13.981
23192W        W94808  36.906   6.523   0.012
23193W        W94809  25.021   3.655  11.625
23194W        W94810  24.079  19.619  13.432
23195W        W94811   4.506  34.077   3.247
23196W        W94812  30.704  15.850  11.020
23197W        W94813   5.251  42.254   2.799
23198W        W94814  26.131  43.110  13.794
23199W        W94815  21.743  29.705  12.171
23200W        W94816  43.155  27.948   4.617
23201W        W94817  31.714  37.578  11.756
23202W        W94818  26.460   1.205   0.075
23203W        W94819  31.871   5.645  12.351
23204W        W94820   5.703  39.864   4.327
23205W        W94821  44.965  17.260  14.883
23206W        W94822  26.424   2.007  12.058
23207W        W94823  10.875  16.375  13.179
23208W        W94824  20.500  17.140  14.690
23209W        W94825  40.307  15.812  12.143
23210W        W94826  33.576  42.089   2.681
23211W        W94827  16.630  27.889  14.974
23212W        W94828   4.849  24.426  11.206
23213W        W94829   3.541  43.084   2.477
23214W        W94830  30.604  11.265  14.769
23215W        W94831  31.202  13.170   3.554
23216W        W94832   8.511  44.743  11.179
23217W        W94833  13.841  16.868  13.105
23218W        W94834  36.072   3.477  13.407
23219W        W94835  31.488  42.405   1.266
23220W        W94836   2.520  22.474   0.012
23221W        W94837   3.205  27.437   3.682
23222W        W94838   6.689  32.013  14.180
23223W        W94839  22.443  26.351  14.888
23224W        W94840  41.578   7.138   1.303
23225W        W94841   0.401   2.171  11.131
23226W        W94842  22.632  30.658   4.072
23227W        W94843  20.930  16.298   1.928
23228W        W94844  22.751  17.677   0.749
23229W        W94845  34.363  18.325   1.379
23230W        W94846  37.024  16.079  11.925
23231W        W94847   1.993  19.187   3.623
23232W        W94848  35.480  21.682  14.315
23233W        W94849  38.638   7.776   2.374
23234W        W94850  27.525   1.904   4.396
23235W        W94851  24.751  42.545  12.464
23236W        W94852   8.731  44.427   4.278
23237W        W94853   5.063  26.229  13.098
23238W        W94854  42.300  17.309   1.803
23239W        W94855  12.107   5.734  14.196
23240W        W94856  40.846  23.849  11.660
23241W        W94857   7.866  31.542   2.836
23242W        W94858  10.187  37.068   4.398
23243W        W94859  33.336  40.013   3.830
23244W        W94860  16.090  22.986  14.822
23245W        W94861  38.590  25.533  12.992
23246W        W94862   4.386   1.251  14.447
23247W        W94863   2.267  12.849   0.414
23248W        W94864  20.218  12.658   3.500
23249W        W94865  42.824   3.763   5.165
23250W        W94866  44.436  15.149   4.076
23251W        W94867  17.069  33.891   1.834
23252W        W94868  37.868  44.061   2.398
23253W        W94869  27.734  10.207   2.230
23254W        W94870   3.731  28.514   4.772
23255W        W94871  31.120   8.804  11.891
23256W        W94872  21.841  36.947  12.007
23257W        W94873   7.617  13.632  14.982
23258W        W94874  44.053  41.405  14.908
23259W        W94875   3.339   2.409  12.173
23260W        W94876  27.573  34.250   0.343
23261W        W94877   8.639  24.737  12.107
23262W        W94878  42.914  26.650   3.367
23263W        W94879  27.540  26.669   1.362
23264W        W94880  13.296  42.344  13.513
23265W        W94881  28.778  13.239   0.300
23266W        W94882   7.321  16.761  13.863
23267W        W94883   4.907  12.661   2.668
23268W        W94884  29.085  36.757   0.677
23269W        W94885  14.875  14.767   3.965
23270W        W94886  15.687  25.580   0.040
23271W        W94887  35.206  36.963   0.430
23272W        W94888  16.194  13.321   1.887
23273W        W94889  31.984  15.844  14.423
23274W        W94890  26.688  30.313  11.969
23275W        W94891  13.672  18.863  14.115
23276W        W94892   8.928  13.265   2.720
23277W        W94893   0.359   8.219  13.262
23278W        W94894  35.499  36.886   2.717
23279W        W94895  10.615   0.792  14.939
23280W        W94896  36.960  24.561   0.228
23281W        W94897  40.902  32.954  13.741
23282W        W94898  20.215   5.647  12.231
23283W        W94899  18.402  39.061   2.511
23284W        W94900   0.874   2.632  12.841
23285W        W94901  40.410  37.663  12.506
23286W        W94902  25.239  28.778  13.949
23287W        W94903  33.021  21.553  12.398
23288W        W94904  25.573  42.726  10.654
23289W        W94905  43.506  35.592  14.865
23290W        W94906  25.474   0.420   3.729
23291W        W94907  42.878  30.489   2.899
23292W        W94908  29.335  18.018   2.759
23293W        W94909  15.258  30.482   2.246
23294W        W94910  20.606  34.209  12.499
23295W        W94911  28.104  13.812   2.344
23296W        W94912  41.789  38.547  13.775
23297W        W94913   1.912  22.231   2.185
23298W        W94914   2.518   1.046  12.890
23299W        W94915   6.857  43.637   1.768
23300W        W94916  24.669   2.829  11.585
23301W        W94917   4.022  39.740  11.162
23302W        W94918  28.936  37.108  10.387
23303W        W94919  43.959  37.042  12.401
23304W        W94920  15.289  14.917  11.954
23305W        W94921  38.856  17.819  13.881
23306W        W94922   7.185  21.168  14.551
23307W        W94923  31.045  31.079  13.431
23308W        W94924  42.343   5.390   1.249
23309W        W94925   6.683  42.848  13.943
23310W        W94926  27.121  19.056  13.832
23311W        W94927  25.854  17.783   3.389
23312W        W94928  15.160  23.245   0.006
23313W        W94929  42.994  40.836   4.104
23314W        W94930  17.074  25.191   0.483
23315W        W94931  21.139  13.630  14.341
23316W        W94932  42.487  20.477   2.428
23317W        W94933  27.752  20.170  14.068
23318W        W94934  35.453   0.032   1.357
23319W        W94935  32.983  33.809   0.832
23320W        W94936  37.292  20.547  12.965
23321W        W94937  26.573  13.201  11.204
23322W        W94938  37.894  15.138  12.386
23323W        W94939  25.219  14.286   4.328
23324W        W94940   5.637  32.490   0.363
23325W        W94941  14.175  27.355  13.740
23326W        W94942   3.301  13.557  12.925
23327W        W94943   1.354  41.107  12.673
23328W        W94944  14.017   8.768  14.845
23329W        W94945   0.742  42.928  13.398
23330W        W94946  42.609  30.997  13.019
23331W        W94947  37.930   2.458   1.370
23332W        W94948  15.386  29.961   4.551
23333W        W94949   9.282  32.964   0.471
23334W        W94950  14.079  22.815   3.624
23335W        W94951  18.800  23.715  10.923
23336W        W94952   0.990  17.609   0.559
23337W        W94953  42.535   7.276  11.590
23338W        W94954  11.352   5.353  11.234
23339W        W94955  40.035  29.064   2.611
23340W        W94956  12.623   8.780  10.953
23341W        W94957  28.479  10.474   0.304
23342W        W94958  10.317  39.490   1.220
23343W        W94959  27.715   6.242  12.353
23344W        W94960  27.359  19.229  11.936
23345W        W94961   8.732  24.957   0.399
23346W        W94962  37.064  44.612  11.042
23347W        W94963  24.563   9.729   1.973
23348W        W94964  28.259  31.608   4.706
23349W        W94965  30.807  39.670  12.033
23350W        W94966  32.375   5.708  14.560
23351W        W94967  33.705   1.731   2.750
23352W        W94968   6.326  17.640   2.740
23353W        W94969   4.016  33.105  11.113
23354W        W94970  44.165  27.856  10.056
23355W        W94971  15.971  42.644   4.668
23356W        W94972  13.389   3.268  11.214
23357W        W94973  28.607  25.024   2.837
23358W        W94974  28.949  31.001  12.043
23359W        W94975  12.116  31.522   2.663
23360W        W94976  39.806  27.712   2.879
23361W        W94977  15.413  17.553  12.355
23362W        W94978  31.708  38.934  10.653
23363W        W94979  29.404   2.664   4.549
23364W        W94980   4.447   6.331  13.322
23365W        W94981  25.758   0.781   4.181
23366W        W94982   3.726  10.272  14.865
23367W        W94983  15.095  31.269  10.578
23368W        W94984   4.897  18.545   2.275
23369W        W94985   3.747  42.990  10.106
23370W        W94986  22.607  36.424   2.743
23371W        W94987  29.838  29.771   4.115
23372W        W94988  27.088  43.993   4.555
23373W        W94989  23.693  26.027   0.453
23374W        W94990  34.070   9.254   3.161
23375W        W94991  44.953  19.065  12.496
23376W        W94992  35.924  16.676   2.204
23377W        W94993  35.384  10.382  10.648
23378W        W94994   0.523  34.470   2.327
23379W        W94995  23.576  43.402   1.256
23380W        W94996  30.864   4.180   3.190
23381W        W94997  43.979  39.250  10.734
23382W        W94998  44.362   3.682  10.767
23383W        W94999   0.682  34.024  12.171
23384W        W95000  20.265  12.650   4.020
23385W        W95001  23.034  35.113   4.531
23386W        W95002  39.287  23.099  10.631
23387W        W95003  10.288  38.912   2.409
23388W        W95004  44.693  43.820  13.187
23389W        W95005  16.790  18.505  12.150
23390W        W95006  28.338  32.485   0.487
23391W        W95007   3.327   0.454   4.659
23392W        W95008  10.380  32.131   3.833
23393W        W95009  38.293  34.864  14.385
23394W        W95010   5.705   8.814  10.578
23395W        W95011  15.538  43.341  13.729
23396W        W95012   7.292  10.176   2.682
23397W        W95013  14.596   5.842  12.482
23398W        W95014  32.906  34.073  12.902
23399W        W95015  20.494  30.371  12.039
23400W        W95016   7.737  31.617  10.813
23401W        W95017  40.171  20.602  10.516
23402W        W95018  28.315   8.335   4.146
23403W        W95019  44.750  13.225  14.070
23404W        W95020  31.183  20.225  12.886
23405W        W95021  34.908  13.609   3.606
23406W        W95022  24.727   4.867   0.690
23407W        W95023   3.843  33.987  14.377
23408W        W95024  34.339  19.898   1.222
23409W        W95025   3.885  24.908  14.363
23410W        W95026  23.094  17.067  14.902
23411W        W95027  39.328  24.679  10.547
23412W        W95028  14.278  17.708  11.913
23413W        W95029   7.700  31.080   1.664
23414W        W95030  15.378  20.654   3.637
23415W        W95031   2.908  32.705  14.967
23416W        W95032  28.206  17.364  12.662
23417W        W95033  19.746   4.187  12.691
23418W        W95034   5.763  33.402   1.452
23419W        W95035  11.104   2.320   4.560
23420W        W95036  43.521  24.771  12.024
23421W        W95037   0.265  36.761   3.194
23422W        W95038  42.561  29.333   0.874
23423W        W95039  40.005   2.246   1.854
23424W        W95040  36.532  44.297   0.388
23425W        W95041  14.320  42.417  13.331
23426W        W95042  36.781   6.167   3.527
23427W        W95043  25.290  40.973  10.494
23428W        W95044  14.420  33.042  11.261
23429W        W95045  32.906  17.072   4.267
23430W        W95046  30.380  20.817  12.109
23431W        W95047  44.533  20.238  13.066
23432W        W95048  22.429  34.853  12.753
23433W        W95049  34.970  41.763  12.906
23434W        W95050  42.283  44.958  12.768
23435W        W95051  41.286  10.732   2.849
23436W        W95052  29.499  11.626  13.492
23437W        W95053  32.066  15.075   0.870
23438W        W95054   1.497  38.592   0.957
23439W        W95055  25.288  27.990  13.476
23440W        W95056  44.330  28.022  12.029
23441W        W95057  26.459  14.597   0.314
23442W        W95058  25.536  14.077   0.191
23443W        W95059  15.325  30.645   3.699
23444W        W95060  17.825  44.277  13.301
23445W        W95061  40.863  17.635  12.919
23446W        W95062  15.506  36.317   0.914
23447W        W95063  39.080  26.579   3.708
23448W        W95064  37.601  33.052  12.404
23449W        W95065  29.603  32.883  10.631
23450W        W95066  12.661  35.193  12.465
23451W        W95067  20.632  39.843   3.545
23452W        W95068  22.269  11.930  10.939
23453W        W95069  32.374  26.525   0.916
23454W        W95070  44.738   6.627  13.424
23455W        W95071   8.319  18.752   3.345
23456W        W95072  29.502  27.841   2.710
23457W        W95073   2.359  34.474  13.101
23458W        W95074   3.099  16.430  13.426
23459W        W95075  26.721  12.460   1.861
23460W        W95076  35.014  24.734  12.034
23461W        W95077   9.400  12.705  11.251
23462W        W95078  44.219  20.204  11.572
23463W        W95079  13.384  25.933  12.406
23464W        W95080   3.180  30.513   1.919
23465W        W95081  25.618   0.330  11.507
23466W        W95082  43.372   5.918  14.834
23467W        W95083  42.419  36.841   3.327
23468W        W95084  22.623   1.442  10.662
23469W        W95085  24.022   0.859   3.512
23470W        W95086  24.064  15.427  11.591
23471W        W95087  26.652  44.700   3.632
23472W        W95088  20.771  11.667   2.779
23473W        W95089   4.951  36.394   4.000
23474W        W95090  21.234  37.888  12.869
23475W        W95091   3.846  28.451   2.882
23476W        W95092  32.044  40.862  11.490
23477W        W95093  44.934  14.251  12.941
23478W        W95094   0.019  37.599   1.102
23479W        W95095  35.528  30.602  10.863
23480W        W95096   7.634   9.815  13.938
23481W        W95097   6.307  10.113  10.640
23482W        W95098  27.251  40.562   2.607
23483W        W95099  36.351  43.176   0.891
23484W        W95100   6.794  22.783   1.932
23485W        W95101  44.488  37.071  12.246
23486W        W95102   3.344   4.441   2.411
23487W        W95103  28.028  39.833  14.410
23488W        W95104   7.895   0.293   4.902
23489W        W95105   3.216  31.642   2.010
23490W        W95106  25.401  25.474  12.186
23491W        W95107   8.939   7.464  13.349
23492W        W95108  16.549  38.506   3.067
23493W        W95109  21.537  26.446  14.557
23494W        W95110  23.099  25.472   2.790
23495W        W95111  42.922  30.350  10.296
23496W        W95112  42.869  24.250   2.007
23497W        W95113  23.579  30.521  14.547
23498W        W95114  31.288  16.265   2.545
23499W        W95115   2.721  43.455   9.828
23500W        W95116  35.957  14.290  10.602
23501W        W95117  13.791  30.172   1.232
23502W        W95118  40.858  26.198  12.177
23503W        W95119   8.698  34.422   3.401
23504W        W95120  33.560  26.697   1.799
23505W        W95121  39.888  15.012  12.974
23506W        W95122  21.125   9.983  11.596
23507W        W95123  14.888  37.269   3.283
23508W        W95124  39.458  30.278  10.770
23509W        W95125  16.984  32.913  13.304
23510W        W95126  17.691  23.689   2.234
23511W        W95127  21.079   7.228   4.857
23512W        W95128  36.553  22.644   1.455
23513W        W95129   1.776   5.306   3.062
23514W        W95130  29.441  23.066   4.393
23515W        W95131   4.534  23.710  13.445
23516W        W95132  38.494  10.246   1.750
23517W        W95133   5.413   0.472  13.047
23518W        W95134  23.274  29.567  14.383
23519W        W95135   9.305   4.003   3.485
23520W        W95136  38.645   5.398   3.106
23521W        W95137  21.987  19.790  12.956
23522W        W95138   7.188  35.406  14.914
23523W        W95139  27.258   0.983  13.439
23524W        W95140  11.815   1.358   1.678
23525W        W95141  32.961  28.063   3.233
23526W        W95142   4.356  36.439   2.186
23527W        W95143  31.011  40.493   3.443
23528W        W95144  37.975  41.065  14.269
23529W        W95145  14.663   0.723   3.400
23530W        W95146   2.034  37.678  13.430
23531W        W95147   2.733  41.726   3.129
23532W        W95148  41.619  13.601  11.239
23533W        W95149  40.396  33.318   0.295
23534W        W95150  12.499  20.537  13.382
23535W        W95151  22.323   1.851   0.800
23536W        W95152  21.988  20.099   2.404
23537W        W95153  14.764  31.156   3.241
23538W        W95154   2.856  23.748  14.850
23539W        W95155   1.963  24.715  11.495
23540W        W95156  41.947  32.071   2.130
23541W        W95157   1.792  11.078   1.270
23542W        W95158  35.610   1.723   2.783
23543W        W95159  20.138  40.081  13.397
23544W        W95160  15.851  10.949  10.996
23545W        W95161  16.593  10.800   1.319
23546W        W95162   2.696  33.012   2.694
23547W        W95163  27.845   7.287  11.900
23548W        W95164  16.118  14.510   4.149
23549W        W95165  43.026  26.010  11.616
23550W        W95166  13.249  10.352  12.821
23551W        W95167  43.616  35.286   5.011
23552W        W95168  18.333  24.006  11.101
23553W        W95169  27.510  12.309  14.315
23554W        W95170  15.443   2.785   4.476
23555W        W95171  10.080  41.939  13.057
23556W        W95172  30.696  37.348   2.740
23557W        W95173  34.292  19.210  13.777
23558W        W95174  23.161  30.661   3.225
23559W        W95175   9.456  10.115  14.743
23560W        W95176  17.825  19.670   0.349
23561W        W95177  30.631  24.460   0.974
23562W        W95178  41.789   6.403  14.418
23563W        W95179  42.053  27.775  11.768
23564W        W95180  33.901  27.013   1.491
23565W        W95181   5.811  33.307   2.378
23566W        W95182  39.011  31.142  13.079
23567W        W95183  37.383  40.335  14.758
23568W        W95184  43.749  20.219  11.859
23569W        W95185   3.654   6.303  14.913
23570W        W95186   1.238   6.697   1.754
23571W        W95187   7.310  31.712   1.185
23572W        W95188  21.287  39.265   3.247
23573W        W95189  44.177  28.166  11.536
23574W        W95190   3.712   5.977   3.737
23575W        W95191  43.030  14.122   4.796
23576W        W95192  17.301   6.503  13.545
23577W        W95193  23.615  15.383  13.894
23578W        W95194  20.271  26.635  10.539
23579W        W95195  10.903  42.295   3.295
23580W        W95196  36.455   7.874   4.126
23581W        W95197  33.058  20.254   1.423
23582W        W95198  17.121  33.672   0.598
23583W        W95199  41.428  10.723   1.696
23584W        W95200  30.540   9.507   4.133
23585W        W95201   3.274  31.771   4.319
23586W        W95202  26.317   8.979   1.266
23587W        W95203  29.710  19.592  11.496
23588W        W95204  19.497  22.258  12.785
23589W        W95205  24.508  19.521   2.192
23590W        W95206  39.391   2.500  12.992
23591W        W95207   1.561  38.492   4.565
23592W        W95208  11.015  13.667   2.790
23593W        W95209  13.061  19.258  13.398
23594W        W95210  10.287  21.204  11.435
23595W        W95211  35.419  26.454   1.884
23596W        W95212   2.427  25.542  12.463
23597W        W95213  30.413  26.440   2.665
23598W        W95214  14.136   2.779   3.699
23599W        W95215  12.759  40.565   0.251
23600W        W95216  25.757  20.771   3.278
23601W        W95217  35.161  32.576  14.940
23602W        W95218  40.040  39.015  14.415
23603W        W95219  39.928  19.509   4.297
23604W        W95220  42.279  39.984  11.163
23605W        W95221  13.063  17.908  12.090
23606W        W95222  28.219  27.618   3.127
23607W        W95223  16.728   0.781   3.731
23608W        W95224  29.185  28.636   2.823
23609W        W95225   4.892   5.003   0.654
23610W        W95226  10.379  36.928  11.938
23611W        W95227  28.915  28.159   1.158
23612W        W95228  13.823   4.907   0.381
23613W        W95229  30.663  27.426   1.882
23614W        W95230  19.057  22.444   1.478
23615W        W95231  28.017   4.732   3.255
23616W        W95232  27.309   5.842   3.306
23617W        W95233  43.079  18.537  12.899
23618W        W95234  38.021  24.739  14.720
23619W        W95235  35.210  13.095   0.850
23620W        W95236   4.906  41.842  12.574
23621W        W95237  34.959  27.454  11.531
23622W        W95238   0.836   2.817  12.362
23623W        W95239  43.561  34.587   0.298
23624W        W95240   8.423  27.102   2.729
23625W        W95241  41.557   1.321  14.364
23626W        W95242  39.102  41.010  14.918
23627W        W95243  30.590  15.584   3.744
23628W        W95244  21.987  30.861   2.736
23629W        W95245  17.300  21.883   2.480
23630W        W95246  25.663   5.431  11.059
23631W        W95247  30.663  30.257   5.371
23632W        W95248  37.096  41.416   0.797
23633W        W95249  24.636   0.771  10.787
23634W        W95250  28.984   4.314   2.644
23635W        W95251  18.013  42.759   3.155
23636W        W95252  16.477  33.610  11.595
23637W        W95253  15.200  26.200  14.442
23638W        W95254  44.382  16.965  11.605
23639W        W95255  11.805  28.206   1.840
23640W        W95256  14.376  36.738   4.086
23641W        W95257   6.414  31.530   3.222
23642W        W95258  16.666  17.770   2.844
23643W        W95259  17.585  12.689  12.089
23644W        W95260  22.484   2.717   2.286
23645W        W95261  43.301   5.538  11.132
23646W        W95262  42.495   5.426  14.108
23647W        W95263   9.927  23.772  12.060
23648W        W95264  32.397  18.443  12.344
23649W        W95265  27.781  20.784   5.069
23650W        W95266   6.056  22.220   3.297
23651W        W95267   0.936  17.815   3.676
23652W        W95268  13.600  34.633  12.952
23653W        W95269  27.715  17.272  12.911
23654W        W95270  36.966  26.536  11.477
23655W        W95271  31.699  34.969  12.950
23656W        W95272  35.173   9.311   3.085
23657W        W95273   0.032  22.294  14.368
23658W        W95274   2.927  15.803  11.160
23659W        W95275  29.406   8.584   2.671
23660W        W95276   2.163  21.119   4.819
23661W        W95277  44.294  10.161   0.313
23662W        W95278  39.584  25.762  11.899
23663W        W95279   6.129  16.451   3.745
23664W        W95280  14.115  44.960   2.235
23665W        W95281  40.753  43.416   0.254
23666W        W95282  17.644  17.706   0.234
23667W        W95283  16.262   5.925  11.391
23668W        W95284  12.910   6.395   1.417
23669W        W95285  35.960  44.487  14.263
23670W        W95286  23.210  14.602   3.751
23671W        W95287  15.639  36.933   0.621
23672W        W95288  29.418  18.583  11.690
23673W        W95289  19.134  29.845   0.640
23674W        W95290  26.172  10.134  12.925
23675W        W95291  20.643  12.880   3.657
23676W        W95292  39.600  39.810  10.711
23677W        W95293  29.442  31.661   0.165
23678W        W95294  28.124  20.838   4.675
23679W        W95295  40.561  30.056   2.793
23680W        W95296  19.739  38.481   3.149
23681W        W95297  33.434  37.514  13.096
23682W        W95298  28.221  14.744   2.135
23683W        W95299   7.795  42.228   1.894
23684W        W95300   7.889   8.245   1.306
23685W        W95301   9.592   1.768   0.939
23686W        W95302   5.455  39.824  10.826
23687W        W95303  31.052   8.422  11.541
23688W        W95304   7.811  11.302   3.692
23689W        W95305  26.464  10.101   2.737
23690W        W95306   5.742  13.332  14.622
23691W        W95307  38.782  41.578   1.217
23692W        W95308  38.225  27.093  14.215
23693W        W95309   7.937  42.277  11.579
23694W        W95310  39.353  24.745   3.260
23695W        W95311  33.062  27.517   0.052
23696W        W95312  40.845  23.068  13.292
23697W        W95313  23.213  11.729   3.834
23698W        W95314  27.429  15.638   4.377
23699W        W95315  13.703  42.436  12.583
23700W        W95316  21.556  14.268   0.361
23701W        W95317  41.435  18.577   3.288
23702W        W95318   8.905  12.147   4.612
23703W        W95319  18.279  28.502   1.491
23704W        W95320   7.250  15.352   0.214
23705W        W95321  29.603  14.247  13.717
23706W        W95322  21.145  21.800  13.402
23707W        W95323  17.182  15.676   0.506
23708W        W95324  39.842  20.940  11.155
23709W        W95325  25.027  29.077  11.021
23710W        W95326  27.886  12.231   4.103
23711W        W95327  21.183  34.069   3.532
23712W        W95328  41.788  20.066  13.913
23713W        W95329   9.901   8.742  11.587
23714W        W95330  16.155   9.181   3.850
23715W        W95331  11.269  33.641  14.762
23716W        W95332  42.789  29.215  14.485
23717W        W95333  10.839   0.281   0.751
23718W        W95334  36.044  27.962  13.321
23719W        W95335   3.131  36.698  11.681
23720W        W95336  31.084  12.212   2.637
23721W        W95337   6.841   7.064   4.156
23722W        W95338  38.971  43.423  11.257
23723W        W95339  15.580  21.566  10.845
23724W        W95340  39.996   5.107  13.380
23725W        W95341   2.522   8.746   4.176
23726W        W95342  18.761  31.720  14.370
23727W        W95343  19.074  28.392   0.491
23728W        W95344  41.826   0.352   3.288
23729W        W95345   4.174  15.942   0.725
23730W        W95346  15.373   8.529   5.026
23731W        W95347  13.830  42.306  13.501
23732W        W95348  36.920  23.345   3.210
23733W        W95349  20.439  17.770  13.441
23734W        W95350  24.646  23.334  13.309
23735W        W95351  12.073  19.018   1.276
23736W        W95352   7.857   0.860  10.647
23737W        W95353  16.128   0.605  14.478
23738W        W95354  23.987  21.609  13.566
23739W        W95355  18.250   7.562  11.970
23740W        W95356  19.590  18.619   0.383
23741W        W95357  39.890   5.888  14.258
23742W        W95358   7.633  21.574   2.760
23743W        W95359   5.932  12.157  11.954
23744W        W95360  36.463   3.273   0.043
23745W        W95361   1.706  28.898  13.499
23746W        W95362  42.838  28.982   4.830
23747W        W95363   0.806  34.276   4.103
23748W        W95364  23.667  31.872  14.583
23749W        W95365  44.485  36.765   3.717
23750W        W95366  23.637  26.417  10.278
23751W        W95367  28.016  42.212   3.247
23752W        W95368  38.890   3.538   4.161
23753W        W95369  33.934  19.373   2.337
23754W        W95370  10.561  11.740   4.428
23755W        W95371  14.849  34.532  13.371
23756W        W95372  25.946   9.623   0.023
23757W        W95373  44.085  37.984  12.525
23758W        W95374   4.917  30.424   3.882
23759W        W95375  28.514  16.710   1.016
23760W        W95376  40.412  27.004  13.103
23761W        W95377   8.511  23.510  10.761
23762W        W95378   8.931  32.988  12.936
23763W        W95379  37.496  20.844   4.812
23764W        W95380  38.060  41.315   0.927
23765W        W95381  32.968  14.666   4.559
23766W        W95382  15.145  37.072   2.378
23767W        W95383  40.930   8.210  14.052
23768W        W95384   0.240   3.298   2.276
23769W        W95385  38.457  26.053   3.601
23770W        W95386   6.278  27.212  14.364
23771W        W95387  27.961  16.724  13.431
23772W        W95388  38.164  41.329  14.997
23773W        W95389  41.328  36.053   3.720
23774W        W95390  42.969  24.446  11.204
23775W        W95391  16.134   6.001  10.778
23776W        W95392  44.152  13.398   2.760
23777W        W95393  15.161  30.921   4.152
23778W        W95394  25.661  30.687   4.567
23779W        W95395  20.152  19.736   2.242
23780W        W95396   8.901  35.082   0.284
23781W        W95397  31.514  26.291  12.723
23782W        W95398   5.621  17.843  11.481
23783W        W95399  38.079   8.420   0.537
23784W        W95400   4.390  39.971   2.374
23785W        W95401  41.879  40.876  11.983
23786W        W95402  11.589  12.723   1.785
23787W        W95403  21.922   1.476   2.262
23788W        W95404  27.626   5.867  11.038
23789W        W95405  26.930  16.310  14.526
23790W        W95406  15.058  12.944  12.040
23791W        W95407  11.720   2.212  12.498
23792W        W95408  11.831  24.684   3.161
23793W        W95409  14.717  41.854   2.968
23794W        W95410  34.119  24.308   1.294
23795W        W95411  24.551  39.397   1.997
23796W        W95412  32.556  42.963   2.933
23797W        W95413  38.863  27.738  14.836
23798W        W95414  30.415  35.059  10.724
23799W        W95415  18.686   0.462   1.686
23800W        W95416  30.902  36.008  10.631
23801W        W95417  39.760  43.924   0.903
23802W        W95418  35.859   8.896   3.559
23803W        W95419  32.661  42.902   0.458
23804W        W95420   3.917  21.573   3.171
23805W        W95421  11.332  30.942  13.989
23806W        W95422  31.647  41.952  11.151
23807W        W95423  20.576  43.837  12.316
23808W        W95424   0.464  44.241   4.421
23809W        W95425  29.465  32.261  11.262
23810W        W95426  24.974  27.815  10.643
23811W        W95427  18.855   4.379  13.783
23812W        W95428  33.621   5.862   0.424
23813W        W95429  32.946  35.095  10.725
23814W        W95430  42.898  15.112  12.056
23815W        W95431  33.387   8.285  14.776
23816W        W95432  42.726  22.109   3.714
23817W        W95433  28.659  11.578  11.116
23818W        W95434  40.243   5.326  11.289
23819W        W95435  41.308  42.442  10.602
23820W        W95436  21.988  29.029  10.614
23821W        W95437  12.893  43.008   2.699
23822W        W95438  43.352  17.207  14.227
23823W        W95439   1.276   3.717   0.284
23824W        W95440  11.721  28.009   4.601
23825W        W95441  24.762  41.609  13.459
23826W        W95442  10.716  32.423   0.676
23827W        W95443  31.300  11.579   4.333
23828W        W95444  18.040  27.526   0.821
23829W        W95445   2.038  14.835   0.362
23830W        W95446  17.940  21.081  11.171
23831W        W95447   3.581  32.220  10.707
23832W        W95448  42.524  10.815   0.249
23833W        W95449  41.582   5.956  11.069
23834W        W95450  29.648   7.685  13.978
23835W        W95451   6.441  13.752  12.782
23836W        W95452  24.564  39.291   1.448
23837W        W95453  17.628  24.939   4.676
23838W        W95454   2.285  30.542   0.008
23839W        W95455  16.380  29.991   0.469
23840W        W95456  44.662  21.024   1.665
23841W        W95457   5.730  23.095  10.637
23842W        W95458  28.734  10.078   2.318
23843W        W95459  31.893  41.963  12.800
23844W        W95460  29.112  12.264   4.846
23845W        W95461  18.269  14.659   3.258
23846W        W95462  25.705   3.749  11.024
23847W        W95463   2.435  11.739   1.293
23848W        W95464  30.455   8.631   3.274
23849W        W95465   7.885  34.370  11.878
23850W        W95466  20.653   6.755   1.072
23851W        W95467  44.936  16.204  11.521
23852W        W95468  19.360   0.787  12.820
23853W        W95469   4.412  29.211   4.957
23854W        W95470   6.084  20.059   1.191
23855W        W95471  21.853  12.301  13.815
23856W        W95472  19.460  33.556  11.981
23857W        W95473   3.913  36.505   4.670
23858W        W95474  37.896   7.241  11.548
23859W        W95475   9.786  30.088   4.531
23860W        W95476  14.168  14.860  13.489
23861W        W95477   4.415  11.788  11.999
23862W        W95478   5.417  37.924  10.369
23863W        W95479  34.184  23.300   1.372
23864W        W95480  33.306  43.318   1.358
23865W        W95481  38.501  13.412  10.464
23866W        W95482  27.022   2.058  14.771
23867W        W95483  20.723   4.929   2.320
23868W        W95484   5.944   7.751  13.834
23869W        W95485  13.118  33.997  11.533
23870W        W95486  16.517  41.337   4.886
23871W        W95487  27.890   0.906   1.436
23872W        W95488   8.810  42.473  11.005
23873W        W95489  30.107  12.536  13.520
23874W        W95490   1.624  12.840   3.951
23875W        W95491  32.598  27.704  14.789
23876W        W95492  10.676  35.606   3.678
23877W        W95493   9.367  23.141  12.616
23878W        W95494  10.286  20.121   0.251
23879W        W95495  37.104  28.406   1.705
23880W        W95496  43.537   6.941   1.385
23881W        W95497   9.258  39.111  12.409
23882W        W95498  44.156  12.894   2.734
23883W        W95499  40.639   2.451  14.878
23884W        W95500  37.455  42.355   3.832
23885W        W95501  20.569   2.249   4.070
23886W        W95502  16.047   0.280   1.321
23887W        W95503   9.132  21.283   3.379
23888W        W95504  37.856  13.445   3.295
23889W        W95505  39.643  35.157  12.568
23890W        W95506  42.407  12.515   4.472
23891W        W95507   7.341  22.259   1.242
23892W        W95508  43.997  43.062  11.972
23893W        W95509  43.653  17.750  13.080
23894W        W95510   6.918   1.434  11.599
23895W        W95511  29.543  10.641   3.283
23896W        W95512  16.653   5.308  13.108
23897W        W95513  39.727   4.785   3.256
23898W        W95514  33.905   4.174   2.818
23899W        W95515   0.530  40.783  12.530
23900W        W95516   4.127  40.591  13.418
23901W        W95517   3.211  17.593   0.467
23902W        W95518  34.924  10.852   1.679
23903W        W95519  31.060  14.853  13.057
23904W        W95520  16.683  39.553   2.187
23905W        W95521  35.569  44.604  10.508
23906W        W95522  16.598  11.375  11.530
23907W        W95523  24.575   5.405   0.439
23908W        W95524   4.728   3.466  12.089
23909W        W95525  23.361  16.746  11.564
23910W        W95526  17.240  10.556   4.109
23911W        W95527  28.427  33.907   0.505
23912W        W95528  40.256  15.841  11.633
23913W        W95529   0.359  30.162   1.725
23914W        W95530  36.620  31.854   5.277
23915W        W95531  10.379  19.242  14.360
23916W        W95532  37.208  39.963   1.245
23917W        W95533  21.190  14.332  13.853
23918W        W95534   0.611   8.483  12.915
23919W        W95535   3.237  28.684   3.651
23920W        W95536  29.925   2.577  12.406
23921W        W95537  43.955  10.110  12.100
23922W        W95538  12.083  17.253   4.950
23923W        W95539  38.996  30.960   3.157
23924W        W95540  33.431   9.386   4.616
23925W        W95541  38.968   3.938   2.220
23926W        W95542  23.768   7.315   1.586
23927W        W95543  12.339  13.555  13.052
23928W        W95544  40.629   8.921  10.381
23929W        W95545   0.013  15.583   1.411
23930W        W95546   6.904  12.246   1.445
23931W        W95547  33.569  11.423   0.881
23932W        W95548  31.345  13.677   4.787
23933W        W95549  27.495   0.269   1.243
23934W        W95550  25.455  18.118  10.149
23935W        W95551  12.344  19.103  13.840
23936W        W95552  13.779  27.541  10.643
23937W        W95553  43.749  13.753  14.850
23938W        W95554  39.251  10.196  14.274
23939W        W95555  16.536  25.555   3.101
23940W        W95556  12.355  15.691  13.960
23941W        W95557   0.941   9.759   1.756
23942W        W95558  41.935   0.381  10.687
23943W        W95559  20.060  17.214   0.533
23944W        W95560  21.096  17.802  11.025
23945W        W95561  22.195  39.749   2.383
23946W        W95562  31.985  18.949   4.461
23947W        W95563  32.548  28.931  10.252
23948W        W95564  36.114  16.851   4.574
23949W        W95565   4.501  12.118   1.442
23950W        W95566  21.182  20.224  12.463
23951W        W95567  18.546  32.815   1.339
23952W        W95568   5.384  35.085  13.710
23953W        W95569  20.804  11.262  14.890
23954W        W95570  12.512  34.617  11.781
23955W        W95571   1.465  12.683  13.808
23956W        W95572  19.241   8.783   2.148
23957W        W95573  26.087  39.275   3.286
23958W        W95574  32.672   5.933  12.422
23959W        W95575  18.639   2.733  12.499
23960W        W95576  30.462  30.908  10.117
23961W        W95577  24.008   0.283  12.029
23962W        W95578  33.052  39.112   1.854
23963W        W95579  24.729  28.437  11.012
23964W        W95580  42.314  16.070   2.352
23965W        W95581  42.542  39.094  11.953
23966W        W95582  39.114  21.694  14.961
23967W        W95583  28.213  31.678  13.455
23968W        W95584  32.183  38.845  13.591
23969W        W95585  44.515  22.263   3.297
23970W        W95586  15.832  16.261   0.468
23971W        W95587   7.235   7.605  11.525
23972W        W95588   5.215   4.940  11.720
23973W        W95589  42.381  27.257   1.027
23974W        W95590  42.589   9.878   1.300
23975W        W95591  20.387  22.231   3.553
23976W        W95592  40.585   4.343   2.313
23977W        W95593  24.739  43.870  11.951
23978W        W95594  20.118  32.529   0.747
23979W        W95595  14.130   2.425  12.323
23980W        W95596  22.300  17.123  14.472
23981W        W95597  38.857   1.253  14.342
23982W        W95598  29.059  18.242  12.050
23983W        W95599   2.650   1.697   4.313
23984W        W95600  30.010   4.830   3.771
23985W        W95601  33.449  38.138   1.949
23986W        W95602  10.301   7.151   0.600
23987W        W95603  38.367  39.498  11.356
23988W        W95604  37.803  39.647  12.539
23989W        W95605   6.969   8.391   3.928
23990W        W95606  18.562  19.353   1.407
23991W        W95607  32.359   5.660   4.146
23992W        W95608  26.643   7.255  14.168
23993W        W95609   3.449  22.428   3.639
23994W        W95610  21.883  21.526   3.188
23995W        W95611  29.200  27.733  13.330
23996W        W95612   7.793  32.993  14.879
23997W        W95613   2.720  20.257  12.969
23998W        W95614  44.170  40.495   3.729
23999W        W95615   1.898  32.565   2.615
24000W        W95616  35.563  37.348  10.707
24001W        W95617  18.122  23.254   1.001
24002W        W95618  42.036  13.860  12.503
24003W        W95619  10.407  18.153   1.928
24004W        W95620  15.911  15.147  14.498
24005W        W95621  18.080  16.716   3.160
24006W        W95622  12.594  29.639   1.872
24007W        W95623  35.184  35.574  13.354
24008W        W95624  43.094  13.067   5.337
24009W        W95625  39.499  34.072  11.164
24010W        W95626   1.883  24.748  14.601
24011W        W95627  44.046  11.766  12.645
24012W        W95628  33.398  27.206  13.887
24013W        W95629   8.937  39.910   0.372
24014W        W95630  31.905  17.285   1.808
24015W        W95631  33.034  35.053  14.521
24016W        W95632  30.985   9.426   1.386
24017W        W95633  21.133   5.158   0.704
24018W        W95634  33.825  25.991  14.400
24019W        W95635  20.576  24.447  14.810
24020W        W95636   2.931  19.202  14.172
24021W        W95637  36.857  23.156   0.339
24022W        W95638  35.095  35.757  14.708
24023W        W95639   3.177  16.191   1.235
24024W        W95640  44.801  11.731  13.951
24025W        W95641  20.445  35.354  13.360
24026W        W95642  34.618  41.186  14.835
24027W        W95643  32.901  23.093  12.186
24028W        W95644  21.421  24.947   1.824
24029W        W95645  26.396  23.822   2.178
24030W        W95646  22.009  22.544   0.310
24031W        W95647  37.717   7.102   4.629
24032W        W95648  41.980  28.460   1.863
24033W        W95649   5.241  24.042   3.056
24034W        W95650  19.687  35.129  10.658
24035W        W95651   0.391  19.034   3.154
24036W        W95652  27.981  26.179   4.673
24037W        W95653   3.422  17.273  13.517
24038W        W95654  35.437  36.138   3.506
24039W        W95655  40.861   7.190  14.167
24040W        W95656   0.566  22.059  13.525
24041W        W95657   0.907   3.812  14.376
24042W        W95658  29.875  42.910  13.334
24043W        W95659   7.182  31.601   2.110
24044W        W95660  10.149  27.570   4.116
24045W        W95661   9.085  18.891   2.708
24046W        W95662  15.793  43.989  12.022
24047W        W95663  24.111  33.933  14.933
24048W        W95664  37.435  10.645  14.477
24049W        W95665   5.953  38.097   3.660
24050W        W95666  36.109  17.543  14.292
24051W        W95667  15.306   0.552  12.756
24052W        W95668  28.009   4.132  14.865
24053W        W95669  42.482  23.491   0.702
24054W        W95670  41.186   6.421   0.848
24055W        W95671  26.689  29.543   1.380
24056W        W95672   8.294  30.396   1.509
24057W        W95673  39.808  20.381  14.889
24058W        W95674  11.141  42.344  14.033
24059W        W95675  30.149  12.855   2.222
24060W        W95676  24.206  11.812   3.603
24061W        W95677   3.678  42.719   0.477
24062W        W95678  39.933   3.200   2.676
24063W        W95679   6.042  26.305   1.460
24064W        W95680  29.979   0.178   2.668
24065W        W95681  33.916  30.893   2.774
24066W        W95682  15.073  42.516   2.247
24067W        W95683  17.767  39.308   3.974
24068W        W95684  30.006  43.778  11.135
24069W        W95685  34.089  36.881  11.026
24070W        W95686  31.898   7.981  14.915
24071W        W95687  20.123  15.113   3.267
24072W        W95688  28.425  20.100   3.167
24073W        W95689   7.782  33.694  10.702
24074W        W95690   7.824  33.848  11.683
24075W        W95691  13.395  26.545   3.303
24076W        W95692  17.110  43.732   1.276
24077W        W95693  27.700  37.311  11.134
24078W        W95694  14.526   1.893  13.491
24079W        W95695   5.532  30.073  14.384
24080W        W95696  27.768  20.885   1.315
24081W        W95697  16.131  43.098  10.527
24082W        W95698  29.361  25.992   3.004
24083W        W95699   9.913  18.170   1.049
24084W        W95700  26.567  22.360  14.305
24085W        W95701  40.406   6.964   1.826
24086W        W95702   9.159  18.829   1.722
24087W        W95703   8.433  37.566   2.189
24088W        W95704   8.205  28.266   1.797
24089W        W95705   3.482   5.234  13.324
24090W        W95706  20.238  37.516   4.205
24091W        W95707   0.757  33.913   2.177
24092W        W95708  43.419  22.058  11.499
24093W        W95709   8.751  25.241  11.949
24094W        W95710  32.951  24.406   0.730
24095W        W95711  44.530  27.273  12.442
24096W        W95712  21.583  11.344  12.992
24097W        W95713  20.057  13.669   1.274
24098W        W95714  32.181   7.311  13.839
24099W        W95715  13.342  16.367   1.809
24100W        W95716  26.161   8.607  10.524
24101W        W95717  35.843  17.974   1.271
24102W        W95718  10.917  20.544   2.738
24103W        W95719  28.582  40.898   4.289
24104W        W95720   9.493   4.942  10.283
24105W        W95721  22.412   9.156   3.293
24106W        W95722   3.917  36.374   3.330
24107W        W95723  13.210   6.604  11.976
24108W        W95724  32.510  34.065   4.500
24109W        W95725  14.704  33.494   3.749
24110W        W95726  31.613   7.072   2.741
24111W        W95727  27.484   1.938   3.892
24112W        W95728  34.533  13.858  10.713
24113W        W95729  15.329  33.967  10.665
24114W        W95730  32.038  29.136   1.237
24115W        W95731   0.425  31.680   0.298
24116W        W95732  34.457  44.357  12.959
24117W        W95733  27.244  15.035  11.169
24118W        W95734   6.012  30.636  12.422
24119W        W95735   4.270   3.193  12.121
24120W        W95736  29.183   6.036  11.736
24121W        W95737  20.141  31.350  13.484
24122W        W95738  31.587  32.585   0.852
24123W        W95739   4.598   5.860   2.296
24124W        W95740   6.874  10.832   1.208
24125W        W95741   9.259  37.624   0.141
24126W        W95742  23.237  40.131   4.465
24127W        W95743  40.905   6.273  12.039
24128W        W95744   8.617  23.006  12.020
24129W        W95745  19.444  20.577   1.619
24130W        W95746  22.710  35.161   1.650
24131W        W95747   6.266  12.027  11.549
24132W        W95748  15.175   8.761  12.628
24133W        W95749  19.321  17.020  13.066
24134W        W95750  20.286  19.209   1.463
24135W        W95751  42.231  32.448   2.349
24136W        W95752  12.167  16.819  10.746
24137W        W95753  14.722   5.476  12.865
24138W        W95754  19.281  30.576   1.193
24139W        W95755  10.906   1.888   4.804
24140W        W95756  26.462  24.684  10.747
24141W        W95757   2.903  12.250   4.943
24142W        W95758  28.331  43.893  13.058
24143W        W95759  44.355   6.702   1.976
24144W        W95760   1.379  33.292  14.796
24145W        W95761  19.519  31.190   4.756
24146W        W95762  37.750  22.355   4.504
24147W        W95763  10.204  40.071  11.587
24148W        W95764   0.737  27.704   3.285
24149W        W95765  17.615  15.259   4.592
24150W        W95766  11.549  43.682  11.938
24151W        W95767  22.606  21.606  13.072
24152W        W95768  26.175  18.469   0.670
24153W        W95769  24.174  34.447  12.607
24154W        W95770  21.613  40.005  11.011
24155W        W95771  20.583  18.065  14.741
24156W        W95772  30.497   5.250   1.954
24157W        W95773  31.360   9.937  11.125
24158W        W95774  42.274  28.479   3.711
24159W        W95775   9.713  32.549  10.560
24160W        W95776   1.405  37.040  14.423
24161W        W95777  30.446  43.472   1.781
24162W        W95778  31.043   6.823   1.956
24163W        W95779   3.648  21.832   9.626
24164W        W95780  17.258  20.111   2.653
24165W        W95781  11.354  41.524   4.175
24166W        W95782  25.165   5.624   1.285
24167W        W95783  29.396  10.707   1.908
24168W        W95784  17.723  33.455   3.219
24169W        W95785  41.898  25.524  14.799
24170W        W95786  10.440   5.938  13.956
24171W        W95787   0.915  19.037  13.449
24172W        W95788  15.802  13.748   1.316
24173W        W95789  29.389  27.858  14.965
24174W        W95790  35.154  33.255  10.959
24175W        W95791  41.753  16.714   2.308
24176W        W95792   8.266  33.101   1.040
24177W        W95793  40.399  34.840  14.725
24178W        W95794  43.533  30.114  13.478
24179W        W95795  21.293  33.946   2.162
24180W        W95796   7.262  17.980   3.658
24181W        W95797  40.389  39.539  12.281
24182W        W95798  33.506   9.689   3.634
24183W        W95799  41.550   1.419  10.656
24184W        W95800  16.969  28.419  10.823
24185W        W95801  33.529  40.441   3.593
24186W        W95802  26.727  15.329  14.762
24187W        W95803  25.896  35.109  12.046
24188W        W95804  35.300  32.271   4.222
24189W        W95805  15.936  24.962   1.386
24190W        W95806   7.984  36.770  14.914
24191W        W95807   6.874  30.011   4.196
24192W        W95808  42.228  33.719  14.918
24193W        W95809  20.063  15.634   3.185
24194W        W95810   6.335  37.840  10.913
24195W        W95811  29.101  14.697   1.696
24196W        W95812  29.282  25.337   0.353
24197W        W95813  37.052   4.890   0.725
24198W        W95814  37.631  10.852  14.018
24199W        W95815   8.266  30.416  10.455
24200W        W95816   8.837  25.758   1.339
24201W        W95817  40.508  37.578  13.311
24202W        W95818   0.573  42.827   3.796
24203W        W95819  20.858  32.841   1.216
24204W        W95820   5.373  20.735   2.733
24205W        W95821  25.213  32.130   2.637
24206W        W95822  18.286  12.347   0.032
24207W        W95823  23.767  36.111   2.770
24208W        W95824   6.334   8.415   1.702
24209W        W95825  24.709   6.808  10.788
24210W        W95826   8.268  30.922  12.583
24211W        W95827  11.363  15.796   4.117
24212W        W95828   1.452   3.398  10.677
24213W        W95829  41.466  22.466   0.257
24214W        W95830  38.922  39.012  12.497
24215W        W95831  14.366  15.508  14.903
24216W        W95832  29.103   6.516   4.627
24217W        W95833  17.235  34.950   0.884
24218W        W95834   6.854   6.948  12.182
24219W        W95835   7.341  35.672  12.035
24220W        W95836   6.787  18.522   2.440
24221W        W95837  19.490  40.323  11.155
24222W        W95838  41.033  17.764   4.220
24223W        W95839  20.952   7.879  13.368
24224W        W95840  39.837  19.390  14.508
24225W        W95841  41.565  19.914   4.672
24226W        W95842  11.151  27.652   3.807
24227W        W95843   4.991  27.688   3.695
24228W        W95844  21.128  41.124  11.972
24229W        W95845  33.994  12.805  14.033
24230W        W95846  23.977  23.794   1.187
24231W        W95847  43.052   5.768   0.963
24232W        W95848  20.234  17.801   1.752
24233W        W95849  32.157  17.691  11.072
24234W        W95850  30.992  39.118   2.329
24235W        W95851  12.572  27.874  13.419
24236W        W95852   8.059  13.704  13.480
24237W        W95853  21.085  29.140  14.542
24238W        W95854  43.852  19.541  10.781
24239W        W95855  16.672   9.594  12.916
24240W        W95856   6.682  25.491   4.297
24241W        W95857  32.666  10.654  11.526
24242W        W95858  16.356  23.116  11.019
24243W        W95859  12.838  33.985   1.972
24244W        W95860  42.399  18.273   0.842
24245W        W95861  34.582   9.315   2.239
24246W        W95862  22.721   8.804  12.501
24247W        W95863  25.522  39.281  11.168
24248W        W95864  39.625  42.313   0.122
24249W        W95865  14.596   6.764   1.818
24250W        W95866  38.336   3.222   3.619
24251W        W95867  44.829  33.618  13.518
24252W        W95868  32.586  29.428  11.233
24253W        W95869  25.257   6.883  14.952
24254W        W95870  20.334  25.980   3.884
24255W        W95871  38.071   9.770   4.239
24256W        W95872  23.982  43.002  12.512
24257W        W95873  38.723  40.844   4.215
24258W        W95874  44.914  24.948   0.003
24259W        W95875  17.733  17.115   1.047
24260W        W95876  20.562  23.644   1.259
24261W        W95877  37.986  12.491  11.228
24262W        W95878  16.658  12.415   4.858
24263W        W95879   8.567   6.690   1.338
24264W        W95880  39.980   7.196  14.397
24265W        W95881  30.659   6.554  14.753
24266W        W95882   8.423   5.291  10.752
24267W        W95883  25.054  10.398  11.082
24268W        W95884   7.670  14.760  11.815
24269W        W95885  18.612   4.596   4.744
24270W        W95886  19.543  27.940  10.957
24271W        W95887   8.921  20.135   1.345
24272W        W95888  19.316  23.999  12.058
24273W        W95889  32.994  11.745   1.477
24274W        W95890  39.250  38.989   4.926
24275W        W95891  29.620  19.131  13.983
24276W        W95892  30.552  19.225  14.053
24277W        W95893  15.522   1.770   1.489
24278W        W95894  20.131  43.032   3.290
24279W        W95895  38.336  16.654   1.774
24280W        W95896  11.754   9.435  12.489
24281W        W95897   8.287  27.997  13.346
24282W        W95898   7.145   0.316  10.322
24283W        W95899  21.169  38.744  13.019
24284W        W95900  15.071  30.915   1.936
24285W        W95901  25.983  26.029   3.772
24286W        W95902  14.108  33.475   2.332
24287W        W95903   1.404   6.510   2.402
24288W        W95904  23.041  38.564  12.083
24289W        W95905  41.398   7.634  13.513
24290W        W95906  26.863  26.523   3.729
24291W        W95907  24.492   8.249   1.904
24292W        W95908  32.782  30.321   4.181
24293W        W95909  32.809   5.034   1.923
24294W        W95910  30.540  30.667  11.879
24295W        W95911  30.852  40.903  14.799
24296W        W95912  30.312  36.800   4.171
24297W        W95913   3.262  30.712  11.121
24298W        W95914  17.906  35.368   0.371
24299W        W95915  17.270  38.602  11.530
24300W        W95916  10.437  19.536  11.995
24301W        W95917  44.764  25.670  11.056
24302W        W95918   0.925  33.601  12.022
24303W        W95919  34.041   0.427   4.644
24304W        W95920  32.532  36.922   3.656
24305W        W95921  29.584  18.860   2.813
24306W        W95922  32.362  13.829  12.956
24307W        W95923  23.201  12.822   0.460
24308W        W95924  10.675   2.394   1.363
24309W        W95925   0.477   4.165   4.149
24310W        W95926  10.655   2.797  13.069
24311W        W95927  22.712  38.869  10.122
24312W        W95928  14.356  25.129   3.885
24313W        W95929  13.039  29.555  13.522
24314W        W95930  10.388  44.981   4.058
24315W        W95931  37.449   5.400  12.379
24316W        W95932  30.434  19.814   0.995
24317W        W95933  25.715  29.000  13.937
24318W        W95934   9.357  15.651   4.957
24319W        W95935  41.336  26.050   2.878
24320W        W95936  37.048  27.938  10.407
24321W        W95937  39.947  38.961   0.373
24322W        W95938  15.162  19.274   9.976
24323W        W95939  10.551  34.452   3.300
24324W        W95940  17.286  18.606  14.374
24325W        W95941  29.391   3.161  10.740
24326W        W95942  25.478  34.451  11.696
24327W        W95943  25.705  22.136  12.013
24328W        W95944  33.505  10.128  13.427
24329W        W95945   3.294  10.594  11.706
24330W        W95946  10.154  12.142   3.378
24331W        W95947  21.648  41.030  11.743
24332W        W95948  43.969  25.081  12.350
24333W        W95949  19.927  40.953  13.060
24334W        W95950  37.067  25.464  14.861
24335W        W95951  25.118  30.653  11.521
24336W        W95952  43.752   2.854   1.467
24337W        W95953   0.809  30.149   2.395
24338W        W95954  38.411  37.537  14.395
24339W        W95955  14.222  10.027   3.261
24340W        W95956  28.175  14.570  10.160
24341W        W95957   7.731   0.809  13.458
24342W        W95958  41.066  13.107   4.511
24343W        W95959  31.088   3.920  10.658
24344W        W95960   4.927  24.944  12.621
24345W        W95961  43.172  17.628   0.851
24346W        W95962  27.437   8.733  12.428
24347W        W95963  15.624  17.628   2.014
24348W        W95964  41.484  43.980  11.649
24349W        W95965   7.453  18.260   0.781
24350W        W95966  16.938  11.388   0.103
24351W        W95967  26.096  20.848  12.555
24352W        W95968  29.651  30.865  11.463
24353W        W95969   1.248   4.693  11.245
24354W        W95970  23.756  27.064   4.092
24355W        W95971   6.903  39.588  12.454
24356W        W95972  41.744  23.295  10.943
24357W        W95973  28.216  14.348  13.563
24358W        W95974   9.764   0.808   4.869
24359W        W95975  16.819   5.848   1.334
24360W        W95976   3.397  43.772   4.259
24361W        W95977  29.056   1.494  11.074
24362W        W95978  34.871  35.147   4.379
24363W        W95979  20.637  10.728  11.158
24364W        W95980  24.610  19.154  13.005
24365W        W95981   0.056  35.453   1.792
24366W        W95982  36.751  10.604  14.768
24367W        W95983  31.470  35.381  12.146
24368W        W95984  41.714  43.308  11.034
24369W        W95985  11.365  36.519  11.237
24370W        W95986  12.664  30.012   0.291
24371W        W95987   7.872  28.551  11.876
24372W        W95988   4.136  28.831  11.632
24373W        W95989  44.510  43.559   4.617
24374W        W95990  28.973  28.816  10.716
24375W        W95991  16.659  30.437  12.956
24376W        W95992   4.557   1.839   5.060
24377W        W95993  38.521  28.978   2.932
24378W        W95994   6.304   1.740   4.153
24379W        W95995   9.388   6.730   2.895
24380W        W95996  38.400  24.077  11.132
24381W        W95997   7.711  39.772   4.585
24382W        W95998  42.818  32.962   3.660
24383W        W95999  14.296  17.087   3.719
24384W        W96000  21.666  35.017  14.933
24385W        W96001  16.414  40.338  10.749
24386W        W96002  38.928  21.143   0.919
24387W        W96003  43.295   7.949   2.384
24388W        W96004  25.997  12.359  11.223
24389W        W96005  38.103  11.308   0.591
24390W        W96006  16.625   5.142  14.150
24391W        W96007   3.770   6.930   0.441
24392W        W96008  43.985  18.883   0.835
24393W        W96009   8.181  10.593  10.645
24394W        W96010  40.096  35.300  13.379
24395W        W96011  41.203  11.337  13.904
24396W        W96012   2.983  12.121   2.414
24397W        W96013  33.606  26.611  14.728
24398W        W96014  32.438  23.531   1.394
24399W        W96015  25.501  21.187   3.120
24400W        W96016   9.269   3.375  14.746
24401W        W96017  32.900   3.841  13.336
24402W        W96018  28.124  22.204  14.252
24403W        W96019  44.235  14.584   0.813
24404W        W96020  37.056  32.616   2.481
24405W        W96021  22.990  28.438  11.196
24406W        W96022  25.936  37.009  11.552
24407W        W96023  33.528  13.272  14.271
24408W        W96024   7.288  10.697   1.940
24409W        W96025  17.774   9.250   4.360
24410W        W96026  25.123  39.270   4.144
24411W        W96027  44.317  13.767  11.553
24412W        W96028  36.585  22.188   0.756
24413W        W96029   7.814  28.166   4.255
24414W        W96030  40.286   3.818  14.991
24415W        W96031  25.153   2.348  14.584
24416W        W96032  24.289  17.899   1.391
24417W        W96033   2.360  19.467   3.342
24418W        W96034   4.286   5.613  14.508
24419W        W96035  40.321  35.952   1.965
24420W        W96036  44.699  37.595  11.509
24421W        W96037  12.854  34.029  13.546
24422W        W96038   5.431  19.185  12.489
24423W        W96039   3.403  31.385  11.595
24424W        W96040  15.008  18.717  11.181
24425W        W96041  34.956  15.090  14.485
24426W        W96042  29.965  37.150   1.068
24427W        W96043  15.768  20.943  14.909
24428W        W96044  43.408   1.468  14.508
24429W        W96045   3.830  28.939   3.109
24430W        W96046  40.013  26.138  11.989
24431W        W96047  18.571  10.276   2.203
24432W        W96048  32.241   9.239  13.403
24433W        W96049  33.277  42.276  11.422
24434W        W96050  37.013  31.120  14.238
24435W        W96051  13.112  39.910  12.000
24436W        W96052  11.314  24.749  14.977
24437W        W96053  20.033  44.897  12.264
24438W        W96054   7.463  35.806  13.790
24439W        W96055  15.799  31.572  11.607
24440W        W96056  10.202  17.473   2.287
24441W        W96057  44.020  29.385   1.776
24442W        W96058  43.030  41.629   3.133
24443W        W96059  33.005  13.818   2.197
24444W        W96060  32.979  41.097  13.933
24445W        W96061   5.020  20.805  10.368
24446W        W96062  33.452  23.407   3.026
24447W        W96063  32.635  43.538   4.531
24448W        W96064   0.217   4.214  11.134
24449W        W96065  34.156   1.836   1.914
24450W        W96066   2.802   0.297   2.910
24451W        W96067  15.968   5.509  11.480
24452W        W96068  35.603   1.519  13.798
24453W        W96069   5.668   3.816  11.874
24454W        W96070  36.540  34.887  13.753
24455W        W96071  33.329  11.807  12.678
24456W        W96072  19.174  30.514  12.042
24457W        W96073  38.281  39.356   4.096
24458W        W96074  42.967  16.650  12.318
24459W        W96075   1.696  15.567  10.519
24460W        W96076   1.774  32.046   4.124
24461W        W96077  41.272  37.457  13.095
24462W        W96078   7.402  23.727  14.038
24463W        W96079  31.697  16.315   1.760
24464W        W96080  38.320  15.245  10.658
24465W        W96081  24.272  16.448  14.791
24466W        W96082  44.292  41.816  13.518
24467W        W96083  18.580  14.138  11.915
24468W        W96084   0.045   4.966   3.640
24469W        W96085  22.101  22.214  11.033
24470W        W96086  20.742  15.153   1.713
24471W        W96087  16.824  38.318  13.541
24472W        W96088  32.909  20.173   4.553
24473W        W96089  29.091  16.092   4.629
24474W        W96090  16.028  27.427   3.485
24475W        W96091  16.714  19.554  12.456
24476W        W96092  30.392  10.118   1.715
24477W        W96093  26.530  16.268   0.939
24478W        W96094  17.350   2.250   2.495
24479W        W96095  29.207  25.541  11.899
24480W        W96096  11.718  12.341  10.413
24481W        W96097   2.811  37.657   1.807
24482W        W96098  32.548   5.026  13.558
24483W        W96099  27.054   1.803  12.007
24484W        W96100   8.826  14.190  13.386
24485W        W96101  20.738  34.989   3.160
24486W        W96102  15.510  26.538   3.671
24487W        W96103  31.398  15.989   1.280
24488W        W96104  28.331  30.907  12.853
24489W        W96105  43.797  19.019   2.253
24490W        W96106  31.707   4.228   0.995
24491W        W96107  41.013  27.215   1.394
24492W        W96108  23.664  30.011   2.183
24493W        W96109  18.583  35.017   3.377
24494W        W96110  32.994   7.993   0.006
24495W        W96111   6.202  44.078  11.114
24496W        W96112  21.306  25.182  14.822
24497W        W96113  26.104  43.348   1.204
24498W        W96114  37.495  14.795   1.638
24499W        W96115   3.485  27.470   4.931
24500W        W96116  15.528  16.841  13.474
24501W        W96117   5.005  25.091  11.951
24502W        W96118  40.433   0.266   3.296
24503W        W96119   4.820  10.854   3.659
24504W        W96120  20.664  20.557  13.390
24505W        W96121  19.106  43.766  14.694
24506W        W96122  41.721  23.049  14.489
24507W        W96123   8.392   8.249  10.937
24508W        W96124  30.286  41.779   1.509
24509W        W96125   4.848  25.734   0.849
24510W        W96126  37.502   7.145   3.341
24511W        W96127   5.489   2.847   4.143
24512W        W96128  29.411  28.763   1.185
24513W        W96129  10.867  14.722   4.807
24514W        W96130   4.219   5.840  10.609
24515W        W96131  32.665  29.980  11.208
24516W        W96132  22.276  19.124   0.100
24517W        W96133  16.255  24.525   1.959
24518W        W96134  41.430  23.414   2.255
24519W        W96135  44.430  29.195   0.456
24520W        W96136   1.729  23.130   3.143
24521W        W96137  24.204  41.596  12.556
24522W        W96138  29.904   4.350  13.398
24523W        W96139  34.995  40.407  14.656
24524W        W96140  27.643  11.574  13.831
24525W        W96141  13.371  12.140   0.681
24526W        W96142   9.417  30.607  13.350
24527W        W96143   7.446  35.112  14.328
24528W        W96144  27.043  34.018  12.382
24529W        W96145   2.944  37.921  14.079
24530W        W96146  41.895  25.920   0.730
24531W        W96147  35.066  29.368  11.063
24532W        W96148  15.319  32.400  12.856
24533W        W96149  10.847  13.010  13.026
24534W        W96150  29.321   7.536   1.189
24535W        W96151  33.061  26.429  11.443
24536W        W96152  29.156   1.734   4.603
24537W        W96153   9.064  25.690  13.395
24538W        W96154   8.750  33.470  13.071
24539W        W96155  15.824   2.796  13.036
24540W        W96156  30.458  11.661   0.048
24541W        W96157  21.147   0.774  14.778
24542W        W96158  24.351  18.680  13.045
24543W        W96159   1.878  24.771  12.077
24544W        W96160   6.380   3.448  12.975
24545W        W96161   8.965  18.458   4.090
24546W        W96162   9.650   3.331  14.368
24547W        W96163  40.501  24.603   0.367
24548W        W96164  29.057  17.661  11.912
24549W        W96165   5.808   4.514  12.397
24550W        W96166  40.805  28.467  13.590
24551W        W96167  21.895   6.075  11.594
24552W        W96168  33.413   5.340  10.244
24553W        W96169  16.105  43.478   0.865
24554W        W96170   5.281   1.965   1.368
24555W        W96171  42.745  12.716  12.360
24556W        W96172  44.321  40.502   2.426
24557W        W96173  30.073  20.170   3.130
24558W        W96174  33.395   5.726   4.145
24559W        W96175  12.221  33.531  12.388
24560W        W96176  24.145  16.564  14.288
24561W        W96177  17.069  30.831  12.489
24562W        W96178   7.933   8.072   4.804
24563W        W96179  22.063  41.502  11.019
24564W        W96180  24.759  33.121  12.413
24565W        W96181  43.901  43.803  12.407
24566W        W96182  43.512  26.586   3.684
24567W        W96183   9.119  29.537   0.254
24568W        W96184  31.909  44.207  14.167
24569W        W96185  26.038  28.283   2.821
24570W        W96186  36.010  32.438  14.051
24571W        W96187  40.018  41.068   0.914
24572W        W96188  22.547  32.910   4.814
24573W        W96189   8.916  38.553  11.937
24574W        W96190  16.435  32.636   0.918
24575W        W96191  16.569   6.343   2.353
24576W        W96192  42.394   3.537  12.534
24577W        W96193  21.252   1.846   4.225
24578W        W96194   2.266  17.125  14.281
24579W        W96195  14.178  41.472   0.435
24580W        W96196  28.662   8.286   2.284
24581W        W96197   7.369  28.719   3.687
24582W        W96198   5.216  19.184   1.730
24583W        W96199   9.187  20.578   2.342
24584W        W96200  13.630  25.431  11.143
24585W        W96201  18.192  19.991  13.411
24586W        W96202  37.596  23.092  13.318
24587W        W96203  43.041  24.258  13.415
24588W        W96204  18.823  18.909   1.676
24589W        W96205  19.821  18.258  10.587
24590W        W96206  42.577  25.465  10.593
24591W        W96207  23.530  25.719  12.970
24592W        W96208   0.462  26.879  11.116
24593W        W96209  18.137  12.431   0.876
24594W        W96210  31.896  24.603  12.929
24595W        W96211  30.835  36.944   4.347
24596W        W96212  35.634  27.622   3.639
24597W        W96213   6.221   8.457   0.681
24598W        W96214   9.912   5.837   2.005
24599W        W96215  43.745  23.068  14.912
24600W        W96216  44.941  15.090   4.064
24601W        W96217   7.880  42.426   2.383
24602W        W96218   5.046  12.187  13.379
24603W        W96219   6.528  33.804  11.222
24604W        W96220  16.817  12.170  12.166
24605W        W96221  18.751  17.329   1.716
24606W        W96222  32.437  22.570   1.871
24607W        W96223  15.322   8.960  14.019
24608W        W96224  16.856   2.861   4.238
24609W        W96225  40.526  41.806   0.870
24610W        W96226  17.300  16.936   2.755
24611W        W96227   4.837  14.320   3.722
24612W        W96228  43.852  38.977   0.870
24613W        W96229  28.604  36.318  11.038
24614W        W96230   7.957  44.001  11.965
24615W        W96231  38.597   0.630   3.048
24616W        W96232  27.756  16.620   4.610
24617W        W96233  11.434  18.644  10.665
24618W        W96234  30.543  21.776   4.497
24619W        W96235   7.742  19.087   4.555
24620W        W96236  11.726  34.977   2.205
24621W        W96237  18.089  38.102   1.016
24622W        W96238  44.306  44.520   0.931
24623W        W96239  39.402  41.761   4.351
24624W        W96240   2.366  22.825  14.129
24625W        W96241   5.127  41.129   0.977
24626W        W96242  17.599  22.643  13.808
24627W        W96243  29.547  11.402  14.834
24628W        W96244   1.779  31.185  14.823
24629W        W96245  27.440  42.042  14.721
24630W        W96246  20.037  14.375  12.350
24631W        W96247  31.385  42.512  13.943
24632W        W96248  37.941  43.419  13.056
24633W        W96249   7.089  14.435   2.350
24634W        W96250  30.006  28.846  10.257
24635W        W96251  11.169   1.517  12.322
24636W        W96252  34.387   2.652  14.541
24637W        W96253  23.252  30.878   2.332
24638W        W96254  30.178  27.681   5.141
24639W        W96255  12.893  30.049   1.773
24640W        W96256  17.464   5.310  12.542
24641W        W96257  26.865  42.835  14.392
24642W        W96258  16.050  30.946  10.459
24643W        W96259  42.769  39.402  10.846
24644W        W96260  28.444  18.036  10.350
24645W        W96261  42.273   2.245  12.067
24646W        W96262  29.134  27.009   2.719
24647W        W96263  30.163  13.615   4.092
24648W        W96264  37.230  37.243  11.437
24649W        W96265  36.596  19.632   0.823
24650W        W96266  15.236   0.932   1.258
24651W        W96267  13.366  37.953   2.856
24652W        W96268   4.710  37.887  13.059
24653W        W96269   8.165  23.985   1.881
24654W        W96270  28.929   4.185  13.695
24655W        W96271  42.532   7.414  13.925
24656W        W96272  13.802  27.804   2.723
24657W        W96273  36.360  17.464   2.339
24658W        W96274   5.925   3.814   4.151
24659W        W96275  40.819   7.870   3.341
24660W        W96276  42.560  12.907   0.827
24661W        W96277  26.033  12.642  14.900
24662W        W96278   5.246  15.618   1.855
24663W        W96279   5.197  31.975  14.368
24664W        W96280  28.938  29.659   1.268
24665W        W96281  20.024   9.342  12.918
24666W        W96282  23.751  28.460   1.760
24667W        W96283  17.628   8.150  12.125
24668W        W96284  23.648  17.648   3.054
24669W        W96285  14.134  20.527  14.798
24670W        W96286   0.030  23.671   3.895
24671W        W96287   8.130  12.882   1.759
24672W        W96288  26.928  42.335   3.841
24673W        W96289  44.414  17.486   3.752
24674W        W96290  15.403   4.928   4.574
24675W        W96291  13.020  32.556   4.073
24676W        W96292   0.396  18.061  12.935
24677W        W96293  36.482  41.266  10.157
24678W        W96294  37.397  43.229  13.000
24679W        W96295  19.082  34.564  12.621
24680W        W96296  41.864  21.031   2.675
24681W        W96297   7.747  36.804   2.195
24682W        W96298  12.402  44.792   4.693
24683W        W96299  29.434  12.295   2.404
24684W        W96300  34.824  44.062   4.736
24685W        W96301  19.806  36.823  11.149
24686W        W96302  19.647  41.743  14.096
24687W        W96303   6.809  10.379   2.611
24688W        W96304  38.902  21.233   3.550
24689W        W96305  19.524  27.977   1.860
24690W        W96306  40.580   6.188  13.153
24691W        W96307  43.572  26.127   2.412
24692W        W96308  17.354  13.594   3.273
24693W        W96309  20.067  32.978  14.754
24694W        W96310  28.006   6.287  10.765
24695W        W96311   7.229  19.794  13.108
24696W        W96312  40.476  24.772   3.603
24697W        W96313  32.400  30.877  14.850
24698W        W96314  31.980  12.604   2.689
24699W        W96315   5.930  12.282   4.611
24700W        W96316   4.440  38.358   4.148
24701W        W96317  35.049   8.653  14.371
24702W        W96318   1.293  15.561   1.479
24703W        W96319  21.297  22.640   3.623
24704W        W96320  30.888  42.704   1.894
24705W        W96321  28.540  19.713  13.150
24706W        W96322  15.617  36.313   5.115
24707W        W96323  24.552  40.187  14.882
24708W        W96324  34.674  26.646  11.147
24709W        W96325  28.673  30.637  14.536
24710W        W96326  13.184  18.471  10.904
24711W        W96327   5.783  22.977   0.009
24712W        W96328   7.796   4.695   3.588
24713W        W96329  14.393  11.710  12.611
24714W        W96330  19.403  25.653   3.227
24715W        W96331  17.273  38.075   3.995
24716W        W96332  10.335  41.522  12.324
24717W        W96333  22.670  42.310  11.957
24718W        W96334  27.518  33.341   3.193
24719W        W96335   5.971  12.798   3.443
24720W        W96336  22.090  36.428  14.515
24721W        W96337  35.064   5.700  12.938
24722W        W96338  34.068  36.060   4.553
24723W        W96339   1.766   0.464   4.103
24724W        W96340   5.352  32.939   4.459
24725W        W96341  26.968   5.293   0.191
24726W        W96342  12.222   1.320  10.526
24727W        W96343  16.946  37.590  11.047
24728W        W96344  10.124  28.631  12.514
24729W        W96345  37.621  34.644  12.837
24730W        W96346   1.650  24.012   3.982
24731W        W96347   8.234  40.793   2.674
24732W        W96348  33.508  29.575  10.238
24733W        W96349  43.055   6.143   1.323
24734W        W96350  11.271  42.920   1.747
24735W        W96351  30.342  31.083  13.168
24736W        W96352  38.489  40.827   3.776
24737W        W96353   4.012  33.560   4.021
24738W        W96354  21.308   2.249   3.205
24739W        W96355  16.273  22.523   2.786
24740W        W96356  34.000  28.540   2.683
24741W        W96357  28.367  30.147  12.935
24742W        W96358  43.153  17.665  13.119
24743W        W96359  15.686  31.351   4.355
24744W        W96360  21.246  25.033   0.760
24745W        W96361  34.969  29.800   2.862
24746W        W96362  44.652  10.699   3.311
24747W        W96363   9.900  13.204   4.392
24748W        W96364   7.722  36.925   4.011
24749W        W96365  19.080  31.875   0.139
24750W        W96366  35.274  24.958   4.599
24751W        W96367  28.843  24.238   1.810
24752W        W96368  25.110  14.734   4.590
24753W        W96369  23.192   3.848   0.735
24754W        W96370  36.364  21.517  11.088
24755W        W96371   6.927  40.396   4.151
24756W        W96372   8.198   5.394  13.544
24757W        W96373  16.617  16.177   4.586
24758W        W96374  19.230  42.935  13.258
24759W        W96375  41.876  16.074   1.202
24760W        W96376  15.755  13.877   4.844
24761W        W96377  17.359   1.289  13.439
24762W        W96378   8.883  17.025   4.759
24763W        W96379  13.188  23.608  11.116
24764W        W96380  26.384   0.290  12.054
24765W        W96381  29.447  22.224  10.413
24766W        W96382  38.296   9.320  11.522
24767W        W96383  42.515   0.878  12.807
24768W        W96384  36.261  15.643  11.569
24769W        W96385  38.826  23.738  14.974
24770W        W96386  16.001  13.625   0.010
24771W        W96387  37.588  30.354  13.348
24772W        W96388  15.774  14.271  14.013
24773W        W96389  21.193  11.236   4.114
24774W        W96390  20.442  14.265  10.964
24775W        W96391   2.837  36.005   0.915
24776W        W96392  38.012  20.534  11.703
24777W        W96393  41.314  35.562   2.912
24778W        W96394  14.682   9.138   1.544
24779W        W96395  27.392  38.649  12.065
24780W        W96396  20.247  27.513  14.015
24781W        W96397  15.801  20.163   2.899
24782W        W96398  32.998  12.077   0.756
24783W        W96399  35.407  38.841  10.739
24784W        W96400  42.086  18.298  14.445
24785W        W96401  11.099  25.908   1.768
24786W        W96402  35.096  12.233   1.351
24787W        W96403   6.004  39.839   3.063
24788W        W96404  33.545  24.174  10.936
24789W        W96405  38.816  28.179  11.608
24790W        W96406   4.834   1.600   4.176
24791W        W96407  15.004  41.476   0.433
24792W        W96408   2.541  19.802  10.724
24793W        W96409  39.906   6.796   4.290
24794W        W96410   3.336  41.007  12.389
24795W        W96411  26.091  11.084  11.663
24796W        W96412   5.577  27.052   3.350
24797W        W96413  42.824   3.457   2.775
24798W        W96414  32.422   7.448   2.850
24799W        W96415  43.036  17.874   1.876
24800W        W96416   6.938  43.719   3.221
24801W        W96417  17.856  41.560  11.154
24802W        W96418  12.600   4.742   0.855
24803W        W96419  26.253   7.808  13.445
24804W        W96420  14.354  29.445  10.609
24805W        W96421  26.709  25.989  14.339
24806W        W96422  31.930  43.373  10.983
24807W        W96423  29.002   0.076  14.349
24808W        W96424   1.377  24.182   1.419
24809W        W96425  44.041  24.001  13.397
24810W        W96426  29.167  43.329   3.824
24811W        W96427  11.368   2.269   3.607
24812W        W96428  39.402  43.463   3.677
24813W        W96429  37.142  27.738   3.222
24814W        W96430  16.701  26.552  12.930
24815W        W96431  12.210  27.492  11.120
24816W        W96432  14.896  32.689  12.870
24817W        W96433  26.374  42.981   2.113
24818W        W96434   6.449   3.940  14.755
24819W        W96435  10.281   5.927  12.500
24820W        W96436   5.892   8.602  11.247
24821W        W96437  13.677  14.214  14.877
24822W        W96438  25.954  13.706   0.833
24823W        W96439  34.562  18.677  13.376
24824W        W96440  26.239  35.615   1.469
24825W        W96441  37.332  27.607   2.139
24826W        W96442  20.832   5.312   1.444
24827W        W96443  21.976  25.716  14.282
24828W        W96444  32.013  33.817  12.558
24829W        W96445  23.992  27.455  14.349
24830W        W96446  28.154  10.916   0.435
24831W        W96447  22.739  41.008  10.668
24832W        W96448  37.994  28.012   3.784
24833W        W96449  20.594  17.756   0.765
24834W        W96450  38.284  27.721   4.111
24835W        W96451  31.617   2.214  10.079
24836W        W96452   0.879   2.854   4.558
24837W        W96453  12.732   5.319   3.557
24838W        W96454  29.428  34.514   2.403
24839W        W96455   0.786   3.343  14.570
24840W        W96456  34.240  13.276  11.976
24841W        W96457  10.173   6.446  11.050
24842W        W96458   2.159  21.479   3.200
24843W        W96459  29.502  11.266  13.857
24844W        W96460   8.688   6.879   4.169
24845W        W96461  44.057  12.205   0.261
24846W        W96462   2.930   5.938   4.237
24847W        W96463  36.155   6.497  14.514
24848W        W96464  41.861  44.743  12.559
24849W        W96465   1.836   7.347  11.770
24850W        W96466  13.575  14.150   1.379
24851W        W96467  19.647  16.504   1.679
24852W        W96468  24.978  25.730  12.117
24853W        W96469   9.283  10.396  12.379
24854W        W96470   2.344  29.607  10.710
24855W        W96471  41.561  26.908   4.169
24856W        W96472  28.804  39.624   0.136
24857W        W96473  11.169  15.314   3.659
24858W        W96474  16.301  42.458  14.951
24859W        W96475  17.623  29.506  13.043
24860W        W96476   3.300  44.594  11.899
24861W        W96477  10.815  30.526  12.830
24862W        W96478   5.867  27.693   1.388
24863W        W96479  26.535  39.539   3.259
24864W        W96480  43.516  18.082   4.700
24865W        W96481  29.014  34.062  11.196
24866W        W96482   9.618   7.737  11.173
24867W        W96483  31.237  15.878  11.107
24868W        W96484   7.930   5.410  11.609
24869W        W96485  35.272   1.278  11.175
24870W        W96486  28.990  42.710  13.022
24871W        W96487  27.503  33.519  13.453
24872W        W96488  36.431  16.278  12.692
24873W        W96489  33.376  28.146  12.864
24874W        W96490  24.542  25.087   1.242
24875W        W96491  41.429  37.150  10.651
24876W        W96492  13.512  39.328  12.802
24877W        W96493   0.984  17.767   2.837
24878W        W96494   8.635  19.103   2.473
24879W        W96495   6.782  30.965  14.801
24880W        W96496  36.040  28.561   2.431
24881W        W96497  31.046  37.291  10.738
24882W        W96498  24.046  33.711  11.096
24883W        W96499  37.620   4.399   2.700
24884W        W96500  38.047  38.326  14.056
24885W        W96501  27.616   0.977   4.576
24886W        W96502   1.482  11.771  12.887
24887W        W96503   0.963  32.057   3.739
24888W        W96504   5.710  14.929  11.053
24889W        W96505  30.715  31.598   3.239
24890W        W96506  30.916  42.441  12.665
24891W        W96507   1.115  37.531   2.420
24892W        W96508  33.081  27.412  11.637
24893W        W96509   8.176  34.020  10.672
24894W        W96510   0.258   1.405   2.950
24895W        W96511  13.707  11.480  11.215
24896W        W96512  35.577  10.315  12.483
24897W        W96513  16.182  31.132   4.327
24898W        W96514   3.090  19.267  13.660
24899W        W96515  24.778  44.892  11.188
24900W        W96516  16.824  43.003  14.495
24901W        W96517  24.304  41.360   1.629
24902W        W96518  11.628   1.909  14.883
24903W        W96519  14.683  37.815   0.530
24904W        W96520  32.180  37.894  13.480
24905W        W96521  33.651  18.980  12.513
24906W        W96522  39.072   8.852  12.470
24907W        W96523  40.082  26.031   0.481
24908W        W96524   8.850  41.504  14.438
24909W        W96525  36.451   6.689   1.780
24910W        W96526  36.317  39.780   3.209
24911W        W96527  34.181  38.149  11.121
24912W        W96528  15.969  27.063  10.223
24913W        W96529   4.037  37.336  14.755
24914W        W96530  20.682  22.767   2.623
24915W        W96531   0.003  37.367   5.282
24916W        W96532  40.914  14.556   1.953
24917W        W96533  19.080   2.251   4.863
24918W        W96534  23.241  27.184  11.435
24919W        W96535  41.495  22.175   3.245
24920W        W96536  36.160  27.124  13.024
24921W        W96537  28.080  34.042   3.434
24922W        W96538  17.356  33.078   4.546
24923W        W96539  32.930   0.275  10.333
24924W        W96540  36.929  36.815   2.311
24925W        W96541  36.497  40.053   4.652
24926W        W96542  24.960   8.583  10.721
24927W        W96543  11.287  42.484   0.909
24928W        W96544  33.506  41.841   1.754
24929W        W96545  30.925  29.386  11.210
24930W        W96546   3.444   7.345  13.867
24931W        W96547  33.900  14.087  11.688
24932W        W96548  13.078  16.425  13.573
24933W        W96549   9.951  31.402  11.188
24934W        W96550  21.605  17.841  12.375
24935W        W96551  12.614  34.838  13.942
24936W        W96552  17.122  40.796   2.835
24937W        W96553  22.342  36.416  10.712
24938W        W96554  29.939  42.027   2.461
24939W        W96555  20.510  29.008  12.020
24940W        W96556  26.102  38.004  11.855
24941W        W96557  41.086  21.498   1.516
24942W        W96558   7.267  42.959  11.636
24943W        W96559  24.906  40.052  12.665
24944W        W96560  40.616  34.992   3.731
24945W        W96561   3.303  37.533   1.879
24946W        W96562  27.942   3.921  10.698
24947W        W96563  29.358  16.678  14.488
24948W        W96564   7.389  22.039   2.823
24949W        W96565  40.359  43.076   3.779
24950W        W96566  35.491  37.122  13.270
24951W        W96567   5.530  14.668  12.843
24952W        W96568  19.476  12.062   5.053
24953W        W96569  41.258   9.116   0.970
24954W        W96570  14.822  24.033  10.398
24955W        W96571   7.467  24.262   1.269
24956W        W96572  25.976  15.815   4.892
24957W        W96573  24.240   6.137   1.256
24958W        W96574   7.642  15.213  11.564
24959W        W96575   0.679  33.931  13.088
24960W        W96576  31.974   6.816   2.427
24961W        W96577  29.170   0.529   1.274
24962W        W96578   3.103  35.815  12.872
24963W        W96579  29.282  30.677   2.786
24964W        W96580  14.761  28.350  13.007
24965W        W96581   4.662  35.309   2.736
24966W        W96582  13.813  40.843   3.461
24967W        W96583  36.427  35.767   2.669
24968W        W96584  14.079  39.296   2.715
24969W        W96585  25.565  22.502   3.392
24970W        W96586  11.506  26.835   5.157
24971W        W96587  33.502  16.360   1.629
24972W        W96588  44.422  11.996  11.744
24973W        W96589  22.578  14.166   4.614
24974W        W96590  19.888  14.708  13.451
24975W        W96591  19.079  20.158  10.610
24976W        W96592  31.965   8.245   1.670
24977W        W96593   4.021   7.091   2.726
24978W        W96594  26.511  17.549  12.997
24979W        W96595  10.133  27.181  12.389
24980W        W96596  34.598  11.173  14.458
24981W        W96597  33.020  19.765   2.735
24982W        W96598   6.769  27.670   4.286
24983W        W96599  38.936  15.311   4.715
24984W        W96600  39.036  36.905   4.070
24985W        W96601  18.795  35.875   3.707
24986W        W96602  37.523  15.065  13.530
24987W        W96603  29.692   2.735  14.809
24988W        W96604  16.290   0.536   0.903
24989W        W96605  13.949  30.020   1.863
24990W        W96606   9.999  42.790   3.220
24991W        W96607  36.774   2.197  13.465
24992W        W96608   0.504  38.670   3.221
24993W        W96609  10.244   9.624   4.190
24994W        W96610  44.710   7.827   1.357
24995W        W96611  37.137  13.395   4.862
24996W        W96612  26.097  32.672   4.551
24997W        W96613  11.235  42.980   0.173
24998W        W96614  38.138  33.894  10.659
24999W        W96615  37.184  40.951   1.764
25000W        W96616  20.512   3.984   0.031
25001W        W96617  24.726  17.708  14.687
25002W        W96618  17.855  20.481  12.817
25003W        W96619  39.431  36.488   0.381
25004W        W96620  12.926  14.812   2.138
25005W        W96621  19.235  18.565  11.195
25006W        W96622  21.659  37.131   1.761
25007W        W96623  39.551  20.016  12.019
25008W        W96624  19.585  26.105  13.065
25009W        W96625  43.328  44.205  13.912
25010W        W96626  10.256  23.429  14.807
25011W        W96627  33.449  43.212  14.389
25012W        W96628  28.397  32.872  11.365
25013W        W96629  16.797  37.619  14.876
25014W        W96630  26.094  16.133  11.639
25015W        W96631   8.563  20.213   1.720
25016W        W96632  10.384  36.398  14.677
25017W        W96633  29.693  13.902   3.629
25018W        W96634  24.023   7.413   4.932
25019W        W96635  41.788  30.180  14.542
25020W        W96636   3.726  10.592   4.140
25021W        W96637   0.536  30.619  13.212
25022W        W96638  20.633  30.231  11.567
25023W        W96639  31.644  30.222  12.664
25024W        W96640   8.092  24.213  12.851
25025W        W96641  41.097  29.694   5.082
25026W        W96642   6.900   3.256   1.391
25027W        W96643  23.094  44.929   2.532
25028W        W96644  25.661  19.337  13.533
25029W        W96645  13.765   6.245   3.889
25030W        W96646  18.250   9.129  13.389
25031W        W96647   6.725  20.925  12.427
25032W        W96648  44.327  29.761  11.980
25033W        W96649  35.931  43.423  12.898
25034W        W96650  37.578  10.814  11.696
25035W        W96651  37.899  32.552   2.482
25036W        W96652  26.709  14.108   4.714
25037W        W96653  23.059  29.173   4.942
25038W        W96654  32.490  42.053   1.770
25039W        W96655  17.150  36.125  11.615
25040W        W96656  33.541  24.118   4.748
25041W        W96657  14.857  17.756   0.881
25042W        W96658  11.323  38.549  13.909
25043W        W96659  15.810   3.530  10.639
25044W        W96660  43.092  27.647   0.854
25045W        W96661  42.369  23.003   3.284
25046W        W96662   2.354  27.987   3.191
25047W        W96663  28.203   5.491   3.655
25048W        W96664  31.544  18.486  12.474
25049W        W96665  41.812  21.660  13.441
25050W        W96666  24.575  15.792  12.838
25051W        W96667  40.998  34.220   4.096
25052W        W96668  23.592   9.952   4.897
25053W        W96669  26.548  16.722   0.677
25054W        W96670   1.631  14.102  12.305
25055W        W96671  13.398  37.481  12.792
25056W        W96672  26.047  30.937  11.119
25057W        W96673  28.686  32.507  12.587
25058W        W96674  31.996  13.136  13.821
25059W        W96675  15.168  15.661   2.812
25060W        W96676  26.833  29.841  12.059
25061W        W96677  33.935  28.229  11.142
25062W        W96678  11.211   2.988  12.801
25063W        W96679  31.705  10.364   4.318
25064W        W96680  25.762  19.223   3.354
25065W        W96681  28.122   1.705  12.977
25066W        W96682  28.122   8.149   2.230
25067W        W96683  14.921  32.668   2.408
25068W        W96684  13.263   2.328  14.314
25069W        W96685  44.433   2.452   0.499
25070W        W96686  40.016   6.351  14.470
25071W        W96687  20.889  41.960  12.459
25072W        W96688  29.475  11.782   0.169
25073W        W96689  14.259  35.021  12.081
25074W        W96690  34.016  33.220   0.206
25075W        W96691  28.731  10.917   4.187
25076W        W96692   1.989  41.986   0.254
25077W        W96693  16.113  11.263   3.767
25078W        W96694   9.879  14.912  10.609
25079W        W96695   7.386  33.090  12.969
25080W        W96696  38.051  28.986   2.210
25081W        W96697  34.866  44.017   0.163
25082W        W96698  13.224  38.985   2.597
25083W        W96699  42.798  15.155  14.545
25084W        W96700  24.576   7.802   2.326
25085W        W96701  34.080   7.917   0.392
25086W        W96702  31.477   4.623  12.425
25087W        W96703   1.798  33.473  14.048
25088W        W96704  14.766  20.031  14.387
25089W        W96705  36.343  13.337  10.280
25090W        W96706  41.378   9.693   1.846
25091W        W96707  39.020  19.782   3.295
25092W        W96708  25.210  28.574   3.392
25093W        W96709  28.046  41.199  10.697
25094W        W96710  38.402  44.191  11.020
25095W        W96711  41.972  42.804  11.673
25096W        W96712  43.964  32.084  14.340
25097W        W96713  32.685  14.317  11.125
25098W        W96714  13.345   4.157  10.365
25099W        W96715  43.921  22.150   1.124
25100W        W96716  15.342  44.804  12.074
25101W        W96717  33.053  37.809  14.716
25102W        W96718  15.476  31.189  13.809
25103W        W96719  16.827  11.272   1.283
25104W        W96720  20.100  30.412  11.610
25105W        W96721   9.604  28.142  11.784
25106W        W96722  42.752  40.540   1.456
25107W        W96723  37.893  12.788  13.391
25108W        W96724   5.358  44.478   2.457
25109W        W96725  29.669  19.061   1.409
25110W        W96726  32.545  15.349  12.991
25111W        W96727   1.517  21.767   0.475
25112W        W96728  40.068   8.809  12.408
25113W        W96729   0.849  37.036   9.805
25114W        W96730   9.760  14.752   2.433
25115W        W96731  23.499  14.729   1.051
25116W        W96732  13.454   1.606  11.633
25117W        W96733  17.588  30.125  10.560
25118W        W96734   2.869  34.772  11.466
25119W        W96735  28.056   1.898  10.297
25120W        W96736  27.518  37.684   0.333
25121W        W96737  44.809  43.027  13.754
25122W        W96738  28.028   5.345   4.115
25123W        W96739  41.779  17.540   0.907
25124W        W96740  29.519  35.808  14.766
25125W        W96741  13.099  42.597  12.048
25126W        W96742  22.524  40.050  13.381
25127W        W96743  16.122  13.825   2.105
25128W        W96744  14.140  33.241  13.971
25129W        W96745  32.423  33.604   2.334
25130W        W96746  21.203  32.721   1.683
25131W        W96747  43.623  23.570   1.746
25132W        W96748  23.969  35.655  14.229
25133W        W96749  37.763   3.977  13.391
25134W        W96750  37.380  43.430  14.959
25135W        W96751  15.531   9.851   1.195
25136W        W96752  26.160  10.095  10.710
25137W        W96753  12.375   7.649   0.288
25138W        W96754   3.672   1.450   2.715
25139W        W96755   4.973  12.372   4.943
25140W        W96756  29.999  13.513  14.936
25141W        W96757  38.089   7.657  10.658
25142W        W96758  34.858  35.354   1.106
25143W        W96759  11.234  42.282  11.409
25144W        W96760  37.450  25.930   3.509
25145W        W96761  22.195  14.298  12.671
25146W        W96762  24.587  36.300  10.949
25147W        W96763   3.799  11.307   0.523
25148W        W96764   1.642  40.857   1.429
25149W        W96765  37.224  35.812  12.576
25150W        W96766  14.192  32.064   4.845
25151W        W96767  43.237   9.154   3.651
25152W        W96768  37.191  10.167  12.209
25153W        W96769  38.820   7.290  14.338
25154W        W96770   3.344  44.067  11.952
25155W        W96771   3.451  18.891   0.820
25156W        W96772  36.022   9.908  10.351
25157W        W96773  29.108  14.520   3.623
25158W        W96774  11.156   1.433   3.100
25159W        W96775  14.103  19.216   4.376
25160W        W96776  40.215  34.446   0.031
25161W        W96777   9.223  41.437   1.909
25162W        W96778  35.493  32.097  12.079
25163W        W96779   5.270  10.113  13.827
25164W        W96780  20.537   1.536  12.556
25165W        W96781   0.704  44.837  11.894
25166W        W96782  18.599   0.025  12.031
25167W        W96783  42.310  38.647  13.816
25168W        W96784  33.599   3.342  14.349
25169W        W96785  21.560  16.580   2.083
25170W        W96786  18.008  35.971   1.346
25171W        W96787  24.939   3.725   2.937
25172W        W96788  32.141  44.722   1.449
25173W        W96789  36.199  17.107  12.162
25174W        W96790  32.944  35.385  13.482
25175W        W96791  40.170  36.836  10.763
25176W        W96792  30.894  36.344  14.374
25177W        W96793  10.919  13.806   0.860
25178W        W96794  24.244   4.166   1.332
25179W        W96795  17.744  22.201  14.031
25180W        W96796  44.451  32.068   0.543
25181W        W96797  34.010  17.817  11.664
25182W        W96798  38.712  34.991   0.898
25183W        W96799   6.916  24.676   3.840
25184W        W96800  15.650   0.904   3.175
25185W        W96801   8.360  31.375   0.310
25186W        W96802  23.552  27.203  13.071
25187W        W96803  41.679   4.234  11.459
25188W        W96804  26.163  34.883  12.448
25189W        W96805  24.055  26.622  13.848
25190W        W96806  31.279  20.102   0.764
25191W        W96807  35.663  28.630   0.860
25192W        W96808  24.903  23.720   4.923
25193W        W96809   8.947  23.538   2.201
25194W        W96810  39.829  14.379  12.196
25195W        W96811   2.596  35.077   0.428
25196W        W96812   3.470  11.824   2.418
25197W        W96813  19.166  17.242  14.405
25198W        W96814  30.725   3.648  13.526
25199W        W96815  27.995  17.014   2.146
25200W        W96816  36.090  26.847   4.024
25201W        W96817  15.129   7.384   0.283
25202W        W96818  26.797  36.011  11.459
25203W        W96819  16.296   5.870   1.442
25204W        W96820  27.557  16.047  11.013
25205W        W96821  37.249  34.479  11.994
25206W        W96822  34.442  28.279   2.310
25207W        W96823  37.030   8.880  13.423
25208W        W96824  31.127  17.549  11.538
25209W        W96825  23.418  17.794   2.630
25210W        W96826   1.840  30.380   1.691
25211W        W96827  37.524  12.459  10.969
25212W        W96828  36.193  40.208  13.892
25213W        W96829  44.781  39.416   4.723
25214W        W96830   6.149  33.029   0.778
25215W        W96831  41.026  26.927  10.886
25216W        W96832  39.837  14.656  13.463
25217W        W96833   8.709  13.605   4.793
25218W        W96834   0.114  30.949   0.349
25219W        W96835  22.495  22.462   4.204
25220W        W96836  41.394  15.729   4.574
25221W        W96837  32.011  39.326  12.581
25222W        W96838   9.847  43.802   3.793
25223W        W96839  19.978   1.336   4.361
25224W        W96840   4.169  44.976   4.581
25225W        W96841  40.043  33.440   1.039
25226W        W96842   7.541  39.950   3.612
25227W        W96843   2.416  22.185   0.433
25228W        W96844  42.988   2.356  10.672
25229W        W96845  34.018  28.198   0.656
25230W        W96846  27.215   4.492  14.518
25231W        W96847  17.675   7.682  14.033
25232W        W96848  26.695  22.289   2.259
25233W        W96849  33.798   3.628   1.892
25234W        W96850   8.796   8.624   1.250
25235W        W96851  14.557  37.515   1.958
25236W        W96852  16.087  36.332   4.885
25237W        W96853  40.011  28.203  12.134
25238W        W96854  39.578  25.752   4.169
25239W        W96855  15.278  43.375  11.395
25240W        W96856  22.890  31.437   0.563
25241W        W96857  35.910  30.222   2.146
25242W        W96858   2.529   5.441  14.382
25243W        W96859  32.526  22.574   2.943
25244W        W96860   2.815   7.404   0.476
25245W        W96861  21.296   7.812   2.762
25246W        W96862   1.309   9.705   4.617
25247W        W96863  40.870  21.804   2.503
25248W        W96864  23.099  34.831  12.540
25249W        W96865  34.895   1.286   1.897
25250W        W96866  16.357  10.291  13.909
25251W        W96867  27.157  25.380   4.186
25252W        W96868  40.913  30.181  12.082
25253W        W96869  19.992  36.011   4.780
25254W        W96870  26.045  17.764  11.564
25255W        W96871  15.841  11.699   1.181
25256W        W96872  21.942   7.383   2.799
25257W        W96873  43.491  41.473   3.314
25258W        W96874   2.863  12.237   4.425
25259W        W96875   7.797  32.610   2.784
25260W        W96876  44.615   3.919  12.846
25261W        W96877  26.697   1.826  11.658
25262W        W96878  30.791  23.269   0.417
25263W        W96879  22.465  24.202   3.014
25264W        W96880   0.202   7.552   2.266
25265W        W96881  31.917  32.935   2.846
25266W        W96882   7.847  31.197  13.914
25267W        W96883  29.982   1.405  11.284
25268W        W96884   8.406  12.468   1.856
25269W        W96885   0.670  36.567  14.547
25270W        W96886  25.670  12.651   1.933
25271W        W96887  26.941  29.410   0.492
25272W        W96888   5.354   0.366  11.962
25273W        W96889   6.604  38.865   5.121
25274W        W96890  16.610  33.652  14.808
25275W        W96891  17.166  15.096   0.554
25276W        W96892  38.487  34.067  13.047
25277W        W96893  40.958  28.962   0.354
25278W        W96894   0.748   9.229  11.536
25279W        W96895  10.887  36.979  12.019
25280W        W96896  17.543  19.208   3.465
25281W        W96897   8.720   0.990  14.476
25282W        W96898  36.827   0.898   4.105
25283W        W96899  36.987  10.266   2.040
25284W        W96900  32.129  16.108  12.045
25285W        W96901  29.342  35.988   1.796
25286W        W96902   5.322  36.958  10.914
25287W        W96903   2.442  25.660  12.991
25288W        W96904  27.403  36.398   3.648
25289W        W96905  32.552   8.801   0.746
25290W        W96906   6.119   1.806  11.628
25291W        W96907  15.719   4.795   5.060
25292W        W96908   8.648  33.993   3.691
25293W        W96909  20.019  10.535  14.134
25294W        W96910   3.948  34.032  13.465
25295W        W96911  29.891  20.253   4.586
25296W        W96912  25.665  43.489  13.786
25297W        W96913  11.134  21.066   0.440
25298W        W96914  31.932  23.628   1.056
25299W        W96915  43.222   9.234  13.069
25300W        W96916  31.685  29.738  14.470
25301W        W96917   5.125  37.699   4.984
25302W        W96918  37.990  26.631  14.322
25303W        W96919  17.090  38.525  10.480
25304W        W96920  36.057   5.698   0.633
25305W        W96921  28.415  24.692  11.596
25306W        W96922  24.850  16.173  13.080
25307W        W96923  40.320  31.124   2.719
25308W        W96924   0.954  28.726   2.110
25309W        W96925  35.021  13.755  10.558
25310W        W96926  42.753  23.266  12.615
25311W        W96927   8.344   7.740   4.911
25312W        W96928  19.092  19.231  13.928
25313W        W96929  36.630  30.777  11.484
25314W        W96930  23.037  14.194   2.687
25315W        W96931  28.227  44.816  14.046
25316W        W96932  29.788  18.130  10.493
25317W        W96933  40.260  34.989   1.679
25318W        W96934  15.374  17.515   2.842
25319W        W96935   8.918  37.028  12.713
25320W        W96936  13.175  38.827  13.048
25321W        W96937  25.592   2.738   2.434
25322W        W96938  36.477   2.058  12.573
25323W        W96939  41.591  27.895  11.921
25324W        W96940   0.792  41.476   0.281
25325W        W96941  35.875   9.759   0.280
25326W        W96942  13.889  27.226  11.974
25327W        W96943  33.113   3.670  13.971
25328W        W96944  10.826  25.683  13.056
25329W        W96945  29.732  27.771  11.495
25330W        W96946  43.499  26.907  12.659
25331W        W96947  19.815  32.387  14.808
25332W        W96948  29.048   4.254  14.939
25333W        W96949   3.302  43.486   2.763
25334W        W96950  43.520   7.717   3.930
25335W        W96951   4.393  17.072   3.715
25336W        W96952  23.536  10.773   2.412
25337W        W96953  13.259  13.499  13.499
25338W        W96954  37.945  35.159  13.624
25339W        W96955  42.750  10.600   3.248
25340W        W96956  32.058  44.059   4.570
25341W        W96957   1.460   1.926   3.271
25342W        W96958  31.868  25.964   0.450
25343W        W96959  18.254  14.601  12.380
25344W        W96960  26.925  14.155  11.456
25345W        W96961   6.491  35.956  13.953
25346W        W96962  19.134   5.676  10.747
25347W        W96963  26.921  40.297   0.390
25348W        W96964  20.372  37.635  12.929
25349W        W96965  14.608  19.643  13.079
25350W        W96966  40.081  16.667  14.211
25351W        W96967  19.591   7.812  12.558
25352W        W96968   6.357  13.404   2.785
25353W        W96969  15.852  12.170   0.925
25354W        W96970  16.703  42.398  13.452
25355W        W96971  35.586  34.574   0.460
25356W        W96972  33.280  24.065  14.348
25357W        W96973  15.668  12.364   5.017
25358W        W96974  22.479  15.325   1.377
25359W        W96975  12.024   8.113   4.161
25360W        W96976  39.954  12.969   2.212
25361W        W96977  17.485  42.043  11.210
25362W        W96978  30.196   5.983   1.233
25363W        W96979   4.289  22.381   3.307
25364W        W96980  39.571   7.282   2.205
25365W        W96981  16.798   2.901  12.132
25366W        W96982  25.135  23.256   4.739
25367W        W96983  32.640  18.741  10.521
25368W        W96984  34.349  41.428   0.739
25369W        W96985  29.553   5.093   3.723
25370W        W96986  37.030  26.494  10.470
25371W        W96987   9.329   1.766   2.580
25372W        W96988   7.814  20.439   0.517
25373W        W96989  28.339  23.620  14.741
25374W        W96990  20.022  13.055   4.267
25375W        W96991  38.239  35.012   0.690
25376W        W96992  20.825   0.934  11.198
25377W        W96993  21.005  26.699  12.069
25378W        W96994   7.264  20.671  14.720
25379W        W96995  42.923  40.116  14.498
25380W        W96996   5.527  36.561   1.979
25381W        W96997  14.026  22.499  13.526
25382W        W96998  43.457   7.810   0.853
25383W        W96999  14.869  36.960  11.909
25384W        W97000  43.375  10.199  14.902
25385W        W97001  27.472  14.378   5.117
25386W        W97002  20.295  36.820  12.026
25387W        W97003   8.906  19.009   3.207
25388W        W97004  14.764  37.385  11.148
25389W        W97005   3.345  41.061  11.890
25390W        W97006  32.542  31.235  12.658
25391W        W97007   8.280   9.610  10.715
25392W        W97008   9.770  43.015   4.492
25393W        W97009  10.165  38.057   3.187
25394W        W97010  27.800  10.889  12.877
25395W        W97011  21.016   6.860   1.832
25396W        W97012  12.376  42.318  13.061
25397W        W97013  40.921  20.889  11.177
25398W        W97014   4.749   4.320   2.271
25399W        W97015  10.357  18.745   3.218
25400W        W97016  12.819  24.094   1.099
25401W        W97017  15.103  20.152  13.421
25402W        W97018  25.868  41.478   3.709
25403W        W97019   8.802  21.671  11.082
25404W        W97020  31.014   6.520  11.775
25405W        W97021  18.585  44.172   1.293
25406W        W97022  28.131   7.629  10.731
25407W        W97023   6.826   7.649  13.791
25408W        W97024  30.851  30.666   3.205
25409W        W97025  41.390  31.741   3.626
25410W        W97026  24.300  39.901   3.821
25411W        W97027  31.589  35.045   3.696
25412W        W97028  27.074  21.015  10.124
25413W        W97029  37.793  22.621   3.722
25414W        W97030  32.895  35.903  14.325
25415W        W97031   7.816  16.000  10.967
25416W        W97032  23.210  29.454   2.834
25417W        W97033  19.695  11.975   4.137
25418W        W97034  23.127  12.127  14.969
25419W        W97035  24.459  11.178  10.732
25420W        W97036  33.609  36.584   1.923
25421W        W97037   7.915  16.587   1.199
25422W        W97038  33.072  42.017   0.074
25423W        W97039  20.486  29.566   3.725
25424W        W97040  37.986  26.686  12.417
25425W        W97041   6.856  11.838  12.331
25426W        W97042  32.198  27.549   4.210
25427W        W97043  21.545  32.613   2.391
25428W        W97044  41.793   7.673  11.440
25429W        W97045   2.272  27.209   0.334
25430W        W97046  28.683  31.877   4.634
25431W        W97047  13.618   4.028   1.360
25432W        W97048  18.297  20.175  12.918
25433W        W97049  16.840  22.600   0.900
25434W        W97050  17.734  33.807   4.886
25435W        W97051  13.656  12.917   4.157
25436W        W97052  27.638  37.042   4.918
25437W        W97053  15.899   6.968   1.831
25438W        W97054  10.966  38.522   4.512
25439W        W97055  39.489  41.082  12.022
25440W        W97056  28.690  14.070  13.883
25441W        W97057  29.178   2.441   1.415
25442W        W97058  26.021  29.543  12.177
25443W        W97059  21.112  16.819   3.812
25444W        W97060  34.134  43.920   5.155
25445W        W97061  39.086   9.298   2.732
25446W        W97062  43.215  27.331  13.280
25447W        W97063  38.819  39.392   2.862
25448W        W97064   7.176  16.707   2.425
25449W        W97065  21.057  22.499  11.875
25450W        W97066  31.875  28.752  12.350
25451W        W97067  24.225   9.102   3.918
25452W        W97068  43.658  18.186  12.414
25453W        W97069  11.603  12.157  11.969
25454W        W97070  19.461  43.530  10.150
25455W        W97071  25.662  29.373   2.884
25456W        W97072  39.430  13.463  13.361
25457W        W97073   8.334  35.043   3.223
25458W        W97074  14.832  44.744  12.657
25459W        W97075   4.391  17.793  11.232
25460W        W97076  24.116  13.370   1.475
25461W        W97077   7.801   2.238   5.056
25462W        W97078  42.948  25.165   3.258
25463W        W97079  18.264  11.957  14.369
25464W        W97080  19.159   1.480   0.897
25465W        W97081  18.054  15.826  12.994
25466W        W97082  29.006  22.314  12.458
25467W        W97083  42.011   5.944  14.450
25468W        W97084   6.678  25.563  10.684
25469W        W97085  15.882  39.503  11.529
25470W        W97086  28.238  14.114   3.778
25471W        W97087  15.699  39.611  13.290
25472W        W97088  15.855  17.705   4.287
25473W        W97089  21.803  25.211   4.498
25474W        W97090  25.492  27.208   1.303
25475W        W97091  38.581  17.365  13.938
25476W        W97092  38.034  29.518  12.602
25477W        W97093  18.664  34.136  11.130
25478W        W97094   9.446   5.926   4.802
25479W        W97095  32.344  18.683   3.244
25480W        W97096  35.158   0.700  10.694
25481W        W97097  33.087  14.660   1.946
25482W        W97098  17.340  23.508  14.615
25483W        W97099   6.415  18.819  13.289
25484W        W97100  21.257  34.605  11.166
25485W        W97101  43.801  21.473   0.059
25486W        W97102  28.162  35.516   4.462
25487W        W97103  17.986   9.719   3.852
25488W        W97104  38.252  37.891  10.698
25489W        W97105  15.615   8.659   4.589
25490W        W97106  14.817  17.452   1.305
25491W        W97107  24.095  36.868   2.311
25492W        W97108  43.886  37.060   4.569
25493W        W97109   5.241  34.401   0.927
25494W        W97110   2.817   5.499   3.318
25495W        W97111  34.848  10.369   0.809
25496W        W97112   8.690  24.158   0.126
25497W        W97113  30.178  35.531   4.581
25498W        W97114   9.888   1.276   5.064
25499W        W97115  23.616   2.407   4.130
25500W        W97116   3.375   0.034   2.813
25501W        W97117  26.510  13.969  10.780
25502W        W97118  44.048  10.443   1.766
25503W        W97119  33.036  44.817   3.112
25504W        W97120  25.640  27.100   4.476
25505W        W97121  37.841  41.526   4.863
25506W        W97122  19.760  19.169   1.438
25507W        W97123  36.178   4.275   0.232
25508W        W97124   5.428  14.308  13.955
25509W        W97125  10.380  16.983   2.245
25510W        W97126  22.680   9.277   0.460
25511W        W97127  26.962  14.986   2.698
25512W        W97128   4.448  39.538   2.696
25513W        W97129  37.644   7.428   5.018
25514W        W97130  17.760  20.710   0.505
25515W        W97131  14.933  21.181  14.353
25516W        W97132   8.839  32.407   3.760
25517W        W97133  40.867  38.344  13.089
25518W        W97134   6.853   7.735   4.760
25519W        W97135   5.788  28.125   2.328
25520W        W97136  32.899  10.846  14.471
25521W        W97137  29.528  22.044  11.403
25522W        W97138  39.439  40.567  11.957
25523W        W97139   7.897  38.735  14.428
25524W        W97140  25.940   9.679  12.893
25525W        W97141  19.447   2.934  12.280
25526W        W97142  17.573  11.118  10.658
25527W        W97143  42.711   9.133   3.633
25528W        W97144  35.860   8.922  10.724
25529W        W97145  22.554  21.314   1.482
25530W        W97146  18.116   8.856   2.736
25531W        W97147   0.309   6.324  11.851
25532W        W97148   6.231   2.431   2.871
25533W        W97149  29.041   3.311  12.130
25534W        W97150  31.715  30.156  14.783
25535W        W97151  15.593  37.569  10.774
25536W        W97152  29.170   7.851   3.442
25537W        W97153  35.257  26.436  13.666
25538W        W97154  13.739  41.497   0.734
25539W        W97155  19.028  27.190  13.932
25540W        W97156  20.102  28.792   4.627
25541W        W97157  43.927   3.966  10.709
25542W        W97158  44.369  40.115   0.274
25543W        W97159  28.946  44.779   0.829
25544W        W97160   1.844  33.455  11.599
25545W        W97161   8.754  13.125  10.743
25546W        W97162   1.035  30.740  12.712
25547W        W97163  11.480  10.656  13.054
25548W        W97164  17.689   0.909   2.374
25549W        W97165   9.261  15.546  10.565
25550W        W97166  27.574  17.743   1.197
25551W        W97167  15.233  12.622   0.352
25552W        W97168  20.765  23.141  11.147
25553W        W97169  33.978  29.553  13.803
25554W        W97170   6.128  18.737   0.923
25555W        W97171   8.518   2.711   4.110
25556W        W97172  18.547   6.315   2.094
25557W        W97173   0.156   3.733  11.222
25558W        W97174  31.219  12.084   4.387
25559W        W97175  27.030  42.519   2.000
25560W        W97176  37.015  25.200  11.161
25561W        W97177  25.121  10.356  13.530
25562W        W97178  25.750  27.459   4.881
25563W        W97179   6.295  31.462  12.030
25564W        W97180  12.674   3.316  10.178
25565W        W97181  26.526  17.207  14.859
25566W        W97182  37.413  20.564   0.774
25567W        W97183   1.468  42.357  11.079
25568W        W97184  34.951   9.715  11.258
25569W        W97185   1.459  39.816  12.906
25570W        W97186  34.358  27.932  12.818
25571W        W97187  22.733  20.257   2.862
25572W        W97188  39.980  27.139   2.325
25573W        W97189  40.271  24.622  12.064
25574W        W97190  39.292  23.648   5.166
25575W        W97191  37.481  23.582   3.301
25576W        W97192  11.926  12.630   4.956
25577W        W97193  32.608  35.428   0.407
25578W        W97194  23.966  27.719   0.328
25579W        W97195  15.569  38.038  12.640
25580W        W97196  41.402  38.891   2.781
25581W        W97197  43.284  20.045   0.796
25582W        W97198  31.568  28.122  10.709
25583W        W97199   5.723  36.082  11.151
25584W        W97200  44.530  27.763   0.740
25585W        W97201  24.322  38.972  14.294
25586W        W97202  26.723  30.826  10.624
25587W        W97203  34.050  28.228  13.442
25588W        W97204  16.021  14.696   5.282
25589W        W97205   2.332  43.825  11.950
25590W        W97206   5.020   1.249  12.858
25591W        W97207  35.070  29.638   0.208
25592W        W97208  31.085  27.614   2.130
25593W        W97209  22.021  11.573  14.373
25594W        W97210  18.311  44.259   4.555
25595W        W97211  44.318  10.901   3.713
25596W        W97212  27.503  15.115   3.713
25597W        W97213  43.076  14.529  11.685
25598W        W97214  41.597   5.648  14.585
25599W        W97215  39.869   8.559   2.667
25600W        W97216  21.058   4.922  13.306
25601W        W97217  22.182  14.026  14.976
25602W        W97218  36.309   1.572  12.624
25603W        W97219  19.294   3.237   2.215
25604W        W97220  13.595  30.633   4.592
25605W        W97221  22.566   6.147   4.142
25606W        W97222  23.160  18.701   1.346
25607W        W97223  14.281   3.368   4.745
25608W        W97224  18.811  35.461   3.237
25609W        W97225  16.361   2.487  14.426
25610W        W97226  44.446  25.073  13.299
25611W        W97227  23.509  28.788   1.396
25612W        W97228  28.155   4.644   0.705
25613W        W97229  13.626  28.955  14.661
25614W        W97230  20.869  18.776   3.360
25615W        W97231  20.257  11.218   2.018
25616W        W97232   8.180  31.898   2.256
25617W        W97233  40.004  21.107  13.910
25618W        W97234   8.298  23.701   4.574
25619W        W97235  35.351  12.208   0.895
25620W        W97236  44.635  20.538  11.182
25621W        W97237  18.615  41.814   1.250
25622W        W97238  15.163   0.011  13.012
25623W        W97239  12.196  44.999  11.261
25624W        W97240  19.062  43.335  14.418
25625W        W97241  27.653  25.484  10.713
25626W        W97242  19.732  38.959   1.706
25627W        W97243  37.687   5.006   0.857
25628W        W97244  21.257  33.905   0.348
25629W        W97245   0.021   4.838  11.928
25630W        W97246  14.115  39.915   4.441
25631W        W97247  32.528  27.569   4.603
25632W        W97248  11.591  20.537   2.300
25633W        W97249  35.956  41.036   2.135
25634W        W97250  42.922   8.726  14.240
25635W        W97251  10.705  36.424  13.848
25636W        W97252  11.189   0.994   4.391
25637W        W97253   4.262  42.840   0.728
25638W        W97254  31.426  34.383   1.148
25639W        W97255  36.434  35.265  14.372
25640W        W97256  16.708  17.057   1.006
25641W        W97257   0.312  29.071  13.055
25642W        W97258  32.488  11.203  14.412
25643W        W97259   7.856  31.471   0.308
25644W        W97260  26.489   4.262   2.873
25645W        W97261  38.986   2.926  13.809
25646W        W97262   3.353  24.993  10.105
25647W        W97263   5.891  16.469  14.823
25648W        W97264  14.545  27.862   1.295
25649W        W97265  34.960  18.434  14.577
25650W        W97266  21.722  30.062   3.348
25651W        W97267  44.953  21.688   3.702
25652W        W97268  25.420  38.092  12.401
25653W        W97269  27.957   9.744   3.370
25654W        W97270  44.538  35.045  12.960
25655W        W97271   5.833  38.910   0.540
25656W        W97272  25.204  38.932   1.200
25657W        W97273  40.056  40.839  12.469
25658W        W97274  16.598  29.828  14.794
25659W        W97275  15.325  29.007   3.253
25660W        W97276  32.649  24.588  14.407
25661W        W97277  23.708  14.280  13.494
25662W        W97278  37.592   8.372   4.711
25663W        W97279  36.892  29.870  13.847
25664W        W97280  32.717  11.800   3.670
25665W        W97281  21.168  23.921   4.983
25666W        W97282  16.283  16.181  10.424
25667W        W97283  38.673  35.622   0.442
25668W        W97284  39.518  44.026  11.564
25669W        W97285  18.607   0.430  13.044
25670W        W97286   6.295  26.547   4.151
25671W        W97287  44.769  25.117   4.473
25672W        W97288   3.051  22.054   2.884
25673W        W97289  25.628  34.005   0.471
25674W        W97290  39.316  42.529   1.996
25675W        W97291  21.270   5.659   4.114
25676W        W97292   3.080  28.400   4.101
25677W        W97293  23.648  29.276  11.157
25678W        W97294   0.366   6.876  11.660
25679W        W97295  21.039  42.185   1.289
25680W        W97296  19.558  31.902  14.045
25681W        W97297  15.150   2.229  13.623
25682W        W97298   0.726  44.258   1.146
25683W        W97299   4.940   8.443   1.401
25684W        W97300  20.591  31.969  14.192
25685W        W97301   4.781  11.882   5.029
25686W        W97302   1.666  20.554   2.259
25687W        W97303  20.082  27.313   3.140
25688W        W97304  19.711  14.735  12.540
25689W        W97305  20.916  22.456  13.057
25690W        W97306  27.747  32.909  12.639
25691W        W97307   1.509   1.196   1.705
25692W        W97308  16.232  15.182  14.085
25693W        W97309  19.335  26.136  11.099
25694W        W97310  16.994  34.528   0.745
25695W        W97311  34.648  12.671  14.422
25696W        W97312  18.122   4.284  14.699
25697W        W97313  22.051  27.936   0.931
25698W        W97314  29.568  29.264   1.333
25699W        W97315  36.962  23.081  10.787
25700W        W97316  22.594  32.476   4.288
25701W        W97317  21.652  34.503  14.763
25702W        W97318  19.778  16.676  12.588
25703W        W97319  29.923  30.296   2.080
25704W        W97320  37.941  12.258   2.395
25705W        W97321  41.537  22.123  13.566
25706W        W97322  10.550  32.993  10.455
25707W        W97323  21.962  14.702   1.698
25708W        W97324  31.465  27.942   5.093
25709W        W97325  30.052  37.301   1.947
25710W        W97326  20.000  19.355  11.186
25711W        W97327   2.575   3.869   2.796
25712W        W97328  31.437  30.340   2.264
25713W        W97329  14.763   2.302  14.423
25714W        W97330  23.517  39.563   0.723
25715W        W97331   3.770  25.566  10.724
25716W        W97332  40.746  22.194   2.190
25717W        W97333  27.102  21.694   0.495
25718W        W97334   6.489  32.471   0.586
25719W        W97335  30.003  20.022   0.730
25720W        W97336  36.540  43.017  13.923
25721W        W97337  18.206   3.357   2.209
25722W        W97338  28.776  35.077   4.410
25723W        W97339  13.520  32.342   1.268
25724W        W97340  25.662  37.930  14.016
25725W        W97341  19.562  19.988  10.752
25726W        W97342   1.925  40.322  11.616
25727W        W97343  28.290  35.105  10.950
25728W        W97344   5.414   8.686   1.298
25729W        W97345  43.078  13.951   3.649
25730W        W97346  22.098  29.975   0.660
25731W        W97347  41.378   3.167   2.423
25732W        W97348   1.582   2.910   1.252
25733W        W97349   5.029  22.871   1.431
25734W        W97350  10.382  14.777   4.627
25735W        W97351  39.574   2.726  10.765
25736W        W97352  36.907  43.529   2.293
25737W        W97353  39.542   6.674  11.323
25738W        W97354  10.172   7.169   3.101
25739W        W97355  38.812  29.558  11.739
25740W        W97356  19.351  39.831  11.177
25741W        W97357   3.867   2.265  12.211
25742W        W97358   9.390   0.959   2.706
25743W        W97359   9.655  20.579   3.293
25744W        W97360  16.844  18.463   4.354
25745W        W97361  10.352  37.243   2.735
25746W        W97362  21.778  40.546   2.200
25747W        W97363  30.532  13.665   3.650
25748W        W97364  20.971   9.603   1.997
25749W        W97365  23.232  35.373  11.891
25750W        W97366  17.879  22.236   0.081
25751W        W97367  10.455   0.753   2.861
25752W        W97368  32.536  20.790  14.163
25753W        W97369  36.574  12.113   4.210
25754W        W97370  22.647  12.726  10.841
25755W        W97371  23.673  39.340   4.283
25756W        W97372  38.137  10.884  14.074
25757W        W97373  13.332   3.183  13.771
25758W        W97374   5.403  28.444   0.946
25759W        W97375  13.656  44.396  10.562
25760W        W97376  29.110  19.167   4.320
25761W        W97377  15.888  19.758  13.304
25762W        W97378  39.501  19.628   2.234
25763W        W97379  37.835   3.216   1.765
25764W        W97380   2.928  43.647  11.476
25765W        W97381  18.610  36.513   1.947
25766W        W97382  10.462   4.449  11.595
25767W        W97383  24.607   5.954  14.114
25768W        W97384   7.421  31.347  11.577
25769W        W97385   9.103  25.863  10.714
25770W        W97386  19.748   8.638   2.197
25771W        W97387  40.374  36.613   2.381
25772W        W97388  33.943  30.142   3.234
25773W        W97389   2.031  34.817  12.865
25774W        W97390  33.833  10.637  13.920
25775W        W97391  22.006  17.491  10.705
25776W        W97392  37.688  35.204   4.092
25777W        W97393  35.712   5.868  12.353
25778W        W97394   2.199  16.538   1.898
25779W        W97395  39.773  15.690  10.371
25780W        W97396  27.353  29.938  12.065
25781W        W97397  12.730  23.256  11.545
25782W        W97398  33.085   4.176   3.875
25783W        W97399  31.989  20.468  14.780
25784W        W97400  26.636  21.790   4.471
25785W        W97401   8.094  44.319   0.493
25786W        W97402  13.613  41.751   2.850
25787W        W97403   9.733  23.965  14.479
25788W        W97404  29.217  41.569  11.602
25789W        W97405  16.143   4.540  11.148
25790W        W97406  10.216  12.227  14.512
25791W        W97407  42.553  40.072   1.334
25792W        W97408  25.441  27.580  11.237
25793W        W97409   9.138  41.712   2.390
25794W        W97410  33.767  42.359   1.917
25795W        W97411  39.093   7.538  13.814
25796W        W97412  28.163  14.941  14.875
25797W        W97413  30.010  31.994  10.952
25798W        W97414  40.965   0.952   4.175
25799W        W97415  17.681   7.176  14.089
25800W        W97416  18.487  30.678   1.752
25801W        W97417  29.966  28.918  13.002
25802W        W97418  21.688  43.379  14.223
25803W        W97419  33.454   4.898  10.536
25804W        W97420  24.022  44.410   1.201
25805W        W97421   4.838  33.382   1.005
25806W        W97422  43.579  17.715  14.967
25807W        W97423   7.864  33.881  14.534
25808W        W97424   8.149  20.161   3.541
25809W        W97425   9.165   9.329  10.683
25810W        W97426   2.502  41.523   3.566
25811W        W97427  44.209  18.375   0.257
25812W        W97428  31.606  12.791   4.742
25813W        W97429  20.713  38.021  12.879
25814W        W97430  43.959  27.155   0.659
25815W        W97431  41.385  36.535  11.014
25816W        W97432  33.044  13.421   3.843
25817W        W97433  20.662  14.834   0.345
25818W        W97434  30.308   8.899   0.438
25819W        W97435   2.876   0.365   3.891
25820W        W97436   5.135  21.051   0.505
25821W        W97437  22.286  15.274   2.754
25822W        W97438  21.950   4.355   4.445
25823W        W97439   3.677  14.100  13.393
25824W        W97440  40.253   3.949   3.261
25825W        W97441  44.009   5.459  12.947
25826W        W97442  26.032  19.505   0.730
25827W        W97443  26.910  40.487  13.879
25828W        W97444  18.301  30.427   1.307
25829W        W97445  18.766  29.544   4.928
25830W        W97446  10.433   0.409  10.540
25831W        W97447  15.904   9.381  12.760
25832W        W97448   7.474  13.763   1.724
25833W        W97449  23.611  27.047   3.099
25834W        W97450  33.729  22.533   2.159
25835W        W97451  13.765  20.475  12.994
25836W        W97452  31.662  13.278  11.557
25837W        W97453  34.888   5.926  11.589
25838W        W97454  41.315  31.193   1.313
25839W        W97455  34.585  21.664   2.047
25840W        W97456  17.645  25.685   1.941
25841W        W97457  41.169  44.939  11.589
25842W        W97458  35.504  12.058  10.518
25843W        W97459  13.172  18.827  14.278
25844W        W97460  16.581  11.829   0.238
25845W        W97461  26.588  27.779   5.029
25846W        W97462   3.225  24.430   4.371
25847W        W97463   1.668  15.551  14.949
25848W        W97464   0.280  35.915   1.916
25849W        W97465  23.486  34.322   3.279
25850W        W97466   0.452  27.973  13.431
25851W        W97467  12.630  33.263  10.634
25852W        W97468  26.158  25.674  13.543
25853W        W97469   7.783   2.362  11.701
25854W        W97470  26.296  15.142  14.507
25855W        W97471  17.166  33.346  11.028
25856W        W97472  30.701  36.841  14.349
25857W        W97473   1.487   0.872  10.481
25858W        W97474  31.841   1.691  10.625
25859W        W97475  44.424  27.970  13.514
25860W        W97476  26.270  39.793  12.933
25861W        W97477   9.881  23.181  13.354
25862W        W97478  29.174  38.611  12.976
25863W        W97479  29.887  16.996   0.912
25864W        W97480  15.193  37.432   3.686
25865W        W97481  37.813  41.683  11.649
25866W        W97482  38.508  44.735   3.324
25867W        W97483  19.501   3.034  11.025
25868W        W97484  27.537  33.405   4.105
25869W        W97485  27.437  10.639   4.780
25870W        W97486  37.445  26.645  14.142
25871W        W97487  11.309  14.645   1.205
25872W        W97488  42.406   0.856   3.841
25873W        W97489  16.329  16.127   3.209
25874W        W97490  31.208   7.375  14.897
25875W        W97491   0.523  44.715  14.533
25876W        W97492  31.889  40.031   2.702
25877W        W97493   9.244  17.367  11.254
25878W        W97494  36.850  32.632   2.963
25879W        W97495   4.548   0.857   1.845
25880W        W97496  27.268  18.215   2.402
25881W        W97497  34.973  29.674   0.841
25882W        W97498  11.806  27.488   2.639
25883W        W97499  33.661  42.063  13.560
25884W        W97500   4.388   5.347  10.575
25885W        W97501  18.163  31.475  11.228
25886W        W97502  32.992  23.223   1.371
25887W        W97503  14.736  11.296  14.392
25888W        W97504  23.864   7.906   3.708
25889W        W97505  39.109  28.019   3.687
25890W        W97506  37.603  36.911  11.164
25891W        W97507  35.545   1.244  11.962
25892W        W97508   6.361   2.687  11.464
25893W        W97509  32.868  29.663  13.028
25894W        W97510  41.356  17.953  12.928
25895W        W97511  11.663  30.731  11.129
25896W        W97512  40.267   0.941   2.842
25897W        W97513  31.920  38.033  13.911
25898W        W97514  14.883  36.103   2.119
25899W        W97515   5.773   8.056  12.504
25900W        W97516  32.895   3.393   3.289
25901W        W97517   4.500   8.089  13.182
25902W        W97518  12.098  31.881  10.713
25903W        W97519   1.630  27.933  13.281
25904W        W97520  32.686  30.495   0.806
25905W        W97521   1.624  18.979  13.886
25906W        W97522  24.898  17.051   4.599
25907W        W97523  12.744  27.343  12.427
25908W        W97524   6.146  43.866  10.647
25909W        W97525  33.838  27.031   3.833
25910W        W97526   4.294  23.854  11.504
25911W        W97527  43.037  20.513   3.751
25912W        W97528   9.388  12.923  12.139
25913W        W97529  29.591  23.167   3.414
25914W        W97530  38.326  21.885   2.204
25915W        W97531  26.994  32.303  14.847
25916W        W97532  29.586  35.308   2.790
25917W        W97533   1.222  17.663  10.488
25918W        W97534  12.346   4.127   4.221
25919W        W97535   2.722  18.557   4.199
25920W        W97536  18.323  14.386  11.531
25921W        W97537  15.546  44.604   3.823
25922W        W97538  40.985  18.599  12.243
25923W        W97539  10.750  35.551  10.676
25924W        W97540  12.721  35.550  11.578
25925W        W97541  19.540  31.072  14.514
25926W        W97542  27.597   5.887  13.504
25927W        W97543  17.992   8.250   1.787
25928W        W97544  43.925  30.167   1.397
25929W        W97545  27.025  33.059  14.380
25930W        W97546   8.843  17.057   0.385
25931W        W97547  15.288  27.164  12.953
25932W        W97548  40.285  29.013   4.000
25933W        W97549   6.191  44.715   0.221
25934W        W97550  18.288  35.386  10.996
25935W        W97551  12.360  11.856  12.938
25936W        W97552  29.962   0.417   4.103
25937W        W97553  25.965  29.999  14.406
25938W        W97554  20.321  41.812   1.902
25939W        W97555  11.881  27.617  11.916
25940W        W97556   9.172  15.103  12.885
25941W        W97557  20.173   2.715   1.909
25942W        W97558  40.583  32.047   0.888
25943W        W97559  19.802  23.589  10.969
25944W        W97560  12.873  26.185   0.382
25945W        W97561  37.034  43.051   4.414
25946W        W97562  44.882  28.163   1.625
25947W        W97563  27.159   9.157   3.770
25948W        W97564  11.102  10.746   4.554
25949W        W97565   0.403   0.780   4.144
25950W        W97566  26.693  20.325  11.974
25951W        W97567  14.692  36.673   4.510
25952W        W97568  35.044   7.384   1.042
25953W        W97569  21.573  27.078   0.249
25954W        W97570  14.227  38.233  13.935
25955W        W97571   7.632  11.850  14.864
25956W        W97572  17.757  34.912   1.283
25957W        W97573  12.801  21.288   2.377
25958W        W97574   6.750  43.018  11.631
25959W        W97575  31.872   3.352  10.785
25960W        W97576  41.386  36.626  12.530
25961W        W97577  31.869  37.903   4.564
25962W        W97578  28.536  36.529   1.987
25963W        W97579  29.926  24.454  12.989
25964W        W97580  20.661  40.245   3.907
25965W        W97581  40.805  32.208  12.548
25966W        W97582  16.828  38.421  14.460
25967W        W97583   3.464   7.962  14.969
25968W        W97584  10.165   6.868  14.290
25969W        W97585  43.799  38.267   1.332
25970W        W97586  26.500  38.388  13.141
25971W        W97587  10.575  13.304  11.179
25972W        W97588  35.046  38.955   5.099
25973W        W97589  44.269   1.963  14.299
25974W        W97590  33.192  10.855   3.740
25975W        W97591  12.518  13.360   1.042
25976W        W97592  32.496  42.529  12.502
25977W        W97593  11.394  21.275  12.771
25978W        W97594  14.490  23.643   4.036
25979W        W97595  24.514  26.507   3.179
25980W        W97596  34.425   0.363   5.019
25981W        W97597  44.388  34.645  11.085
25982W        W97598  19.055  33.398  10.974
25983W        W97599  14.747   9.421   3.669
25984W        W97600  34.656  18.672   3.248
25985W        W97601   4.246   7.842   3.098
25986W        W97602  10.246  31.826  11.120
25987W        W97603  44.837  25.842  11.708
25988W        W97604  42.254  21.177   3.716
25989W        W97605  11.272  31.479  14.037
25990W        W97606  38.090  25.548   1.009
25991W        W97607  30.164   4.845   1.853
25992W        W97608  28.065  34.121  12.693
25993W        W97609  32.899   9.658  12.897
25994W        W97610  28.453   3.969   4.139
25995W        W97611  24.633  40.471  12.833
25996W        W97612  15.093   3.495  14.065
25997W        W97613   8.608  21.531   4.582
25998W        W97614  18.527  43.795   0.237
25999W        W97615  44.849   6.845  14.790
26000W        W97616  36.556  18.686   1.717
26001W        W97617   9.673  19.619   4.182
26002W        W97618  38.939  36.649   1.389
26003W        W97619  17.824   0.556   2.750
26004W        W97620  11.765  33.328  12.202
26005W        W97621   1.938  23.443  10.649
26006W        W97622   0.339   7.932  11.705
26007W        W97623   7.336  24.493   0.822
26008W        W97624  31.636  17.137  14.479
26009W        W97625   7.740  31.976   1.348
26010W        W97626  22.366  41.808   2.901
26011W        W97627  31.880  44.113   9.629
26012W        W97628  29.753   2.767   2.259
26013W        W97629  11.757  11.127   4.144
26014W        W97630  21.777  34.141  10.685
26015W        W97631   8.196   8.688   3.854
26016W        W97632   3.999  16.317  11.892
26017W        W97633  15.721  22.800   2.497
26018W        W97634  18.587   1.938   2.129
26019W        W97635   1.845  33.110  12.100
26020W        W97636  34.181  17.278   2.877
26021W        W97637  38.948   9.923  12.126
26022W        W97638   9.332  19.247  13.483
26023W        W97639  44.295   9.703   4.157
26024W        W97640  44.455   7.411   1.191
26025W        W97641  43.352  25.680   2.268
26026W        W97642  12.826  32.895   3.672
26027W        W97643  12.672  12.719   2.803
26028W        W97644  44.540  44.283   1.820
26029W        W97645  37.598  29.238  12.562
26030W        W97646  42.342  30.145  13.305
26031W        W97647   7.922  21.543   2.320
26032W        W97648  41.047  23.704  12.512
26033W        W97649  30.100   2.130  12.594
26034W        W97650  37.331  12.131  11.991
26035W        W97651   6.382  25.090  14.906
26036W        W97652  16.750  27.412   0.382
26037W        W97653   3.921  11.620  12.978
26038W        W97654  24.130  27.132  10.646
26039W        W97655  43.929  31.481   1.989
26040W        W97656  30.871  28.143  13.859
26041W        W97657  10.718  29.003  14.874
26042W        W97658  23.656   5.724  13.003
26043W        W97659  14.628  20.777   4.550
26044W        W97660  39.505   7.954  11.143
26045W        W97661   5.059   0.983  13.695
26046W        W97662  16.182  27.221  12.795
26047W        W97663  33.955  42.712   3.355
26048W        W97664  27.294  24.950   3.047
26049W        W97665  36.514  24.984  13.872
26050W        W97666  23.284  13.348   0.391
26051W        W97667  17.729   6.612  13.191
26052W        W97668  15.832  13.790  12.909
26053W        W97669  30.386   5.214  14.348
26054W        W97670  20.323   5.593   3.134
26055W        W97671   3.216  32.126  11.073
26056W        W97672  33.421  38.559  11.202
26057W        W97673  38.461  26.978   3.230
26058W        W97674  43.491  30.682   3.104
26059W        W97675   5.256  14.693  11.107
26060W        W97676  10.119   1.929  13.281
26061W        W97677  30.486  34.645  12.883
26062W        W97678  35.510   0.834   3.840
26063W        W97679  27.695  19.334  13.996
26064W        W97680  15.562  37.973  13.893
26065W        W97681  17.865  18.096   2.544
26066W        W97682  41.400  14.355   0.533
26067W        W97683   7.381   2.487   3.702
26068W        W97684  24.995  42.401  13.095
26069W        W97685  14.432  10.672  14.974
26070W        W97686  36.184  19.576   3.122
26071W        W97687  31.176  14.968   2.615
26072W        W97688  12.439  27.671   1.465
26073W        W97689  29.957  13.024  13.478
26074W        W97690   0.386  33.705  13.920
26075W        W97691  16.349  43.274   0.458
26076W        W97692  27.650  37.086  14.531
26077W        W97693  10.185   9.026   1.880
26078W        W97694   7.481   9.255  13.380
26079W        W97695  37.774  44.074  14.426
26080W        W97696  14.814  27.201   3.748
26081W        W97697  21.061   5.888   4.524
26082W        W97698  10.153  34.004  12.556
26083W        W97699  23.150  17.081  10.701
26084W        W97700   4.759   9.185  10.403
26085W        W97701  44.310  37.929  10.010
26086W        W97702  25.671  32.962  14.554
26087W        W97703  33.079  20.224  13.991
26088W        W97704   6.601  33.520  13.959
26089W        W97705  40.776  18.183  10.221
26090W        W97706  10.259  13.534   1.792
26091W        W97707  36.008  27.751   0.368
26092W        W97708  14.239  22.815   2.319
26093W        W97709  13.792  16.321   4.940
26094W        W97710   6.674  22.572  11.040
26095W        W97711  25.988  31.682  11.624
26096W        W97712  12.340   4.962  14.852
26097W        W97713  26.677  38.246   4.492
26098W        W97714  24.158  35.020   1.401
26099W        W97715  33.589  41.563   2.722
26100W        W97716  28.260   3.354   2.790
26101W        W97717  38.265  31.874   4.131
26102W        W97718  12.123   3.184   0.336
26103W        W97719  13.737  17.797   4.024
26104W        W97720  10.942  31.628   3.199
26105W        W97721  18.244   9.859  13.861
26106W        W97722   4.014  12.294   1.299
26107W        W97723  34.081  23.021   2.288
26108W        W97724  37.411  39.618  13.878
26109W        W97725  43.510   7.821   1.879
26110W        W97726  24.640  37.578  13.532
26111W        W97727  29.951  42.965  14.856
26112W        W97728  44.373   7.638   3.288
26113W        W97729  42.780  34.637   1.910
26114W        W97730  38.964   4.729   0.480
26115W        W97731  23.825  11.139  11.746
26116W        W97732  25.760   7.587  13.470
26117W        W97733   3.873  17.525  12.456
26118W        W97734  36.739  21.313  11.372
26119W        W97735  20.950  26.772   4.557
26120W        W97736   2.184   0.149   0.871
26121W        W97737  40.754  36.345   0.530
26122W        W97738  15.628  12.391  14.173
26123W        W97739   3.092  27.623  10.750
26124W        W97740  22.413   5.225  13.399
26125W        W97741   9.336  17.760   2.530
26126W        W97742  34.414  29.366  12.036
26127W        W97743  17.855  12.741  13.966
26128W        W97744  34.235  43.647   5.608
26129W        W97745  10.592  22.563   0.852
26130W        W97746  15.347  19.991  10.692
26131W        W97747   8.791  10.355   3.118
26132W        W97748  39.977  25.578   0.271
26133W        W97749  34.505  21.950  13.719
26134W        W97750  29.290   0.482   3.149
26135W        W97751  39.835   2.448   3.682
26136W        W97752  32.653  16.177  11.614
26137W        W97753   8.606  11.143   2.023
26138W        W97754   6.840  27.432   1.380
26139W        W97755  23.313  28.030  12.087
26140W        W97756  36.482  43.288   0.411
26141W        W97757  15.661  40.958   4.394
26142W        W97758  38.656  13.871  14.523
26143W        W97759  15.468  21.089  11.782
26144W        W97760  35.902  22.461   2.829
26145W        W97761  37.029  43.362   2.837
26146W        W97762  13.102  44.547   1.365
26147W        W97763  29.633  42.796   4.550
26148W        W97764  15.681  20.358   0.712
26149W        W97765  15.279  21.848   0.331
26150W        W97766  39.462  17.172   3.721
26151W        W97767  13.387  37.475  10.104
26152W        W97768  20.610  30.979   3.605
26153W        W97769  15.616  31.618   2.519
26154W        W97770  12.218  10.698   1.452
26155W        W97771  28.691   1.282   3.257
26156W        W97772  13.873  12.802  14.959
26157W        W97773  17.751  16.100  14.863
26158W        W97774   3.272  32.105  14.024
26159W        W97775  33.318  40.411   3.121
26160W        W97776  32.374  24.460  13.878
26161W        W97777  40.647  13.835   0.434
26162W        W97778  12.483   9.093   1.376
26163W        W97779   7.547  14.492   2.647
26164W        W97780  41.076  35.124  11.205
26165W        W97781  30.500  28.594   3.222
26166W        W97782  27.959  38.820  13.438
26167W        W97783  42.040  33.870   1.041
26168W        W97784  34.012  15.467   1.373
26169W        W97785  14.562  13.162   4.663
26170W        W97786  27.926  31.922   2.160
26171W        W97787  38.135  13.236  14.809
26172W        W97788  29.122  21.027   0.391
26173W        W97789  15.542  35.512  12.539
26174W        W97790  10.317  42.380  12.843
26175W        W97791  24.491  13.794   3.913
26176W        W97792  37.855  20.222  12.087
26177W        W97793  43.078  26.418  14.261
26178W        W97794  10.481  32.912   9.767
26179W        W97795   9.610  27.738  14.496
26180W        W97796  15.881  31.967   2.204
26181W        W97797  19.875   1.884   1.367
26182W        W97798   7.815  10.818   2.250
26183W        W97799  23.713  43.248  14.922
26184W        W97800  15.899   5.947   4.613
26185W        W97801  35.588  15.332   2.799
26186W        W97802  18.866  19.835  12.360
26187W        W97803  40.604  44.290   4.078
26188W        W97804  41.933  25.966  13.374
26189W        W97805  10.792  44.360  12.343
26190W        W97806   5.716   0.843  11.397
26191W        W97807  15.831  12.527   2.716
26192W        W97808  26.863   1.593   2.156
26193W        W97809   4.221  18.098  11.614
26194W        W97810  37.585  32.810  11.572
26195W        W97811  12.425  44.148  11.424
26196W        W97812   2.220  12.237  13.206
26197W        W97813  43.226  26.237  14.723
26198W        W97814  33.576  22.018   1.299
26199W        W97815  34.628  22.221  12.883
26200W        W97816  37.901  22.228   2.711
26201W        W97817  16.869  23.203  14.851
26202W        W97818  13.581   1.276  14.871
26203W        W97819  36.437  22.930  12.917
26204W        W97820  43.003  21.042   1.099
26205W        W97821  24.092  35.407  13.272
26206W        W97822   1.236  40.823  14.401
26207W        W97823   9.865   3.749  13.024
26208W        W97824   3.831  27.249   1.791
26209W        W97825  19.583  32.041  11.078
26210W        W97826  23.260  40.987   4.088
26211W        W97827  26.659  44.059   1.308
26212W        W97828  35.095   4.847   0.426
26213W        W97829  10.873  34.436   3.717
26214W        W97830  24.871  38.531   2.737
26215W        W97831   5.801  21.646   3.239
26216W        W97832  19.013   3.672  13.957
26217W        W97833  22.118  18.279   3.600
26218W        W97834  11.904  18.314   0.822
26219W        W97835  24.656  37.668  14.046
26220W        W97836  20.590   4.398  14.702
26221W        W97837  10.633   5.289   3.286
26222W        W97838  33.420  36.509   2.420
26223W        W97839  11.118   9.330   0.865
26224W        W97840  24.198  21.689   0.303
26225W        W97841  35.445  44.140  10.682
26226W        W97842  35.510  21.823   1.313
26227W        W97843  37.272  39.965  10.898
26228W        W97844  24.072  41.064  11.411
26229W        W97845   8.750  35.346   3.284
26230W        W97846   3.184  28.018   0.984
26231W        W97847  24.009  19.917  10.780
26232W        W97848  32.477  18.820  14.975
26233W        W97849  33.844   8.571  13.737
26234W        W97850  41.204  12.119  12.306
26235W        W97851  38.947  23.583   3.606
26236W        W97852  13.154   3.683  13.710
26237W        W97853  26.469  32.482   2.364
26238W        W97854   2.368  35.782   0.921
26239W        W97855  15.672  25.894  11.589
26240W        W97856   9.533  35.073   2.774
26241W        W97857  21.674  30.264   0.818
26242W        W97858  28.016  11.247   0.822
26243W        W97859  29.074  40.782   1.603
26244W        W97860   3.024   4.669  11.196
26245W        W97861  23.706  27.740   1.494
26246W        W97862   4.907   5.481   0.455
26247W        W97863  43.784  14.968   0.068
26248W        W97864  14.687  32.578  14.302
26249W        W97865  19.003  39.444   3.243
26250W        W97866  19.936  40.951  14.325
26251W        W97867   6.933  38.777   0.392
26252W        W97868  43.947  37.835   1.598
26253W        W97869   8.217  43.503  14.989
26254W        W97870  34.578  15.285  11.988
26255W        W97871  34.004  12.266  14.928
26256W        W97872  39.046  29.402   3.608
26257W        W97873  12.392  11.227   3.339
26258W        W97874  10.756   1.394  11.993
26259W        W97875  20.998  37.337   3.816
26260W        W97876  43.737  32.199  13.867
26261W        W97877  29.935  34.462  14.987
26262W        W97878  30.896  11.739  12.957
26263W        W97879   4.450  38.755  11.104
26264W        W97880  18.606   1.679   0.274
26265W        W97881   1.185  16.827   3.901
26266W        W97882  41.473  21.026   3.032
26267W        W97883  12.354  11.291   1.112
26268W        W97884  12.329   7.619  10.776
26269W        W97885  23.169  27.249   4.288
26270W        W97886  38.270  22.656  10.485
26271W        W97887  31.935  16.035   4.141
26272W        W97888  36.748  35.590  12.612
26273W        W97889  18.316  25.406  13.972
26274W        W97890  19.813   6.407  14.239
26275W        W97891   0.380   5.450  10.648
26276W        W97892  29.159  17.538  14.870
26277W        W97893  18.654  26.555   2.444
26278W        W97894  20.673  20.704  11.588
26279W        W97895  44.486  22.605  13.952
26280W        W97896  34.609   7.922   0.010
26281W        W97897  22.650   0.800  14.328
26282W        W97898  20.374  10.164   2.714
26283W        W97899   2.235  44.271  12.402
26284W        W97900  42.404  25.959  13.862
26285W        W97901  19.708  28.064   0.013
26286W        W97902  20.679  33.413  14.436
26287W        W97903  40.867   1.507   0.789
26288W        W97904  20.752  28.509   0.776
26289W        W97905   6.231  15.102   4.460
26290W        W97906  23.965  43.854  14.331
26291W        W97907   7.817  38.815   4.097
26292W        W97908  23.331  11.057  13.540
26293W        W97909   4.713  40.400  13.109
26294W        W97910  10.100  22.548   0.683
26295W        W97911  32.182  39.374   0.346
26296W        W97912   7.067  12.369   2.254
26297W        W97913  15.536  42.507  14.486
26298W        W97914  17.385  13.178  11.505
26299W        W97915  26.621  18.556  11.674
26300W        W97916   7.980  25.574  14.382
26301W        W97917   7.290   6.728  10.971
26302W        W97918  29.122  27.430  14.798
26303W        W97919  29.486   3.155   3.272
26304W        W97920  26.635  38.055   3.164
26305W        W97921  11.962  28.693   3.841
26306W        W97922  32.046  10.108  14.855
26307W        W97923  34.930  41.338   2.730
26308W        W97924  44.432  13.040   0.691
26309W        W97925  10.132   8.920  12.006
26310W        W97926  29.111  32.872  13.648
26311W        W97927  35.884  13.732  12.524
26312W        W97928   5.606   7.343  12.972
26313W        W97929   8.450  32.205   2.885
26314W        W97930  25.984  29.520   0.665
26315W        W97931  12.159  20.580   2.867
26316W        W97932  43.286   2.082  14.085
26317W        W97933  39.752   2.730  13.339
26318W        W97934  33.416  35.874   2.421
26319W        W97935   2.822   3.764  12.713
26320W        W97936  12.876  11.228   1.828
26321W        W97937   3.860  25.507   4.434
26322W        W97938  35.998  27.552  11.423
26323W        W97939   1.825  12.771   2.209
26324W        W97940  41.571  32.378  12.816
26325W        W97941  39.026  11.099   1.424
26326W        W97942  12.606  30.533   1.886
26327W        W97943  34.105  28.684  12.171
26328W        W97944   1.281  41.931   3.135
26329W        W97945  41.970  20.794  11.201
26330W        W97946  17.376  32.146  12.904
26331W        W97947  21.118  27.207  11.965
26332W        W97948  21.660  23.039  12.099
26333W        W97949  18.313  30.418  12.611
26334W        W97950  10.134  21.748   3.274
26335W        W97951  39.899  25.505  11.564
26336W        W97952  10.035  27.806   5.024
26337W        W97953  40.382  29.078   2.993
26338W        W97954  33.659  35.249  11.445
26339W        W97955  43.580   2.638  13.181
26340W        W97956   8.502  22.688  12.579
26341W        W97957  12.636  25.556  14.363
26342W        W97958  23.171  34.436   3.716
26343W        W97959  27.901  29.596  12.449
26344W        W97960  32.487  25.153   2.731
26345W        W97961   4.439  41.057   4.618
26346W        W97962   7.747  39.349   4.188
26347W        W97963  34.013  44.011   2.190
26348W        W97964  33.624  20.184   3.077
26349W        W97965  37.925  16.272  10.550
26350W        W97966  33.568  23.771   2.688
26351W        W97967  29.948  24.922  14.741
26352W        W97968  33.013  15.358   4.414
26353W        W97969  25.235  43.146  10.897
26354W        W97970  34.278  14.301  10.591
26355W        W97971  17.293  40.626  10.546
26356W        W97972  38.767  38.363   2.183
26357W        W97973  40.022   2.952   5.010
26358W        W97974   7.608  37.014  14.239
26359W        W97975  20.071   5.967   0.780
26360W        W97976  37.279  10.696   4.211
26361W        W97977  19.603  25.624  11.602
26362W        W97978  27.659   7.414  10.650
26363W        W97979   1.925  15.849   0.310
26364W        W97980  40.642   1.040   3.745
26365W        W97981  19.803  42.456  10.673
26366W        W97982  29.031  21.363   1.711
26367W        W97983  11.276  36.022   1.206
26368W        W97984  26.583   5.204  14.278
26369W        W97985  16.346  32.218  14.454
26370W        W97986  33.329  29.658  11.722
26371W        W97987  14.880  18.482   1.421
26372W        W97988  18.309  34.455   3.638
26373W        W97989   7.162  44.290  12.077
26374W        W97990   9.148  18.147   3.287
26375W        W97991  28.338  33.364  12.090
26376W        W97992  23.253  12.681  13.064
26377W        W97993  15.687  41.656  14.806
26378W        W97994  42.425  24.552   2.188
26379W        W97995   9.723  33.740  12.495
26380W        W97996  42.533  18.061   0.238
26381W        W97997   7.386  41.302  12.895
26382W        W97998  39.720  43.296  12.816
26383W        W97999  20.059   0.778   9.981
26384W        W98000   4.653   7.732  12.792
26385W        W98001  26.349   9.549  11.114
26386W        W98002   4.746   1.970   2.219
26387W        W98003  37.116  14.409   0.249
26388W        W98004  23.083  32.570   3.162
26389W        W98005  38.345  19.952   2.861
26390W        W98006  18.838  20.167  14.971
26391W        W98007  16.557  29.059   3.673
26392W        W98008  27.620  34.645   1.784
26393W        W98009  13.596   4.498  12.042
26394W        W98010   9.658  15.875   1.763
26395W        W98011  32.755  42.299   4.889
26396W        W98012  28.377  10.200  10.277
26397W        W98013  41.066  42.514  14.961
26398W        W98014   4.256  14.719   3.870
26399W        W98015   8.358  43.342  12.071
26400W        W98016  44.093  18.686   4.341
26401W        W98017  12.876  16.249  11.455
26402W        W98018  34.149  10.741  12.658
26403W        W98019  25.729  24.121  10.628
26404W        W98020   3.913  38.890  14.338
26405W        W98021   1.940  35.419  10.741
26406W        W98022  28.986  33.011   2.113
26407W        W98023  39.831  33.053  14.820
26408W        W98024   9.882  35.418   2.651
26409W        W98025  23.732   6.316  11.598
26410W        W98026  15.301  22.619   3.225
26411W        W98027  42.247  16.319  11.141
26412W        W98028   2.208  42.557  10.367
26413W        W98029  32.847   0.884  11.947
26414W        W98030  37.306  43.592  13.467
26415W        W98031  14.605  24.945   2.917
26416W        W98032   9.974  38.498  13.853
26417W        W98033   2.449  30.035  14.950
26418W        W98034  33.866  14.456   1.322
26419W        W98035  27.109  25.627  14.829
26420W        W98036  27.611  28.541   3.190
26421W        W98037   5.726  25.593   2.942
26422W        W98038  14.314   2.435  10.468
26423W        W98039   7.818  36.188  10.281
26424W        W98040  18.154  24.109  14.543
26425W        W98041  24.020  11.017  14.140
26426W        W98042  32.629  14.154   4.465
26427W        W98043  13.375   3.207  10.698
26428W        W98044  16.594  30.598  13.936
26429W        W98045  12.753  14.918  12.047
26430W        W98046  38.119  40.352  11.102
26431W        W98047  11.818  44.779   4.586
26432W        W98048  41.044   3.432   2.132
26433W        W98049   9.551   0.533   0.495
26434W        W98050  16.137  36.616   1.279
26435W        W98051  19.307  14.866  14.421
26436W        W98052  16.392   6.609   0.346
26437W        W98053  21.392  15.257  10.653
26438W        W98054  10.203  30.565  14.995
26439W        W98055  19.143   6.446   4.642
26440W        W98056   1.966   9.145  13.870
26441W        W98057   6.867  21.942   1.304
26442W        W98058  12.621   4.923  14.008
26443W        W98059   3.222  22.498  13.497
26444W        W98060  15.591   6.240   1.249
26445W        W98061   2.426   9.754  12.676
26446W        W98062   7.539  23.636   3.100
26447W        W98063   6.054  12.939  14.503
26448W        W98064   5.036  39.402   3.390
26449W        W98065  15.826  27.549   2.162
26450W        W98066  18.963   2.972   0.759
26451W        W98067   9.387  37.589   2.644
26452W        W98068  22.667   4.433   2.833
26453W        W98069  11.324  25.126   0.457
26454W        W98070  18.671  18.790  13.130
26455W        W98071  23.138  13.109   2.293
26456W        W98072  29.035  44.565  12.947
26457W        W98073  11.332  38.761  12.538
26458W        W98074  37.825  37.521  10.716
26459W        W98075   8.402  25.115   1.871
26460W        W98076  41.333  11.768  14.706
26461W        W98077  28.214  23.190  12.385
26462W        W98078  28.084  18.661   1.190
26463W        W98079  29.432   1.388  14.415
26464W        W98080  13.534  15.855   1.816
26465W        W98081  22.241   1.533  11.849
26466W        W98082   7.361  21.666  13.570
26467W        W98083   6.659  13.901   4.728
26468W        W98084  34.337  37.740  14.598
26469W        W98085  14.137   4.020   1.894
26470W        W98086   8.458  17.277   4.614
26471W        W98087  11.514   9.512  14.923
26472W        W98088  37.070   5.790   3.751
26473W        W98089   8.653  30.504  14.595
26474W        W98090  10.427   1.857   0.344
26475W        W98091  40.970  17.509  11.186
26476W        W98092   6.480  24.970   5.021
26477W        W98093   5.368  15.626   3.245
26478W        W98094  15.201  42.361  13.864
26479W        W98095   8.739  34.632   4.897
26480W        W98096   0.821   8.220  11.487
26481W        W98097   8.905  24.645  10.821
26482W        W98098  25.015  27.450  10.999
26483W        W98099  14.925  21.046   0.424
26484W        W98100  15.365  43.333  14.995
26485W        W98101  19.792  19.567  12.500
26486W        W98102   0.967  27.550   1.917
26487W        W98103  19.495   0.320   1.390
26488W        W98104  16.722   6.686  13.905
26489W        W98105  37.595  40.590   4.033
26490W        W98106   1.602  19.551   0.244
26491W        W98107  28.935  25.665   3.117
26492W        W98108  41.298  11.192   4.614
26493W        W98109   5.148  39.060   1.179
26494W        W98110  17.204  13.637   4.137
26495W        W98111  22.703  19.898   4.134
26496W        W98112  31.422  17.571  13.334
26497W        W98113   7.418  29.674  13.357
26498W        W98114  44.483  12.264  13.290
26499W        W98115  27.691  35.096   2.810
26500W        W98116  31.007  34.129   4.141
26501W        W98117   4.957  13.230   4.716
26502W        W98118  44.958  14.585  14.411
26503W        W98119  35.902  20.666   2.376
26504W        W98120  16.131  12.458  14.028
26505W        W98121  23.628  31.618   0.017
26506W        W98122  39.787  30.763   1.260
26507W        W98123   6.877  39.881   1.355
26508W        W98124   4.089  30.636   3.226
26509W        W98125   2.878  29.408   4.082
26510W        W98126  35.293  11.231  12.566
26511W        W98127  33.011  37.967   3.724
26512W        W98128  16.794  19.483   1.142
26513W        W98129   9.771  12.344  11.135
26514W        W98130  18.692  31.677   0.636
26515W        W98131  18.182  32.140   2.987
26516W        W98132  36.895   9.862  14.276
26517W        W98133  16.136  32.861   4.553
26518W        W98134  15.112  25.906   1.816
26519W        W98135  41.863  26.501  11.127
26520W        W98136   6.009  35.446   1.266
26521W        W98137  25.814  34.439  13.495
26522W        W98138   9.382  44.808   0.415
26523W        W98139  40.044  44.363  12.786
26524W        W98140  17.048  41.989  14.558
26525W        W98141  12.391  26.143  11.664
26526W        W98142  18.596  15.041   2.875
26527W        W98143  34.963  18.709   0.466
26528W        W98144   2.517  23.146   1.817
26529W        W98145  11.439  14.241   2.259
26530W        W98146   2.523   4.446   1.883
26531W        W98147  25.093  21.321  11.133
26532W        W98148  17.267  22.606   4.076
26533W        W98149   6.681  40.416   3.095
26534W        W98150  39.557  37.818  14.492
26535W        W98151  44.682  24.911   4.008
26536W        W98152  18.390  18.233   4.531
26537W        W98153  22.133  41.836   3.391
26538W        W98154  16.171  12.795   1.796
26539W        W98155  25.692  36.407   4.953
26540W        W98156  28.506  23.765   4.901
26541W        W98157  44.996  29.051  12.418
26542W        W98158   2.684  31.576   3.958
26543W        W98159  20.154  23.213   1.971
26544W        W98160  35.380   6.489  13.940
26545W        W98161   5.401  41.656  11.477
26546W        W98162  43.506  36.297   0.431
26547W        W98163  10.735  21.195  11.144
26548W        W98164  11.267  25.273  14.918
26549W        W98165  41.303  17.986   2.627
26550W        W98166  21.528  16.388   0.166
26551W        W98167   6.369  33.668  11.699
26552W        W98168   8.444  20.210   4.378
26553W        W98169   0.774  15.724   1.976
26554W        W98170   4.425  24.573  13.451
26555W        W98171  44.251  12.638   2.304
26556W        W98172  21.511  13.844   3.281
26557W        W98173   1.171   1.980  12.060
26558W        W98174  22.734  30.593   0.939
26559W        W98175  44.828  38.538  11.546
26560W        W98176  37.372   0.749   0.253
26561W        W98177  12.742   0.794   1.799
26562W        W98178  22.558   7.619  12.356
26563W        W98179  44.029   6.365   4.591
26564W        W98180  34.844  37.015   3.121
26565W        W98181  34.966  18.834   4.587
26566W        W98182  40.398   3.731   1.481
26567W        W98183  14.748  17.990   1.345
26568W        W98184  32.695  41.073   4.397
26569W        W98185  10.263  37.888   1.866
26570W        W98186  43.167   1.396  10.525
26571W        W98187  22.055  12.108  14.834
26572W        W98188   9.246  26.148  13.603
26573W        W98189   9.767   1.471  13.998
26574W        W98190  25.084  20.584   1.741
26575W        W98191  13.206   1.873  13.027
26576W        W98192  37.849  15.123   2.925
26577W        W98193  20.611  11.665   1.001
26578W        W98194  11.133  30.865   2.308
26579W        W98195  29.501   1.435   2.658
26580W        W98196  17.727  42.490  11.131
26581W        W98197  38.101  28.676  13.100
26582W        W98198  22.060   5.851   3.712
26583W        W98199   3.065  43.618   1.295
26584W        W98200  21.808  19.517  11.136
26585W        W98201  19.388  44.355   4.070
26586W        W98202   8.818  26.291   2.194
26587W        W98203   1.465   5.584  11.072
26588W        W98204  34.222   4.678  13.057
26589W        W98205  14.665  20.246   4.609
26590W        W98206   3.171  12.335  14.464
26591W        W98207  11.277   2.489  13.972
26592W        W98208  31.110  21.021  14.865
26593W        W98209  44.658  16.627  10.612
26594W        W98210  15.581  15.722   1.674
26595W        W98211  38.925   5.579  10.149
26596W        W98212  36.004  44.953  14.443
26597W        W98213  35.158  37.114  14.564
26598W        W98214   5.253  15.594  11.961
26599W        W98215   6.407  32.159   3.810
26600W        W98216  35.649  23.930   0.490
26601W        W98217  10.487  16.075  11.183
26602W        W98218   7.698  31.391  13.404
26603W        W98219  12.202   2.730  11.768
26604W        W98220  13.240  20.211   1.178
26605W        W98221  33.687  20.783  12.547
26606W        W98222  28.580   2.485  13.319
26607W        W98223  18.736   0.895   1.388
26608W        W98224  33.767  42.847  12.156
26609W        W98225  13.392  18.189   0.533
26610W        W98226  39.981  20.098  11.710
26611W        W98227  20.428   8.724   4.650
26612W        W98228  35.637  42.542  14.923
26613W        W98229   6.715   8.646  10.452
26614W        W98230  38.049  23.255  14.471
26615W        W98231  17.570  16.721   3.229
26616W        W98232  27.598  21.692   3.318
26617W        W98233  15.224  33.545  14.104
26618W        W98234   3.841   6.153   0.798
26619W        W98235   9.702  37.166   0.805
26620W        W98236  35.934  28.515   4.711
26621W        W98237  33.015  26.131   2.253
26622W        W98238  24.278  29.536  14.782
26623W        W98239  37.879  14.251  10.563
26624W        W98240  31.081  19.692  11.633
26625W        W98241   3.463   6.815  10.646
26626W        W98242  35.037  44.311   0.553
26627W        W98243  27.963  15.586  12.554
26628W        W98244   8.176  16.964   0.953
26629W        W98245  34.275  21.511  13.532
26630W        W98246  15.848  20.028  14.872
26631W        W98247  42.345  36.266  12.457
26632W        W98248  15.284  28.115   3.269
26633W        W98249   2.262   7.326  11.514
26634W        W98250   3.016  42.465  13.088
26635W        W98251  26.426  34.091   4.289
26636W        W98252  44.495  36.294   2.685
26637W        W98253  34.578  31.155  13.372
26638W        W98254  30.445  10.606   2.455
26639W        W98255   1.199  20.222   0.906
26640W        W98256  36.664  39.363  10.279
26641W        W98257  24.564  34.620   0.239
26642W        W98258  28.916  35.841  12.934
26643W        W98259  10.702  39.896   1.016
26644W        W98260  26.142  37.502   2.574
26645W        W98261   1.986  10.911  13.413
26646W        W98262   1.834  10.342   0.834
26647W        W98263  40.087  15.271  14.527
26648W        W98264  25.993  22.630   0.514
26649W        W98265  43.485  15.708  11.550
26650W        W98266   3.880  17.560  14.794
26651W        W98267  37.500  20.078   0.993
26652W        W98268  19.095  32.487  11.976
26653W        W98269   9.453  44.625  13.990
26654W        W98270   0.743  18.695  13.893
26655W        W98271  28.996  13.577  14.800
26656W        W98272   3.143  37.066  11.336
26657W        W98273  26.577  42.619  10.694
26658W        W98274  38.653  33.927  10.769
26659W        W98275  11.335  31.375  14.896
26660W        W98276  36.309  28.637  12.999
26661W        W98277  43.784  16.357   1.181
26662W        W98278   3.768  19.532   5.281
26663W        W98279   1.983  16.184  14.929
26664W        W98280  25.262  14.793  13.049
26665W        W98281  32.522  29.611   3.729
26666W        W98282  21.265  34.872  13.623
26667W        W98283  28.108  21.990  13.085
26668W        W98284  36.594   4.779   2.317
26669W        W98285  32.925  24.636  11.014
26670W        W98286  26.304   9.600   1.901
26671W        W98287  22.749  42.302   3.794
26672W        W98288  32.404  35.428  14.047
26673W        W98289  26.536  42.059  11.537
26674W        W98290  33.621   3.060   3.132
26675W        W98291  12.860  36.871   1.527
26676W        W98292   0.367  42.527   0.970
26677W        W98293  14.346  14.682   3.695
26678W        W98294  34.205  22.244   0.450
26679W        W98295   6.329  15.522   4.755
26680W        W98296  44.807  43.369   1.506
26681W        W98297   2.474  25.024   1.336
26682W        W98298   9.340  26.107   0.540
26683W        W98299  31.302   5.329  13.865
26684W        W98300  42.759  25.941  12.047
26685W        W98301   6.991  26.107  10.765
26686W        W98302  14.164  18.574  10.653
26687W        W98303  17.622  14.867   4.248
26688W        W98304   5.177  33.989   2.364
26689W        W98305   0.806  16.485   2.417
26690W        W98306  30.372  10.315   4.580
26691W        W98307  35.133   6.007  10.587
26692W        W98308  11.724   6.701   3.047
26693W        W98309  16.584  34.381  12.033
26694W        W98310  31.690   9.480  12.065
26695W        W98311  40.063   7.302   4.211
26696W        W98312  29.049  37.303  14.370
26697W        W98313  31.567  17.979  12.458
26698W        W98314  37.356  39.348  14.322
26699W        W98315  29.333  42.421  10.778
26700W        W98316   8.447   4.825   4.341
26701W        W98317  29.451   6.385   1.348
26702W        W98318  36.121  14.250   3.662
26703W        W98319  10.569  17.498   1.735
26704W        W98320  37.747   2.959   2.665
26705W        W98321  12.641  30.061  11.557
26706W        W98322  32.145   2.947  14.460
26707W        W98323  34.291  44.982  13.650
26708W        W98324  22.169  36.432   2.459
26709W        W98325  38.025  23.495   4.116
26710W        W98326   9.903  30.126  14.376
26711W        W98327  33.138  34.777   2.259
26712W        W98328  18.267  43.393  12.126
26713W        W98329  37.718  12.113   1.159
26714W        W98330  14.055   6.880   0.945
26715W        W98331  27.881  11.716   3.636
26716W        W98332  32.006  31.077  14.325
26717W        W98333  25.663  20.593   3.768
26718W        W98334  33.350   2.794   0.375
26719W        W98335  11.389   8.723   3.916
26720W        W98336   8.897  36.518  12.889
26721W        W98337  10.403  14.279   3.390
26722W        W98338  27.137  28.659  12.881
26723W        W98339   7.759  39.158  13.984
26724W        W98340  21.770  27.464  12.935
26725W        W98341  41.557  12.858   2.817
26726W        W98342  44.874   8.387   2.432
26727W        W98343  21.285  34.082  13.017
26728W        W98344  37.953  40.389  10.597
26729W        W98345  19.062  30.997  14.725
26730W        W98346   8.372  20.678  11.405
26731W        W98347  14.604  35.909  14.974
26732W        W98348  43.505  19.377   0.172
26733W        W98349  38.937  40.479   0.470
26734W        W98350  27.620  30.428  12.128
26735W        W98351   3.153  13.057   1.611
26736W        W98352  10.388   8.774   0.786
26737W        W98353  30.043  25.514   3.262
26738W        W98354  26.582  20.537   3.893
26739W        W98355  11.064  42.111  14.787
26740W        W98356  44.068  15.674  11.360
26741W        W98357  44.490  14.839  14.020
26742W        W98358   8.780  25.509   4.539
26743W        W98359  34.983  27.208   0.199
26744W        W98360  15.524   3.489   1.906
26745W        W98361  42.836  13.220  12.386
26746W        W98362  32.108   8.073   1.185
26747W        W98363  33.411  39.310  13.737
26748W        W98364  34.894  38.260  14.752
26749W        W98365   1.957   9.432   3.239
26750W        W98366  41.570  37.497   0.898
26751W        W98367  41.741   4.329  10.546
26752W        W98368  19.743  14.611   2.245
26753W        W98369  28.030  38.538  12.337
26754W        W98370  15.781  40.324   1.822
26755W        W98371   2.370  25.932   4.491
26756W        W98372  25.280  12.695  11.446
26757W        W98373  23.443  43.440  11.116
26758W        W98374  40.221  41.458  13.926
26759W        W98375   6.806  30.370   1.845
26760W        W98376  18.347  43.842  11.900
26761W        W98377  37.548  19.680   4.188
26762W        W98378  23.673  23.493   1.483
26763W        W98379  10.867   4.279   4.197
26764W        W98380  43.019   7.957   1.817
26765W        W98381  10.275  23.691  11.673
26766W        W98382  11.424  27.084  12.448
26767W        W98383  25.671   3.257  10.957
26768W        W98384   3.518  25.172   0.777
26769W        W98385  36.992  20.586   3.039
26770W        W98386  43.568   7.308  11.480
26771W        W98387  35.567  17.276  11.163
26772W        W98388   5.512   4.627   2.353
26773W        W98389  21.102  11.772  11.540
26774W        W98390  42.486  28.109  13.744
26775W        W98391  13.606  39.932  12.173
26776W        W98392  12.812  34.963   2.374
26777W        W98393  17.771  31.106   2.175
26778W        W98394   9.119   3.059  13.938
26779W        W98395  42.772  38.135   9.793
26780W        W98396  35.472   9.325  13.127
26781W        W98397  12.011   8.266   0.003
26782W        W98398  42.347  18.499   3.309
26783W        W98399  41.810   8.111  11.060
26784W        W98400  28.888  23.049  14.055
26785W        W98401  26.399  10.599  13.054
26786W        W98402   4.819   9.860   0.321
26787W        W98403  11.300   9.830  12.660
26788W        W98404  25.721  20.171   2.211
26789W        W98405  18.804  15.824  12.597
26790W        W98406   2.286   0.348  10.658
26791W        W98407  10.649   6.913  13.360
26792W        W98408  21.546  10.370   1.168
26793W        W98409  11.842   4.723  11.566
26794W        W98410  13.954  33.844   0.307
26795W        W98411  12.413  10.936  12.912
26796W        W98412  31.676  43.668   0.369
26797W        W98413  28.588  37.346  14.732
26798W        W98414  36.831  44.550   1.285
26799W        W98415  33.468  28.702   0.262
26800W        W98416   1.275  27.169   1.725
26801W        W98417   6.653  43.535  11.582
26802W        W98418  36.042  28.064   4.954
26803W        W98419  36.397  21.691  12.662
26804W        W98420  33.181   4.760  11.208
26805W        W98421   7.094   7.835   2.710
26806W        W98422   4.917  14.113  12.227
26807W        W98423  40.452  13.045   2.103
26808W        W98424  29.872  12.208   4.167
26809W        W98425  35.938  34.972  11.123
26810W        W98426  16.672   7.392  11.706
26811W        W98427   4.732  14.122   0.245
26812W        W98428  10.780  29.867  14.932
26813W        W98429   1.995  28.516   2.897
26814W        W98430  13.069  28.615  14.002
26815W        W98431  18.717  12.564   2.690
26816W        W98432   7.325   7.265   4.214
26817W        W98433  39.048  29.899   3.697
26818W        W98434  15.789  18.747  13.994
26819W        W98435  27.663  33.833   1.243
26820W        W98436  11.868  19.829  10.823
26821W        W98437  32.817  38.187   3.158
26822W        W98438  24.237  23.638  11.109
26823W        W98439   8.330  31.139   2.728
26824W        W98440  44.042  24.959  10.696
26825W        W98441  10.733  41.091   2.701
26826W        W98442  20.042  34.752   3.328
26827W        W98443  15.082  36.524  14.477
26828W        W98444  30.375   4.498  11.983
26829W        W98445  10.775   5.884   2.139
26830W        W98446  22.577  37.780   4.219
26831W        W98447  21.352  25.677   4.116
26832W        W98448   5.764  17.795   4.092
26833W        W98449  10.613  38.895   3.669
26834W        W98450  24.976   6.175  13.806
26835W        W98451  38.344  39.869  10.954
26836W        W98452  14.257  43.017   2.157
26837W        W98453  19.294  15.244   2.898
26838W        W98454  35.790  37.602   4.816
26839W        W98455  15.297  13.757   1.205
26840W        W98456  29.991  38.326   1.821
26841W        W98457  30.507   5.740   3.348
26842W        W98458  11.411   8.864  10.620
26843W        W98459  36.519  34.976   3.694
26844W        W98460   6.523  39.052   4.090
26845W        W98461  30.343   9.230   1.940
26846W        W98462  14.818  26.921  12.930
26847W        W98463  27.982  12.749   2.716
26848W        W98464  37.357  24.650   1.933
26849W        W98465  33.926  35.598  13.950
26850W        W98466  35.551  20.312  11.975
26851W        W98467  21.547   4.494   0.754
26852W        W98468  27.165  40.511  11.170
26853W        W98469  30.468  38.461   0.854
26854W        W98470  43.020  28.460   2.098
26855W        W98471  12.383  35.096  13.127
26856W        W98472  31.615  27.282   1.788
26857W        W98473   3.895  29.481   4.457
26858W        W98474  44.867  29.210   2.243
26859W        W98475  31.039   1.334  11.210
26860W        W98476  44.443  40.436   1.163
26861W        W98477  35.126  25.924   0.492
26862W        W98478  38.127  40.873  14.714
26863W        W98479  15.105   4.938   2.752
26864W        W98480  21.733  28.506  14.226
26865W        W98481  29.897  11.629  11.931
26866W        W98482  37.921  41.495   3.178
26867W        W98483  42.246  32.844  14.016
26868W        W98484   6.547  32.479  10.273
26869W        W98485   1.941   1.721  10.564
26870W        W98486   3.582  21.510  14.293
26871W        W98487  13.130  35.316   1.769
26872W        W98488  37.475  12.690   4.329
26873W        W98489  28.388  12.328   3.275
26874W        W98490  32.248  17.588  13.793
26875W        W98491   4.628  34.931  13.906
26876W        W98492  18.759  31.814   4.939
26877W        W98493   1.222   3.407  13.144
26878W        W98494  26.732   7.755  12.455
26879W        W98495   4.890   5.342   3.767
26880W        W98496  22.759  34.937  11.041
26881W        W98497  28.465   1.320  10.953
26882W        W98498  10.903  10.468   0.632
26883W        W98499   2.780  31.996   0.387
26884W        W98500  17.697  18.511  14.677
26885W        W98501   4.061  42.914   4.365
26886W        W98502  33.435  18.564   2.571
26887W        W98503  30.939  30.568   5.044
26888W        W98504  27.815  13.383   4.970
26889W        W98505   8.614   3.216  13.023
26890W        W98506  13.691   8.360   1.194
26891W        W98507  40.151   9.234   3.794
26892W        W98508  11.728  29.057   0.138
26893W        W98509  17.704   8.179  13.930
26894W        W98510  40.539   4.903  12.417
26895W        W98511  25.789  25.139   2.833
26896W        W98512   1.136   7.310  12.910
26897W        W98513  29.066   6.450   0.695
26898W        W98514  15.048  10.092  12.603
26899W        W98515  36.904  27.417  10.534
26900W        W98516  44.833  40.303  10.569
26901W        W98517  17.828   4.834   2.712
26902W        W98518  32.908  21.616  10.571
26903W        W98519  27.687   4.663   1.915
26904W        W98520  32.891  13.732   0.835
26905W        W98521   0.294  39.178  11.691
26906W        W98522   0.307  39.647   3.624
26907W        W98523  19.443  28.132  14.135
26908W        W98524  31.890  12.194  11.481
26909W        W98525  23.659  22.272   3.224
26910W        W98526  40.300  38.922  13.975
26911W        W98527  38.675  32.572   0.229
26912W        W98528   8.788  39.122  14.841
26913W        W98529  28.654  38.805  11.679
26914W        W98530  19.752   4.803  13.977
26915W        W98531  44.326  24.506  11.408
26916W        W98532   2.491  32.393   4.458
26917W        W98533  17.078   4.151  12.102
26918W        W98534  10.161  26.220   1.801
26919W        W98535  33.842  16.158   0.281
26920W        W98536  26.552  16.752   1.189
26921W        W98537  11.797  27.483  13.396
26922W        W98538  39.098   7.268  12.259
26923W        W98539  41.968  32.627   3.357
26924W        W98540  40.412   1.259  13.455
26925W        W98541  11.163  13.207  14.825
26926W        W98542   2.239  19.598  14.055
26927W        W98543  25.177  33.866  14.043
26928W        W98544   2.730  11.717  13.391
26929W        W98545  31.582  42.837   3.570
26930W        W98546   5.141  12.404   3.657
26931W        W98547  26.051   6.738   1.183
26932W        W98548  30.140  16.655   4.323
26933W        W98549  29.980  17.858  14.133
26934W        W98550  30.511  21.053  12.565
26935W        W98551  21.525  10.136  11.943
26936W        W98552  34.658  13.593  12.681
26937W        W98553  28.898  40.642  10.736
26938W        W98554  40.372  34.907   0.244
26939W        W98555  36.812  12.165  12.097
26940W        W98556  22.235  30.272   4.752
26941W        W98557  14.404  44.339   1.714
26942W        W98558  16.087  39.533   1.392
26943W        W98559  24.244   2.398   0.917
26944W        W98560  37.349  12.250   2.584
26945W        W98561   3.362  34.987  12.444
26946W        W98562  44.704   1.003   2.201
26947W        W98563  28.073  36.885   4.205
26948W        W98564   5.359   4.153  13.053
26949W        W98565  12.645  37.036  11.394
26950W        W98566  10.834  40.939   2.225
26951W        W98567  17.834  36.664  12.324
26952W        W98568   9.682   9.456  13.506
26953W        W98569  32.423  38.514   2.268
26954W        W98570  35.926  26.553  12.504
26955W        W98571  22.656  13.720  11.841
26956W        W98572   9.730  35.319   4.388
26957W        W98573  33.321   9.310  10.440
26958W        W98574  11.673  41.520  10.733
26959W        W98575  17.046  43.988   3.840
26960W        W98576  13.199  40.815   0.389
26961W        W98577  39.484  35.453   4.333
26962W        W98578  12.246  14.334   4.672
26963W        W98579  21.692  44.093   4.167
26964W        W98580  21.567  30.625   2.936
26965W        W98581  21.785   8.620  11.575
26966W        W98582  37.040   3.743  11.007
26967W        W98583  25.238   8.071  12.596
26968W        W98584  12.601   9.674  14.696
26969W        W98585  35.570  35.520   3.338
26970W        W98586  15.770  32.394  11.072
26971W        W98587   5.483   6.829  14.913
26972W        W98588  24.505   2.402   2.884
26973W        W98589  37.160  22.557  11.882
26974W        W98590  44.803   9.786   2.362
26975W        W98591  33.648  43.963  12.466
26976W        W98592   8.357   8.904   0.918
26977W        W98593  12.870  33.063   0.370
26978W        W98594  12.286  26.970   4.150
26979W        W98595  25.515  29.604  13.375
26980W        W98596   7.925  38.920  14.909
26981W        W98597  30.396  10.288  13.274
26982W        W98598  38.926  44.452  14.830
26983W        W98599   4.193  39.797   3.178
26984W        W98600  18.853  28.580  13.181
26985W        W98601  27.912  28.562   3.634
26986W        W98602   4.977  21.539   0.394
26987W        W98603   9.721   0.511  12.042
26988W        W98604  32.390   0.034  10.954
26989W        W98605  18.364  25.161   0.045
26990W        W98606   1.305  42.922   2.949
26991W        W98607  40.507  36.844  12.874
26992W        W98608  28.643  19.597   5.012
26993W        W98609  23.080  34.339  12.698
26994W        W98610  34.995  42.193   0.041
26995W        W98611  33.465  21.928  12.019
26996W        W98612  27.497  18.603   0.521
26997W        W98613  17.708  12.151   2.967
26998W        W98614  11.061   5.172  12.072
26999W        W98615  37.813  30.040  14.254
27000W        W98616  18.845  44.157   0.444
27001W        W98617   4.217  29.570   0.825
27002W        W98618  35.731  27.240  14.458
27003W        W98619  21.683  19.689  12.073
27004W        W98620  14.164  15.018  12.961
27005W        W98621  29.537  29.686  14.982
27006W        W98622  21.545  12.752   0.381
27007W        W98623  28.212  25.227  10.115
27008W        W98624   3.497  10.632   0.496
27009W        W98625  44.500  41.350   3.188
27010W        W98626   4.574  18.377  14.719
27011W        W98627  16.047  16.067   9.450
27012W        W98628  37.915  26.910   3.849
27013W        W98629  16.952  33.097  12.332
27014W        W98630   9.866  42.340  12.647
27015W        W98631   5.958   6.721  12.534
27016W        W98632  39.432  21.780   1.294
27017W        W98633  40.515   0.573  10.715
27018W        W98634  27.215  10.707   0.757
27019W        W98635  17.692   6.583   3.671
27020W        W98636  19.983  15.158   0.869
27021W        W98637  30.664  27.698  11.621
27022W        W98638  19.964  23.717   1.870
27023W        W98639  43.908  14.355  13.735
27024W        W98640  29.984  28.455   2.321
27025W        W98641  24.235   9.652  13.821
27026W        W98642  39.868  43.692   3.143
27027W        W98643   1.378  18.097  13.990
27028W        W98644  13.059   7.685   2.326
27029W        W98645  42.920   7.251   0.227
27030W        W98646  41.937  17.564  13.982
27031W        W98647  40.285  39.034   4.645
27032W        W98648  27.164   1.469   4.035
27033W        W98649  12.674  41.610   2.894
27034W        W98650  37.110  18.243   3.171
27035W        W98651  21.554  31.695  12.969
27036W        W98652   4.258  15.346   4.984
27037W        W98653  30.120   1.028   1.454
27038W        W98654  40.322  29.470   3.755
27039W        W98655  24.884  36.580   1.947
27040W        W98656  44.563  41.460  10.372
27041W        W98657  42.306  38.297   4.221
27042W        W98658  21.503  44.284   3.721
27043W        W98659  44.893  30.045  13.375
27044W        W98660  21.571  15.729   0.912
27045W        W98661   3.723  15.691  11.349
27046W        W98662  21.478   1.956   3.610
27047W        W98663  24.133   7.983  10.653
27048W        W98664  39.437  11.203  12.024
27049W        W98665  10.190  11.673   1.889
27050W        W98666  33.946   0.256   2.816
27051W        W98667  31.129  20.020   4.073
27052W        W98668  31.063  26.759  13.592
27053W        W98669  11.808  38.271   2.361
27054W        W98670   5.001   6.241   1.836
27055W        W98671  38.245   7.814  13.668
27056W        W98672  20.834   6.683   3.928
27057W        W98673  21.130  18.544   0.952
27058W        W98674   1.914   5.625   4.145
27059W        W98675  41.087  30.952  13.001
27060W        W98676  38.654  42.483   1.326
27061W        W98677   3.267  23.935   0.546
27062W        W98678   3.014  33.309  12.996
27063W        W98679   2.666  10.150   3.343
27064W        W98680  37.133   5.694   3.234
27065W        W98681  34.339  36.546  13.248
27066W        W98682  26.330  32.161  10.562
27067W        W98683  44.389  35.806   0.448
27068W        W98684   6.264  29.559   3.726
27069W        W98685   2.057   7.368  12.750
27070W        W98686  27.211  11.093  11.943
27071W        W98687  37.095  35.554   0.383
27072W        W98688   2.680  34.687   3.998
27073W        W98689  23.232   8.866  12.607
27074W        W98690   5.765  38.798   1.927
27075W        W98691   6.167   1.710  12.540
27076W        W98692  38.103   5.465   2.079
27077W        W98693  26.787  16.234  12.977
27078W        W98694  33.798   1.881   5.132
27079W        W98695  40.266  26.206  11.545
27080W        W98696   7.480  29.310  11.020
27081W        W98697   7.631  28.726  13.292
27082W        W98698  34.681  35.772   1.342
27083W        W98699  16.000  24.727  13.348
27084W        W98700  43.366   2.450  14.433
27085W        W98701  29.699  38.917  13.438
27086W        W98702  29.052  41.067   2.538
27087W        W98703  14.859  18.208   3.186
27088W        W98704  40.974  34.585  10.428
27089W        W98705  28.475  28.348   1.356
27090W        W98706  28.423  15.562  11.612
27091W        W98707  10.261  31.326  12.418
27092W        W98708  44.096  24.627   1.426
27093W        W98709   4.209  40.342  12.966
27094W        W98710   1.953  24.568  13.113
27095W        W98711  41.058  19.763   2.240
27096W        W98712  29.123   6.496  11.955
27097W        W98713  18.189  12.937  11.952
27098W        W98714  10.863  30.936   2.764
27099W        W98715  30.293  16.099   2.257
27100W        W98716   4.318   0.920   0.931
27101W        W98717  40.845  33.574   2.224
27102W        W98718  20.961  16.396  10.459
27103W        W98719  23.703   9.121  11.102
27104W        W98720   2.803  18.517   1.781
27105W        W98721   8.304  43.858  14.401
27106W        W98722  30.076  24.778  13.373
27107W        W98723  16.085  25.942  10.432
27108W        W98724  36.438   6.708  14.895
27109W        W98725   3.216   4.438  13.476
27110W        W98726  10.828   7.339  12.424
27111W        W98727  13.156  10.415  11.083
27112W        W98728  31.044  29.090  14.945
27113W        W98729  43.683  39.522  12.109
27114W        W98730  14.273  35.511  14.848
27115W        W98731  34.340  13.992  12.655
27116W        W98732  38.599  35.922   3.841
27117W        W98733   9.989  27.010   3.481
27118W        W98734  20.965   8.740   1.623
27119W        W98735  40.181  43.789   2.181
27120W        W98736  11.473  20.023   3.134
27121W        W98737  30.163   6.834   1.466
27122W        W98738  19.241   4.660  14.010
27123W        W98739  37.651   0.221  12.676
27124W        W98740   6.987  26.963   1.722
27125W        W98741   2.296  35.684  12.843
27126W        W98742   9.263  28.439  11.013
27127W        W98743   6.293  16.691   0.073
27128W        W98744  23.454  43.035   1.846
27129W        W98745  43.503  39.276  14.010
27130W        W98746  33.205  20.099   3.420
27131W        W98747  31.035  24.737  14.985
27132W        W98748   0.978   9.782   3.823
27133W        W98749  38.088  34.688  11.434
27134W        W98750  18.014  26.593   1.330
27135W        W98751  25.375  35.796   2.083
27136W        W98752  14.717  30.307   1.157
27137W        W98753  19.217  33.129  13.093
27138W        W98754   7.273  36.332  14.684
27139W        W98755  42.803  13.445   1.904
27140W        W98756  24.506  30.608   3.269
27141W        W98757  44.406  30.022  14.622
27142W        W98758  34.104   9.873  11.854
27143W        W98759  20.697  35.003  14.196
27144W        W98760  29.527  38.446  14.780
27145W        W98761   1.172  42.861   2.420
27146W        W98762  42.728   3.850   0.791
27147W        W98763  44.081   6.539  14.236
27148W        W98764  39.878  39.337   2.320
27149W        W98765  15.027  44.965  13.552
27150W        W98766  24.102  40.884  13.888
27151W        W98767  20.623  32.100  13.703
27152W        W98768  28.658   3.681  11.955
27153W        W98769  26.081   1.729   0.713
27154W        W98770  29.892  44.029  13.727
27155W        W98771   9.232  42.596   3.827
27156W        W98772  17.421   1.016  13.876
27157W        W98773  31.723  26.517  13.153
27158W        W98774  16.777  28.336   3.238
27159W        W98775  31.516   7.235   0.296
27160W        W98776  21.965  18.216   4.093
27161W        W98777  42.198  44.514  14.423
27162W        W98778  36.400  32.198   1.829
27163W        W98779  42.807  44.789  13.445
27164W        W98780  14.602   7.334  10.631
27165W        W98781  43.668   0.904   0.529
27166W        W98782  19.562  28.541  14.846
27167W        W98783  25.639  12.499  14.071
27168W        W98784   3.328  37.786  13.249
27169W        W98785  16.282   0.295  13.481
27170W        W98786  38.436  26.364  12.378
27171W        W98787  13.986  44.612  13.530
27172W        W98788  42.898   4.758   4.125
27173W        W98789  29.192  32.624  12.658
27174W        W98790  24.252  32.423   0.277
27175W        W98791  15.082  24.477  10.548
27176W        W98792  40.050  19.996   0.834
27177W        W98793  44.638   3.280   3.547
27178W        W98794  33.385  29.382   4.996
27179W        W98795  26.588  37.331  13.860
27180W        W98796  41.288  38.332  13.428
27181W        W98797  23.012  29.510   2.319
27182W        W98798   7.528  16.302   2.348
27183W        W98799  37.971  14.242  13.759
27184W        W98800  15.134  28.547   2.967
27185W        W98801  39.917  42.308   4.131
27186W        W98802   4.867  27.224   0.275
27187W        W98803  31.085  43.276  11.902
27188W        W98804  40.724   5.980  14.839
27189W        W98805  33.649  12.782   3.847
27190W        W98806  38.352   9.148   1.872
27191W        W98807  35.105  39.060   3.479
27192W        W98808  18.869  21.392   3.586
27193W        W98809   1.221   0.876  12.001
27194W        W98810  37.329  19.374   3.451
27195W        W98811  37.969  28.155   4.281
27196W        W98812  43.870   4.504   2.743
27197W        W98813  36.545  13.398   1.468
27198W        W98814  12.165  34.985   0.746
27199W        W98815  34.316  20.778   1.500
27200W        W98816  29.627  14.632   4.186
27201W        W98817  33.061   1.962  14.442
27202W        W98818  13.262  13.718   1.314
27203W        W98819  23.519  30.029  14.897
27204W        W98820   2.444  31.194   0.218
27205W        W98821  39.924  27.772  13.886
27206W        W98822  34.028  17.951  14.855
27207W        W98823  40.220   2.242   3.947
27208W        W98824  35.416  20.819   2.291
27209W        W98825  19.118   9.065  14.465
27210W        W98826   5.182  40.422   1.210
27211W        W98827  26.781  14.765  11.136
27212W        W98828   0.474  32.485  11.678
27213W        W98829  43.048  16.246   2.374
27214W        W98830  11.261  19.547  13.052
27215W        W98831  15.876   8.412  14.472
27216W        W98832  10.142  33.637   1.315
27217W        W98833  35.998  29.964   3.673
27218W        W98834  37.941  38.856  12.136
27219W        W98835  26.996  20.011   1.262
27220W        W98836  34.795  35.144  10.098
27221W        W98837  35.565  21.529   1.763
27222W        W98838  19.479  43.934   1.374
27223W        W98839  35.098  13.230  10.645
27224W        W98840  30.909  39.376  13.396
27225W        W98841  25.977  36.386  11.087
27226W        W98842  23.067  21.450   1.340
27227W        W98843  25.598  22.757   1.186
27228W        W98844   0.258  14.667   3.273
27229W        W98845  39.074  13.654   4.564
27230W        W98846  16.872  10.614   0.480
27231W        W98847  19.050  34.416  12.136
27232W        W98848  18.146  44.249   1.909
27233W        W98849  36.965  36.766  14.924
27234W        W98850   5.703  40.997  12.536
27235W        W98851  35.193   2.037   0.656
27236W        W98852  23.103  27.034  14.828
27237W        W98853  33.459   2.342   4.080
27238W        W98854  27.646  11.653  12.350
27239W        W98855  17.086  36.471  13.349
27240W        W98856  13.713  14.074  12.375
27241W        W98857  13.589  29.034   1.694
27242W        W98858  38.422  15.824  11.392
27243W        W98859  24.367   0.491   0.871
27244W        W98860  39.231  18.609  12.984
27245W        W98861  44.925   8.685   2.845
27246W        W98862  21.785  40.964   2.775
27247W        W98863  21.448  37.517  11.482
27248W        W98864   0.002  44.363  11.204
27249W        W98865  19.694   5.934  14.017
27250W        W98866  23.712  16.308   1.901
27251W        W98867  25.976  33.670   1.365
27252W        W98868  26.565  33.658  13.238
27253W        W98869  27.984  15.297  11.709
27254W        W98870   7.085  27.605   2.870
27255W        W98871  40.742  16.309  14.926
27256W        W98872  20.786   3.887  11.612
27257W        W98873   8.053  16.260   3.062
27258W        W98874  33.623  12.843   2.767
27259W        W98875  10.744  44.904  10.728
27260W        W98876  21.304  28.704  12.255
27261W        W98877  39.506  32.181  11.871
27262W        W98878  17.271  18.738  14.894
27263W        W98879  42.002  15.738  13.129
27264W        W98880  16.827   6.214   4.626
27265W        W98881  13.565  30.865  10.586
27266W        W98882  13.387  34.580   3.739
27267W        W98883  31.042  42.770  14.832
27268W        W98884  36.524  36.569   3.149
27269W        W98885  22.595  36.582  12.286
27270W        W98886  31.146  22.641   4.615
27271W        W98887  18.200   5.753   0.994
27272W        W98888  36.434  39.163   0.028
27273W        W98889  23.853  27.893   4.181
27274W        W98890   4.760  32.186   3.252
27275W        W98891  28.252  17.726   1.150
27276W        W98892  33.986   1.567  14.465
27277W        W98893   9.448   0.094  13.694
27278W        W98894  37.428  27.470   4.851
27279W        W98895  17.096  30.492  14.776
27280W        W98896  13.064   9.174   3.182
27281W        W98897   5.319  41.244   0.505
27282W        W98898   7.314   8.536   1.948
27283W        W98899  17.036   3.052   4.676
27284W        W98900  16.177  42.369   3.267
27285W        W98901  42.599  30.542  13.541
27286W        W98902  18.002  13.937  14.358
27287W        W98903   5.371  41.952   3.767
27288W        W98904   1.084  43.846  14.276
27289W        W98905  30.400   9.814  11.926
27290W        W98906   7.180  33.036   0.711
27291W        W98907  18.836  38.927  14.818
27292W        W98908  35.039  43.438  11.218
27293W        W98909  13.971  16.523  14.258
27294W        W98910   7.789  25.031  14.576
27295W        W98911  17.598  19.011   2.442
27296W        W98912  27.648  23.689   4.635
27297W        W98913  16.153   2.032  14.410
27298W        W98914  30.860  38.489  13.605
27299W        W98915   6.190  35.435   4.640
27300W        W98916  38.952  10.281   0.248
27301W        W98917  30.156  41.884   2.895
27302W        W98918   2.763  24.019   0.302
27303W        W98919  37.516  30.448  14.356
27304W        W98920  44.427  14.706  12.352
27305W        W98921  39.774  23.212  14.383
27306W        W98922  44.294  31.995  12.425
27307W        W98923  27.142  17.813  10.871
27308W        W98924   2.703  23.330   2.270
27309W        W98925  26.998  23.618   1.247
27310W        W98926  11.883   4.751  14.758
27311W        W98927  31.125   2.300   4.680
27312W        W98928  13.932   5.359   1.363
27313W        W98929  44.257  19.209   2.437
27314W        W98930  28.848  18.644  14.438
27315W        W98931  14.054  30.672   2.936
27316W        W98932   7.215  43.968  10.790
27317W        W98933  40.459  38.060   3.293
27318W        W98934  20.533  13.129   4.120
27319W        W98935  40.219  39.448  13.870
27320W        W98936  21.556  36.329  14.442
27321W        W98937  15.095  13.740  12.456
27322W        W98938  39.192   9.743  13.447
27323W        W98939  13.232   9.192   4.142
27324W        W98940  44.946  34.415   4.207
27325W        W98941  31.156  14.716  13.946
27326W        W98942  29.665  17.608   3.255
27327W        W98943  19.385  17.602  11.186
27328W        W98944  31.907  39.289  13.600
27329W        W98945   8.056  33.682   2.336
27330W        W98946  33.791  23.205   5.127
27331W        W98947   9.238  20.162  11.623
27332W        W98948  36.340  32.922   1.540
27333W        W98949  11.888  19.379  13.864
27334W        W98950   6.019  21.045   0.858
27335W        W98951  41.730  30.582   2.729
27336W        W98952  43.406  36.591   2.665
27337W        W98953  40.833  27.851   3.695
27338W        W98954  20.344  42.918   1.492
27339W        W98955   2.691  32.028   1.277
27340W        W98956  34.157  34.396  13.999
27341W        W98957  36.862  39.399   3.459
27342W        W98958  44.057  25.734   0.775
27343W        W98959  39.162  20.144   1.049
27344W        W98960  33.247  44.283   3.207
27345W        W98961   2.016  25.856  13.208
27346W        W98962  38.975   3.931  11.931
27347W        W98963   8.054  14.181   1.374
27348W        W98964  35.381  34.996  11.944
27349W        W98965  16.509  39.523  12.886
27350W        W98966   1.029  25.632  14.984
27351W        W98967  43.033  23.079   1.377
27352W        W98968  23.252  18.527   0.355
27353W        W98969  23.540   0.949  13.378
27354W        W98970  17.131   9.087  11.968
27355W        W98971  36.853  35.449   1.797
27356W        W98972  36.318  12.277   1.056
27357W        W98973  22.729  29.498  13.598
27358W        W98974  28.192  37.500   4.095
27359W        W98975  16.435  24.923  11.979
27360W        W98976   9.053  41.321   3.219
27361W        W98977  26.807  44.210  13.361
27362W        W98978  22.487   4.919   3.736
27363W        W98979  27.650  23.097   0.335
27364W        W98980  31.959  41.021   1.368
27365W        W98981  26.015   0.343   4.400
27366W        W98982  36.357  12.823   3.884
27367W        W98983   2.521  12.205  10.745
27368W        W98984  14.617   3.278  12.108
27369W        W98985   8.333  24.160   0.895
27370W        W98986  30.588  28.585   0.560
27371W        W98987  10.545  40.218  13.003
27372W        W98988  28.009  20.070  11.046
27373W        W98989  12.106  15.641   0.837
27374W        W98990  21.713   4.116  14.203
27375W        W98991  24.039   9.680  14.880
27376W        W98992  14.555  19.155   2.216
27377W        W98993  24.049  11.488  10.511
27378W        W98994  10.783  22.332  10.217
27379W        W98995  25.572  33.919   4.801
27380W        W98996  15.800  32.092   4.226
27381W        W98997   5.340  10.496   0.685
27382W        W98998  12.311  31.155  13.328
27383W        W98999  13.683  37.372   3.568
27384W        W99000   1.622  24.327   0.328
27385W        W99001  43.727  10.981   0.891
27386W        W99002  18.498  37.550   3.636
27387W        W99003   4.154  43.990  12.460
27388W        W99004  27.956  40.833   1.782
27389W        W99005  37.928  16.356  14.986
27390W        W99006   0.886  23.678   1.979
27391W        W99007  29.099  26.527  14.095
27392W        W99008   0.193  44.780   3.214
27393W        W99009  25.281  27.965  14.375
27394W        W99010   5.359   0.772   0.646
27395W        W99011   0.885   7.171  12.465
27396W        W99012  35.275  35.018  13.313
27397W        W99013   4.434  20.099  12.852
27398W        W99014   5.249  11.087  13.896
27399W        W99015  21.478  17.682   4.737
27400W        W99016  30.699  44.828  12.488
27401W        W99017  36.660   6.643   3.677
27402W        W99018  11.977  30.159   4.767
27403W        W99019   8.559  24.561  13.637
27404W        W99020   4.283  25.687  13.446
27405W        W99021   5.224  15.670   3.735
27406W        W99022  15.036  44.879  10.641
27407W        W99023  30.066  14.563   4.483
27408W        W99024   0.313  34.161   4.497
27409W        W99025  36.932  34.387  12.481
27410W        W99026  20.327  15.220   0.468
27411W        W99027   5.173  25.797   4.167
27412W        W99028   6.368   6.977  14.834
27413W        W99029  36.474   4.461   0.641
27414W        W99030  37.540  20.059  11.161
27415W        W99031  35.039  21.478  12.505
27416W        W99032  44.619  13.995   2.289
27417W        W99033  34.543  21.083  13.810
27418W        W99034  29.609   9.447  12.879
27419W        W99035  39.964  12.276  13.324
27420W        W99036  33.027  36.536  13.948
27421W        W99037   6.353  44.366  13.923
27422W        W99038  14.238  23.022   4.548
27423W        W99039  20.367  27.965  14.422
27424W        W99040  44.896  33.505  12.032
27425W        W99041   7.649  13.419  11.487
27426W        W99042  18.065   5.146  13.381
27427W        W99043  43.290   8.441   4.160
27428W        W99044   7.343   8.789  11.736
27429W        W99045   7.314  11.550   1.965
27430W        W99046   7.738   0.303   3.888
27431W        W99047  28.080   5.912  12.470
27432W        W99048  41.386  33.532  12.326
27433W        W99049  15.840  38.444   0.954
27434W        W99050  41.727  29.506   2.201
27435W        W99051  13.228  31.177   3.966
27436W        W99052   1.072  15.238   0.244
27437W        W99053  25.516  19.850   2.595
27438W        W99054  25.462  22.086   4.533
27439W        W99055  24.212  36.917   3.745
27440W        W99056  38.481  44.681   4.114
27441W        W99057   4.802   8.131  14.978
27442W        W99058  13.585   9.929   0.151
27443W        W99059  31.615  18.994  13.550
27444W        W99060  13.554  40.093  10.675
27445W        W99061  33.469  33.066   2.675
27446W        W99062  29.016   7.886  12.369
27447W        W99063  40.315  22.672  10.281
27448W        W99064   3.932  23.174   4.042
27449W        W99065  27.523  33.599   3.627
27450W        W99066  12.837  18.235   3.909
27451W        W99067  24.070  35.869   0.236
27452W        W99068  28.422  25.312   4.811
27453W        W99069  33.500  32.871  13.999
27454W        W99070  36.602   2.974   3.233
27455W        W99071  30.712   5.507   2.920
27456W        W99072  22.655  10.621  10.929
27457W        W99073  34.365  23.256  10.830
27458W        W99074  37.462   2.673   1.383
27459W        W99075  29.339  14.606  10.282
27460W        W99076  27.120  25.898   2.826
27461W        W99077  28.017  15.313   0.296
27462W        W99078   4.440  16.711   1.418
27463W        W99079  44.439   7.845   0.882
27464W        W99080  43.737  38.123  12.182
27465W        W99081  42.950  14.148  12.552
27466W        W99082  20.809   7.998   3.669
27467W        W99083  21.679  29.317   1.243
27468W        W99084  18.800  24.846   2.274
27469W        W99085  35.410  19.136  11.555
27470W        W99086   8.727  30.368   1.842
27471W        W99087  40.055  38.034  10.724
27472W        W99088  13.196   3.230   1.402
27473W        W99089  26.729  42.272  12.020
27474W        W99090  22.422   9.121  10.571
27475W        W99091  28.987   5.509   4.677
27476W        W99092   0.503  18.113  11.092
27477W        W99093  35.108  42.982  11.040
27478W        W99094  40.258  15.809   3.191
27479W        W99095  37.632  15.711   3.751
27480W        W99096  34.434  21.860  13.195
27481W        W99097  44.547  16.595   0.736
27482W        W99098   9.655  44.202   2.634
27483W        W99099  24.610  13.264   1.257
27484W        W99100  40.963  16.071   1.753
27485W        W99101  37.458  40.417  10.737
27486W        W99102  21.144  27.250   1.769
27487W        W99103  29.506  20.801   1.276
27488W        W99104  38.821  13.150  12.942
27489W        W99105  43.031  21.597   2.350
27490W        W99106   3.355  43.245  13.514
27491W        W99107  29.733  15.628  12.080
27492W        W99108  31.731  41.685  11.596
27493W        W99109  33.295  20.059  10.741
27494W        W99110  24.076  20.138   4.298
27495W        W99111  34.136  14.782   0.812
27496W        W99112   9.129   6.693  13.434
27497W        W99113  28.065  14.449  14.974
27498W        W99114  40.346  19.210   0.755
27499W        W99115   7.297  30.756   0.798
27500W        W99116  17.069   9.771   0.200
27501W        W99117  40.661  41.907  14.201
27502W        W99118  26.197  39.579   1.930
27503W        W99119  32.216   7.840  14.375
27504W        W99120  26.476  13.683   2.870
27505W        W99121  44.512  18.786   4.670
27506W        W99122  13.661  38.871   4.545
27507W        W99123  25.576  29.240   3.714
27508W        W99124  43.517  38.573   5.606
27509W        W99125   9.174  40.068   3.345
27510W        W99126   2.745  33.658   2.420
27511W        W99127  18.790  33.442  13.826
27512W        W99128  18.033  38.129  13.811
27513W        W99129  15.225  39.769  12.986
27514W        W99130  30.194  21.109  10.909
27515W        W99131   5.427   9.070  14.327
27516W        W99132  41.823  21.514   1.913
27517W        W99133  44.290  36.012  12.074
27518W        W99134  14.756   1.995   4.405
27519W        W99135  13.729  42.121   2.138
27520W        W99136  32.188  29.022  14.199
27521W        W99137  35.546  12.350   0.419
27522W        W99138   8.297  44.180  14.019
27523W        W99139  41.543  24.969   4.659
27524W        W99140  30.691   2.242   1.797
27525W        W99141   2.828   4.301  14.431
27526W        W99142  31.429   7.687  13.181
27527W        W99143  18.538   2.976   0.038
27528W        W99144  11.820  25.534   1.358
27529W        W99145  27.987  15.150   2.425
27530W        W99146  14.648  36.452  14.845
27531W        W99147  23.963  14.139   4.117
27532W        W99148   5.250   6.226   0.208
27533W        W99149  37.885  32.414  11.678
27534W        W99150  23.560  27.827   2.819
27535W        W99151  20.623   1.725  11.572
27536W        W99152  31.600  13.194  14.196
27537W        W99153  44.842   4.359   2.834
27538W        W99154   0.690  31.955   1.044
27539W        W99155   5.265  38.574   1.757
27540W        W99156   3.524  20.111  11.082
27541W        W99157   5.343   3.950   3.742
27542W        W99158  28.138   4.290   1.101
27543W        W99159  11.632  41.014  12.871
27544W        W99160  16.117  34.373  13.938
27545W        W99161  29.036  26.007  10.768
27546W        W99162  20.698  10.603   1.813
27547W        W99163  17.474   8.170   1.815
27548W        W99164  13.557  30.204   3.620
27549W        W99165   9.636   8.626  12.851
27550W        W99166  22.037  11.454   2.259
27551W        W99167   5.306  25.202  12.367
27552W        W99168   2.134   6.334   1.936
27553W        W99169  10.488  44.531  14.365
27554W        W99170  43.466  12.573   9.893
27555W        W99171   6.667   0.408   2.892
27556W        W99172  36.568   3.936   1.312
27557W        W99173   5.473  30.121  12.088
27558W        W99174  12.796   1.821  13.388
27559W        W99175  10.308   3.630   4.639
27560W        W99176  38.370  18.673  10.860
27561W        W99177  35.671  23.332  11.348
27562W        W99178  18.976  16.659   2.151
27563W        W99179  31.099  44.932   2.223
27564W        W99180   6.925  29.975  14.387
27565W        W99181   0.286  15.714   3.211
27566W        W99182  13.825  31.442  11.655
27567W        W99183  10.471   0.995  14.462
27568W        W99184  40.078   1.006  13.107
27569W        W99185   2.715   5.458   4.227
27570W        W99186   3.219  35.585  12.437
27571W        W99187  44.448  26.625  10.701
27572W        W99188  33.114   7.788   3.688
27573W        W99189  26.134   3.473   1.941
27574W        W99190  39.042   0.488  13.050
27575W        W99191  25.283  17.353   2.852
27576W        W99192  14.694  11.360  13.856
27577W        W99193  22.177   4.880  12.017
27578W        W99194   9.392  33.220   0.903
27579W        W99195  28.721   2.269   3.654
27580W        W99196  16.153  43.870  11.609
27581W        W99197  40.073  34.556   4.722
27582W        W99198  17.854  44.297  11.571
27583W        W99199  23.451  25.253   3.207
27584W        W99200   1.212  21.113   4.789
27585W        W99201  36.092   5.276   4.551
27586W        W99202  21.229  43.985  10.551
27587W        W99203  34.309  12.865   0.908
27588W        W99204  19.304  29.695   0.183
27589W        W99205   8.402  40.015   0.251
27590W        W99206  22.451   2.975  10.918
27591W        W99207  42.920   3.038   4.640
27592W        W99208  22.737  44.249   4.073
27593W        W99209  14.230   4.712  12.003
27594W        W99210  21.765   9.625   0.873
27595W        W99211  13.112   5.190   4.191
27596W        W99212  30.580  30.367   9.693
27597W        W99213   1.760  38.352   2.786
27598W        W99214   5.814  29.314   4.632
27599W        W99215  12.210   6.657   2.336
27600W        W99216  19.049  13.265   1.759
27601W        W99217  15.334  16.163   2.848
27602W        W99218  16.876  38.408  12.490
27603W        W99219  42.907   6.433   1.757
27604W        W99220  18.479  16.039   3.714
27605W        W99221  18.587   7.906  12.121
27606W        W99222   5.783  43.457  11.616
27607W        W99223   9.772  13.756   1.941
27608W        W99224   0.369   7.270   0.940
27609W        W99225  35.230   4.686   1.602
27610W        W99226  15.734  18.983  14.588
27611W        W99227  44.839  36.925   0.977
27612W        W99228  27.626  41.789   1.522
27613W        W99229  11.448  15.548   3.285
27614W        W99230  22.486  16.565  11.965
27615W        W99231   2.356   8.608   3.312
27616W        W99232   7.230  35.626  10.739
27617W        W99233   0.769  15.544  10.153
27618W        W99234  41.447   1.944  12.481
27619W        W99235  43.967   9.837  14.294
27620W        W99236  26.501   8.744   2.534
27621W        W99237  42.849  26.254   1.823
27622W        W99238  14.194  32.639   1.823
27623W        W99239   3.249  30.046   3.413
27624W        W99240  30.560  10.129   1.206
27625W        W99241   6.759  22.159   1.766
27626W        W99242  11.959  12.300   2.837
27627W        W99243   3.681  24.940   2.159
27628W        W99244  28.898  39.864   3.144
27629W        W99245  22.976  20.479  11.499
27630W        W99246  33.436   0.391  13.283
27631W        W99247   1.743   8.877   3.903
27632W        W99248  40.988   0.439   4.091
27633W        W99249  34.067   3.383   3.218
27634W        W99250  15.570  15.336   3.328
27635W        W99251  33.741  26.213   2.849
27636W        W99252  18.691  15.555  11.619
27637W        W99253  43.778  22.676  14.399
27638W        W99254  37.855  27.357   1.881
27639W        W99255  40.907  28.476   4.139
27640W        W99256  37.105  34.595  14.449
27641W        W99257  39.387  35.392  12.940
27642W        W99258  43.353  32.566  13.825
27643W        W99259  21.593  30.455   1.504
27644W        W99260   2.404  14.573   4.215
27645W        W99261  39.185   2.329  11.148
27646W        W99262  16.818  13.873   3.847
27647W        W99263  32.401  14.860   1.431
27648W        W99264  27.900  30.420  12.908
27649W        W99265  28.044  26.457   4.230
27650W        W99266   4.862  25.193   0.863
27651W        W99267  24.148  16.119   3.658
27652W        W99268  28.369  42.848   0.939
27653W        W99269  19.562  26.931  14.820
27654W        W99270  22.771   2.907   1.796
27655W        W99271  14.390  40.869  11.204
27656W        W99272  23.221   4.449   2.173
27657W        W99273  39.286   3.845  13.586
27658W        W99274  29.976  29.244  12.054
27659W        W99275   6.897  35.218  14.528
27660W        W99276  37.186  41.926   0.805
27661W        W99277  27.487  44.910   3.257
27662W        W99278  33.305  12.720   1.229
27663W        W99279  39.008  18.770  13.429
27664W        W99280   6.294  35.019   3.293
27665W        W99281  39.466   0.410  10.729
27666W        W99282  10.833  32.327   2.718
27667W        W99283   9.404   0.371   1.960
27668W        W99284   7.326  25.948  14.396
27669W        W99285   6.314  17.765   0.010
27670W        W99286  41.602  42.535  11.907
27671W        W99287  32.104  29.208  10.187
27672W        W99288  36.935  11.665   1.166
27673W        W99289  27.611  37.172   0.474
27674W        W99290  23.866  18.040  10.398
27675W        W99291   2.742  38.306   3.549
27676W        W99292  25.009  38.916   2.154
27677W        W99293  13.918   7.047   5.143
27678W        W99294  20.068  41.903  13.874
27679W        W99295  33.496  16.116  11.629
27680W        W99296  19.816  34.166   2.291
27681W        W99297  31.468  28.030   4.189
27682W        W99298  32.464  42.079   3.496
27683W        W99299  31.688  27.559   4.223
27684W        W99300  29.971  19.549   3.586
27685W        W99301  14.317   7.838   2.782
27686W        W99302  19.762  22.551   0.694
27687W        W99303  12.088  11.770   4.634
27688W        W99304  28.267  38.826  14.385
27689W        W99305  35.885  20.354   3.720
27690W        W99306  25.699  37.762  12.082
27691W        W99307  32.592   5.692   3.281
27692W        W99308  12.685  40.915   1.685
27693W        W99309  16.321  37.969  10.725
27694W        W99310  34.929   3.326  14.446
27695W        W99311   4.792   2.702   0.856
27696W        W99312   7.164  28.865  11.149
27697W        W99313  19.938  12.664  11.149
27698W        W99314  30.354  18.817  14.360
27699W        W99315   0.903  16.232   1.978
27700W        W99316  41.557  36.827   2.043
27701W        W99317  44.838   5.406   1.916
27702W        W99318   5.883  39.471   3.557
27703W        W99319  38.923   2.545  13.444
27704W        W99320  19.388  16.788  12.029
27705W        W99321  40.934  37.480  13.595
27706W        W99322  42.392  38.932   2.107
27707W        W99323   1.620  39.028  10.736
27708W        W99324  11.804  22.336  14.970
27709W        W99325  37.962  42.946  12.822
27710W        W99326  35.511  33.745   1.832
27711W        W99327  23.053   3.878  10.755
27712W        W99328  43.837  19.160   3.269
27713W        W99329  23.100  42.346  10.840
27714W        W99330  15.905  22.375   1.799
27715W        W99331  30.204  11.136  11.859
27716W        W99332  23.518  13.533   2.184
27717W        W99333   9.571  16.053  13.873
27718W        W99334  35.958  17.148   2.397
27719W        W99335  16.417  20.762  10.410
27720W        W99336  14.643  35.685   2.351
27721W        W99337  43.010  14.492   1.945
27722W        W99338  32.521  26.135  10.673
27723W        W99339   7.119   9.549  11.907
27724W        W99340   2.278   3.927  11.464
27725W        W99341  39.987  23.387   1.773
27726W        W99342  25.587  14.776  12.570
27727W        W99343  36.007  17.203  14.712
27728W        W99344  31.107  35.567   0.865
27729W        W99345   5.289   6.753   1.601
27730W        W99346  19.642  27.566   3.277
27731W        W99347  40.293  43.856  11.108
27732W        W99348  36.398  11.142   0.344
27733W        W99349  11.372  24.423  11.999
27734W        W99350   8.953   4.326   2.831
27735W        W99351  10.571   4.693   2.160
27736W        W99352   4.628  12.656   3.700
27737W        W99353  27.487  33.980  12.002
27738W        W99354   5.222  18.895  12.850
27739W        W99355  18.971   3.701   1.194
27740W        W99356  31.419  20.755   4.636
27741W        W99357  29.906  36.805   0.687
27742W        W99358   7.306  25.250  12.826
27743W        W99359  41.250   5.670  12.372
27744W        W99360  28.919   9.420  13.901
27745W        W99361  15.745  18.263   0.965
27746W        W99362  35.654   8.635  14.823
27747W        W99363  27.745   7.673  12.636
27748W        W99364  20.812   2.210  13.824
27749W        W99365   7.846  20.159   0.061
27750W        W99366  10.696  28.201   4.679
27751W        W99367  26.665  41.219  14.372
27752W        W99368  34.391   0.920   4.225
27753W        W99369   6.781   3.487   2.732
27754W        W99370  20.648  21.045  10.763
27755W        W99371   0.775  16.735   1.936
27756W        W99372  37.016  17.580   3.610
27757W        W99373  25.179   6.671   1.288
27758W        W99374  31.933  38.847  11.123
27759W        W99375   0.731  43.840  13.405
27760W        W99376  43.533  12.043  12.270
27761W        W99377  26.606   0.077   1.304
27762W        W99378  12.864  44.220   1.035
27763W        W99379  42.715  23.327   2.361
27764W        W99380  40.747   1.717  13.066
27765W        W99381  13.709  14.731  11.189
27766W        W99382  20.112  16.610   3.155
27767W        W99383   0.921  14.591   2.271
27768W        W99384  22.586  13.598  14.404
27769W        W99385  34.117  15.169   4.456
27770W        W99386  11.225  42.564  11.844
27771W        W99387  23.989  15.867   3.237
27772W        W99388  19.536  42.360   2.853
27773W        W99389  16.047   1.830  13.502
27774W        W99390  41.813   4.337  12.443
27775W        W99391  44.306  30.890   4.447
27776W        W99392  40.419  25.631   3.838
27777W        W99393  26.681   0.223  10.846
27778W        W99394   7.843  36.283   2.206
27779W        W99395   8.245  21.474   3.811
27780W        W99396  35.603  14.852   4.211
27781W        W99397  16.413  14.366   3.313
27782W        W99398   9.594  12.177  12.087
27783W        W99399  28.920  23.179  11.694
27784W        W99400  28.870  44.312   3.931
27785W        W99401  36.830  39.809   3.128
27786W        W99402  32.094  26.019   4.773
27787W        W99403  15.735  41.250  12.364
27788W        W99404  17.352  17.096   0.708
27789W        W99405   7.670  35.398  13.372
27790W        W99406  43.156  44.246  11.384
27791W        W99407  24.510  44.327  11.992
27792W        W99408  11.503   8.821   4.979
27793W        W99409  12.395  39.520  13.923
27794W        W99410  43.240  31.993  11.544
27795W        W99411  29.141  37.485  10.684
27796W        W99412  15.546   0.174   2.168
27797W        W99413  32.006  33.070  11.403
27798W        W99414   0.523  30.919  12.518
27799W        W99415  13.594  27.660  11.918
27800W        W99416  37.057   1.341   3.934
27801W        W99417   9.725  10.379  12.101
27802W        W99418  18.033  16.495  13.552
27803W        W99419  14.879  24.636   0.717
27804W        W99420  14.655  38.232   3.401
27805W        W99421  38.081  11.192  11.147
27806W        W99422  29.506  41.143  11.420
27807W        W99423  43.999  32.389   0.510
27808W        W99424  29.211  14.520  14.954
27809W        W99425  17.860   4.894  13.971
27810W        W99426  28.588  44.168   3.135
27811W        W99427  14.398   6.753   5.037
27812W        W99428   5.683  34.003   0.678
27813W        W99429   8.795  14.452  14.838
27814W        W99430  31.608  16.764   0.866
27815W        W99431  35.566   9.420   4.390
27816W        W99432  23.720  24.479  11.532
27817W        W99433  31.197  17.787   1.442
27818W        W99434  35.314  43.685   4.243
27819W        W99435  18.747  32.638   0.260
27820W        W99436  15.326  14.543   4.158
27821W        W99437  27.957  21.609  13.535
27822W        W99438   3.724   3.347  13.846
27823W        W99439   1.992   9.502   2.006
27824W        W99440  27.151  40.059   0.802
27825W        W99441  20.241  33.572  14.198
27826W        W99442  20.648  37.090   4.120
27827W        W99443  19.238  13.224  14.217
27828W        W99444  37.000  14.675   1.551
27829W        W99445  21.909  42.363  14.268
27830W        W99446  25.245  21.684   0.311
27831W        W99447  32.680  37.022   0.377
27832W        W99448  15.022  36.203   0.851
27833W        W99449  24.634  24.471  13.610
27834W        W99450  20.030  38.296  14.881
27835W        W99451   6.657  42.025   2.116
27836W        W99452   4.430  26.775   3.788
27837W        W99453  11.127  28.476   1.420
27838W        W99454  17.017   7.200   4.875
27839W        W99455  17.101   3.776  11.715
27840W        W99456  26.099   5.691  12.179
27841W        W99457  31.587  30.486   2.738
27842W        W99458  11.183  34.626  12.962
27843W        W99459   0.787  32.880  11.497
27844W        W99460   0.676  40.154  14.483
27845W        W99461   9.685  15.202   0.460
27846W        W99462  33.448  18.775   0.369
27847W        W99463  10.198  43.368   4.377
27848W        W99464   8.636  20.198   0.773
27849W        W99465   3.407  39.903   2.737
27850W        W99466  35.152   6.845  13.596
27851W        W99467   6.798  28.203   2.108
27852W        W99468   9.117   6.940   2.197
27853W        W99469  13.605  44.325   0.461
27854W        W99470  30.615   3.245  14.820
27855W        W99471  38.353  35.905   1.805
27856W        W99472  10.850  31.272   0.056
27857W        W99473  30.065  19.333   4.635
27858W        W99474  32.150   6.334  14.352
27859W        W99475   6.202  41.529  10.218
27860W        W99476  22.997  21.282  14.408
27861W        W99477  15.238  27.103   1.424
27862W        W99478  17.751  37.235   3.195
27863W        W99479  29.969  32.969  11.473
27864W        W99480  11.966  44.143   1.276
27865W        W99481   2.402  27.940  11.970
27866W        W99482  35.854  11.693   2.586
27867W        W99483  24.049  37.665  14.561
27868W        W99484  18.246  35.985  12.557
27869W        W99485  29.570  39.567   1.623
27870W        W99486  16.243  11.556   1.472
27871W        W99487  31.138  42.278   1.719
27872W        W99488   2.313  19.241  13.355
27873W        W99489   9.615  40.217   2.423
27874W        W99490  18.942  42.475   1.868
27875W        W99491  39.892  19.024  11.436
27876W        W99492  26.415  27.451  13.760
27877W        W99493  38.367  23.120  10.702
27878W        W99494  30.459  39.097   3.171
27879W        W99495  23.519  25.770  11.185
27880W        W99496  15.302  40.232   4.991
27881W        W99497  21.017   4.355   0.043
27882W        W99498  36.555   3.410  11.162
27883W        W99499  27.031  41.425   4.368
27884W        W99500  23.196  36.508  10.990
27885W        W99501  17.872  42.926   1.307
27886W        W99502  14.986   2.952   9.509
27887W        W99503  22.598  43.377   0.522
27888W        W99504  20.191  14.268  11.402
27889W        W99505  17.352  22.131  14.380
27890W        W99506  11.143  15.172  13.837
27891W        W99507  28.099  11.928   3.141
27892W        W99508   0.930  20.006  13.567
27893W        W99509  35.974  33.967   1.868
27894W        W99510  22.122  41.928  11.329
27895W        W99511  22.709  16.177   3.773
27896W        W99512  12.262  33.469  11.388
27897W        W99513  12.925  40.067   2.697
27898W        W99514  19.147  24.446   1.338
27899W        W99515  35.991   8.809   0.197
27900W        W99516  20.295   3.931   4.834
27901W        W99517   0.153   5.175   3.165
27902W        W99518   6.474  17.577  11.109
27903W        W99519  26.401  13.317   1.743
27904W        W99520  34.016  31.390  11.623
27905W        W99521  30.895  30.878  14.587
27906W        W99522   3.383  29.105   3.927
27907W        W99523   4.339  37.650  12.792
27908W        W99524  29.676  24.971  12.132
27909W        W99525  17.417   3.255  12.471
27910W        W99526  38.326  14.321  11.946
27911W        W99527  32.579  44.531  10.623
27912W        W99528  34.169  29.564   4.036
27913W        W99529  16.129  24.951  12.459
27914W        W99530   6.124  25.154  11.967
27915W        W99531   0.843  42.007   4.093
27916W        W99532  27.961  39.590  14.847
27917W        W99533   3.106   3.423   3.755
27918W        W99534  43.099  13.594  11.767
27919W        W99535  11.734  23.296   4.611
27920W        W99536  15.840  38.479  12.553
27921W        W99537  31.975  29.686  14.011
27922W        W99538  22.189  11.828  11.426
27923W        W99539  32.003   6.209  12.314
27924W        W99540  12.187  13.754  11.997
27925W        W99541  29.373   2.482   0.177
27926W        W99542  40.388  24.294  14.269
27927W        W99543  28.886  17.780   0.316
27928W        W99544  11.787   1.272  12.820
27929W        W99545  41.469   2.230   3.160
27930W        W99546  17.241  12.244  11.875
27931W        W99547  41.868  19.145  14.038
27932W        W99548  23.553  22.906   0.286
27933W        W99549  12.134  12.656  13.525
27934W        W99550  17.692  27.649   2.288
27935W        W99551  11.607  34.425  11.654
27936W        W99552  42.421   7.418  14.501
27937W        W99553  20.966  25.452   2.643
27938W        W99554  44.266  22.755   0.511
27939W        W99555  31.602  35.980  13.741
27940W        W99556  17.088   5.000  13.449
27941W        W99557  40.947   4.752   3.727
27942W        W99558   8.485  21.461  10.221
27943W        W99559  44.565  37.526   4.036
27944W        W99560  36.632  13.256  12.436
27945W        W99561  14.111   3.727  13.542
27946W        W99562  12.618   8.087  13.106
27947W        W99563  43.578   3.328   3.450
27948W        W99564   0.852   1.528  13.540
27949W        W99565  28.660  30.798   0.779
27950W        W99566  30.597  42.687   2.313
27951W        W99567  17.251  34.264   9.975
27952W        W99568   2.238  21.326  13.517
27953W        W99569  35.569  27.485  12.220
27954W        W99570  10.372  16.758  10.779
27955W        W99571  34.908  23.723  13.859
27956W        W99572  32.628  26.699   0.467
27957W        W99573  32.992  28.624  10.278
27958W        W99574  22.099  14.148  10.611
27959W        W99575  29.019   2.882   2.720
27960W        W99576   8.205   1.252   4.027
27961W        W99577  23.610   8.655   0.635
27962W        W99578  39.020  17.515   0.240
27963W        W99579  38.005  44.842  12.575
27964W        W99580  12.642   0.154   0.724
27965W        W99581  16.067   5.216   0.446
27966W        W99582  20.624  36.595   4.857
27967W        W99583   6.660  41.432  13.540
27968W        W99584  25.692   7.190   3.523
27969W        W99585  33.060   2.165   2.681
27970W        W99586  20.009  41.478   0.460
27971W        W99587  12.146  19.209   3.456
27972W        W99588  38.507  27.426  12.578
27973W        W99589  12.437   0.013  10.809
27974W        W99590  11.470  35.502  12.047
27975W        W99591  37.851  10.063   4.595
27976W        W99592  36.291  31.615  11.065
27977W        W99593   8.232  19.328   2.710
27978W        W99594  44.753  14.281   0.855
27979W        W99595  42.625   5.301   2.360
27980W        W99596  30.451  40.895   1.251
27981W        W99597  16.962   3.390   3.482
27982W        W99598  29.725  13.968  13.287
27983W        W99599  41.046  23.729   0.601
27984W        W99600  43.027   6.750  14.471
27985W        W99601  25.747   2.462  11.157
27986W        W99602  24.085  20.654   1.830
27987W        W99603  11.425  36.531  14.995
27988W        W99604   2.803  38.274  12.051
27989W        W99605   3.653  35.930   3.240
27990W        W99606   6.970   0.335  14.550
27991W        W99607  18.855  16.788   2.642
27992W        W99608  14.835  12.908  14.626
27993W        W99609  31.397  10.763  14.478
27994W        W99610  36.334  44.282  11.487
27995W        W99611   5.881  22.022  13.372
27996W        W99612  37.814  13.055  12.959
27997W        W99613  20.254  30.982  12.452
27998W        W99614  42.617  22.579  11.692
27999W        W99615   0.587  11.121   0.204
28000W        W99616  21.155  19.305   2.757
28001W        W99617  23.506  12.132   4.718
28002W        W99618  24.085  23.734   1.737
28003W        W99619   0.812   4.909  11.122
28004W        W99620  20.754   2.995   3.576
28005W        W99621  36.555  12.019  13.560
28006W        W99622  27.165   1.553  13.342
28007W        W99623  38.879  17.815   3.151
28008W        W99624  21.448  41.884   1.371
28009W        W99625  26.185  39.977   4.072
28010W        W99626  28.472  24.120  13.324
28011W        W99627  18.813  24.622  14.396
28012W        W99628   7.833  26.201   3.325
28013W        W99629   9.120  35.406  14.642
28014W        W99630  27.134  24.027   0.735
28015W        W99631  34.960  14.776  14.912
28016W        W99632  33.143   1.181   2.889
28017W        W99633  37.446   4.437   4.086
28018W        W99634  10.615  22.432  12.852
28019W        W99635   1.454  20.166  11.219
28020W        W99636   8.150  40.071   4.596
28021W        W99637  18.586  39.964  12.389
28022W        W99638  27.696  30.671   2.160
28023W        W99639  31.040  44.787  13.869
28024W        W99640  23.856  24.211  11.068
28025W        W99641   8.399   8.178   3.086
28026W        W99642   1.464  33.444  11.188
28027W        W99643  35.428  18.301  10.991
28028W        W99644   1.720   0.333   0.972
28029W        W99645  35.796   1.031  13.882
28030W        W99646   9.823  39.450  12.118
28031W        W99647  28.143   9.222   0.294
28032W        W99648  16.999   7.150  14.385
28033W        W99649  21.649  11.419  14.701
28034W        W99650  43.257  24.494   1.736
28035W        W99651  40.784  15.856  13.499
28036W        W99652  41.500  13.835   5.204
28037W        W99653  24.090   3.530  11.655
28038W        W99654  11.519  20.624   3.567
28039W        W99655  22.457  32.403   4.776
28040W        W99656   7.802  17.581   4.692
28041W        W99657  22.588  33.368   3.203
28042W        W99658  14.908  35.200   2.274
28043W        W99659  38.249  15.508   0.013
28044W        W99660  35.683  11.795   1.691
28045W        W99661  16.652  15.711   0.537
28046W        W99662  32.832  12.984   1.231
28047W        W99663  20.342  29.512   4.250
28048W        W99664  19.257  39.624   1.342
28049W        W99665   0.772  24.708   9.909
28050W        W99666  29.460  30.272   9.515
28051W        W99667  37.812  34.969   3.236
28052W        W99668  10.190   2.067  14.499
28053W        W99669  43.258  18.337   2.000
28054W        W99670  30.498   0.964  12.038
28055W        W99671  10.326  13.184   4.135
28056W        W99672  15.731  11.627   4.051
28057W        W99673  36.425  33.581  10.312
28058W        W99674  44.781  44.838  11.854
28059W        W99675  41.205   8.625  13.371
28060W        W99676  14.599   3.729   2.317
28061W        W99677  37.116   7.182  11.101
28062W        W99678  40.419  15.437  13.499
28063W        W99679  30.215  42.295   4.722
28064W        W99680   9.753  30.682   0.624
28065W        W99681   4.902   1.979  13.886
28066W        W99682  35.838  31.058  12.372
28067W        W99683  38.865  31.133   1.627
28068W        W99684  23.010  12.424  11.665
28069W        W99685  20.503  21.085   3.165
28070W        W99686  10.187  18.254  11.635
28071W        W99687   5.425  39.640  12.899
28072W        W99688  33.609   3.502  13.836
28073W        W99689  38.501  30.415  14.724
28074W        W99690   2.972  44.322   1.372
28075W        W99691   6.425  41.317   3.382
28076W        W99692  32.253  29.101  12.377
28077W        W99693  32.202  14.618  11.166
28078W        W99694  41.602  26.190   0.391
28079W        W99695  35.338   4.892  14.872
28080W        W99696   4.435   9.177  12.643
28081W        W99697  10.490  12.249   1.239
28082W        W99698  12.690  37.865   3.858
28083W        W99699  19.606  11.648   0.871
28084W        W99700  33.017  14.090   3.169
28085W        W99701  39.891  36.276   3.273
28086W        W99702  36.503  42.995   1.431
28087W        W99703  29.448  33.384   1.292
28088W        W99704  24.168  30.147  13.873
28089W        W99705   7.196  35.599  13.389
28090W        W99706  25.153   0.492  11.629
28091W        W99707  30.976  44.954   4.785
28092W        W99708  10.626  40.353  14.073
28093W        W99709  12.422  34.469  12.342
28094W        W99710  21.154  30.215  11.133
28095W        W99711  20.753  27.623   0.266
28096W        W99712  15.997  19.313   2.348
28097W        W99713   2.904  25.160   4.784
28098W        W99714  41.008  25.738  12.451
28099W        W99715   6.633  42.388   4.220
28100W        W99716   5.401  17.706  13.604
28101W        W99717   9.858  29.327   3.364
28102W        W99718  20.439   0.165  11.411
28103W        W99719  27.628  25.512  11.569
28104W        W99720   9.131  35.823   1.731
28105W        W99721  24.635   5.718  12.147
28106W        W99722  38.318  23.213   1.714
28107W        W99723  21.429  39.007   3.780
28108W        W99724  34.435  22.651   2.583
28109W        W99725  34.031  19.693  13.006
28110W        W99726  41.377  15.304  13.991
28111W        W99727   2.851  32.002  11.895
28112W        W99728  43.288  15.398  14.355
28113W        W99729  29.399   0.378  12.549
28114W        W99730   9.798  20.568  13.088
28115W        W99731   9.664  28.092   4.786
28116W        W99732  34.400   3.414   2.725
28117W        W99733  26.774   6.913  13.052
28118W        W99734   9.350  36.951  12.425
28119W        W99735  42.520  27.151  12.682
28120W        W99736   3.176  22.562  11.221
28121W        W99737  27.721  11.130  11.972
28122W        W99738  42.603   3.673  10.763
28123W        W99739  28.709  14.816  12.064
28124W        W99740  30.476  24.422  12.579
28125W        W99741  29.714  11.739   4.047
28126W        W99742  41.815  17.605  10.590
28127W        W99743  13.183  38.951   3.126
28128W        W99744  30.353  38.974   4.620
28129W        W99745  24.710  36.565  13.475
28130W        W99746   0.384  36.520   3.689
28131W        W99747  13.929  17.187   1.858
28132W        W99748  23.225  24.096   0.803
28133W        W99749  10.090  28.202  13.398
28134W        W99750  30.204  23.690  11.100
28135W        W99751  26.698  23.062   3.650
28136W        W99752  30.540  31.340   3.669
28137W        W99753  13.184   7.142   0.404
28138W        W99754  19.236  35.415   4.651
28139W        W99755  21.944  23.479   0.272
28140W        W99756  31.419  40.356   0.815
28141W        W99757  32.173  36.307   0.093
28142W        W99758  19.035  14.610   0.322
28143W        W99759   5.413  36.340   2.490
28144W        W99760  43.112   1.043  13.835
28145W        W99761  21.511  19.319   2.401
28146W        W99762  22.907  10.288   1.215
28147W        W99763  16.860  39.105   2.423
28148W        W99764  21.471  30.117   2.898
28149W        W99765   9.260  32.963   1.375
28150W        W99766  33.174  25.753   2.832
28151W        W99767  12.923  38.383   4.589
28152W        W99768  41.770  29.549   3.731
28153W        W99769   9.583  28.100  14.138
28154W        W99770  40.010   2.821  12.026
28155W        W99771  12.704  11.247   2.691
28156W        W99772  16.177  13.899   0.436
28157W        W99773  34.883   9.820  13.646
28158W        W99774  30.136  18.211   3.723
28159W        W99775  13.302  19.116   0.677
28160W        W99776  37.056  19.324   0.853
28161W        W99777   5.116  15.032   2.734
28162W        W99778  41.199  40.720   3.186
28163W        W99779   4.249   1.301   1.865
28164W        W99780  41.250  29.100  11.560
28165W        W99781   0.450  43.122  11.653
28166W        W99782  11.888  42.484  14.945
28167W        W99783  41.301   0.882   1.078
28168W        W99784  13.771   9.653   1.694
28169W        W99785  13.233   9.647   0.453
28170W        W99786  39.496  37.322  14.341
28171W        W99787  14.530   5.773   2.705
28172W        W99788  21.892  34.546   2.345
28173W        W99789  10.731  31.405  12.907
28174W        W99790  37.048  38.421  11.208
28175W        W99791   5.936  16.205   0.894
28176W        W99792  11.872  40.884   3.756
28177W        W99793  40.776  29.925   3.304
28178W        W99794   1.086  25.688  11.240
28179W        W99795   3.958  13.057  14.930
28180W        W99796  11.399  23.237   0.852
28181W        W99797  37.355   7.823   2.689
28182W        W99798  36.009  12.101   0.338
28183W        W99799  11.923  27.583   0.258
28184W        W99800  14.726  20.849  11.101
28185W        W99801  28.181  40.518   2.336
28186W        W99802  10.164   6.683   0.149
28187W        W99803  26.216   4.793  12.507
28188W        W99804  26.918  11.110   1.640
28189W        W99805  18.887  24.769  13.433
28190W        W99806  40.118   1.836  14.449
28191W        W99807  10.856  15.287   1.852
28192W        W99808  35.779   1.770  14.941
28193W        W99809  34.248  35.419  14.891
28194W        W99810  37.422   4.870  14.336
28195W        W99811  39.574   4.498   2.844
28196W        W99812  10.328  44.474   2.175
28197W        W99813  15.131  15.788   0.314
28198W        W99814  36.420  11.908   3.347
28199W        W99815  22.069  23.107   1.865
28200W        W99816  35.580  10.823   0.441
28201W        W99817   0.010   6.250   0.999
28202W        W99818  44.711   8.948  10.894
28203W        W99819  30.596  37.440   5.034
28204W        W99820  19.114   4.734   4.752
28205W        W99821  39.965  39.429   4.697
28206W        W99822  32.905  36.041   4.803
28207W        W99823  35.470   1.042   1.338
28208W        W99824  37.076  24.332   3.092
28209W        W99825  35.815  19.119   0.316
28210W        W99826  16.488  15.298  10.101
28211W        W99827  11.547  32.967   1.362
28212W        W99828  15.807  29.444   3.248
28213W        W99829  23.570  13.517  13.983
28214W        W99830  22.947  17.746  11.508
28215W        W99831  36.167  26.073  12.455
28216W        W99832  37.400  34.444  13.448
28217W        W99833  23.164  20.170  14.145
28218W        W99834  32.402   5.779   1.451
28219W        W99835  15.280  25.191   2.144
28220W        W99836  17.427  16.622   2.333
28221W        W99837  33.099  35.011   4.618
28222W        W99838  33.869  32.924  12.801
28223W        W99839  33.454  14.289   1.069
28224W        W99840  11.594  16.643  12.617
28225W        W99841  34.835  42.516   2.816
28226W        W99842  24.929  24.181   4.180
28227W        W99843   4.718  32.935   2.746
28228W        W99844  20.975  29.028   1.724
28229W        W99845  39.966   5.684  12.048
28230W        W99846  12.571   7.745   2.512
28231W        W99847   5.173  37.673   2.835
28232W        W99848  21.727   7.680  12.982
28233W        W99849  15.268  32.066  11.532
28234W        W99850  22.187   5.174  10.836
28235W        W99851  17.498  35.171  11.141
28236W        W99852   1.304  26.132   2.609
28237W        W99853   4.895  30.083  14.351
28238W        W99854  19.149   0.422  11.482
28239W        W99855  26.098   8.315  13.508
28240W        W99856  35.394  39.117  12.066
28241W        W99857  22.364  22.180   1.445
28242W        W99858  12.071   8.851  13.501
28243W        W99859   7.165   8.391  11.089
28244W        W99860   6.057   1.790  10.738
28245W        W99861  26.126  27.396   4.494
28246W        W99862   6.758   0.362  12.525
28247W        W99863  39.933  43.784  12.963
28248W        W99864  22.674  10.407  13.988
28249W        W99865  29.188  24.496  11.940
28250W        W99866  43.688  41.172   2.383
28251W        W99867  15.868   6.514  11.968
28252W        W99868  39.870  19.509   4.833
28253W        W99869  15.606   8.293   1.466
28254W        W99870  25.538  24.500  14.297
28255W        W99871  31.765  29.322   1.639
28256W        W99872   4.683  25.921  12.271
28257W        W99873   7.164   7.004   0.908
28258W        W99874  13.264  24.890  10.550
28259W        W99875  38.478  18.075   0.549
28260W        W99876  21.802   5.284   0.079
28261W        W99877  37.912  10.692   5.393
28262W        W99878   3.642  40.690  12.125
28263W        W99879  27.010  43.279  14.113
28264W        W99880   0.226  38.577   1.883
28265W        W99881  15.149   0.868  14.924
28266W        W99882  16.663  17.612  10.698
28267W        W99883  40.044  28.966  12.772
28268W        W99884  30.427  25.356   3.719
28269W        W99885  13.435  17.708  11.434
28270W        W99886   0.806  43.036   2.800
28271W        W99887   6.988  38.850  10.831
28272W        W99888  16.801  11.240  12.424
28273W        W99889  34.093   6.849   3.648
28274W        W99890  44.843  33.048  10.471
28275W        W99891  30.082  27.139   0.065
28276W        W99892   4.552  34.869  11.198
28277W        W99893  26.169  10.803  12.590
28278W        W99894  33.933  36.123  14.474
28279W        W99895  14.775  42.503  14.658
28280W        W99896   9.548   5.461   2.070
28281W        W99897  40.888  32.428   2.770
28282W        W99898   8.369  10.907  12.031
28283W        W99899  39.319   2.348  14.482
28284W        W99900  39.416  31.277  14.518
28285W        W99901   0.200  33.068  12.812
28286W        W99902  32.541  40.789   0.587
28287W        W99903  10.160  11.799  10.626
28288W        W99904   7.835   3.414   4.148
28289W        W99905  14.364   6.868   3.619
28290W        W99906  43.906  21.608   0.884
28291W        W99907  34.616  23.613  14.290
28292W        W99908   3.431   2.975  13.702
28293W        W99909  29.448  10.706  10.804
28294W        W99910  16.810  31.069   1.693
28295W        W99911  27.543  44.321   0.176
28296W        W99912  42.913   3.999  14.811
28297W        W99913  34.608  26.111   3.532
28298W        W99914  38.711   8.345   1.319
28299W        W99915  33.176  31.453  13.040
28300W        W99916  25.395   1.336  10.568
28301W        W99917   4.195  28.143   1.451
28302W        W99918  44.288   7.420  13.513
28303W        W99919  26.064   0.209   2.943
28304W        W99920  34.089  31.700   4.106
28305W        W99921  44.159  30.671   4.916
28306W        W99922  28.739  26.959   3.679
28307W        W99923  23.780  39.386   2.632
28308W        W99924  30.012  18.327  13.876
28309W        W99925  34.069  12.103   1.447
28310W        W99926  35.130  43.095   1.250
28311W        W99927  40.422  10.407  12.509
28312W        W99928  38.137  29.449  14.372
28313W        W99929  32.893  25.028  13.545
28314W        W99930  39.635  33.473   1.364
28315W        W99931  41.806   2.535   2.697
28316W        W99932  29.034   9.533   0.716
28317W        W99933   1.816  10.316  11.758
28318W        W99934  33.516  27.472   4.996
28319W        W99935  31.888   8.683  13.826
28320W        W99936  13.408  12.727  13.005
28321W        W99937  31.987   1.921   4.335
28322W        W99938  31.535  33.104  12.611
28323W        W99939  14.200  36.540   4.572
28324W        W99940   1.513  32.110  11.570
28325W        W99941  21.601  19.854  12.584
28326W        W99942  28.652  34.327   3.237
28327W        W99943  44.682  44.712   3.358
28328W        W99944  32.868   8.636   1.423
28329W        W99945  22.160  19.328   3.700
28330W        W99946  15.708   4.725  12.939
28331W        W99947  11.916  26.611   4.863
28332W        W99948   4.846  37.499  10.856
28333W        W99949  35.865  27.156   3.585
28334W        W99950  40.509   2.225  10.497
28335W        W99951  25.839  11.677   4.931
28336W        W99952  22.429  18.005   3.899
28337W        W99953  28.121  22.941  13.282
28338W        W99954  11.623  22.723   0.242
28339W        W99955   2.669   3.294  12.877
28340W        W99956  10.916  21.076   2.574
28341W        W99957  17.739  34.496   4.272
28342W        W99958  22.665  15.143   3.105
28343W        W99959  14.022  20.493  10.733
28344W        W99960  24.894  20.274  11.592
28345W        W99961  14.337  15.189   2.386
28346W        W99962  15.538   5.718  14.094
28347W        W99963  26.076  18.034   0.981
28348W        W99964  26.162  39.884  14.350
28349W        W99965   2.192  33.547  10.720
28350W        W99966  14.633   4.494   4.896
28351W        W99967  40.783  10.253  13.924
28352W        W99968  30.969  40.053  11.236
28353W        W99969  33.812   5.026  10.143
28354W        W99970  34.122  16.382  14.919
28355W        W99971  11.172   5.734  14.465
28356W        W99972  21.521  25.490   0.800
28357W        W99973  14.563  14.388  14.261
28358W        W99974  30.105  40.887   0.860
28359W        W99975  36.574  23.759  14.418
28360W        W99976   9.872  20.123   3.200
28361W        W99977   3.153   7.056   3.219
28362W        W99978  23.929  31.430  13.900
28363W        W99979  10.625  27.660  11.188
28364W        W99980   9.165  32.662   2.457
28365W        W99981  14.039  24.626  14.084
28366W        W99982  11.788  13.724  14.795
28367W        W99983   5.931  42.060   2.653
28368W        W99984  36.269   4.736   1.922
28369W        W99985  31.950   7.452   2.663
28370W        W99986   1.689   2.009   1.303
28371W        W99987   9.135  42.711   1.856
28372W        W99988  28.156  25.473   4.238
28373W        W99989   5.406  18.185   3.667
28374W        W99990   0.249   3.143  11.894
28375W        W99991  16.229  22.101   4.777
28376W        W99992  30.861  36.617  11.470
28377W        W99993  33.489  31.047  11.659
28378W        W99994  14.177  17.721  10.470
28379W        W99995  15.835  26.536   1.011
28380W        W99996  16.047  38.017  12.427
28381W        W99997   3.470  33.179   3.025
28382W        W99998   0.271   9.386  14.336
28383W        W99999  41.335  26.469   4.058
28384W        W    0  23.053   3.199   2.196
28385W        W    1  43.740   4.235  11.213
28386W        W    2  14.393  16.670   1.125
28387W        W    3  43.765  15.713   3.959
28388W        W    4  11.091  14.265   4.543
28389W        W    5  39.372  24.239  10.841
28390W        W    6  44.530  24.650  13.021
28391W        W    7  11.685  38.301  14.147
28392W        W    8  38.579  44.241   3.264
28393W        W    9   3.270  24.631   2.323
28394W        W   10  43.589  20.138   2.611
28395W        W   11  31.990  11.271   2.852
28396W        W   12  12.650  39.976  14.499
28397W        W   13  20.542   4.272  14.194
28398W        W   14  44.335  20.042   1.448
28399W        W   15   2.387  34.593   0.479
28400W        W   16   0.193  34.372  11.242
28401W        W   17  43.263  35.564   1.111
28402W        W   18  22.719  34.706   3.742
28403W        W   19  12.666  12.548   0.432
28404W        W   20  38.340   5.813  14.492
28405W        W   21   4.924   0.483  11.414
28406W        W   22  39.834  41.024   0.426
28407W        W   23  16.249   5.384   2.335
28408W        W   24  41.750   7.351  14.624
28409W        W   25   2.191   3.704   3.669
28410W        W   26   0.351   4.685  11.055
28411W        W   27  13.082  37.838  11.858
28412W        W   28  32.621   6.730   3.331
28413W        W   29  19.707  44.588  12.993
28414W        W   30  33.938  30.030  12.269
28415W        W   31  36.418   1.429   0.314
28416W        W   32  39.799  26.636   4.197
28417W        W   33   3.296  32.516  12.348
28418W        W   34  15.526   6.327  12.337
28419W        W   35  44.180  15.704   1.660
28420W        W   36  34.785  11.335  10.754
28421W        W   37  30.246  26.766   4.698
28422W        W   38  43.453  29.492  12.945
28423W        W   39  25.173  11.381   2.601
28424W        W   40  38.828  26.972   3.944
28425W        W   41  33.613  10.198   0.258
28426W        W   42  39.092  10.876  12.594
28427W        W   43  30.875  10.128  13.412
28428W        W   44  35.547  31.189  13.341
28429W        W   45  11.331   1.533  12.835
28430W        W   46  38.379  22.782  12.289
28431W        W   47  23.775  16.840   1.913
28432W        W   48  28.523  20.735  10.473
28433W        W   49  19.499  19.625  13.149
28434W        W   50  26.423  35.606  13.507
28435W        W   51  42.283  10.706   1.694
28436W        W   52  27.006  42.527  10.969
28437W        W   53  22.567  32.373   3.368
28438W        W   54  27.102  42.278   4.701
28439W        W   55  30.410  36.313  11.665
28440W        W   56  15.013  18.757   4.623
28441W        W   57  19.319  21.141  14.916
28442W        W   58   5.779  11.688   1.385
28443W        W   59   8.648  39.976  11.937
28444W        W   60  20.110  38.917   2.958
28445W        W   61   2.190  22.724   1.852
28446W        W   62  32.938  35.899   1.625
28447W        W   63  16.585  41.389   1.849
28448W        W   64  22.232  18.609   2.177
28449W        W   65  19.204  34.723  13.104
28450W        W   66  25.560  31.076  12.467
28451W        W   67  27.135  18.077  14.004
28452W        W   68   6.683   1.481  10.651
28453W        W   69  25.142  27.714   3.265
28454W        W   70   6.438   7.221   1.496
28455W        W   71   5.467  31.397   1.510
28456W        W   72  44.411  16.372   0.287
28457W        W   73   5.679  23.215  11.535
28458W        W   74  33.791   0.838  14.995
28459W        W   75  16.538  23.480   0.902
28460W        W   76  43.330  40.917  14.794
28461W        W   77   7.898   5.827   3.671
28462W        W   78  40.418   5.409  12.123
28463W        W   79  21.670  19.968   4.144
28464W        W   80  36.196  41.289  11.963
28465W        W   81  14.088  39.048   4.303
28466W        W   82   9.112   4.223   1.638
28467W        W   83  10.576   0.919  12.132
28468W        W   84  32.993  43.776  14.421
28469W        W   85  22.542  44.400  11.080
28470W        W   86   1.931   1.466   3.785
28471W        W   87  19.294  18.202   2.105
28472W        W   88  28.247  26.406  13.532
28473W        W   89   2.308  33.985  12.921
28474W        W   90  24.267  35.911   0.703
28475W        W   91   5.916  10.563  14.957
28476W        W   92  12.138   4.838   3.202
28477W        W   93   6.117  36.780   2.290
28478W        W   94  42.988  14.422  14.591
28479W        W   95  33.727  16.363  13.563
28480W        W   96  24.244  21.975  14.500
28481W        W   97  17.070  25.767   4.321
28482W        W   98  31.064   6.859  14.826
28483W        W   99  42.630  36.344   1.240
28484W        W  100   9.338  14.375  12.198
28485W        W  101  28.919  26.020   0.764
28486W        W  102  21.285   1.009  12.961
28487W        W  103  28.187  43.730  11.603
28488W        W  104   7.821  21.472   3.225
28489W        W  105  22.211  23.897  11.669
28490W        W  106   6.271  12.116   1.713
28491W        W  107  21.561  42.970  11.491
28492W        W  108  41.435  14.802   1.208
28493W        W  109  29.480  16.071  12.087
28494W        W  110  11.704  33.039  10.447
28495W        W  111  41.121   1.353  13.067
28496W        W  112   1.992   1.711  13.462
28497W        W  113  21.150  31.443  13.923
28498W        W  114  11.771  43.918   1.723
28499W        W  115   4.636  14.846  13.085
28500W        W  116  16.253   5.185   1.852
28501W        W  117   5.413  43.427  12.370
28502W        W  118  13.398  39.383  14.803
28503W        W  119  21.318  30.036  12.117
28504W        W  120   8.012  26.399  11.202
28505W        W  121  35.613  11.331   4.622
28506W        W  122  29.663   9.780  11.647
28507W        W  123  32.090  42.994   3.711
28508W        W  124  15.476  20.504   2.702
28509W        W  125  30.878  15.538  11.379
28510W        W  126  10.780  38.424   3.571
28511W        W  127  40.596  25.202   4.038
28512W        W  128  41.078  31.107   0.761
28513W        W  129  30.600  23.980  10.991
28514W        W  130  43.448  39.422  14.507
28515W        W  131  11.536  28.026  14.285
28516W        W  132  28.734  20.499   2.891
28517W        W  133   2.237  27.671   3.689
28518W        W  134  17.623   0.002  12.032
28519W        W  135  19.527  16.548  13.024
28520W        W  136   4.438  32.876  11.298
28521W        W  137   7.436   1.893  12.034
28522W        W  138   0.517  18.223  11.978
28523W        W  139  10.908  40.647  11.042
28524W        W  140  39.470  22.044  14.350
28525W        W  141   3.839  24.611   1.691
28526W        W  142  24.448  21.052   1.251
28527W        W  143  27.719  12.151   1.394
28528W        W  144  36.985  16.291   4.713
28529W        W  145  29.731  14.347  11.493
28530W        W  146   0.218  15.370   3.691
28531W        W  147  42.293   6.896  11.908
28532W        W  148  16.098  39.109  13.382
28533W        W  149   6.876  37.494  14.775
28534W        W  150   2.256  10.607  13.040
28535W        W  151  30.515   3.259  12.020
28536W        W  152   4.350  37.273  13.795
28537W        W  153   8.127  37.591   4.463
28538W        W  154  12.682  10.362  14.891
28539W        W  155  26.159  42.775  11.776
28540W        W  156  22.756  16.014  12.796
28541W        W  157  26.525  14.683   2.765
28542W        W  158  24.936  22.404  12.976
28543W        W  159  38.056   7.565  11.923
28544W        W  160  20.189  36.577   3.536
28545W        W  161  40.933  37.229  11.845
28546W        W  162  30.511  25.613  14.538
28547W        W  163  40.811  39.911   2.650
28548W        W  164  21.624  19.466   3.425
28549W        W  165  12.833  18.955   0.892
28550W        W  166   0.915  20.622  10.625
28551W        W  167  11.235  43.861   1.801
28552W        W  168  26.630   4.163  14.477
28553W        W  169  23.580  25.053   1.720
28554W        W  170  16.159   9.616  12.078
28555W        W  171  40.932   2.923  12.439
28556W        W  172  43.833  40.022   4.750
28557W        W  173  27.530  24.495   1.184
28558W        W  174  38.347  20.419   0.946
28559W        W  175  26.595  20.056  10.624
28560W        W  176   1.193  36.898   1.133
28561W        W  177  42.300  12.054   4.008
28562W        W  178  13.194  14.074  12.088
28563W        W  179  21.158  20.932   0.347
28564W        W  180  32.585  39.918   1.670
28565W        W  181  10.526  19.824   5.105
28566W        W  182  18.668  25.627   3.657
28567W        W  183  40.877  31.960  12.999
28568W        W  184   0.939  14.425  11.110
28569W        W  185   6.905  40.947   0.413
28570W        W  186  19.728  13.952  12.097
28571W        W  187  44.816  37.332  10.994
28572W        W  188  26.162  32.902  13.316
28573W        W  189   3.653  26.074   2.799
28574W        W  190   3.432  38.516   4.190
28575W        W  191  31.070  17.060  10.764
28576W        W  192  29.742   5.632  12.550
28577W        W  193   7.015  16.142   4.892
28578W        W  194  15.921  13.186  13.275
28579W        W  195   9.744  13.897   2.449
28580W        W  196  24.739  12.202   1.660
28581W        W  197  14.856  32.468  14.791
28582W        W  198  40.462   0.636   0.956
28583W        W  199   6.734  26.335   4.309
28584W        W  200  24.744  19.677   3.201
28585W        W  201  27.991  30.592  14.981
28586W        W  202  19.591   6.388  10.387
28587W        W  203  32.628  30.142   3.725
28588W        W  204  24.882   2.356  10.871
28589W        W  205  30.008  31.922   1.444
28590W        W  206  11.145  43.332  12.707
28591W        W  207   4.276  10.603   3.057
28592W        W  208  35.652  12.328  10.915
28593W        W  209  16.637  21.005  12.062
28594W        W  210   3.823   4.139   3.099
28595W        W  211  14.176   3.645   1.509
28596W        W  212  34.995  38.131  12.401
28597W        W  213  23.689  22.829  14.474
28598W        W  214  42.721  32.099  10.668
28599W        W  215  39.132  30.681   3.748
28600W        W  216   7.868  43.972   2.669
28601W        W  217  14.098  30.616   4.208
28602W        W  218  41.689  33.087   3.739
28603W        W  219  19.731   2.571   2.873
28604W        W  220  37.966  38.933   4.005
28605W        W  221   0.050  10.621  13.503
28606W        W  222  21.954  43.014   4.139
28607W        W  223  25.483   5.091  10.735
28608W        W  224   9.389   8.422  14.178
28609W        W  225   8.282  21.246  12.039
28610W        W  226   6.171  40.004   4.508
28611W        W  227  31.023   7.380  13.014
28612W        W  228  40.341  20.212   3.782
28613W        W  229  44.687  34.034  14.281
28614W        W  230  17.523  31.420  11.982
28615W        W  231   5.026  23.972  11.005
28616W        W  232  26.325   7.701   0.621
28617W        W  233  29.399  18.089   1.235
28618W        W  234  19.624  10.661   3.161
28619W        W  235  28.938  19.665   4.169
28620W        W  236  21.592  15.563  13.495
28621W        W  237  28.191  44.810  12.933
28622W        W  238   1.388  33.105  10.781
28623W        W  239  12.200  44.431  12.653
28624W        W  240  42.350   2.890   1.061
28625W        W  241  11.384  44.408   0.742
28626W        W  242  34.508   1.148   5.028
28627W        W  243  39.256  16.075   0.807
28628W        W  244  30.622  27.696  13.957
28629W        W  245  16.091  17.191   0.841
28630W        W  246  40.746  44.795   3.858
28631W        W  247  12.616  30.872   1.388
28632W        W  248  36.808   0.175   3.579
28633W        W  249   5.693  16.666   4.667
28634W        W  250   8.827  12.171   1.792
28635W        W  251  10.109  36.905   1.806
28636W        W  252  41.348  39.466  10.982
28637W        W  253  25.688  39.530  10.744
28638W        W  254  14.042  31.387  12.139
28639W        W  255   1.231  33.536  12.437
28640W        W  256   3.177  43.848  14.365
28641W        W  257  34.955   9.797  13.122
28642W        W  258   5.738  11.750  12.225
28643W        W  259  39.068  13.496   2.201
28644W        W  260   8.849  33.460  11.523
28645W        W  261   3.335  29.098  12.322
28646W        W  262  34.840  39.629   0.402
28647W        W  263  20.881  21.772  12.954
28648W        W  264  33.580   5.266   1.662
28649W        W  265  14.283  26.511   2.905
28650W        W  266  37.830  26.896  13.909
28651W        W  267  21.883  42.380  11.404
28652W        W  268  20.071   7.851   1.439
28653W        W  269  36.098  27.617   1.424
28654W        W  270  31.139  31.472  13.095
28655W        W  271  33.423  44.815  12.053
28656W        W  272  35.880   9.017  13.000
28657W        W  273  24.686  11.671  14.407
28658W        W  274  20.414   3.014   2.401
28659W        W  275   9.118  31.928  12.399
28660W        W  276  20.578   8.838   0.699
28661W        W  277  31.399   4.382  12.904
28662W        W  278  38.562   4.767   2.284
28663W        W  279  44.037  10.139  13.522
28664W        W  280  10.872  26.087   0.314
28665W        W  281  40.848  37.630   2.899
28666W        W  282  33.605  20.097   2.094
28667W        W  283  31.928   2.460   2.113
28668W        W  284  29.170   4.534  11.381
28669W        W  285  24.667  41.917   4.617
28670W        W  286  20.784  24.997  11.933
28671W        W  287  34.815  23.981   1.518
28672W        W  288   2.916  37.870   0.449
28673W        W  289  35.860  11.426  13.876
28674W        W  290  21.627  18.892   2.688
28675W        W  291  31.089  15.571   1.238
28676W        W  292  22.193  39.516   1.455
28677W        W  293   1.413  19.823   3.092
28678W        W  294  41.897  11.807  10.753
28679W        W  295   8.195  14.099   3.310
28680W        W  296  18.316  32.080  13.031
28681W        W  297  17.236  37.143   4.734
28682W        W  298  21.228   7.301   3.401
28683W        W  299  11.384  26.624  14.002
28684W        W  300  41.289  16.677   4.750
28685W        W  301   9.958   3.734  11.868
28686W        W  302   8.770  18.497   3.272
28687W        W  303   8.413  13.841  14.965
28688W        W  304  22.352  23.178  14.040
28689W        W  305   2.523  33.506   3.781
28690W        W  306  20.595  41.225   2.377
28691W        W  307  33.594  22.692   0.284
28692W        W  308   1.714  37.426  11.715
28693W        W  309  24.095  13.137   0.755
28694W        W  310  33.960  29.297   2.085
28695W        W  311  17.601   4.759   1.563
28696W        W  312  28.686   3.137  11.810
28697W        W  313  44.418  15.562  10.469
28698W        W  314  12.088  32.490  12.540
28699W        W  315   5.588  23.233   2.780
28700W        W  316  22.289  43.924  10.964
28701W        W  317  37.482  28.766  12.385
28702W        W  318  37.391  34.644   3.287
28703W        W  319  39.410  16.857  14.906
28704W        W  320   1.057  15.205  12.005
28705W        W  321  33.064  19.174   1.479
28706W        W  322  44.939  33.768  11.154
28707W        W  323   4.765  41.371  10.683
28708W        W  324  21.924  41.787  13.563
28709W        W  325  22.833   6.392  12.882
28710W        W  326  37.349  11.313   0.256
28711W        W  327  17.477  23.789   1.747
28712W        W  328   6.723  20.600   3.315
28713W        W  329   5.214  15.765   4.252
28714W        W  330   3.035  21.540  13.398
28715W        W  331  40.965  10.760   1.453
28716W        W  332  19.404  36.457  13.070
28717W        W  333  43.467  23.351   1.282
28718W        W  334  43.050   4.857  12.395
28719W        W  335  12.342  18.683  12.920
28720W        W  336  14.228  42.513  12.420
28721W        W  337   0.698  20.109   0.431
28722W        W  338  16.027  41.173  10.670
28723W        W  339   8.183  40.117  13.930
28724W        W  340   5.859  17.261  10.745
28725W        W  341  23.629  16.935   3.628
28726W        W  342  23.754  38.653  10.917
28727W        W  343   1.892  36.150  12.021
28728W        W  344  18.775  39.800   1.279
28729W        W  345   2.771  43.537   2.732
28730W        W  346  15.342  21.184   1.416
28731W        W  347  33.529  38.469  13.697
28732W        W  348  11.396  33.977   1.803
28733W        W  349   8.620  18.125   1.293
28734W        W  350   2.857   2.470  13.952
28735W        W  351  21.094  16.181   1.461
28736W        W  352  29.701  33.959   4.573
28737W        W  353  20.033  44.819   4.602
28738W        W  354   1.512  34.103  14.502
28739W        W  355  10.745  20.130   3.712
28740W        W  356  23.244  14.401  12.055
28741W        W  357  17.282   7.712  11.900
28742W        W  358  44.781  29.326  10.364
28743W        W  359  30.965  27.037  14.566
28744W        W  360  21.530  19.804  14.816
28745W        W  361  16.256  30.087   2.773
28746W        W  362   7.895  40.119   2.041
28747W        W  363   7.889  42.348  13.581
28748W        W  364  20.754  20.542  12.507
28749W        W  365  23.036  25.546   4.627
28750W        W  366  26.100   7.804   1.616
28751W        W  367  38.103  17.547   3.741
28752W        W  368   8.952  40.379  11.925
28753W        W  369  22.074  43.993   4.503
28754W        W  370  10.466   1.704   4.628
28755W        W  371  44.852  41.333  14.602
28756W        W  372  29.432  44.175  12.332
28757W        W  373  40.871   9.184   3.628
28758W        W  374  16.134   5.439   4.681
28759W        W  375   1.915   4.872  12.358
28760W        W  376  29.186  38.551   2.198
28761W        W  377   2.492  21.049  13.127
28762W        W  378  33.378  20.345   3.851
28763W        W  379   9.146  37.905  14.053
28764W        W  380  39.988  20.673   4.410
28765W        W  381  21.024  32.958  10.675
28766W        W  382   3.737   9.170   2.374
28767W        W  383   8.301  39.765  14.764
28768W        W  384  25.458   9.594  11.088
28769W        W  385  25.579  38.504  10.739
28770W        W  386   6.796   8.176  13.808
28771W        W  387  33.880  35.810   2.652
28772W        W  388   8.506  22.878   4.118
28773W        W  389  43.414  12.754   1.810
28774W        W  390  44.945  43.923   2.337
28775W        W  391   3.265  16.879   3.390
28776W        W  392  36.433  24.580   2.345
28777W        W  393  42.064  19.062   0.396
28778W        W  394  20.543   8.309   1.839
28779W        W  395  26.616  13.408  11.660
28780W        W  396  10.771   4.784  12.304
28781W        W  397  24.553   3.015   1.885
28782W        W  398  11.041   1.986   1.366
28783W        W  399  19.670   6.801   1.012
28784W        W  400   3.020  25.972  10.230
28785W        W  401   6.683  14.791  13.492
28786W        W  402  32.083  32.425   1.616
28787W        W  403  15.817  30.460  13.150
28788W        W  404  25.937  33.889   0.878
28789W        W  405  27.497  38.875   3.289
28790W        W  406  42.984   4.412  10.756
28791W        W  407  33.195  44.770  14.963
28792W        W  408  13.843  41.974  14.308
28793W        W  409  32.015  26.609  14.910
28794W        W  410  14.109  10.406  11.935
28795W        W  411  35.465  32.875  11.077
28796W        W  412   9.075  26.291  14.077
28797W        W  413  33.605  15.273   3.026
28798W        W  414  40.480  10.213   4.455
28799W        W  415  15.253  42.565  10.287
28800W        W  416   5.391  28.003  14.977
28801W        W  417  15.610  38.524  11.022
28802W        W  418  39.782   6.914   1.201
28803W        W  419   0.729  33.612   0.259
28804W        W  420  17.157  26.505   1.365
28805W        W  421  38.144  21.665  13.633
28806W        W  422  34.682  38.649  14.472
28807W        W  423  44.357   1.007  10.550
28808W        W  424  30.639  39.598   3.170
28809W        W  425   4.797  22.058   2.821
28810W        W  426  44.300  12.313  13.852
28811W        W  427  16.702  38.033   3.256
28812W        W  428  14.940  31.179   0.130
28813W        W  429  30.255  30.647   0.298
28814W        W  430  37.831   9.973   3.793
28815W        W  431  27.621  34.891   1.221
28816W        W  432  40.745  10.223   0.306
28817W        W  433  37.111  12.071  10.235
28818W        W  434  13.052  21.053   1.752
28819W        W  435  27.713  31.968  12.133
28820W        W  436  11.660  11.137  12.988
28821W        W  437  10.003   2.708  11.831
28822W        W  438   0.019  29.497   1.820
28823W        W  439  17.930  42.941  11.045
28824W        W  440  27.633  13.753   1.982
28825W        W  441   8.708  20.055  12.447
28826W        W  442  10.317  12.645   1.518
28827W        W  443  19.759   5.233   3.275
28828W        W  444  24.317  26.765   0.496
28829W        W  445  32.193  42.888   1.420
28830W        W  446  28.636   9.083   4.628
28831W        W  447  24.186  41.762  10.660
28832W        W  448  33.211  27.438   2.391
28833W        W  449   0.690   0.090  11.012
28834W        W  450  44.860  28.815  11.093
28835W        W  451   4.658   6.011  11.311
28836W        W  452  30.842  22.638  13.964
28837W        W  453  19.778   1.225  14.381
28838W        W  454   5.912  20.727   2.271
28839W        W  455  40.331   1.973   2.179
28840W        W  456  28.211  44.768   4.155
28841W        W  457  35.711  36.463   1.620
28842W        W  458   6.741  13.047  14.746
28843W        W  459  13.030  40.982  14.926
28844W        W  460  32.926  40.839  10.688
28845W        W  461  29.038   3.464   4.937
28846W        W  462   5.642  43.008   4.600
28847W        W  463  43.949  19.331  11.625
28848W        W  464   5.246  32.449  13.858
28849W        W  465   5.260  32.004   3.266
28850W        W  466   6.833  25.994  14.541
28851W        W  467  19.693  24.951  12.155
28852W        W  468   1.710  32.427  13.320
28853W        W  469  41.225  28.895   0.803
28854W        W  470  25.844  16.877   5.054
28855W        W  471  27.241  21.176  13.414
28856W        W  472  25.211  26.461   1.298
28857W        W  473  35.016  29.057   2.348
28858W        W  474  40.131  24.057   1.012
28859W        W  475  27.601  39.390   3.283
28860W        W  476   8.578  11.684  12.501
28861W        W  477   0.317  41.813  13.516
28862W        W  478  33.771  23.158   4.271
28863W        W  479  36.129  24.060  13.768
28864W        W  480  11.296  14.763  12.070
28865W        W  481  27.032   7.427   3.130
28866W        W  482  15.969  28.148   0.440
28867W        W  483  20.584  19.765  13.008
28868W        W  484  26.002  20.210   1.773
28869W        W  485   5.909   4.433   4.742
28870W        W  486  18.566  22.448   3.306
28871W        W  487  22.090  34.136  14.958
28872W        W  488   4.833  43.005  11.380
28873W        W  489  13.543  38.118   2.411
28874W        W  490  33.579  32.790  11.150
28875W        W  491   5.058  36.509  14.383
28876W        W  492  38.477  29.421  13.299
28877W        W  493  25.049  39.551   0.883
28878W        W  494  43.786  25.230   3.161
28879W        W  495  33.091  14.743   2.747
28880W        W  496  28.955   6.620  10.630
28881W        W  497  18.797  34.082   2.469
28882W        W  498  21.057  17.603   4.419
28883W        W  499  27.972  25.711  12.915
28884W        W  500  20.526  27.498   3.339
28885W        W  501  21.238  17.184   0.374
28886W        W  502  23.434  21.817  13.504
28887W        W  503  12.696  36.512   0.708
28888W        W  504   6.389   4.421  11.684
28889W        W  505  20.615   9.985  14.485
28890W        W  506  15.029   2.425  14.874
28891W        W  507   2.187  24.658   2.262
28892W        W  508  39.572  40.523   4.025
28893W        W  509   3.374  19.646  13.405
28894W        W  510  21.801  39.578   2.042
28895W        W  511  42.434  22.615  10.624
28896W        W  512  31.883  29.615  11.556
28897W        W  513   5.729  10.830   0.856
28898W        W  514   2.829  36.993   4.789
28899W        W  515  22.934   7.661  13.470
28900W        W  516  29.087   2.368  12.126
28901W        W  517  31.739  28.203   0.423
28902W        W  518  17.629  19.025  12.058
28903W        W  519  33.092  12.623  11.879
28904W        W  520  13.444  32.341   4.540
28905W        W  521  22.490  26.425   1.251
28906W        W  522   0.742  10.379   0.232
28907W        W  523  35.057  38.857   2.144
28908W        W  524  16.545   0.767  14.205
28909W        W  525  25.181   7.364  12.894
28910W        W  526  22.010   0.736  14.794
28911W        W  527  44.538  19.607   0.648
28912W        W  528  21.658  30.065  10.596
28913W        W  529   9.816   4.772   1.742
28914W        W  530   6.420  18.828   3.169
28915W        W  531  10.855  20.148  14.589
28916W        W  532  13.917   4.163  12.590
28917W        W  533  14.849  15.349  11.019
28918W        W  534   0.146  38.900   4.157
28919W        W  535   0.395  19.826   0.912
28920W        W  536  31.980  43.891  10.078
28921W        W  537  26.717  11.430   4.804
28922W        W  538  40.454  42.446   2.734
28923W        W  539  10.867  43.995  10.787
28924W        W  540  44.383  35.528  13.985
28925W        W  541  28.021   3.599  14.893
28926W        W  542  21.681  38.475  11.528
28927W        W  543   4.236   4.459   4.202
28928W        W  544  38.295  21.229  12.456
28929W        W  545  21.206  42.727   3.176
28930W        W  546  31.232  37.102   2.242
28931W        W  547   1.655  41.383  11.961
28932W        W  548  18.590   5.385   3.656
28933W        W  549   4.531   7.265  14.821
28934W        W  550  42.552   2.702   4.148
28935W        W  551  16.801  35.941  14.541
28936W        W  552  23.672  29.597  10.725
28937W        W  553  43.884  31.973   2.151
28938W        W  554  27.026  32.279  10.030
28939W        W  555   9.906  13.919   3.521
28940W        W  556  32.445  44.565  11.127
28941W        W  557  16.845  10.981  14.283
28942W        W  558  29.466  25.455   3.790
28943W        W  559   1.735  20.580  13.388
28944W        W  560  22.966  41.776   3.652
28945W        W  561   9.709  31.397   2.583
28946W        W  562  13.314  28.547  14.886
28947W        W  563  33.609  28.600  14.776
28948W        W  564  28.724   3.308   2.598
28949W        W  565   0.870  25.599  11.678
28950W        W  566  39.421  42.214   4.079
28951W        W  567  29.494   1.761  11.206
28952W        W  568   7.671  37.876   4.559
28953W        W  569  24.141  31.464   1.891
28954W        W  570  12.106  20.472   2.324
28955W        W  571  40.436   1.827   4.169
28956W        W  572  30.594  19.171   0.424
28957W        W  573  40.439  25.705   1.489
28958W        W  574  26.911  15.596   3.642
28959W        W  575   5.110   2.956  13.030
28960W        W  576  13.188  28.058   4.147
28961W        W  577  27.561  20.003   4.745
28962W        W  578  38.049  25.484   1.511
28963W        W  579  25.061  31.382  12.598
28964W        W  580  19.593  30.435  12.410
28965W        W  581  32.097  11.196   0.466
28966W        W  582  18.106   8.759   4.631
28967W        W  583  15.299   2.319  14.432
28968W        W  584  42.599   5.805   2.188
28969W        W  585  24.951   4.853   2.428
28970W        W  586  22.996  24.933  12.059
28971W        W  587  38.661  13.970   0.974
28972W        W  588  34.814  24.921   2.857
28973W        W  589  40.780  44.007   3.247
28974W        W  590  27.827   5.433  10.728
28975W        W  591  30.132  15.660  14.007
28976W        W  592   3.326  26.993  11.693
28977W        W  593  38.350  18.478  14.836
28978W        W  594  34.785  40.003  11.235
28979W        W  595  42.806  39.401  14.946
28980W        W  596  29.396  42.965   0.728
28981W        W  597  18.799  13.708   1.842
28982W        W  598  16.942  29.071   0.819
28983W        W  599  41.555  14.760  11.495
28984W        W  600  19.493   7.945  13.583
28985W        W  601  24.198  32.163  12.819
28986W        W  602  18.245  41.380   5.249
28987W        W  603   6.728  33.023  13.902
28988W        W  604  16.295  16.167   1.416
28989W        W  605  29.427  39.007  11.182
28990W        W  606  28.991  37.030   3.361
28991W        W  607  32.465  44.236   0.765
28992W        W  608  34.612   5.433  12.962
28993W        W  609   2.677  21.183  12.622
28994W        W  610   6.151  43.369   0.676
28995W        W  611  27.685  36.259   0.107
28996W        W  612  16.440  20.423  11.540
28997W        W  613  20.963   6.243   4.163
28998W        W  614  14.247  35.442   1.829
28999W        W  615  14.488  31.349  14.397
29000W        W  616  22.274   9.257   4.785
29001W        W  617  26.496  19.690  12.522
29002W        W  618  36.449  44.312   2.360
29003W        W  619  35.322  22.716   0.763
29004W        W  620  38.337  20.561  12.119
29005W        W  621  28.040   1.835   2.136
29006W        W  622  13.726  23.864   4.162
29007W        W  623  43.497  37.538  14.400
29008W        W  624  12.353  14.735  13.546
29009W        W  625  29.988  22.028  11.174
29010W        W  626  35.935  34.828   0.781
29011W        W  627  40.057  42.425  14.842
29012W        W  628  32.078  19.778   4.308
29013W        W  629   0.920  15.115   1.684
29014W        W  630  36.436   6.317  12.636
29015W        W  631  44.773  19.757   1.305
29016W        W  632   0.420   8.497   3.681
29017W        W  633  33.113  31.934   1.004
29018W        W  634  38.770   9.164   1.261
29019W        W  635   6.363   8.829   3.390
29020W        W  636  23.525  16.124   3.233
29021W        W  637  15.676  32.646   2.927
29022W        W  638  30.246  39.488   2.755
29023W        W  639  10.272   3.247   0.008
29024W        W  640   0.640  28.571   0.770
29025W        W  641  32.608  29.681  14.485
29026W        W  642  18.527   8.199   3.296
29027W        W  643   6.034  38.379  12.476
29028W        W  644  31.415   7.558  12.692
29029W        W  645  18.411  31.599   1.895
29030W        W  646  36.618  42.981  11.045
29031W        W  647  37.797  38.213   1.812
29032W        W  648  37.646  17.026  13.651
29033W        W  649  23.029  44.105  11.647
29034W        W  650  29.727   1.337  12.136
29035W        W  651  36.886  13.836  12.561
29036W        W  652  31.102  41.742   1.768
29037W        W  653   5.225  15.883  13.281
29038W        W  654  19.428   6.325   4.234
29039W        W  655  21.000  37.460   4.669
29040W        W  656  32.074  41.384   3.339
29041W        W  657   1.807   9.473   4.572
29042W        W  658  25.194  38.325  13.462
29043W        W  659  16.572  14.367   1.453
29044W        W  660  36.373   5.365   3.703
29045W        W  661   2.922   5.172   4.788
29046W        W  662  38.401   6.263   2.265
29047W        W  663  27.378   3.817   2.519
29048W        W  664  16.022   3.626   3.239
29049W        W  665   5.806   4.216   2.574
29050W        W  666   5.384  44.272  11.619
29051W        W  667  35.046  15.824   0.010
29052W        W  668  26.995  27.186   4.500
29053W        W  669  36.056  19.890  14.492
29054W        W  670  26.454   1.868   2.341
29055W        W  671  33.412  26.584   4.432
29056W        W  672   1.254  24.028  10.105
29057W        W  673  37.956   8.408   4.018
29058W        W  674  34.562   4.827   0.370
29059W        W  675  32.381  44.345   1.673
29060W        W  676  12.220  24.063   3.121
29061W        W  677  42.511  31.700   1.565
29062W        W  678  15.101   7.517  14.337
29063W        W  679  18.892  31.138  13.863
29064W        W  680  36.352  18.330   1.406
29065W        W  681  44.793  13.343   0.912
29066W        W  682  34.210   9.734  12.494
29067W        W  683  23.498  31.157   1.235
29068W        W  684  34.133  20.547  11.843
29069W        W  685  30.097  25.238  12.914
29070W        W  686   2.159  16.193   3.084
29071W        W  687  20.143   5.836  13.246
29072W        W  688  13.310  31.900   0.351
29073W        W  689  12.631  37.494   1.808
29074W        W  690  32.461   0.496  13.460
29075W        W  691  44.778  21.181  13.594
29076W        W  692   0.791   0.138  14.601
29077W        W  693  32.198  17.978  13.489
29078W        W  694  39.636  11.216  13.376
29079W        W  695  27.951  27.729  12.244
29080W        W  696  16.794  17.616   3.316
29081W        W  697   4.830  28.966  14.611
29082W        W  698  18.776   3.235   4.771
29083W        W  699  10.327  41.094   2.397
29084W        W  700  20.035  33.653   4.189
29085W        W  701   3.966  29.855   2.698
29086W        W  702  18.410   6.952  13.850
29087W        W  703  42.385   9.407   2.070
29088W        W  704  21.444  34.459   3.174
29089W        W  705   0.837   5.905   0.884
29090W        W  706  39.380  14.019   2.707
29091W        W  707  12.430  15.731  11.989
29092W        W  708  33.440  21.467  10.678
29093W        W  709  43.882   0.610  10.313
29094W        W  710  19.635   4.455  11.716
29095W        W  711  15.673  32.375   1.451
29096W        W  712  32.965  21.050  12.562
29097W        W  713  36.481  35.368  10.609
29098W        W  714  15.060  32.178  14.236
29099W        W  715   2.288  10.647  10.779
29100W        W  716  15.322  44.854   1.830
29101W        W  717  37.274  14.646  11.221
29102W        W  718  29.174  40.490  12.584
29103W        W  719  42.404  15.795   4.420
29104W        W  720  16.214  23.519  12.698
29105W        W  721   7.418  23.610  14.541
29106W        W  722  35.570  13.627   1.826
29107W        W  723  19.225  25.103  11.987
29108W        W  724  15.760  15.604   2.141
29109W        W  725  14.844   9.375  11.496
29110W        W  726   1.362  24.694  10.658
29111W        W  727  21.672  24.864   2.275
29112W        W  728  12.869  29.876   2.651
29113W        W  729  31.905  22.631   2.243
29114W        W  730  30.700  23.572   2.702
29115W        W  731  44.316  31.169   4.875
29116W        W  732   6.265  10.553   5.114
29117W        W  733  26.106   7.206   0.950
29118W        W  734   0.856  39.043   9.657
29119W        W  735  35.963  34.517   4.572
29120W        W  736   6.340  40.990   4.316
29121W        W  737  18.061  43.881   0.983
29122W        W  738  37.514  33.704  11.240
29123W        W  739  30.382  10.600   1.945
29124W        W  740   9.369  25.723  11.569
29125W        W  741  41.493  29.966  13.073
29126W        W  742   8.631  18.770  13.631
29127W        W  743  21.941  12.914  12.435
29128W        W  744  35.589  13.189   3.122
29129W        W  745  31.560  20.274  12.052
29130W        W  746  13.146   8.706  11.606
29131W        W  747  33.925  21.603   4.802
29132W        W  748  17.601  23.687   3.095
29133W        W  749   6.732   9.078   3.140
29134W        W  750  41.885  24.614  12.861
29135W        W  751  30.523  30.272   4.442
29136W        W  752  14.093  32.466  13.278
29137W        W  753   4.312  35.131   0.189
29138W        W  754  11.461  31.312  11.091
29139W        W  755  21.119  15.317  12.465
29140W        W  756   2.653   1.708  14.579
29141W        W  757  21.622   7.315  13.340
29142W        W  758  11.917  10.253   3.367
29143W        W  759  41.869  42.885  13.169
29144W        W  760   2.013  17.762  14.520
29145W        W  761  37.999  36.496   3.891
29146W        W  762  25.587  12.682   3.880
29147W        W  763  30.409   6.434   0.306
29148W        W  764  27.447  33.762   0.436
29149W        W  765  20.377   1.836   1.383
29150W        W  766  37.436  43.871   2.695
29151W        W  767  38.852  36.442   4.945
29152W        W  768  30.168   2.403  13.556
29153W        W  769  21.517  36.605   2.686
29154W        W  770  32.607  28.648  10.678
29155W        W  771  30.445  18.928  10.732
29156W        W  772  35.145  24.420  10.372
29157W        W  773  20.481  21.114   2.307
29158W        W  774   8.844   7.228  11.691
29159W        W  775   9.963  26.008  10.790
29160W        W  776  17.669   2.482  11.079
29161W        W  777  12.681  15.253  13.939
29162W        W  778   8.322   2.481   0.807
29163W        W  779  33.927  44.485   4.472
29164W        W  780  26.644  14.053   0.458
29165W        W  781  35.412  31.372   2.760
29166W        W  782  11.330  39.855   0.637
29167W        W  783  20.031  33.974   0.924
29168W        W  784  27.050  41.794  12.630
29169W        W  785  19.624   6.898   0.515
29170W        W  786  23.762  21.383  12.245
29171W        W  787  33.992  37.796  14.992
29172W        W  788   9.709  44.395   3.098
29173W        W  789  42.490   7.378   4.537
29174W        W  790  22.464  26.201  11.565
29175W        W  791  37.426  10.369  13.970
29176W        W  792  21.222  22.692   0.812
29177W        W  793  34.130  28.654  14.753
29178W        W  794   3.906  11.812   1.646
29179W        W  795  35.667   3.215   3.139
29180W        W  796  22.659  10.832   3.631
29181W        W  797  42.348   0.392   0.525
29182W        W  798  25.787  19.163  14.896
29183W        W  799  18.749  19.729   3.797
29184W        W  800  35.449  19.976  12.353
29185W        W  801  10.741  16.549  12.698
29186W        W  802   9.416  18.713   1.214
29187W        W  803  19.276  11.687  13.538
29188W        W  804  34.625  21.995  11.670
29189W        W  805  21.472  31.506  13.483
29190W        W  806   8.622  30.547  14.086
29191W        W  807  10.608  12.272  11.801
29192W        W  808   4.656   7.940   0.472
29193W        W  809  22.079  16.016   3.155
29194W        W  810  24.912  38.361  13.939
29195W        W  811  16.818  14.910  12.644
29196W        W  812  26.041  11.089   1.781
29197W        W  813  33.152   8.880  14.969
29198W        W  814  29.082  36.118  11.099
29199W        W  815  37.496  16.336   3.079
29200W        W  816  20.525  15.771   0.419
29201W        W  817  15.045   5.294   0.301
29202W        W  818   5.177   9.372  14.723
29203W        W  819  42.313  35.966   0.419
29204W        W  820  16.287  36.088   1.430
29205W        W  821  39.282   6.160  14.766
29206W        W  822  15.761  10.812  11.492
29207W        W  823   3.874  29.564   3.904
29208W        W  824   5.645   5.142   1.895
29209W        W  825  34.003  22.599  13.444
29210W        W  826   2.372  43.483   0.607
29211W        W  827  13.274  14.587  12.033
29212W        W  828  18.637   4.671   1.445
29213W        W  829  15.175  35.054   4.232
29214W        W  830  38.379  27.069   4.647
29215W        W  831  31.841   6.904   0.632
29216W        W  832  35.299   4.972   2.758
29217W        W  833  41.974  17.677   4.701
29218W        W  834  33.338  24.964  13.918
29219W        W  835  29.296  10.442  12.880
29220W        W  836  40.385  24.309   1.411
29221W        W  837  16.720  11.482  14.250
29222W        W  838  44.211  13.066   0.194
29223W        W  839  35.978   6.475  11.396
29224W        W  840  29.085  37.983  12.339
29225W        W  841   6.157  28.352  11.200
29226W        W  842  10.740  21.250  13.526
29227W        W  843  15.356  12.376   0.969
29228W        W  844  37.923  18.261  12.086
29229W        W  845  31.444  36.854   1.837
29230W        W  846   4.465  35.378  10.664
29231W        W  847  14.685  41.019   3.368
29232W        W  848  33.014  14.058   0.275
29233W        W  849   0.421  17.189   3.919
29234W        W  850  12.253  12.670   2.429
29235W        W  851  13.847   0.006   4.076
29236W        W  852  36.407   1.025   1.444
29237W        W  853  30.004  34.993   3.353
29238W        W  854  41.918  15.774   2.190
29239W        W  855  13.268  44.881  12.396
29240W        W  856  35.671  24.157   2.248
29241W        W  857  24.215  19.881   2.975
29242W        W  858  25.723  42.466   4.890
29243W        W  859  23.255  25.986   1.892
29244W        W  860   9.682  34.364  14.398
29245W        W  861   5.181  20.483  14.410
29246W        W  862  20.273  37.350  10.029
29247W        W  863  10.628  36.884   1.885
29248W        W  864  25.923  39.079  13.544
29249W        W  865  25.118  40.523  11.935
29250W        W  866  17.626  31.464  11.167
29251W        W  867  25.700  32.443  14.497
29252W        W  868  14.793  10.613   2.903
29253W        W  869  41.147   8.950   0.397
29254W        W  870  40.300  12.111  11.586
29255W        W  871  33.201   2.250  12.546
29256W        W  872   1.355  34.542  11.122
29257W        W  873   5.381  44.756   4.205
29258W        W  874  28.886  37.029  12.931
29259W        W  875  18.744   8.040  12.589
29260W        W  876  44.873  40.789  10.794
29261W        W  877  24.173  18.095   3.022
29262W        W  878  27.840  37.572   1.323
29263W        W  879  20.600  35.200  12.521
29264W        W  880  27.640  16.116  14.388
29265W        W  881  23.969   8.784   3.579
29266W        W  882  14.560   1.195   3.601
29267W        W  883  37.651  38.869   2.672
29268W        W  884  30.488  33.089  10.773
29269W        W  885   4.447  21.593   0.309
29270W        W  886  31.009   5.907   3.066
29271W        W  887  32.881  25.471  10.659
29272W        W  888   2.514  17.366  10.752
29273W        W  889  16.613   1.213   1.893
29274W        W  890  42.555   6.609  12.897
29275W        W  891  42.967  34.161   2.775
29276W        W  892  41.875   1.464   0.937
29277W        W  893  16.321  12.362   2.817
29278W        W  894   6.204  44.230   4.123
29279W        W  895   8.677  34.289  11.084
29280W        W  896  28.998  42.698   5.053
29281W        W  897  34.357  32.492  11.214
29282W        W  898   2.214   3.241  13.114
29283W        W  899  25.281  15.935  11.309
29284W        W  900   4.245  39.290  11.930
29285W        W  901  44.511   1.804  14.769
29286W        W  902  13.826   0.364   3.663
29287W        W  903  21.102  13.155  14.528
29288W        W  904  23.807  12.574   3.097
29289W        W  905  16.790  39.569  14.817
29290W        W  906  12.435   6.163  14.509
29291W        W  907  17.397   0.422   4.208
29292W        W  908  44.820  22.127   4.091
29293W        W  909  32.553  11.757  12.095
29294W        W  910  31.410  12.060  10.652
29295W        W  911   7.371  26.890   3.360
29296W        W  912   0.792  18.813   1.128
29297W        W  913  14.292  38.665   9.799
29298W        W  914  15.657  44.047   1.944
29299W        W  915   4.192  44.876   1.935
29300W        W  916  18.308  19.534   1.824
29301W        W  917  11.207  31.314   3.668
29302W        W  918  32.273   4.682   2.359
29303W        W  919  19.334  39.813  14.821
29304W        W  920  11.654  32.498   3.763
29305W        W  921   1.772   2.138   2.652
29306W        W  922  13.757  27.900   1.831
29307W        W  923  16.877  17.105  12.566
29308W        W  924  29.373   7.643   2.836
29309W        W  925  43.772  30.956   0.829
29310W        W  926  19.160  12.281   1.119
29311W        W  927   9.368  14.999  10.610
29312W        W  928  25.489  41.430  11.212
29313W        W  929  14.197  28.135   2.794
29314W        W  930   4.223  27.664  14.598
29315W        W  931  42.320  26.361  14.832
29316W        W  932  13.632  23.133  10.944
29317W        W  933  33.645   0.386  10.588
29318W        W  934  42.794  44.506   1.375
29319W        W  935  24.694  33.854   4.695
29320W        W  936   6.251  34.444  14.350
29321W        W  937   5.316  19.691  12.539
29322W        W  938  42.270  34.398  14.384
29323W        W  939  27.925  32.496   4.424
29324W        W  940  27.508  37.416  13.564
29325W        W  941  35.392  14.167  14.210
29326W        W  942  39.876   5.545   0.205
29327W        W  943   0.836  41.206  12.565
29328W        W  944  21.518  36.287   3.152
29329W        W  945  26.424  18.194   1.353
29330W        W  946  35.854   9.753  13.342
29331W        W  947  31.633  43.966  10.447
29332W        W  948  22.490  19.155   4.522
29333W        W  949  13.393  16.122  11.395
29334W        W  950   6.922  33.469   0.915
29335W        W  951  32.589  33.120   4.801
29336W        W  952   4.449  42.346  12.047
29337W        W  953  43.013  18.031   2.383
29338W        W  954  11.698  16.191  12.883
29339W        W  955  21.612  20.008  10.765
29340W        W  956  15.700  33.193  12.065
29341W        W  957   0.481  25.563  13.118
29342W        W  958  13.354  31.344  10.640
29343W        W  959  44.287  30.156   3.207
29344W        W  960  39.357   8.244  10.731
29345W        W  961  43.086  30.963   2.936
29346W        W  962  35.137   7.284   4.147
29347W        W  963  43.263  21.353   1.942
29348W        W  964  21.214  18.218   0.366
29349W        W  965  35.339   3.422   2.769
29350W        W  966  34.246   6.709  13.317
29351W        W  967   9.601  24.083   4.169
29352W        W  968  13.801  37.611  14.869
29353W        W  969  13.061   1.287   2.472
29354W        W  970  22.092  44.504   1.359
29355W        W  971   0.415  37.709   1.669
29356W        W  972  25.513   8.818   2.769
29357W        W  973   6.382   3.451   1.290
29358W        W  974  37.157  35.303  12.489
29359W        W  975  41.153  19.046   4.600
29360W        W  976  37.260  22.462   1.941
29361W        W  977   6.750  10.923   1.700
29362W        W  978   1.447  11.343   0.808
29363W        W  979   6.949  27.911   0.222
29364W        W  980   9.124   7.775  11.143
29365W        W  981  35.999   2.980  12.984
29366W        W  982  32.421  39.149  10.264
29367W        W  983   0.953  15.731   4.611
29368W        W  984  11.700  36.475  13.554
29369W        W  985  34.903  20.093   0.735
29370W        W  986  32.417  40.746   2.853
29371W        W  987  34.778  33.476  14.891
29372W        W  988   9.937  39.329   4.789
29373W        W  989  38.816  38.998   0.445
29374W        W  990  44.701  28.059   4.575
29375W        W  991  26.676   2.821  14.788
29376W        W  992  44.194  10.340   1.271
29377W        W  993   5.033  22.349   1.415
29378W        W  994  13.107  44.540   4.132
29379W        W  995  28.032  18.964   1.825
29380W        W  996  21.664  17.612  10.337
29381W        W  997   8.822  24.488   4.631
29382W        W  998  30.833  29.409   4.174
29383W        W  999  41.361  10.162  14.781
29384W        W 1000  31.770  22.874   5.097
29385W        W 1001  27.210  28.962   4.776
29386W        W 1002  42.637  44.224  11.259
29387W        W 1003   0.975  26.259   0.682
29388W        W 1004  33.905  36.850  14.900
29389W        W 1005  17.354  15.775  13.513
29390W        W 1006   9.902   3.160  12.442
29391W        W 1007   9.240  19.373  10.533
29392W        W 1008  25.465  33.743   2.880
29393W        W 1009  26.370  11.724   0.425
29394W        W 1010  40.444  11.984   3.077
29395W        W 1011  24.773  22.215   0.206
29396W        W 1012  21.259  33.395   0.463
29397W        W 1013  24.772   4.878  14.742
29398W        W 1014   7.148  11.906   3.961
29399W        W 1015  42.875  28.715   0.752
29400W        W 1016  22.196  24.958   4.706
29401W        W 1017   2.957   7.728   2.281
29402W        W 1018  27.961  24.662  13.022
29403W        W 1019  16.349  42.519  13.068
29404W        W 1020  39.800  36.008   1.990
29405W        W 1021  20.426  43.530   4.220
29406W        W 1022  34.338  11.763  12.156
29407W        W 1023  35.981   7.224   0.841
29408W        W 1024   2.296  29.170   1.635
29409W        W 1025  22.334  19.986  11.533
29410W        W 1026  21.530   2.859   2.163
29411W        W 1027  43.592   8.063  14.318
29412W        W 1028  39.820  33.234   1.787
29413W        W 1029   5.201   0.041  13.343
29414W        W 1030  28.175   9.734   0.442
29415W        W 1031   8.366   1.022  14.854
29416W        W 1032  42.306  22.911   4.131
29417W        W 1033  36.988  34.629  13.869
29418W        W 1034   6.204  22.675   3.089
29419W        W 1035  32.720  28.188   1.860
29420W        W 1036   8.914  14.016   1.409
29421W        W 1037  13.401  38.458   1.579
29422W        W 1038  40.906  26.271  13.517
29423W        W 1039  27.268  14.929   3.172
29424W        W 1040  37.960  18.305   1.751
29425W        W 1041  44.509  23.566  11.936
29426W        W 1042  21.018  16.659  13.082
29427W        W 1043  41.190  37.983   4.632
29428W        W 1044  11.914  12.815  12.218
29429W        W 1045  27.652   6.769  14.632
29430W        W 1046   8.835  23.004   2.339
29431W        W 1047  10.932  12.128   2.136
29432W        W 1048  24.285  28.091   2.297
29433W        W 1049   4.256  17.812   2.253
29434W        W 1050  14.610  32.099  10.275
29435W        W 1051  38.926   1.445   0.770
29436W        W 1052  14.348  27.521  10.694
29437W        W 1053  15.592  18.073  11.851
29438W        W 1054   6.476   2.447   0.657
29439W        W 1055  28.549  14.239  10.242
29440W        W 1056  37.848   8.361  11.918
29441W        W 1057   1.346  44.937   3.184
29442W        W 1058   0.910  38.540  14.237
29443W        W 1059  18.766   7.079   4.146
29444W        W 1060  40.808  28.035   4.678
29445W        W 1061  16.331  43.520   4.318
29446W        W 1062  37.801  15.495  11.012
29447W        W 1063  26.088  27.389  13.264
29448W        W 1064  28.977  16.199  13.351
29449W        W 1065  41.544   6.121  13.529
29450W        W 1066  44.292   2.848  10.566
29451W        W 1067   5.901  37.873  10.622
29452W        W 1068  40.802   0.771  11.907
29453W        W 1069  30.569  38.340   4.045
29454W        W 1070   8.870   8.115   1.397
29455W        W 1071  29.224  42.550  12.013
29456W        W 1072  30.665  11.751  13.473
29457W        W 1073   7.774   0.539   3.434
29458W        W 1074   7.186  30.006  12.966
29459W        W 1075  18.524  23.946   4.122
29460W        W 1076  27.923  26.082  14.825
29461W        W 1077  17.990  27.027   0.964
29462W        W 1078  35.632  33.834  11.608
29463W        W 1079   1.155   7.603  12.472
29464W        W 1080  38.326  40.758  10.758
29465W        W 1081   0.002  32.152  12.515
29466W        W 1082   9.366  35.339  12.899
29467W        W 1083  44.029  16.284   2.206
29468W        W 1084  42.008   3.007  12.922
29469W        W 1085   1.919  28.225   3.338
29470W        W 1086  23.508  19.904  10.597
29471W        W 1087  25.468  25.167  11.509
29472W        W 1088  28.967  34.386  14.995
29473W        W 1089  30.187   1.250  12.339
29474W        W 1090  14.841   3.770  14.902
29475W        W 1091  28.039  21.220   2.280
29476W        W 1092  30.337  40.625   1.701
29477W        W 1093  33.009  32.306  14.595
29478W        W 1094  14.849  37.912  13.057
29479W        W 1095  32.651  30.530   1.909
29480W        W 1096  34.665   6.796   0.812
29481W        W 1097  12.180  41.004   2.956
29482W        W 1098  23.968   3.954  12.526
29483W        W 1099  37.506  17.553   2.833
29484W        W 1100  20.209  16.604  13.928
29485W        W 1101  28.224  11.336   3.646
29486W        W 1102  40.494  34.058  12.487
29487W        W 1103  28.487  12.299  11.597
29488W        W 1104  22.704  19.212  11.197
29489W        W 1105  31.645  20.292   4.946
29490W        W 1106  27.145  34.878  14.614
29491W        W 1107  12.816  32.067  13.079
29492W        W 1108   0.920  14.038  11.452
29493W        W 1109  31.435  10.970   4.027
29494W        W 1110  35.281  38.473   1.049
29495W        W 1111  23.603  17.288   4.024
29496W        W 1112  22.027  15.806   0.664
29497W        W 1113  14.280  37.450  14.894
29498W        W 1114  23.188   4.431   2.699
29499W        W 1115  43.373  40.071  14.771
29500W        W 1116  17.001  35.798   3.137
29501W        W 1117   4.943   7.847  13.475
29502W        W 1118  14.929  43.140  14.270
29503W        W 1119  44.096  39.268   3.709
29504W        W 1120   5.718   3.276  13.910
29505W        W 1121  43.661  20.473   4.290
29506W        W 1122  12.990  19.793  14.564
29507W        W 1123  27.157  13.476   3.315
29508W        W 1124   3.329  21.484   3.822
29509W        W 1125  27.418  30.841   1.165
29510W        W 1126  12.615  15.185  12.441
29511W        W 1127  10.304   1.796   3.744
29512W        W 1128  12.289  22.251   4.100
29513W        W 1129   8.869  43.813   0.177
29514W        W 1130   5.368   4.797   4.668
29515W        W 1131   8.997  13.222   4.545
29516W        W 1132   7.327  26.545  10.763
29517W        W 1133  39.847  43.236   3.951
29518W        W 1134  24.018  43.311  14.353
29519W        W 1135  36.890  25.916  14.044
29520W        W 1136  22.300  24.709  13.893
29521W        W 1137  42.294  23.184  12.836
29522W        W 1138   1.806  17.364  14.282
29523W        W 1139  31.924  12.117   2.491
29524W        W 1140  29.167  11.823  13.870
29525W        W 1141   0.760   0.327  11.761
29526W        W 1142  12.693  24.344   0.378
29527W        W 1143  10.416   1.660   2.794
29528W        W 1144  40.427  38.504  11.384
29529W        W 1145  39.511  44.903  14.789
29530W        W 1146   3.431  23.110   1.646
29531W        W 1147  17.408  32.358  11.237
29532W        W 1148   8.015  20.192  10.780
29533W        W 1149  26.525  44.503   4.473
29534W        W 1150   3.829  33.497   4.998
29535W        W 1151  23.058  25.999  12.948
29536W        W 1152  22.291  20.194   0.106
29537W        W 1153  16.652   2.351   1.815
29538W        W 1154  31.365  17.295   1.808
29539W        W 1155  16.167   3.480   2.498
29540W        W 1156  39.731  29.573  14.828
29541W        W 1157  25.738  24.367  12.820
29542W        W 1158  42.915  44.882   1.724
29543W        W 1159  26.923  14.459   5.151
29544W        W 1160  21.020  40.535   0.689
29545W        W 1161  35.446  41.446   3.554
29546W        W 1162  31.904  31.957  14.332
29547W        W 1163  11.683  10.598   0.652
29548W        W 1164  24.224  22.494   2.312
29549W        W 1165  26.068  10.196   0.749
29550W        W 1166   4.503  13.534   1.811
29551W        W 1167  41.387  22.171   0.808
29552W        W 1168  17.685  38.300   3.676
29553W        W 1169  12.359  12.114   1.693
29554W        W 1170  17.160   8.820   3.742
29555W        W 1171  33.941  31.077  13.985
29556W        W 1172  31.036  16.049   4.721
29557W        W 1173  28.435  15.162  14.006
29558W        W 1174  25.907   4.749  10.911
29559W        W 1175  24.027   4.629   3.334
29560W        W 1176  23.316  27.187   2.278
29561W        W 1177  31.616  31.060   5.010
29562W        W 1178  40.729   2.735   1.475
29563W        W 1179  18.580  28.942  12.829
29564W        W 1180  15.707  33.855   1.810
29565W        W 1181  12.908  29.084  12.464
29566W        W 1182   2.364   8.954   2.583
29567W        W 1183   2.284  16.395  12.294
29568W        W 1184  14.010  26.502  12.019
29569W        W 1185   8.816  14.070   4.104
29570W        W 1186  34.398  27.700   4.294
29571W        W 1187  23.502  26.974   4.571
29572W        W 1188   3.211  14.497   1.187
29573W        W 1189  44.436  26.269   2.620
29574W        W 1190   5.197  13.408   0.576
29575W        W 1191  16.308  25.959  12.405
29576W        W 1192  38.561  38.083   0.420
29577W        W 1193  17.045  43.017   1.913
29578W        W 1194  40.177  31.942   2.587
29579W        W 1195  23.003  19.682   3.761
29580W        W 1196  12.744  29.253   2.188
29581W        W 1197   3.746  40.846  14.293
29582W        W 1198  34.600  20.343   1.196
29583W        W 1199  14.124  30.578  13.394
29584W        W 1200  11.690  13.251  13.107
29585W        W 1201  15.640  23.362   0.202
29586W        W 1202   9.194  29.591  12.320
29587W        W 1203  44.857  30.415   4.205
29588W        W 1204  12.725  32.079  14.085
29589W        W 1205   8.306  23.827   0.487
29590W        W 1206  15.640  19.067  11.143
29591W        W 1207   7.619  31.289   2.124
29592W        W 1208  29.253  18.026   0.031
29593W        W 1209  21.079   5.461   1.945
29594W        W 1210  20.671  22.221   1.780
29595W        W 1211  27.752  31.441  11.993
29596W        W 1212  18.180  27.407  11.160
29597W        W 1213  44.466  35.766   4.933
29598W        W 1214  43.798  31.936   4.579
29599W        W 1215  27.477  17.569  14.330
29600W        W 1216  17.814  30.976  12.033
29601W        W 1217   4.878  30.503   4.735
29602W        W 1218  26.749   6.245  10.691
29603W        W 1219  37.832   6.257  11.628
29604W        W 1220  43.986  32.862  10.625
29605W        W 1221  11.868  12.801  14.903
29606W        W 1222  44.922  15.349  14.856
29607W        W 1223  20.186   8.421  10.668
29608W        W 1224  26.637  26.468  11.640
29609W        W 1225  19.590  33.550   0.234
29610W        W 1226  27.664  31.040  11.675
29611W        W 1227  41.879  18.166  13.073
29612W        W 1228  12.206  24.606   1.334
29613W        W 1229   3.380  37.911   4.158
29614W        W 1230  34.198  13.535   3.907
29615W        W 1231   5.199  43.852  11.029
29616W        W 1232  16.265  43.435  14.974
29617W        W 1233  39.861  21.729   4.777
29618W        W 1234  26.062  19.773   4.644
29619W        W 1235  24.749  43.255  10.662
29620W        W 1236   7.893  13.178  11.905
29621W        W 1237   8.657  36.054  11.454
29622W        W 1238   9.395  43.834   4.432
29623W        W 1239   3.781   7.762  12.499
29624W        W 1240  39.838  15.565   1.274
29625W        W 1241  43.992  35.254   0.839
29626W        W 1242  14.662  11.776  11.480
29627W        W 1243  21.503   9.231  10.750
29628W        W 1244  44.662   8.954   3.244
29629W        W 1245  13.149  17.193   4.211
29630W        W 1246  13.932  12.843   1.829
29631W        W 1247  36.022  37.200   1.935
29632W        W 1248  29.975   6.645  13.415
29633W        W 1249   0.938   3.412   3.559
29634W        W 1250  39.050  39.609  13.366
29635W        W 1251  25.219   4.210  12.540
29636W        W 1252  14.813  22.742   3.101
29637W        W 1253  37.687  21.053   4.002
29638W        W 1254  16.265  19.827  12.575
29639W        W 1255  12.198   6.434   3.725
29640W        W 1256  40.274  41.921   4.032
29641W        W 1257   4.967  23.509  14.474
29642W        W 1258   4.465  27.915   1.845
29643W        W 1259  33.194  43.745   3.144
29644W        W 1260  19.858  44.467  13.821
29645W        W 1261  24.142  36.375   2.493
29646W        W 1262   5.749   6.569  10.859
29647W        W 1263  16.632  32.802   0.443
29648W        W 1264   4.977  16.601   4.189
29649W        W 1265  40.915  31.567  14.747
29650W        W 1266  39.346  34.516  11.948
29651W        W 1267   6.775  31.058   4.557
29652W        W 1268   5.045  17.105  12.961
29653W        W 1269  41.803   6.654   0.475
29654W        W 1270   2.232  43.402  14.259
29655W        W 1271  37.956  33.720  11.481
29656W        W 1272  16.752   4.913   3.258
29657W        W 1273  27.059  13.361   3.801
29658W        W 1274  38.372  14.373  10.616
29659W        W 1275  42.507   1.318   4.111
29660W        W 1276  28.377  18.256   1.340
29661W        W 1277  36.147   2.514   2.656
29662W        W 1278  42.310   7.775   4.815
29663W        W 1279  10.598  16.576  11.200
29664W        W 1280  13.853  19.715   3.683
29665W        W 1281  37.928  39.605  14.440
29666W        W 1282  25.068  37.094   0.961
29667W        W 1283  11.310   3.463   4.932
29668W        W 1284   9.640  23.515   1.108
29669W        W 1285  21.187  24.698   2.292
29670W        W 1286  23.783  29.545   0.069
29671W        W 1287  32.104  10.585  13.407
29672W        W 1288  39.595  29.353   0.339
29673W        W 1289   1.278  13.730   4.115
29674W        W 1290  28.054   0.702   3.539
29675W        W 1291  23.482  36.006  11.568
29676W        W 1292  32.106  21.564   4.339
29677W        W 1293   5.356  38.404  10.621
29678W        W 1294  33.656  32.053  12.414
29679W        W 1295  14.243  33.334   2.851
29680W        W 1296  40.268  33.644   2.990
29681W        W 1297  22.032   3.209  13.360
29682W        W 1298  17.322  26.952   4.775
29683W        W 1299   5.638  29.305   4.150
29684W        W 1300   4.863  14.179  12.749
29685W        W 1301  27.749   8.719  14.173
29686W        W 1302   3.391  29.442  14.754
29687W        W 1303  37.469  40.779   2.158
29688W        W 1304  34.913  25.116  12.463
29689W        W 1305  21.634  38.530  10.570
29690W        W 1306   4.405  21.502   0.937
29691W        W 1307  43.898  29.974   3.497
29692W        W 1308   0.816   6.475  11.980
29693W        W 1309  43.982  17.070  12.891
29694W        W 1310   2.832  40.246  10.667
29695W        W 1311  37.434  22.048   2.222
29696W        W 1312   9.909  20.606   2.848
29697W        W 1313   7.673  34.812  11.643
29698W        W 1314  10.597   2.003   3.363
29699W        W 1315  28.974  35.424  11.624
29700W        W 1316   4.103  43.844   4.622
29701W        W 1317  13.539  20.804   0.412
29702W        W 1318  40.337  10.522   1.162
29703W        W 1319  44.383   7.401   0.112
29704W        W 1320   8.325   2.984  13.820
29705W        W 1321  21.481  44.998  13.474
29706W        W 1322   0.804  43.931  11.406
29707W        W 1323  12.532  27.769   2.800
29708W        W 1324  39.556  15.059  11.614
29709W        W 1325  24.154  34.080  10.497
29710W        W 1326   4.777  26.211  13.990
29711W        W 1327  16.546  23.777   3.300
29712W        W 1328  38.949  41.777  12.266
29713W        W 1329  19.658   4.355   0.237
29714W        W 1330   2.774   9.238   0.968
29715W        W 1331  28.193  11.788   4.072
29716W        W 1332   3.582  19.162  13.538
29717W        W 1333  11.676  17.683   2.223
29718W        W 1334   0.277  15.104   2.374
29719W        W 1335  16.177   5.175   4.225
29720W        W 1336   9.951  44.786   3.306
29721W        W 1337  31.137  33.675  14.952
29722W        W 1338   1.311  11.170   2.410
29723W        W 1339  33.276   7.565   4.170
29724W        W 1340  23.422   1.803   1.895
29725W        W 1341  21.793  38.317  11.021
29726W        W 1342  13.792  42.977   0.982
29727W        W 1343  43.778   3.991   2.619
29728W        W 1344  11.301   4.434   2.253
29729W        W 1345  20.547  12.398   4.845
29730W        W 1346  32.436   1.754   4.527
29731W        W 1347  23.426  44.472  14.825
29732W        W 1348  34.057  30.566  12.140
29733W        W 1349  41.320  22.709  14.770
29734W        W 1350  29.405  12.270   3.294
29735W        W 1351  15.375   7.767   4.645
29736W        W 1352  31.936  23.941  10.438
29737W        W 1353  28.401   7.114   3.298
29738W        W 1354  38.160  17.677  14.724
29739W        W 1355  23.510  43.075  10.762
29740W        W 1356   6.816  30.524  14.518
29741W        W 1357  18.121  28.686  12.929
29742W        W 1358  26.788  33.962  10.680
29743W        W 1359  30.630   5.873   1.487
29744W        W 1360  14.648  12.629   1.791
29745W        W 1361   7.318  43.752   0.259
29746W        W 1362  44.795  37.096  11.439
29747W        W 1363  28.007  34.582   1.432
29748W        W 1364  38.011  40.771   1.835
29749W        W 1365  30.171  27.715   1.811
29750W        W 1366  29.945  31.920   3.858
29751W        W 1367  12.730  23.225   4.746
29752W        W 1368  13.094  43.529   2.831
29753W        W 1369  19.186  31.638  11.316
29754W        W 1370  29.666  29.111   9.947
29755W        W 1371  15.377  41.096   4.980
29756W        W 1372  25.386  43.016  14.524
29757W        W 1373  35.092  13.906   1.241
29758W        W 1374  36.866   4.641  13.899
29759W        W 1375  38.280  44.865  10.315
29760W        W 1376   9.776  32.980   3.679
29761W        W 1377  32.219   5.889  12.661
29762W        W 1378  26.288  38.959  14.825
29763W        W 1379  13.066  41.485  11.134
29764W        W 1380  27.620  43.310   1.268
29765W        W 1381  31.003   2.897  14.797
29766W        W 1382  25.597  23.060  13.628
29767W        W 1383   4.703  28.047  14.145
29768W        W 1384   0.837  41.089   3.106
29769W        W 1385  30.754  41.439   0.407
29770W        W 1386  38.888  40.605  14.475
29771W        W 1387  17.316   8.896   0.361
29772W        W 1388  44.252  15.339   4.531
29773W        W 1389   0.864  28.331  14.157
29774W        W 1390  14.932   3.341   3.175
29775W        W 1391  14.599  29.456  13.011
29776W        W 1392   6.750  40.984  10.728
29777W        W 1393  13.109  36.897  14.966
29778W        W 1394  34.640  42.754  12.101
29779W        W 1395  16.239   1.408  11.154
29780W        W 1396  10.316   8.167   4.960
29781W        W 1397  23.958  28.854   3.888
29782W        W 1398  28.735  14.120   3.618
29783W        W 1399  19.045   3.494   3.873
29784W        W 1400  28.558   9.631  14.380
29785W        W 1401  20.381  18.295   0.439
29786W        W 1402  38.061   2.996  10.734
29787W        W 1403   9.582   3.515   2.969
29788W        W 1404  38.177  42.311   4.021
29789W        W 1405  35.353  40.329  10.730
29790W        W 1406  35.632  17.095   0.925
29791W        W 1407   4.248  24.925  10.753
29792W        W 1408  15.735  27.917   0.843
29793W        W 1409   3.760  28.081  10.596
29794W        W 1410  18.668   9.601   0.907
29795W        W 1411  39.577  34.447  14.455
29796W        W 1412   6.213  43.942  14.837
29797W        W 1413   0.309  10.946  12.134
29798W        W 1414   8.667  27.217   3.175
29799W        W 1415  16.165  26.353  11.940
29800W        W 1416  30.812  13.614   1.673
29801W        W 1417   1.996  20.668   0.716
29802W        W 1418  38.049  42.517   4.896
29803W        W 1419   8.262  40.855   1.295
29804W        W 1420   0.797  26.671  11.505
29805W        W 1421  33.450  27.918   3.283
29806W        W 1422  27.936  14.835  11.474
29807W        W 1423  12.589  24.840   0.381
29808W        W 1424  43.008  41.252   2.636
29809W        W 1425  34.132   5.313  11.046
29810W        W 1426  32.696  23.400   1.869
29811W        W 1427  37.059  17.038   4.431
29812W        W 1428   3.333  39.515  11.940
29813W        W 1429  16.152  26.949   3.321
29814W        W 1430  44.992  39.565  11.590
29815W        W 1431  17.636  35.408   2.477
29816W        W 1432   5.267   9.751  12.883
29817W        W 1433  26.383  42.663   0.426
29818W        W 1434  16.654  13.249  11.929
29819W        W 1435   8.765  21.522   0.306
29820W        W 1436   1.525  19.991  12.082
29821W        W 1437  38.170  35.164   2.732
29822W        W 1438  18.511  18.686  10.865
29823W        W 1439   1.035  35.941  13.442
29824W        W 1440  43.562  25.184  14.904
29825W        W 1441   5.613  13.578   2.204
29826W        W 1442  32.489   6.268  10.336
29827W        W 1443  36.635   8.922   2.488
29828W        W 1444  21.560  13.424   2.666
29829W        W 1445  30.628  35.540  12.618
29830W        W 1446  14.148  15.429  10.673
29831W        W 1447  40.799  27.408   0.221
29832W        W 1448  43.499   2.315   2.693
29833W        W 1449  10.612  41.257   3.179
29834W        W 1450  38.542  10.186   3.184
29835W        W 1451  10.150  19.208   0.282
29836W        W 1452  31.361  29.106   3.369
29837W        W 1453  24.735  35.477   3.684
29838W        W 1454  25.099  42.572   0.790
29839W        W 1455  34.517  21.549  14.048
29840W        W 1456  12.854  43.617   2.382
29841W        W 1457   4.239  38.077  14.327
29842W        W 1458  21.027  16.397   2.823
29843W        W 1459  25.915  27.626  11.035
29844W        W 1460  32.347  28.447  11.081
29845W        W 1461  28.644  18.298   3.474
29846W        W 1462  42.068   8.954   3.682
29847W        W 1463  17.786   6.648   4.637
29848W        W 1464  21.595  38.943   0.214
29849W        W 1465  25.704   4.263   0.418
29850W        W 1466   7.659   6.284   0.415
29851W        W 1467   9.137  29.886  10.508
29852W        W 1468  43.481  26.915   1.390
29853W        W 1469  37.937   3.719  13.864
29854W        W 1470  28.678  25.510   4.392
29855W        W 1471  32.116  11.826  11.765
29856W        W 1472  12.310  27.939   4.336
29857W        W 1473  24.549  27.741   4.082
29858W        W 1474  31.974  15.160   4.513
29859W        W 1475  11.198  32.169   0.797
29860W        W 1476  40.559  39.522  11.322
29861W        W 1477  35.715  43.458   3.259
29862W        W 1478  44.406  24.089  11.961
29863W        W 1479  33.431  12.823  12.206
29864W        W 1480  12.816   2.912  10.984
29865W        W 1481  28.680  23.670  11.151
29866W        W 1482  14.583  31.922   0.998
29867W        W 1483  12.426  29.900  11.109
29868W        W 1484   2.450  10.068   3.809
29869W        W 1485  26.961   3.837  12.336
29870W        W 1486  11.637   1.287   3.110
29871W        W 1487  20.636  34.907  11.208
29872W        W 1488  28.890  43.202  11.110
29873W        W 1489  41.094  42.769   2.325
29874W        W 1490   5.449  16.883  13.253
29875W        W 1491  33.098   0.317   2.849
29876W        W 1492   1.580  15.063   0.227
29877W        W 1493   8.877   3.531  10.220
29878W        W 1494   3.783  22.239   0.653
29879W        W 1495  27.717  11.582   3.166
29880W        W 1496  36.529  24.423  12.049
29881W        W 1497  17.730  31.028   1.680
29882W        W 1498  28.763   8.750  11.771
29883W        W 1499  32.960  34.207  14.853
29884W        W 1500  16.545  35.621  13.450
29885W        W 1501  21.035  35.825  13.237
29886W        W 1502   8.323  16.361  11.101
29887W        W 1503   8.690  22.118  11.990
29888W        W 1504   8.805  42.103   0.772
29889W        W 1505  15.787   0.028   1.704
29890W        W 1506  12.621  22.646   3.341
29891W        W 1507  14.803  43.454  11.548
29892W        W 1508  43.142   0.723  12.498
29893W        W 1509   1.414  19.066  14.359
29894W        W 1510  33.970   4.316   0.857
29895W        W 1511  10.647  15.207   4.858
29896W        W 1512  29.656  43.456  11.477
29897W        W 1513  17.771  20.713  10.858
29898W        W 1514  17.987  15.636  14.972
29899W        W 1515   9.343  24.629  14.762
29900W        W 1516  18.670  36.315  10.486
29901W        W 1517  23.472   8.230   0.946
29902W        W 1518  29.605  16.748  14.934
29903W        W 1519  28.124  43.806   1.024
29904W        W 1520  35.602   6.613  13.493
29905W        W 1521   4.318  23.499  14.269
29906W        W 1522   2.699  38.165   1.969
29907W        W 1523   6.354  24.993  10.665
29908W        W 1524   2.567   9.833   2.916
29909W        W 1525  36.632  38.550  12.379
29910W        W 1526   0.763  33.843  13.579
29911W        W 1527  35.109  42.531  13.332
29912W        W 1528   4.908   3.204   9.746
29913W        W 1529   5.703  20.561  13.516
29914W        W 1530  34.316  36.077   2.726
29915W        W 1531  10.265   7.511  13.587
29916W        W 1532  30.611  26.538  13.796
29917W        W 1533  32.829   8.159   0.463
29918W        W 1534  27.401  31.730   2.942
29919W        W 1535  31.445  36.932  12.035
29920W        W 1536  15.298  43.827  14.855
29921W        W 1537  18.985  17.767  14.934
29922W        W 1538  35.379  34.559  13.587
29923W        W 1539  34.157  13.406  14.872
29924W        W 1540   6.189  32.688  14.041
29925W        W 1541  44.160   1.331  11.439
29926W        W 1542  41.974  29.078  13.750
29927W        W 1543  40.429  13.732  11.587
29928W        W 1544   7.670  37.834   3.640
29929W        W 1545  15.727  13.028   2.682
29930W        W 1546  18.131  44.904  13.803
29931W        W 1547  27.714   2.390   3.725
29932W        W 1548   3.440  15.646   3.342
29933W        W 1549   8.634  38.010  13.760
29934W        W 1550  28.575  22.778  11.650
29935W        W 1551  25.164  40.036  11.686
29936W        W 1552   3.693   0.263  11.892
29937W        W 1553  33.379  10.390  13.854
29938W        W 1554  44.023  38.638  13.062
29939W        W 1555   2.257  14.736   1.802
29940W        W 1556  15.777  35.962  11.651
29941W        W 1557  27.914  31.047   1.177
29942W        W 1558   2.295  25.286   5.549
29943W        W 1559  33.152   7.527  11.274
29944W        W 1560   6.640  24.518   0.243
29945W        W 1561  10.467  23.671   0.804
29946W        W 1562  16.606  34.687   1.676
29947W        W 1563   3.446   9.967  10.686
29948W        W 1564  35.758  31.794   5.025
29949W        W 1565  39.510   2.892  13.802
29950W        W 1566  29.366   7.402  10.074
29951W        W 1567  21.682   8.107  11.573
29952W        W 1568  23.309   7.377  11.774
29953W        W 1569   9.129  10.878  14.434
29954W        W 1570  36.498   5.706   1.964
29955W        W 1571  34.876  16.302  13.898
29956W        W 1572  19.330  38.130  11.058
29957W        W 1573   5.251  38.201   1.414
29958W        W 1574  36.408  16.739  11.100
29959W        W 1575  40.910  31.460   0.304
29960W        W 1576   6.005  40.450  11.807
29961W        W 1577   1.837  37.792  10.982
29962W        W 1578  28.976  18.220   3.090
29963W        W 1579  29.933   4.954  10.783
29964W        W 1580   7.431  38.644   0.496
29965W        W 1581  43.896  22.675   1.816
29966W        W 1582  41.074   3.871  11.021
29967W        W 1583   2.305  23.167  11.747
29968W        W 1584   1.942   4.397   2.641
29969W        W 1585  28.022   2.159  14.517
29970W        W 1586   9.160   8.862  14.045
29971W        W 1587  44.419  19.569  11.611
29972W        W 1588  29.462   9.409  11.095
29973W        W 1589   2.471   5.155  10.752
29974W        W 1590  32.193  33.381  13.307
29975W        W 1591   0.805   9.206   0.896
29976W        W 1592  22.802  27.237   2.410
29977W        W 1593  26.268  14.289  14.496
29978W        W 1594  20.046  12.185   3.116
29979W        W 1595  33.664  28.545  13.347
29980W        W 1596  36.632  18.869  14.865
29981W        W 1597   1.883   2.976  13.998
29982W        W 1598  35.145  43.467  11.716
29983W        W 1599  40.008  10.889  13.548
29984W        W 1600  21.873  24.009   0.872
29985W        W 1601  19.023  11.762   1.193
29986W        W 1602  26.102  38.916  10.943
29987W        W 1603  41.356  11.651   3.795
29988W        W 1604  25.909  15.268  11.040
29989W        W 1605  40.471  21.295  13.729
29990W        W 1606  44.389  16.725  12.977
29991W        W 1607  42.865  12.607  12.838
29992W        W 1608   0.414  36.462   4.225
29993W        W 1609  18.871  38.086   0.336
29994W        W 1610   9.329   6.664   3.443
29995W        W 1611  36.887  12.603   4.987
29996W        W 1612   7.899  10.109  12.080
29997W        W 1613   3.761  30.743  10.800
29998W        W 1614   2.643  33.528  14.744
29999W        W 1615  20.026  21.222   4.094
30000W        W 1616  21.214   6.265  13.159
30001W        W 1617  23.541   5.831  11.475
30002W        W 1618   4.955  16.222  13.658
30003W        W 1619  19.964  13.724  13.855
30004W        W 1620  27.509  33.219   4.584
30005W        W 1621  20.080  44.440   0.334
30006W        W 1622  37.080   2.046  14.588
30007W        W 1623  12.597  18.103  13.260
30008W        W 1624   2.723  28.720   0.367
30009W        W 1625  42.583  31.333   4.173
30010W        W 1626  35.860  24.219   1.385
30011W        W 1627  36.948  37.381   3.627
30012W        W 1628  14.584  44.859   3.554
30013W        W 1629  23.503   2.416   2.536
30014W        W 1630  38.339  28.017  13.832
30015W        W 1631  20.807  14.528  12.529
30016W        W 1632  40.542  40.595   3.754
30017W        W 1633  43.481  25.990  12.525
30018W        W 1634   1.870  34.467   2.686
30019W        W 1635   9.309  18.566  13.872
30020W        W 1636  35.665  40.477   0.843
30021W        W 1637   9.301  29.480   0.757
30022W        W 1638  35.096  19.809   3.910
30023W        W 1639  41.937  33.636   3.126
30024W        W 1640   5.794   7.497  10.527
30025W        W 1641  16.032  18.809  12.490
30026W        W 1642  41.077   1.684  12.205
30027W        W 1643   2.137   2.396   4.536
30028W        W 1644  22.120   2.861  11.880
30029W        W 1645  19.152  44.397   5.022
30030W        W 1646  41.935  15.790   3.270
30031W        W 1647  18.617   1.856  10.270
30032W        W 1648  10.177  36.041   4.209
30033W        W 1649   1.898   1.218  11.615
30034W        W 1650  17.610  38.490  11.156
30035W        W 1651  30.294  25.267  14.895
30036W        W 1652   0.937   1.066   4.142
30037W        W 1653   3.025  16.112   2.770
30038W        W 1654  25.071  28.555  11.607
30039W        W 1655  15.092   1.338  10.702
30040W        W 1656   7.862  33.474   4.214
30041W        W 1657   9.457  35.839  13.378
30042W        W 1658  33.402  37.639   4.138
30043W        W 1659   0.417  14.844   3.711
30044W        W 1660  40.104  11.912  11.133
30045W        W 1661   1.341  20.951   3.832
30046W        W 1662  14.895  15.508   0.674
30047W        W 1663  12.144   0.972   1.821
30048W        W 1664  25.381  34.928  11.947
30049W        W 1665  19.381  20.086   4.677
30050W        W 1666  39.101  37.966  14.289
30051W        W 1667  29.766   6.345  14.542
30052W        W 1668  39.815  22.134  13.008
30053W        W 1669  41.832  35.290  14.375
30054W        W 1670  25.743  30.592  13.319
30055W        W 1671  14.068  18.248  12.704
30056W        W 1672  32.554  41.858  12.991
30057W        W 1673  36.870  26.736   3.178
30058W        W 1674  17.491  19.991   4.810
30059W        W 1675  17.260  28.202   0.885
30060W        W 1676  37.327  19.879   2.705
30061W        W 1677   2.327   8.629  14.981
30062W        W 1678  39.463   8.938  14.155
30063W        W 1679  42.392  21.022  10.952
30064W        W 1680   1.514  25.771   3.324
30065W        W 1681  38.065  10.355  12.913
30066W        W 1682   5.843  28.464  13.554
30067W        W 1683   4.446  32.501   1.235
30068W        W 1684  36.603  23.069  13.993
30069W        W 1685   8.107  12.234   2.247
30070W        W 1686  35.029   2.069  10.903
30071W        W 1687   8.122   5.147  14.991
30072W        W 1688  13.238  32.619  14.429
30073W        W 1689  34.694   6.245   2.297
30074W        W 1690  11.785  26.965  10.514
30075W        W 1691   3.834   8.159   3.823
30076W        W 1692  18.319  15.794   4.132
30077W        W 1693  34.305  27.204  14.799
30078W        W 1694  20.090  40.399  13.895
30079W        W 1695   4.648  28.612   0.381
30080W        W 1696  41.638  34.631   3.825
30081W        W 1697  22.489   3.284  10.031
30082W        W 1698  11.747  18.535   2.933
30083W        W 1699  36.651  33.892  11.599
30084W        W 1700   9.231   2.375  13.010
30085W        W 1701  15.117  27.286   0.938
30086W        W 1702   8.325  31.150  12.084
30087W        W 1703  33.676   0.501   1.346
30088W        W 1704  24.035   1.882   2.455
30089W        W 1705  26.056  18.249  12.524
30090W        W 1706  26.730  23.289   1.937
30091W        W 1707   6.779  14.361  13.911
30092W        W 1708  28.140  18.609  11.349
30093W        W 1709  11.679  37.947   3.783
30094W        W 1710  36.877  44.895  10.634
30095W        W 1711   1.730   7.371   0.358
30096W        W 1712  16.551  14.802  13.891
30097W        W 1713  29.481  26.018   2.474
30098W        W 1714  19.601  40.636  12.800
30099W        W 1715  12.154  31.424  11.060
30100W        W 1716  43.897   5.550  10.736
30101W        W 1717  20.099   7.325   3.803
30102W        W 1718  26.821  19.247   2.192
30103W        W 1719  30.659  29.690   0.548
30104W        W 1720  40.806  38.814  12.903
30105W        W 1721  42.765  28.517   4.609
30106W        W 1722  16.147  10.582   4.723
30107W        W 1723  19.530  11.243  13.428
30108W        W 1724  35.372   3.652   4.733
30109W        W 1725  14.408  32.051   0.408
30110W        W 1726   4.635  16.325   0.265
30111W        W 1727  35.321  16.704   2.696
30112W        W 1728  42.024  12.161  11.912
30113W        W 1729   2.372   0.472   2.625
30114W        W 1730   6.251  29.952  11.828
30115W        W 1731  10.482  40.068  14.519
30116W        W 1732  34.841  34.651  10.867
30117W        W 1733   3.450  29.876   0.109
30118W        W 1734  34.035  15.411   2.257
30119W        W 1735  38.480   5.830   1.896
30120W        W 1736  25.455  43.320   5.009
30121W        W 1737  21.062  26.604   2.400
30122W        W 1738   3.770  28.420  12.826
30123W        W 1739  11.863  23.029  11.727
30124W        W 1740   7.989  37.030   0.395
30125W        W 1741  22.399  17.818   4.610
30126W        W 1742  19.366  22.607  11.712
30127W        W 1743  19.682  12.617  10.696
30128W        W 1744  26.121  13.359   0.431
30129W        W 1745   9.373  33.968  11.224
30130W        W 1746  17.069  13.225   1.392
30131W        W 1747   4.734  33.942  12.991
30132W        W 1748  31.769  20.983   3.453
30133W        W 1749   6.456  12.623   2.300
30134W        W 1750   7.194  41.235  11.111
30135W        W 1751  15.393   0.356  13.773
30136W        W 1752  44.396   4.971  12.478
30137W        W 1753   4.431  32.407   3.642
30138W        W 1754   9.572  28.146   1.280
30139W        W 1755   2.335  13.601  12.601
30140W        W 1756  15.228  27.670  12.946
30141W        W 1757  41.373  37.083  14.380
30142W        W 1758  20.062   1.298   1.933
30143W        W 1759   9.841  39.112   2.089
30144W        W 1760  16.574  31.234  14.341
30145W        W 1761   5.969  17.514   1.247
30146W        W 1762  19.548  17.430  14.039
30147W        W 1763  37.847  38.571  10.604
30148W        W 1764  44.240  34.104  12.021
30149W        W 1765  34.449  25.879   0.914
30150W        W 1766  22.056   0.848  10.725
30151W        W 1767  38.332  29.586   4.268
30152W        W 1768  10.628  27.417   0.216
30153W        W 1769  20.572  19.258  13.037
30154W        W 1770  24.631  43.484   3.774
30155W        W 1771  35.397   4.000  14.508
30156W        W 1772  31.629  34.026  12.175
30157W        W 1773   8.116  43.046   1.148
30158W        W 1774  31.608  12.073   0.366
30159W        W 1775  21.242  44.247  11.480
30160W        W 1776  14.749  21.359  11.136
30161W        W 1777  19.293  35.595  10.723
30162W        W 1778   8.760   8.192   4.390
30163W        W 1779   5.254  30.693  13.315
30164W        W 1780  40.861  42.416  11.565
30165W        W 1781  35.845  34.113  11.988
30166W        W 1782   8.868  28.542  11.814
30167W        W 1783  18.583   2.256  12.393
30168W        W 1784  31.030  13.319  14.982
30169W        W 1785  22.121  40.582  14.040
30170W        W 1786  32.646  31.325  14.815
30171W        W 1787  41.236   0.384   4.895
30172W        W 1788  40.789  28.728  14.346
30173W        W 1789  36.318  36.064  13.793
30174W        W 1790   9.783  36.591  10.538
30175W        W 1791   4.664  11.080  11.187
30176W        W 1792  28.770   9.164   2.382
30177W        W 1793  23.111   5.831   2.643
30178W        W 1794  13.275  14.096   3.790
30179W        W 1795  14.366   0.801  14.412
30180W        W 1796   5.345  28.479   2.318
30181W        W 1797   2.334  29.623   4.162
30182W        W 1798   9.883   2.385  13.364
30183W        W 1799  42.743  20.921  13.118
30184W        W 1800  13.005  24.979  14.255
30185W        W 1801   5.173  32.243  14.826
30186W        W 1802  42.559   1.246  13.142
30187W        W 1803  23.701  38.309  12.963
30188W        W 1804  31.141   9.427  14.822
30189W        W 1805  28.606  37.507  11.621
30190W        W 1806  28.107  10.832   3.540
30191W        W 1807  22.593  10.192   4.097
30192W        W 1808  24.168  17.638  12.075
30193W        W 1809  25.428  15.276   4.179
30194W        W 1810  42.861  40.957  13.038
30195W        W 1811  44.051  31.538  14.463
30196W        W 1812  27.416  27.003   0.905
30197W        W 1813  25.131  20.743  12.441
30198W        W 1814  13.155  12.951   3.008
30199W        W 1815  10.731  12.716   1.945
30200W        W 1816  44.529  20.968   0.778
30201W        W 1817   2.471  41.358   2.189
30202W        W 1818  35.048  27.885   1.800
30203W        W 1819  16.146  44.302   2.611
30204W        W 1820  20.716  17.624   1.627
30205W        W 1821   8.115   9.625  13.975
30206W        W 1822  30.064  35.605   0.139
30207W        W 1823   7.771  11.758   1.800
30208W        W 1824  23.964  43.956  13.309
30209W        W 1825   3.694  12.777   4.767
30210W        W 1826  39.317  33.647  14.915
30211W        W 1827  38.912   6.684   2.806
30212W        W 1828  13.091  35.322  10.960
30213W        W 1829  44.238  20.382  13.483
30214W        W 1830   7.406  30.893   3.912
30215W        W 1831  33.977  42.348  13.839
30216W        W 1832   8.306  36.453  10.601
30217W        W 1833  42.481  16.539  13.494
30218W        W 1834  38.770  32.632   4.225
30219W        W 1835  31.036  28.140  14.837
30220W        W 1836  28.990  32.094   1.735
30221W        W 1837   7.629   0.298   1.710
30222W        W 1838  22.651   4.286  11.611
30223W        W 1839  33.067  30.264  11.064
30224W        W 1840  31.973  35.800   0.843
30225W        W 1841  22.518  38.428  11.561
30226W        W 1842  13.519  30.401  14.125
30227W        W 1843  44.551  25.715  14.452
30228W        W 1844  11.305  40.586  11.687
30229W        W 1845  44.268  30.948  12.245
30230W        W 1846  18.811   2.836  12.968
30231W        W 1847  32.477   0.780   4.329
30232W        W 1848  44.265  26.444   3.078
30233W        W 1849  26.805  35.536   2.257
30234W        W 1850  18.897  35.686   0.426
30235W        W 1851  12.770  11.165  11.977
30236W        W 1852   8.085  31.406   2.342
30237W        W 1853  21.170  16.192  13.608
30238W        W 1854  32.910  15.258   3.724
30239W        W 1855  13.744  18.281   0.910
30240W        W 1856   9.783  38.049   1.525
30241W        W 1857  34.789  39.195   3.068
30242W        W 1858  25.745  39.613   0.183
30243W        W 1859  10.206  13.833   2.220
30244W        W 1860  11.729  37.503  11.064
30245W        W 1861   5.744  41.920  13.886
30246W        W 1862  38.754  44.567  11.132
30247W        W 1863   9.409  37.592  13.736
30248W        W 1864  39.843   9.300  14.067
30249W        W 1865  34.360  16.316  13.987
30250W        W 1866  10.680  21.877   1.303
30251W        W 1867  27.123  42.881  13.231
30252W        W 1868  18.776  19.167  10.835
30253W        W 1869   0.290  10.409  13.949
30254W        W 1870  42.930   1.256   4.419
30255W        W 1871   0.926  33.616   1.679
30256W        W 1872  11.205  23.952  14.482
30257W        W 1873  36.305  11.842   4.816
30258W        W 1874  13.770  20.628   4.155
30259W        W 1875  40.534  36.834   1.913
30260W        W 1876  35.614  19.342  12.033
30261W        W 1877  38.474   6.790   3.557
30262W        W 1878  21.660  22.161   2.779
30263W        W 1879  12.571  19.127   2.625
30264W        W 1880  28.857   9.298  12.466
30265W        W 1881   7.449   8.506   1.376
30266W        W 1882  13.842  29.514   0.980
30267W        W 1883   3.381  32.483   3.966
30268W        W 1884  22.532   6.312  11.969
30269W        W 1885  19.667  20.568  13.538
30270W        W 1886  29.096  18.836  11.358
30271W        W 1887  18.601   2.310   4.502
30272W        W 1888   6.731  14.283  13.396
30273W        W 1889   5.270   3.781   2.809
30274W        W 1890  21.209  33.320  10.199
30275W        W 1891  10.787   8.169   3.761
30276W        W 1892   6.418  40.334  12.110
30277W        W 1893  29.859  23.132   4.666
30278W        W 1894  23.503  15.171   1.332
30279W        W 1895   9.759  42.534   1.382
30280W        W 1896  33.537   4.452   1.954
30281W        W 1897   3.404  14.212   1.983
30282W        W 1898   8.740  42.769  14.973
30283W        W 1899   0.748  44.778   4.052
30284W        W 1900  33.339  34.294  13.114
30285W        W 1901  43.343  35.506   5.422
30286W        W 1902  32.089  12.804  12.146
30287W        W 1903  14.250  42.747   1.712
30288W        W 1904  11.653  28.504  10.678
30289W        W 1905  11.881  10.428  13.510
30290W        W 1906  16.664  40.872   0.314
30291W        W 1907  13.151  21.330   0.880
30292W        W 1908   7.122   6.318   0.401
30293W        W 1909  32.111   5.722   2.721
30294W        W 1910  34.422  15.880   1.778
30295W        W 1911  43.922  37.595  12.886
30296W        W 1912  41.299   7.251  12.360
30297W        W 1913   9.224  25.961   3.459
30298W        W 1914  23.131   6.697   3.631
30299W        W 1915  10.377  33.970  12.099
30300W        W 1916  43.801  23.992  14.784
30301W        W 1917   5.623  33.621  13.972
30302W        W 1918  19.193   1.535  11.590
30303W        W 1919   3.944  38.289   4.313
30304W        W 1920  42.590   7.255   1.435
30305W        W 1921  15.470  18.325   2.264
30306W        W 1922  41.093  30.415   1.793
30307W        W 1923  13.857  15.519   0.004
30308W        W 1924   3.194  10.714   0.054
30309W        W 1925  21.206  21.739  12.539
30310W        W 1926  31.939  12.627   1.721
30311W        W 1927  28.100  39.287   4.526
30312W        W 1928  17.056  42.022   4.524
30313W        W 1929  42.280  20.990   2.342
30314W        W 1930   1.750   2.951   2.179
30315W        W 1931  17.277  22.092  13.385
30316W        W 1932  40.430   9.276   3.318
30317W        W 1933  16.525  43.361  10.320
30318W        W 1934  37.202  21.754   3.123
30319W        W 1935  23.633  18.274   4.157
30320W        W 1936  40.589   3.770   2.852
30321W        W 1937   7.274  11.057  12.462
30322W        W 1938  44.171  20.880   1.707
30323W        W 1939  38.589  19.717   4.222
30324W        W 1940  16.754  24.665   1.913
30325W        W 1941   1.715  38.406  12.917
30326W        W 1942  37.289  20.254   4.580
30327W        W 1943  33.077   4.749   0.711
30328W        W 1944  27.616   8.851  11.182
30329W        W 1945  29.641  39.696  11.588
30330W        W 1946  44.328  19.222   4.889
30331W        W 1947   1.470  23.010  14.129
30332W        W 1948  14.389   3.519  14.940
30333W        W 1949  21.718  11.281   4.877
30334W        W 1950  24.667  33.298  14.722
30335W        W 1951  30.276  34.489   3.477
30336W        W 1952  25.200  12.334  14.404
30337W        W 1953  23.228  13.542  12.411
30338W        W 1954  17.852  14.601   2.352
30339W        W 1955  42.061  39.117   2.436
30340W        W 1956  10.103  13.056   2.725
30341W        W 1957  31.144  12.707   1.335
30342W        W 1958  38.400  34.492   3.625
30343W        W 1959  11.331  37.458  11.406
30344W        W 1960  26.634  13.548   3.332
30345W        W 1961  36.494  39.023   1.822
30346W        W 1962  24.528  26.955   0.044
30347W        W 1963   1.731  30.948  11.151
30348W        W 1964  35.421  15.356  12.038
30349W        W 1965   2.347  23.572  11.434
30350W        W 1966  19.857  15.545  14.985
30351W        W 1967  10.095  43.704  13.407
30352W        W 1968  38.724  35.665   4.276
30353W        W 1969   6.676  42.502   3.725
30354W        W 1970  17.613   3.799   3.715
30355W        W 1971  38.832   0.878   4.094
30356W        W 1972   7.189  26.914  13.351
30357W        W 1973  21.149  15.306  13.486
30358W        W 1974   8.605   5.427  12.575
30359W        W 1975  29.464  17.512   2.793
30360W        W 1976  29.922   2.845   4.657
30361W        W 1977   1.848   1.899   2.196
30362W        W 1978  43.868  24.142  11.951
30363W        W 1979  30.972  28.094  13.346
30364W        W 1980  10.345  30.653  11.636
30365W        W 1981  15.845   6.941  12.402
30366W        W 1982  38.291  12.893   2.195
30367W        W 1983  37.930  16.516  10.995
30368W        W 1984  35.541   8.428  11.027
30369W        W 1985  40.271  12.628   3.707
30370W        W 1986  31.613  20.518  11.268
30371W        W 1987  10.298  32.429  13.826
30372W        W 1988  15.015   2.254   2.583
30373W        W 1989   3.853  37.044   4.636
30374W        W 1990  16.513  33.045  13.128
30375W        W 1991   3.003  20.084   1.176
30376W        W 1992  34.768  11.294   2.406
30377W        W 1993  42.797   0.769  12.110
30378W        W 1994  32.602  43.362   3.713
30379W        W 1995  19.144  14.023  12.517
30380W        W 1996  24.089  39.627   2.164
30381W        W 1997  11.173  19.681   2.345
30382W        W 1998  33.087   7.388   0.876
30383W        W 1999  10.270  37.890  12.939
30384W        W 2000  26.515  24.182  11.596
30385W        W 2001  22.158  19.388   1.762
30386W        W 2002   7.422  38.315   0.909
30387W        W 2003  41.019  10.977  14.302
30388W        W 2004  30.135  23.301  14.036
30389W        W 2005   2.679  14.124   2.419
30390W        W 2006  21.174   6.115  14.544
30391W        W 2007  15.705  43.172  11.202
30392W        W 2008  25.569  35.434  11.816
30393W        W 2009  15.288   9.693  13.407
30394W        W 2010  15.278   3.136   2.819
30395W        W 2011   9.047  14.025  11.899
30396W        W 2012   4.321  34.664  12.736
30397W        W 2013  17.646  23.197  10.458
30398W        W 2014   7.081  11.309   3.337
30399W        W 2015  30.345  35.404   3.902
30400W        W 2016  25.226  43.853   1.165
30401W        W 2017  29.440  22.548  12.235
30402W        W 2018  40.568  10.686  12.931
30403W        W 2019   8.762  43.013  14.504
30404W        W 2020   7.083  37.440  12.152
30405W        W 2021  33.322  21.814  13.385
30406W        W 2022  10.427  42.011   2.240
30407W        W 2023  22.839  16.761   0.799
30408W        W 2024   2.172  39.284   0.255
30409W        W 2025   6.994   9.760   3.854
30410W        W 2026  13.730  31.998  12.425
30411W        W 2027  14.532   2.733  11.661
30412W        W 2028  24.671   7.535   4.201
30413W        W 2029   1.747  28.187  10.738
30414W        W 2030  36.024  11.763   2.066
30415W        W 2031  39.570   8.694   2.269
30416W        W 2032   0.960  40.956   0.239
30417W        W 2033   9.626  32.859   2.283
30418W        W 2034  28.133  22.505  12.890
30419W        W 2035   0.757  43.978  12.412
30420W        W 2036  24.089  21.794  14.037
30421W        W 2037   5.901  35.365  12.479
30422W        W 2038  15.764  39.022  13.784
30423W        W 2039  11.940  33.647  13.808
30424W        W 2040  24.758   9.766   0.911
30425W        W 2041   5.262   1.309   4.017
30426W        W 2042  34.170  33.057  13.722
30427W        W 2043  41.627  20.591  14.594
30428W        W 2044  35.006  25.665   3.271
30429W        W 2045  29.723  15.778  10.477
30430W        W 2046  43.927  34.142  10.589
30431W        W 2047  44.366  24.020   2.925
30432W        W 2048  37.762  20.073   4.461
30433W        W 2049  41.567  20.291  12.498
30434W        W 2050  30.924  34.318  11.072
30435W        W 2051   4.655  27.615   0.550
30436W        W 2052  42.558  27.029   1.455
30437W        W 2053  42.564  16.819   0.813
30438W        W 2054   3.002   4.683   1.681
30439W        W 2055  29.699  41.593  11.719
30440W        W 2056  14.281   1.288  13.494
30441W        W 2057  33.234  15.270   4.883
30442W        W 2058  17.535  30.468  11.167
30443W        W 2059  31.433  32.953   0.252
30444W        W 2060  34.222  27.762   2.159
30445W        W 2061  22.978  21.226  12.211
30446W        W 2062   5.003  17.236   4.868
30447W        W 2063  36.969  40.331  13.079
30448W        W 2064  33.446  42.586   2.718
30449W        W 2065  42.970  21.073   2.283
30450W        W 2066  33.716   6.401  12.959
30451W        W 2067  26.722  40.270   1.780
30452W        W 2068   2.059  43.071   1.276
30453W        W 2069   5.931  27.043  11.196
30454W        W 2070  42.496   0.741   1.883
30455W        W 2071  19.518  11.889   1.322
30456W        W 2072  27.751  36.771  11.983
30457W        W 2073  17.673  34.148   3.362
30458W        W 2074   4.271  35.339   0.961
30459W        W 2075  38.881  24.943   3.360
30460W        W 2076  16.857  40.260   3.293
30461W        W 2077  37.504  19.199   4.359
30462W        W 2078  40.788  23.119   1.783
30463W        W 2079  11.305  20.122  11.379
30464W        W 2080  16.539   0.264   2.383
30465W        W 2081  30.506  11.334   3.133
30466W        W 2082  37.406  20.963   2.358
30467W        W 2083  38.086  28.564  10.589
30468W        W 2084  33.595  31.668  14.819
30469W        W 2085  39.758   0.974  13.813
30470W        W 2086  10.681  19.624  13.906
30471W        W 2087  41.234  19.591   0.213
30472W        W 2088  38.474  32.528   1.174
30473W        W 2089  32.183   1.877   2.790
30474W        W 2090  17.071   9.603  13.590
30475W        W 2091  22.160  20.672   4.112
30476W        W 2092  31.038  24.107  13.939
30477W        W 2093   7.834  26.060  14.524
30478W        W 2094  33.972  13.896  14.859
30479W        W 2095  17.516   9.373  11.711
30480W        W 2096  28.254  29.693   0.456
30481W        W 2097  10.175  11.210  14.078
30482W        W 2098  38.858  24.793  10.316
30483W        W 2099   7.844  20.697   0.973
30484W        W 2100  39.486   7.541   2.654
30485W        W 2101  38.490   6.660   0.956
30486W        W 2102   5.802   3.264   4.214
30487W        W 2103  32.891  26.296  11.912
30488W        W 2104  42.539  37.982  10.220
30489W        W 2105  17.722   0.085   5.412
30490W        W 2106  39.396  20.052  13.365
30491W        W 2107  33.171  40.979  12.057
30492W        W 2108  16.272  44.639   3.200
30493W        W 2109  13.488   3.031  14.311
30494W        W 2110   1.533  22.082   3.109
30495W        W 2111  23.859  31.923  11.437
30496W        W 2112   7.628   7.369  12.011
30497W        W 2113  44.978   7.413   4.105
30498W        W 2114   3.915  12.295   4.700
30499W        W 2115  24.763   2.030  14.298
30500W        W 2116  32.663  38.073  14.943
30501W        W 2117  11.597   4.753   4.021
30502W        W 2118  35.149  29.017   3.328
30503W        W 2119  11.564  32.506  14.251
30504W        W 2120  15.482  36.220  10.348
30505W        W 2121  35.997  35.808   3.744
30506W        W 2122  38.659  29.396   1.956
30507W        W 2123  37.614  19.512  14.800
30508W        W 2124   0.760  23.773   2.457
30509W        W 2125  14.333  40.793   2.694
30510W        W 2126  36.650   6.378   2.222
30511W        W 2127  24.952  27.335  13.001
30512W        W 2128  15.415   7.787   3.619
30513W        W 2129  24.555  32.652  10.598
30514W        W 2130  34.459   4.242   1.678
30515W        W 2131   8.690   1.858  13.319
30516W        W 2132  35.892  12.722   5.192
30517W        W 2133  24.090   5.205   3.436
30518W        W 2134  27.113  11.330   2.842
30519W        W 2135  40.942  42.049   0.135
30520W        W 2136  13.857  13.243  12.424
30521W        W 2137  39.147  34.846   2.643
30522W        W 2138  13.005  20.508  11.003
30523W        W 2139  27.596   7.672  11.596
30524W        W 2140  33.610   7.709   3.792
30525W        W 2141  16.150  18.767  14.881
30526W        W 2142  40.819  31.102   1.229
30527W        W 2143  34.621  30.601  12.515
30528W        W 2144  37.629  33.001   9.914
30529W        W 2145  23.458   2.518  13.471
30530W        W 2146  22.295  23.617  14.335
30531W        W 2147  20.785  21.562   2.303
30532W        W 2148  33.047  30.664   2.839
30533W        W 2149  10.146   3.798   2.983
30534W        W 2150  15.152  31.343  11.950
30535W        W 2151  32.059  43.412  10.223
30536W        W 2152  11.022  25.040   4.003
30537W        W 2153  32.727   4.687   3.278
30538W        W 2154   1.440  15.709   2.411
30539W        W 2155  28.187   8.833  14.405
30540W        W 2156  40.460  17.662  13.864
30541W        W 2157  13.634  41.958  11.581
30542W        W 2158  39.475  27.234   3.289
30543W        W 2159  37.488  16.629  14.937
30544W        W 2160  17.850  38.769   3.348
30545W        W 2161  30.645  23.664  11.974
30546W        W 2162  19.046  33.023  12.609
30547W        W 2163  33.577   5.842  10.639
30548W        W 2164  26.702   4.175   1.319
30549W        W 2165  11.344  14.696   2.621
30550W        W 2166  17.612  41.013  12.362
30551W        W 2167  44.742   9.714  13.744
30552W        W 2168   5.954   3.267   1.822
30553W        W 2169  32.439   2.446  14.800
30554W        W 2170  34.569  28.020   4.645
30555W        W 2171   3.927  39.487   1.806
30556W        W 2172  16.191  42.866  12.106
30557W        W 2173  17.661   7.819  12.526
30558W        W 2174   5.280  44.472   0.918
30559W        W 2175  37.784  10.418   4.979
30560W        W 2176  12.797  35.593   1.009
30561W        W 2177   4.182  11.148   1.341
30562W        W 2178  43.975  40.000  12.374
30563W        W 2179   7.819   3.937   1.884
30564W        W 2180  22.188  35.319   1.648
30565W        W 2181  29.106  22.204  13.212
30566W        W 2182  12.262  44.151  14.005
30567W        W 2183  44.851  10.673  13.988
30568W        W 2184  30.017  12.605  11.628
30569W        W 2185  38.062  21.148  12.943
30570W        W 2186  14.094  32.435  12.013
30571W        W 2187   7.232  37.425   5.000
30572W        W 2188  33.278  43.578  11.614
30573W        W 2189   6.394  14.707   3.178
30574W        W 2190  27.592  31.460  13.797
30575W        W 2191  33.032  16.532   0.801
30576W        W 2192  14.211  12.065   1.287
30577W        W 2193  17.180  44.864   2.813
30578W        W 2194  24.026   6.310  11.142
30579W        W 2195  33.967  40.144  12.834
30580W        W 2196  44.539  28.579   4.272
30581W        W 2197  20.767  29.480   1.863
30582W        W 2198   6.643   8.833  12.908
30583W        W 2199  32.466  25.179  10.343
30584W        W 2200   4.399  27.628   2.307
30585W        W 2201  11.243   0.010  13.535
30586W        W 2202  18.727   6.913  14.731
30587W        W 2203  20.267   8.636  11.135
30588W        W 2204   5.436  26.535   4.732
30589W        W 2205  32.583  18.599  11.021
30590W        W 2206  25.169  39.544  11.495
30591W        W 2207   6.425  27.499   3.786
30592W        W 2208  32.835  30.450  11.723
30593W        W 2209  31.133  42.095  11.078
30594W        W 2210   7.165   0.889  13.372
30595W        W 2211  18.427   7.144  13.331
30596W        W 2212  30.240  23.003   2.725
30597W        W 2213   9.309  15.178   4.708
30598W        W 2214  25.955   0.292  13.529
30599W        W 2215  27.642  41.667  14.008
30600W        W 2216  40.478  28.623  13.941
30601W        W 2217  26.647  28.469   4.841
30602W        W 2218   9.187   8.686   1.785
30603W        W 2219  11.684  41.463   0.019
30604W        W 2220  42.797  30.953  13.956
30605W        W 2221  42.564  30.505   4.037
30606W        W 2222  41.574   9.133   0.128
30607W        W 2223  17.302   5.828   1.534
30608W        W 2224  14.634   3.966   5.500
30609W        W 2225  23.415  21.148   0.371
30610W        W 2226  22.993   4.845   4.710
30611W        W 2227  33.017  36.907  10.668
30612W        W 2228  43.847  40.579   4.774
30613W        W 2229  17.606  32.710   1.227
30614W        W 2230  40.203  24.108  10.641
30615W        W 2231  18.718  24.000   0.223
30616W        W 2232  42.279  33.452  12.556
30617W        W 2233  21.104   6.671   0.414
30618W        W 2234  10.005  41.713   1.228
30619W        W 2235  32.834  38.426  11.993
30620W        W 2236  19.221  15.010   3.363
30621W        W 2237  12.714  25.987  13.131
30622W        W 2238  14.214  34.832   0.506
30623W        W 2239   1.122  32.621  14.298
30624W        W 2240  37.075  40.429   1.045
30625W        W 2241  38.931   9.689  11.095
30626W        W 2242  42.047  34.157  14.004
30627W        W 2243   9.281  40.430  12.604
30628W        W 2244  32.342  30.077   0.784
30629W        W 2245  24.745   8.365   0.963
30630W        W 2246   0.696  17.760  13.619
30631W        W 2247  17.783   4.288   2.287
30632W        W 2248  42.221  18.413   2.742
30633W        W 2249   2.800  18.316   2.733
30634W        W 2250  35.729  31.648   3.652
30635W        W 2251   1.096  33.950   0.429
30636W        W 2252  16.590  35.998   3.343
30637W        W 2253  37.004   7.017  14.829
30638W        W 2254   9.172   2.325   4.632
30639W        W 2255  28.203  11.362  13.360
30640W        W 2256   2.292  12.741   4.495
30641W        W 2257   4.048  26.954   0.969
30642W        W 2258   9.372   2.757   3.896
30643W        W 2259  34.374   5.907  14.078
30644W        W 2260   0.414  24.311  13.923
30645W        W 2261  25.005  40.492  11.074
30646W        W 2262  31.207   8.238  12.424
30647W        W 2263  38.357  23.572   2.864
30648W        W 2264  36.611  15.420   1.461
30649W        W 2265  17.799  32.672  12.426
30650W        W 2266  36.100  23.324   3.395
30651W        W 2267  12.483   1.932   4.144
30652W        W 2268  36.611   1.308   4.727
30653W        W 2269  23.999   1.419   1.231
30654W        W 2270  38.120  11.235  12.353
30655W        W 2271  21.003  20.345  14.242
30656W        W 2272  14.102  42.886  14.554
30657W        W 2273   3.023  19.706  11.559
30658W        W 2274  26.336   3.652  13.429
30659W        W 2275  30.272  34.833   1.815
30660W        W 2276  41.464  30.000   4.538
30661W        W 2277   7.467  20.932   1.703
30662W        W 2278  11.857   7.637   0.242
30663W        W 2279  34.332  44.142   3.742
30664W        W 2280  42.274  30.968  10.527
30665W        W 2281   0.308  10.009  13.130
30666W        W 2282  27.930   4.470  10.416
30667W        W 2283  27.497  31.373   1.220
30668W        W 2284  26.205  41.626  14.146
30669W        W 2285  38.833  12.193  12.889
30670W        W 2286   9.231   3.257  13.396
30671W        W 2287  25.213  35.005  13.243
30672W        W 2288  23.606  10.632  13.469
30673W        W 2289  21.657  29.413  11.766
30674W        W 2290  14.826  36.079  14.324
30675W        W 2291  30.528  27.100   3.297
30676W        W 2292  20.639   8.467  14.080
30677W        W 2293  41.499   6.239  11.523
30678W        W 2294  17.380  37.945   1.745
30679W        W 2295  19.467  22.497   3.199
30680W        W 2296  22.490   8.802   2.181
30681W        W 2297  26.485  28.684   0.296
30682W        W 2298  34.474  39.004   1.644
30683W        W 2299   5.334   8.425  10.544
30684W        W 2300   9.629  29.427   2.050
30685W        W 2301  18.095  12.741  14.755
30686W        W 2302   4.141   3.258  12.939
30687W        W 2303   7.209  14.776  13.519
30688W        W 2304  29.584  12.032   2.001
30689W        W 2305  42.441  32.884  13.084
30690W        W 2306  38.216   7.246   4.656
30691W        W 2307  23.599  10.098   1.839
30692W        W 2308   5.470  10.006  11.050
30693W        W 2309  16.628  18.246  13.344
30694W        W 2310  35.072  42.495   0.444
30695W        W 2311   0.928  41.765  10.694
30696W        W 2312   4.888  23.895   1.312
30697W        W 2313   3.174  24.114  12.372
30698W        W 2314  44.727  14.089  14.360
30699W        W 2315  15.533  18.797  11.596
30700W        W 2316   6.269  13.280   3.672
30701W        W 2317  31.987   5.630  10.970
30702W        W 2318  43.322  12.787  13.287
30703W        W 2319  23.394  40.496   1.928
30704W        W 2320  39.733  20.109   2.728
30705W        W 2321  36.523  13.224   2.002
30706W        W 2322  22.325  43.826   2.166
30707W        W 2323   1.555  19.435   3.720
30708W        W 2324  24.206  11.412  12.039
30709W        W 2325  29.020   5.421  11.120
30710W        W 2326  26.148  15.059  10.566
30711W        W 2327  16.044  30.756  11.200
30712W        W 2328  26.108  42.316   2.651
30713W        W 2329  12.085  42.802  12.952
30714W        W 2330  26.618  36.508  14.482
30715W        W 2331  34.620  12.047   3.177
30716W        W 2332  44.380  33.622  11.928
30717W        W 2333   2.224  18.023   0.358
30718W        W 2334   6.820  20.776  14.299
30719W        W 2335  15.251  41.962   2.983
30720W        W 2336   8.677  23.433   1.338
30721W        W 2337  18.971   2.019  11.619
30722W        W 2338  17.079  29.920  12.572
30723W        W 2339   6.797  15.976   0.012
30724W        W 2340   9.269  22.471  11.101
30725W        W 2341  32.624  38.277  14.198
30726W        W 2342   7.314  27.241   1.370
30727W        W 2343   3.272  36.772   1.269
30728W        W 2344   4.350  24.689   1.362
30729W        W 2345   6.492   7.360   4.639
30730W        W 2346  30.659  14.606   0.905
30731W        W 2347   1.411  20.568  11.532
30732W        W 2348  16.119  38.544   0.467
30733W        W 2349  24.084  42.547   0.726
30734W        W 2350  25.104  16.672  14.448
30735W        W 2351  30.594  14.282  14.935
30736W        W 2352  35.163  18.733   3.176
30737W        W 2353   6.190  31.480   4.201
30738W        W 2354  28.690   6.795   0.886
30739W        W 2355  41.608  38.315  12.684
30740W        W 2356  44.464  28.451   2.343
30741W        W 2357  17.677  36.295  12.951
30742W        W 2358  44.316  19.111  12.951
30743W        W 2359  25.031  30.923   3.425
30744W        W 2360  20.073  44.095   3.434
30745W        W 2361  30.667  30.746   4.618
30746W        W 2362  43.008  44.000   2.689
30747W        W 2363  15.094  35.642   0.061
30748W        W 2364  21.729  25.390   2.276
30749W        W 2365  37.855  21.539  12.134
30750W        W 2366   7.861   2.513  10.705
30751W        W 2367  16.643  34.174  13.628
30752W        W 2368  43.288  20.248  14.283
30753W        W 2369  29.709   0.905   2.318
30754W        W 2370   0.990  34.919  11.164
30755W        W 2371  37.065  17.085   1.389
30756W        W 2372  36.406  32.583  11.979
30757W        W 2373   8.457   0.080  10.757
30758W        W 2374  35.452  40.556  14.879
30759W        W 2375  38.506   3.733   2.319
30760W        W 2376  22.168  35.656   3.116
30761W        W 2377  25.582  26.159   0.264
30762W        W 2378  24.148  29.363  14.293
30763W        W 2379  28.830  19.997   1.796
30764W        W 2380  15.219  42.830   1.219
30765W        W 2381  29.944   2.950   3.084
30766W        W 2382  31.442  15.335  14.848
30767W        W 2383  29.216  37.474  12.479
30768W        W 2384  17.713  38.042   0.635
30769W        W 2385  37.105  44.230   4.513
30770W        W 2386  34.529  13.259   3.653
30771W        W 2387  31.336  10.339   0.953
30772W        W 2388  42.538  11.705  10.784
30773W        W 2389  30.998  19.644   2.644
30774W        W 2390  33.635  38.388   1.210
30775W        W 2391   1.127  30.925   1.348
30776W        W 2392   6.342  17.249  10.573
30777W        W 2393  35.483  29.973   0.332
30778W        W 2394  32.897   7.770   1.847
30779W        W 2395  39.387  42.504  12.567
30780W        W 2396  41.509   5.445  11.064
30781W        W 2397  20.667  34.699  12.522
30782W        W 2398  10.198  44.944  10.473
30783W        W 2399   8.885  40.746  13.038
30784W        W 2400  23.420   7.161   0.751
30785W        W 2401  34.099   3.478   2.303
30786W        W 2402  39.057  27.577   0.510
30787W        W 2403  40.383  31.965  12.885
30788W        W 2404  10.712  44.779   4.593
30789W        W 2405  38.361  27.167  10.794
30790W        W 2406  44.470  25.983   1.779
30791W        W 2407  32.372   7.258  10.061
30792W        W 2408  28.860   0.279   0.575
30793W        W 2409   9.902  10.827  14.878
30794W        W 2410  44.935  33.965   3.073
30795W        W 2411   9.142  43.327  11.590
30796W        W 2412   0.746  13.532  11.548
30797W        W 2413   5.474  40.587  13.555
30798W        W 2414  17.438  14.306  12.599
30799W        W 2415   9.514   7.626   4.682
30800W        W 2416  19.732  20.661   2.085
30801W        W 2417  23.300  13.248   1.813
30802W        W 2418  41.466  27.448   2.213
30803W        W 2419  37.163  44.426   0.886
30804W        W 2420  18.286  21.285  12.947
30805W        W 2421  33.549  34.112  11.440
30806W        W 2422  13.569  15.634   5.020
30807W        W 2423  44.735  38.516   2.788
30808W        W 2424  12.635  33.895   3.842
30809W        W 2425   5.369  43.316  10.276
30810W        W 2426  21.168  35.060  12.148
30811W        W 2427  10.921  36.995   0.264
30812W        W 2428  14.713   4.362   4.420
30813W        W 2429  20.661   9.189   4.720
30814W        W 2430  17.866   3.364   3.143
30815W        W 2431  37.300  28.697   0.282
30816W        W 2432  23.109  31.208  11.187
30817W        W 2433  33.075  33.163  11.973
30818W        W 2434  31.936  44.769  11.846
30819W        W 2435  31.220   5.369  10.559
30820W        W 2436  23.618  32.134  13.462
30821W        W 2437  28.967  31.521  10.834
30822W        W 2438   5.243  42.423   2.319
30823W        W 2439  23.333  12.638   4.675
30824W        W 2440   3.891  27.011   2.639
30825W        W 2441  38.517   3.230   2.247
30826W        W 2442  12.590  19.147  14.786
30827W        W 2443   7.627  32.489  14.021
30828W        W 2444  24.689  33.008   3.168
30829W        W 2445  15.705  29.726   3.726
30830W        W 2446  29.474  30.120   4.247
30831W        W 2447  26.726  38.924  13.937
30832W        W 2448   6.965   6.826   0.422
30833W        W 2449  13.677  27.688  13.883
30834W        W 2450  32.613  12.833  11.535
30835W        W 2451  37.930   8.658  11.488
30836W        W 2452  36.078  26.179   0.435
30837W        W 2453  43.729  37.642  13.914
30838W        W 2454  21.267  22.122   3.470
30839W        W 2455  10.091  32.899  14.948
30840W        W 2456   6.516   8.890   1.419
30841W        W 2457  38.815  31.591   1.911
30842W        W 2458  14.047  17.198  14.969
30843W        W 2459   6.857  16.881   3.316
30844W        W 2460  23.986  26.952  12.430
30845W        W 2461  10.861  37.674   2.198
30846W        W 2462  36.946  26.996  12.118
30847W        W 2463  24.670  20.866   2.619
30848W        W 2464  43.389  23.186  12.690
30849W        W 2465  40.848  35.029  12.112
30850W        W 2466  25.359   6.128  12.007
30851W        W 2467  43.373  22.978  10.536
30852W        W 2468  12.332  38.932   0.748
30853W        W 2469  35.864  40.817   4.575
30854W        W 2470  24.937  14.182  11.057
30855W        W 2471  39.935  33.692  13.264
30856W        W 2472  37.902  12.181  13.274
30857W        W 2473   1.827  23.534   0.961
30858W        W 2474   4.964  30.628   1.302
30859W        W 2475  17.640   7.867  13.505
30860W        W 2476   7.682   9.170  12.894
30861W        W 2477  21.267  38.412  10.921
30862W        W 2478  14.319  29.805   3.703
30863W        W 2479   4.417  32.117  12.424
30864W        W 2480  33.083   8.594  10.658
30865W        W 2481  38.728  40.296   3.248
30866W        W 2482  11.575   5.328   4.224
30867W        W 2483  30.005  27.267   5.396
30868W        W 2484  28.962  25.180   3.661
30869W        W 2485  34.350   8.354  14.900
30870W        W 2486  10.909   2.994   0.132
30871W        W 2487  25.020   0.021  14.318
30872W        W 2488  20.998  39.499  13.369
30873W        W 2489  27.002  25.771   4.843
30874W        W 2490  29.568   8.876   3.066
30875W        W 2491  20.957  22.682   1.730
30876W        W 2492  15.239  35.955   4.936
30877W        W 2493  36.844  41.307   1.593
30878W        W 2494  18.695  26.515  10.686
30879W        W 2495  14.525  15.295  11.946
30880W        W 2496   3.804  28.111  10.059
30881W        W 2497  10.316  11.303  14.581
30882W        W 2498  41.755  29.442   4.543
30883W        W 2499  32.509  38.015   3.910
30884W        W 2500  26.105   8.442  12.459
30885W        W 2501  14.282  35.823   0.410
30886W        W 2502   0.671  11.538  11.460
30887W        W 2503   2.520  27.242  14.854
30888W        W 2504   2.452  34.795  14.999
30889W        W 2505  43.337  35.924   9.935
30890W        W 2506  15.669  24.248  11.983
30891W        W 2507  24.561  19.476  13.382
30892W        W 2508  20.600  40.263   0.841
30893W        W 2509  44.498  16.510  14.328
30894W        W 2510  17.986  21.703  12.278
30895W        W 2511   2.990  22.370   4.627
30896W        W 2512  28.855  10.786   1.886
30897W        W 2513  21.977  32.826   2.224
30898W        W 2514  16.253  40.044   4.523
30899W        W 2515  18.652  23.161  12.078
30900W        W 2516   7.288  12.016   4.454
30901W        W 2517  44.244   8.117   4.125
30902W        W 2518  11.195  38.186  13.568
30903W        W 2519   0.465  12.497  14.012
30904W        W 2520  16.049  42.331   0.405
30905W        W 2521  34.256  31.431  11.174
30906W        W 2522  18.315   5.682   0.013
30907W        W 2523  23.612   5.684   2.693
30908W        W 2524   5.448  19.614   1.889
30909W        W 2525   4.147  35.094  12.938
30910W        W 2526  28.795  15.575   0.126
30911W        W 2527  12.829  27.995  13.860
30912W        W 2528   3.432  44.785  13.070
30913W        W 2529  26.713  33.149   4.064
30914W        W 2530   3.411  44.430  10.955
30915W        W 2531  29.988  11.313   1.438
30916W        W 2532  27.045  35.415   4.218
30917W        W 2533  38.233  20.594   0.460
30918W        W 2534  10.520  25.321   3.653
30919W        W 2535  43.487   9.668  14.836
30920W        W 2536  34.043  19.959  12.530
30921W        W 2537  10.746  20.946  10.697
30922W        W 2538  39.910  44.688  14.000
30923W        W 2539  26.492   8.258   1.954
30924W        W 2540   2.269  30.115  11.471
30925W        W 2541  30.389  33.138   4.550
30926W        W 2542  38.364   6.279  11.653
30927W        W 2543  33.085  37.960   1.237
30928W        W 2544  32.424  25.011   4.031
30929W        W 2545  21.692  37.443   1.293
30930W        W 2546  31.117  18.814  13.329
30931W        W 2547  22.064  16.653  12.903
30932W        W 2548  39.109  28.198   2.313
30933W        W 2549   5.971  43.315   0.182
30934W        W 2550  15.103  15.076   5.612
30935W        W 2551   7.554  37.000   0.101
30936W        W 2552   8.828   3.982   4.155
30937W        W 2553  31.428  18.107  13.917
30938W        W 2554  26.352  27.357  12.815
30939W        W 2555  38.737  27.608  13.026
30940W        W 2556  12.824  23.013  14.857
30941W        W 2557  21.288  12.669   4.159
30942W        W 2558  27.691   3.938   2.915
30943W        W 2559  12.471  36.304  12.801
30944W        W 2560   9.366  38.791  12.003
30945W        W 2561  14.280  33.616  12.630
30946W        W 2562   4.961  19.770  11.144
30947W        W 2563   5.099   7.231  13.914
30948W        W 2564  23.444  13.123  10.880
30949W        W 2565  23.111  11.624  10.359
30950W        W 2566  31.894  12.839   0.865
30951W        W 2567  37.604  23.514   4.713
30952W        W 2568  33.965   7.600  13.315
30953W        W 2569  38.805  12.201   4.331
30954W        W 2570  21.790  24.130   4.067
30955W        W 2571  16.501  26.218  11.115
30956W        W 2572  35.868  38.394  14.797
30957W        W 2573   6.445  23.572   0.398
30958W        W 2574  17.426  12.874   1.298
30959W        W 2575  14.963  26.093   2.266
30960W        W 2576  34.642  16.757  13.751
30961W        W 2577   0.889  37.474  12.103
30962W        W 2578  26.597  21.986   2.704
30963W        W 2579  17.806  16.265   3.238
30964W        W 2580  34.146   7.231  11.115
30965W        W 2581   0.250   6.676   4.827
30966W        W 2582  33.192  15.713   1.432
30967W        W 2583  26.019  25.224   0.470
30968W        W 2584  28.501   7.868   1.745
30969W        W 2585  10.339  18.300  12.984
30970W        W 2586  42.745  37.112  10.840
30971W        W 2587  21.096  28.234  12.159
30972W        W 2588  37.533  31.123   1.042
30973W        W 2589  11.278  30.569  12.129
30974W        W 2590  43.901   7.492   1.792
30975W        W 2591  28.991  26.617  14.586
30976W        W 2592  13.295  42.215   4.536
30977W        W 2593   2.332   6.800   1.752
30978W        W 2594   5.483  15.292   0.948
30979W        W 2595   3.200  27.914   4.210
30980W        W 2596  23.270  12.273  12.100
30981W        W 2597  18.073  15.083  12.448
30982W        W 2598  10.251  24.409   1.354
30983W        W 2599  25.728  38.005  12.816
30984W        W 2600  43.685  18.343  11.615
30985W        W 2601  44.033  34.424   5.142
30986W        W 2602  15.591  38.544  12.101
30987W        W 2603  12.748  35.898   1.450
30988W        W 2604   1.413  30.610  11.407
30989W        W 2605  40.991  36.636   3.775
30990W        W 2606  42.972  35.730  10.903
30991W        W 2607  23.515  37.898   0.410
30992W        W 2608  40.790  43.347   3.838
30993W        W 2609  30.578  40.458  13.849
30994W        W 2610   1.241  21.767   4.124
30995W        W 2611  31.940  40.661   2.674
30996W        W 2612  37.416  17.171  14.095
30997W        W 2613   7.373  41.211   0.279
30998W        W 2614  18.117   2.301  10.742
30999W        W 2615  32.554  36.620  14.976
31000W        W 2616  39.545  44.426  11.903
31001W        W 2617  37.880  16.054   0.416
31002W        W 2618  44.973  38.626   5.423
31003W        W 2619  19.488  22.201   2.468
31004W        W 2620  18.111  23.736   3.231
31005W        W 2621  26.461   2.644  11.746
31006W        W 2622  29.096  35.575  11.088
31007W        W 2623   4.866  20.568  12.357
31008W        W 2624  40.975  28.110  14.934
31009W        W 2625  16.061  37.800  13.873
31010W        W 2626   4.295   9.430  14.967
31011W        W 2627  34.909   2.967   1.911
31012W        W 2628  22.514  43.455  11.096
31013W        W 2629  30.419  33.430  12.971
31014W        W 2630  13.655  20.888  10.698
31015W        W 2631  35.487  37.097   3.782
31016W        W 2632   6.444   9.129   4.363
31017W        W 2633  35.989   9.367   1.678
31018W        W 2634   3.320  27.376   3.155
31019W        W 2635   0.864  13.187   2.943
31020W        W 2636  20.997  11.357   0.800
31021W        W 2637  19.754  15.864  11.994
31022W        W 2638   6.763   2.965   2.786
31023W        W 2639  36.170  36.786  12.014
31024W        W 2640  41.948   9.266  14.778
31025W        W 2641  22.510  24.096  10.958
31026W        W 2642  43.757  27.883   1.883
31027W        W 2643  32.422  34.532  13.023
31028W        W 2644  43.860  44.761  14.319
31029W        W 2645  13.785   2.447   0.548
31030W        W 2646  22.313  11.632   3.824
31031W        W 2647  32.675  34.905  12.768
31032W        W 2648  42.051  39.409   3.738
31033W        W 2649  36.811  37.980  13.469
31034W        W 2650  21.782  34.880  12.060
31035W        W 2651  36.604  10.731   1.243
31036W        W 2652  40.363  28.528   1.451
31037W        W 2653  20.698  16.299   4.416
31038W        W 2654  16.646  11.648  14.751
31039W        W 2655  36.159   7.936   3.265
31040W        W 2656  10.621  22.284   0.397
31041W        W 2657  33.699  14.390   3.620
31042W        W 2658   8.718   2.318  14.832
31043W        W 2659  33.573  40.781   4.381
31044W        W 2660   6.731  22.710  12.133
31045W        W 2661  26.441  30.313  12.913
31046W        W 2662  13.450  35.916   2.497
31047W        W 2663  41.395   9.079  11.121
31048W        W 2664  11.837  11.883   3.663
31049W        W 2665  28.867  30.071  14.961
31050W        W 2666  26.527   6.706   3.543
31051W        W 2667  16.946  11.793   3.610
31052W        W 2668  27.119  37.820  13.077
31053W        W 2669  19.327  41.326  13.384
31054W        W 2670  21.645  15.579  11.110
31055W        W 2671  28.276  12.943  11.217
31056W        W 2672  17.313   8.458   4.855
31057W        W 2673   1.373  35.529   4.104
31058W        W 2674  19.588  44.734  10.962
31059W        W 2675  20.778   9.236   1.655
31060W        W 2676  24.269   2.783   2.632
31061W        W 2677   5.604  34.811   9.988
31062W        W 2678  34.844  13.162   2.384
31063W        W 2679   3.487  30.355  14.907
31064W        W 2680  39.996  10.490  14.540
31065W        W 2681  18.026  19.217  13.972
31066W        W 2682  32.260   9.792  11.490
31067W        W 2683  21.184  31.573   2.298
31068W        W 2684  23.626   8.297  13.815
31069W        W 2685  19.034  13.147   4.189
31070W        W 2686   4.479  43.312  10.196
31071W        W 2687  18.621  31.305  14.700
31072W        W 2688  43.138  27.454  11.112
31073W        W 2689  28.311  38.882  13.055
31074W        W 2690  28.432  17.774  14.312
31075W        W 2691  32.012  14.588   4.038
31076W        W 2692  42.068  23.509   4.929
31077W        W 2693  33.052  30.757  10.999
31078W        W 2694  37.054  40.429   0.538
31079W        W 2695  15.302  20.026   2.817
31080W        W 2696  34.644  39.259  14.956
31081W        W 2697  17.114  23.155  10.540
31082W        W 2698  16.710  15.516   5.006
31083W        W 2699  21.627  37.975  11.649
31084W        W 2700  37.473  11.145  12.066
31085W        W 2701   3.532  20.598  11.407
31086W        W 2702  42.064   3.338   3.710
31087W        W 2703  19.148  11.409   0.770
31088W        W 2704  29.526   4.201   3.354
31089W        W 2705   7.338  41.563  11.549
31090W        W 2706  32.879  39.425   4.108
31091W        W 2707  13.491  22.672   1.283
31092W        W 2708  25.567  13.844  10.600
31093W        W 2709  34.006   9.361  13.393
31094W        W 2710  32.812  32.571   3.031
31095W        W 2711   0.998  32.625  12.968
31096W        W 2712  21.433  32.076  13.911
31097W        W 2713  22.656  25.207   4.683
31098W        W 2714  35.329   7.828  12.563
31099W        W 2715  15.599   9.141   4.432
31100W        W 2716  37.360  30.357  11.864
31101W        W 2717  33.186   2.961  11.869
31102W        W 2718   8.189   4.295   1.926
31103W        W 2719  11.392  11.145  12.143
31104W        W 2720  20.157  29.638  13.115
31105W        W 2721  20.733  42.701  13.484
31106W        W 2722  12.309  30.892   0.245
31107W        W 2723  32.157   1.399  11.167
31108W        W 2724  38.034  21.203   0.982
31109W        W 2725  13.724  12.395   1.949
31110W        W 2726  39.778  39.892  11.994
31111W        W 2727  31.411   3.934  11.082
31112W        W 2728  18.019  19.780   2.750
31113W        W 2729  12.289  34.832   2.287
31114W        W 2730  36.249  38.469  11.533
31115W        W 2731   9.859  39.659  13.993
31116W        W 2732  40.029   0.070   2.832
31117W        W 2733  25.362   0.452  14.872
31118W        W 2734  23.953  23.180   2.733
31119W        W 2735  44.276  25.478  11.050
31120W        W 2736  12.749  36.140  14.752
31121W        W 2737  38.379  44.384  13.917
31122W        W 2738   2.861  22.963  11.120
31123W        W 2739  35.161  26.381   1.353
31124W        W 2740  15.865  10.731  14.507
31125W        W 2741  15.852  23.213   2.793
31126W        W 2742  21.294  21.165   2.734
31127W        W 2743   9.691  36.113  12.998
31128W        W 2744   0.402  30.545   4.905
31129W        W 2745  28.660  30.809   1.751
31130W        W 2746  13.993  30.869   5.154
31131W        W 2747  41.112  41.573   0.084
31132W        W 2748   8.872   7.384   2.403
31133W        W 2749  39.809   5.424  14.420
31134W        W 2750  19.699  41.454   3.298
31135W        W 2751  39.134   2.009  13.094
31136W        W 2752  11.317  38.641   3.226
31137W        W 2753  41.952  29.015   1.286
31138W        W 2754  20.404  39.288   2.783
31139W        W 2755  12.001  15.286   4.383
31140W        W 2756  23.154  42.804  14.200
31141W        W 2757  25.019  38.100   1.874
31142W        W 2758  37.902   1.287  10.735
31143W        W 2759  36.110  10.441  12.549
31144W        W 2760  20.717  43.515   3.803
31145W        W 2761  27.072  29.137  13.200
31146W        W 2762  42.035  37.859   3.240
31147W        W 2763   0.171  19.589  11.240
31148W        W 2764  32.180  27.838   5.481
31149W        W 2765  36.537   2.812   4.569
31150W        W 2766  38.720  44.730  10.633
31151W        W 2767  28.880  15.289  14.248
31152W        W 2768  15.561   7.670   0.569
31153W        W 2769  41.021  27.140  13.613
31154W        W 2770  39.471   7.178   0.504
31155W        W 2771   8.721  35.560   4.724
31156W        W 2772  37.388  26.722   1.098
31157W        W 2773   0.816   3.761   0.501
31158W        W 2774  14.763  25.154  12.042
31159W        W 2775  15.819  38.930   1.141
31160W        W 2776  40.100  19.762   3.866
31161W        W 2777  19.566  13.857   1.357
31162W        W 2778  10.909  17.249  10.291
31163W        W 2779  36.442  19.548  14.379
31164W        W 2780  14.806  24.549  12.619
31165W        W 2781  23.654  19.055  12.817
31166W        W 2782  31.418   2.233   1.217
31167W        W 2783  22.929  43.372   0.953
31168W        W 2784  31.913  43.521   9.710
31169W        W 2785  40.753  36.966   2.378
31170W        W 2786  37.260  13.016   5.218
31171W        W 2787   5.775  39.788  13.512
31172W        W 2788  41.289   8.502  12.483
31173W        W 2789  16.288  12.084  11.504
31174W        W 2790  17.610  29.226  10.995
31175W        W 2791   7.641  41.001  12.575
31176W        W 2792  32.426  39.496  10.657
31177W        W 2793   5.785  31.878  13.046
31178W        W 2794  15.753  35.852   3.258
31179W        W 2795  44.348  21.777  11.666
31180W        W 2796  24.047  22.670   2.794
31181W        W 2797   0.000  21.598   4.635
31182W        W 2798  43.305  13.762   4.448
31183W        W 2799  11.463  28.644   3.732
31184W        W 2800  17.682  23.434  13.529
31185W        W 2801   9.375  25.599   1.204
31186W        W 2802  31.594  14.276  13.948
31187W        W 2803   0.290   6.160   1.840
31188W        W 2804   0.827  29.556   4.516
31189W        W 2805  14.791   1.247  14.413
31190W        W 2806  38.558  10.900   2.190
31191W        W 2807  40.395  33.706   2.458
31192W        W 2808  43.806  10.113   0.537
31193W        W 2809  29.996  27.374  11.023
31194W        W 2810   6.123   9.474   0.902
31195W        W 2811   6.850  25.514  12.863
31196W        W 2812  31.642  31.733  13.326
31197W        W 2813   4.195  27.151   4.555
31198W        W 2814   8.337  43.479  12.650
31199W        W 2815  10.372  33.541  11.833
31200W        W 2816  33.472  41.160   4.697
31201W        W 2817  39.500  28.614   3.227
31202W        W 2818  41.426   9.600  11.129
31203W        W 2819  33.932  28.162  14.765
31204W        W 2820  15.794  17.171  12.433
31205W        W 2821  32.183  43.387  12.423
31206W        W 2822  26.601   4.183   3.409
31207W        W 2823  36.881   2.290   1.263
31208W        W 2824  20.561  12.303   3.669
31209W        W 2825   3.993  40.939   2.946
31210W        W 2826  20.935  25.579   3.161
31211W        W 2827  18.071  37.947   3.638
31212W        W 2828  27.505  40.027   3.333
31213W        W 2829  31.717  14.157  14.451
31214W        W 2830  39.525  33.427   3.303
31215W        W 2831  38.116   4.348  13.432
31216W        W 2832  42.384  42.979   3.778
31217W        W 2833  16.262  33.829  12.556
31218W        W 2834   0.503   7.584   4.828
31219W        W 2835   8.424  37.111  14.042
31220W        W 2836  29.170   9.194   3.801
31221W        W 2837  27.428  14.953   1.166
31222W        W 2838  16.099  29.348   3.652
31223W        W 2839  24.570   4.967   4.045
31224W        W 2840  22.537  18.802   2.835
31225W        W 2841  31.904   6.901  10.668
31226W        W 2842  10.370   1.841  10.386
31227W        W 2843  32.003  28.463   4.308
31228W        W 2844  18.746   1.049   5.161
31229W        W 2845  34.094   6.703  12.821
31230W        W 2846  20.749  11.124   1.824
31231W        W 2847  22.236  35.326  12.600
31232W        W 2848  25.049  21.654  11.663
31233W        W 2849  31.046  11.675   4.776
31234W        W 2850  44.309  15.054  10.920
31235W        W 2851  27.719  25.778   1.139
31236W        W 2852  34.990  33.469   4.074
31237W        W 2853  42.041  21.610   0.428
31238W        W 2854  12.375   3.679   0.206
31239W        W 2855   4.366  14.649  10.556
31240W        W 2856  36.576   1.963   3.650
31241W        W 2857  22.524  24.985  14.386
31242W        W 2858   0.325  11.448   1.674
31243W        W 2859  20.694  24.124   2.757
31244W        W 2860  17.830  36.603  10.713
31245W        W 2861  18.618   8.866   1.840
31246W        W 2862  38.610  18.517   0.277
31247W        W 2863  22.602   7.196   5.025
31248W        W 2864  11.869   4.420   3.067
31249W        W 2865  26.048  38.058   0.947
31250W        W 2866  24.149  27.069   1.136
31251W        W 2867  30.885  37.433   0.249
31252W        W 2868   6.781  32.552   3.833
31253W        W 2869  43.563  37.854   0.567
31254W        W 2870   6.806  19.838   2.408
31255W        W 2871  12.719  29.637   3.379
31256W        W 2872  37.635  36.061  12.329
31257W        W 2873   0.295  10.927  13.875
31258W        W 2874  25.050  20.411  12.851
31259W        W 2875  41.366   0.764  11.807
31260W        W 2876  26.071  40.380   3.780
31261W        W 2877  30.137   2.485   3.227
31262W        W 2878   0.727  12.199  13.159
31263W        W 2879  10.093  36.990  14.060
31264W        W 2880   0.634  17.790   4.525
31265W        W 2881   6.833  27.039  13.007
31266W        W 2882  42.927  16.293  13.620
31267W        W 2883  18.793  37.301  13.410
31268W        W 2884  26.492  11.555   3.589
31269W        W 2885  10.046  38.109  12.480
31270W        W 2886  27.426  13.120   0.661
31271W        W 2887   9.988   1.150  14.428
31272W        W 2888  23.538  37.515   2.711
31273W        W 2889  27.127  40.330   2.134
31274W        W 2890  34.772   6.408  10.989
31275W        W 2891  11.230  43.051  13.328
31276W        W 2892  17.539   0.439   0.003
31277W        W 2893  38.847  24.233  14.802
31278W        W 2894   9.810  24.964   4.612
31279W        W 2895  43.505  29.793  11.479
31280W        W 2896  11.147  16.542  11.910
31281W        W 2897  32.163  24.535  13.390
31282W        W 2898   5.865  14.689   4.584
31283W        W 2899  29.965   6.684   0.226
31284W        W 2900   2.902   5.554  12.311
31285W        W 2901  17.528  24.949  14.511
31286W        W 2902  43.490  29.532   0.929
31287W        W 2903  17.500   8.216   2.678
31288W        W 2904  29.044  40.622  12.071
31289W        W 2905  14.167  11.157   2.420
31290W        W 2906  21.488   2.411  11.175
31291W        W 2907  37.850   5.886  11.200
31292W        W 2908  23.579  21.005  13.915
31293W        W 2909  16.072   1.368  14.934
31294W        W 2910   0.792  41.544   2.856
31295W        W 2911   4.997  33.507  14.886
31296W        W 2912  21.264   4.866  12.496
31297W        W 2913  10.824  44.007  11.307
31298W        W 2914  30.130  42.504  14.963
31299W        W 2915  10.888  10.176  14.333
31300W        W 2916  21.002  32.066   2.324
31301W        W 2917  23.627  38.857  12.145
31302W        W 2918   0.731  38.623   2.749
31303W        W 2919   2.643   4.202  11.195
31304W        W 2920  10.627  15.384   3.552
31305W        W 2921   0.392  11.756   3.956
31306W        W 2922  38.381  27.190  10.278
31307W        W 2923  11.885  31.474   2.201
31308W        W 2924  20.688   1.833   0.455
31309W        W 2925  40.098  25.800   4.193
31310W        W 2926   7.802  41.263  13.558
31311W        W 2927  30.507  26.457   3.665
31312W        W 2928  36.542  24.913  10.497
31313W        W 2929  24.976   8.433   1.905
31314W        W 2930  13.747  29.698  13.442
31315W        W 2931  21.525  36.903   4.069
31316W        W 2932   4.386  43.530  12.507
31317W        W 2933   4.495  26.624  11.502
31318W        W 2934   9.524  15.729   2.942
31319W        W 2935  41.416  25.501  14.995
31320W        W 2936  44.557  28.959  11.617
31321W        W 2937   4.650  14.346   1.233
31322W        W 2938  22.225  28.476  12.036
31323W        W 2939  30.239  28.482  13.026
31324W        W 2940  31.506  38.380  11.972
31325W        W 2941  23.006  39.887  12.689
31326W        W 2942  37.924  17.074  11.550
31327W        W 2943   0.182   1.917   3.701
31328W        W 2944   5.610  21.149   2.268
31329W        W 2945   3.128  37.491   3.862
31330W        W 2946  31.483   1.968  14.996
31331W        W 2947  15.478  10.896  12.839
31332W        W 2948  43.329  32.112  14.818
31333W        W 2949   4.276   6.283   2.309
31334W        W 2950   4.326  31.178  12.081
31335W        W 2951  26.403  10.422   4.587
31336W        W 2952  33.528  19.821   3.820
31337W        W 2953  23.940  16.273  11.212
31338W        W 2954  34.031  36.066  10.901
31339W        W 2955  19.615   3.757  12.442
31340W        W 2956   3.172  25.440  13.716
31341W        W 2957  22.312  11.256   2.710
31342W        W 2958  40.375  31.549   4.708
31343W        W 2959  22.469  37.509  12.503
31344W        W 2960  31.616  44.550  12.165
31345W        W 2961   0.061  25.438  11.439
31346W        W 2962  31.103  18.428   2.181
31347W        W 2963  15.564  33.610   2.271
31348W        W 2964  15.129  38.514   1.634
31349W        W 2965  44.213  44.182   5.254
31350W        W 2966  29.463   2.927   3.759
31351W        W 2967  41.286  24.209   2.949
31352W        W 2968   5.171  42.574  12.543
31353W        W 2969  24.280  12.326   4.211
31354W        W 2970  19.109  24.758   0.342
31355W        W 2971  17.652  36.909  14.875
31356W        W 2972   0.141  28.280  13.101
31357W        W 2973   0.918   4.105  11.567
31358W        W 2974  36.025  41.998   0.444
31359W        W 2975  21.070  41.296  10.719
31360W        W 2976  10.390   1.502  11.453
31361W        W 2977  26.132  23.958   0.748
31362W        W 2978  37.505  14.279   1.894
31363W        W 2979  17.960  30.522   1.692
31364W        W 2980  37.057   2.732   0.462
31365W        W 2981  25.121  32.392   1.958
31366W        W 2982  25.037  22.555  10.639
31367W        W 2983   1.813  42.809  10.576
31368W        W 2984  12.761  18.507   4.749
31369W        W 2985   2.447  22.339  12.091
31370W        W 2986  23.811  20.171   1.151
31371W        W 2987   7.164  24.725   2.100
31372W        W 2988  17.204   1.250  10.859
31373W        W 2989   2.953  31.426   1.396
31374W        W 2990   7.267  27.148   4.625
31375W        W 2991  32.355  41.784  12.077
31376W        W 2992  14.343  27.747  12.575
31377W        W 2993   5.226  35.117   4.098
31378W        W 2994   9.324  39.013   1.877
31379W        W 2995   1.713  24.940   1.116
31380W        W 2996  28.703  38.356   1.295
31381W        W 2997   8.836   3.993   2.102
31382W        W 2998  44.970   2.399   3.645
31383W        W 2999  35.349  20.229   4.096
31384W        W 3000  26.134  24.853  12.124
31385W        W 3001  44.877  11.776  10.622
31386W        W 3002  10.669  34.955   1.909
31387W        W 3003  14.237  16.957  12.790
31388W        W 3004  35.196  38.984   0.856
31389W        W 3005  33.395  18.133  12.117
31390W        W 3006   3.270  19.345  14.974
31391W        W 3007  19.222  31.136  11.166
31392W        W 3008  21.005   2.027   3.796
31393W        W 3009   4.783  20.674  11.872
31394W        W 3010  40.611  37.472   2.263
31395W        W 3011  34.063  12.233   2.314
31396W        W 3012  24.058   4.838   2.418
31397W        W 3013  23.142  17.686   3.775
31398W        W 3014  17.389  18.291  11.618
31399W        W 3015  41.934  19.441   3.573
31400W        W 3016   0.687   6.769  13.619
31401W        W 3017  44.716  10.149  11.060
31402W        W 3018  19.225  37.533  13.631
31403W        W 3019  30.629  18.626  11.133
31404W        W 3020   3.921  33.204  13.967
31405W        W 3021  14.902  15.378  14.368
31406W        W 3022   9.070  21.312   4.173
31407W        W 3023  33.994  15.827  10.628
31408W        W 3024  41.568  39.426   0.319
31409W        W 3025  31.767  32.247  13.327
31410W        W 3026  21.454   4.996  12.997
31411W        W 3027  32.015  24.070  14.998
31412W        W 3028  43.576  24.554   0.477
31413W        W 3029  41.102  13.365   1.237
31414W        W 3030  44.030  25.368  11.520
31415W        W 3031  13.133  24.974  12.453
31416W        W 3032   6.934  14.227  11.252
31417W        W 3033   1.263  41.786  11.962
31418W        W 3034  22.598  12.834  12.498
31419W        W 3035  19.788  36.542   0.800
31420W        W 3036   8.576  30.144  11.180
31421W        W 3037  34.082   0.781  14.039
31422W        W 3038  37.547  26.639   1.585
31423W        W 3039  31.393  19.591   1.526
31424W        W 3040   6.265   0.222  12.372
31425W        W 3041  24.534   0.525  14.893
31426W        W 3042  30.147  42.067  13.736
31427W        W 3043  30.177  24.273   1.159
31428W        W 3044  38.379   9.589   5.731
31429W        W 3045   4.784  35.295   0.956
31430W        W 3046  11.371   4.869  12.455
31431W        W 3047  44.940  38.841  14.425
31432W        W 3048  13.393  38.598  11.185
31433W        W 3049   9.281  28.604   4.652
31434W        W 3050  30.160   3.557   1.299
31435W        W 3051  35.057  25.437   2.799
31436W        W 3052  16.539  19.174   2.418
31437W        W 3053  31.934  21.079   4.158
31438W        W 3054  17.022  38.923  11.204
31439W        W 3055   9.699  30.622   0.118
31440W        W 3056  11.034  37.197   4.973
31441W        W 3057  28.711   9.437  13.413
31442W        W 3058  29.911  11.845   4.533
31443W        W 3059  41.500  39.551  14.425
31444W        W 3060  33.864  42.469  10.898
31445W        W 3061  35.468  22.163  11.690
31446W        W 3062   1.997  31.787   1.882
31447W        W 3063  34.561  18.553  12.848
31448W        W 3064  21.458  33.662   1.734
31449W        W 3065  44.757   3.270  14.860
31450W        W 3066  41.803   1.872   1.742
31451W        W 3067  23.590  29.943   3.528
31452W        W 3068   3.573  30.358   4.122
31453W        W 3069   1.705  21.594   2.966
31454W        W 3070   8.300   5.358   0.456
31455W        W 3071   1.458  29.684   3.619
31456W        W 3072  25.663  15.124  13.866
31457W        W 3073   9.243  24.239   0.716
31458W        W 3074  22.677  19.771   4.882
31459W        W 3075  24.657  15.198   3.745
31460W        W 3076  38.943  32.125  11.984
31461W        W 3077  37.519  37.846   2.106
31462W        W 3078  23.714  19.788   0.286
31463W        W 3079  29.067  37.387   4.677
31464W        W 3080  18.523  23.708  12.065
31465W        W 3081  26.076   6.889  12.438
31466W        W 3082   2.143  44.858   0.269
31467W        W 3083  10.703  23.270   0.448
31468W        W 3084  30.974  41.913  13.850
31469W        W 3085  14.217  35.947   3.259
31470W        W 3086  37.607  22.069  11.126
31471W        W 3087  28.941  21.739  13.331
31472W        W 3088  10.661   4.250  14.111
31473W        W 3089   0.447   9.882   3.011
31474W        W 3090  18.062  33.115  12.501
31475W        W 3091   2.540  14.800  11.107
31476W        W 3092  13.870  15.521   3.172
31477W        W 3093  31.444  41.573   0.964
31478W        W 3094  40.277   3.805  10.725
31479W        W 3095  35.879  10.989  13.021
31480W        W 3096  31.869  24.882  12.470
31481W        W 3097  20.464  11.616   0.511
31482W        W 3098  10.615  25.508  13.481
31483W        W 3099   9.215  25.264  12.483
31484W        W 3100  16.784   3.317   0.207
31485W        W 3101   5.245  30.819   3.296
31486W        W 3102  36.553  38.032  11.555
31487W        W 3103  22.290   2.442   3.643
31488W        W 3104   3.281  27.272  14.431
31489W        W 3105  27.133  18.403   4.911
31490W        W 3106  35.578   6.969  13.871
31491W        W 3107   5.267  40.558   1.691
31492W        W 3108  17.724  29.989   2.820
31493W        W 3109   6.141  23.390  10.755
31494W        W 3110  18.288  34.572  13.938
31495W        W 3111  11.608  32.107  10.681
31496W        W 3112   3.793   6.903  12.084
31497W        W 3113  33.383   9.320  14.809
31498W        W 3114  43.917  16.125  12.171
31499W        W 3115  18.884  35.170  14.480
31500W        W 3116  41.336   8.942   3.210
31501W        W 3117  20.164  10.655   1.932
31502W        W 3118  31.995   2.710   0.792
31503W        W 3119   9.727  23.264  11.057
31504W        W 3120  17.576   8.625   0.891
31505W        W 3121  32.125  28.164  11.552
31506W        W 3122  23.565  42.064   4.636
31507W        W 3123  21.598  44.609   4.126
31508W        W 3124  40.845  21.521  14.328
31509W        W 3125  41.750  34.575  10.982
31510W        W 3126  21.203  37.536   2.414
31511W        W 3127  30.149   2.857  11.576
31512W        W 3128  15.533   5.212  11.526
31513W        W 3129  10.722   5.876   3.142
31514W        W 3130   0.717  11.278   0.896
31515W        W 3131   0.863  37.993  11.963
31516W        W 3132  44.128  14.709  14.796
31517W        W 3133  27.480   3.002   2.879
31518W        W 3134   9.198   6.389   2.230
31519W        W 3135  38.267  35.394   1.688
31520W        W 3136  42.859  33.643   4.287
31521W        W 3137  11.279  11.711  11.986
31522W        W 3138  18.596  35.868  10.727
31523W        W 3139  19.293  33.008  11.209
31524W        W 3140  35.253   8.323  13.380
31525W        W 3141  41.496  12.174   0.905
31526W        W 3142   3.305  12.794   3.375
31527W        W 3143  26.463  37.432   3.178
31528W        W 3144  26.991  20.443   3.598
31529W        W 3145   7.370  14.845   0.158
31530W        W 3146  35.033  12.364   3.251
31531W        W 3147  28.542  10.085   1.404
31532W        W 3148   0.682   1.359   4.962
31533W        W 3149   2.174  30.924   1.044
31534W        W 3150  26.625  21.522   0.377
31535W        W 3151   3.367   1.285  14.331
31536W        W 3152   3.685   9.654   3.650
31537W        W 3153  32.979   2.653   4.218
31538W        W 3154  24.782  10.645   2.863
31539W        W 3155   7.892  10.149   2.897
31540W        W 3156  10.781  34.962   0.499
31541W        W 3157   0.997  16.613  11.204
31542W        W 3158  42.024  35.516  10.373
31543W        W 3159  36.907  36.842   4.782
31544W        W 3160  36.593   4.843   0.969
31545W        W 3161  23.179  22.675   3.407
31546W        W 3162  42.541  24.131  13.444
31547W        W 3163  24.327   7.702   2.778
31548W        W 3164  19.789  41.425  14.474
31549W        W 3165   2.137  24.135  12.607
31550W        W 3166  44.921  36.054   4.214
31551W        W 3167   9.428  21.156   4.568
31552W        W 3168  34.416   9.190  10.678
31553W        W 3169  24.535  17.242  12.673
31554W        W 3170  10.738  19.190  12.425
31555W        W 3171  34.761  28.761   4.235
31556W        W 3172  18.807   6.538   2.936
31557W        W 3173   7.848  17.800  10.405
31558W        W 3174  10.147  15.714  13.241
31559W        W 3175  31.669  44.803  11.404
31560W        W 3176  27.950   6.460  14.383
31561W        W 3177  21.934  41.283   4.207
31562W        W 3178  19.543  25.139   1.567
31563W        W 3179  37.853  39.764   1.828
31564W        W 3180   4.368  12.765  14.822
31565W        W 3181  37.157  17.581   0.018
31566W        W 3182   0.481   2.259   3.091
31567W        W 3183  26.040   6.235   1.047
31568W        W 3184  37.064  18.414   1.731
31569W        W 3185  43.638  16.333   4.559
31570W        W 3186  37.603  21.501   1.109
31571W        W 3187  38.967  35.420   0.006
31572W        W 3188  27.408   9.804  13.808
31573W        W 3189  38.995   2.204   2.755
31574W        W 3190   4.991  38.598   4.810
31575W        W 3191  41.542  18.031  11.664
31576W        W 3192  18.217   9.877  12.261
31577W        W 3193  26.298   6.721  13.149
31578W        W 3194  34.103  34.543   0.412
31579W        W 3195  27.533  30.877   3.314
31580W        W 3196  32.342   4.032  13.746
31581W        W 3197  11.376  14.339  13.354
31582W        W 3198  36.119  18.559  12.490
31583W        W 3199   3.384  36.496   4.597
31584W        W 3200  19.315   5.996  11.847
31585W        W 3201  41.836   9.928   1.811
31586W        W 3202  34.667   1.445   4.107
31587W        W 3203  15.896  42.909  14.408
31588W        W 3204  42.309   7.833  14.173
31589W        W 3205  40.324  15.035   4.104
31590W        W 3206  24.683   4.437   1.400
31591W        W 3207  10.145  41.501   0.173
31592W        W 3208  28.543  25.946  10.922
31593W        W 3209  29.977   6.841   2.885
31594W        W 3210  16.868   3.379   2.981
31595W        W 3211  33.071   8.591  11.561
31596W        W 3212   5.265  11.702   1.287
31597W        W 3213  20.127  10.638   0.580
31598W        W 3214  32.631  32.335   1.824
31599W        W 3215  16.449  37.619   3.019
31600W        W 3216   7.702  19.775  10.728
31601W        W 3217  27.226  25.677   0.948
31602W        W 3218  13.316  29.474  10.486
31603W        W 3219   3.139  33.695  14.792
31604W        W 3220   9.883  44.764  11.659
31605W        W 3221   0.895   0.489  12.693
31606W        W 3222  43.961  33.063  13.551
31607W        W 3223  27.431  17.768   1.746
31608W        W 3224  30.948  25.190   5.030
31609W        W 3225  17.785  40.062   1.248
31610W        W 3226  32.939   9.132   0.624
31611W        W 3227  26.675  38.533  13.602
31612W        W 3228  31.293  30.599  11.910
31613W        W 3229  39.269  38.311  14.651
31614W        W 3230  21.192   5.327   4.501
31615W        W 3231   5.774   4.726  10.565
31616W        W 3232   3.047  30.961  11.555
31617W        W 3233  31.378   0.221  11.412
31618W        W 3234   4.671  22.633  12.125
31619W        W 3235  13.972   5.709   5.012
31620W        W 3236   6.435  27.871   0.361
31621W        W 3237  43.810   9.179  11.656
31622W        W 3238  12.604  24.126   2.792
31623W        W 3239  23.983   5.036   1.056
31624W        W 3240   6.008  28.922   1.806
31625W        W 3241  28.977  41.302   3.332
31626W        W 3242  42.009  33.927   4.233
31627W        W 3243  29.469  27.936   0.875
31628W        W 3244  43.279  39.043   1.205
31629W        W 3245   7.831  35.316  11.998
31630W        W 3246  39.018   9.757   4.024
31631W        W 3247  17.306  18.752  12.925
31632W        W 3248  25.791  31.402  14.423
31633W        W 3249  11.609  28.018   0.180
31634W        W 3250  39.588  11.337  11.078
31635W        W 3251  27.749  42.127   1.900
31636W        W 3252  40.852  34.398   2.662
31637W        W 3253  14.427  32.043  13.443
31638W        W 3254   1.800  21.283   1.204
31639W        W 3255  35.920  37.550  11.043
31640W        W 3256  21.756   4.800  12.341
31641W        W 3257  29.638  13.594   4.077
31642W        W 3258   5.031   9.171  13.968
31643W        W 3259  38.476  38.588   0.122
31644W        W 3260  14.697  22.654   2.125
31645W        W 3261  20.052  26.295   3.046
31646W        W 3262   2.363   6.017   4.758
31647W        W 3263  17.327  35.067  12.734
31648W        W 3264  32.529  28.604  14.654
31649W        W 3265   0.003  34.513   2.314
31650W        W 3266  25.424  43.545   4.169
31651W        W 3267  43.237   9.215   0.875
31652W        W 3268  32.648  25.241   0.832
31653W        W 3269  24.244  36.808   0.416
31654W        W 3270  26.195  23.205   3.696
31655W        W 3271  14.221  31.022  13.644
31656W        W 3272  36.446   6.395  11.178
31657W        W 3273  32.791  21.566  11.446
31658W        W 3274  44.778  13.770  14.789
31659W        W 3275  31.440   0.522  11.013
31660W        W 3276  43.995  23.824   2.636
31661W        W 3277  37.814  16.939   5.166
31662W        W 3278  23.779  27.533  14.878
31663W        W 3279  44.737  33.013   3.676
31664W        W 3280  21.190  22.157   1.976
31665W        W 3281  29.668  24.464  12.156
31666W        W 3282   2.686  12.545  12.364
31667W        W 3283  29.554  36.789  11.523
31668W        W 3284  32.004  25.208  12.076
31669W        W 3285  27.567  20.473  12.377
31670W        W 3286  17.810   8.167   0.983
31671W        W 3287  31.026  35.514   1.775
31672W        W 3288  30.722  31.543   4.115
31673W        W 3289  22.345  19.072   1.393
31674W        W 3290  44.482  39.749   1.772
31675W        W 3291   8.196  20.311  14.306
31676W        W 3292   2.970  21.757   2.007
31677W        W 3293  35.812  22.489  13.738
31678W        W 3294  33.083  30.601   1.197
31679W        W 3295  24.792  36.037   0.489
31680W        W 3296  37.277  17.603   4.100
31681W        W 3297   9.721  35.849   4.362
31682W        W 3298  19.289  11.326   1.275
31683W        W 3299  43.531   8.286   2.703
31684W        W 3300   4.913  25.900  10.199
31685W        W 3301  30.887  30.904   1.034
31686W        W 3302  30.504  25.238   1.830
31687W        W 3303  27.045  16.018   2.672
31688W        W 3304  14.974  41.978   3.979
31689W        W 3305  32.629   0.425  10.725
31690W        W 3306  43.185  39.494  11.133
31691W        W 3307  11.413  29.357  13.273
31692W        W 3308   4.476  37.376   0.075
31693W        W 3309  12.196  16.174   4.148
31694W        W 3310  36.599  33.602  11.180
31695W        W 3311  15.830  42.935   3.808
31696W        W 3312  29.126  23.580  14.758
31697W        W 3313  42.757  26.428   3.814
31698W        W 3314  22.715  24.754   2.374
31699W        W 3315  11.170  19.176  13.414
31700W        W 3316   2.301  40.458   3.722
31701W        W 3317  41.528  33.027   4.227
31702W        W 3318  40.276   9.778   2.700
31703W        W 3319   1.489   1.849  13.382
31704W        W 3320  32.409  15.110   3.035
31705W        W 3321  43.964  32.159   4.141
31706W        W 3322   1.476  27.072   0.742
31707W        W 3323  15.045  33.151  12.685
31708W        W 3324  33.317  23.766  13.242
31709W        W 3325  18.105  21.016  14.313
31710W        W 3326  35.597  25.160   4.226
31711W        W 3327  11.374   9.305  12.815
31712W        W 3328  11.313  25.650   1.358
31713W        W 3329  34.569  27.023   1.726
31714W        W 3330  35.029  31.851   1.788
31715W        W 3331  16.276  30.404   3.699
31716W        W 3332  43.028  15.239   4.104
31717W        W 3333  40.912  42.697  14.266
31718W        W 3334  24.644   8.187  13.228
31719W        W 3335  43.829  12.089   1.795
31720W        W 3336   4.331  34.297  14.488
31721W        W 3337  42.553  35.394  12.206
31722W        W 3338  20.347  35.799   0.909
31723W        W 3339  16.771  24.883  11.555
31724W        W 3340   0.209  20.681  11.942
31725W        W 3341  26.583   3.744  11.038
31726W        W 3342  37.012   6.700  14.396
31727W        W 3343  24.067  14.605  12.429
31728W        W 3344   0.238  21.521   3.208
31729W        W 3345  36.943  44.535   2.332
31730W        W 3346  42.170  37.358   5.016
31731W        W 3347  19.449  38.779   0.673
31732W        W 3348  32.578  43.857  13.038
31733W        W 3349  15.853  42.804  10.865
31734W        W 3350  19.610  22.640  11.099
31735W        W 3351   4.313  21.958   2.998
31736W        W 3352  10.193   3.718   4.146
31737W        W 3353  14.191  33.432   0.511
31738W        W 3354  30.231  22.075   1.804
31739W        W 3355   7.273  42.945  14.784
31740W        W 3356  36.047  25.487  14.843
31741W        W 3357  30.464  27.146  11.185
31742W        W 3358  19.839   4.804   2.686
31743W        W 3359   8.924  33.921   2.611
31744W        W 3360  15.002  21.051   1.853
31745W        W 3361  24.591   1.002  14.686
31746W        W 3362  40.495  21.477  14.730
31747W        W 3363  23.852  38.030  12.524
31748W        W 3364  34.916  24.661   2.420
31749W        W 3365   7.691  10.775   3.613
31750W        W 3366  11.805   1.002   4.157
31751W        W 3367   7.738  10.321  10.705
31752W        W 3368  44.185   5.847  12.011
31753W        W 3369  10.737  25.707   0.668
31754W        W 3370  32.386   1.923  14.959
31755W        W 3371  26.114  33.006   0.293
31756W        W 3372   2.316  26.303   1.808
31757W        W 3373  22.725  34.545   2.741
31758W        W 3374  23.440  19.531   0.659
31759W        W 3375  27.628  30.434   4.348
31760W        W 3376   8.875   5.847  12.385
31761W        W 3377  41.855   8.000  11.856
31762W        W 3378  29.527  10.245  12.470
31763W        W 3379  19.447   9.136   1.223
31764W        W 3380  24.429  41.320  10.801
31765W        W 3381   2.340  22.249   4.218
31766W        W 3382   9.720  23.478  14.263
31767W        W 3383  24.627   5.873   3.865
31768W        W 3384  42.770  24.115  14.825
31769W        W 3385  19.606  23.636  12.871
31770W        W 3386  37.871  21.508   4.350
31771W        W 3387  33.539  11.288   4.830
31772W        W 3388  26.572  23.952   0.485
31773W        W 3389   0.840  15.778  14.380
31774W        W 3390  14.463   5.327   1.167
31775W        W 3391   8.042  23.640   3.176
31776W        W 3392  27.585  42.303   1.408
31777W        W 3393  26.094  28.103  11.122
31778W        W 3394  27.992   5.567  12.100
31779W        W 3395  10.274  16.724  12.557
31780W        W 3396  34.336  13.175   2.340
31781W        W 3397  42.425  26.681  11.793
31782W        W 3398  38.993  36.914  11.165
31783W        W 3399  15.683  42.363  12.344
31784W        W 3400  42.287  12.605  11.623
31785W        W 3401  16.636  21.705   1.477
31786W        W 3402  25.999  36.463   1.746
31787W        W 3403  13.721  38.614  14.119
31788W        W 3404  42.807  40.106   0.471
31789W        W 3405  29.371   0.410  14.062
31790W        W 3406   8.779  33.550   1.615
31791W        W 3407  11.037  32.713  13.363
31792W        W 3408  23.445  11.855   1.864
31793W        W 3409  12.501  12.003  12.088
31794W        W 3410  24.645  30.647   1.742
31795W        W 3411  26.468  39.060   5.168
31796W        W 3412  12.583  28.470  11.229
31797W        W 3413  15.429   7.882  12.865
31798W        W 3414  35.950   6.620   0.037
31799W        W 3415  36.016  44.232   3.250
31800W        W 3416  26.506  11.752   4.466
31801W        W 3417  16.414  17.155   1.811
31802W        W 3418  11.762  15.046  10.795
31803W        W 3419   4.267  42.903   3.638
31804W        W 3420  31.893  38.603   4.028
31805W        W 3421  15.803  15.346   0.451
31806W        W 3422   3.939   4.731  10.330
31807W        W 3423  11.166  19.523  13.809
31808W        W 3424  24.762  26.682  14.334
31809W        W 3425  44.858  26.295  13.902
31810W        W 3426  11.225  19.218   3.083
31811W        W 3427  23.957   7.384   2.995
31812W        W 3428  17.987  25.206   3.238
31813W        W 3429  27.102  40.873  14.320
31814W        W 3430  44.078  16.838  14.785
31815W        W 3431  24.039  32.126   3.257
31816W        W 3432  11.591  41.033  11.656
31817W        W 3433  18.155  29.421   2.294
31818W        W 3434   1.321  41.393   1.431
31819W        W 3435  15.294  37.477  14.863
31820W        W 3436  22.460  17.881  14.319
31821W        W 3437  13.891  28.114   2.294
31822W        W 3438   6.817  28.053   3.546
31823W        W 3439  16.266  23.115  11.916
31824W        W 3440   9.557  30.145  11.203
31825W        W 3441   6.756  34.007   2.402
31826W        W 3442  44.011  24.696  13.064
31827W        W 3443  28.490  23.643   1.454
31828W        W 3444  34.622  24.699  12.445
31829W        W 3445  44.755  11.415   0.426
31830W        W 3446   9.139  39.449  11.091
31831W        W 3447   0.523  27.960  14.222
31832W        W 3448  32.622   3.184   4.745
31833W        W 3449   6.731   9.400   2.251
31834W        W 3450   0.391   2.647   4.445
31835W        W 3451   4.746  22.057  10.389
31836W        W 3452   4.393   1.054   4.697
31837W        W 3453  29.191  32.942   1.275
31838W        W 3454   1.470  32.532   1.910
31839W        W 3455  44.989   0.300   4.069
31840W        W 3456  44.770   6.892   4.844
31841W        W 3457  21.104  40.019   3.693
31842W        W 3458  38.991  15.745   1.239
31843W        W 3459  19.142  22.765   0.502
31844W        W 3460   1.319   4.161  12.511
31845W        W 3461  23.562  27.218  13.579
31846W        W 3462   1.952  39.450   4.790
31847W        W 3463   0.723  22.566  13.431
31848W        W 3464  43.405  19.154   0.928
31849W        W 3465   7.836  19.259  10.665
31850W        W 3466  29.061   4.924  11.045
31851W        W 3467  42.354  27.634   1.958
31852W        W 3468  23.772  42.910  11.196
31853W        W 3469  31.585   1.320   5.517
31854W        W 3470  40.109  37.599   2.220
31855W        W 3471  30.584  14.200  11.739
31856W        W 3472  12.226  39.360   0.476
31857W        W 3473  10.123  31.521   3.522
31858W        W 3474  28.098  22.897  13.785
31859W        W 3475  28.931  21.202  13.953
31860W        W 3476  22.601  34.951  14.187
31861W        W 3477  37.500  11.301   0.792
31862W        W 3478   3.286   8.926  12.623
31863W        W 3479  33.449   3.010  12.315
31864W        W 3480  12.364  26.208   0.364
31865W        W 3481  14.177  24.096   4.035
31866W        W 3482  21.727  31.049  11.657
31867W        W 3483  11.848  18.632   2.433
31868W        W 3484  38.568  21.987   3.398
31869W        W 3485  29.245  37.471  10.148
31870W        W 3486  10.084   9.732   2.865
31871W        W 3487  37.762   3.362   5.047
31872W        W 3488  43.013  32.574  14.843
31873W        W 3489  42.481  29.988  12.332
31874W        W 3490   0.647  15.851   2.814
31875W        W 3491  14.380  30.615  10.598
31876W        W 3492   2.399  30.427   3.607
31877W        W 3493  16.681   5.303   2.624
31878W        W 3494  28.846  23.550  12.914
31879W        W 3495  18.317  43.871   2.702
31880W        W 3496  37.019  13.214   2.813
31881W        W 3497  37.321  39.627   3.184
31882W        W 3498  23.723  19.546   2.598
31883W        W 3499  24.504  14.552  12.169
31884W        W 3500  43.382   5.132   0.302
31885W        W 3501  24.247   7.825   4.198
31886W        W 3502  21.847  11.686   4.540
31887W        W 3503  38.983  19.223   3.335
31888W        W 3504  40.465  39.400  11.796
31889W        W 3505  10.893  28.950  12.574
31890W        W 3506   4.587  27.666   2.807
31891W        W 3507  30.519  22.641  11.129
31892W        W 3508  32.052   9.905  10.237
31893W        W 3509  13.675  24.223   1.381
31894W        W 3510  14.789  36.472  13.424
31895W        W 3511  10.663   9.730   1.433
31896W        W 3512   5.157  44.530  12.978
31897W        W 3513  31.137  40.784   4.846
31898W        W 3514  12.791  36.531  11.504
31899W        W 3515  29.846  36.659   1.288
31900W        W 3516  20.787  24.285  14.336
31901W        W 3517   6.533  21.738  13.536
31902W        W 3518   8.039  38.295  11.319
31903W        W 3519  11.127  12.897  12.486
31904W        W 3520  33.351   7.158   0.313
31905W        W 3521  24.737  34.154  12.878
31906W        W 3522   0.074   4.869   9.989
31907W        W 3523  17.255  35.792  13.837
31908W        W 3524  10.278  41.774  10.560
31909W        W 3525  24.668   6.493   4.260
31910W        W 3526  30.057  42.525   3.776
31911W        W 3527  19.770   6.106  12.845
31912W        W 3528   6.444  31.241  13.388
31913W        W 3529  16.166   4.126  11.972
31914W        W 3530   0.948  21.256   2.267
31915W        W 3531  20.331  35.170   4.254
31916W        W 3532  33.049  16.308  10.553
31917W        W 3533  27.524  42.733   4.007
31918W        W 3534   3.408  36.349   0.260
31919W        W 3535  37.901  43.348  14.920
31920W        W 3536  24.961  15.115   0.277
31921W        W 3537  14.271  21.192  13.507
31922W        W 3538   2.705  29.092  11.657
31923W        W 3539  30.187  17.999   0.883
31924W        W 3540  32.906  42.406   1.411
31925W        W 3541  43.503  11.223   1.601
31926W        W 3542   0.706  31.458  14.933
31927W        W 3543   3.724   2.853  11.271
31928W        W 3544  20.954  32.942   0.499
31929W        W 3545   4.342  27.815  12.363
31930W        W 3546  16.079  20.540  12.860
31931W        W 3547  29.799   1.564  10.829
31932W        W 3548  40.974  34.488   4.607
31933W        W 3549  41.457   9.758  13.823
31934W        W 3550  41.074  40.879   2.317
31935W        W 3551  41.480  14.042   0.935
31936W        W 3552  36.324  35.021   2.376
31937W        W 3553  12.117  23.076  10.923
31938W        W 3554  36.284   5.667  11.634
31939W        W 3555   0.415  13.414  10.704
31940W        W 3556  35.879  44.892   2.721
31941W        W 3557  28.706   4.292  11.262
31942W        W 3558  25.240  35.116   2.875
31943W        W 3559   8.709  10.340   0.838
31944W        W 3560  33.853  32.386   1.339
31945W        W 3561   4.060  41.520   0.863
31946W        W 3562  19.596  44.533   4.780
31947W        W 3563  41.327   3.922  12.893
31948W        W 3564  14.658  44.899  12.200
31949W        W 3565   3.392   7.214  11.959
31950W        W 3566  12.930  35.626   3.779
31951W        W 3567  44.326  37.673   0.825
31952W        W 3568  23.026  20.010   2.322
31953W        W 3569  19.075  12.053  10.510
31954W        W 3570  23.198  20.529   1.425
31955W        W 3571  30.802  26.867  12.072
31956W        W 3572  12.730  43.332   0.416
31957W        W 3573   2.465  38.912   3.332
31958W        W 3574  23.287   0.542   0.266
31959W        W 3575  42.881  30.606   0.939
31960W        W 3576  29.263  14.651  11.076
31961W        W 3577   8.697  21.261   3.663
31962W        W 3578  43.922  36.042  13.912
31963W        W 3579  28.500  40.956  10.816
31964W        W 3580  17.731  21.282   0.448
31965W        W 3581  40.109  16.642   3.131
31966W        W 3582   2.671  35.061   2.253
31967W        W 3583   0.024  28.155  12.604
31968W        W 3584  25.403   1.880   3.522
31969W        W 3585  12.691  13.362  13.795
31970W        W 3586  11.349  36.967  10.603
31971W        W 3587  44.244  16.877   4.613
31972W        W 3588  16.042  15.153  13.563
31973W        W 3589  21.008  21.700   1.786
31974W        W 3590  23.102  27.714   0.503
31975W        W 3591  11.847  13.192  10.547
31976W        W 3592  37.145   0.147  12.664
31977W        W 3593  25.552  29.480  14.743
31978W        W 3594   3.330  35.528  11.159
31979W        W 3595  31.261   6.692   2.745
31980W        W 3596  29.167  23.220  12.152
31981W        W 3597  23.059   0.179  13.513
31982W        W 3598  24.091  17.269   2.898
31983W        W 3599   1.579  23.334  14.530
31984W        W 3600  16.604   3.350  13.687
31985W        W 3601  38.065  34.348  10.157
31986W        W 3602   8.822   2.246   1.701
31987W        W 3603  41.929  12.287   4.514
31988W        W 3604  30.409  24.701  13.907
31989W        W 3605  33.925  13.185  13.386
31990W        W 3606   5.678   5.664  13.966
31991W        W 3607   4.382  28.540   2.673
31992W        W 3608  27.796  18.839  12.817
31993W        W 3609  14.228  29.950  12.506
31994W        W 3610   1.952   7.701   2.114
31995W        W 3611  17.261  30.061  10.931
31996W        W 3612  13.303  16.464  14.875
31997W        W 3613  44.286  26.804   3.523
31998W        W 3614   4.038  15.221   2.614
31999W        W 3615  20.806  11.332   1.353
32000W        W 3616   9.725   1.387   2.672
32001W        W 3617  43.311  27.713  14.230
32002W        W 3618  39.410  20.628  11.679
32003W        W 3619  35.294   6.866  14.453
32004W        W 3620  43.475  26.568   2.164
32005W        W 3621  16.567  42.319   2.904
32006W        W 3622  10.188  24.099   0.350
32007W        W 3623  32.430  16.121  14.499
32008W        W 3624  11.598  17.339  14.944
32009W        W 3625  22.726  13.840   3.712
32010W        W 3626  12.707   9.164   1.843
32011W        W 3627  41.260  44.671  13.112
32012W        W 3628  17.680  43.375  11.180
32013W        W 3629  39.939  15.851  13.354
32014W        W 3630   4.226  40.229  11.079
32015W        W 3631   7.979   7.484  11.630
32016W        W 3632  13.701  17.609  10.225
32017W        W 3633  20.569   4.047  13.486
32018W        W 3634   2.319   0.381   3.147
32019W        W 3635  35.594   7.143  10.717
32020W        W 3636  34.351  37.783  11.412
32021W        W 3637  38.900  17.053  14.807
32022W        W 3638  42.469  21.393   4.134
32023W        W 3639  27.098  38.067   4.133
32024W        W 3640   5.717  42.067   0.212
32025W        W 3641  27.787  15.456   4.067
32026W        W 3642  39.814  29.444   0.769
32027W        W 3643  40.941  29.141   4.756
32028W        W 3644  32.140  28.655   1.482
32029W        W 3645  21.519  10.315   3.398
32030W        W 3646  11.126  14.920   1.599
32031W        W 3647  14.737  36.579  11.598
32032W        W 3648  22.555  40.072  10.743
32033W        W 3649  14.811   4.886  13.985
32034W        W 3650   2.133  44.034  10.305
32035W        W 3651   1.366  11.669  13.384
32036W        W 3652  23.282  32.841   0.446
32037W        W 3653  37.879  44.278   1.491
32038W        W 3654  33.161  27.989   0.765
32039W        W 3655  42.321   1.439   2.958
32040W        W 3656  12.091   4.895  10.167
32041W        W 3657  11.045  31.001  12.897
32042W        W 3658  40.774  22.276   2.713
32043W        W 3659  10.400   0.456  13.309
32044W        W 3660  37.350  33.461  12.560
32045W        W 3661  12.212  35.543   3.211
32046W        W 3662  30.453  21.061  13.409
32047W        W 3663  36.472  22.202  14.328
32048W        W 3664  28.915   5.136  14.377
32049W        W 3665  40.344   3.158  14.310
32050W        W 3666  35.641  16.999  10.655
32051W        W 3667  38.867  38.210  14.988
32052W        W 3668  38.100  14.571   0.040
32053W        W 3669   3.735  25.100  10.434
32054W        W 3670  17.980   3.444  12.778
32055W        W 3671  36.509  26.264  11.513
32056W        W 3672   3.547  16.498  12.054
32057W        W 3673  15.710  36.658  10.547
32058W        W 3674  32.052  43.701  14.163
32059W        W 3675   7.755  43.453   2.743
32060W        W 3676  44.982  31.223   2.292
32061W        W 3677   2.431  32.556   2.717
32062W        W 3678  22.499  40.349   5.087
32063W        W 3679  21.691  16.081   4.723
32064W        W 3680  23.633  28.437   4.498
32065W        W 3681  34.984  28.445  11.620
32066W        W 3682  44.031  19.749   0.592
32067W        W 3683  19.195   6.049  11.118
32068W        W 3684   1.202  34.471   1.514
32069W        W 3685  31.897  37.576  13.060
32070W        W 3686  33.771  35.962  12.514
32071W        W 3687   9.531  25.783   3.838
32072W        W 3688   2.184  35.055  11.465
32073W        W 3689  13.212  23.541   1.227
32074W        W 3690  42.345  23.475  11.566
32075W        W 3691  35.662  36.128   2.024
32076W        W 3692  21.709  14.256  10.945
32077W        W 3693  37.391  11.917  12.501
32078W        W 3694  18.769  30.588   0.328
32079W        W 3695  36.901  36.294   3.817
32080W        W 3696  16.348   6.237  13.334
32081W        W 3697  40.343  33.186   1.698
32082W        W 3698  26.926   6.055   2.939
32083W        W 3699  11.374  14.687   4.639
32084W        W 3700  26.470  17.269   1.851
32085W        W 3701  28.848  40.779  14.753
32086W        W 3702  32.574  19.741  14.910
32087W        W 3703  20.714  29.356  14.242
32088W        W 3704  17.863  10.263  11.168
32089W        W 3705  42.872  27.195   3.127
32090W        W 3706  14.303  38.508   3.120
32091W        W 3707  11.210  12.535   4.582
32092W        W 3708  41.263  39.807   4.180
32093W        W 3709  39.951  35.807  10.750
32094W        W 3710  41.248  41.446  13.855
32095W        W 3711  38.434  43.330  12.140
32096W        W 3712  14.230   5.053   3.236
32097W        W 3713   4.853  40.437  14.079
32098W        W 3714  42.383  34.951  12.033
32099W        W 3715  44.743  14.807   1.699
32100W        W 3716  44.923  41.788   1.393
32101W        W 3717   1.853  40.806   2.927
32102W        W 3718   5.723  24.191   3.168
32103W        W 3719  25.251  42.862  13.150
32104W        W 3720  14.656  13.293   0.073
32105W        W 3721  24.127   5.832  13.373
32106W        W 3722  33.135  23.295   3.790
32107W        W 3723  39.984  18.685   3.186
32108W        W 3724   6.759  10.655  13.510
32109W        W 3725  32.900  18.728  13.271
32110W        W 3726   0.442  27.985  11.163
32111W        W 3727  20.095   9.434  10.778
32112W        W 3728  42.259  14.424   4.610
32113W        W 3729   7.403   6.210  12.492
32114W        W 3730   4.798  35.358   1.846
32115W        W 3731  39.566  43.182  10.235
32116W        W 3732  40.913  35.888   2.657
32117W        W 3733  14.675  29.297  14.921
32118W        W 3734  44.258  13.741  14.805
32119W        W 3735  17.274   8.451  11.175
32120W        W 3736  42.348  16.311   2.796
32121W        W 3737  12.056  16.754   2.992
32122W        W 3738  21.296  22.053  12.962
32123W        W 3739  27.222  35.813   2.101
32124W        W 3740  20.490   3.015  14.747
32125W        W 3741  33.769  30.396  14.329
32126W        W 3742  26.365  40.499  11.630
32127W        W 3743  10.939   4.821  10.613
32128W        W 3744   8.052  21.250   9.967
32129W        W 3745  39.553  33.109  11.695
32130W        W 3746  23.200  23.692   3.110
32131W        W 3747   7.764   4.625  11.155
32132W        W 3748  30.194  17.683  12.577
32133W        W 3749  42.453   7.852  13.165
32134W        W 3750  41.409  10.259  11.928
32135W        W 3751  13.339   3.924  11.377
32136W        W 3752  21.317  11.582   4.501
32137W        W 3753  34.451  31.678  11.589
32138W        W 3754  11.211  22.121  11.995
32139W        W 3755  18.139  44.757  11.133
32140W        W 3756  36.756  13.660   2.118
32141W        W 3757   6.852  21.514   0.403
32142W        W 3758  27.444  44.372  13.819
32143W        W 3759  20.211  25.578  13.569
32144W        W 3760  11.829   1.478  14.688
32145W        W 3761   2.444  10.549   0.893
32146W        W 3762   5.966  30.915   2.071
32147W        W 3763  31.961  32.861  12.725
32148W        W 3764   4.018  19.759  12.929
32149W        W 3765  37.957  35.122   4.560
32150W        W 3766  39.002  33.959   1.560
32151W        W 3767   7.377   9.527   1.261
32152W        W 3768  42.757  37.087  12.618
32153W        W 3769  11.420  35.679   1.645
32154W        W 3770   8.716   3.211   1.727
32155W        W 3771   2.214  21.456  14.922
32156W        W 3772  27.255  28.178  11.730
32157W        W 3773  36.038   8.435  12.427
32158W        W 3774  17.611  27.587  12.383
32159W        W 3775  27.491  13.657  10.876
32160W        W 3776  29.682  43.279   3.811
32161W        W 3777  32.084  44.721   5.080
32162W        W 3778   6.752   0.936  10.677
32163W        W 3779  33.909  29.165  13.317
32164W        W 3780   9.332   0.459   2.466
32165W        W 3781  38.518  13.888  10.654
32166W        W 3782  24.482   6.370  13.672
32167W        W 3783   4.259  33.847  11.544
32168W        W 3784   6.493  43.340   0.233
32169W        W 3785  21.213  23.613   0.752
32170W        W 3786  19.259  31.442  14.908
32171W        W 3787  37.610  40.308  14.275
32172W        W 3788  22.562  34.611  13.361
32173W        W 3789   7.833  26.928  14.971
32174W        W 3790  30.523  16.685   3.194
32175W        W 3791  29.402  24.935   3.741
32176W        W 3792   9.262  27.163  10.765
32177W        W 3793  42.980  11.154  12.123
32178W        W 3794  15.958  44.530  11.454
32179W        W 3795  14.747  18.530   4.239
32180W        W 3796  13.095  44.976   4.915
32181W        W 3797  40.979  16.283  12.598
32182W        W 3798  29.486  44.461   2.663
32183W        W 3799  41.309  20.226  14.815
32184W        W 3800  11.287  35.130  14.522
32185W        W 3801  34.519  32.008   0.015
32186W        W 3802   4.683   8.247   1.813
32187W        W 3803  28.643  31.780   1.484
32188W        W 3804  41.746  22.940  13.500
32189W        W 3805  33.900  22.688   2.628
32190W        W 3806   5.992  27.573  13.046
32191W        W 3807  18.974  29.141  13.093
32192W        W 3808  22.196  24.026   4.474
32193W        W 3809   6.095   7.447   1.882
32194W        W 3810  42.091  30.594  13.427
32195W        W 3811  22.930  21.670  14.770
32196W        W 3812  12.777  17.699   0.537
32197W        W 3813   3.509  18.431   1.884
32198W        W 3814  18.688   3.031  10.195
32199W        W 3815  16.538  37.134  12.840
32200W        W 3816  10.423  34.404  12.371
32201W        W 3817   4.803  32.754  13.844
32202W        W 3818  32.394  27.078  10.933
32203W        W 3819  33.430  41.015  11.627
32204W        W 3820   8.620  35.895   1.850
32205W        W 3821   7.744  24.118   3.150
32206W        W 3822   4.972  40.378  11.619
32207W        W 3823  21.053  20.205   0.931
32208W        W 3824   7.775   2.346  11.182
32209W        W 3825  30.119  30.737   1.778
32210W        W 3826   7.294  23.582   0.931
32211W        W 3827  14.642  31.987  12.621
32212W        W 3828  23.677  26.140  12.038
32213W        W 3829   6.717   0.672  13.017
32214W        W 3830  41.878  10.976   1.842
32215W        W 3831  18.570   9.287   2.228
32216W        W 3832  27.472   9.362   1.722
32217W        W 3833  42.460   1.751  12.952
32218W        W 3834  12.274  36.809  11.626
32219W        W 3835  11.106  37.483   0.390
32220W        W 3836  43.942  16.710  12.383
32221W        W 3837  28.995  44.766  11.604
32222W        W 3838  43.396  33.134   1.350
32223W        W 3839  27.430   8.730  13.311
32224W        W 3840  39.984   3.653  11.696
32225W        W 3841  14.200  36.966   2.805
32226W        W 3842  27.628  27.491  10.711
32227W        W 3843  34.441   8.621  11.752
32228W        W 3844   0.993  24.062  11.467
32229W        W 3845  26.955  34.116   2.762
32230W        W 3846  22.460  10.268   5.139
32231W        W 3847  33.302  24.442  13.989
32232W        W 3848  18.318  12.725   1.288
32233W        W 3849  32.172  13.852   1.208
32234W        W 3850  26.424  16.805   9.702
32235W        W 3851   8.639  31.611  10.701
32236W        W 3852  21.576  33.946   3.844
32237W        W 3853  32.397  40.825   0.099
32238W        W 3854  24.108  30.930   1.876
32239W        W 3855   8.199   7.985   1.650
32240W        W 3856  43.352  16.235   3.188
32241W        W 3857  18.584  29.939   2.695
32242W        W 3858  41.386  42.197   1.851
32243W        W 3859  28.053  23.476  11.573
32244W        W 3860  38.321   0.410   3.844
32245W        W 3861  11.652  30.423   4.082
32246W        W 3862   9.471  12.041  13.988
32247W        W 3863  41.211  16.704  12.809
32248W        W 3864   1.963  22.393   5.305
32249W        W 3865  26.652   1.297   3.131
32250W        W 3866  38.645  14.042  12.542
32251W        W 3867  37.595  36.646  12.031
32252W        W 3868   1.381  37.292  14.903
32253W        W 3869  22.988   7.884  12.532
32254W        W 3870  34.843  44.871   4.617
32255W        W 3871   9.596   9.280   1.218
32256W        W 3872  14.670  12.054  14.922
32257W        W 3873   8.599  18.762   2.877
32258W        W 3874  29.159  10.281  14.698
32259W        W 3875  42.034   8.306  11.483
32260W        W 3876  25.320  18.070  12.060
32261W        W 3877   9.357  18.196   2.823
32262W        W 3878   3.233  41.291   4.151
32263W        W 3879  17.943  10.176  12.561
32264W        W 3880   3.001  10.168  14.267
32265W        W 3881  11.828  22.107   0.439
32266W        W 3882  14.659  36.504  12.099
32267W        W 3883  11.275  13.398  14.301
32268W        W 3884  17.729  32.083  13.778
32269W        W 3885  30.900   1.736  13.371
32270W        W 3886  36.507   6.899  14.420
32271W        W 3887  35.403  12.879   3.871
32272W        W 3888  21.369   3.406  10.394
32273W        W 3889  43.093  26.218   2.281
32274W        W 3890   0.219  14.834   1.917
32275W        W 3891   9.834  32.610  11.084
32276W        W 3892  11.212  36.041  11.448
32277W        W 3893  23.151  19.763   1.876
32278W        W 3894  31.952  34.410  14.915
32279W        W 3895  36.079   8.022   2.258
32280W        W 3896   3.253  21.459   2.335
32281W        W 3897  16.191   5.742   1.937
32282W        W 3898   1.469  11.382  13.968
32283W        W 3899  27.037   7.940   4.464
32284W        W 3900   7.431  37.470   2.665
32285W        W 3901  13.289   1.028  13.818
32286W        W 3902  20.134  16.825   4.899
32287W        W 3903  14.430  21.717   2.444
32288W        W 3904  21.786  28.674  13.747
32289W        W 3905  14.594   5.984  14.898
32290W        W 3906  41.944  21.970  10.791
32291W        W 3907  25.364  25.040   1.888
32292W        W 3908  36.028   2.466  13.871
32293W        W 3909  16.895  24.046  11.799
32294W        W 3910  41.886  36.863   3.240
32295W        W 3911  16.113  36.677   3.265
32296W        W 3912  43.847   8.304  10.663
32297W        W 3913  33.059  40.833   4.672
32298W        W 3914   0.691   1.359  10.612
32299W        W 3915   7.079   6.200  10.815
32300W        W 3916  43.180  20.841   4.957
32301W        W 3917  39.075  35.920   1.038
32302W        W 3918  13.110  21.361  10.906
32303W        W 3919   4.002  15.104   1.785
32304W        W 3920   8.357  33.239  12.336
32305W        W 3921  30.595   5.493   3.782
32306W        W 3922   1.300  30.666  13.225
32307W        W 3923  29.648  27.166  14.480
32308W        W 3924  23.609  20.049   2.433
32309W        W 3925  22.951  44.012  14.887
32310W        W 3926  25.510  23.480  10.504
32311W        W 3927  15.505  23.440  14.302
32312W        W 3928  43.031   6.446  11.795
32313W        W 3929   7.773  13.789  13.046
32314W        W 3930  15.476  31.240   0.182
32315W        W 3931  37.557   2.876  14.192
32316W        W 3932  32.681   2.737  10.574
32317W        W 3933   1.837  39.494   1.859
32318W        W 3934  41.942  40.595   2.696
32319W        W 3935  40.830  44.589  12.409
32320W        W 3936   8.408  16.037  14.412
32321W        W 3937   2.012  13.824   1.344
32322W        W 3938  29.942  29.877  13.085
32323W        W 3939  37.919   9.883  13.827
32324W        W 3940  12.463   7.397  11.471
32325W        W 3941  40.866  15.031   4.179
32326W        W 3942  35.783  22.887   0.482
32327W        W 3943   5.459  16.927  12.716
32328W        W 3944   7.692  15.778   3.681
32329W        W 3945   6.325  15.436   2.846
32330W        W 3946   5.694   3.652  13.459
32331W        W 3947  22.226  35.908  12.764
32332W        W 3948  27.458  25.614  13.925
32333W        W 3949   7.739  37.076   1.727
32334W        W 3950   6.470   9.213  12.168
32335W        W 3951  15.032  35.473  14.058
32336W        W 3952  42.275   7.169   2.768
32337W        W 3953  43.248   3.737  12.617
32338W        W 3954  41.211  23.974  12.952
32339W        W 3955  27.365  18.553  14.545
32340W        W 3956  16.797  16.790   2.862
32341W        W 3957   4.644   5.956   4.102
32342W        W 3958  18.361  29.053  14.852
32343W        W 3959  22.607  19.962   1.046
32344W        W 3960  30.928  25.918  14.447
32345W        W 3961  15.933  28.705  13.176
32346W        W 3962  36.270  13.280   5.155
32347W        W 3963  41.868  35.826  12.129
32348W        W 3964  23.227  22.162   2.123
32349W        W 3965  12.767  10.189   4.381
32350W        W 3966  33.983  24.467   4.145
32351W        W 3967   4.485  12.161  13.533
32352W        W 3968  18.163  20.314   2.697
32353W        W 3969  11.151   1.997  14.109
32354W        W 3970  22.668  21.510  13.949
32355W        W 3971   2.950   3.509  13.740
32356W        W 3972  19.812  43.643   1.666
32357W        W 3973  39.484   4.700  13.407
32358W        W 3974  27.625  16.124   0.475
32359W        W 3975  14.552   0.719  11.556
32360W        W 3976  28.683  12.069  11.196
32361W        W 3977  37.204  21.830  12.907
32362W        W 3978  22.006  44.223   0.925
32363W        W 3979  28.133  25.866  14.397
32364W        W 3980  31.140   0.963   2.492
32365W        W 3981   8.229  34.614   4.092
32366W        W 3982  44.841  35.671  12.502
32367W        W 3983  39.401   6.216   0.281
32368W        W 3984  40.967   8.322  12.050
32369W        W 3985  18.830   2.437   0.855
32370W        W 3986   7.287  38.650   3.591
32371W        W 3987  12.731  20.253   0.691
32372W        W 3988   3.881  37.826   1.224
32373W        W 3989   7.313  38.502  10.611
32374W        W 3990  22.661  28.608   0.449
32375W        W 3991  44.875  16.635  12.740
32376W        W 3992  10.186  14.180  14.913
32377W        W 3993  30.088  41.446  12.925
32378W        W 3994  21.015  21.213   0.813
32379W        W 3995   0.294  19.024  12.881
32380W        W 3996  13.073  27.257   3.674
32381W        W 3997  20.449   8.277   2.814
32382W        W 3998  16.674  44.937   4.545
32383W        W 3999  43.058   3.451  10.430
32384W        W 4000  21.185  36.369   0.473
32385W        W 4001  40.998   2.780  13.664
32386W        W 4002   3.235  40.042  13.536
32387W        W 4003   3.323  22.146  11.992
32388W        W 4004  42.509  28.375  11.995
32389W        W 4005  22.801  22.883   4.170
32390W        W 4006  44.481   7.608   4.169
32391W        W 4007  15.082   3.666  10.165
32392W        W 4008  17.174  28.511   0.008
32393W        W 4009  16.570  19.235   3.934
32394W        W 4010  30.957  11.143  12.542
32395W        W 4011  14.787  13.756   1.205
32396W        W 4012  42.864  10.773   1.257
32397W        W 4013  27.865  39.009  12.105
32398W        W 4014   8.418  35.112   4.152
32399W        W 4015  15.482  21.282   3.243
32400W        W 4016  30.905  31.933  13.293
32401W        W 4017  15.868  33.180   2.284
32402W        W 4018   8.129  12.588  10.667
32403W        W 4019  34.382  29.242  13.986
32404W        W 4020   0.647  31.029   1.175
32405W        W 4021   9.747   1.468  11.456
32406W        W 4022   7.262  29.538  12.330
32407W        W 4023   3.274  18.265  13.920
32408W        W 4024  17.756   1.989   2.716
32409W        W 4025  24.133   7.465  10.771
32410W        W 4026  34.453  26.952  12.445
32411W        W 4027   4.944   2.993   2.660
32412W        W 4028  28.580  15.312   4.538
32413W        W 4029  39.298  18.145   0.742
32414W        W 4030  44.266  30.547   1.353
32415W        W 4031  30.066  10.564   0.843
32416W        W 4032   8.735  38.896  13.867
32417W        W 4033   9.723  33.939   4.693
32418W        W 4034   2.838  34.962   3.579
32419W        W 4035  29.366   6.352   4.207
32420W        W 4036  39.122  14.378   4.106
32421W        W 4037  27.944  32.846   1.679
32422W        W 4038  16.267  26.761  11.019
32423W        W 4039  32.305  25.557  12.964
32424W        W 4040   6.799  28.516  13.469
32425W        W 4041   0.672  21.075  10.624
32426W        W 4042  16.343   3.995   5.034
32427W        W 4043  23.965  23.978   9.859
32428W        W 4044  28.112   6.688  14.901
32429W        W 4045  24.655  29.050  12.647
32430W        W 4046  19.534  37.704  11.966
32431W        W 4047  29.523  32.050   1.563
32432W        W 4048  33.433  20.191   0.723
32433W        W 4049  13.245  15.797   3.247
32434W        W 4050   7.699   0.182  13.281
32435W        W 4051   5.261  42.545   4.986
32436W        W 4052  38.063  14.645  12.300
32437W        W 4053  13.603  28.152  12.519
32438W        W 4054  19.935  30.912  11.595
32439W        W 4055  19.618  24.218   1.301
32440W        W 4056  14.475  13.501  11.628
32441W        W 4057   2.804  38.311  10.556
32442W        W 4058  44.779   6.751  11.614
32443W        W 4059  26.567  15.272   2.907
32444W        W 4060  18.598  26.506  11.593
32445W        W 4061   3.516  14.407   4.179
32446W        W 4062  22.624  11.247   3.904
32447W        W 4063   9.178  41.857   1.575
32448W        W 4064  28.928  33.559  12.907
32449W        W 4065  19.995  13.287  11.646
32450W        W 4066   4.315  25.538   2.434
32451W        W 4067   4.254   8.174   0.728
32452W        W 4068  39.755  18.622  13.038
32453W        W 4069  10.356  41.480   2.772
32454W        W 4070   1.300  23.512   2.242
32455W        W 4071  19.145  44.028   5.393
32456W        W 4072  39.552  39.206   1.211
32457W        W 4073  34.326   1.223  12.729
32458W        W 4074   8.318  42.330  13.105
32459W        W 4075  34.536   8.251   3.862
32460W        W 4076   8.181  12.725  12.457
32461W        W 4077  43.234  22.003   3.713
32462W        W 4078  21.652  21.909  13.307
32463W        W 4079  24.242  12.847   3.157
32464W        W 4080  25.222  16.166  12.712
32465W        W 4081  29.067  20.001   2.300
32466W        W 4082  12.007  19.799   4.020
32467W        W 4083  22.714  27.149   3.391
32468W        W 4084   4.635   0.600   2.297
32469W        W 4085  21.216  10.342  13.283
32470W        W 4086  22.586  38.275  12.056
32471W        W 4087  28.031  33.005   4.608
32472W        W 4088  19.639  40.111   2.222
32473W        W 4089  39.909   9.331   3.340
32474W        W 4090  19.049   0.770  14.665
32475W        W 4091  26.811  29.060  10.263
32476W        W 4092  22.584  12.688   0.462
32477W        W 4093  32.514  12.763   4.493
32478W        W 4094  35.966   2.199  12.558
32479W        W 4095  20.625   4.789   4.116
32480W        W 4096   2.240   3.990   1.157
32481W        W 4097  23.069   9.937   4.185
32482W        W 4098  18.537  32.713  10.725
32483W        W 4099  14.692   2.525  12.435
32484W        W 4100  27.907  24.167  10.125
32485W        W 4101  12.699  33.008  14.018
32486W        W 4102  44.442  44.265   4.032
32487W        W 4103  24.945  14.331   0.972
32488W        W 4104  20.199  15.904   5.093
32489W        W 4105  38.910  28.098   2.792
32490W        W 4106  12.595  27.522   3.250
32491W        W 4107  24.345   4.389  10.349
32492W        W 4108  39.880  17.840  14.184
32493W        W 4109  10.370  19.930  13.278
32494W        W 4110  17.764  13.863  13.850
32495W        W 4111  34.003  43.056  11.207
32496W        W 4112  23.193  14.116  14.962
32497W        W 4113   7.901  26.235   2.819
32498W        W 4114  15.795  14.855  11.949
32499W        W 4115  30.609  44.252   4.046
32500W        W 4116   2.035  29.527  13.442
32501W        W 4117  30.235  41.645  12.452
32502W        W 4118  14.294   4.143   1.408
32503W        W 4119  11.889   4.043  14.046
32504W        W 4120  32.184  16.282   1.945
32505W        W 4121  18.190  28.258   4.064
32506W        W 4122  19.098   4.383  11.039
32507W        W 4123  32.519  32.095   0.384
32508W        W 4124   2.560  20.219  12.068
32509W        W 4125  22.047  22.585  11.409
32510W        W 4126  14.353  24.204  14.055
32511W        W 4127  30.078  22.697   4.917
32512W        W 4128  30.529  35.212   2.807
32513W        W 4129   2.524  21.733  13.410
32514W        W 4130  34.278  20.215   3.711
32515W        W 4131  15.172  28.499   2.440
32516W        W 4132   0.599  38.046  13.249
32517W        W 4133  21.150  20.499  12.886
32518W        W 4134  33.820  17.710   4.778
32519W        W 4135  40.910   7.656   0.533
32520W        W 4136  36.753  34.631  11.170
32521W        W 4137  33.415  23.233  13.947
32522W        W 4138  18.861   0.902  14.175
32523W        W 4139   6.679   2.728  12.994
32524W        W 4140  22.096  35.415   2.179
32525W        W 4141  36.544  44.864  12.287
32526W        W 4142   4.522  31.452  11.261
32527W        W 4143  24.294   8.375  12.599
32528W        W 4144  44.894  13.804  11.675
32529W        W 4145  34.589  32.928  14.892
32530W        W 4146  43.838  29.459   3.550
32531W        W 4147  32.730  34.098  11.098
32532W        W 4148  42.738   5.126   1.498
32533W        W 4149  20.545   4.354   4.374
32534W        W 4150   6.344  28.642   1.035
32535W        W 4151  29.233  20.075   4.072
32536W        W 4152  32.028   5.423   1.408
32537W        W 4153  26.638   3.699   3.609
32538W        W 4154   8.288  22.602  14.274
32539W        W 4155  14.632   4.700  14.517
32540W        W 4156  30.688  36.348   1.459
32541W        W 4157  31.490  11.665  10.994
32542W        W 4158  34.434  41.293  11.538
32543W        W 4159  25.162  31.915  12.522
32544W        W 4160  38.553  34.835  10.735
32545W        W 4161  23.370  23.082  14.118
32546W        W 4162  27.539  35.285  11.632
32547W        W 4163  10.419  10.291  10.943
32548W        W 4164   1.813   0.193   3.277
32549W        W 4165  18.579   7.880  13.914
32550W        W 4166  42.015  25.672  14.327
32551W        W 4167  13.604   2.722   2.953
32552W        W 4168  25.364  23.225  11.627
32553W        W 4169  44.044  28.593   2.063
32554W        W 4170  42.085  11.187  10.164
32555W        W 4171  27.894   0.620  11.409
32556W        W 4172  17.060  22.075   0.769
32557W        W 4173  33.842   6.016   5.039
32558W        W 4174  36.919  39.540   1.035
32559W        W 4175   6.174   2.221   4.287
32560W        W 4176  11.061  43.862  12.588
32561W        W 4177  30.498  26.682  14.290
32562W        W 4178  20.825   8.149  11.646
32563W        W 4179  25.610  38.415  13.095
32564W        W 4180   2.313  22.785   4.099
32565W        W 4181   1.752   0.555  13.958
32566W        W 4182  15.230  11.889  11.996
32567W        W 4183  40.998  41.955   0.617
32568W        W 4184   2.144  21.824   4.437
32569W        W 4185  29.547   7.955  12.958
32570W        W 4186  41.407  27.910  14.688
32571W        W 4187  22.118   8.040  13.005
32572W        W 4188  34.902  37.767   2.732
32573W        W 4189  42.880  24.457   2.470
32574W        W 4190   6.141  20.141   3.815
32575W        W 4191  14.085   3.254   3.494
32576W        W 4192  20.000  13.583   4.196
32577W        W 4193  13.892  36.970  10.793
32578W        W 4194  41.414  41.391  14.353
32579W        W 4195  27.088   7.403   4.415
32580W        W 4196  35.418  15.850   5.065
32581W        W 4197  20.532  20.064   1.812
32582W        W 4198   9.117  10.877  12.491
32583W        W 4199  32.632   2.781  14.433
32584W        W 4200  11.271  37.625  11.941
32585W        W 4201  11.403  34.890  10.958
32586W        W 4202  22.949   4.981  10.890
32587W        W 4203  37.756  37.538  10.166
32588W        W 4204  21.508  26.677   1.486
32589W        W 4205  26.595  25.502   3.148
32590W        W 4206  34.523   9.870  13.999
32591W        W 4207  21.957  37.781   2.424
32592W        W 4208  32.125  30.148   3.664
32593W        W 4209  18.320  39.952  14.867
32594W        W 4210  17.332  39.099   4.213
32595W        W 4211  39.855   4.602   1.615
32596W        W 4212  26.977  26.727   2.336
32597W        W 4213  36.366  14.325  14.840
32598W        W 4214  22.251  41.880   2.377
32599W        W 4215  32.871  31.175   4.275
32600W        W 4216   8.141  28.075   3.431
32601W        W 4217  44.172  32.033  12.936
32602W        W 4218  18.608   2.971  13.456
32603W        W 4219  20.519  24.166  11.300
32604W        W 4220  33.883  25.014   4.953
32605W        W 4221   0.750   6.499   4.093
32606W        W 4222   5.054  24.923   4.101
32607W        W 4223  11.687  16.195   4.089
32608W        W 4224  30.970  10.818  14.787
32609W        W 4225  24.002   8.592   4.576
32610W        W 4226  38.999   3.391  13.122
32611W        W 4227  40.789   9.236  13.986
32612W        W 4228   1.925   8.634  13.760
32613W        W 4229   2.907   2.180  11.341
32614W        W 4230  17.661   2.233  11.545
32615W        W 4231   4.293  29.969  10.626
32616W        W 4232  37.799   0.527   0.429
32617W        W 4233  17.533   9.634   1.781
32618W        W 4234  44.469  11.841  13.573
32619W        W 4235  24.014  33.170   4.254
32620W        W 4236  15.401   4.194   4.279
32621W        W 4237   5.219   4.689  14.679
32622W        W 4238  23.003  12.695  12.200
32623W        W 4239  27.187  35.906   4.305
32624W        W 4240  36.941  16.868   2.335
32625W        W 4241  25.389   0.940   3.675
32626W        W 4242  14.719  31.424  12.592
32627W        W 4243  41.937   8.773   1.540
32628W        W 4244  33.105  33.209  14.974
32629W        W 4245  36.459  27.214  10.740
32630W        W 4246  23.580  13.201  11.374
32631W        W 4247  27.450  30.568   1.715
32632W        W 4248  44.411   5.471  14.066
32633W        W 4249  38.822  22.314  12.524
32634W        W 4250  19.200  10.538  11.334
32635W        W 4251  14.135  16.135   2.427
32636W        W 4252  14.786  22.785   0.754
32637W        W 4253  31.886  22.222  11.011
32638W        W 4254  27.002  32.131   1.001
32639W        W 4255  33.699   4.077  11.180
32640W        W 4256  27.033  28.559  11.975
32641W        W 4257  26.497  22.873  14.407
32642W        W 4258  11.310  14.427  11.417
32643W        W 4259  44.312   6.746  11.865
32644W        W 4260  40.893  29.368   2.728
32645W        W 4261   2.661   6.145   2.773
32646W        W 4262  29.837  44.737   1.927
32647W        W 4263  44.069  35.059   2.566
32648W        W 4264  33.677  18.653  14.405
32649W        W 4265  44.383  10.795  14.847
32650W        W 4266  18.821  22.695  13.028
32651W        W 4267  40.787  26.916  10.430
32652W        W 4268  39.848  25.209   1.095
32653W        W 4269  23.015  41.449   4.069
32654W        W 4270  33.813  13.945   1.243
32655W        W 4271  43.299  33.057  14.872
32656W        W 4272  30.548  12.815  13.428
32657W        W 4273  37.174  41.326   0.110
32658W        W 4274  30.495  33.486   1.424
32659W        W 4275  38.476  10.097   5.460
32660W        W 4276   7.442  18.189   2.590
32661W        W 4277  30.406   1.448   0.313
32662W        W 4278  10.703  27.955  11.662
32663W        W 4279  32.643  44.856   1.596
32664W        W 4280  33.190  12.139   4.172
32665W        W 4281   1.897   9.765  12.620
32666W        W 4282  15.355   3.528  14.954
32667W        W 4283  18.617   5.381  11.485
32668W        W 4284  41.892   8.395  12.858
32669W        W 4285   4.822  33.190  13.549
32670W        W 4286  40.379  42.424  12.443
32671W        W 4287  33.356  21.271  13.421
32672W        W 4288   1.984   8.226   2.222
32673W        W 4289   7.901   6.497   2.874
32674W        W 4290  37.579  34.609  11.574
32675W        W 4291   2.270  35.879   2.704
32676W        W 4292   4.863  10.676   0.718
32677W        W 4293  38.108  42.818  13.312
32678W        W 4294  11.674   2.667   2.798
32679W        W 4295  36.713  37.101  11.456
32680W        W 4296  12.735  16.312  10.631
32681W        W 4297   8.695  24.772   3.621
32682W        W 4298  28.846  21.385  11.759
32683W        W 4299   9.365  27.467  13.580
32684W        W 4300  34.472  27.992   0.780
32685W        W 4301  19.075  31.412   0.396
32686W        W 4302   6.845   2.719   0.905
32687W        W 4303  29.194   8.426   2.190
32688W        W 4304  19.174   5.930   0.687
32689W        W 4305  12.502   8.347   2.713
32690W        W 4306   9.638  34.469   0.282
32691W        W 4307  10.960  28.716  12.102
32692W        W 4308  11.630  16.031   3.617
32693W        W 4309   0.840   7.188   1.348
32694W        W 4310  26.886  10.922  13.087
32695W        W 4311  44.975  24.269  13.246
32696W        W 4312  42.418  40.966   3.275
32697W        W 4313   0.211  25.239   3.109
32698W        W 4314  36.932   1.925  11.663
32699W        W 4315   0.924   3.443   2.541
32700W        W 4316  29.741  25.414  14.891
32701W        W 4317   9.259  16.877   4.134
32702W        W 4318   1.220  29.080  14.416
32703W        W 4319  29.400  20.476   2.349
32704W        W 4320  19.081  37.544  13.043
32705W        W 4321  29.896  24.040   2.698
32706W        W 4322  27.118  44.418   0.671
32707W        W 4323   7.871  34.811   3.274
32708W        W 4324  23.539  19.186   4.255
32709W        W 4325   3.250  18.223   3.588
32710W        W 4326  24.701  16.181   2.015
32711W        W 4327   1.974  42.007   1.345
32712W        W 4328  33.151  41.571  13.937
32713W        W 4329  15.957  10.124   0.302
32714W        W 4330  28.008  21.687   1.748
32715W        W 4331  13.426  28.736   3.740
32716W        W 4332  31.648   0.347  14.382
32717W        W 4333  21.621  23.657   3.866
32718W        W 4334  15.360  39.986  13.443
32719W        W 4335  17.678   7.099   3.675
32720W        W 4336  22.140  23.940   2.678
32721W        W 4337   6.815  35.288   0.258
32722W        W 4338   2.667   2.161  14.323
32723W        W 4339  13.512  22.032   4.070
32724W        W 4340  15.255  13.149   2.905
32725W        W 4341  22.587  25.289  12.066
32726W        W 4342  36.556  32.661  13.283
32727W        W 4343  16.296  12.698   4.625
32728W        W 4344  30.210  34.041   3.706
32729W        W 4345  21.137  24.279  13.408
32730W        W 4346   7.222  13.179   1.823
32731W        W 4347  31.359  26.185  11.122
32732W        W 4348   1.465  21.712  12.539
32733W        W 4349  35.864  10.595   4.264
32734W        W 4350  14.060   8.457  10.730
32735W        W 4351  25.558  16.407  13.501
32736W        W 4352  17.766  30.834   4.595
32737W        W 4353  12.583  36.055  13.261
32738W        W 4354  28.996  21.997   4.511
32739W        W 4355   2.407  38.794  11.083
32740W        W 4356   0.833  22.516   0.301
32741W        W 4357   5.354   1.495   3.543
32742W        W 4358  20.165   4.593   3.162
32743W        W 4359  14.482  10.494   3.303
32744W        W 4360  31.728  24.671   0.215
32745W        W 4361  13.220  18.176  13.076
32746W        W 4362  10.656   4.352  10.408
32747W        W 4363  17.071   1.361   2.795
32748W        W 4364   7.494  19.228   4.119
32749W        W 4365  30.361   0.341   0.921
32750W        W 4366   1.809  21.311  12.430
32751W        W 4367  38.996   9.613   1.389
32752W        W 4368  44.676  16.343  11.047
32753W        W 4369   0.289   9.881  14.021
32754W        W 4370  30.610  19.504  11.508
32755W        W 4371  25.037  12.287   3.155
32756W        W 4372   9.051  32.484  11.687
32757W        W 4373  33.119   8.007  11.477
32758W        W 4374  36.108  19.323   0.881
32759W        W 4375   3.801  32.671   0.538
32760W        W 4376  31.988  11.862   0.687
32761W        W 4377  36.866  42.498   4.504
32762W        W 4378  35.206  34.515  13.093
32763W        W 4379  43.466  44.049  12.601
32764W        W 4380  25.874  29.647  13.785
32765W        W 4381  10.797  38.993   2.640
32766W        W 4382  43.449  23.721  10.740
32767W        W 4383  44.040   4.677   1.322
32768W        W 4384   5.194   1.341   0.646
32769W        W 4385  32.723  18.606   1.591
32770W        W 4386  19.000  24.429  12.178
32771W        W 4387   5.835   6.344   1.263
32772W        W 4388  22.800  32.214   0.990
32773W        W 4389   5.341   2.045  11.240
32774W        W 4390  32.957  11.853  13.054
32775W        W 4391  42.073  28.628   4.271
32776W        W 4392  41.724  33.532   2.675
32777W        W 4393  26.479  10.597   2.819
32778W        W 4394  23.559  25.805  14.294
32779W        W 4395  16.811  37.435   1.399
32780W        W 4396  18.271   6.006  11.013
32781W        W 4397   9.747  21.790   0.260
32782W        W 4398  38.628  19.763  14.065
32783W        W 4399  19.748  21.822   4.669
32784W        W 4400  16.295  18.432   3.337
32785W        W 4401  12.129   5.948   2.849
32786W        W 4402  23.591  21.642  11.114
32787W        W 4403  25.092  36.389   4.161
32788W        W 4404  13.600   9.840   2.292
32789W        W 4405  27.558  39.776  13.427
32790W        W 4406  29.611  15.774  13.878
32791W        W 4407  14.189   2.039   3.190
32792W        W 4408  16.213  31.487  13.939
32793W        W 4409  12.658  30.370  13.910
32794W        W 4410  29.757  31.600   0.586
32795W        W 4411  40.506  38.916  10.751
32796W        W 4412  35.105  18.285   4.050
32797W        W 4413   4.965  16.691   1.477
32798W        W 4414   1.831  27.976   1.474
32799W        W 4415  24.720  32.409  14.346
32800W        W 4416  27.376   9.267   3.338
32801W        W 4417  39.131  12.348  13.807
32802W        W 4418  16.342  31.688  14.423
32803W        W 4419  16.734  35.826  12.411
32804W        W 4420  33.538   4.451   0.549
32805W        W 4421  15.567  39.848  10.637
32806W        W 4422   5.651  42.955  12.504
32807W        W 4423  13.560  31.574  14.711
32808W        W 4424  15.356  32.853   3.702
32809W        W 4425  15.237  21.604  14.876
32810W        W 4426  13.235  29.501  11.958
32811W        W 4427  16.623  10.207  10.666
32812W        W 4428  31.433  42.776  11.543
32813W        W 4429  36.533  18.597  10.706
32814W        W 4430  10.276  21.107   1.391
32815W        W 4431  23.002  22.152   0.560
32816W        W 4432  11.634   3.015   0.388
32817W        W 4433  25.114  42.675  14.923
32818W        W 4434  13.676  11.049   1.477
32819W        W 4435  36.798   8.390   2.774
32820W        W 4436  25.131  32.470  11.249
32821W        W 4437   1.203  11.445  10.814
32822W        W 4438   7.343   7.244   1.386
32823W        W 4439   3.971   3.027   1.366
32824W        W 4440  29.700  33.422  12.422
32825W        W 4441  11.194  10.636   1.336
32826W        W 4442  38.059  14.418   5.021
32827W        W 4443  18.937  36.495   1.101
32828W        W 4444  19.592   4.993   1.827
32829W        W 4445  21.821  33.578  13.485
32830W        W 4446  18.737   7.134   2.218
32831W        W 4447  33.161  30.729   3.749
32832W        W 4448   2.918  11.286   4.739
32833W        W 4449  22.572   9.620  10.616
32834W        W 4450  38.836  41.214   9.980
32835W        W 4451  37.762  12.980   5.062
32836W        W 4452  25.061   8.651  13.133
32837W        W 4453   6.331  20.135  10.364
32838W        W 4454  40.957  14.749  10.829
32839W        W 4455  10.384  27.924  14.751
32840W        W 4456  38.232  13.169   3.099
32841W        W 4457  14.406  30.660  11.467
32842W        W 4458  11.605  12.439   0.435
32843W        W 4459   0.261  24.569  14.366
32844W        W 4460  35.648  44.301   4.550
32845W        W 4461  16.824  23.173  13.799
32846W        W 4462  26.270  28.026  11.644
32847W        W 4463  20.117  23.936   1.318
32848W        W 4464  24.715   3.654  12.944
32849W        W 4465   8.312   7.651   1.261
32850W        W 4466  25.260   4.813  13.370
32851W        W 4467  25.609   7.298  14.254
32852W        W 4468  30.202  38.993  11.590
32853W        W 4469  19.829   1.474   3.785
32854W        W 4470  43.691  16.081   3.597
32855W        W 4471  28.404   8.750  13.258
32856W        W 4472  35.429  30.901   0.818
32857W        W 4473  26.138  38.106   4.380
32858W        W 4474  38.440  18.572   2.253
32859W        W 4475  35.982  21.843   1.866
32860W        W 4476  28.661  31.608  11.891
32861W        W 4477  27.597  44.472   2.237
32862W        W 4478  41.319  36.353  10.158
32863W        W 4479  13.947   9.616   1.199
32864W        W 4480  27.135  33.212   2.830
32865W        W 4481  34.555  15.388   1.694
32866W        W 4482   3.635   4.166  13.249
32867W        W 4483  22.295  15.615  11.398
32868W        W 4484  38.812  20.275  10.603
32869W        W 4485  23.437  42.992   4.113
32870W        W 4486   1.746  10.100   2.682
32871W        W 4487  20.838  35.596   0.906
32872W        W 4488  27.091  19.971   3.399
32873W        W 4489  42.428  44.201  12.097
32874W        W 4490   0.401  18.159   4.864
32875W        W 4491  13.116   8.388   4.569
32876W        W 4492  30.613  24.133   3.379
32877W        W 4493  26.639  14.879  10.645
32878W        W 4494  39.268   3.214  11.459
32879W        W 4495   1.336  25.220  12.921
32880W        W 4496  40.006  25.226  12.954
32881W        W 4497   3.669  44.009  12.595
32882W        W 4498  26.643  14.812  14.735
32883W        W 4499   7.702   4.364  12.644
32884W        W 4500  40.840   1.830   2.943
32885W        W 4501  26.685  19.120   3.797
32886W        W 4502  12.089  19.542  13.395
32887W        W 4503  12.355  21.180   1.184
32888W        W 4504  14.513   6.662  11.766
32889W        W 4505  36.035  37.992  12.891
32890W        W 4506  19.693  24.611  10.992
32891W        W 4507  42.904  18.608  14.262
32892W        W 4508   6.076  24.125   1.900
32893W        W 4509  44.965  10.738  11.710
32894W        W 4510  39.739   1.795  10.554
32895W        W 4511  37.649  34.910  13.281
32896W        W 4512  19.590  44.121  13.236
32897W        W 4513  10.537   0.460  14.467
32898W        W 4514  11.352  10.630  12.172
32899W        W 4515   0.051   0.287  12.400
32900W        W 4516   6.767  32.932   1.642
32901W        W 4517  41.401  26.481   3.196
32902W        W 4518   1.163  31.957   1.304
32903W        W 4519  11.752   6.165   0.979
32904W        W 4520  42.037  11.346  14.854
32905W        W 4521  21.722  33.080  11.081
32906W        W 4522  24.435  44.972  13.153
32907W        W 4523  17.228  16.161  14.777
32908W        W 4524  15.269  35.075  11.681
32909W        W 4525   4.701  42.313   1.363
32910W        W 4526  16.087   3.692   0.463
32911W        W 4527  30.685  38.376  11.375
32912W        W 4528  22.524  41.310   4.258
32913W        W 4529  17.365  41.423  13.908
32914W        W 4530  15.556   4.430  10.240
32915W        W 4531  23.726  20.301  11.584
32916W        W 4532   0.352  17.234   0.703
32917W        W 4533  15.671   8.850  10.030
32918W        W 4534  15.653  44.704  13.014
32919W        W 4535  34.452  16.067  12.639
32920W        W 4536  41.375  44.887   4.627
32921W        W 4537  11.748  44.889  13.832
32922W        W 4538  17.307  11.093   0.947
32923W        W 4539  21.621  38.411  14.320
32924W        W 4540  34.275  36.029  12.533
32925W        W 4541  42.499   2.470   2.755
32926W        W 4542   5.075  12.902   3.649
32927W        W 4543   9.618  11.177   1.275
32928W        W 4544   9.656   9.969  13.558
32929W        W 4545  35.197   1.505  14.091
32930W        W 4546  39.019   0.261   1.662
32931W        W 4547  14.837   4.041   0.796
32932W        W 4548  27.546  23.666  12.292
32933W        W 4549  39.585   1.919   0.327
32934W        W 4550  19.040  44.987  14.067
32935W        W 4551  36.817  27.558  13.401
32936W        W 4552  23.797   0.768  11.893
32937W        W 4553  36.499  28.145  13.046
32938W        W 4554  42.267  14.374  11.312
32939W        W 4555  24.572  13.315  12.358
32940W        W 4556  44.295  32.824   2.853
32941W        W 4557  22.986  34.275   3.237
32942W        W 4558  39.483  25.900   1.319
32943W        W 4559   2.419  35.691  13.764
32944W        W 4560  44.879   9.089   4.653
32945W        W 4561  18.927  10.743  10.524
32946W        W 4562  19.698   6.281   1.136
32947W        W 4563   6.229   8.954   0.861
32948W        W 4564  37.182  26.626   1.950
32949W        W 4565  33.825  35.153  14.858
32950W        W 4566  22.465  22.598  11.077
32951W        W 4567   5.848  34.913  13.346
32952W        W 4568  37.828   5.581  12.039
32953W        W 4569  14.596  17.202   4.131
32954W        W 4570  36.532  30.688   1.784
32955W        W 4571   1.775  16.191   4.636
32956W        W 4572  33.894  42.187   3.454
32957W        W 4573  40.429  35.748   1.484
32958W        W 4574  16.988  15.776   0.008
32959W        W 4575  40.366  26.629  10.457
32960W        W 4576  21.478  13.147   3.709
32961W        W 4577  27.206   5.371   2.251
32962W        W 4578  36.992   8.629   2.266
32963W        W 4579  37.001  32.864  10.723
32964W        W 4580  30.983   5.042  12.016
32965W        W 4581   6.963  17.754  11.145
32966W        W 4582  27.643  21.308   4.131
32967W        W 4583  33.491  29.367  14.477
32968W        W 4584   4.841  22.331   9.883
32969W        W 4585  11.571  15.737  14.431
32970W        W 4586  37.140  28.908  12.037
32971W        W 4587  13.114   5.380  11.560
32972W        W 4588  10.597  40.526  14.986
32973W        W 4589   4.458   4.927  13.543
32974W        W 4590   4.960  21.689  10.718
32975W        W 4591  14.413   9.501   4.886
32976W        W 4592  15.095  44.782   3.598
32977W        W 4593   7.375  39.231   2.734
32978W        W 4594  41.796  20.311  11.179
32979W        W 4595   6.592  36.499   2.754
32980W        W 4596  30.203  29.171   2.817
32981W        W 4597   3.676  39.759   3.163
32982W        W 4598  29.518  16.347   0.264
32983W        W 4599  37.356  31.968   0.325
32984W        W 4600  23.768  26.409   2.837
32985W        W 4601  21.463  33.847   4.358
32986W        W 4602   6.125  23.697  11.194
32987W        W 4603  38.327  22.378   3.668
32988W        W 4604  39.973   2.935  14.033
32989W        W 4605  37.451  43.410   3.861
32990W        W 4606  18.225  24.526   0.694
32991W        W 4607  28.950  14.330  12.005
32992W        W 4608  42.519  36.476   4.600
32993W        W 4609  37.113  29.502  13.430
32994W        W 4610  44.311  43.955   3.140
32995W        W 4611  21.262   6.595   3.609
32996W        W 4612  31.212  26.420  13.151
32997W        W 4613   7.402  35.092  12.190
32998W        W 4614   0.226  31.987   1.271
32999W        W 4615  38.380  42.753  12.098
33000W        W 4616  24.609  26.091  12.060
33001W        W 4617   1.189  26.063   0.249
33002W        W 4618  15.595  43.278  13.188
33003W        W 4619  20.333  25.219  11.059
33004W        W 4620  29.968  43.773  11.849
33005W        W 4621  34.609  26.569  12.120
33006W        W 4622  31.641  36.000   2.246
33007W        W 4623  35.424  35.616   0.151
33008W        W 4624  19.732   0.266   4.132
33009W        W 4625   2.961  38.458   2.740
33010W        W 4626  21.987   2.680  13.357
33011W        W 4627  40.247  40.577  14.334
33012W        W 4628   9.425  44.484   4.891
33013W        W 4629  12.758  25.933   3.356
33014W        W 4630  44.135  12.377   2.767
33015W        W 4631  34.755   4.804   1.795
33016W        W 4632  41.253   5.262  14.791
33017W        W 4633  29.187   8.075   1.209
33018W        W 4634  33.577  23.875   3.210
33019W        W 4635  19.610  28.101   2.748
33020W        W 4636  12.152  26.388  14.920
33021W        W 4637  30.966  24.964   1.809
33022W        W 4638   1.839  38.107  11.968
33023W        W 4639  30.640  41.834  11.500
33024W        W 4640   2.946  13.982   2.005
33025W        W 4641  10.747  43.766  14.868
33026W        W 4642   9.939  19.491  11.899
33027W        W 4643   2.289  11.114  11.576
33028W        W 4644  11.269  19.323  11.167
33029W        W 4645  25.235  44.536  12.450
33030W        W 4646   3.981  27.748   1.933
33031W        W 4647  23.590  18.267  14.946
33032W        W 4648  44.877  44.756  12.360
33033W        W 4649  13.543  29.814   3.249
33034W        W 4650  42.277  22.265  14.426
33035W        W 4651  32.428  32.917   2.932
33036W        W 4652  24.281  42.558  10.387
33037W        W 4653  15.416   6.900  10.128
33038W        W 4654  27.993  24.398   0.853
33039W        W 4655  38.703  16.691   0.503
33040W        W 4656  20.085  43.010   1.028
33041W        W 4657  22.206  36.246  12.397
33042W        W 4658  28.702  13.172   3.177
33043W        W 4659  27.678  43.966   2.278
33044W        W 4660  31.882  33.384  12.893
33045W        W 4661   6.873  40.951  13.623
33046W        W 4662  41.717  44.532  13.487
33047W        W 4663   2.519  12.161   2.695
33048W        W 4664   6.993   8.712   1.236
33049W        W 4665  20.248   5.811   0.279
33050W        W 4666  13.997   5.911  11.690
33051W        W 4667  24.475   3.769  12.476
33052W        W 4668  34.094  43.434   1.289
33053W        W 4669  44.913  42.014  11.909
33054W        W 4670  41.345  17.176  13.643
33055W        W 4671   0.911  11.125   4.927
33056W        W 4672   0.505  33.146   0.320
33057W        W 4673  26.014   8.100   3.190
33058W        W 4674  36.790  10.871  11.024
33059W        W 4675  42.991  19.517   4.943
33060W        W 4676  27.117  34.378  12.018
33061W        W 4677  15.165  40.880   3.282
33062W        W 4678  35.320   5.392   3.673
33063W        W 4679   0.842  24.853   0.458
33064W        W 4680  11.531  29.562   4.254
33065W        W 4681  34.702   5.689  10.675
33066W        W 4682   8.901  37.588   2.459
33067W        W 4683  10.298  22.092  11.879
33068W        W 4684   2.957  30.502   4.935
33069W        W 4685   7.848  30.558   5.096
33070W        W 4686  32.717  41.389   2.214
33071W        W 4687  14.623   0.516  12.750
33072W        W 4688  34.353   0.253  14.527
33073W        W 4689  42.319   1.448   2.410
33074W        W 4690   6.279   5.704   0.274
33075W        W 4691   7.837  10.909  14.743
33076W        W 4692  18.902   7.609   4.183
33077W        W 4693  31.753  33.380  11.050
33078W        W 4694  38.924  30.395  13.807
33079W        W 4695  24.445   8.144  14.377
33080W        W 4696  39.439   6.926   4.029
33081W        W 4697  10.370  14.244  12.496
33082W        W 4698  40.055  44.887  11.060
33083W        W 4699   1.503  11.946   2.803
33084W        W 4700  27.237  39.603  12.225
33085W        W 4701  32.349  19.706   0.389
33086W        W 4702  29.614  20.595  12.802
33087W        W 4703  17.108   7.711   1.192
33088W        W 4704  15.321  18.060  12.313
33089W        W 4705  28.957  27.895   1.604
33090W        W 4706  39.423  39.344  14.777
33091W        W 4707  18.249  10.663   4.022
33092W        W 4708  30.540  44.041  13.496
33093W        W 4709  33.149  42.597  11.032
33094W        W 4710   2.501  15.831   3.848
33095W        W 4711  28.055  42.736  10.654
33096W        W 4712  19.747  13.722   4.635
33097W        W 4713   3.854  22.936  11.116
33098W        W 4714   0.843  27.080  13.356
33099W        W 4715  32.531  36.250  13.896
33100W        W 4716  36.541  11.833  10.111
33101W        W 4717  37.382  33.109  11.964
33102W        W 4718  12.242  24.076   0.256
33103W        W 4719  11.609  24.686   0.416
33104W        W 4720  28.473  28.048  10.745
33105W        W 4721  22.442   3.775  13.910
33106W        W 4722  29.406  22.625   0.854
33107W        W 4723  23.776  14.215   0.013
33108W        W 4724   6.899  14.366   0.808
33109W        W 4725  19.274   2.644  13.099
33110W        W 4726  27.680   4.261  14.457
33111W        W 4727   0.714  14.338   1.000
33112W        W 4728   7.377  19.644   2.722
33113W        W 4729  20.058  40.589  13.397
33114W        W 4730  36.407   4.838   1.437
33115W        W 4731  17.903  14.228   4.110
33116W        W 4732   2.773  13.093   2.343
33117W        W 4733  43.836  30.934  10.473
33118W        W 4734   5.908  31.032  14.492
33119W        W 4735  27.386  26.657   3.871
33120W        W 4736  38.844  16.738   1.868
33121W        W 4737  25.432   5.451  13.925
33122W        W 4738   4.242   3.895   4.829
33123W        W 4739   5.317  30.252   4.159
33124W        W 4740   4.390  33.034  13.899
33125W        W 4741   3.869  13.789   0.390
33126W        W 4742  37.398  34.762   4.132
33127W        W 4743  23.536  41.243   3.330
33128W        W 4744   1.297  36.593   2.375
33129W        W 4745  39.378  19.650   1.271
33130W        W 4746   7.417  24.636  10.697
33131W        W 4747  27.132  36.422  12.947
33132W        W 4748  14.085  31.961   3.446
33133W        W 4749  42.432  20.627   4.580
33134W        W 4750  12.236  30.604   4.746
33135W        W 4751  15.758  18.510  10.182
33136W        W 4752   8.038  15.912   4.880
33137W        W 4753  23.405  14.756  14.497
33138W        W 4754  16.226  21.528   2.248
33139W        W 4755  18.787   0.753  11.698
33140W        W 4756  29.704   1.435   1.775
33141W        W 4757  25.715  28.225   2.269
33142W        W 4758  24.701  21.565   1.228
33143W        W 4759   1.586   6.684   4.064
33144W        W 4760  39.192  19.141   4.770
33145W        W 4761   8.098  11.508   3.222
33146W        W 4762  32.493  25.205   4.509
33147W        W 4763   9.101   2.902   0.535
33148W        W 4764   4.555  26.143  13.478
33149W        W 4765  39.546  26.922  13.205
33150W        W 4766   4.179  32.806   3.426
33151W        W 4767  36.362  38.072  12.469
33152W        W 4768  12.662  16.765  13.484
33153W        W 4769  35.434   5.342   1.284
33154W        W 4770  20.944  12.609  11.050
33155W        W 4771   7.647  37.458   4.055
33156W        W 4772   7.658  16.499  14.907
33157W        W 4773  35.784  27.460   0.727
33158W        W 4774  42.807  31.505  13.094
33159W        W 4775  13.893  21.806  14.811
33160W        W 4776  34.056  40.737   3.675
33161W        W 4777  23.664  22.591   3.629
33162W        W 4778  17.785  15.780  11.757
33163W        W 4779  43.000  32.666   4.939
33164W        W 4780  20.689  18.158   1.688
33165W        W 4781   5.903  20.338  13.946
33166W        W 4782  41.954  14.760   2.491
33167W        W 4783  19.165  38.357   3.249
33168W        W 4784   2.261   9.349   4.885
33169W        W 4785  10.566  32.926  11.832
33170W        W 4786  32.843   1.026   0.300
33171W        W 4787  21.933  27.076  10.639
33172W        W 4788  19.814  12.381   0.443
33173W        W 4789  32.858  28.865   0.778
33174W        W 4790   9.441  28.928   2.829
33175W        W 4791  22.795  23.180  12.955
33176W        W 4792   7.292   0.460   4.660
33177W        W 4793  43.868  32.318   1.558
33178W        W 4794  11.149  11.165  13.010
33179W        W 4795  34.974  39.485  11.211
33180W        W 4796  15.700  18.272  13.556
33181W        W 4797   0.841  14.131  14.515
33182W        W 4798  27.298   6.961  12.972
33183W        W 4799  16.753  29.446  11.444
33184W        W 4800  18.966  27.484  13.499
33185W        W 4801  42.883  33.073  13.249
33186W        W 4802  10.130  44.157  14.338
33187W        W 4803  11.174  30.864  11.086
33188W        W 4804   4.712  23.189  12.423
33189W        W 4805  24.119   7.186  14.347
33190W        W 4806   8.155  33.443  13.270
33191W        W 4807  37.447  11.978  13.492
33192W        W 4808  37.994  35.634   2.664
33193W        W 4809  11.441  17.586  10.760
33194W        W 4810  26.336  28.627   0.997
33195W        W 4811  15.591  36.801   1.102
33196W        W 4812   2.778  36.301  11.680
33197W        W 4813  38.892  23.563  11.229
33198W        W 4814  34.991  36.054   4.660
33199W        W 4815  42.901  33.345   0.274
33200W        W 4816  28.989  11.321  14.767
33201W        W 4817   9.770  10.354   0.085
33202W        W 4818  32.635  23.725   3.704
33203W        W 4819  26.750  15.578   1.441
33204W        W 4820   8.089   2.382  14.168
33205W        W 4821  14.046  16.264   2.927
33206W        W 4822  32.549   9.874  10.456
33207W        W 4823   2.296   7.251   1.996
33208W        W 4824  11.572  16.625   3.799
33209W        W 4825  14.215  18.018  14.750
33210W        W 4826  20.117  29.986   1.395
33211W        W 4827  17.022  35.353  14.752
33212W        W 4828  37.445  28.897  13.505
33213W        W 4829  17.665  33.955   4.364
33214W        W 4830  18.481  26.523  13.373
33215W        W 4831   3.149  35.190   1.281
33216W        W 4832   6.349  11.773  11.096
33217W        W 4833  42.978  33.444   1.318
33218W        W 4834  26.960  41.019  13.414
33219W        W 4835  15.311   7.120  11.113
33220W        W 4836  19.854  32.455   4.598
33221W        W 4837  36.961   0.436   0.264
33222W        W 4838   0.827  40.858  14.756
33223W        W 4839   7.541  18.736  14.541
33224W        W 4840  38.632  32.961  11.468
33225W        W 4841  12.626  36.615  11.028
33226W        W 4842  32.135  11.450  12.561
33227W        W 4843  31.980   1.898  12.442
33228W        W 4844  42.891   0.386   1.846
33229W        W 4845  30.728  11.413  10.603
33230W        W 4846  18.561  29.020  13.907
33231W        W 4847  38.303  34.467   0.771
33232W        W 4848  39.204  17.601  12.917
33233W        W 4849  38.903  33.849  11.844
33234W        W 4850   4.797  42.445  10.691
33235W        W 4851  33.408  14.018   4.866
33236W        W 4852  39.476  18.537   3.711
33237W        W 4853  33.052  32.390   0.656
33238W        W 4854  16.982  26.108  14.973
33239W        W 4855  29.660  33.840   1.419
33240W        W 4856  29.843   9.359  14.776
33241W        W 4857  27.647  31.617  11.079
33242W        W 4858  30.015  14.737  10.632
33243W        W 4859  24.567  13.087   4.595
33244W        W 4860  20.295  44.457  13.410
33245W        W 4861  24.073  17.692   3.310
33246W        W 4862  13.427  43.607  14.918
33247W        W 4863  11.745  26.489   2.329
33248W        W 4864  33.812   7.705   2.908
33249W        W 4865  19.077  15.657  13.865
33250W        W 4866  32.594  34.351   3.603
33251W        W 4867  15.783  10.833  13.607
33252W        W 4868   0.732  26.042  11.921
33253W        W 4869  39.549  41.078  13.915
33254W        W 4870  24.585  18.458  13.510
33255W        W 4871  40.520  23.287   3.659
33256W        W 4872  13.158  44.996  13.935
33257W        W 4873  38.117  20.133  12.535
33258W        W 4874  44.219  34.938   5.057
33259W        W 4875  24.187  10.436  11.154
33260W        W 4876  16.075  35.917   4.595
33261W        W 4877  11.585  36.514   4.063
33262W        W 4878  27.236  16.514  12.948
33263W        W 4879  12.075  30.151   3.805
33264W        W 4880  43.920  38.064   4.013
33265W        W 4881   5.782  40.404   2.928
33266W        W 4882  36.163  33.671  14.277
33267W        W 4883   5.177   3.388   2.307
33268W        W 4884   7.872  33.088  12.088
33269W        W 4885   5.191  32.682   2.663
33270W        W 4886   6.813  13.870  13.705
33271W        W 4887  37.882  33.298   0.417
33272W        W 4888  35.130  36.997   4.585
33273W        W 4889  19.336  13.147   2.706
33274W        W 4890  22.271  30.168   1.389
33275W        W 4891  12.498   1.300   3.329
33276W        W 4892  30.448  13.973   4.811
33277W        W 4893   2.813  28.066  13.835
33278W        W 4894  27.941  16.768   2.912
33279W        W 4895  14.795  39.374   1.618
33280W        W 4896  30.472  22.734   1.771
33281W        W 4897   9.179  42.080   3.741
33282W        W 4898  26.428  36.790   2.512
33283W        W 4899  32.510  35.577   1.968
33284W        W 4900  20.584  28.506  14.863
33285W        W 4901  44.181  24.649   2.374
33286W        W 4902  11.739   6.659   4.496
33287W        W 4903  43.996  44.032   4.161
33288W        W 4904   5.689  16.702  12.039
33289W        W 4905  11.128  34.101   0.020
33290W        W 4906  12.560  25.624   2.335
33291W        W 4907  33.892  34.649  14.924
33292W        W 4908  12.923  33.918  14.063
33293W        W 4909  19.857  27.457  12.478
33294W        W 4910   9.848  35.150  13.930
33295W        W 4911   6.950   7.228   3.361
33296W        W 4912   8.413  35.607  12.950
33297W        W 4913  37.770  35.055   1.104
33298W        W 4914  23.196  35.323   1.895
33299W        W 4915   3.255  39.817  11.546
33300W        W 4916  34.447  35.189  13.129
33301W        W 4917  29.544  17.863   3.688
33302W        W 4918   6.817  23.607   1.233
33303W        W 4919   7.401  18.755   3.245
33304W        W 4920  20.190   1.127   3.936
33305W        W 4921  34.756  37.940  14.302
33306W        W 4922  20.689  17.381   0.405
33307W        W 4923  44.029  17.283  13.745
33308W        W 4924  41.656   0.730  14.202
33309W        W 4925  23.603  17.231  14.003
33310W        W 4926   6.774  38.359   2.751
33311W        W 4927  33.409   8.595   4.136
33312W        W 4928  32.899  30.066  10.624
33313W        W 4929   5.358  20.553   0.675
33314W        W 4930  32.376  14.711  11.953
33315W        W 4931   6.637  34.905   1.856
33316W        W 4932   2.006  38.621   3.188
33317W        W 4933   0.984   2.677  11.359
33318W        W 4934  19.802   1.565  14.760
33319W        W 4935   3.224   5.379  11.960
33320W        W 4936  42.041  41.620  11.512
33321W        W 4937  25.974  23.648   4.630
33322W        W 4938  33.523  31.193   2.608
33323W        W 4939  40.961  18.634  14.033
33324W        W 4940  24.099  12.814  12.032
33325W        W 4941  20.978  23.180   2.402
33326W        W 4942   1.523  41.545  11.498
33327W        W 4943   2.474  43.149   1.811
33328W        W 4944  19.549  43.454  14.535
33329W        W 4945  23.720  36.774   1.326
33330W        W 4946  20.804   0.350   0.355
33331W        W 4947  20.547   1.268  13.910
33332W        W 4948  25.287  10.707   0.811
33333W        W 4949   8.482   4.504   3.745
33334W        W 4950   3.414  32.838   0.009
33335W        W 4951  14.721  15.508   1.146
33336W        W 4952  10.616  44.416   1.190
33337W        W 4953  15.291  31.002  14.761
33338W        W 4954   8.493  17.063   3.246
33339W        W 4955  35.530  28.629  13.463
33340W        W 4956   3.702  16.827   3.111
33341W        W 4957   2.736  40.975   0.020
33342W        W 4958  34.324  17.724   3.105
33343W        W 4959  20.978   7.258  10.792
33344W        W 4960  17.337   4.432  12.469
33345W        W 4961  16.868  11.066  12.923
33346W        W 4962   5.193   3.282  13.773
33347W        W 4963   1.866   8.594  13.117
33348W        W 4964  43.917  10.604  10.718
33349W        W 4965  39.797  11.483  13.807
33350W        W 4966   0.988  10.268  10.177
33351W        W 4967  26.567  21.120  12.866
33352W        W 4968   5.833  25.910  11.516
33353W        W 4969  29.013  37.148   0.319
33354W        W 4970  37.054   0.995   0.613
33355W        W 4971  11.945  13.898   0.779
33356W        W 4972  34.988   3.517  11.465
33357W        W 4973  20.763   2.835  11.484
33358W        W 4974   6.803  40.807   4.425
33359W        W 4975   4.944  33.354   3.688
33360W        W 4976   2.828  16.803   3.080
33361W        W 4977   5.867   4.962   4.681
33362W        W 4978  11.261  27.676  10.568
33363W        W 4979  27.419   6.437   2.120
33364W        W 4980  37.344  13.058   0.249
33365W        W 4981  21.642  29.509   4.501
33366W        W 4982   0.421  40.442   4.614
33367W        W 4983   0.924  33.562  14.763
33368W        W 4984  12.069  12.290  12.988
33369W        W 4985   9.707  35.383  13.454
33370W        W 4986  17.687  39.743   2.179
33371W        W 4987  26.576   8.704   9.818
33372W        W 4988  27.994  19.971   0.265
33373W        W 4989  21.084   9.468  11.536
33374W        W 4990   6.267   4.746   4.463
33375W        W 4991  26.722   5.797   0.863
33376W        W 4992  41.259   0.712  13.868
33377W        W 4993  13.743  40.038  11.185
33378W        W 4994  36.616  11.237   1.248
33379W        W 4995  21.510  15.656  12.014
33380W        W 4996  11.083  41.515  11.398
33381W        W 4997  25.506  15.208  12.851
33382W        W 4998   8.874   9.642   1.816
33383W        W 4999  33.401   1.911   2.368
33384W        W 5000  21.151  25.552   3.640
33385W        W 5001  31.163  20.260   4.728
33386W        W 5002  35.470  22.776  14.600
33387W        W 5003  30.613  39.770   4.147
33388W        W 5004   7.766   7.673  12.885
33389W        W 5005  34.079  20.637   4.028
33390W        W 5006  41.827  27.913  10.653
33391W        W 5007  35.861   5.966  11.754
33392W        W 5008   6.926   2.209  12.940
33393W        W 5009  44.373  34.396  10.633
33394W        W 5010  30.608  43.499  13.522
33395W        W 5011  17.770   1.436   4.622
33396W        W 5012  31.115  12.551   4.045
33397W        W 5013  29.208  25.007  11.938
33398W        W 5014  43.255   0.396   4.724
33399W        W 5015  39.893  10.176  12.544
33400W        W 5016  43.345  15.801  13.010
33401W        W 5017  13.280  31.673  12.478
33402W        W 5018  22.060  20.256   1.884
33403W        W 5019   6.362  43.214   4.527
33404W        W 5020   1.251  27.208   4.401
33405W        W 5021   6.484  12.788  12.917
33406W        W 5022  32.657  42.889  14.065
33407W        W 5023  21.672  44.659  13.827
33408W        W 5024   5.667  39.049   1.007
33409W        W 5025  22.151  12.530  13.392
33410W        W 5026  30.424   3.320  10.737
33411W        W 5027  20.246  26.909   2.253
33412W        W 5028  34.461   1.443  10.758
33413W        W 5029  18.611  11.200  13.203
33414W        W 5030  15.640  29.648  14.431
33415W        W 5031   7.885  20.970   1.408
33416W        W 5032   8.008  11.703  12.128
33417W        W 5033  25.057  14.672  12.574
33418W        W 5034  18.758  20.503   3.445
33419W        W 5035  12.393  38.536  11.151
33420W        W 5036   9.749   0.013  11.194
33421W        W 5037  12.367  43.631   4.303
33422W        W 5038  16.740  28.871  14.324
33423W        W 5039  12.277   9.549  11.625
33424W        W 5040  34.715  24.626  11.496
33425W        W 5041  32.514   6.304  10.839
33426W        W 5042   4.829  11.288  10.726
33427W        W 5043  43.907  24.214  11.181
33428W        W 5044   2.993   4.455   0.738
33429W        W 5045  18.947  40.237  11.090
33430W        W 5046  15.428   0.423  11.672
33431W        W 5047  12.741  39.333  13.115
33432W        W 5048  34.041  44.519   0.294
33433W        W 5049   8.936  18.249   0.907
33434W        W 5050  11.841  19.159   1.745
33435W        W 5051  32.880  34.828  12.322
33436W        W 5052   5.370  25.834  12.937
33437W        W 5053  18.037  37.495   0.380
33438W        W 5054  42.892  26.911  14.358
33439W        W 5055   6.534  29.876   1.683
33440W        W 5056  25.572   4.405   3.203
33441W        W 5057  16.674  41.666  10.439
33442W        W 5058   8.776  14.356  10.606
33443W        W 5059  26.539  24.548   4.806
33444W        W 5060  36.158  24.358   3.308
33445W        W 5061   5.809  30.932   2.554
33446W        W 5062   9.716  16.895   1.707
33447W        W 5063  18.498   3.320  13.054
33448W        W 5064  19.586  40.306  11.879
33449W        W 5065  22.253  25.135  11.143
33450W        W 5066  18.650  38.999   4.408
33451W        W 5067   2.967  26.485   0.221
33452W        W 5068  28.061  43.318   1.949
33453W        W 5069  18.677  38.622  12.010
33454W        W 5070   1.289  14.736  12.386
33455W        W 5071  44.390  10.374  13.896
33456W        W 5072  38.290  10.717  14.974
33457W        W 5073   7.208   9.268   0.833
33458W        W 5074  16.090  31.455   1.250
33459W        W 5075  20.583   6.679   1.580
33460W        W 5076  35.643  13.646  13.478
33461W        W 5077  29.690   3.463   0.416
33462W        W 5078  15.265   1.033  12.949
33463W        W 5079  32.007  32.907  14.023
33464W        W 5080   6.724  38.925  10.393
33465W        W 5081  22.482   6.658   0.903
33466W        W 5082  34.674   6.007   3.740
33467W        W 5083  15.616  34.834   4.075
33468W        W 5084  43.406  32.162  13.448
33469W        W 5085  12.465  10.946  14.653
33470W        W 5086   8.741  31.053  12.879
33471W        W 5087  44.014  43.367  10.680
33472W        W 5088  14.652  35.922   4.224
33473W        W 5089  34.103  40.764  14.247
33474W        W 5090  22.688  14.199  12.531
33475W        W 5091  25.535   5.257  13.468
33476W        W 5092  22.231  15.314   0.722
33477W        W 5093  10.851  36.145   4.770
33478W        W 5094  32.479  28.107  14.474
33479W        W 5095  19.724  13.079  10.930
33480W        W 5096  41.878  34.839   0.830
33481W        W 5097  22.647  23.230  11.058
33482W        W 5098  42.041   1.315   0.459
33483W        W 5099  35.090  12.630   5.133
33484W        W 5100  43.522   7.915  10.816
33485W        W 5101  39.851   1.851   4.737
33486W        W 5102  32.446  38.819  11.116
33487W        W 5103   2.646  43.965  12.371
33488W        W 5104  30.931  35.934  12.033
33489W        W 5105   2.896  11.827   0.770
33490W        W 5106  12.142  29.254   4.780
33491W        W 5107  36.049  15.283  13.139
33492W        W 5108  36.595  29.475  12.534
33493W        W 5109  16.295  42.803   1.282
33494W        W 5110  38.830   7.288   4.628
33495W        W 5111  29.021  26.958  12.227
33496W        W 5112  21.031  32.878  12.599
33497W        W 5113  42.805  39.430  12.738
33498W        W 5114   7.626  20.295  11.625
33499W        W 5115  37.495  18.785  11.305
33500W        W 5116  16.684  25.387   0.943
33501W        W 5117  14.751  23.599   2.593
33502W        W 5118  15.187  44.060  12.635
33503W        W 5119   7.996  40.981   2.256
33504W        W 5120  43.201  22.044   1.228
33505W        W 5121  15.646   2.349   4.236
33506W        W 5122  39.943  38.846   2.044
33507W        W 5123  20.352   1.770  13.942
33508W        W 5124   9.898  17.070   1.236
33509W        W 5125  27.880  10.772  10.964
33510W        W 5126  42.312  10.652   0.683
33511W        W 5127  18.677  19.230   3.721
33512W        W 5128  18.557  38.147  13.815
33513W        W 5129  40.422   3.907  11.614
33514W        W 5130  39.799  22.130   1.132
33515W        W 5131   2.278  26.179   2.749
33516W        W 5132   7.882  18.179  13.056
33517W        W 5133  23.409  19.060  11.935
33518W        W 5134  24.874  25.473   0.378
33519W        W 5135  11.387  26.072  13.487
33520W        W 5136  14.600  27.576  13.531
33521W        W 5137   6.885  10.413   1.696
33522W        W 5138  15.037   2.347  11.969
33523W        W 5139  20.131  42.687  14.990
33524W        W 5140  41.265  15.657  12.411
33525W        W 5141  20.460  25.989   2.208
33526W        W 5142  36.550  16.179  10.997
33527W        W 5143  44.088  43.279   4.639
33528W        W 5144  23.161  43.170  12.796
33529W        W 5145  14.603  17.073  13.740
33530W        W 5146  38.051  40.096  14.475
33531W        W 5147  39.850  24.457  14.824
33532W        W 5148  42.915  26.359   0.235
33533W        W 5149  10.755  40.363   4.002
33534W        W 5150  24.696  24.173   0.997
33535W        W 5151  44.994   8.594  12.071
33536W        W 5152  38.877  33.524   3.747
33537W        W 5153  30.126  17.000   2.518
33538W        W 5154  21.982   1.366   0.532
33539W        W 5155  21.154  26.426  12.497
33540W        W 5156  31.116  14.300  14.787
33541W        W 5157  43.018   6.625   2.213
33542W        W 5158  18.003  16.127   0.823
33543W        W 5159  40.515  18.413   4.629
33544W        W 5160  36.327  21.836   0.477
33545W        W 5161  10.649  24.995  12.925
33546W        W 5162  16.098   4.703   2.000
33547W        W 5163   0.703  14.639   4.091
33548W        W 5164  44.821   5.333  14.975
33549W        W 5165  31.717  20.614   4.234
33550W        W 5166  39.499  19.523  13.135
33551W        W 5167  11.529  10.384   3.793
33552W        W 5168   5.928   0.831   4.024
33553W        W 5169  13.242  30.968   2.980
33554W        W 5170  36.526  39.534   4.587
33555W        W 5171  10.609  36.653   0.951
33556W        W 5172  40.253  32.702  13.343
33557W        W 5173   5.475  32.572  13.396
33558W        W 5174  13.802   3.642  12.573
33559W        W 5175  35.892   2.730  12.496
33560W        W 5176  18.262   5.264   1.190
33561W        W 5177  32.104  14.181  14.082
33562W        W 5178   9.822  26.170  12.235
33563W        W 5179  25.302  11.045  10.388
33564W        W 5180  13.203   5.970   1.507
33565W        W 5181  37.881   9.853  12.904
33566W        W 5182  28.664  31.154  11.555
33567W        W 5183  20.602  17.554   4.172
33568W        W 5184  13.186  40.449   2.928
33569W        W 5185   3.397  13.305  12.479
33570W        W 5186  13.298   4.851   0.376
33571W        W 5187  44.895  27.631  12.589
33572W        W 5188   7.741   3.968  14.399
33573W        W 5189  39.860  36.820  12.320
33574W        W 5190   0.005   4.857  14.321
33575W        W 5191   4.355  24.423  12.017
33576W        W 5192   5.138  19.544   2.311
33577W        W 5193  12.417  15.369  14.389
33578W        W 5194  29.083  12.740  13.381
33579W        W 5195  20.663   2.494  13.413
33580W        W 5196  42.540  33.825  10.695
33581W        W 5197  18.723   8.937   3.798
33582W        W 5198   3.315   1.224   0.385
33583W        W 5199  20.103   8.758   0.869
33584W        W 5200   5.804   5.732  12.191
33585W        W 5201  38.838  26.476  10.181
33586W        W 5202  18.117   8.260   3.785
33587W        W 5203  34.059  27.266  12.355
33588W        W 5204  39.719  38.281   1.006
33589W        W 5205  36.942  21.073   4.648
33590W        W 5206   6.464  24.053  14.861
33591W        W 5207  13.827  14.357   0.523
33592W        W 5208   4.802  11.840   1.117
33593W        W 5209  14.858  16.797   4.331
33594W        W 5210   9.802  14.828   1.904
33595W        W 5211  38.450   4.492   3.226
33596W        W 5212  11.158  34.562   0.271
33597W        W 5213   5.729   4.771   3.755
33598W        W 5214   7.863  39.756   2.405
33599W        W 5215  33.078  22.095  10.741
33600W        W 5216  37.712   6.313  13.999
33601W        W 5217   5.360  40.558   3.199
33602W        W 5218  24.863  35.949  12.325
33603W        W 5219  11.456  12.567   3.915
33604W        W 5220  20.196  28.514   4.198
33605W        W 5221   3.251   4.718  12.465
33606W        W 5222  15.272  41.055   0.298
33607W        W 5223   8.835  26.996   4.255
33608W        W 5224  10.808   6.092  14.306
33609W        W 5225  35.975  38.851   1.794
33610W        W 5226  41.561  22.629   3.516
33611W        W 5227   0.919  23.514   2.866
33612W        W 5228   7.246  17.106  10.664
33613W        W 5229   3.410  41.728  14.338
33614W        W 5230  18.669  32.840  11.648
33615W        W 5231  18.260   4.043  11.562
33616W        W 5232  24.017  32.143  12.320
33617W        W 5233  21.234  29.847  10.795
33618W        W 5234  15.254  20.581   1.870
33619W        W 5235   4.535  23.557   3.330
33620W        W 5236  35.138  23.683  12.081
33621W        W 5237  22.692  20.738  13.466
33622W        W 5238  16.292  15.626  13.291
33623W        W 5239  20.167   9.425  12.436
33624W        W 5240   3.379  33.863  12.029
33625W        W 5241   3.429  40.551  12.607
33626W        W 5242  36.846   5.511  13.041
33627W        W 5243   8.702  34.458   3.904
33628W        W 5244  32.606  17.490   3.437
33629W        W 5245   7.961   2.551  13.337
33630W        W 5246  36.076  34.541   3.097
33631W        W 5247   2.329   0.271  13.291
33632W        W 5248   5.825  41.927   0.777
33633W        W 5249   4.030  41.461  14.891
33634W        W 5250  23.939  30.160   1.433
33635W        W 5251  29.950   8.694   3.375
33636W        W 5252  26.500  21.709  13.508
33637W        W 5253  40.202  18.770   0.473
33638W        W 5254  12.188  10.848   4.255
33639W        W 5255  37.107  10.233  13.204
33640W        W 5256  26.643  37.522  14.346
33641W        W 5257  13.805  25.437  11.639
33642W        W 5258  21.270   9.564   4.656
33643W        W 5259  44.948  32.525  11.707
33644W        W 5260   9.219  39.847  14.664
33645W        W 5261  35.346  18.088  14.301
33646W        W 5262  12.284  16.324  12.828
33647W        W 5263  14.339  34.119  11.173
33648W        W 5264  28.998  40.044  13.408
33649W        W 5265  26.898  27.472  14.015
33650W        W 5266  22.740  29.652   2.747
33651W        W 5267  20.441  27.627  14.840
33652W        W 5268  13.232  33.197  10.430
33653W        W 5269  17.122  33.325  13.640
33654W        W 5270  34.581  11.118   1.954
33655W        W 5271  38.308  13.161  12.911
33656W        W 5272  31.931  42.588  11.484
33657W        W 5273  37.803  32.538   4.583
33658W        W 5274  29.533  25.157  14.430
33659W        W 5275  15.342  12.065  13.298
33660W        W 5276  33.478  35.973  12.112
33661W        W 5277  19.012  37.011  12.440
33662W        W 5278  20.805   5.426   3.236
33663W        W 5279  44.732  20.568   3.236
33664W        W 5280  44.990   9.373   0.397
33665W        W 5281  15.622  28.301  14.643
33666W        W 5282  13.268  39.587  12.384
33667W        W 5283  42.313   0.912   4.353
33668W        W 5284  15.375   6.477  14.962
33669W        W 5285   5.163  10.316   1.127
33670W        W 5286  23.683  32.091   1.478
33671W        W 5287  14.009  14.634   4.095
33672W        W 5288  28.696  34.095   0.930
33673W        W 5289   9.368  13.313  14.378
33674W        W 5290  13.135  16.371  11.891
33675W        W 5291  31.647  38.642  12.400
33676W        W 5292  37.387   6.169   4.751
33677W        W 5293  24.872  33.874   0.740
33678W        W 5294   1.014   6.389   0.961
33679W        W 5295  33.350  41.949   3.342
33680W        W 5296  29.937  29.265   1.824
33681W        W 5297  22.664  27.165  13.093
33682W        W 5298  23.049   2.518  10.449
33683W        W 5299  20.048   4.324   4.555
33684W        W 5300   2.158  39.053   2.942
33685W        W 5301   0.424  30.186  14.967
33686W        W 5302  21.963   2.039  12.983
33687W        W 5303   6.232   8.795   5.106
33688W        W 5304  21.630  29.980  11.106
33689W        W 5305  32.885  38.726   2.388
33690W        W 5306  13.369  42.285  14.928
33691W        W 5307   9.156  28.957  14.056
33692W        W 5308  22.126   2.799   4.260
33693W        W 5309  21.768  27.499   1.004
33694W        W 5310  44.395   2.840   4.193
33695W        W 5311  41.461  42.776  14.125
33696W        W 5312  24.986  39.282  13.832
33697W        W 5313  25.461  29.528   0.653
33698W        W 5314  28.449   1.295   4.516
33699W        W 5315  23.913  42.793   1.712
33700W        W 5316  27.971   7.703  10.249
33701W        W 5317  11.656  36.111   3.747
33702W        W 5318  15.853   1.994  10.685
33703W        W 5319  33.865  24.717   1.000
33704W        W 5320  44.490  40.855  13.927
33705W        W 5321  23.234  10.108  12.894
33706W        W 5322  32.399  25.667   1.767
33707W        W 5323  16.579  29.996   3.572
33708W        W 5324   7.612   2.582   0.394
33709W        W 5325  14.290  20.127   1.403
33710W        W 5326  36.534  23.518   1.581
33711W        W 5327   6.166  16.372  13.052
33712W        W 5328  17.912  43.328   9.844
33713W        W 5329  34.012  18.063  14.319
33714W        W 5330   1.650  38.896   2.853
33715W        W 5331   8.650  17.154   2.761
33716W        W 5332  16.978  42.383  12.355
33717W        W 5333  17.118  17.619   1.537
33718W        W 5334   6.631  25.502   4.936
33719W        W 5335  34.031   6.706  13.821
33720W        W 5336  43.002   2.791  11.789
33721W        W 5337  43.589  39.058  11.836
33722W        W 5338  34.130  15.732  14.272
33723W        W 5339   3.342  25.364  11.378
33724W        W 5340  30.256  44.876   4.226
33725W        W 5341   3.610  23.681   4.741
33726W        W 5342  13.540  40.484  11.484
33727W        W 5343  16.209  29.643   4.791
33728W        W 5344  10.524  38.562   4.061
33729W        W 5345   1.477   5.922  12.780
33730W        W 5346   2.966  28.247  12.065
33731W        W 5347   3.944  39.996   4.014
33732W        W 5348  14.589  21.488  12.478
33733W        W 5349  20.314  31.348  14.818
33734W        W 5350  22.766  11.719   4.091
33735W        W 5351  24.665   0.695   0.371
33736W        W 5352  32.021  10.305  14.343
33737W        W 5353  43.352   3.732  14.783
33738W        W 5354   2.933  32.233  14.420
33739W        W 5355  44.615  23.632   3.236
33740W        W 5356  20.550  11.703  14.989
33741W        W 5357  12.264  23.559   0.446
33742W        W 5358  11.073  27.141   1.327
33743W        W 5359  25.521  32.636  13.557
33744W        W 5360  32.695  44.957  11.355
33745W        W 5361  43.602  27.484  11.456
33746W        W 5362  38.597  43.063  13.503
33747W        W 5363  17.304  25.249   3.722
33748W        W 5364  28.533  14.088   1.771
33749W        W 5365   1.195  44.212   2.653
33750W        W 5366   5.017  12.187   1.435
33751W        W 5367   0.463  34.731  13.827
33752W        W 5368  11.823  31.990   1.316
33753W        W 5369  15.162  10.859   1.570
33754W        W 5370  27.136  44.546  11.198
33755W        W 5371  13.040  34.909  11.250
33756W        W 5372  20.533  42.327  11.137
33757W        W 5373  20.231  32.385  13.545
33758W        W 5374  34.971  31.619   3.008
33759W        W 5375   3.698  40.079   0.790
33760W        W 5376  42.067  29.499  14.888
33761W        W 5377   5.617  13.088   0.548
33762W        W 5378  40.237   0.664  11.153
33763W        W 5379   0.373  42.189   2.903
33764W        W 5380  13.712  30.814   0.377
33765W        W 5381  38.761  30.980  12.652
33766W        W 5382  37.455   7.910   5.048
33767W        W 5383  35.909  20.858   3.683
33768W        W 5384  16.054  27.431   4.526
33769W        W 5385  36.515  26.400  14.712
33770W        W 5386   7.392   1.752   0.009
33771W        W 5387  30.343  10.164   0.687
33772W        W 5388  27.846   4.274  13.114
33773W        W 5389  27.695  40.547   3.366
33774W        W 5390   7.326  40.959   0.779
33775W        W 5391  11.699  11.828  13.367
33776W        W 5392  17.162  30.686   3.665
33777W        W 5393  43.319  41.166   1.198
33778W        W 5394  32.650   8.589  12.591
33779W        W 5395  35.155  37.060  11.937
33780W        W 5396   2.387   2.003  13.348
33781W        W 5397  41.758  15.790  10.662
33782W        W 5398  27.966  33.468  10.301
33783W        W 5399  42.598  23.364  10.594
33784W        W 5400  11.822  22.731   2.024
33785W        W 5401  42.208  18.910   2.985
33786W        W 5402  40.356  16.534   4.288
33787W        W 5403  20.713  41.873   1.040
33788W        W 5404   1.466  28.422   4.175
33789W        W 5405   2.503  40.032  14.439
33790W        W 5406   2.957  37.435  13.319
33791W        W 5407  32.089  22.534  13.838
33792W        W 5408  36.572  26.661  13.813
33793W        W 5409  27.546  40.839   1.438
33794W        W 5410  31.505  13.625   3.585
33795W        W 5411  29.482  13.177  13.323
33796W        W 5412  35.582   2.123  13.029
33797W        W 5413  11.740  40.141   3.178
33798W        W 5414  23.450  24.339  12.413
33799W        W 5415  36.317  33.510  14.783
33800W        W 5416  38.101  21.542  11.654
33801W        W 5417  20.020  30.076  12.871
33802W        W 5418   4.315   3.436   1.337
33803W        W 5419  42.449   6.242   4.305
33804W        W 5420   3.491  19.170   4.608
33805W        W 5421  15.392  42.842   3.561
33806W        W 5422  22.532  38.495  14.702
33807W        W 5423  34.256  42.374   2.108
33808W        W 5424  13.477   5.259  13.948
33809W        W 5425  34.034  10.834  11.260
33810W        W 5426  12.793   0.802   3.255
33811W        W 5427  33.592  40.907  14.841
33812W        W 5428  35.957  13.113  11.936
33813W        W 5429  21.597   6.816  13.126
33814W        W 5430  41.078  26.075   3.341
33815W        W 5431  41.010  29.020  12.911
33816W        W 5432  18.120  42.991  14.886
33817W        W 5433  37.623  15.204   1.944
33818W        W 5434  43.874  19.088  13.806
33819W        W 5435  29.116  24.510  14.999
33820W        W 5436   2.787  35.201   4.062
33821W        W 5437  36.885  21.661  13.300
33822W        W 5438   5.702  42.374   3.464
33823W        W 5439  14.181  24.471   1.791
33824W        W 5440  28.195  40.538   4.170
33825W        W 5441  41.055  38.830   4.181
33826W        W 5442   2.289  39.077  12.440
33827W        W 5443  31.644  38.799  13.784
33828W        W 5444   1.010  24.727  12.163
33829W        W 5445  28.470   8.687   1.145
33830W        W 5446   9.751  12.215   1.883
33831W        W 5447  32.049   2.029  10.275
33832W        W 5448  28.542   6.866   2.487
33833W        W 5449  19.659  10.938  13.848
33834W        W 5450  42.776  42.751  11.532
33835W        W 5451  23.943  33.843   0.925
33836W        W 5452  39.800  19.176   2.234
33837W        W 5453  18.252  22.183  13.825
33838W        W 5454  44.280  15.287  13.859
33839W        W 5455  32.531   5.302   1.330
33840W        W 5456   8.004  16.035  13.330
33841W        W 5457   5.995  28.395  14.079
33842W        W 5458  29.571  18.815  11.096
33843W        W 5459  32.654  26.944  13.388
33844W        W 5460  26.903   4.416   2.547
33845W        W 5461  22.545  30.634   1.893
33846W        W 5462  31.477  43.546  12.057
33847W        W 5463  14.648  38.660  10.707
33848W        W 5464  15.425  10.374   1.313
33849W        W 5465  20.615  21.673   4.095
33850W        W 5466  30.260  30.090  14.629
33851W        W 5467  10.146  35.041   3.943
33852W        W 5468  30.070  14.599   2.981
33853W        W 5469   0.152  18.566   4.132
33854W        W 5470  35.904  26.194  12.899
33855W        W 5471  15.361  33.090  10.914
33856W        W 5472  25.207  44.431  14.480
33857W        W 5473   1.283  42.536  11.537
33858W        W 5474   1.213  11.842  13.864
33859W        W 5475  41.441  33.051  13.606
33860W        W 5476  21.058   1.051   1.732
33861W        W 5477  34.063  23.725   4.874
33862W        W 5478  12.858  14.526  11.727
33863W        W 5479  34.974  39.314  13.877
33864W        W 5480   0.026  16.259   0.029
33865W        W 5481  26.916  27.124   1.808
33866W        W 5482  33.898   8.556   1.365
33867W        W 5483  29.625  38.927  12.432
33868W        W 5484  14.252   9.865   1.894
33869W        W 5485   4.460  26.984   3.305
33870W        W 5486  43.567   8.407   0.633
33871W        W 5487  15.403   1.954   4.537
33872W        W 5488   1.741  36.795  13.608
33873W        W 5489  20.990  29.899   1.646
33874W        W 5490  26.812  38.800  13.009
33875W        W 5491  35.062  14.032  12.001
33876W        W 5492   3.478  22.150  11.491
33877W        W 5493  34.353  41.021  12.863
33878W        W 5494  38.326  25.203   4.052
33879W        W 5495   9.814  17.033   3.334
33880W        W 5496  28.362   1.387   2.259
33881W        W 5497  16.776  33.307   1.369
33882W        W 5498  28.735  13.073  11.030
33883W        W 5499  42.511  39.793  12.493
33884W        W 5500  17.110   1.401   0.096
33885W        W 5501   7.306  18.102   4.599
33886W        W 5502  23.923  24.269  14.871
33887W        W 5503  40.489   3.680  13.509
33888W        W 5504   3.124  19.230   1.023
33889W        W 5505  22.625   9.617   3.203
33890W        W 5506  26.281  22.153  11.978
33891W        W 5507   1.732  10.269   4.410
33892W        W 5508   7.815  15.115  13.042
33893W        W 5509   4.811  13.736   0.566
33894W        W 5510  12.350  12.113   1.171
33895W        W 5511  27.997  27.514   4.117
33896W        W 5512  36.033   6.602   1.470
33897W        W 5513  42.997  14.759  13.883
33898W        W 5514  40.814  44.775  13.917
33899W        W 5515  33.463  40.870  13.958
33900W        W 5516   0.416  23.529  12.973
33901W        W 5517  42.483  29.971  12.838
33902W        W 5518   8.212  24.946  12.497
33903W        W 5519  29.669  11.685   1.250
33904W        W 5520  44.098  13.840   1.645
33905W        W 5521  27.620  29.156   0.844
33906W        W 5522   4.766  34.536   1.480
33907W        W 5523  31.029  33.026  14.240
33908W        W 5524  31.117  26.256   4.622
33909W        W 5525  33.447   6.418   1.616
33910W        W 5526   9.711  35.651  12.427
33911W        W 5527  38.284  32.377   2.802
33912W        W 5528  41.781  24.038  14.734
33913W        W 5529  23.782   3.451  11.234
33914W        W 5530  44.423  34.681   1.225
33915W        W 5531  29.629  27.395  14.970
33916W        W 5532  26.472   5.046   4.125
33917W        W 5533   0.573  14.142   0.325
33918W        W 5534  20.836  36.906  11.157
33919W        W 5535  25.531  41.512   1.758
33920W        W 5536  23.258   2.278  11.906
33921W        W 5537  24.980  33.427   2.368
33922W        W 5538  32.121  34.881   0.721
33923W        W 5539  16.438  11.326   0.969
33924W        W 5540  18.653  32.169  10.711
33925W        W 5541   7.413  42.124  13.446
33926W        W 5542   1.585  13.253  11.179
33927W        W 5543   5.600  18.690   1.003
33928W        W 5544  35.933  21.169   5.007
33929W        W 5545  24.945   1.878  11.136
33930W        W 5546  29.485  27.135  12.030
33931W        W 5547  17.580  43.122   4.244
33932W        W 5548  43.011  25.778   2.636
33933W        W 5549  21.441  33.960  14.411
33934W        W 5550  22.493  42.470  13.586
33935W        W 5551  19.113   4.291   0.409
33936W        W 5552  20.422   7.379   2.767
33937W        W 5553  32.320  19.217  13.056
33938W        W 5554  36.846  21.959   2.802
33939W        W 5555  15.584  25.599  12.003
33940W        W 5556   0.377  41.257   2.901
33941W        W 5557   1.502  41.807  11.072
33942W        W 5558   3.037  11.635   2.230
33943W        W 5559   1.481   9.635   0.495
33944W        W 5560  12.179   3.476   1.162
33945W        W 5561  26.770  32.019   4.277
33946W        W 5562  39.733  19.717   3.503
33947W        W 5563   9.311  43.049   3.588
33948W        W 5564  18.595  22.613   0.046
33949W        W 5565  40.156  21.894  14.743
33950W        W 5566  32.613  40.289  11.091
33951W        W 5567  29.018  13.824  12.902
33952W        W 5568  11.946  32.218  11.064
33953W        W 5569  16.303  25.159  11.545
33954W        W 5570   9.051  28.072  11.969
33955W        W 5571  43.209  14.224   4.210
33956W        W 5572   3.818  36.918   1.397
33957W        W 5573  28.433  17.313   2.093
33958W        W 5574  19.697  35.458  14.939
33959W        W 5575  23.705  26.484   0.710
33960W        W 5576  22.362  41.390   1.160
33961W        W 5577   3.852   2.171   1.223
33962W        W 5578  40.498  41.865  13.713
33963W        W 5579  39.569  39.950   3.334
33964W        W 5580  44.650  24.439   4.176
33965W        W 5581  38.309  19.916   1.800
33966W        W 5582   4.328  26.898  10.499
33967W        W 5583   4.096   8.417  11.108
33968W        W 5584  23.442  23.964  10.875
33969W        W 5585  16.785  11.349   2.183
33970W        W 5586  25.264  24.297  12.582
33971W        W 5587  34.787  30.710  11.646
33972W        W 5588  18.471   9.465   1.367
33973W        W 5589  16.247  21.316  11.939
33974W        W 5590  15.273  18.443  10.325
33975W        W 5591  19.347   2.487  14.577
33976W        W 5592   7.741  39.992   1.001
33977W        W 5593  34.897  26.170   0.899
33978W        W 5594  10.947   0.385  10.595
33979W        W 5595  40.397  36.110   4.183
33980W        W 5596   4.773  26.678  10.661
33981W        W 5597  15.157  43.354   1.015
33982W        W 5598  23.688  22.908   4.026
33983W        W 5599  29.487  21.557   1.868
33984W        W 5600  43.634   1.011  13.776
33985W        W 5601  18.685  36.631  14.615
33986W        W 5602  25.744  17.603   2.912
33987W        W 5603  11.711  29.147  12.908
33988W        W 5604  15.775  36.796  13.847
33989W        W 5605  31.462  20.683   3.781
33990W        W 5606  15.877   4.373  10.654
33991W        W 5607  20.576   6.769  12.889
33992W        W 5608  24.896  23.247   1.622
33993W        W 5609  11.242  41.836  10.630
33994W        W 5610  30.596  38.657  14.026
33995W        W 5611   2.421  40.206   2.705
33996W        W 5612  10.379  39.427  13.328
33997W        W 5613  10.284  23.900   2.234
33998W        W 5614  11.609  33.927   0.142
33999W        W 5615  34.036  40.956   4.161
34000W        W 5616  31.527   5.646   0.986
34001W        W 5617  20.759  40.722   4.427
34002W        W 5618  21.150  23.929   2.897
34003W        W 5619  12.847  25.092   4.385
34004W        W 5620  30.345  41.377   2.949
34005W        W 5621  23.259  15.655  14.589
34006W        W 5622   5.156  16.064   0.408
34007W        W 5623  28.958   7.557  10.391
34008W        W 5624  38.488  34.335  13.507
34009W        W 5625  41.373   4.342   4.410
34010W        W 5626  44.293   0.465   3.376
34011W        W 5627   8.838  10.405  12.601
34012W        W 5628  27.803   2.039  12.694
34013W        W 5629   1.769  16.657   1.490
34014W        W 5630  35.073  15.759   2.414
34015W        W 5631  37.860  31.028  13.600
34016W        W 5632  28.170   2.224  13.034
34017W        W 5633  32.408   6.745  10.625
34018W        W 5634   2.775  29.410  11.263
34019W        W 5635  33.838  26.222   1.846
34020W        W 5636   6.899  38.357   0.998
34021W        W 5637  26.709   9.277   2.459
34022W        W 5638  44.035  36.427  10.532
34023W        W 5639  34.513   2.964   2.945
34024W        W 5640  13.588  27.209   0.770
34025W        W 5641  17.048   0.197   1.479
34026W        W 5642  21.165  29.578  11.811
34027W        W 5643  39.347  22.694  13.194
34028W        W 5644  33.971   1.282   0.904
34029W        W 5645  41.554  19.767   3.801
34030W        W 5646  38.099  34.889   4.110
34031W        W 5647  43.609   0.959  12.476
34032W        W 5648  23.418  24.547   1.821
34033W        W 5649  41.462   2.455  10.954
34034W        W 5650  31.554   0.213   2.190
34035W        W 5651  10.720  35.367  11.174
34036W        W 5652  26.694   8.712   5.070
34037W        W 5653   9.778   4.687   4.457
34038W        W 5654  10.197  16.752   0.197
34039W        W 5655   8.000  22.131  11.422
34040W        W 5656   8.743  39.094  10.607
34041W        W 5657   6.869  42.228  13.196
34042W        W 5658   9.114   5.865   4.381
34043W        W 5659  20.908  39.047  13.979
34044W        W 5660  10.133  44.332   2.757
34045W        W 5661  24.452  22.553  13.296
34046W        W 5662   8.107  39.331  14.410
34047W        W 5663  36.321   1.482   3.130
34048W        W 5664  38.827  12.385  10.980
34049W        W 5665  27.572   8.332  10.909
34050W        W 5666  25.549  39.852  13.664
34051W        W 5667   4.982  37.114  10.555
34052W        W 5668  43.360  29.933   3.380
34053W        W 5669  31.557  18.556   2.365
34054W        W 5670  40.707  30.294   4.118
34055W        W 5671  42.543  41.983  12.485
34056W        W 5672  44.257   6.039   0.024
34057W        W 5673   5.171   2.961   3.191
34058W        W 5674   4.210  30.469   1.881
34059W        W 5675   3.126  44.987   4.592
34060W        W 5676  26.720  43.774  11.198
34061W        W 5677  24.595  42.498  14.376
34062W        W 5678   0.722  22.743   3.159
34063W        W 5679  31.503  35.632  11.093
34064W        W 5680  16.332  28.099   0.815
34065W        W 5681  27.950  27.343  11.914
34066W        W 5682  39.553  31.089  13.930
34067W        W 5683  31.637  33.851  14.299
34068W        W 5684  41.889   4.496  11.851
34069W        W 5685  23.706  32.901  13.783
34070W        W 5686   3.093   9.664  14.333
34071W        W 5687   3.437  11.335  14.760
34072W        W 5688   8.166   8.233   2.121
34073W        W 5689  24.082  20.253   3.762
34074W        W 5690  23.431  43.486   0.793
34075W        W 5691  11.112  34.486  11.174
34076W        W 5692  15.349  14.702   2.388
34077W        W 5693  31.970  25.568  14.866
34078W        W 5694  33.644  13.976   2.353
34079W        W 5695   7.765  40.678   1.882
34080W        W 5696  10.542  41.564   0.527
34081W        W 5697  42.997  21.502   4.398
34082W        W 5698  35.062  30.650   3.200
34083W        W 5699   2.061  11.311   0.388
34084W        W 5700   3.995  39.140   0.433
34085W        W 5701   6.989  37.056   0.049
34086W        W 5702  22.579  18.024  14.835
34087W        W 5703  11.679   5.960   1.546
34088W        W 5704  29.058  15.176  13.339
34089W        W 5705  28.053  34.964   0.483
34090W        W 5706  30.125  35.801   4.132
34091W        W 5707   1.391  30.711   0.937
34092W        W 5708  42.784  44.312  11.728
34093W        W 5709  38.545   4.357  11.682
34094W        W 5710  40.978  26.972   0.462
34095W        W 5711  14.210  16.768   1.648
34096W        W 5712   5.699  11.319   1.760
34097W        W 5713  26.593   7.277   3.718
34098W        W 5714  33.658  33.967   1.517
34099W        W 5715  39.042  18.253  13.529
34100W        W 5716  20.871   7.194  13.009
34101W        W 5717   4.623   0.269   0.822
34102W        W 5718   2.940   8.482  11.951
34103W        W 5719   8.199  23.313   0.483
34104W        W 5720  20.247  15.878   1.854
34105W        W 5721  32.879  15.999  14.232
34106W        W 5722  35.112  42.009  13.336
34107W        W 5723  17.565  35.464   3.949
34108W        W 5724  14.171   0.516  14.799
34109W        W 5725  10.645   2.867  14.141
34110W        W 5726  14.364  36.094  14.556
34111W        W 5727  24.487  35.958   3.737
34112W        W 5728   1.754   6.814   4.531
34113W        W 5729  36.899  43.490  14.737
34114W        W 5730  30.422   4.361  13.263
34115W        W 5731  29.157  33.503   2.249
34116W        W 5732  14.266   7.885  13.482
34117W        W 5733  40.993  41.345   3.685
34118W        W 5734  14.682  14.908  14.269
34119W        W 5735  17.181  36.707   0.048
34120W        W 5736   8.258  40.917  10.485
34121W        W 5737  36.498  44.566   1.670
34122W        W 5738  16.520  29.802  14.270
34123W        W 5739  36.452  34.949  10.905
34124W        W 5740  38.738  29.937  13.982
34125W        W 5741   4.408  31.925   2.300
34126W        W 5742   8.334  21.997  11.047
34127W        W 5743  43.953  19.274  12.543
34128W        W 5744  31.397  36.696   0.796
34129W        W 5745   8.743   8.679   4.570
34130W        W 5746  35.761  22.287   1.424
34131W        W 5747   4.508  16.334   2.135
34132W        W 5748  44.207  23.267   0.549
34133W        W 5749  11.897  24.676   1.757
34134W        W 5750  24.664  42.547  13.465
34135W        W 5751  24.209  44.338  14.179
34136W        W 5752   0.265  31.979  12.080
34137W        W 5753   2.429  15.515   2.431
34138W        W 5754  42.313  35.950  10.275
34139W        W 5755  27.669  32.440   0.761
34140W        W 5756  22.589  35.763  11.598
34141W        W 5757   3.215  29.141   4.435
34142W        W 5758  43.754  43.474  11.168
34143W        W 5759  13.120   9.502  12.493
34144W        W 5760  42.003   6.557   5.149
34145W        W 5761  28.671   2.657   4.385
34146W        W 5762  20.385  38.444   0.222
34147W        W 5763  38.068   0.241  10.946
34148W        W 5764  24.142  40.877  10.932
34149W        W 5765  15.745  24.720   0.287
34150W        W 5766  23.727  23.532  13.849
34151W        W 5767  22.608  39.830   3.690
34152W        W 5768  37.056  42.805  12.148
34153W        W 5769  24.653  43.736   2.801
34154W        W 5770  16.080  20.199   1.382
34155W        W 5771  37.869  10.468   3.645
34156W        W 5772  30.722   1.316  12.434
34157W        W 5773  25.544  24.044  14.051
34158W        W 5774  44.836  11.337   2.907
34159W        W 5775  44.929  28.684   2.125
34160W        W 5776  38.473  20.278  11.601
34161W        W 5777  37.571  37.894   2.622
34162W        W 5778  23.804  37.976   2.803
34163W        W 5779   7.334  20.647  13.311
34164W        W 5780  20.973  14.482   2.806
34165W        W 5781  42.259  44.500   1.223
34166W        W 5782  21.861  10.109  11.279
34167W        W 5783   6.634  35.877   0.933
34168W        W 5784   3.199  33.357   4.278
34169W        W 5785   0.417  13.073  14.867
34170W        W 5786  23.178   9.168   3.754
34171W        W 5787  27.680  22.192   1.036
34172W        W 5788   7.701  32.914   1.770
34173W        W 5789  10.720  38.266  12.140
34174W        W 5790  23.438   2.192   4.578
34175W        W 5791   6.600  31.940  14.676
34176W        W 5792   2.477   2.017   1.702
34177W        W 5793  34.803   0.938  14.853
34178W        W 5794  27.000  15.782   1.821
34179W        W 5795  32.096  37.001  13.804
34180W        W 5796  40.381  44.488  13.945
34181W        W 5797  13.810  29.046   0.228
34182W        W 5798  31.448   8.630  13.487
34183W        W 5799   6.153  19.039  11.203
34184W        W 5800  44.271  34.343  13.389
34185W        W 5801  17.014  36.810  12.662
34186W        W 5802  22.750  23.106  14.980
34187W        W 5803  41.971   5.659  10.875
34188W        W 5804   9.621  37.028  11.573
34189W        W 5805   6.735  36.867   2.419
34190W        W 5806  43.754  28.505  13.557
34191W        W 5807  32.918  11.806   4.489
34192W        W 5808  13.920  17.594  11.552
34193W        W 5809  43.394  12.697   0.164
34194W        W 5810  22.393  17.572   4.165
34195W        W 5811   6.132  17.217  12.276
34196W        W 5812   5.857  37.387   0.203
34197W        W 5813  35.809  40.011  13.503
34198W        W 5814   7.725  41.818   3.366
34199W        W 5815  12.042  15.272   1.238
34200W        W 5816   6.254  38.617  13.698
34201W        W 5817  12.624  36.432   1.693
34202W        W 5818   2.548  35.521   3.670
34203W        W 5819  36.398  31.539   4.888
34204W        W 5820  43.255  13.643   4.939
34205W        W 5821  17.510   5.184  14.246
34206W        W 5822  41.101  16.642  13.305
34207W        W 5823  36.310   2.588  11.416
34208W        W 5824   2.380  11.279   2.389
34209W        W 5825   6.965  12.299  13.122
34210W        W 5826   5.249  22.185  14.996
34211W        W 5827   4.012  25.434   0.338
34212W        W 5828  12.686  43.785   0.786
34213W        W 5829  26.736  41.840   1.010
34214W        W 5830   4.406  23.352  14.784
34215W        W 5831  23.134  22.711  10.701
34216W        W 5832  23.747  44.337   2.382
34217W        W 5833  37.840  29.474   2.185
34218W        W 5834  16.319  19.290   1.919
34219W        W 5835   5.866  38.382  10.657
34220W        W 5836  30.912  10.320   3.723
34221W        W 5837  21.950  33.962  14.471
34222W        W 5838  31.106  41.531   3.598
34223W        W 5839  39.780  23.921   2.347
34224W        W 5840  10.825  23.620  10.964
34225W        W 5841  30.631  10.127   3.322
34226W        W 5842  36.779   4.683  10.594
34227W        W 5843   7.710  30.551   2.735
34228W        W 5844   2.013  32.512  14.911
34229W        W 5845  43.582  11.893   3.335
34230W        W 5846  19.180  15.556   3.324
34231W        W 5847  26.537  19.325   2.660
34232W        W 5848   7.423  36.322  13.820
34233W        W 5849   3.098   7.145  11.458
34234W        W 5850   4.280  42.370   1.085
34235W        W 5851  29.729   4.422   0.466
34236W        W 5852   7.278  22.057  11.840
34237W        W 5853  32.086  20.803   1.280
34238W        W 5854  44.875  37.188   1.464
34239W        W 5855  12.235   9.618  12.513
34240W        W 5856  19.715  29.333   2.557
34241W        W 5857  16.760  29.957  11.570
34242W        W 5858  23.459  20.754  11.581
34243W        W 5859  41.581   3.670   1.262
34244W        W 5860  25.992  42.731   5.297
34245W        W 5861   5.809  27.690  11.921
34246W        W 5862   0.838  11.811   3.086
34247W        W 5863  11.653   4.499  13.904
34248W        W 5864  10.259  11.295  10.613
34249W        W 5865  33.017   4.643  10.734
34250W        W 5866  26.795  41.719  14.361
34251W        W 5867  33.993   9.897  13.395
34252W        W 5868  16.380  17.131  13.363
34253W        W 5869  41.257  25.365  11.619
34254W        W 5870  15.679   4.944   3.194
34255W        W 5871  31.441  18.592   3.723
34256W        W 5872  11.212  27.977  12.880
34257W        W 5873   7.042  13.818  10.956
34258W        W 5874  18.081  17.895  13.992
34259W        W 5875   3.700  40.379  10.424
34260W        W 5876  43.499  41.005   4.056
34261W        W 5877  25.134   9.645   2.244
34262W        W 5878  21.009  33.610  12.046
34263W        W 5879  38.061  29.676  13.444
34264W        W 5880  10.847   0.958   3.139
34265W        W 5881   2.664  27.031  12.447
34266W        W 5882  34.508  19.739   1.668
34267W        W 5883  30.493  42.728  11.109
34268W        W 5884  30.854  10.265   1.900
34269W        W 5885  31.118   8.718  14.427
34270W        W 5886  30.215  27.784   3.617
34271W        W 5887  42.596  21.254  13.491
34272W        W 5888  28.573   3.300  12.297
34273W        W 5889   7.356  39.404  12.892
34274W        W 5890  41.828  35.025  11.677
34275W        W 5891  39.477  34.874   4.531
34276W        W 5892  40.983   8.420  11.527
34277W        W 5893   2.301  42.753  13.610
34278W        W 5894  35.010  14.166   3.742
34279W        W 5895  39.214  38.069  10.730
34280W        W 5896  40.250   2.491  14.048
34281W        W 5897  26.570  29.179  13.398
34282W        W 5898   2.535  38.557   0.788
34283W        W 5899  42.974  13.761   2.854
34284W        W 5900  29.508  36.194   1.276
34285W        W 5901  25.869   0.340  12.069
34286W        W 5902  11.229  22.036  10.365
34287W        W 5903  10.388   4.472   4.235
34288W        W 5904  18.547  24.023  10.591
34289W        W 5905  38.935  13.136   4.484
34290W        W 5906  18.780  36.825  11.165
34291W        W 5907  30.502  23.110   4.227
34292W        W 5908  31.150  41.824   2.692
34293W        W 5909   9.015  30.213  14.794
34294W        W 5910  18.127  22.743   4.604
34295W        W 5911  31.822  33.080   0.969
34296W        W 5912  29.132  18.791   1.303
34297W        W 5913  35.902  31.440   1.774
34298W        W 5914  42.926   5.982  11.604
34299W        W 5915   0.908  30.490  14.902
34300W        W 5916  18.000  35.561  12.411
34301W        W 5917   9.495  43.173   4.899
34302W        W 5918  36.588  38.977   3.676
34303W        W 5919   8.517   1.022  11.278
34304W        W 5920   9.043  39.833   1.349
34305W        W 5921  16.741  18.692   2.387
34306W        W 5922  40.390  20.793   1.626
34307W        W 5923  21.503  10.387  11.500
34308W        W 5924  14.650  18.753   1.053
34309W        W 5925  27.658  30.420   0.891
34310W        W 5926   0.369  36.865  10.212
34311W        W 5927  18.332  40.342   1.838
34312W        W 5928  38.351  43.494   3.571
34313W        W 5929  28.156  17.519  13.940
34314W        W 5930  27.005  29.651   3.057
34315W        W 5931  44.091  31.171   2.361
34316W        W 5932  22.139  21.480   2.637
34317W        W 5933  24.355  12.686  11.621
34318W        W 5934  36.569  21.164  13.179
34319W        W 5935  13.060  18.573  11.388
34320W        W 5936  17.604  14.004   3.058
34321W        W 5937  36.959   1.752  13.646
34322W        W 5938  12.811   3.799  10.000
34323W        W 5939  10.848   6.217  13.812
34324W        W 5940  18.378  38.764   3.344
34325W        W 5941  26.648   3.323   2.849
34326W        W 5942   3.727  22.995  12.498
34327W        W 5943  13.349  31.308  11.728
34328W        W 5944   2.903   9.996  13.337
34329W        W 5945  36.383  32.147   0.295
34330W        W 5946   2.099   4.475   2.161
34331W        W 5947  12.723  16.520   4.542
34332W        W 5948   5.012  11.828   0.317
34333W        W 5949  10.850  25.984  13.503
34334W        W 5950  10.269  17.316   3.172
34335W        W 5951  11.255   8.238   0.509
34336W        W 5952   5.859  22.665   1.839
34337W        W 5953  41.909  42.834  11.166
34338W        W 5954  23.590  38.584  10.440
34339W        W 5955  37.311  31.016   0.148
34340W        W 5956  24.886  28.924   2.276
34341W        W 5957  24.185  35.019   4.155
34342W        W 5958  36.328  29.567  12.094
34343W        W 5959  13.891  40.927  13.295
34344W        W 5960   8.383  36.445  11.632
34345W        W 5961   7.826  44.864   2.831
34346W        W 5962  16.847  11.276  13.749
34347W        W 5963  38.362   8.845   2.295
34348W        W 5964   6.377  42.250  13.026
34349W        W 5965  39.034  19.735  13.134
34350W        W 5966  20.668  12.818  12.847
34351W        W 5967  13.119  29.952  10.621
34352W        W 5968   2.475  18.800  11.537
34353W        W 5969   2.753  24.245  11.626
34354W        W 5970  29.452  32.935   4.505
34355W        W 5971  38.255  27.138  13.690
34356W        W 5972   2.087  13.354  11.198
34357W        W 5973  12.852   5.491  13.141
34358W        W 5974  34.942  22.503  13.368
34359W        W 5975   2.874   0.370   4.895
34360W        W 5976  17.177  40.564  14.536
34361W        W 5977   5.252  38.921   0.698
34362W        W 5978  36.527  17.564   0.851
34363W        W 5979  33.505  41.343   1.681
34364W        W 5980  17.083  17.642  14.321
34365W        W 5981  27.476  10.172   1.022
34366W        W 5982   2.997  14.942   1.330
34367W        W 5983   4.264  26.569  14.766
34368W        W 5984  21.143  43.217   1.643
34369W        W 5985  17.086  12.333   4.584
34370W        W 5986   1.377  12.627   1.863
34371W        W 5987   6.658  39.788   3.679
34372W        W 5988  43.686   1.793  12.899
34373W        W 5989   3.345  39.955  14.963
34374W        W 5990   8.765  24.467  13.171
34375W        W 5991  43.199   6.018  12.030
34376W        W 5992  15.095   7.179  11.995
34377W        W 5993   3.494   1.729   1.926
34378W        W 5994  35.936  42.590  11.093
34379W        W 5995  44.737  18.112  14.385
34380W        W 5996   7.279  11.766  11.172
34381W        W 5997   9.311  43.512  12.936
34382W        W 5998   0.282   0.254   0.393
34383W        W 5999  35.946  43.048   0.281
34384W        W 6000  21.323  11.295  13.424
34385W        W 6001  31.402  18.787   1.922
34386W        W 6002  22.241  28.108  14.413
34387W        W 6003  10.836  37.924   1.198
34388W        W 6004   9.240  21.097  13.898
34389W        W 6005  17.814  36.444   4.337
34390W        W 6006  17.803  13.593   4.887
34391W        W 6007  23.103   8.228   4.650
34392W        W 6008  36.693  11.946   0.827
34393W        W 6009  16.137  43.084  12.659
34394W        W 6010  28.617   5.791   0.626
34395W        W 6011  34.352  19.027   2.346
34396W        W 6012   5.689  18.756  11.110
34397W        W 6013  22.691  35.923   4.310
34398W        W 6014  24.897  25.239  14.891
34399W        W 6015  37.370  30.457   1.482
34400W        W 6016   8.423  16.675  11.503
34401W        W 6017   6.093  36.471   2.724
34402W        W 6018  12.669   2.497  10.692
34403W        W 6019  23.548  32.931   3.304
34404W        W 6020  10.725   7.846   4.768
34405W        W 6021  44.261   9.421  11.646
34406W        W 6022  18.457  12.722  11.117
34407W        W 6023  40.634  41.363  11.647
34408W        W 6024  37.229  32.546  13.041
34409W        W 6025   9.124  38.572   3.500
34410W        W 6026  40.027  25.152   2.832
34411W        W 6027  23.743   3.479  12.517
34412W        W 6028  26.273  44.927  10.713
34413W        W 6029   1.840   0.921   9.704
34414W        W 6030  37.637   9.881   9.728
34415W        W 6031  33.796   6.444  14.751
34416W        W 6032  14.326  16.328   4.943
34417W        W 6033  11.089  17.475   1.733
34418W        W 6034   0.226  26.514   0.928
34419W        W 6035  16.975  24.530  13.373
34420W        W 6036  28.609  44.289   2.643
34421W        W 6037   4.748  16.250  11.669
34422W        W 6038  15.340   6.393   0.825
34423W        W 6039  34.375  18.109  11.887
34424W        W 6040  43.931   5.424   4.414
34425W        W 6041   9.188  44.821  13.344
34426W        W 6042  27.508  40.832  14.863
34427W        W 6043  17.986  27.083  10.741
34428W        W 6044  12.657  40.082   0.398
34429W        W 6045  17.038  24.990   2.983
34430W        W 6046  20.198  31.865  13.470
34431W        W 6047  31.693  17.661  13.812
34432W        W 6048  37.605   9.321   4.833
34433W        W 6049   0.880  32.646   1.701
34434W        W 6050   3.899  42.417   2.375
34435W        W 6051  34.367   9.560  14.373
34436W        W 6052  18.199   8.358   4.281
34437W        W 6053  20.946  29.376   1.332
34438W        W 6054  25.191  39.564  13.438
34439W        W 6055  37.588   2.199  12.179
34440W        W 6056  31.710   6.688   1.885
34441W        W 6057  16.344  39.394  10.697
34442W        W 6058  22.975  20.932   2.405
34443W        W 6059   6.903  34.109  11.058
34444W        W 6060   7.909  43.448   1.391
34445W        W 6061  33.159  11.388  12.997
34446W        W 6062  26.639  22.330   9.745
34447W        W 6063  19.446   2.603   5.005
34448W        W 6064  23.435  17.754   1.264
34449W        W 6065  41.589  21.227   1.531
34450W        W 6066  29.610  21.058   0.201
34451W        W 6067  18.352  17.732   4.358
34452W        W 6068  20.215  13.125   3.246
34453W        W 6069  26.981  10.082  13.376
34454W        W 6070   1.448  18.600   3.974
34455W        W 6071   1.210  14.691   1.820
34456W        W 6072  20.211  39.986  11.170
34457W        W 6073   5.755  33.036   4.121
34458W        W 6074  16.801   6.394  13.486
34459W        W 6075  20.704  14.407   2.249
34460W        W 6076  14.124  34.814   1.012
34461W        W 6077  39.067   3.245  11.938
34462W        W 6078  19.593  28.055  11.526
34463W        W 6079  16.503  22.279  11.967
34464W        W 6080  34.656  36.172   5.034
34465W        W 6081  15.164  14.966   0.761
34466W        W 6082  29.957  39.079   4.060
34467W        W 6083   6.416  41.408  12.847
34468W        W 6084   5.834   5.626   1.758
34469W        W 6085  41.348   2.858  10.644
34470W        W 6086   3.722  21.797   3.633
34471W        W 6087  32.353   0.832  13.983
34472W        W 6088   4.367  20.714  12.207
34473W        W 6089  11.876  14.240  12.484
34474W        W 6090  20.827   5.924   3.307
34475W        W 6091  20.400  22.594  13.097
34476W        W 6092  29.619  38.603  12.040
34477W        W 6093   0.914  34.910   1.606
34478W        W 6094  12.296  36.035  11.980
34479W        W 6095   1.371  28.914  10.926
34480W        W 6096  32.887  28.559   5.512
34481W        W 6097  19.275  31.866  13.207
34482W        W 6098  27.743  32.885   3.307
34483W        W 6099  38.554   8.121  13.975
34484W        W 6100  19.441  14.945  12.142
34485W        W 6101  28.992  26.842   0.525
34486W        W 6102  41.750  33.407  11.963
34487W        W 6103  29.188  18.525   2.697
34488W        W 6104  43.045  43.969   4.226
34489W        W 6105  22.434  11.708  12.692
34490W        W 6106  12.863   8.363  14.420
34491W        W 6107  27.423  11.559   4.523
34492W        W 6108  43.021  23.551   1.114
34493W        W 6109  42.834   0.709  11.599
34494W        W 6110  11.684  39.961   0.274
34495W        W 6111  41.875  31.825   4.655
34496W        W 6112  34.502  30.245  14.325
34497W        W 6113  23.020  43.198  13.282
34498W        W 6114  12.102  19.344   4.891
34499W        W 6115  24.567  28.177  12.577
34500W        W 6116  15.257  38.974   2.318
34501W        W 6117   3.650  18.090   1.504
34502W        W 6118  29.207   4.147   2.188
34503W        W 6119  33.579  24.686   1.930
34504W        W 6120  18.342  30.089   0.919
34505W        W 6121  32.666   8.280  11.553
34506W        W 6122  36.629  13.371   4.709
34507W        W 6123   4.447  25.674   0.226
34508W        W 6124  10.304  21.216  10.592
34509W        W 6125  44.187  17.751  13.953
34510W        W 6126   1.356  13.193  10.727
34511W        W 6127  23.162  14.782   1.466
34512W        W 6128  10.607   4.186   0.927
34513W        W 6129  39.143  42.653   1.359
34514W        W 6130  31.589  22.223  10.581
34515W        W 6131  13.131  13.649  12.390
34516W        W 6132  40.437  25.622  10.883
34517W        W 6133   3.145   1.635   1.312
34518W        W 6134   7.144  34.911  12.635
34519W        W 6135   5.048  29.771   9.847
34520W        W 6136   2.795  44.094  10.485
34521W        W 6137  23.296  31.942  14.231
34522W        W 6138  27.796  29.453   2.309
34523W        W 6139  38.345  38.355   2.583
34524W        W 6140   8.825   4.473  12.320
34525W        W 6141  14.367  12.707  14.476
34526W        W 6142   0.895  13.072   1.235
34527W        W 6143  34.186   0.376  10.702
34528W        W 6144  31.298  34.861  13.357
34529W        W 6145   8.676  21.138  13.921
34530W        W 6146  16.433  36.947  13.595
34531W        W 6147  22.619  36.537  13.832
34532W        W 6148  31.100  41.283   4.683
34533W        W 6149  12.969   3.983   3.691
34534W        W 6150   7.934   8.272   2.853
34535W        W 6151   4.170  10.629  11.587
34536W        W 6152  40.456  40.777   1.013
34537W        W 6153  37.364  14.508   4.143
34538W        W 6154  31.507  22.748   4.237
34539W        W 6155  18.077  36.895   1.344
34540W        W 6156  16.683  33.460   4.553
34541W        W 6157  31.504  14.872   1.856
34542W        W 6158  22.495   1.431   4.031
34543W        W 6159  39.321  19.144  14.702
34544W        W 6160  30.940  14.318  12.099
34545W        W 6161  29.305  42.037   0.299
34546W        W 6162  44.549  36.818   2.632
34547W        W 6163  30.108  34.961  14.944
34548W        W 6164  18.765   5.886  11.642
34549W        W 6165  25.501  12.415  11.084
34550W        W 6166  15.875  41.742  13.971
34551W        W 6167  11.822  44.255  11.132
34552W        W 6168  42.879  38.828   1.638
34553W        W 6169  11.972  19.620   4.503
34554W        W 6170   0.832  21.588  14.959
34555W        W 6171   2.934   4.610  12.852
34556W        W 6172   4.276  17.831  12.570
34557W        W 6173  30.183  16.511   1.763
34558W        W 6174   7.705  26.716   1.698
34559W        W 6175  13.694  27.374   1.791
34560W        W 6176  38.330  11.212   3.159
34561W        W 6177   0.951  18.786   3.684
34562W        W 6178  10.843  43.674   3.620
34563W        W 6179  32.913  24.195   1.660
34564W        W 6180  18.100   3.273  11.043
34565W        W 6181  26.721  29.037  14.760
34566W        W 6182  12.890  25.203   3.833
34567W        W 6183   3.578  19.295   1.926
34568W        W 6184   6.704  38.440  13.457
34569W        W 6185  25.693  12.902  10.337
34570W        W 6186  21.701  34.858   4.541
34571W        W 6187  44.581  13.856   1.778
34572W        W 6188  18.834  18.575   4.261
34573W        W 6189   1.157  15.127   1.187
34574W        W 6190  32.102  13.248  14.902
34575W        W 6191  12.262  16.171   3.099
34576W        W 6192  18.311  21.830  11.913
34577W        W 6193  39.014  27.551   3.258
34578W        W 6194  19.309  32.443   2.386
34579W        W 6195  39.419  36.828  11.509
34580W        W 6196   3.502  11.840   3.863
34581W        W 6197  23.215  23.545  12.951
34582W        W 6198  25.201  34.170  13.097
34583W        W 6199  44.188  40.997   2.383
34584W        W 6200  21.469  14.313   2.787
34585W        W 6201  27.747  14.748  12.027
34586W        W 6202   6.329  37.051  14.280
34587W        W 6203  30.950  41.740   3.157
34588W        W 6204  42.504  15.619  13.164
34589W        W 6205  13.903  26.557   3.269
34590W        W 6206  37.648  14.150   4.863
34591W        W 6207  35.473  24.554  12.930
34592W        W 6208  30.028  32.832   4.333
34593W        W 6209  44.591  41.466  11.639
34594W        W 6210   2.650  29.252   2.681
34595W        W 6211   1.526   0.582   2.308
34596W        W 6212  25.462  17.245   0.894
34597W        W 6213  14.506  36.361   3.054
34598W        W 6214  25.508   1.372   1.924
34599W        W 6215  14.746   6.852   5.512
34600W        W 6216  29.722  44.456  11.866
34601W        W 6217  27.212  17.608  10.339
34602W        W 6218  37.924   6.857  13.296
34603W        W 6219  12.723  26.058  10.912
34604W        W 6220  18.752  20.983  13.173
34605W        W 6221   2.509  10.167   1.274
34606W        W 6222  40.587  32.703   4.076
34607W        W 6223   8.852   3.703   1.674
34608W        W 6224   0.850  29.193   3.246
34609W        W 6225  27.684  22.224  10.716
34610W        W 6226  34.161  28.439  13.914
34611W        W 6227  27.217   5.506  14.797
34612W        W 6228   3.113   8.349  11.117
34613W        W 6229  34.889  17.119   4.092
34614W        W 6230  27.562  38.316  12.502
34615W        W 6231  33.531  39.125   9.679
34616W        W 6232  29.969   3.919   3.318
34617W        W 6233   4.143  16.667  13.217
34618W        W 6234  13.422  39.820   1.388
34619W        W 6235   8.768  37.074   0.840
34620W        W 6236  10.282  12.989   1.910
34621W        W 6237   1.418  30.915   2.360
34622W        W 6238  12.448  10.255   3.350
34623W        W 6239  21.997  39.085  14.765
34624W        W 6240  24.493  35.414  12.632
34625W        W 6241  37.116  27.794  11.896
34626W        W 6242  40.959  23.012   3.658
34627W        W 6243  44.931  27.696  12.025
34628W        W 6244  16.545  18.043  14.821
34629W        W 6245  27.398  34.933   3.245
34630W        W 6246  28.915  10.302  11.617
34631W        W 6247  35.205  16.098  11.614
34632W        W 6248   8.565  44.550   1.949
34633W        W 6249  13.854  36.886  12.112
34634W        W 6250  42.325  18.009   4.173
34635W        W 6251  31.604   2.993   4.135
34636W        W 6252  35.447   9.995   1.728
34637W        W 6253  30.057  39.554  11.898
34638W        W 6254  16.114  18.133  12.795
34639W        W 6255  38.463   9.852  10.915
34640W        W 6256  38.241  24.208  12.568
34641W        W 6257   6.231   2.262  10.584
34642W        W 6258  26.748   1.072   2.291
34643W        W 6259  32.642   7.099  13.488
34644W        W 6260  18.294  32.056   4.815
34645W        W 6261  38.461  15.670   2.757
34646W        W 6262  44.140   8.389  11.082
34647W        W 6263   4.175   9.017   4.642
34648W        W 6264  41.542  27.300  13.525
34649W        W 6265  26.494   6.492  14.832
34650W        W 6266  26.770  20.727  14.536
34651W        W 6267  39.127  33.684  14.433
34652W        W 6268  34.976   8.790   0.449
34653W        W 6269  33.461  31.124  12.765
34654W        W 6270   0.199  13.773  11.007
34655W        W 6271  35.371  30.903  12.945
34656W        W 6272  27.116   7.284   3.923
34657W        W 6273  40.264  33.489   5.150
34658W        W 6274   7.839  41.807  13.598
34659W        W 6275  32.984  33.917  14.398
34660W        W 6276  14.177  23.607  10.831
34661W        W 6277   0.977  38.308  12.406
34662W        W 6278  41.385  10.192   1.728
34663W        W 6279  25.423  16.631  14.007
34664W        W 6280  36.084  34.302   3.566
34665W        W 6281  43.750  27.330  10.308
34666W        W 6282  36.950  27.423   0.379
34667W        W 6283  16.572  35.355   1.918
34668W        W 6284  19.927  25.785  14.869
34669W        W 6285  16.560  41.433   1.326
34670W        W 6286  28.337  31.896   9.590
34671W        W 6287  41.492  16.074   2.268
34672W        W 6288  13.349  36.878  12.131
34673W        W 6289  44.048   8.414  13.911
34674W        W 6290  38.737  27.074  13.483
34675W        W 6291   9.393  21.872   2.102
34676W        W 6292  27.486  43.438  11.018
34677W        W 6293  14.698  28.372   2.710
34678W        W 6294   2.551  44.007  11.497
34679W        W 6295   0.205   8.829  13.877
34680W        W 6296   9.864   9.916  14.421
34681W        W 6297   2.684  11.761   4.570
34682W        W 6298  41.062  12.550  12.040
34683W        W 6299  41.475  10.757  14.463
34684W        W 6300  38.838  44.270  12.523
34685W        W 6301  38.049  10.962   2.786
34686W        W 6302   5.464  18.840   3.394
34687W        W 6303  39.275  35.875  13.165
34688W        W 6304  18.766  35.297   2.737
34689W        W 6305  17.177  26.757  11.438
34690W        W 6306  44.377   0.822  11.443
34691W        W 6307  37.109  32.278  11.025
34692W        W 6308  22.820  23.401   4.218
34693W        W 6309  25.252  44.410  13.458
34694W        W 6310   6.395   4.688  13.440
34695W        W 6311  26.968   9.332  11.622
34696W        W 6312   3.515   4.646   1.837
34697W        W 6313  40.285  22.615   3.910
34698W        W 6314   8.828  22.530   5.322
34699W        W 6315  44.821   0.722   2.652
34700W        W 6316  19.046  21.157   0.911
34701W        W 6317  19.630  37.008  14.995
34702W        W 6318  27.179  11.608  14.022
34703W        W 6319  38.371  27.970  13.324
34704W        W 6320  40.064  37.788  14.664
34705W        W 6321  32.898  42.157  11.084
34706W        W 6322  38.271  34.069   4.545
34707W        W 6323  39.072  25.195   2.438
34708W        W 6324  38.945  27.144   2.956
34709W        W 6325  32.445  16.467   3.685
34710W        W 6326  37.006  17.611   1.412
34711W        W 6327  39.304  30.248  12.874
34712W        W 6328  24.749   1.868   4.679
34713W        W 6329  32.137  44.219   1.227
34714W        W 6330  17.097  21.236  12.060
34715W        W 6331   2.230  32.035  10.685
34716W        W 6332  27.118  43.959   0.429
34717W        W 6333  23.808  36.348   4.234
34718W        W 6334  15.661  23.101   1.231
34719W        W 6335  12.553   9.114  12.023
34720W        W 6336   8.252  23.084  13.519
34721W        W 6337  27.201  22.176  13.284
34722W        W 6338  42.983  13.425   3.829
34723W        W 6339  34.207   1.753   2.707
34724W        W 6340   4.860  23.382   5.143
34725W        W 6341  40.455  39.000  11.242
34726W        W 6342  39.907   9.049  14.520
34727W        W 6343  16.130  13.500   4.161
34728W        W 6344   4.709  13.778   4.641
34729W        W 6345  15.523  18.777  13.370
34730W        W 6346  39.372  33.069   1.193
34731W        W 6347  14.815  19.721   4.536
34732W        W 6348  18.497  27.894   5.064
34733W        W 6349  15.296  14.028  10.448
34734W        W 6350   4.752   9.692   0.803
34735W        W 6351  26.970   1.375  11.264
34736W        W 6352  12.717   1.298   4.731
34737W        W 6353  13.052  18.568   4.315
34738W        W 6354  16.710   1.906  12.574
34739W        W 6355  41.783  12.725  14.825
34740W        W 6356  26.063  38.394   2.201
34741W        W 6357  11.470  30.160   4.619
34742W        W 6358   3.706  26.672   2.996
34743W        W 6359  26.906  32.930   3.637
34744W        W 6360  29.451  29.998   3.394
34745W        W 6361  27.780   8.535   4.430
34746W        W 6362  43.913   1.426   4.088
34747W        W 6363  12.557  41.587  11.138
34748W        W 6364   1.664   0.703   4.699
34749W        W 6365  11.298  31.156  11.941
34750W        W 6366   0.229  16.597  13.115
34751W        W 6367  30.161  41.524   3.704
34752W        W 6368  10.711  37.668   0.761
34753W        W 6369  36.668  35.530  11.179
34754W        W 6370  32.834   1.554   1.513
34755W        W 6371  42.794  11.641   0.730
34756W        W 6372  18.055   9.479  11.935
34757W        W 6373  20.050  24.486  14.823
34758W        W 6374  17.296  42.268   4.136
34759W        W 6375  23.492   6.223   4.636
34760W        W 6376   9.450  39.528  11.491
34761W        W 6377  41.900   1.859   4.585
34762W        W 6378  30.173  26.048   3.581
34763W        W 6379  35.264  16.846   4.924
34764W        W 6380  41.580  43.801   1.278
34765W        W 6381   3.235  40.701   3.616
34766W        W 6382  31.208  32.495   0.419
34767W        W 6383  32.391  31.004   0.761
34768W        W 6384  19.208  14.365  10.795
34769W        W 6385   0.954   3.346   1.664
34770W        W 6386  20.829  30.334  12.443
34771W        W 6387  27.849  23.291  12.040
34772W        W 6388  41.437  21.899  14.797
34773W        W 6389  34.517   8.794   3.490
34774W        W 6390  12.406  17.780  11.659
34775W        W 6391  44.752  24.247   3.187
34776W        W 6392  13.593  12.602   0.894
34777W        W 6393  35.149  20.249  13.798
34778W        W 6394  33.402  12.359   2.691
34779W        W 6395  39.033   4.316   0.185
34780W        W 6396  12.735   2.213   0.740
34781W        W 6397  28.482   9.604   2.292
34782W        W 6398  18.472   4.825   0.952
34783W        W 6399  40.940   6.400  12.632
34784W        W 6400   8.829   7.715   4.620
34785W        W 6401   6.637  35.882  12.886
34786W        W 6402  40.788   0.953  13.988
34787W        W 6403   1.910  36.170   4.230
34788W        W 6404  39.759  41.588   2.907
34789W        W 6405  40.366  37.333  12.901
34790W        W 6406  17.240  44.546   3.250
34791W        W 6407  40.721  28.966   0.841
34792W        W 6408  33.595  14.298  12.958
34793W        W 6409  21.412   7.313   2.923
34794W        W 6410   6.195  29.124  14.910
34795W        W 6411  26.220  17.343  14.141
34796W        W 6412  39.135  22.601   9.882
34797W        W 6413  30.262  31.059   4.744
34798W        W 6414  43.134  43.464   2.676
34799W        W 6415   1.939  35.938  14.231
34800W        W 6416  36.871  41.663   1.201
34801W        W 6417   4.019   2.927  13.745
34802W        W 6418  41.343  11.171   0.762
34803W        W 6419  38.777  28.004  12.673
34804W        W 6420   4.440  14.356   3.015
34805W        W 6421  36.323   7.667   0.824
34806W        W 6422  30.384  11.600   4.592
34807W        W 6423  22.240  37.438   3.311
34808W        W 6424  21.574  42.260  12.426
34809W        W 6425  10.732  20.939   0.767
34810W        W 6426  33.045   3.914   3.163
34811W        W 6427  28.529   2.945  11.245
34812W        W 6428  15.158  15.067   3.228
34813W        W 6429  34.963   6.701   2.648
34814W        W 6430  25.118   6.157   0.391
34815W        W 6431  23.066   3.001   4.860
34816W        W 6432  39.656   8.828  10.968
34817W        W 6433  32.930  20.984   1.809
34818W        W 6434   3.657  39.525   1.380
34819W        W 6435   3.696  17.738   2.888
34820W        W 6436  28.314  13.478   9.556
34821W        W 6437  35.397   4.617  10.391
34822W        W 6438  31.931  23.929   4.626
34823W        W 6439  44.431  11.106   2.379
34824W        W 6440  14.026   7.708   5.045
34825W        W 6441   7.297   1.312   2.232
34826W        W 6442  32.669  31.964   4.680
34827W        W 6443  32.013   0.699  13.317
34828W        W 6444  23.350  31.378   2.183
34829W        W 6445  44.995  38.795   0.724
34830W        W 6446  19.804  15.169  13.747
34831W        W 6447  15.835  35.025   2.681
34832W        W 6448   7.082  34.722  14.417
34833W        W 6449  39.004  18.301   5.316
34834W        W 6450  40.432  31.498  11.970
34835W        W 6451  41.815  24.399  12.400
34836W        W 6452  42.279  39.055  12.915
34837W        W 6453  31.019  10.724   0.803
34838W        W 6454  32.686  33.623   1.882
34839W        W 6455  38.556   6.858   1.532
34840W        W 6456  15.283  15.046   5.110
34841W        W 6457   8.279  15.605   1.933
34842W        W 6458  38.780  16.561  11.172
34843W        W 6459  31.003  17.119   2.712
34844W        W 6460   8.402  22.589  10.520
34845W        W 6461  15.153  17.183   0.268
34846W        W 6462   4.146  15.807  13.885
34847W        W 6463  31.323  30.998  12.918
34848W        W 6464  31.693  22.189  13.777
34849W        W 6465  35.106  24.731   1.943
34850W        W 6466  41.346  44.313  14.867
34851W        W 6467  22.491  20.549  13.903
34852W        W 6468  37.361  13.605  10.259
34853W        W 6469  33.444  10.189   3.661
34854W        W 6470   2.293  40.821   3.177
34855W        W 6471  33.675  34.539  12.188
34856W        W 6472  37.423  24.901  13.886
34857W        W 6473  22.976   6.038  11.996
34858W        W 6474   0.389  39.754  14.268
34859W        W 6475  43.562   4.986   2.643
34860W        W 6476  24.058  41.530  11.155
34861W        W 6477   1.357   8.824  10.334
34862W        W 6478  32.308  16.189   2.437
34863W        W 6479  12.130  26.447   3.917
34864W        W 6480  23.636   6.713  10.974
34865W        W 6481  10.690  30.490   0.681
34866W        W 6482  35.913  38.044  11.046
34867W        W 6483  27.613  34.367  12.392
34868W        W 6484  33.242  34.511   4.604
34869W        W 6485  27.707  27.595   3.252
34870W        W 6486   9.428  22.087  14.938
34871W        W 6487  19.789  13.300   2.480
34872W        W 6488  36.417  34.401  14.753
34873W        W 6489  38.527  14.266   1.756
34874W        W 6490  23.707  29.674  12.586
34875W        W 6491  33.584  42.713  14.441
34876W        W 6492  11.883  35.613   4.217
34877W        W 6493   9.366  15.557   0.892
34878W        W 6494   0.579   0.435   0.007
34879W        W 6495  23.979  37.830   1.808
34880W        W 6496  25.649  14.454  11.601
34881W        W 6497   2.715  17.268   0.632
34882W        W 6498  42.232   2.870  10.783
34883W        W 6499  44.397  40.595  10.714
34884W        W 6500  24.318  20.124  12.651
34885W        W 6501  26.610  24.494   1.384
34886W        W 6502   0.927  32.932   0.530
34887W        W 6503  36.026  44.613  10.252
34888W        W 6504   9.286   1.851   1.353
34889W        W 6505   6.891  35.889   2.196
34890W        W 6506   2.261  13.280   4.615
34891W        W 6507  16.516  38.017  13.826
34892W        W 6508   7.078  10.247   2.169
34893W        W 6509  42.339  44.570   4.215
34894W        W 6510   6.594  31.513  14.318
34895W        W 6511  26.368  37.928  10.775
34896W        W 6512  32.141  37.827  11.983
34897W        W 6513   3.389  14.028   1.048
34898W        W 6514   8.287  34.887   0.756
34899W        W 6515   2.416  28.517  10.995
34900W        W 6516  30.715  14.290  11.256
34901W        W 6517  33.413  31.439  13.509
34902W        W 6518  18.175  42.138   1.250
34903W        W 6519  16.751  32.845  11.949
34904W        W 6520  36.425  31.569  11.926
34905W        W 6521  38.542   9.660  11.900
34906W        W 6522  10.897  17.781   2.692
34907W        W 6523  44.538  23.052  12.062
34908W        W 6524  12.384  21.441  13.533
34909W        W 6525  39.353  11.277   1.804
34910W        W 6526  11.022  17.298   3.799
34911W        W 6527  36.630   8.898  14.555
34912W        W 6528   6.294  11.363  13.815
34913W        W 6529  29.989  31.883  12.100
34914W        W 6530  38.629  11.905   0.264
34915W        W 6531  29.971  28.627  12.534
34916W        W 6532  39.092  28.742  10.711
34917W        W 6533  41.954   9.214   1.233
34918W        W 6534   2.911   0.286  14.598
34919W        W 6535   6.225  35.087  11.572
34920W        W 6536   5.131   7.627  13.024
34921W        W 6537  29.448  26.484   3.760
34922W        W 6538  41.698  34.542  12.053
34923W        W 6539   4.354  44.190  13.911
34924W        W 6540  31.109   7.253   4.885
34925W        W 6541  26.599  10.351   2.283
34926W        W 6542  31.533  19.181   3.822
34927W        W 6543  41.420  11.184   2.562
34928W        W 6544  41.787  12.791   3.788
34929W        W 6545   0.474  13.729  13.967
34930W        W 6546  12.031  29.459   4.298
34931W        W 6547   7.958   8.855  10.135
34932W        W 6548   1.009  25.894   1.772
34933W        W 6549  38.765   5.229  11.588
34934W        W 6550  41.101   7.846   1.872
34935W        W 6551  26.570   6.857  13.553
34936W        W 6552  39.970  41.797  13.619
34937W        W 6553  40.595  37.948  13.638
34938W        W 6554  33.184  36.804  14.376
34939W        W 6555  31.458  29.584  13.993
34940W        W 6556  33.090  33.928   1.706
34941W        W 6557  14.837  33.910  10.516
34942W        W 6558   3.674  21.527   1.388
34943W        W 6559  12.942  19.605  11.597
34944W        W 6560  42.339  31.658   2.577
34945W        W 6561  39.995  15.867   2.716
34946W        W 6562  15.656  31.531   0.980
34947W        W 6563  40.377  30.011   1.150
34948W        W 6564  41.436   9.354   2.901
34949W        W 6565   4.961  35.562   3.216
34950W        W 6566  37.509  37.798   4.168
34951W        W 6567  18.068   5.548   2.722
34952W        W 6568  38.507  11.495   1.364
34953W        W 6569  21.654  21.356  10.093
34954W        W 6570  10.443  10.868  14.867
34955W        W 6571  14.350  18.115   1.711
34956W        W 6572  42.295  24.135   1.421
34957W        W 6573  19.566  16.667   3.737
34958W        W 6574  28.051  38.309   0.747
34959W        W 6575  22.168  37.889   1.965
34960W        W 6576  41.889  25.637  12.067
34961W        W 6577  44.082  24.053  14.331
34962W        W 6578   9.627  26.624   4.130
34963W        W 6579  12.099  30.064  10.735
34964W        W 6580   2.602  16.739   2.288
34965W        W 6581   6.455  16.601   4.141
34966W        W 6582  30.014  40.833   4.282
34967W        W 6583  43.257  42.829  11.639
34968W        W 6584  14.600  29.462  11.692
34969W        W 6585  40.996  15.285  12.644
34970W        W 6586  19.455  23.274  14.647
34971W        W 6587   0.653   5.445  14.668
34972W        W 6588  29.597   6.731   1.814
34973W        W 6589  22.789  17.224  11.038
34974W        W 6590  36.589  25.759  13.388
34975W        W 6591  12.957  34.695   2.810
34976W        W 6592  17.014  33.516   0.113
34977W        W 6593  24.995  18.563  14.985
34978W        W 6594   1.443  10.837  11.181
34979W        W 6595  11.132  34.450   4.168
34980W        W 6596  39.351  15.517   2.805
34981W        W 6597  39.249  37.871  14.926
34982W        W 6598  39.522  33.559  13.550
34983W        W 6599  16.101  40.780  12.354
34984W        W 6600  36.498  33.106  11.160
34985W        W 6601  28.489  26.444   2.873
34986W        W 6602  30.262  18.079  11.341
34987W        W 6603  11.748  25.622  11.319
34988W        W 6604  10.335  31.633  10.601
34989W        W 6605   2.964  28.347   0.660
34990W        W 6606  38.625   8.213   1.839
34991W        W 6607  11.590  18.086  12.614
34992W        W 6608  10.369  31.963  14.069
34993W        W 6609  18.049   5.119   4.112
34994W        W 6610   3.802   9.369   1.696
34995W        W 6611   9.904  29.007   1.817
34996W        W 6612  28.904  42.896   0.876
34997W        W 6613  25.815  38.890  13.073
34998W        W 6614  37.910  43.936   0.447
34999W        W 6615  16.616  38.578  11.138
35000W        W 6616  33.437  42.552  10.607
35001W        W 6617   9.011  36.896  13.242
35002W        W 6618  20.768   0.509  13.381
35003W        W 6619   8.666   1.705   4.562
35004W        W 6620   2.315   4.841   3.599
35005W        W 6621  20.338  26.023  11.122
35006W        W 6622  20.107  38.657   1.923
35007W        W 6623   2.983  27.021   0.740
35008W        W 6624  35.418  28.621   3.560
35009W        W 6625  40.818  29.974  13.804
35010W        W 6626  42.619  22.816  13.080
35011W        W 6627   4.650  22.677  11.093
35012W        W 6628  10.693  12.175   4.075
35013W        W 6629   8.953  21.716   0.746
35014W        W 6630   9.463  27.202   2.809
35015W        W 6631  15.282   6.830  11.553
35016W        W 6632  13.639  15.870  12.944
35017W        W 6633   4.952  26.935  13.613
35018W        W 6634   5.443  11.923  13.154
35019W        W 6635   3.438  11.182  12.348
35020W        W 6636  10.311  10.206   2.242
35021W        W 6637   0.346  24.145   1.951
35022W        W 6638   0.520   1.917  13.507
35023W        W 6639  12.038  40.411   1.350
35024W        W 6640  16.327   5.701  13.795
35025W        W 6641  30.457  24.761  14.941
35026W        W 6642  10.198   0.715  10.892
35027W        W 6643  35.105  24.192   4.895
35028W        W 6644  43.441   9.951  13.405
35029W        W 6645   5.450  23.564   0.281
35030W        W 6646   3.808  37.752  14.518
35031W        W 6647  33.592  17.235   0.282
35032W        W 6648  14.787  25.114  12.878
35033W        W 6649  12.240   0.235  14.937
35034W        W 6650  23.036  39.515  11.874
35035W        W 6651  36.814  12.766   3.618
35036W        W 6652   1.813   8.417  11.177
35037W        W 6653  27.722  27.659  14.007
35038W        W 6654   4.312  20.109   0.060
35039W        W 6655  33.078   0.718   3.177
35040W        W 6656   0.223  19.571   4.475
35041W        W 6657  30.017  10.172  14.241
35042W        W 6658  38.959  15.681  12.183
35043W        W 6659  32.652  11.795  13.561
35044W        W 6660  40.318   7.219   2.915
35045W        W 6661   5.865  20.628  10.686
35046W        W 6662  26.486   7.243  12.380
35047W        W 6663   2.250  30.019   1.299
35048W        W 6664   6.519  34.898  14.395
35049W        W 6665  40.017  27.373   0.210
35050W        W 6666  17.202   4.464  14.625
35051W        W 6667  28.140   6.319   0.274
35052W        W 6668  40.316  28.419  13.444
35053W        W 6669  24.113  39.510  10.556
35054W        W 6670  36.869  43.765  13.861
35055W        W 6671  26.712   4.489  13.347
35056W        W 6672  20.044  32.301   0.278
35057W        W 6673  43.501  35.471  12.558
35058W        W 6674  18.915  10.104  12.187
35059W        W 6675  20.316  25.197  12.027
35060W        W 6676  20.711  39.998   1.801
35061W        W 6677  25.550  17.267  12.443
35062W        W 6678  19.048  29.972   4.389
35063W        W 6679  15.588   4.268   0.296
35064W        W 6680  18.539  22.274  12.000
35065W        W 6681  29.104   5.450   3.810
35066W        W 6682  43.849  19.161   2.754
35067W        W 6683   4.944  19.061   2.187
35068W        W 6684  16.223  41.755   1.724
35069W        W 6685  25.402  37.600  14.736
35070W        W 6686  20.682  22.143  11.918
35071W        W 6687  29.581  13.134  11.113
35072W        W 6688   5.126  25.843   3.279
35073W        W 6689  31.397   1.326  11.575
35074W        W 6690  17.375  30.437  10.202
35075W        W 6691  34.386   4.948   3.656
35076W        W 6692   0.919  33.095   0.025
35077W        W 6693  11.347  33.078   3.596
35078W        W 6694   3.257   6.964  14.827
35079W        W 6695  39.576   9.295  12.154
35080W        W 6696  37.069  13.852   4.548
35081W        W 6697  12.153  23.468  11.300
35082W        W 6698   6.037  13.374  14.178
35083W        W 6699  31.152  12.574   4.563
35084W        W 6700   7.844  36.345  12.060
35085W        W 6701  10.426   2.936   1.517
35086W        W 6702  16.352  38.998  12.937
35087W        W 6703  44.269  37.966  12.040
35088W        W 6704  40.496  37.947  12.089
35089W        W 6705  12.268  43.050   2.004
35090W        W 6706  38.459  12.377  10.624
35091W        W 6707  18.081  31.359  12.577
35092W        W 6708  24.263  39.908  13.263
35093W        W 6709  12.388  30.835   3.342
35094W        W 6710  20.254  27.170   2.689
35095W        W 6711   3.788   7.077   3.767
35096W        W 6712  15.835  20.145  10.799
35097W        W 6713   0.985  31.122   4.457
35098W        W 6714   5.958  41.294  10.720
35099W        W 6715   1.464   9.172   0.218
35100W        W 6716  32.608   3.723   1.362
35101W        W 6717  18.017  42.564   0.197
35102W        W 6718  31.944  23.071  10.445
35103W        W 6719  31.448  42.989  11.080
35104W        W 6720   0.154  12.357  14.426
35105W        W 6721  23.461   3.877  13.923
35106W        W 6722   0.866  39.288   4.637
35107W        W 6723  33.313  16.837   0.468
35108W        W 6724  38.642  41.233  12.018
35109W        W 6725  22.519  43.925  13.261
35110W        W 6726  38.369  17.067  14.291
35111W        W 6727   6.193  10.228   1.642
35112W        W 6728  29.082  13.794  11.939
35113W        W 6729  25.783  36.638   1.298
35114W        W 6730  19.559  37.816   1.872
35115W        W 6731  36.970  34.433   3.111
35116W        W 6732  34.889  34.683  13.488
35117W        W 6733  20.704   8.394  13.554
35118W        W 6734   2.881   2.225   3.121
35119W        W 6735   6.376  26.970   0.363
35120W        W 6736  35.617   0.825   1.786
35121W        W 6737   5.669  28.567   0.478
35122W        W 6738  23.031  15.701  11.821
35123W        W 6739  36.584   0.816  12.759
35124W        W 6740  11.553  32.500   4.280
35125W        W 6741  29.435  23.165  14.868
35126W        W 6742  38.943  27.411  11.959
35127W        W 6743  17.848  10.764  11.353
35128W        W 6744  11.868   2.981   4.533
35129W        W 6745   7.298  11.651  10.661
35130W        W 6746  43.379  38.837  12.395
35131W        W 6747  34.006   6.284  13.521
35132W        W 6748  31.436  23.454   1.129
35133W        W 6749   7.295  40.066   4.360
35134W        W 6750  24.555  25.300  12.686
35135W        W 6751   7.144  28.229   1.503
35136W        W 6752  28.967  12.809   0.607
35137W        W 6753  35.622   1.941  11.266
35138W        W 6754  33.567  23.555  10.797
35139W        W 6755  21.232   9.639  11.017
35140W        W 6756  28.492  31.286   1.612
35141W        W 6757  31.593   5.136   0.905
35142W        W 6758  26.477   3.982  12.422
35143W        W 6759  39.297  44.469  12.424
35144W        W 6760  14.040  19.683   4.168
35145W        W 6761  30.066  32.170  13.387
35146W        W 6762  15.689   3.673   2.643
35147W        W 6763  41.358  13.840   2.812
35148W        W 6764   2.429  34.612   2.219
35149W        W 6765  29.158  34.503   4.208
35150W        W 6766  36.053  40.079   4.149
35151W        W 6767   7.201  13.121   3.279
35152W        W 6768  18.208   3.677   0.696
35153W        W 6769  37.333  34.845   0.909
35154W        W 6770  36.939  43.749   4.641
35155W        W 6771  27.961   8.107  12.873
35156W        W 6772  33.324  23.050   3.356
35157W        W 6773  35.906   2.082   4.087
35158W        W 6774  33.874  37.853   2.757
35159W        W 6775   4.083  40.548   0.420
35160W        W 6776  29.117  18.361  14.068
35161W        W 6777  18.694   6.435  14.911
35162W        W 6778  40.732  34.090   2.275
35163W        W 6779  37.382  13.570   1.196
35164W        W 6780  41.849  11.294   4.520
35165W        W 6781  15.841  43.737  12.933
35166W        W 6782   3.589  15.091  12.442
35167W        W 6783  32.914  13.038  12.628
35168W        W 6784  29.120  41.322   2.102
35169W        W 6785  35.572  30.054   1.337
35170W        W 6786  16.754  21.663  12.781
35171W        W 6787  34.023   3.701   0.046
35172W        W 6788  42.908   3.764   2.325
35173W        W 6789  41.387  32.264  13.937
35174W        W 6790   8.939  44.749  12.586
35175W        W 6791  35.074  28.642   2.922
35176W        W 6792  11.210  27.861  11.871
35177W        W 6793  22.979  22.290   4.116
35178W        W 6794   5.040   4.292  13.435
35179W        W 6795  18.725  12.225  13.396
35180W        W 6796  35.661  18.739   3.242
35181W        W 6797   3.795  36.118   1.895
35182W        W 6798  30.455  36.513  11.165
35183W        W 6799  32.539   3.397   0.384
35184W        W 6800  29.708  39.479  11.113
35185W        W 6801   9.796   5.559   2.529
35186W        W 6802  26.194   3.956  14.757
35187W        W 6803   3.733  13.284  13.154
35188W        W 6804   9.290  13.061  11.658
35189W        W 6805  36.980   7.609   2.359
35190W        W 6806  33.362  44.209  12.074
35191W        W 6807  18.313  24.160  11.627
35192W        W 6808  39.790   0.369  11.109
35193W        W 6809   8.248  40.555   0.289
35194W        W 6810  30.941  29.732   3.257
35195W        W 6811  32.466   9.136  10.992
35196W        W 6812  12.764  17.562   2.755
35197W        W 6813  37.315  17.786   3.262
35198W        W 6814  27.175  36.268   0.317
35199W        W 6815  44.641  21.053  11.294
35200W        W 6816  32.908  25.578  14.902
35201W        W 6817   6.404  29.423   0.286
35202W        W 6818  36.947   2.194   3.342
35203W        W 6819  17.345  43.411   5.236
35204W        W 6820  11.371   1.931   4.324
35205W        W 6821  42.634  13.113   1.294
35206W        W 6822  35.967  44.335  10.715
35207W        W 6823   0.923  22.080  13.945
35208W        W 6824  12.448   7.649  13.351
35209W        W 6825  18.984   1.191  11.937
35210W        W 6826  13.367  20.891  11.134
35211W        W 6827  44.660  22.102   2.800
35212W        W 6828  19.600  43.196   1.787
35213W        W 6829  16.185  22.627  12.705
35214W        W 6830  12.138  29.483   2.041
35215W        W 6831  41.597  12.233  14.781
35216W        W 6832  19.366  34.673   1.325
35217W        W 6833  28.678   2.194  12.908
35218W        W 6834  29.542  38.780  13.912
35219W        W 6835  31.911  32.147   4.182
35220W        W 6836  14.161  17.987   3.758
35221W        W 6837  15.612  14.710   2.846
35222W        W 6838  25.585  19.575  12.488
35223W        W 6839  32.224  21.363   3.855
35224W        W 6840  23.579  42.895   1.343
35225W        W 6841  40.370  28.561   3.773
35226W        W 6842   7.175   0.097   0.800
35227W        W 6843  32.947  18.577   3.160
35228W        W 6844   8.564  13.635  14.358
35229W        W 6845  33.346  38.922   2.255
35230W        W 6846  25.694  39.998  14.545
35231W        W 6847  43.394  12.698  12.795
35232W        W 6848  34.324   9.286   2.709
35233W        W 6849  33.522  30.161   1.475
35234W        W 6850  15.451   4.908  10.082
35235W        W 6851  34.123  15.390  13.880
35236W        W 6852  44.327   8.110  10.629
35237W        W 6853  37.479  32.819   2.744
35238W        W 6854  39.491  34.069   3.698
35239W        W 6855   9.467  18.809  11.630
35240W        W 6856  32.545  30.118   2.339
35241W        W 6857   4.791   6.694  11.643
35242W        W 6858  35.054  23.065   1.129
35243W        W 6859   3.466  44.486   1.573
35244W        W 6860  14.139  33.249  12.317
35245W        W 6861  21.261  17.265   3.103
35246W        W 6862  34.334   0.815  11.884
35247W        W 6863  33.511  11.208  14.389
35248W        W 6864  15.707  32.024   0.824
35249W        W 6865  43.931  36.461   2.620
35250W        W 6866   7.729  12.124  12.070
35251W        W 6867  16.042  41.451   1.295
35252W        W 6868   9.221  10.049  12.765
35253W        W 6869   0.954  26.185  11.464
35254W        W 6870  23.898  41.331  10.733
35255W        W 6871  27.411  37.949  13.475
35256W        W 6872  35.499   0.728  11.912
35257W        W 6873  30.394  17.572   4.640
35258W        W 6874  10.399   4.486   5.094
35259W        W 6875  21.492  35.854  13.496
35260W        W 6876  38.881  41.705   2.939
35261W        W 6877  20.515  35.921  12.086
35262W        W 6878   9.338  37.403  10.590
35263W        W 6879  26.991  14.293   1.773
35264W        W 6880  29.392  16.918   4.675
35265W        W 6881  16.605  43.837   0.475
35266W        W 6882  34.463   5.137   1.005
35267W        W 6883   9.453  32.137   3.728
35268W        W 6884  40.867   8.701   3.891
35269W        W 6885   4.935  42.617  13.015
35270W        W 6886  21.488   2.335   2.287
35271W        W 6887   3.092  11.460   0.471
35272W        W 6888  14.657   1.520   2.761
35273W        W 6889  20.532   7.745   4.714
35274W        W 6890   0.321   8.486  14.731
35275W        W 6891   3.026   7.073  13.681
35276W        W 6892  31.843   4.986   2.341
35277W        W 6893  12.392  33.591   4.236
35278W        W 6894   3.880  37.974   0.024
35279W        W 6895  30.573   6.664  12.007
35280W        W 6896  17.126  11.853   1.878
35281W        W 6897  31.899  25.125   0.556
35282W        W 6898  13.201  10.066  12.394
35283W        W 6899  31.422  21.521   0.462
35284W        W 6900   3.264  30.068  12.767
35285W        W 6901  35.662   2.777   2.856
35286W        W 6902   0.521  42.684  14.924
35287W        W 6903   9.902  22.203  13.886
35288W        W 6904  12.871  39.384  14.871
35289W        W 6905  43.434  16.938   0.391
35290W        W 6906   9.663   8.930   1.754
35291W        W 6907  43.801  38.835  13.730
35292W        W 6908  25.076  13.546   1.874
35293W        W 6909   8.793  31.522  11.632
35294W        W 6910  31.591  40.711  14.365
35295W        W 6911  15.005  16.654   0.350
35296W        W 6912   6.267   5.711   4.205
35297W        W 6913   8.878  39.387   1.105
35298W        W 6914  37.559  43.894  14.843
35299W        W 6915  44.501  19.173  10.766
35300W        W 6916  30.166  15.754   4.573
35301W        W 6917  11.732  11.398  12.560
35302W        W 6918  44.237  28.930  14.466
35303W        W 6919  43.527  31.469  10.850
35304W        W 6920  35.406   7.692   2.535
35305W        W 6921  25.403  23.603   3.633
35306W        W 6922  30.589  31.005  12.545
35307W        W 6923  27.975   8.713   1.454
35308W        W 6924   9.826   5.771   3.656
35309W        W 6925  13.343  32.024  13.394
35310W        W 6926   6.125  13.559   2.326
35311W        W 6927   8.835  41.017  14.600
35312W        W 6928  37.710  12.746   3.763
35313W        W 6929  43.256  17.665   3.214
35314W        W 6930  43.186   5.525   5.019
35315W        W 6931  39.902   4.515   0.242
35316W        W 6932  24.926  20.186  13.843
35317W        W 6933  43.675  28.042  11.600
35318W        W 6934  15.993  26.061   0.058
35319W        W 6935   4.483  43.680  13.880
35320W        W 6936  11.932   0.418  11.353
35321W        W 6937  16.050  13.314  11.971
35322W        W 6938   1.892  43.297  10.582
35323W        W 6939   3.456  14.791   0.310
35324W        W 6940  30.370   3.248   3.140
35325W        W 6941  18.601   5.254   4.192
35326W        W 6942  20.319  42.381   4.148
35327W        W 6943  19.458   5.317  12.578
35328W        W 6944   1.371  35.037   4.328
35329W        W 6945  32.866   1.662   4.280
35330W        W 6946  42.829  21.950   0.855
35331W        W 6947  16.170  31.619  11.074
35332W        W 6948  10.538  40.826  10.310
35333W        W 6949  22.634   1.298  11.217
35334W        W 6950  15.180  44.413  13.985
35335W        W 6951  40.647  14.914  12.591
35336W        W 6952  31.357   0.559   1.754
35337W        W 6953  13.479  25.171  14.401
35338W        W 6954  39.046  42.154  14.509
35339W        W 6955  21.710   9.949  13.971
35340W        W 6956  42.820  38.085  12.376
35341W        W 6957   6.785   2.886   1.864
35342W        W 6958  23.770  10.202  11.642
35343W        W 6959  23.367  38.479  11.212
35344W        W 6960  36.561  24.201  13.415
35345W        W 6961  16.845   2.231  13.533
35346W        W 6962  15.827  20.686   3.865
35347W        W 6963  31.416  36.631  11.510
35348W        W 6964   2.513   0.819  10.673
35349W        W 6965  40.854  29.404  11.531
35350W        W 6966  40.690  30.203  10.918
35351W        W 6967  13.329   2.188  12.348
35352W        W 6968   0.453  24.722   1.328
35353W        W 6969   0.975  34.537  11.499
35354W        W 6970  26.664  28.380  12.980
35355W        W 6971  23.086  42.798   0.482
35356W        W 6972  29.999  37.151  11.390
35357W        W 6973  29.906  21.536   3.712
35358W        W 6974   3.741   8.699  11.531
35359W        W 6975  34.952  19.200   0.729
35360W        W 6976   1.327  20.787  13.919
35361W        W 6977  43.443  31.596   4.807
35362W        W 6978  23.705   3.124  11.680
35363W        W 6979  25.235  15.586   0.302
35364W        W 6980  27.481  24.637  12.826
35365W        W 6981  41.097  28.668   2.143
35366W        W 6982  26.176   8.233  14.401
35367W        W 6983  33.164  18.467   0.782
35368W        W 6984  24.900  12.532   3.994
35369W        W 6985  37.449   4.116  12.398
35370W        W 6986  11.376  34.477   1.732
35371W        W 6987   7.612  26.644  13.155
35372W        W 6988  22.782  33.076   0.655
35373W        W 6989  25.320   3.722  14.424
35374W        W 6990  15.960  18.544   2.976
35375W        W 6991  26.970   4.374   3.066
35376W        W 6992  37.094  23.154  13.450
35377W        W 6993  39.885  35.568  12.933
35378W        W 6994  23.070  10.908   4.415
35379W        W 6995  31.642  36.092   2.978
35380W        W 6996  23.984  38.948  13.876
35381W        W 6997  23.826  19.477   5.078
35382W        W 6998   3.845  30.234  10.733
35383W        W 6999  39.750  14.162  10.411
35384W        W 7000  33.874   5.427   2.365
35385W        W 7001   7.260   4.436  12.920
35386W        W 7002  16.686  43.309  11.165
35387W        W 7003  32.030  41.797   1.756
35388W        W 7004  15.260  24.919  10.752
35389W        W 7005   3.229  26.146  14.314
35390W        W 7006  35.177  24.131  14.133
35391W        W 7007  33.111  12.292  11.091
35392W        W 7008   0.516  22.528   1.324
35393W        W 7009  35.834   2.394  11.445
35394W        W 7010  25.677  33.812  14.195
35395W        W 7011  16.329  14.675  13.454
35396W        W 7012  16.075  20.671   1.152
35397W        W 7013  38.069  15.741  13.083
35398W        W 7014   9.115  18.371  12.486
35399W        W 7015  30.695  37.479   4.535
35400W        W 7016   4.924  44.845   0.864
35401W        W 7017   0.877  20.827   4.148
35402W        W 7018  10.380   1.459  13.965
35403W        W 7019  35.365   4.769  11.406
35404W        W 7020  35.902  44.500  11.668
35405W        W 7021  38.283  28.973  10.292
35406W        W 7022  39.657  28.149  14.888
35407W        W 7023  32.001  16.177   3.236
35408W        W 7024  24.009  33.464   2.897
35409W        W 7025  37.417   8.380   2.128
35410W        W 7026   1.809  26.974   0.350
35411W        W 7027   9.391  44.475  12.467
35412W        W 7028  12.364  30.090   1.760
35413W        W 7029  36.934  32.666   1.031
35414W        W 7030  42.594  37.561   1.187
35415W        W 7031  24.185   1.943  10.711
35416W        W 7032  36.837   7.479   1.705
35417W        W 7033  32.341   1.346  12.925
35418W        W 7034  22.545  17.298  12.377
35419W        W 7035  41.868  17.710  11.208
35420W        W 7036  20.683  36.413  11.969
35421W        W 7037   9.592  26.336  10.631
35422W        W 7038  44.068  23.925   0.255
35423W        W 7039  21.056  38.841   3.048
35424W        W 7040  26.191   6.180   2.475
35425W        W 7041  32.228  43.432  11.517
35426W        W 7042  14.054  29.892   3.253
35427W        W 7043  12.582  42.084  13.482
35428W        W 7044  28.368  25.553   2.343
35429W        W 7045   6.230   7.760   4.369
35430W        W 7046  25.307   6.163  12.521
35431W        W 7047  32.603  34.362  11.620
35432W        W 7048  43.754  36.627   2.141
35433W        W 7049  43.779  12.853  11.513
35434W        W 7050  29.461  21.795   3.651
35435W        W 7051  34.206  30.641  14.166
35436W        W 7052  41.096  33.867  13.936
35437W        W 7053  39.472  38.103   3.260
35438W        W 7054   3.323  15.472  11.098
35439W        W 7055  27.193  19.318   0.206
35440W        W 7056  20.063  37.013  12.468
35441W        W 7057   5.586  29.669   2.130
35442W        W 7058  43.189  41.200   0.223
35443W        W 7059  27.528  44.051  14.727
35444W        W 7060  33.195  10.667   4.881
35445W        W 7061  33.961  30.440   0.180
35446W        W 7062  21.011  32.478  10.894
35447W        W 7063   4.457  22.213   3.785
35448W        W 7064  15.654  29.669  10.793
35449W        W 7065  10.569  22.593   4.444
35450W        W 7066  13.769  25.190  13.542
35451W        W 7067  27.013  13.295  11.988
35452W        W 7068  43.212  13.241  13.953
35453W        W 7069  18.640  18.485  13.570
35454W        W 7070  18.841  13.713  13.396
35455W        W 7071  13.563  10.393   2.092
35456W        W 7072  21.532   3.524   1.355
35457W        W 7073  31.626  17.658  11.533
35458W        W 7074   8.307  11.108   2.900
35459W        W 7075  10.916  28.599   3.733
35460W        W 7076  25.964  14.439   2.393
35461W        W 7077   6.524  30.045   0.757
35462W        W 7078   6.970  19.114  12.558
35463W        W 7079  40.529  34.584  12.478
35464W        W 7080  11.813  12.755   1.330
35465W        W 7081   6.342   5.834  12.849
35466W        W 7082  24.611  27.075  10.857
35467W        W 7083   2.800   2.745   3.218
35468W        W 7084  11.070  32.112   2.299
35469W        W 7085  23.727   3.919   0.799
35470W        W 7086  26.532   8.059   1.478
35471W        W 7087  22.363  43.581  11.561
35472W        W 7088  41.674  26.510   0.804
35473W        W 7089   9.265   7.955   3.768
35474W        W 7090  26.132  14.848  13.943
35475W        W 7091  10.259  13.341  12.488
35476W        W 7092  11.405  15.146  13.373
35477W        W 7093   1.436  40.538  13.813
35478W        W 7094   0.798  36.856   3.205
35479W        W 7095  19.066   6.656   4.104
35480W        W 7096  41.954   2.152  14.836
35481W        W 7097  32.139  26.963   0.270
35482W        W 7098  15.013  39.787   1.898
35483W        W 7099  29.412  28.088   3.423
35484W        W 7100  17.750  27.188  14.395
35485W        W 7101  31.466  10.420  11.238
35486W        W 7102  10.293  37.694  10.204
35487W        W 7103   5.720  23.730  11.506
35488W        W 7104  31.137  35.536  10.706
35489W        W 7105  31.442   0.902  10.644
35490W        W 7106  31.999  23.328  14.307
35491W        W 7107  32.285  20.574  12.622
35492W        W 7108  32.203  17.187   3.219
35493W        W 7109  18.146  39.478   2.290
35494W        W 7110  44.718  21.628   4.185
35495W        W 7111  41.661  44.112   2.851
35496W        W 7112  42.907  18.112  14.035
35497W        W 7113  27.922  17.276  13.499
35498W        W 7114  26.791  31.482  13.353
35499W        W 7115  39.044   3.379  10.168
35500W        W 7116  12.069   6.708   1.837
35501W        W 7117  11.793  36.084  12.655
35502W        W 7118  28.301  44.053   9.725
35503W        W 7119  12.585  16.538   2.876
35504W        W 7120   4.790  32.042   5.403
35505W        W 7121  28.863  19.075   0.937
35506W        W 7122  31.427   3.790   1.125
35507W        W 7123  38.492  26.034   2.595
35508W        W 7124   6.418  11.266  12.950
35509W        W 7125  17.693  30.953   0.779
35510W        W 7126  24.324  43.084   3.893
35511W        W 7127  27.571  38.311  11.093
35512W        W 7128  11.314  30.932   0.802
35513W        W 7129  32.156  39.118   1.878
35514W        W 7130  42.324  14.536   4.096
35515W        W 7131  28.654  42.290   1.461
35516W        W 7132  40.321  38.367   4.146
35517W        W 7133  40.385   6.019   0.935
35518W        W 7134  20.579  22.603  12.123
35519W        W 7135  40.786  32.043  14.561
35520W        W 7136  16.590  34.123   0.002
35521W        W 7137  11.187  19.196   2.110
35522W        W 7138  37.503  36.340   2.707
35523W        W 7139  25.646  16.259   2.443
35524W        W 7140   8.315  29.405  10.719
35525W        W 7141  32.206   0.194   1.664
35526W        W 7142  33.999  41.446  13.579
35527W        W 7143  38.596  12.203  12.402
35528W        W 7144   8.933   2.262  12.148
35529W        W 7145  14.990  30.274  11.970
35530W        W 7146  13.502  31.460  13.099
35531W        W 7147  28.434  32.537  12.144
35532W        W 7148  32.916  32.748  14.280
35533W        W 7149  37.405  16.810   4.123
35534W        W 7150  40.343  37.103  13.415
35535W        W 7151  27.994  35.903   1.916
35536W        W 7152  43.559  19.139  13.413
35537W        W 7153   5.692   5.348   3.280
35538W        W 7154   7.112   9.772   0.889
35539W        W 7155  12.193   5.726   3.322
35540W        W 7156  10.250   5.025  13.917
35541W        W 7157  27.512  14.173  11.500
35542W        W 7158  33.314  38.405   2.377
35543W        W 7159   9.119  32.673  14.606
35544W        W 7160  40.999  35.959   0.794
35545W        W 7161  24.136  37.337   5.004
35546W        W 7162  37.511  12.280   1.590
35547W        W 7163  31.860  17.176  11.155
35548W        W 7164  14.803  13.126   1.855
35549W        W 7165  34.367  25.178  12.513
35550W        W 7166  30.455  26.800   0.734
35551W        W 7167   5.692  15.765   0.872
35552W        W 7168  26.922  40.436   4.635
35553W        W 7169   7.324   6.478   3.686
35554W        W 7170   2.386   1.948   2.918
35555W        W 7171  23.453  12.495   4.191
35556W        W 7172  35.937  14.061  11.060
35557W        W 7173  44.899  24.183   1.699
35558W        W 7174  31.659  14.631  12.544
35559W        W 7175  11.198   5.759   2.469
35560W        W 7176  38.527  14.871  14.426
35561W        W 7177  17.984  11.377   1.786
35562W        W 7178  21.531  24.353   2.152
35563W        W 7179  38.604   2.530   2.700
35564W        W 7180  17.629  35.480   3.421
35565W        W 7181   5.161  38.851  10.415
35566W        W 7182  22.223  41.092  10.732
35567W        W 7183  44.753  24.982  11.606
35568W        W 7184  17.139  26.264  11.514
35569W        W 7185  26.167  28.693  13.043
35570W        W 7186  24.573   6.883   1.999
35571W        W 7187   2.443  12.718  12.983
35572W        W 7188  24.019  22.003  12.896
35573W        W 7189  37.853  21.886   4.705
35574W        W 7190   5.898  31.916   2.379
35575W        W 7191  15.794  20.088  12.896
35576W        W 7192  16.840  21.081  12.535
35577W        W 7193  23.734  14.868  13.871
35578W        W 7194  40.905  15.231   0.201
35579W        W 7195  34.641  23.554   1.263
35580W        W 7196   9.466   9.454   3.705
35581W        W 7197   5.259   2.480   1.332
35582W        W 7198  21.758   9.358  11.164
35583W        W 7199   8.606  19.309  12.974
35584W        W 7200  17.220   0.410   1.029
35585W        W 7201  17.088  35.563  14.285
35586W        W 7202  24.990   1.045   1.018
35587W        W 7203  25.623  15.022   2.818
35588W        W 7204   2.848  28.334  11.209
35589W        W 7205  17.261  39.895  14.802
35590W        W 7206  35.467  15.082   4.663
35591W        W 7207   8.287  15.790   4.423
35592W        W 7208  30.375  23.526  12.872
35593W        W 7209   6.819  24.444  11.221
35594W        W 7210  11.959  40.265   3.809
35595W        W 7211  21.975   2.352  11.991
35596W        W 7212  29.484  13.693  14.018
35597W        W 7213  23.070   0.677  13.472
35598W        W 7214  35.294   5.078   0.849
35599W        W 7215  25.375  42.829   4.768
35600W        W 7216  35.545  41.798   4.227
35601W        W 7217  15.170  23.291   0.515
35602W        W 7218  36.595  15.765  11.961
35603W        W 7219  42.742  10.137  12.925
35604W        W 7220   9.605  12.144  13.019
35605W        W 7221  38.448  34.513   1.973
35606W        W 7222   1.988  30.922   0.196
35607W        W 7223  35.579  19.607   4.329
35608W        W 7224  38.597   9.303   4.698
35609W        W 7225  30.213  40.929   2.406
35610W        W 7226  12.448  20.656   3.855
35611W        W 7227   4.264   1.352  14.947
35612W        W 7228   1.241  37.346  13.366
35613W        W 7229  12.824  27.650   0.466
35614W        W 7230  23.731   4.297  13.871
35615W        W 7231   9.318  37.548   0.815
35616W        W 7232  27.320  35.468   2.950
35617W        W 7233  43.371   2.909   2.032
35618W        W 7234  15.603  34.983  12.865
35619W        W 7235  37.577  22.550   4.967
35620W        W 7236  29.919   0.803  14.593
35621W        W 7237   4.863  30.962  11.935
35622W        W 7238   4.806  31.965   0.919
35623W        W 7239  13.277  23.036   2.395
35624W        W 7240  14.324  29.755  12.018
35625W        W 7241  31.189  24.165   0.808
35626W        W 7242   4.660   0.914  14.020
35627W        W 7243   2.867   8.304   0.957
35628W        W 7244  29.252  18.297   4.740
35629W        W 7245  44.713   9.430   4.284
35630W        W 7246  24.288  30.137  11.074
35631W        W 7247   4.369  32.980  12.268
35632W        W 7248  35.563   4.394  12.926
35633W        W 7249  22.455  40.575  10.779
35634W        W 7250  24.054  19.163   4.305
35635W        W 7251  25.885   8.726  10.965
35636W        W 7252  22.784  37.115  13.415
35637W        W 7253  40.752  33.093  12.861
35638W        W 7254   1.437  17.355   4.588
35639W        W 7255  28.197  19.978  14.800
35640W        W 7256  21.988  17.670  11.603
35641W        W 7257  31.553  11.190   0.289
35642W        W 7258  40.627   1.477  13.922
35643W        W 7259  38.913  38.492   0.415
35644W        W 7260  28.364  21.195  10.190
35645W        W 7261  33.021  28.014   0.204
35646W        W 7262  17.279  38.514  13.406
35647W        W 7263  28.614  36.131   4.387
35648W        W 7264  37.071  39.544   0.518
35649W        W 7265  17.738  29.698   3.229
35650W        W 7266  26.919  31.586  10.668
35651W        W 7267   0.913  21.533  10.691
35652W        W 7268   5.581  40.871   2.845
35653W        W 7269  10.858  15.567   2.314
35654W        W 7270  20.765  31.124  14.020
35655W        W 7271   2.397   4.938   0.175
35656W        W 7272   6.965  41.278   1.925
35657W        W 7273  31.548   8.686  11.600
35658W        W 7274  32.109  25.703   1.319
35659W        W 7275  17.175  27.374  12.003
35660W        W 7276  20.371  17.099   4.217
35661W        W 7277  18.793  25.210   4.456
35662W        W 7278  32.411  43.791   1.016
35663W        W 7279  22.982  12.236   4.636
35664W        W 7280   0.705  38.407   0.398
35665W        W 7281  38.364   1.520  12.420
35666W        W 7282   8.281  15.871  14.914
35667W        W 7283  17.765   0.288  14.532
35668W        W 7284  30.217   5.810  14.786
35669W        W 7285  37.456  33.327  10.892
35670W        W 7286   3.751  35.569   3.662
35671W        W 7287  30.132   1.847  10.549
35672W        W 7288  10.315  37.322  10.585
35673W        W 7289  21.866  32.747   0.546
35674W        W 7290  15.285  27.025   0.512
35675W        W 7291  44.825  40.503  12.653
35676W        W 7292  24.545  18.094   2.007
35677W        W 7293   3.468  20.188   0.928
35678W        W 7294  44.520   0.421   4.213
35679W        W 7295  21.009  18.538  12.717
35680W        W 7296   3.424   4.000   2.148
35681W        W 7297  39.409   4.303  12.002
35682W        W 7298  22.674  22.708   2.317
35683W        W 7299   6.160   8.856  14.903
35684W        W 7300   4.039  19.262  11.247
35685W        W 7301  28.489  10.744  11.715
35686W        W 7302  10.926  18.633  10.796
35687W        W 7303  39.910  18.538  11.248
35688W        W 7304  14.245   2.924  10.717
35689W        W 7305  41.185  13.508   4.145
35690W        W 7306  23.725  30.267  13.433
35691W        W 7307  15.009  22.300   0.296
35692W        W 7308  14.655  12.126  10.634
35693W        W 7309  37.747  22.028  14.970
35694W        W 7310  20.240  29.576  13.600
35695W        W 7311  29.373  16.972  12.133
35696W        W 7312   6.439  37.937   0.571
35697W        W 7313  17.549  22.805   2.243
35698W        W 7314  15.116  26.517   2.527
35699W        W 7315  11.663  42.406  13.993
35700W        W 7316   5.375  38.754  11.445
35701W        W 7317  32.497  37.993  10.531
35702W        W 7318  26.094   7.920   2.132
35703W        W 7319  29.590  27.342   2.829
35704W        W 7320   6.734  34.823   2.361
35705W        W 7321  27.020  28.569  11.456
35706W        W 7322  41.035  27.466   4.110
35707W        W 7323  16.117  43.058   1.921
35708W        W 7324   8.780   6.428  14.030
35709W        W 7325   2.946  25.470  12.360
35710W        W 7326  17.276  14.231  14.914
35711W        W 7327   6.779  39.255   3.627
35712W        W 7328  19.436  42.114   0.555
35713W        W 7329  40.269  18.545   4.183
35714W        W 7330  27.045  18.224   3.184
35715W        W 7331  19.098  23.143  13.070
35716W        W 7332   3.914  23.228  10.695
35717W        W 7333  35.751  13.189   5.047
35718W        W 7334  27.785  26.999  10.669
35719W        W 7335  43.961  12.740  13.909
35720W        W 7336   0.913  35.789   4.024
35721W        W 7337  28.477  31.396  10.982
35722W        W 7338   1.988   3.399  11.628
35723W        W 7339  41.975  28.911   0.290
35724W        W 7340   3.271  33.920  13.968
35725W        W 7341  29.461   5.049   4.229
35726W        W 7342  41.925  24.017   4.687
35727W        W 7343   2.334  14.090   0.360
35728W        W 7344   1.784  12.749  14.685
35729W        W 7345   8.579   9.025   3.631
35730W        W 7346  34.907  40.459  13.080
35731W        W 7347  20.165  16.800  14.941
35732W        W 7348  39.468  22.268  11.086
35733W        W 7349   8.606  27.256  11.060
35734W        W 7350  16.151  14.684  12.966
35735W        W 7351  26.249  13.858  12.594
35736W        W 7352  29.215   9.206   3.282
35737W        W 7353  17.705  28.412  13.994
35738W        W 7354  22.607   6.306  14.360
35739W        W 7355  38.293  32.357  11.059
35740W        W 7356   3.229  43.959  10.802
35741W        W 7357  42.024  43.817   4.122
35742W        W 7358  26.228   2.361  14.212
35743W        W 7359  38.822  22.737   0.338
35744W        W 7360  11.161   5.935  13.072
35745W        W 7361  36.135  36.036  10.459
35746W        W 7362  37.254  37.018   3.858
35747W        W 7363   1.284  10.765  12.983
35748W        W 7364   4.715  31.895   1.875
35749W        W 7365  26.560  37.769   2.754
35750W        W 7366  42.955   3.269  10.897
35751W        W 7367   7.400  42.332   1.156
35752W        W 7368  26.160  13.147  10.413
35753W        W 7369  38.311  10.578  12.034
35754W        W 7370  17.201  16.515   4.573
35755W        W 7371  18.067  19.282  12.042
35756W        W 7372  30.856  13.805  14.041
35757W        W 7373  12.649  11.127  13.987
35758W        W 7374  22.100  31.935  14.709
35759W        W 7375  31.416  12.131   2.211
35760W        W 7376  17.738  26.778  12.979
35761W        W 7377  31.404  19.654   0.501
35762W        W 7378  17.457  37.538  11.078
35763W        W 7379   7.295  12.116  12.359
35764W        W 7380  35.115  37.605   1.363
35765W        W 7381  23.447  14.069   4.158
35766W        W 7382  21.821  13.136  11.986
35767W        W 7383  25.541  44.268  10.253
35768W        W 7384  11.281  26.710   0.018
35769W        W 7385  33.406  13.814  12.951
35770W        W 7386  31.248  29.643  10.924
35771W        W 7387  24.656  15.380  12.477
35772W        W 7388  18.542  34.655  11.814
35773W        W 7389  25.517  34.186  13.846
35774W        W 7390  41.759  27.411  11.970
35775W        W 7391  30.878  37.082  13.916
35776W        W 7392  39.852  17.781  10.650
35777W        W 7393  33.032  34.465  11.377
35778W        W 7394  29.007  23.673  11.553
35779W        W 7395  14.853   7.663   1.369
35780W        W 7396  27.171  14.661  13.394
35781W        W 7397  21.804  17.104   4.806
35782W        W 7398   7.730  39.451   3.683
35783W        W 7399  12.702  26.956   4.520
35784W        W 7400  29.826  35.085   1.912
35785W        W 7401  27.622  16.789  11.498
35786W        W 7402  37.376  32.837  11.097
35787W        W 7403   6.466   1.966   2.866
35788W        W 7404   0.352  18.109  10.610
35789W        W 7405   5.437   3.192   4.578
35790W        W 7406  25.888  37.512  14.910
35791W        W 7407  44.995  37.466   4.781
35792W        W 7408  17.250  21.574  10.613
35793W        W 7409  37.053  12.621  12.939
35794W        W 7410  40.450  40.565  13.386
35795W        W 7411  22.375   0.538   2.259
35796W        W 7412   2.797  14.929  13.896
35797W        W 7413  42.958   3.615  12.197
35798W        W 7414  20.060  19.792  10.654
35799W        W 7415  43.199  37.367  12.649
35800W        W 7416  11.255  13.283  12.827
35801W        W 7417  26.176  28.423  14.375
35802W        W 7418  33.700  29.792  12.657
35803W        W 7419  22.520  34.343   1.467
35804W        W 7420  38.490  25.146   1.421
35805W        W 7421  30.859  11.988  11.645
35806W        W 7422  22.120   8.268  11.382
35807W        W 7423  28.196   0.254  12.001
35808W        W 7424   0.324  15.116  13.833
35809W        W 7425  20.004   6.867  14.356
35810W        W 7426  41.940  16.299   3.112
35811W        W 7427  11.763  22.707   3.789
35812W        W 7428  22.003  14.324   2.846
35813W        W 7429  31.537  37.922   1.119
35814W        W 7430  43.772  32.995   2.838
35815W        W 7431  43.551  11.578   4.269
35816W        W 7432  14.775  22.748  13.899
35817W        W 7433  39.028   9.054  12.953
35818W        W 7434  26.927  44.372  13.826
35819W        W 7435  33.632   7.935  12.579
35820W        W 7436  12.667   8.984   0.768
35821W        W 7437  34.620  25.191  13.866
35822W        W 7438  24.131  21.977   2.354
35823W        W 7439  11.601   7.379  12.150
35824W        W 7440  41.794  22.679  12.048
35825W        W 7441  19.021  15.643   4.637
35826W        W 7442  26.973  28.996  10.749
35827W        W 7443  22.792  40.736  11.130
35828W        W 7444  43.507  30.356   1.738
35829W        W 7445  19.629   1.985   1.999
35830W        W 7446  35.105  34.874   0.252
35831W        W 7447  20.018   4.349   1.929
35832W        W 7448  13.139  41.522   4.318
35833W        W 7449  17.258  22.031  12.421
35834W        W 7450  25.094  15.677  12.905
35835W        W 7451  25.655  12.220   2.695
35836W        W 7452  34.556   6.234   4.192
35837W        W 7453  10.296  15.183  10.668
35838W        W 7454  30.937  37.984   0.924
35839W        W 7455   0.239  40.347  12.388
35840W        W 7456  43.385  23.169   4.621
35841W        W 7457  20.414  39.994  13.844
35842W        W 7458  39.335  34.925   3.150
35843W        W 7459  12.658   4.878   2.312
35844W        W 7460  30.397  29.047  13.286
35845W        W 7461   2.953  43.274  11.114
35846W        W 7462  26.362   0.374  11.204
35847W        W 7463   1.933  17.389   2.942
35848W        W 7464  19.065  42.421  11.465
35849W        W 7465   9.217   9.720  13.319
35850W        W 7466  31.142   5.493   0.670
35851W        W 7467  42.409  24.147   0.408
35852W        W 7468  30.528  21.529   3.303
35853W        W 7469  15.764  20.573   0.253
35854W        W 7470  33.824  31.474  12.291
35855W        W 7471  26.190   6.192  10.643
35856W        W 7472  15.068  26.953  13.392
35857W        W 7473   9.748  11.234  10.435
35858W        W 7474  10.007  29.327   4.119
35859W        W 7475  24.908  37.561  11.103
35860W        W 7476  33.800  41.843   3.094
35861W        W 7477  27.030  23.814   0.257
35862W        W 7478  17.674   1.237  10.650
35863W        W 7479  20.022  14.271  14.669
35864W        W 7480  36.534  29.417  11.645
35865W        W 7481  31.634  15.211   2.741
35866W        W 7482  13.155  38.132  14.803
35867W        W 7483  12.782  13.536   1.513
35868W        W 7484  18.995  42.255  10.730
35869W        W 7485  33.111  36.090   3.210
35870W        W 7486  21.588  32.206  12.901
35871W        W 7487  27.088  37.278   1.499
35872W        W 7488  18.227   6.951   1.946
35873W        W 7489  23.498   5.377  12.428
35874W        W 7490  16.781  12.233   1.256
35875W        W 7491  39.894  44.594   3.068
35876W        W 7492   5.797  11.709  11.727
35877W        W 7493  19.610  12.166   0.882
35878W        W 7494  19.688  31.567   2.980
35879W        W 7495  27.640  24.910   2.184
35880W        W 7496  42.920   7.835   2.710
35881W        W 7497  19.630  23.460   0.183
35882W        W 7498  28.940  13.411   2.296
35883W        W 7499  23.702  20.017  12.876
35884W        W 7500   9.870   8.777   0.713
35885W        W 7501   3.487  32.998  12.452
35886W        W 7502  27.052  39.990  13.939
35887W        W 7503  16.295  39.408   0.051
35888W        W 7504  15.247  24.653   2.893
35889W        W 7505  11.885   1.307   2.178
35890W        W 7506  33.230  42.813   1.304
35891W        W 7507  23.054  33.630   0.877
35892W        W 7508   8.473  24.702   1.520
35893W        W 7509  10.801  35.347   2.277
35894W        W 7510  34.179  33.545  10.176
35895W        W 7511   5.968  28.901   4.339
35896W        W 7512  39.968   4.853   2.781
35897W        W 7513  44.198  16.719   2.434
35898W        W 7514  38.135  11.275  13.315
35899W        W 7515  22.014  25.663   0.866
35900W        W 7516  19.627   9.136  14.350
35901W        W 7517  34.573  12.366   3.585
35902W        W 7518  15.089  17.974  10.184
35903W        W 7519  36.423  34.455  12.429
35904W        W 7520  20.846  41.973   2.729
35905W        W 7521  24.433  17.044   3.810
35906W        W 7522   7.172  44.830  12.488
35907W        W 7523   1.476   7.448  12.099
35908W        W 7524  11.183   0.869  14.961
35909W        W 7525  10.571   9.243   0.929
35910W        W 7526  15.492  30.355  11.950
35911W        W 7527  18.902  35.617  10.394
35912W        W 7528  34.777  35.854  11.563
35913W        W 7529  37.101  21.675  14.848
35914W        W 7530   5.596  44.368  10.246
35915W        W 7531  28.255   1.004   1.017
35916W        W 7532  20.032   4.788   1.648
35917W        W 7533  29.965  19.533   0.956
35918W        W 7534  22.049  25.980  14.739
35919W        W 7535  38.113  18.246   3.269
35920W        W 7536   2.582  28.967   5.050
35921W        W 7537  18.609   4.346   0.245
35922W        W 7538  34.841   9.752   0.317
35923W        W 7539  29.003  14.603  12.443
35924W        W 7540  19.472  12.778  14.099
35925W        W 7541  23.014  29.528   3.747
35926W        W 7542  33.658  11.494  12.958
35927W        W 7543   6.762  25.486  13.904
35928W        W 7544  20.761  12.889  14.263
35929W        W 7545  11.825  35.068  10.675
35930W        W 7546  41.820  35.471  12.890
35931W        W 7547  18.091  39.572  10.778
35932W        W 7548   7.104   9.042  13.053
35933W        W 7549  20.828  36.971   1.428
35934W        W 7550  15.161  43.870   1.939
35935W        W 7551  38.793  29.090  11.523
35936W        W 7552  41.542  32.950  11.782
35937W        W 7553  35.318  32.395  11.114
35938W        W 7554  22.139  23.739   3.841
35939W        W 7555  32.390  23.554  12.790
35940W        W 7556  13.543  20.159  11.784
35941W        W 7557  41.824  29.520   1.272
35942W        W 7558  18.518  34.923   4.593
35943W        W 7559  13.109  22.692   1.629
35944W        W 7560  41.882   4.634   2.151
35945W        W 7561  30.781  43.204   4.147
35946W        W 7562  26.644  40.933  14.965
35947W        W 7563  23.441  23.169  11.567
35948W        W 7564   8.456  26.560   1.257
35949W        W 7565  16.009  22.282   3.213
35950W        W 7566   9.662  15.552   4.313
35951W        W 7567  17.158   1.637   4.022
35952W        W 7568  41.564   7.696   2.069
35953W        W 7569  15.719  38.545   4.096
35954W        W 7570   5.834  40.070   0.745
35955W        W 7571   6.552  40.826  14.423
35956W        W 7572  34.862   4.392   0.489
35957W        W 7573   4.312  27.364  12.626
35958W        W 7574   0.120  31.835   3.259
35959W        W 7575   1.696   2.153  10.731
35960W        W 7576  26.344  26.571   3.567
35961W        W 7577   6.836  11.410   2.460
35962W        W 7578  38.661  30.828   3.569
35963W        W 7579  43.013   8.318  13.921
35964W        W 7580  20.027  34.176  13.447
35965W        W 7581  35.909   3.869   3.328
35966W        W 7582  37.904  19.118  11.148
35967W        W 7583  10.752  31.945  11.798
35968W        W 7584  21.314  29.915   4.854
35969W        W 7585  21.621  42.494  13.852
35970W        W 7586  17.057  18.285   3.667
35971W        W 7587  27.395  21.513  12.484
35972W        W 7588  36.218  29.517  14.348
35973W        W 7589  25.317  14.920  14.943
35974W        W 7590  42.418  18.628   2.157
35975W        W 7591  29.141   6.290  10.997
35976W        W 7592   3.481   6.659   3.220
35977W        W 7593  29.505   6.838   0.409
35978W        W 7594  43.215  33.279  14.396
35979W        W 7595   5.098   4.371   4.536
35980W        W 7596  34.097  20.617   0.115
35981W        W 7597  15.925  28.341   3.616
35982W        W 7598  26.984  32.492   0.332
35983W        W 7599  36.363  17.653  12.928
35984W        W 7600  27.242  14.112   1.325
35985W        W 7601   7.273   0.933  11.400
35986W        W 7602   4.378   4.197   3.692
35987W        W 7603   3.561  21.851   2.868
35988W        W 7604  18.613   9.580  14.961
35989W        W 7605  43.257   0.279   1.501
35990W        W 7606  32.460  44.988   4.818
35991W        W 7607  10.464  19.736   0.974
35992W        W 7608   2.376  31.884  12.149
35993W        W 7609  18.507   4.383   3.770
35994W        W 7610  44.338  33.185   1.764
35995W        W 7611   5.760  16.157   4.518
35996W        W 7612  27.911  14.582  13.174
35997W        W 7613  33.045   6.468   2.265
35998W        W 7614  29.563  25.943  10.651
35999W        W 7615  35.777   3.195  14.316
36000W        W 7616  44.961  18.109   3.324
36001W        W 7617  34.631  36.963   4.748
36002W        W 7618  20.141   2.025  11.594
36003W        W 7619   8.770   5.651  14.428
36004W        W 7620  27.265  17.370  12.090
36005W        W 7621  21.050  44.475  12.309
36006W        W 7622  23.530  24.141  11.904
36007W        W 7623   2.247  22.683   4.991
36008W        W 7624  18.465  36.032   4.661
36009W        W 7625  42.912   0.587   0.593
36010W        W 7626  20.766   4.548   2.863
36011W        W 7627  29.962  24.721   1.267
36012W        W 7628  26.690  40.029   4.848
36013W        W 7629  28.659  26.093   3.602
36014W        W 7630  20.613  18.096  11.077
36015W        W 7631  11.283  29.819   2.447
36016W        W 7632   5.190  19.780  10.669
36017W        W 7633  33.146  28.871   2.455
36018W        W 7634  39.924  43.276  12.209
36019W        W 7635   8.149  20.524   1.407
36020W        W 7636  32.238  17.800  14.250
36021W        W 7637  16.202  11.657  10.655
36022W        W 7638   2.342  37.858   1.742
36023W        W 7639  24.064  30.450  14.285
36024W        W 7640  19.479  33.254  14.789
36025W        W 7641  19.142   2.926  13.508
36026W        W 7642  10.897   0.730  12.511
36027W        W 7643  13.279  23.189   3.703
36028W        W 7644  22.593   3.975  14.368
36029W        W 7645  20.035  14.620  11.083
36030W        W 7646  38.463  39.969  11.587
36031W        W 7647   4.706  24.906  14.530
36032W        W 7648  35.394   3.422   1.224
36033W        W 7649  37.489  22.926   2.161
36034W        W 7650  19.687   7.077  13.761
36035W        W 7651  29.925  27.288  13.661
36036W        W 7652  36.046  40.013   2.418
36037W        W 7653  33.502  40.271  13.072
36038W        W 7654  29.945  39.220   0.838
36039W        W 7655  39.445  44.558   0.667
36040W        W 7656  20.411  31.626  11.417
36041W        W 7657  25.099  23.493  14.408
36042W        W 7658  16.877  37.907   0.416
36043W        W 7659  40.900  10.148   4.132
36044W        W 7660   4.814  28.139  12.194
36045W        W 7661  18.647   5.205  14.360
36046W        W 7662  20.288  37.039  14.573
36047W        W 7663  15.621   7.741   0.053
36048W        W 7664  22.165  35.197  12.106
36049W        W 7665  42.504  32.778   3.284
36050W        W 7666  32.489  14.700   4.319
36051W        W 7667  43.551   2.316   3.187
36052W        W 7668   3.644  26.484  11.111
36053W        W 7669   8.128  38.520  10.838
36054W        W 7670  15.724  13.372  11.561
36055W        W 7671   6.753  20.971   1.455
36056W        W 7672  30.983   4.581   2.807
36057W        W 7673  14.089   5.648  12.481
36058W        W 7674   8.352   8.822   0.403
36059W        W 7675  33.054   2.067  12.097
36060W        W 7676   0.100  37.303  10.145
36061W        W 7677   3.488  39.328   0.351
36062W        W 7678  33.064  44.271   0.000
36063W        W 7679   1.362  20.954   2.353
36064W        W 7680  31.146  18.775  12.070
36065W        W 7681  19.553  37.061  12.449
36066W        W 7682  28.241   4.844  12.509
36067W        W 7683  14.152  38.655   4.654
36068W        W 7684  12.559  15.542   2.666
36069W        W 7685  38.367  13.224   2.571
36070W        W 7686  39.982  22.042   3.210
36071W        W 7687  44.934  43.401  13.413
36072W        W 7688  31.687  38.281   2.751
36073W        W 7689   0.921  27.880  10.961
36074W        W 7690  25.663  41.388   3.194
36075W        W 7691   9.968  23.047   0.866
36076W        W 7692   2.880  41.040  12.095
36077W        W 7693  23.144  20.223   4.134
36078W        W 7694   0.747  34.485   1.818
36079W        W 7695  39.272  19.678   0.387
36080W        W 7696   6.200  10.600   4.603
36081W        W 7697   8.226  17.567   3.850
36082W        W 7698  35.421  10.905   4.386
36083W        W 7699   8.198  42.482  12.555
36084W        W 7700  28.971   5.695  14.423
36085W        W 7701  41.072   9.792   3.216
36086W        W 7702   0.400  32.369   4.179
36087W        W 7703  11.364  14.742  13.029
36088W        W 7704  36.436  38.464   2.399
36089W        W 7705  30.114  43.582  12.657
36090W        W 7706  42.767  17.593   2.265
36091W        W 7707   7.965  27.417   0.943
36092W        W 7708  14.634   1.868   1.431
36093W        W 7709  19.941  13.784   2.596
36094W        W 7710  12.378   3.314  14.362
36095W        W 7711  43.492  27.677   2.302
36096W        W 7712   0.263  17.559  11.405
36097W        W 7713  15.269   2.273  10.665
36098W        W 7714   0.936  20.087  14.952
36099W        W 7715  27.988  28.778  14.545
36100W        W 7716  28.152  11.332   2.737
36101W        W 7717  43.235  39.412  10.612
36102W        W 7718  39.436   0.978   0.388
36103W        W 7719  36.066  26.464   1.351
36104W        W 7720  30.376  19.498  13.336
36105W        W 7721  15.841  22.806   5.109
36106W        W 7722  13.428  23.144   1.525
36107W        W 7723  30.097  14.784   3.505
36108W        W 7724   7.965   1.232   2.821
36109W        W 7725  28.105  22.236   1.832
36110W        W 7726  15.120  20.754  10.643
36111W        W 7727   0.784  19.668   1.333
36112W        W 7728  20.783  23.607   2.657
36113W        W 7729  18.585  25.186   1.028
36114W        W 7730  12.686   5.171  14.469
36115W        W 7731   3.401  29.627  12.510
36116W        W 7732  43.036   6.439  13.019
36117W        W 7733   4.126   9.870   3.778
36118W        W 7734  34.539  29.971  11.091
36119W        W 7735  44.956   7.196  11.368
36120W        W 7736  40.569  42.890  13.736
36121W        W 7737   2.809  25.609   1.696
36122W        W 7738  36.559  25.444  14.779
36123W        W 7739  15.856  15.503   0.934
36124W        W 7740  12.097   5.811  12.888
36125W        W 7741  37.380  22.831  10.672
36126W        W 7742  14.238  30.191   2.863
36127W        W 7743  26.202   5.197  13.399
36128W        W 7744  33.641  43.507  13.475
36129W        W 7745   8.422  37.916   0.033
36130W        W 7746  16.582   5.176   4.582
36131W        W 7747  14.195  37.814  10.596
36132W        W 7748  40.859  27.945  10.730
36133W        W 7749  12.263  33.102   0.893
36134W        W 7750  24.211  25.285  10.323
36135W        W 7751  16.772  15.704   1.922
36136W        W 7752  33.022  10.431  13.469
36137W        W 7753  25.486  17.536   1.403
36138W        W 7754  39.724  14.520  12.941
36139W        W 7755  40.525  26.804  10.966
36140W        W 7756  36.986  16.569  14.823
36141W        W 7757  39.936  40.043   1.475
36142W        W 7758  40.076   5.486   1.447
36143W        W 7759   5.418  14.020  12.168
36144W        W 7760  22.674  38.613  10.577
36145W        W 7761  24.778   8.682  11.557
36146W        W 7762  12.858  32.981  14.498
36147W        W 7763  20.741  14.647  13.644
36148W        W 7764  18.026   0.737  12.070
36149W        W 7765  32.966  10.369   3.658
36150W        W 7766  16.603   4.818  13.315
36151W        W 7767  25.656   6.177  14.393
36152W        W 7768  35.394  17.782   2.366
36153W        W 7769  18.811  27.417  10.626
36154W        W 7770  18.537   3.344  14.236
36155W        W 7771  15.579   6.876   0.874
36156W        W 7772  15.632  32.813  13.013
36157W        W 7773  39.835  38.418   2.364
36158W        W 7774  39.589  38.072  12.011
36159W        W 7775  24.557  28.896  11.180
36160W        W 7776   3.425  41.039  12.899
36161W        W 7777   4.992  26.189   4.480
36162W        W 7778  39.453  44.944   1.029
36163W        W 7779  38.678  19.304  11.956
36164W        W 7780  38.580  27.485   1.709
36165W        W 7781   5.425   8.278   4.132
36166W        W 7782  34.076  27.447   4.001
36167W        W 7783  22.368  24.539   1.805
36168W        W 7784  34.960  23.018  13.401
36169W        W 7785   0.458  12.798   3.585
36170W        W 7786   5.899  43.354   1.623
36171W        W 7787   7.332  31.596   0.274
36172W        W 7788   8.965  29.898   3.471
36173W        W 7789   0.980  34.367   0.830
36174W        W 7790  18.608  23.917   2.356
36175W        W 7791  36.910  22.940   4.483
36176W        W 7792  12.310  14.573  14.803
36177W        W 7793   9.299  15.322  13.325
36178W        W 7794  35.921  41.369  14.246
36179W        W 7795  44.190  21.486  10.422
36180W        W 7796   3.972  35.056   4.565
36181W        W 7797   9.620  42.144  14.909
36182W        W 7798   8.429  29.237   3.561
36183W        W 7799  21.123  38.853   2.438
36184W        W 7800  13.122  40.006   5.248
36185W        W 7801  31.552  20.175  13.805
36186W        W 7802   4.708  42.594   0.920
36187W        W 7803  22.808  25.489  12.505
36188W        W 7804  35.319  23.203   4.061
36189W        W 7805   8.457  19.583  13.427
36190W        W 7806  25.487  14.615  11.141
36191W        W 7807  25.496  40.032  12.538
36192W        W 7808   6.410  44.773  12.030
36193W        W 7809  36.234  28.494  11.196
36194W        W 7810  29.106  25.025  10.720
36195W        W 7811  42.348  20.298   1.266
36196W        W 7812  19.670   9.309  12.544
36197W        W 7813  44.175  19.991  14.257
36198W        W 7814  37.596  23.496   3.794
36199W        W 7815  20.487  16.908   0.342
36200W        W 7816  33.389   7.910  12.135
36201W        W 7817  35.825   5.515  12.001
36202W        W 7818  38.880   9.543  13.058
36203W        W 7819  43.619  21.171   0.553
36204W        W 7820  37.784  37.697   1.679
36205W        W 7821  33.888   3.938  14.392
36206W        W 7822   0.561  15.997  13.809
36207W        W 7823  31.041  21.004  11.539
36208W        W 7824  20.620  35.198  11.642
36209W        W 7825  28.322  27.221   4.845
36210W        W 7826   6.837   2.836  14.093
36211W        W 7827  20.827  43.124   0.516
36212W        W 7828   6.855  33.541  13.514
36213W        W 7829  27.883  10.837   2.700
36214W        W 7830  40.711  18.438  14.506
36215W        W 7831  40.873  27.253  12.954
36216W        W 7832  31.118  39.588  13.817
36217W        W 7833   5.321  37.082   4.129
36218W        W 7834   6.778  27.732   5.006
36219W        W 7835  28.509  23.117   4.301
36220W        W 7836  39.635  26.924   0.659
36221W        W 7837  39.784  23.732   5.030
36222W        W 7838  28.975  22.570  12.887
36223W        W 7839   8.656  27.572   2.762
36224W        W 7840  28.611  13.525   5.013
36225W        W 7841   1.513   6.351  14.498
36226W        W 7842  37.562  40.328   5.009
36227W        W 7843  32.867   9.740  12.034
36228W        W 7844  44.421  17.526  10.723
36229W        W 7845  16.577   3.432  11.847
36230W        W 7846   8.477  42.757   3.169
36231W        W 7847  34.841  38.435  13.288
36232W        W 7848   8.171  20.684   0.224
36233W        W 7849  44.771  29.523  12.304
36234W        W 7850  42.022  29.612   2.784
36235W        W 7851   3.630  36.529  11.614
36236W        W 7852  36.472  35.511   2.191
36237W        W 7853  12.644  14.915  14.497
36238W        W 7854   3.465  34.148  11.271
36239W        W 7855  43.469   1.456  13.538
36240W        W 7856  17.592   6.381   2.255
36241W        W 7857  10.705  42.787   1.834
36242W        W 7858  36.975  25.536  10.651
36243W        W 7859  33.621  17.606  14.887
36244W        W 7860   7.914  19.408  13.341
36245W        W 7861   5.744  18.180  13.923
36246W        W 7862  35.219  39.970  12.491
36247W        W 7863  27.003   3.509   2.241
36248W        W 7864   4.922  15.670  12.509
36249W        W 7865  22.931  31.744   2.377
36250W        W 7866  18.396   7.921  11.606
36251W        W 7867   1.011  27.928   1.012
36252W        W 7868   2.901   0.240   0.137
36253W        W 7869   9.927  12.643  12.938
36254W        W 7870  36.077   7.967   4.499
36255W        W 7871  20.695  32.411  13.308
36256W        W 7872  16.795  40.779   3.244
36257W        W 7873  27.693  14.742   2.985
36258W        W 7874  23.260  23.188   4.080
36259W        W 7875   2.384  38.005   3.720
36260W        W 7876  30.351  27.407  12.528
36261W        W 7877  32.890  13.793  12.029
36262W        W 7878  28.218  36.811  12.358
36263W        W 7879  39.645  14.353   4.186
36264W        W 7880  18.641  40.830  12.345
36265W        W 7881   2.402  12.110  14.924
36266W        W 7882  19.377  35.930  11.139
36267W        W 7883  15.044  39.845  12.513
36268W        W 7884  35.106  30.446   4.671
36269W        W 7885  34.542   3.767   2.340
36270W        W 7886  28.547  44.940  13.647
36271W        W 7887  20.470  17.671  12.905
36272W        W 7888  20.734  34.260  14.792
36273W        W 7889  42.399   4.979  11.078
36274W        W 7890   7.365  37.323  10.692
36275W        W 7891  14.408   9.702  12.969
36276W        W 7892  38.792  10.651   3.167
36277W        W 7893  44.736  35.310   4.104
36278W        W 7894  35.807   2.432  10.538
36279W        W 7895  27.531  35.662  14.313
36280W        W 7896  34.420  40.038   1.854
36281W        W 7897  37.401   6.456  13.609
36282W        W 7898  43.490  33.073  12.029
36283W        W 7899  35.101  26.465   2.789
36284W        W 7900  43.303   9.219   2.652
36285W        W 7901  43.539   3.308  13.804
36286W        W 7902  19.934  25.680   4.836
36287W        W 7903  37.202   7.452  10.661
36288W        W 7904  14.410   1.392   1.332
36289W        W 7905  31.254  39.836   4.122
36290W        W 7906  15.431   4.139  11.493
36291W        W 7907  42.297  20.753   2.808
36292W        W 7908  17.089   7.402  10.999
36293W        W 7909  40.743  27.449   2.729
36294W        W 7910  38.922  35.469   0.873
36295W        W 7911  19.369   1.863  14.972
36296W        W 7912  36.509   5.461   0.412
36297W        W 7913  29.170  39.889   1.599
36298W        W 7914  19.240  35.188  10.412
36299W        W 7915  32.624  27.557   5.509
36300W        W 7916   3.660   0.230   1.123
36301W        W 7917  15.195  35.158  12.556
36302W        W 7918  43.510  16.239   5.046
36303W        W 7919  18.048   8.201   0.333
36304W        W 7920  30.031  37.097  12.323
36305W        W 7921   4.613  42.904   4.563
36306W        W 7922  15.840  38.653  13.425
36307W        W 7923  39.423  21.220   0.630
36308W        W 7924  43.014  30.822  13.437
36309W        W 7925  32.010  31.436  13.584
36310W        W 7926  10.383  22.085   4.563
36311W        W 7927  44.164  42.382  12.883
36312W        W 7928   0.186  19.033  11.345
36313W        W 7929  20.593   3.539  13.509
36314W        W 7930  42.731   4.828   0.734
36315W        W 7931  22.874  36.055  13.929
36316W        W 7932   1.276  36.494   3.142
36317W        W 7933  25.333  14.309   3.191
36318W        W 7934   4.227  29.984   1.307
36319W        W 7935   7.433  19.796  14.399
36320W        W 7936  27.249   3.457  12.551
36321W        W 7937  32.584  19.099  11.141
36322W        W 7938  18.630  24.536   1.390
36323W        W 7939  35.373   7.014  12.752
36324W        W 7940  13.295  34.868  10.762
36325W        W 7941  29.385  34.965  10.815
36326W        W 7942  34.032  29.368   1.575
36327W        W 7943   0.497  23.520  11.896
36328W        W 7944  26.605  43.336   0.874
36329W        W 7945  20.946   7.515  10.355
36330W        W 7946  43.703  34.418   1.718
36331W        W 7947  44.282  29.079  13.090
36332W        W 7948  29.220  19.721  11.536
36333W        W 7949   4.263  24.236   5.467
36334W        W 7950  10.871   0.076   4.199
36335W        W 7951  12.445  32.781  11.622
36336W        W 7952  25.433  27.573   0.336
36337W        W 7953  15.883  16.280  10.726
36338W        W 7954  33.002  35.711   2.115
36339W        W 7955  41.514  37.069  13.894
36340W        W 7956  44.848   0.393  10.715
36341W        W 7957   8.606  42.900  13.431
36342W        W 7958  42.404  25.815  12.996
36343W        W 7959   7.747   4.844  14.306
36344W        W 7960  16.945  13.383  14.679
36345W        W 7961   0.691  44.438  11.550
36346W        W 7962  33.477  39.729  13.154
36347W        W 7963  43.191  26.934  11.441
36348W        W 7964  11.092  32.418  12.497
36349W        W 7965   6.779  15.216  11.869
36350W        W 7966  15.309  36.517  14.956
36351W        W 7967  30.212   9.133   3.197
36352W        W 7968  42.350  20.266   0.752
36353W        W 7969  38.317  31.042  14.921
36354W        W 7970  13.195  24.869   1.950
36355W        W 7971  12.451  38.972  10.537
36356W        W 7972  34.562  25.421   4.463
36357W        W 7973  14.341   1.036   4.044
36358W        W 7974  42.548  24.503   1.691
36359W        W 7975   9.133  40.355   2.578
36360W        W 7976  19.967  37.998   4.193
36361W        W 7977  13.429  10.066   9.901
36362W        W 7978   0.398   6.923   1.395
36363W        W 7979   7.748  24.639   3.195
36364W        W 7980  27.765  17.556  12.457
36365W        W 7981  16.828  37.902  14.388
36366W        W 7982  10.127  33.517  11.054
36367W        W 7983   1.647  29.364  14.748
36368W        W 7984   7.449  29.067  12.526
36369W        W 7985   4.269  12.757   1.314
36370W        W 7986  29.730  23.271   1.860
36371W        W 7987   4.317   6.178   1.017
36372W        W 7988  27.220  22.544  12.910
36373W        W 7989  36.784   4.806   1.843
36374W        W 7990  42.966  37.921   4.090
36375W        W 7991  19.767  41.548  13.619
36376W        W 7992  28.139  15.608   4.643
36377W        W 7993  35.528  35.103   1.511
36378W        W 7994  37.402  36.841  13.445
36379W        W 7995   9.364  36.896  14.321
36380W        W 7996  35.961  11.627   3.106
36381W        W 7997   7.710  12.343  10.738
36382W        W 7998   3.931  28.566   1.341
36383W        W 7999   5.923  22.955   1.392
36384W        W 8000  13.398  32.442  13.068
36385W        W 8001  37.368  19.978  12.215
36386W        W 8002   5.991   2.825  14.073
36387W        W 8003  23.059  29.128   1.972
36388W        W 8004   5.343  20.980  14.471
36389W        W 8005  11.621  16.831  13.525
36390W        W 8006   0.538  28.165  12.626
36391W        W 8007  19.733  30.999   4.219
36392W        W 8008  10.159  20.152   3.641
36393W        W 8009  19.137  14.836  13.432
36394W        W 8010  13.166  36.152   2.910
36395W        W 8011  13.616  14.523  10.715
36396W        W 8012  40.175  26.911  14.003
36397W        W 8013  34.049  36.937  13.457
36398W        W 8014  20.587  25.557  12.817
36399W        W 8015   1.404  39.090   3.252
36400W        W 8016  34.681   1.961   1.808
36401W        W 8017  17.293  29.507  13.511
36402W        W 8018  13.118  28.027   0.254
36403W        W 8019  22.182  35.561  11.121
36404W        W 8020  28.604  31.242   4.629
36405W        W 8021  15.287  13.665  14.428
36406W        W 8022  32.121  32.922   4.590
36407W        W 8023  33.757   6.611   1.206
36408W        W 8024  32.100  35.053   3.608
36409W        W 8025  42.148  29.019   0.779
36410W        W 8026  10.161   1.145  11.167
36411W        W 8027  24.984  31.145  11.617
36412W        W 8028   5.290  21.226   2.676
36413W        W 8029  35.518  35.250   1.998
36414W        W 8030   3.290  35.529   0.816
36415W        W 8031  23.251   8.847  11.545
36416W        W 8032   3.882  41.498   0.381
36417W        W 8033  24.861  24.707  14.873
36418W        W 8034  43.408  35.419   0.630
36419W        W 8035   1.958  31.885  11.507
36420W        W 8036  39.558  18.604  12.555
36421W        W 8037  27.979  33.301   1.924
36422W        W 8038  14.934  28.130   0.324
36423W        W 8039  24.601  13.331   0.702
36424W        W 8040  15.817  10.593   4.092
36425W        W 8041  39.067  24.749  12.832
36426W        W 8042  12.123  38.500  13.893
36427W        W 8043  44.420  41.680   1.889
36428W        W 8044  14.371  15.678  11.073
36429W        W 8045  16.712   7.301  12.630
36430W        W 8046  21.735  43.328   1.347
36431W        W 8047  38.125  38.957  10.814
36432W        W 8048  26.970  30.622   1.000
36433W        W 8049  27.282   0.810   4.177
36434W        W 8050  37.514  33.597   3.329
36435W        W 8051  11.309  19.917   1.642
36436W        W 8052  19.067  31.930   3.072
36437W        W 8053  31.443   2.908  13.310
36438W        W 8054  43.500   9.773   4.654
36439W        W 8055  13.199  39.003   1.584
36440W        W 8056   6.903  34.303  10.582
36441W        W 8057  41.995  23.781   3.420
36442W        W 8058   1.869  29.169  13.084
36443W        W 8059  43.653  12.236  14.914
36444W        W 8060  40.895   7.627   2.363
36445W        W 8061  10.635  28.517  12.506
36446W        W 8062   7.262  25.428  13.982
36447W        W 8063   0.074  34.428  14.045
36448W        W 8064  18.322   5.916  12.967
36449W        W 8065  42.877  30.573   1.884
36450W        W 8066  10.133  29.226  13.574
36451W        W 8067  11.254  33.584  10.956
36452W        W 8068  23.995  34.862  13.143
36453W        W 8069  17.329  39.740   1.300
36454W        W 8070   9.813   3.108   0.470
36455W        W 8071   2.905   9.376   2.478
36456W        W 8072  11.361  42.489  14.988
36457W        W 8073   3.277   0.505   2.663
36458W        W 8074  25.117  33.117  12.045
36459W        W 8075  42.248  25.318  13.077
36460W        W 8076  35.989  19.310   4.541
36461W        W 8077  19.496  43.164   3.728
36462W        W 8078  29.027  20.557  11.189
36463W        W 8079  23.739  13.621   3.087
36464W        W 8080   9.128  36.926   4.096
36465W        W 8081  33.383  22.009   4.048
36466W        W 8082  34.698  21.032  11.461
36467W        W 8083  31.958   9.927   4.277
36468W        W 8084  15.084  37.529   1.424
36469W        W 8085  20.527   0.379   3.822
36470W        W 8086  32.445  34.868   2.406
36471W        W 8087   1.728  42.550  13.551
36472W        W 8088  19.316  23.561  10.014
36473W        W 8089  15.680  23.590  12.564
36474W        W 8090  44.455  28.547  11.332
36475W        W 8091  38.765   3.005  13.326
36476W        W 8092  20.165  26.714  13.394
36477W        W 8093  21.919  23.304  13.119
36478W        W 8094  14.312  10.206   0.211
36479W        W 8095  20.577  11.770   3.747
36480W        W 8096  24.433  31.019  13.535
36481W        W 8097  34.216  13.356   0.767
36482W        W 8098  18.718  13.531   3.648
36483W        W 8099  11.079  12.597   2.948
36484W        W 8100   3.803   8.807  12.474
36485W        W 8101  22.038   9.403  13.406
36486W        W 8102  28.694  29.957   2.807
36487W        W 8103  35.318  27.621  10.762
36488W        W 8104  10.590  16.858   4.235
36489W        W 8105  31.024  20.771   3.355
36490W        W 8106  27.116  39.707   4.850
36491W        W 8107  26.808  38.248   2.651
36492W        W 8108  37.836  12.172   0.664
36493W        W 8109  15.808   2.418   0.293
36494W        W 8110  26.267   9.135   2.162
36495W        W 8111   2.266  30.569   1.918
36496W        W 8112  39.491  15.024   2.747
36497W        W 8113  41.351  34.396   3.446
36498W        W 8114  39.885  23.544   1.287
36499W        W 8115  21.077  21.593  10.403
36500W        W 8116  33.957  24.236   3.155
36501W        W 8117  10.673  30.021  12.935
36502W        W 8118   7.849  10.596   0.178
36503W        W 8119   9.851  34.857   0.624
36504W        W 8120  36.525  37.991   4.618
36505W        W 8121  18.243  41.221  13.155
36506W        W 8122  10.883  39.378   4.297
36507W        W 8123  35.830  25.686  13.024
36508W        W 8124   6.320   9.701   1.679
36509W        W 8125  44.786  37.733  13.764
36510W        W 8126  29.397  25.023  14.937
36511W        W 8127  36.871  29.473   4.220
36512W        W 8128  13.620  35.008   3.608
36513W        W 8129   9.824  24.789   2.298
36514W        W 8130   0.923   2.740   0.382
36515W        W 8131  39.373  10.230  13.318
36516W        W 8132  42.895  12.753  10.721
36517W        W 8133  27.237   1.738  11.532
36518W        W 8134  15.267  44.923  14.032
36519W        W 8135   1.787  24.300  12.258
36520W        W 8136  24.417  38.838  11.717
36521W        W 8137  10.938  21.542  14.452
36522W        W 8138  27.126  27.469   0.977
36523W        W 8139   3.150  21.269  14.008
36524W        W 8140   1.866  26.458  12.429
36525W        W 8141  16.575  31.113  11.672
36526W        W 8142  31.705  38.245   3.688
36527W        W 8143   2.101  29.121   3.665
36528W        W 8144  42.893   7.499  14.783
36529W        W 8145   4.857   7.738   4.294
36530W        W 8146  20.592  23.657  11.343
36531W        W 8147  22.183   6.506  14.615
36532W        W 8148   6.335  21.722   2.470
36533W        W 8149  35.555  28.616   2.665
36534W        W 8150  41.660  40.495   3.142
36535W        W 8151  25.111  44.711  14.951
36536W        W 8152  44.294   3.170  14.683
36537W        W 8153  31.119  42.348  13.534
36538W        W 8154  24.667  21.003  10.248
36539W        W 8155  24.065  38.389  10.603
36540W        W 8156  35.349   8.711   1.407
36541W        W 8157  42.274  35.945   1.351
36542W        W 8158  12.545  14.185  11.047
36543W        W 8159  31.503  36.598   1.301
36544W        W 8160  14.240  33.610  11.127
36545W        W 8161  29.983  18.736   3.746
36546W        W 8162   5.643  40.743  12.034
36547W        W 8163  18.224  31.056   3.934
36548W        W 8164  35.081  21.713  13.795
36549W        W 8165  11.181  21.543  11.749
36550W        W 8166  26.133  16.699   4.579
36551W        W 8167  32.596  18.202   3.273
36552W        W 8168  42.838  40.262   4.178
36553W        W 8169  11.045  28.604  14.834
36554W        W 8170  21.162  22.642   4.507
36555W        W 8171  34.982  10.234   4.375
36556W        W 8172  13.253  20.591  13.831
36557W        W 8173  27.498  27.152  11.110
36558W        W 8174  25.718  29.041  12.216
36559W        W 8175  15.316  38.850  12.955
36560W        W 8176  17.060  38.093  14.818
36561W        W 8177  34.466  19.540   5.076
36562W        W 8178  38.925  31.738  13.087
36563W        W 8179  17.717  28.408   0.738
36564W        W 8180  20.739  40.356   4.892
36565W        W 8181  27.232  33.518  10.998
36566W        W 8182  19.570   3.059   2.826
36567W        W 8183  20.163   0.972  10.676
36568W        W 8184  34.332  20.895  11.113
36569W        W 8185  37.951  40.299  11.630
36570W        W 8186  19.215  35.826   2.779
36571W        W 8187  39.301   1.498  11.526
36572W        W 8188  41.068  22.553   2.385
36573W        W 8189  30.737  14.795  11.236
36574W        W 8190  25.493  26.703   2.360
36575W        W 8191  42.324  16.030   1.460
36576W        W 8192  28.348  36.651   3.726
36577W        W 8193  17.342  33.450  14.097
36578W        W 8194  34.311  37.296   1.303
36579W        W 8195  34.768  40.044   3.333
36580W        W 8196  22.204  22.588   0.817
36581W        W 8197  10.527   2.699   3.801
36582W        W 8198  40.554   5.810   0.342
36583W        W 8199   2.626  31.755  10.480
36584W        W 8200  36.093  17.844   0.843
36585W        W 8201  39.963  27.224   1.381
36586W        W 8202   0.756  15.012  11.584
36587W        W 8203   3.992  22.015  11.616
36588W        W 8204  15.668  18.773   0.806
36589W        W 8205  44.609  16.262  10.108
36590W        W 8206  39.439  28.598   0.800
36591W        W 8207  33.801  12.295   1.868
36592W        W 8208  37.774  27.729  10.426
36593W        W 8209  15.653  37.169  10.435
36594W        W 8210  24.803  35.634  13.897
36595W        W 8211  33.286   6.287  11.499
36596W        W 8212  15.388  23.327  11.919
36597W        W 8213  12.389  30.139   0.757
36598W        W 8214  41.790  16.529  12.543
36599W        W 8215  18.540   1.306  14.920
36600W        W 8216   3.893  43.139   0.313
36601W        W 8217  43.816  16.017  10.073
36602W        W 8218  28.695  24.072  12.344
36603W        W 8219  37.973   2.734  12.897
36604W        W 8220  29.563  41.510   4.595
36605W        W 8221  19.718  44.875   3.301
36606W        W 8222  40.966   9.397  11.017
36607W        W 8223  31.871   3.207   3.604
36608W        W 8224  42.332   3.033  13.409
36609W        W 8225  32.073  39.861   2.248
36610W        W 8226  27.588  30.855  14.004
36611W        W 8227  22.923  37.550  11.918
36612W        W 8228  27.538  38.410   4.707
36613W        W 8229  10.759   3.299  10.869
36614W        W 8230   9.189  10.307  13.753
36615W        W 8231   8.149   2.003  12.511
36616W        W 8232  43.322   1.954   3.957
36617W        W 8233  19.085  35.361  12.135
36618W        W 8234  34.147  24.499  14.469
36619W        W 8235   8.872  25.755  11.702
36620W        W 8236  41.530  13.359   2.941
36621W        W 8237   9.729  13.922  14.909
36622W        W 8238   1.699  34.978  10.581
36623W        W 8239  38.005   6.256   2.637
36624W        W 8240  24.027  13.988  13.230
36625W        W 8241   9.702  31.069  12.438
36626W        W 8242   5.010   1.190  10.814
36627W        W 8243  13.385   7.231  12.546
36628W        W 8244  37.517   8.557   1.602
36629W        W 8245  31.892  38.416  13.545
36630W        W 8246   1.294   3.626   2.833
36631W        W 8247   8.240  43.303  13.595
36632W        W 8248   6.185  27.456   0.549
36633W        W 8249   6.505  30.525   1.124
36634W        W 8250   0.559  38.812  13.404
36635W        W 8251   1.465  31.367  11.064
36636W        W 8252  18.713   7.100  11.644
36637W        W 8253  37.033  20.082  11.001
36638W        W 8254  33.979  18.133  13.806
36639W        W 8255  36.500   5.540   4.290
36640W        W 8256  41.730  10.386   4.696
36641W        W 8257  14.272   3.706  11.998
36642W        W 8258   6.751  40.894  14.889
36643W        W 8259  18.054  35.736  10.691
36644W        W 8260  23.561  43.515  14.495
36645W        W 8261  26.087  16.546   0.902
36646W        W 8262  11.200  15.288  10.321
36647W        W 8263   7.672  37.489  14.043
36648W        W 8264  18.830  30.428  13.309
36649W        W 8265  41.926  19.052  13.512
36650W        W 8266   0.890   4.912   1.871
36651W        W 8267   0.290  37.490  14.960
36652W        W 8268  17.644  27.111  12.166
36653W        W 8269   9.097  32.455  13.166
36654W        W 8270  39.398  36.863  14.096
36655W        W 8271   2.108  24.210   4.131
36656W        W 8272   4.665  20.217   2.839
36657W        W 8273  32.320  35.796  13.003
36658W        W 8274  22.915  40.925  11.951
36659W        W 8275   3.868  13.220   1.263
36660W        W 8276   6.778  16.906  13.380
36661W        W 8277   4.856  37.093   2.823
36662W        W 8278  32.063   9.410   3.717
36663W        W 8279  33.390  42.957  14.892
36664W        W 8280   1.276  19.270   0.534
36665W        W 8281  37.510   2.876   0.259
36666W        W 8282  12.635  35.972   4.082
36667W        W 8283  41.951  27.785  12.308
36668W        W 8284   3.682   7.211  14.996
36669W        W 8285  31.710   4.669   3.236
36670W        W 8286  33.955   0.253   1.787
36671W        W 8287  39.978  39.423  11.970
36672W        W 8288   2.295   2.843  14.482
36673W        W 8289   7.833  15.116  14.370
36674W        W 8290  42.669  24.543   0.185
36675W        W 8291  16.131  15.619  13.796
36676W        W 8292   0.149   1.753   1.413
36677W        W 8293   1.997   6.705  13.935
36678W        W 8294  36.929  29.222   4.769
36679W        W 8295  42.490   8.279  13.963
36680W        W 8296  34.052  21.270  13.917
36681W        W 8297  43.408  21.179  14.795
36682W        W 8298  33.359  36.627   4.252
36683W        W 8299  37.800  12.176   0.157
36684W        W 8300  29.128   8.689  13.504
36685W        W 8301   5.763  34.028  12.926
36686W        W 8302   7.389  12.467  11.913
36687W        W 8303  37.620   4.942   3.713
36688W        W 8304   2.194  11.314   1.741
36689W        W 8305   1.605  39.378   2.311
36690W        W 8306  27.431  32.667  13.035
36691W        W 8307   2.846   6.088  10.611
36692W        W 8308   2.239  41.839  14.808
36693W        W 8309  30.193   7.161   3.257
36694W        W 8310  44.928  29.134  13.937
36695W        W 8311   0.853  20.557   1.681
36696W        W 8312  40.947  14.669   4.704
36697W        W 8313   7.977  22.653  13.822
36698W        W 8314  28.208  23.086   0.902
36699W        W 8315  25.523  21.620   3.395
36700W        W 8316   4.643  32.624   0.336
36701W        W 8317  39.519   7.360   1.344
36702W        W 8318  39.575  36.852   4.948
36703W        W 8319  29.026  21.986  10.632
36704W        W 8320  42.590  18.227  13.589
36705W        W 8321  35.975  21.893   4.464
36706W        W 8322  25.488  34.355   3.315
36707W        W 8323  39.293  13.136   2.946
36708W        W 8324  18.193  13.145  13.328
36709W        W 8325  36.071  38.341   3.378
36710W        W 8326   5.864  23.715  12.025
36711W        W 8327  17.232  27.242  11.509
36712W        W 8328  42.967   0.576   2.321
36713W        W 8329  42.609  25.531   3.860
36714W        W 8330  36.474  42.350  11.122
36715W        W 8331  14.246   2.375  11.415
36716W        W 8332  34.601   1.728  13.468
36717W        W 8333  36.385  38.868   0.476
36718W        W 8334  29.064  31.863  12.101
36719W        W 8335  27.013  17.650  11.746
36720W        W 8336  43.055  19.122   0.057
36721W        W 8337  20.217  36.972   3.888
36722W        W 8338  38.530  17.611   0.359
36723W        W 8339   0.851  22.601   2.660
36724W        W 8340  22.530  29.973  12.939
36725W        W 8341  40.563  18.570  11.442
36726W        W 8342  38.077  22.932  14.880
36727W        W 8343  29.222  12.225  13.494
36728W        W 8344  29.913  12.093  11.656
36729W        W 8345  37.023   6.746  13.348
36730W        W 8346  28.743  21.318  11.125
36731W        W 8347  27.187  11.684  14.537
36732W        W 8348  23.524  32.134   0.022
36733W        W 8349  13.223   3.700   3.216
36734W        W 8350  22.536   6.176   3.273
36735W        W 8351  18.305  24.428  12.931
36736W        W 8352   1.365  12.238  11.571
36737W        W 8353  38.289  16.290  14.610
36738W        W 8354  12.701  31.843   0.991
36739W        W 8355  22.691  27.421  11.224
36740W        W 8356  27.645  22.076   4.678
36741W        W 8357   3.070  28.707  14.484
36742W        W 8358  37.430  31.804   2.641
36743W        W 8359  35.397  21.007  14.846
36744W        W 8360   1.806  21.184   2.537
36745W        W 8361  22.024   4.414  12.890
36746W        W 8362  32.997   1.488   3.294
36747W        W 8363  13.404  10.803  14.041
36748W        W 8364   7.699  41.753   4.687
36749W        W 8365   5.782  36.020   3.281
36750W        W 8366  23.661  34.627   3.639
36751W        W 8367  43.936  14.695  12.135
36752W        W 8368  21.098  15.898  14.672
36753W        W 8369  28.586  20.993  11.506
36754W        W 8370  23.084  38.870  11.502
36755W        W 8371   3.272  25.011  11.737
36756W        W 8372  31.678  16.346  13.857
36757W        W 8373  25.980  24.111   2.113
36758W        W 8374  24.454  17.119   2.555
36759W        W 8375  31.797  33.255   3.687
36760W        W 8376  26.444  42.255   3.798
36761W        W 8377  42.070  42.308   3.437
36762W        W 8378  28.192  14.773  11.035
36763W        W 8379  24.352  19.941   3.463
36764W        W 8380   1.930  43.372   3.179
36765W        W 8381  20.930   7.388   1.806
36766W        W 8382  18.031  27.857  13.337
36767W        W 8383   7.899  40.488  11.818
36768W        W 8384   9.066  14.373   3.670
36769W        W 8385  29.589  27.419  14.034
36770W        W 8386  40.128  22.553   3.280
36771W        W 8387  13.702  22.462  10.893
36772W        W 8388  24.461  37.286  11.149
36773W        W 8389  40.330  29.000   3.491
36774W        W 8390   2.218  17.729   2.187
36775W        W 8391  23.143   9.400   4.210
36776W        W 8392  33.568  10.884   0.929
36777W        W 8393  20.705  24.019   3.626
36778W        W 8394   7.835  21.030  12.087
36779W        W 8395   9.801  39.641   1.297
36780W        W 8396   6.784  32.879   4.322
36781W        W 8397  30.676  23.695   3.620
36782W        W 8398  12.926  24.110  12.843
36783W        W 8399  34.773  14.054   0.382
36784W        W 8400  37.302  21.369  13.312
36785W        W 8401  35.381  11.195   3.234
36786W        W 8402  36.813  17.436  11.529
36787W        W 8403  35.056   6.858   1.766
36788W        W 8404  20.136   5.023   0.698
36789W        W 8405  30.162  28.874  11.128
36790W        W 8406  24.520  38.636  13.031
36791W        W 8407  25.748  35.551   0.404
36792W        W 8408   1.905  43.497  13.329
36793W        W 8409  13.134  31.645  14.404
36794W        W 8410   3.429  16.486   2.821
36795W        W 8411   5.763   1.860   0.895
36796W        W 8412  31.339  16.880   1.306
36797W        W 8413  22.486  23.149  14.527
36798W        W 8414  43.023   0.323   2.767
36799W        W 8415  27.281  30.098  10.726
36800W        W 8416  22.274  28.050  13.263
36801W        W 8417  40.817  31.188  13.435
36802W        W 8418   6.619  33.986   4.738
36803W        W 8419  17.283  26.371  12.115
36804W        W 8420  16.137   3.922  10.597
36805W        W 8421  38.934  17.922  14.547
36806W        W 8422  40.925   4.284  12.923
36807W        W 8423  15.153  34.458  12.935
36808W        W 8424  19.230  15.844   3.783
36809W        W 8425  34.396  12.804  12.049
36810W        W 8426  20.826  32.310  14.935
36811W        W 8427  21.570  34.949   2.104
36812W        W 8428  16.029  19.146  13.794
36813W        W 8429  10.198   9.742   3.351
36814W        W 8430  22.009  10.957   2.377
36815W        W 8431   6.928   9.374  10.828
36816W        W 8432  42.883  11.821   2.496
36817W        W 8433  19.135  34.228  13.409
36818W        W 8434  11.669  13.608   1.103
36819W        W 8435  13.649  43.132  14.760
36820W        W 8436  25.151   4.841  10.431
36821W        W 8437   0.563  30.867   4.148
36822W        W 8438  21.304   3.825   3.919
36823W        W 8439   7.369  40.983  11.530
36824W        W 8440  31.830  35.852  14.397
36825W        W 8441  19.160  29.005  11.479
36826W        W 8442  42.661  32.844  10.485
36827W        W 8443  19.322  28.566   2.722
36828W        W 8444  40.468   0.195  11.058
36829W        W 8445  28.272  23.665  14.215
36830W        W 8446   2.776  15.899   1.370
36831W        W 8447  18.931  20.150   3.091
36832W        W 8448   3.156   0.270  13.117
36833W        W 8449   7.731  31.520   4.974
36834W        W 8450   2.236  17.212  12.012
36835W        W 8451  33.522  20.205  14.381
36836W        W 8452  31.596  43.401   0.998
36837W        W 8453  43.296  13.383  12.590
36838W        W 8454  12.937  17.713   3.610
36839W        W 8455   9.420  12.143   1.390
36840W        W 8456  22.125  10.962  11.307
36841W        W 8457  42.306  22.033   0.341
36842W        W 8458  11.703  26.540  14.408
36843W        W 8459  38.165   6.965   1.222
36844W        W 8460   3.761  11.282  11.918
36845W        W 8461   1.955  25.234   0.763
36846W        W 8462  40.518  12.503   3.104
36847W        W 8463  36.528  20.163  10.917
36848W        W 8464  23.673  31.381  14.416
36849W        W 8465  43.314  12.087  10.877
36850W        W 8466  34.807  24.456   0.710
36851W        W 8467  23.687  42.466  13.543
36852W        W 8468  41.871  42.535   2.764
36853W        W 8469  42.252  18.422   1.711
36854W        W 8470  21.575   3.395   3.809
36855W        W 8471  31.917  19.639  12.535
36856W        W 8472  40.946  31.959   3.071
36857W        W 8473  34.470  36.360  10.460
36858W        W 8474  30.478  27.681  11.142
36859W        W 8475  10.820  16.964   4.884
36860W        W 8476  11.127  25.435  14.338
36861W        W 8477  30.967   4.736   3.676
36862W        W 8478  12.258   6.682  10.382
36863W        W 8479  41.412   9.833   3.667
36864W        W 8480  15.924  31.986  11.334
36865W        W 8481  28.274   4.600   1.952
36866W        W 8482  32.009  28.204   0.892
36867W        W 8483  18.258  34.812   1.175
36868W        W 8484   4.487   1.803   1.787
36869W        W 8485  34.629  23.035   1.475
36870W        W 8486   6.284  30.500  11.970
36871W        W 8487  29.939  26.975   0.878
36872W        W 8488   7.031  22.264   2.217
36873W        W 8489  21.159   1.787  11.523
36874W        W 8490  11.298  10.173  13.052
36875W        W 8491  13.677  43.296   0.255
36876W        W 8492  35.287  13.618   0.827
36877W        W 8493  11.393  37.037   2.729
36878W        W 8494  34.151   8.601   2.087
36879W        W 8495  21.360  42.996   5.159
36880W        W 8496  30.527   4.350   4.875
36881W        W 8497   9.629  26.072   4.535
36882W        W 8498  27.129  27.265  14.595
36883W        W 8499  20.868   6.856  12.470
36884W        W 8500  39.718  41.549  14.010
36885W        W 8501  40.280  34.082   4.701
36886W        W 8502   2.172  11.833   0.463
36887W        W 8503  30.423  12.050   0.967
36888W        W 8504  25.200   3.348   4.584
36889W        W 8505   4.270   3.739  12.142
36890W        W 8506   0.221  37.475  14.437
36891W        W 8507   4.817  25.704   4.565
36892W        W 8508  32.817   5.228  13.942
36893W        W 8509  37.111   8.742  14.783
36894W        W 8510   6.266  26.502  11.964
36895W        W 8511  11.668  34.010  10.671
36896W        W 8512  18.380   0.181   0.266
36897W        W 8513  12.601   6.719   1.130
36898W        W 8514  18.383  32.377  14.911
36899W        W 8515  31.082  17.640   0.953
36900W        W 8516  29.020  39.900  14.321
36901W        W 8517  25.512   0.323   4.310
36902W        W 8518  22.007   8.508  10.534
36903W        W 8519  30.531  15.788  12.488
36904W        W 8520  32.542  44.363   3.796
36905W        W 8521  18.708  17.739  12.747
36906W        W 8522  40.563  22.665   2.350
36907W        W 8523  32.395  44.517   2.938
36908W        W 8524  44.296  32.052   3.383
36909W        W 8525  34.820   5.867   1.760
36910W        W 8526  32.049  18.479  13.510
36911W        W 8527  17.834  29.562  13.496
36912W        W 8528  26.585  25.294   1.758
36913W        W 8529  42.861  20.773   3.250
36914W        W 8530  12.538  18.309  10.580
36915W        W 8531  10.632  14.211   1.687
36916W        W 8532  32.147  40.594  12.930
36917W        W 8533  23.257   3.703  11.197
36918W        W 8534  17.055  22.698   2.291
36919W        W 8535  24.885  33.341   4.234
36920W        W 8536   3.420  17.389   0.007
36921W        W 8537  26.118  25.138   1.523
36922W        W 8538  40.480  31.538   2.387
36923W        W 8539  33.491   6.971  12.435
36924W        W 8540  25.008  32.425  12.578
36925W        W 8541  43.601  22.124  10.680
36926W        W 8542  37.373  18.516  12.122
36927W        W 8543  18.803   5.137  12.856
36928W        W 8544  38.918  32.153  10.948
36929W        W 8545  40.734  23.783   3.269
36930W        W 8546  18.667   4.324   4.257
36931W        W 8547   2.143  17.840   4.783
36932W        W 8548  27.451  29.660   1.696
36933W        W 8549  21.069  15.869   9.939
36934W        W 8550  14.843   5.522  14.844
36935W        W 8551   1.210  19.003  12.968
36936W        W 8552  22.693  14.863   1.208
36937W        W 8553  16.058   1.666   2.226
36938W        W 8554  35.939  33.213  12.245
36939W        W 8555  27.123  20.140   4.486
36940W        W 8556  30.540   9.835  13.071
36941W        W 8557  43.930  11.503  14.387
36942W        W 8558  37.521  24.644  12.421
36943W        W 8559  43.626  28.452   3.389
36944W        W 8560  10.562  29.970   3.520
36945W        W 8561  33.949   4.142   3.703
36946W        W 8562  42.402  30.882   4.346
36947W        W 8563  34.427  42.511   3.162
36948W        W 8564  19.451  30.391   3.546
36949W        W 8565   7.692  19.483   2.357
36950W        W 8566  42.805  28.956  14.974
36951W        W 8567   6.690  22.497   2.915
36952W        W 8568  36.911   9.191  14.935
36953W        W 8569   7.299   2.958   1.053
36954W        W 8570   6.220   1.693   3.223
36955W        W 8571  19.089  18.587  13.369
36956W        W 8572  35.098   4.818  12.020
36957W        W 8573   6.789   1.245  11.108
36958W        W 8574  10.143  34.203   4.496
36959W        W 8575  26.452  22.618  11.091
36960W        W 8576  43.263  33.052  12.920
36961W        W 8577  34.081  16.624   1.504
36962W        W 8578  28.584  35.522   3.625
36963W        W 8579   8.110  10.633   2.844
36964W        W 8580   5.182  30.706   0.416
36965W        W 8581  22.488   5.945  11.615
36966W        W 8582   5.841  12.637  14.851
36967W        W 8583  27.110  23.142  14.479
36968W        W 8584  38.266  12.970   1.242
36969W        W 8585  15.244  42.013   5.006
36970W        W 8586  21.677  37.409   0.273
36971W        W 8587   8.705   8.421  13.414
36972W        W 8588  33.087  39.564   0.801
36973W        W 8589  25.319  25.872   3.895
36974W        W 8590  21.159  42.913   4.049
36975W        W 8591   3.953  28.491  10.837
36976W        W 8592  20.563  26.655   4.170
36977W        W 8593  27.982  18.357  13.507
36978W        W 8594  34.192   1.227  10.371
36979W        W 8595   7.054  44.466   2.885
36980W        W 8596  10.899  22.940  14.900
36981W        W 8597  19.733  19.892  14.633
36982W        W 8598   9.234   2.776  10.588
36983W        W 8599  29.237  24.167  14.602
36984W        W 8600   9.919  17.774  10.759
36985W        W 8601  33.764  32.714   4.744
36986W        W 8602  42.907  35.133   1.868
36987W        W 8603  38.094  37.254  14.093
36988W        W 8604  13.777  39.691   2.819
36989W        W 8605  15.918  27.960  10.277
36990W        W 8606  32.921  28.612  14.336
36991W        W 8607  17.211  10.589   0.886
36992W        W 8608  22.774  34.396   2.216
36993W        W 8609  43.917  44.824  14.834
36994W        W 8610  38.002  44.069   4.224
36995W        W 8611   1.537   7.793   0.619
36996W        W 8612  36.873  31.941  13.849
36997W        W 8613   9.751  29.437   1.550
36998W        W 8614  36.970  11.076   5.379
36999W        W 8615  18.735  18.247  12.572
37000W        W 8616  19.279  15.198  13.058
37001W        W 8617  42.835   3.174  11.383
37002W        W 8618   0.883  17.181  12.861
37003W        W 8619  31.429  25.546   4.726
37004W        W 8620   8.684  11.653  10.765
37005W        W 8621  36.931  35.100  10.685
37006W        W 8622  17.695  37.433   2.347
37007W        W 8623  27.266   4.712   0.842
37008W        W 8624  18.219   0.209   2.668
37009W        W 8625  35.441  40.767   0.337
37010W        W 8626  18.858  16.334  12.612
37011W        W 8627   3.834  42.268  10.650
37012W        W 8628  29.874  16.835  12.180
37013W        W 8629  24.974   4.402  10.652
37014W        W 8630   7.658  35.519  12.449
37015W        W 8631  35.580  32.198  12.581
37016W        W 8632  22.573  13.144  13.028
37017W        W 8633   0.457  17.491  14.903
37018W        W 8634  19.680  18.468   1.798
37019W        W 8635   3.810  23.535   3.726
37020W        W 8636  39.659  26.807  13.855
37021W        W 8637  34.442  25.258   3.958
37022W        W 8638   4.920   4.502  11.891
37023W        W 8639  37.341   2.984   1.814
37024W        W 8640  43.625  19.161  14.248
37025W        W 8641  15.772   3.326   0.244
37026W        W 8642  25.436  39.897   2.903
37027W        W 8643   7.990  17.110   3.307
37028W        W 8644  28.212  15.044   0.718
37029W        W 8645  21.986  35.025   2.520
37030W        W 8646  33.001  23.524   0.547
37031W        W 8647   2.428  24.174  11.152
37032W        W 8648   4.412  13.862  11.043
37033W        W 8649  12.958  32.710  11.672
37034W        W 8650   7.952   1.745   2.844
37035W        W 8651  11.874  41.493   3.693
37036W        W 8652  28.158  15.248  14.446
37037W        W 8653  21.281  40.785   4.187
37038W        W 8654   5.469  22.703   2.736
37039W        W 8655  21.486  36.439  11.412
37040W        W 8656  17.277  42.522  10.884
37041W        W 8657  29.136  36.914   2.271
37042W        W 8658  13.753  31.480  12.560
37043W        W 8659  42.332  30.290   0.511
37044W        W 8660  12.711  42.489   1.478
37045W        W 8661  24.675  35.917   0.986
37046W        W 8662  35.500  31.480   1.428
37047W        W 8663   9.421  30.932  13.951
37048W        W 8664   7.448  37.792   0.905
37049W        W 8665  34.940  24.066  10.693
37050W        W 8666  31.908  14.927   0.090
37051W        W 8667  41.051  40.065  11.580
37052W        W 8668   4.396  17.729  14.901
37053W        W 8669   2.324  26.206  11.208
37054W        W 8670   8.780   7.654  13.800
37055W        W 8671  30.587  27.858   4.036
37056W        W 8672   7.684  22.546   3.336
37057W        W 8673  24.761  42.081  11.186
37058W        W 8674   2.061  28.901   5.014
37059W        W 8675  37.814  11.331  10.663
37060W        W 8676  40.419  13.897   1.322
37061W        W 8677   5.946  10.116  12.147
37062W        W 8678   2.335  40.559  14.386
37063W        W 8679  29.155  43.798   4.607
37064W        W 8680  24.445  44.509  11.090
37065W        W 8681  29.961  34.395  10.702
37066W        W 8682   7.185  24.886   3.247
37067W        W 8683  25.003  25.069   4.161
37068W        W 8684  30.465   4.512   2.807
37069W        W 8685  13.176   6.180   0.690
37070W        W 8686  34.862  15.790   4.963
37071W        W 8687  16.307  36.276  14.919
37072W        W 8688  29.147   0.827  12.484
37073W        W 8689  29.182  20.566   3.186
37074W        W 8690  29.174  13.118  10.697
37075W        W 8691   8.866  17.455   3.179
37076W        W 8692   9.435   5.357   1.246
37077W        W 8693   7.439  12.129  13.282
37078W        W 8694  43.820   2.228   2.294
37079W        W 8695   3.416   9.657   3.177
37080W        W 8696  17.618   4.262   3.949
37081W        W 8697  20.239   7.312  14.495
37082W        W 8698   6.768   9.879  12.080
37083W        W 8699   5.822  39.346  12.720
37084W        W 8700  17.508  42.963   1.691
37085W        W 8701  29.180  28.705   5.142
37086W        W 8702   4.946  35.461   4.821
37087W        W 8703  27.462  27.125   3.179
37088W        W 8704  42.423   6.706   1.711
37089W        W 8705  28.981  44.294  10.699
37090W        W 8706  41.949  31.570  11.010
37091W        W 8707  43.678  24.556  13.505
37092W        W 8708  23.608  13.105   1.428
37093W        W 8709  11.572  23.004  12.151
37094W        W 8710  16.636  36.947   4.691
37095W        W 8711   7.697  27.093   4.341
37096W        W 8712  33.928  43.922  14.088
37097W        W 8713  15.247  11.255   4.421
37098W        W 8714  17.507  31.665  10.704
37099W        W 8715  32.426  23.205   2.800
37100W        W 8716   3.141  36.380  12.076
37101W        W 8717  43.829  38.864   3.885
37102W        W 8718  18.816   3.117   3.270
37103W        W 8719  24.167  31.578  14.354
37104W        W 8720  18.115   3.735   2.845
37105W        W 8721  43.550  33.950   2.295
37106W        W 8722   4.695   6.235   0.037
37107W        W 8723  27.891  44.193  11.605
37108W        W 8724  17.670   8.088   0.023
37109W        W 8725  21.501  28.593  11.580
37110W        W 8726   5.726  41.694  10.954
37111W        W 8727  11.865   1.140  13.627
37112W        W 8728  15.591  34.197  11.946
37113W        W 8729  29.994  23.389  10.725
37114W        W 8730  40.454   8.417   2.720
37115W        W 8731  32.076  17.368  10.688
37116W        W 8732  35.362  19.049  13.962
37117W        W 8733  21.549  20.199   1.847
37118W        W 8734  19.067  27.551  14.369
37119W        W 8735  17.013  43.993  11.207
37120W        W 8736  23.134  16.722   0.358
37121W        W 8737  20.463   3.697  12.036
37122W        W 8738   1.692  29.459   1.035
37123W        W 8739  39.363  15.425   1.431
37124W        W 8740  11.299  30.027   4.145
37125W        W 8741   4.334  40.101  14.563
37126W        W 8742  15.503  31.705  12.011
37127W        W 8743   5.324  21.503  14.248
37128W        W 8744  41.388   2.229  13.887
37129W        W 8745   1.890  17.589  11.160
37130W        W 8746   4.697  10.478  10.741
37131W        W 8747   7.195  28.904   0.896
37132W        W 8748  16.130  40.283  13.081
37133W        W 8749  21.048   9.948  10.651
37134W        W 8750  42.277  16.755  14.033
37135W        W 8751   1.468  35.624  10.659
37136W        W 8752   9.163  36.876   2.027
37137W        W 8753  22.121  30.947  12.889
37138W        W 8754  22.985  26.212  12.479
37139W        W 8755  10.155   3.296  12.869
37140W        W 8756   6.924  18.570  12.488
37141W        W 8757  20.266  13.267  13.895
37142W        W 8758   4.314  23.349  12.726
37143W        W 8759  31.445  14.509  12.990
37144W        W 8760  23.656   6.182   0.842
37145W        W 8761   4.316  28.600  13.519
37146W        W 8762  11.374  10.151   2.277
37147W        W 8763  17.467  15.577  14.899
37148W        W 8764  26.599   8.404  10.752
37149W        W 8765  16.480   4.881   2.406
37150W        W 8766   6.849  15.872   0.971
37151W        W 8767  11.280  28.056   1.156
37152W        W 8768   0.716  17.598   3.245
37153W        W 8769   4.380   9.693   3.340
37154W        W 8770   4.949  19.031   4.061
37155W        W 8771   3.958   0.419   4.275
37156W        W 8772  18.929  37.194   3.795
37157W        W 8773  16.675  15.394  12.809
37158W        W 8774  10.469  30.560   1.337
37159W        W 8775  25.542  42.437   2.139
37160W        W 8776  40.878  28.238   2.333
37161W        W 8777   8.481  43.939  14.869
37162W        W 8778  36.478   3.468   0.534
37163W        W 8779   2.372  32.352   2.238
37164W        W 8780  43.380  12.172  11.398
37165W        W 8781  10.147  15.911  12.759
37166W        W 8782  13.644  10.829   3.445
37167W        W 8783  12.046  34.469  11.965
37168W        W 8784  31.981  14.210   2.224
37169W        W 8785  20.967  26.626  14.790
37170W        W 8786  42.557  43.463   3.622
37171W        W 8787  27.605  22.842  14.877
37172W        W 8788  31.500  27.113   4.829
37173W        W 8789  12.637  17.206   4.171
37174W        W 8790  24.662  27.564  14.123
37175W        W 8791  25.239  26.447  14.418
37176W        W 8792  30.618  29.205  12.856
37177W        W 8793  14.805   7.815  10.850
37178W        W 8794  38.434  37.388   2.346
37179W        W 8795  14.778   6.522  13.172
37180W        W 8796  32.097  12.816  12.688
37181W        W 8797   3.404  16.814   2.410
37182W        W 8798   6.659   9.505   0.782
37183W        W 8799  36.055  18.346  10.637
37184W        W 8800  28.369  27.001  13.981
37185W        W 8801  15.843  29.411  11.588
37186W        W 8802  21.124  43.514  13.527
37187W        W 8803  41.015  32.464   0.796
37188W        W 8804  19.444  33.551  12.878
37189W        W 8805   3.152  16.929   3.889
37190W        W 8806  13.453  25.664   4.139
37191W        W 8807  44.070  36.429   3.979
37192W        W 8808  22.794  19.506   3.280
37193W        W 8809  37.797   7.339  13.974
37194W        W 8810  41.284  22.273  14.492
37195W        W 8811  15.154  29.086   0.633
37196W        W 8812   7.673  14.587   0.494
37197W        W 8813   2.709  11.240   2.799
37198W        W 8814   7.786  41.719   1.883
37199W        W 8815  12.677   9.609  14.200
37200W        W 8816  25.159  21.442  13.013
37201W        W 8817  25.969  40.874   4.469
37202W        W 8818   8.143   4.850   3.931
37203W        W 8819  26.994  38.149   3.575
37204W        W 8820   6.272  15.264  11.626
37205W        W 8821   0.761  39.371   0.528
37206W        W 8822  44.754  42.934  13.205
37207W        W 8823  16.412  23.055  13.487
37208W        W 8824  41.982  37.871  10.771
37209W        W 8825  30.971  33.195  14.902
37210W        W 8826  43.889  41.955  13.810
37211W        W 8827   7.357  28.561  12.081
37212W        W 8828  30.659  26.901   1.943
37213W        W 8829   8.627  18.058  10.775
37214W        W 8830   3.047  30.539  14.715
37215W        W 8831  14.909   0.571   4.656
37216W        W 8832  34.595  23.682  10.654
37217W        W 8833  39.894  25.585  14.315
37218W        W 8834   9.133  15.135  14.117
37219W        W 8835   3.340  22.138   1.950
37220W        W 8836  17.275  31.914   0.933
37221W        W 8837  22.566   4.103  10.732
37222W        W 8838  32.522  15.790   0.864
37223W        W 8839  30.055  16.156  10.737
37224W        W 8840  31.052  15.673  12.338
37225W        W 8841   9.183  20.776   3.296
37226W        W 8842  43.048  39.958  11.581
37227W        W 8843  15.155   1.655  14.455
37228W        W 8844  11.197  27.620   0.892
37229W        W 8845  12.715   6.324   3.637
37230W        W 8846  28.933  26.417  12.183
37231W        W 8847  20.445  36.873  13.403
37232W        W 8848  39.221  10.941   9.848
37233W        W 8849  39.372   6.251  10.593
37234W        W 8850  31.038  34.999   2.616
37235W        W 8851  20.158   1.789   4.519
37236W        W 8852  18.500  19.580  13.425
37237W        W 8853  26.016  12.703  10.755
37238W        W 8854   2.297  18.317  11.526
37239W        W 8855  41.982   0.966  14.519
37240W        W 8856  42.387   4.258   0.816
37241W        W 8857  41.384   4.858  14.471
37242W        W 8858  25.543  37.324   4.543
37243W        W 8859  22.415  40.599  13.080
37244W        W 8860  17.739  41.348   3.313
37245W        W 8861  19.383   6.418   0.743
37246W        W 8862  28.989  15.607   2.750
37247W        W 8863  40.261  18.692  14.405
37248W        W 8864  33.353  26.963   4.016
37249W        W 8865   9.767  31.466   1.731
37250W        W 8866  20.713  41.106  14.882
37251W        W 8867  29.397   2.340  11.183
37252W        W 8868  17.729  28.216   1.256
37253W        W 8869  20.505  23.516  10.657
37254W        W 8870  24.958  18.798  13.660
37255W        W 8871   3.369  31.953  14.516
37256W        W 8872  22.728  30.382   3.135
37257W        W 8873  31.127  31.606  14.102
37258W        W 8874  18.638  10.626  14.925
37259W        W 8875  19.147   3.218   1.178
37260W        W 8876   2.733  42.000   3.566
37261W        W 8877  40.557  42.315  14.963
37262W        W 8878  20.481  29.176   1.528
37263W        W 8879  25.243  42.799  11.294
37264W        W 8880   1.656  14.540  14.034
37265W        W 8881  15.348  16.235  12.417
37266W        W 8882  12.354   4.417   1.211
37267W        W 8883  35.946  33.159  14.790
37268W        W 8884   9.951   6.261   0.378
37269W        W 8885  22.619  28.131   4.921
37270W        W 8886  40.879  11.464  14.337
37271W        W 8887  28.915  22.283   2.110
37272W        W 8888  15.754  35.076   3.640
37273W        W 8889  12.483   2.959  10.507
37274W        W 8890  21.708  18.413  14.385
37275W        W 8891   3.763  22.090   2.252
37276W        W 8892   9.820  28.346   3.527
37277W        W 8893  17.072  20.526  13.389
37278W        W 8894  17.645  33.482  11.572
37279W        W 8895   7.740  30.145   3.445
37280W        W 8896  15.264   5.809  12.018
37281W        W 8897  35.582  31.623   4.158
37282W        W 8898  17.362  36.801   3.918
37283W        W 8899  20.909   9.794   0.820
37284W        W 8900   6.329   4.514   1.376
37285W        W 8901  40.127   6.873  12.991
37286W        W 8902  39.533  10.816  10.270
37287W        W 8903  44.274  16.275  13.942
37288W        W 8904  31.577  26.523   4.447
37289W        W 8905   3.497  32.046   3.708
37290W        W 8906  33.295   9.757   0.399
37291W        W 8907  29.793  19.620   0.448
37292W        W 8908   6.428  20.801   2.298
37293W        W 8909  22.379  26.633   4.082
37294W        W 8910  43.688  39.009   3.425
37295W        W 8911  28.948  28.283  10.750
37296W        W 8912   7.284  28.873   3.189
37297W        W 8913  31.003  13.115   3.081
37298W        W 8914   6.807   4.479  10.656
37299W        W 8915  12.684   6.517  11.555
37300W        W 8916  17.807  37.927   3.205
37301W        W 8917  25.401   4.703   0.427
37302W        W 8918  28.663  12.259   3.708
37303W        W 8919  24.045  29.908   0.913
37304W        W 8920  32.287   5.134   4.132
37305W        W 8921   8.209  20.840  14.231
37306W        W 8922  36.948  27.021   1.331
37307W        W 8923  24.451  25.106  12.211
37308W        W 8924  25.035  33.731  12.861
37309W        W 8925   9.568  18.660   2.684
37310W        W 8926  30.416   5.633  13.824
37311W        W 8927  35.893  25.007   1.200
37312W        W 8928  38.585  10.852  12.422
37313W        W 8929  41.193  28.592  11.554
37314W        W 8930  43.324  15.194  13.892
37315W        W 8931  12.778  31.163  13.562
37316W        W 8932   7.008  27.450  13.989
37317W        W 8933   5.394  20.273   3.333
37318W        W 8934   9.878  10.722   1.365
37319W        W 8935  17.818  16.855   0.557
37320W        W 8936  32.678  44.129   0.311
37321W        W 8937   9.321  15.288  11.022
37322W        W 8938   1.963  41.278  11.521
37323W        W 8939  36.587  27.045   0.942
37324W        W 8940  21.753  25.564  13.831
37325W        W 8941  43.413  43.389   3.190
37326W        W 8942   4.349   3.134  13.401
37327W        W 8943  26.065  22.631  10.708
37328W        W 8944  44.794  13.635  13.745
37329W        W 8945  41.372   6.159  12.471
37330W        W 8946  27.830  21.900  13.954
37331W        W 8947  19.246  37.648  10.886
37332W        W 8948  21.038  24.515   0.652
37333W        W 8949  13.869  14.247   4.705
37334W        W 8950  35.848  21.046   3.201
37335W        W 8951   4.805  24.911   1.309
37336W        W 8952   1.421  33.806  13.871
37337W        W 8953   6.668  37.123  11.257
37338W        W 8954  24.048  12.849  10.815
37339W        W 8955  27.958   0.508   2.443
37340W        W 8956  23.307  19.658   2.860
37341W        W 8957   8.150   8.754  13.875
37342W        W 8958  29.073  30.599  10.394
37343W        W 8959   5.463  27.152  12.956
37344W        W 8960  10.353  40.947   1.398
37345W        W 8961  12.268  35.373  10.759
37346W        W 8962  17.763   3.243   0.474
37347W        W 8963  36.333  18.169  12.196
37348W        W 8964  25.938  16.365   4.995
37349W        W 8965  10.234  10.844   0.350
37350W        W 8966   5.346  32.124  10.184
37351W        W 8967  12.179   9.420   3.888
37352W        W 8968  33.906  14.428   4.079
37353W        W 8969  11.324  23.617   4.598
37354W        W 8970  16.805  33.054   2.279
37355W        W 8971   9.866  34.342  13.568
37356W        W 8972   3.050   6.052  12.233
37357W        W 8973  32.747  27.413   5.042
37358W        W 8974  15.929  18.793  10.694
37359W        W 8975  16.067  14.228  12.162
37360W        W 8976  41.495  20.831  10.484
37361W        W 8977  41.270  12.192  13.902
37362W        W 8978   8.000   8.666  14.779
37363W        W 8979  10.860  13.520  12.140
37364W        W 8980   6.400  23.074   0.903
37365W        W 8981  25.962   8.875   2.506
37366W        W 8982   1.361  30.621   4.098
37367W        W 8983  13.491  38.899  13.457
37368W        W 8984  33.357  36.420  11.866
37369W        W 8985   4.661   3.399   2.392
37370W        W 8986   5.842  11.079  14.985
37371W        W 8987  11.664  43.614   4.688
37372W        W 8988  20.794  42.150   0.040
37373W        W 8989  36.143  33.517   3.342
37374W        W 8990  21.669  12.619   4.545
37375W        W 8991  26.079  11.413   2.634
37376W        W 8992  43.789  14.246   2.930
37377W        W 8993   0.224  11.135  14.806
37378W        W 8994  27.262  13.946   4.529
37379W        W 8995  15.503  21.474  12.136
37380W        W 8996  14.604   9.306   0.722
37381W        W 8997   6.810  39.922  13.431
37382W        W 8998  23.334  16.016  12.769
37383W        W 8999  29.599   0.864   3.322
37384W        W 9000   2.820  33.133  10.549
37385W        W 9001  40.161  12.460   5.417
37386W        W 9002  24.666   1.679   0.291
37387W        W 9003   4.088   9.845   2.632
37388W        W 9004  11.704  39.034  10.623
37389W        W 9005  23.037  26.261   4.188
37390W        W 9006  26.493  36.261   4.896
37391W        W 9007  22.451   5.023  12.894
37392W        W 9008  42.352  28.503   1.465
37393W        W 9009   9.176   3.708   0.412
37394W        W 9010  43.985  37.622  14.371
37395W        W 9011  15.098  14.679  13.009
37396W        W 9012  41.406  41.185   0.263
37397W        W 9013  37.913  44.377  10.807
37398W        W 9014   9.939  11.867  11.097
37399W        W 9015   6.747  22.153  13.955
37400W        W 9016  21.486  15.369   3.301
37401W        W 9017  17.471  29.671  11.196
37402W        W 9018   3.766  37.859  12.951
37403W        W 9019   6.934  19.940  14.492
37404W        W 9020  22.755  39.070   0.865
37405W        W 9021  12.047  42.976  14.278
37406W        W 9022   0.675   6.415  11.496
37407W        W 9023   1.228  42.406   2.745
37408W        W 9024  25.521  14.122  11.027
37409W        W 9025  43.248  43.540  11.225
37410W        W 9026  30.908  19.751  13.368
37411W        W 9027  34.253  11.037  13.947
37412W        W 9028  42.828  23.232   0.113
37413W        W 9029  11.277  22.136   2.676
37414W        W 9030  22.924  23.082   3.695
37415W        W 9031   3.786  43.133  11.214
37416W        W 9032  42.347  24.454  14.781
37417W        W 9033  30.362   4.220   3.205
37418W        W 9034  28.786  23.111   2.715
37419W        W 9035  22.565  21.191  11.911
37420W        W 9036  32.154  15.776  12.910
37421W        W 9037  35.169  42.510   1.219
37422W        W 9038  22.642  18.547   5.120
37423W        W 9039   7.676   2.922   2.793
37424W        W 9040  14.676  10.881  12.520
37425W        W 9041  18.300  24.205   2.718
37426W        W 9042   0.399  14.812   0.408
37427W        W 9043  44.857  27.612   3.416
37428W        W 9044  12.317  16.542   1.250
37429W        W 9045  13.642  40.957  11.672
37430W        W 9046   3.489  36.026  13.363
37431W        W 9047  27.954   1.677  13.446
37432W        W 9048  41.666  28.756  11.565
37433W        W 9049   0.980  42.528  13.112
37434W        W 9050  34.370  28.513  11.092
37435W        W 9051  24.735  39.017  13.476
37436W        W 9052  19.993  29.933   2.773
37437W        W 9053   8.231  15.197   1.180
37438W        W 9054  42.624  10.289  11.588
37439W        W 9055  41.050  16.577   1.887
37440W        W 9056  14.046  44.294  12.650
37441W        W 9057  23.085  26.584   1.904
37442W        W 9058  18.641  44.729  13.821
37443W        W 9059  15.589  40.363  14.412
37444W        W 9060  32.103  39.823  11.288
37445W        W 9061  22.962  31.262   2.579
37446W        W 9062   8.112  19.124  12.870
37447W        W 9063  33.654  36.829  11.988
37448W        W 9064  27.960  12.185   0.894
37449W        W 9065  25.977  17.279   1.630
37450W        W 9066  17.562  12.573   1.723
37451W        W 9067  40.633  20.592  14.310
37452W        W 9068  36.022  43.943  13.757
37453W        W 9069   7.684  36.928  13.321
37454W        W 9070  43.109  14.504   3.586
37455W        W 9071  15.669  19.239   3.733
37456W        W 9072   1.212  19.482  12.732
37457W        W 9073  20.968  10.341  14.370
37458W        W 9074  14.064  11.332   0.014
37459W        W 9075  14.161  33.068  14.758
37460W        W 9076  12.678  40.321  10.934
37461W        W 9077  19.346  44.924  11.576
37462W        W 9078  38.487  43.877  12.455
37463W        W 9079   8.993  26.978   0.233
37464W        W 9080  11.320   0.910   3.341
37465W        W 9081  38.836  13.817  13.762
37466W        W 9082  35.923  23.031  12.977
37467W        W 9083  44.272  15.164  11.413
37468W        W 9084  19.201  28.097   2.244
37469W        W 9085   2.533  36.594   3.640
37470W        W 9086  32.904  25.404  11.650
37471W        W 9087  31.798  44.659  13.398
37472W        W 9088  27.187  33.891  13.227
37473W        W 9089   3.773  17.015  12.415
37474W        W 9090  42.716  35.645   0.281
37475W        W 9091  42.457  18.899   1.710
37476W        W 9092  35.434  35.720   3.798
37477W        W 9093  19.363  39.379  14.325
37478W        W 9094  18.240  16.550   0.629
37479W        W 9095  24.344  19.582   4.363
37480W        W 9096   2.732  30.864  14.954
37481W        W 9097  39.322  22.763   0.170
37482W        W 9098  39.514  30.561   3.420
37483W        W 9099  42.418  43.543  14.454
37484W        W 9100   6.256  14.752  11.544
37485W        W 9101  16.263  35.645   3.156
37486W        W 9102   1.773   3.224  14.454
37487W        W 9103  34.466  13.272   1.226
37488W        W 9104   2.271  39.948   1.009
37489W        W 9105   4.067  35.499   0.498
37490W        W 9106  11.688  41.787   5.070
37491W        W 9107  42.044  26.250  10.705
37492W        W 9108  30.190   0.941  10.362
37493W        W 9109   5.387  19.180  13.408
37494W        W 9110  29.089  16.264  11.435
37495W        W 9111  31.396  12.209   4.870
37496W        W 9112  19.528  13.187   3.844
37497W        W 9113  27.976  20.961   3.313
37498W        W 9114  20.297  23.535   2.851
37499W        W 9115  44.371  38.994   0.783
37500W        W 9116   4.807  39.341  12.511
37501W        W 9117   7.280  41.846   4.325
37502W        W 9118  34.392   3.663  13.633
37503W        W 9119  29.435   0.471   1.730
37504W        W 9120   2.405   9.258   1.784
37505W        W 9121  42.315  37.877  14.810
37506W        W 9122  34.992  42.339  11.924
37507W        W 9123   5.792   3.718   2.735
37508W        W 9124  13.623  24.983   2.694
37509W        W 9125  17.157  35.689   1.249
37510W        W 9126   7.104   8.640  12.728
37511W        W 9127  17.496  13.106  13.926
37512W        W 9128  43.044   5.623   2.374
37513W        W 9129  18.216   0.928   0.024
37514W        W 9130  43.279  17.867  10.867
37515W        W 9131  11.848  39.761  10.986
37516W        W 9132  19.600  41.372   1.350
37517W        W 9133   9.127  29.578  14.363
37518W        W 9134  32.099  31.660  11.427
37519W        W 9135   7.270  15.320   2.585
37520W        W 9136  11.763  10.892  12.430
37521W        W 9137  43.429  25.563  12.846
37522W        W 9138  19.239   7.906  10.764
37523W        W 9139  28.917  41.785   4.114
37524W        W 9140   8.471  38.046   3.142
37525W        W 9141  11.373  42.050   3.338
37526W        W 9142  24.501  21.046  13.968
37527W        W 9143  31.113   2.718   1.860
37528W        W 9144  11.360  22.649   2.803
37529W        W 9145  31.888  12.860  10.741
37530W        W 9146  22.803  30.621   3.593
37531W        W 9147  37.544  29.504   0.760
37532W        W 9148   3.713  40.516   2.728
37533W        W 9149  34.322  34.500   1.324
37534W        W 9150  34.940  21.201   3.852
37535W        W 9151  11.531  14.669   0.204
37536W        W 9152  22.984  25.469   3.718
37537W        W 9153  29.449   1.156   3.726
37538W        W 9154  35.555   6.091   4.155
37539W        W 9155   8.422  33.443   0.659
37540W        W 9156  41.425  40.593   3.627
37541W        W 9157   9.492  43.013   4.045
37542W        W 9158  10.904  14.235  14.517
37543W        W 9159  31.251  25.170   1.378
37544W        W 9160   8.774  32.916   3.830
37545W        W 9161  33.075  27.547   3.317
37546W        W 9162  27.203  10.252  12.138
37547W        W 9163  15.448  28.885   1.468
37548W        W 9164  12.204  20.147  10.599
37549W        W 9165  24.169  38.820  12.169
37550W        W 9166  23.903  43.056  13.400
37551W        W 9167  17.144   4.903  12.534
37552W        W 9168   5.070  13.627  11.151
37553W        W 9169  24.790  39.366   0.463
37554W        W 9170  25.583  41.924   3.786
37555W        W 9171  24.442  21.579   0.750
37556W        W 9172  18.487  26.509   0.418
37557W        W 9173   6.369   2.890   4.658
37558W        W 9174   3.242  20.596   2.207
37559W        W 9175  41.591   6.472  11.065
37560W        W 9176  21.462  38.136  13.889
37561W        W 9177  19.018   8.266  14.744
37562W        W 9178   7.454  44.600  13.285
37563W        W 9179  39.211  37.879   3.643
37564W        W 9180  20.954  37.105   2.330
37565W        W 9181  37.446   1.716   4.585
37566W        W 9182  20.011  13.666   0.288
37567W        W 9183  41.848  41.521  10.628
37568W        W 9184  14.654  20.442  14.700
37569W        W 9185  34.197  13.564  12.410
37570W        W 9186   2.745  25.882   1.263
37571W        W 9187  18.959   3.194   0.268
37572W        W 9188  44.845  44.011  10.378
37573W        W 9189  25.911  36.601  14.854
37574W        W 9190  44.984  26.601  10.598
37575W        W 9191  39.890   7.931   3.284
37576W        W 9192  43.823  26.126  10.868
37577W        W 9193   0.268  26.652  14.493
37578W        W 9194  12.364   3.327   2.588
37579W        W 9195  18.052   1.192  11.208
37580W        W 9196  41.282  43.256   2.670
37581W        W 9197  27.947  10.351   0.817
37582W        W 9198  28.509  40.462  11.954
37583W        W 9199  40.374  35.364   2.561
37584W        W 9200  37.875  35.450   0.797
37585W        W 9201  13.337  10.433   4.425
37586W        W 9202  16.685  18.052  11.891
37587W        W 9203  20.224  24.589  13.384
37588W        W 9204   2.114  34.873   0.811
37589W        W 9205   8.700  23.042   5.023
37590W        W 9206  28.571  26.567  11.736
37591W        W 9207  39.845  25.063  10.711
37592W        W 9208  11.265  33.036  13.011
37593W        W 9209  44.865  28.494  10.631
37594W        W 9210   1.417  27.973   0.703
37595W        W 9211   3.507  18.553  14.354
37596W        W 9212  10.344  30.102  14.733
37597W        W 9213  28.854  40.520   0.208
37598W        W 9214  22.868  29.592   0.365
37599W        W 9215  37.762  33.063   2.245
37600W        W 9216  27.688  42.611   3.222
37601W        W 9217  18.336   8.919  12.075
37602W        W 9218  36.576   5.809   3.872
37603W        W 9219   9.384  44.314  13.194
37604W        W 9220   1.168  25.712   2.861
37605W        W 9221   5.752  25.006   0.377
37606W        W 9222  14.330  21.507  14.763
37607W        W 9223   7.550  26.499  14.476
37608W        W 9224   2.457  17.357   4.607
37609W        W 9225  13.680  29.474  12.899
37610W        W 9226   4.711  36.193  11.580
37611W        W 9227   9.161  37.108   2.529
37612W        W 9228  21.022  17.165  11.573
37613W        W 9229  26.637  27.158   2.255
37614W        W 9230  11.083  43.366  14.830
37615W        W 9231  19.214  32.406   4.171
37616W        W 9232  18.612  25.134  13.659
37617W        W 9233  12.674  19.856   2.361
37618W        W 9234  19.819  42.348   4.200
37619W        W 9235  36.054  22.690   2.339
37620W        W 9236   9.337  11.742  13.164
37621W        W 9237   0.003  44.001   1.732
37622W        W 9238  35.076   7.977  13.740
37623W        W 9239  30.904  21.919  13.712
37624W        W 9240   3.375   0.648   1.244
37625W        W 9241  17.593  32.117   1.843
37626W        W 9242   8.269  41.354  11.914
37627W        W 9243  43.545  28.491  10.982
37628W        W 9244  18.931  23.962  12.417
37629W        W 9245  15.812   7.465  12.607
37630W        W 9246   0.877  37.694   4.256
37631W        W 9247  23.045  25.633  10.720
37632W        W 9248  38.863  44.247  10.741
37633W        W 9249   7.191  25.624  10.689
37634W        W 9250  29.980  42.423  13.076
37635W        W 9251  33.556  16.289   3.957
37636W        W 9252  34.328   9.189   1.787
37637W        W 9253   7.806  18.563   0.476
37638W        W 9254   9.101   9.350   0.960
37639W        W 9255  42.801  15.739   3.582
37640W        W 9256  16.030  32.461  11.566
37641W        W 9257  17.261   7.215   1.270
37642W        W 9258  28.882  16.080  13.829
37643W        W 9259  28.960  21.405  12.935
37644W        W 9260  24.372  20.315  11.612
37645W        W 9261  25.575  10.566   5.031
37646W        W 9262  10.377  26.523   1.248
37647W        W 9263  24.211  17.733   0.509
37648W        W 9264  14.387   3.115   0.350
37649W        W 9265  28.742  25.583   0.041
37650W        W 9266  44.981  40.481  14.768
37651W        W 9267  10.310  19.490  13.521
37652W        W 9268  10.688   2.169  12.928
37653W        W 9269  33.593  29.533   1.794
37654W        W 9270  23.684  41.876  10.723
37655W        W 9271  42.034  39.486   1.700
37656W        W 9272   1.663   5.934   0.795
37657W        W 9273  14.331  17.874  12.402
37658W        W 9274  37.810  11.909   3.516
37659W        W 9275   4.550  24.070   5.086
37660W        W 9276   2.497  37.351  11.287
37661W        W 9277  35.155  42.841   3.610
37662W        W 9278  32.606  31.960  11.551
37663W        W 9279  28.677  16.676   0.339
37664W        W 9280  43.215  32.038   3.557
37665W        W 9281  35.556  23.249  14.031
37666W        W 9282   5.267  25.314  14.727
37667W        W 9283  10.228  21.638   1.380
37668W        W 9284  44.065  30.481  10.629
37669W        W 9285  22.213  42.016  11.871
37670W        W 9286  17.547  28.174  14.429
37671W        W 9287  19.173   9.403   0.851
37672W        W 9288   8.346  39.188   0.438
37673W        W 9289  10.592  43.805  13.558
37674W        W 9290   1.981  23.631   0.354
37675W        W 9291  19.718  22.671  12.569
37676W        W 9292   3.435  21.120  11.437
37677W        W 9293  38.498  42.268  12.939
37678W        W 9294  17.610  28.037  13.046
37679W        W 9295  39.839  17.246  11.890
37680W        W 9296  33.032  21.980  14.772
37681W        W 9297  35.057   0.200  10.946
37682W        W 9298  26.756  33.884   3.217
37683W        W 9299  38.919   1.001   2.131
37684W        W 9300   7.593  30.860   1.204
37685W        W 9301   9.325  30.430   0.734
37686W        W 9302  37.112  35.481  14.272
37687W        W 9303  22.775   7.242   1.413
37688W        W 9304  23.321  21.389   3.739
37689W        W 9305  16.316  18.935   3.199
37690W        W 9306  36.609   0.557  13.941
37691W        W 9307  38.313  18.872   5.014
37692W        W 9308  37.860  41.038   4.629
37693W        W 9309  21.655  28.403   0.206
37694W        W 9310  20.519  33.497   3.793
37695W        W 9311  42.031  29.474   3.291
37696W        W 9312  28.205  42.342   0.767
37697W        W 9313   0.842   8.815   3.640
37698W        W 9314  29.124  16.511  14.958
37699W        W 9315   4.908  17.624   3.145
37700W        W 9316  35.475   1.952  13.559
37701W        W 9317  26.192  32.919  11.127
37702W        W 9318  17.071  29.059   0.309
37703W        W 9319  40.483  34.457  11.149
37704W        W 9320  19.796  19.620  11.568
37705W        W 9321   2.475  15.278   3.275
37706W        W 9322  37.916  16.501  12.460
37707W        W 9323  35.706   3.840   4.241
37708W        W 9324  22.977  22.618  11.959
37709W        W 9325  13.859   5.349   1.930
37710W        W 9326  39.728  15.958  14.887
37711W        W 9327  38.954  15.200   0.434
37712W        W 9328  18.278   9.401  10.597
37713W        W 9329  30.544  20.805  11.177
37714W        W 9330  18.281  31.225   2.781
37715W        W 9331  44.893  38.082   4.241
37716W        W 9332  34.620   5.959  13.026
37717W        W 9333  41.090  19.535   3.696
37718W        W 9334  19.156  16.646   1.661
37719W        W 9335   5.790  35.035   1.519
37720W        W 9336  35.391   2.368   0.301
37721W        W 9337   1.004  38.523   1.395
37722W        W 9338  32.488   3.388   2.968
37723W        W 9339  28.670   7.133  11.609
37724W        W 9340   6.815  11.376   1.951
37725W        W 9341  24.063  41.559   0.626
37726W        W 9342  31.578  30.546  13.050
37727W        W 9343  11.198  44.723  11.029
37728W        W 9344  29.630  21.763  13.504
37729W        W 9345  32.774  12.229  11.998
37730W        W 9346  20.807   2.435   1.827
37731W        W 9347  41.915  24.006  14.246
37732W        W 9348  20.527   4.431   2.334
37733W        W 9349  18.370  31.522  11.696
37734W        W 9350  38.017  33.117   3.771
37735W        W 9351  36.034  36.646  12.498
37736W        W 9352  30.466  42.797   0.953
37737W        W 9353  13.329  35.627   0.439
37738W        W 9354  28.633   2.910  14.936
37739W        W 9355  36.899  44.733   2.799
37740W        W 9356  21.210   9.153  11.160
37741W        W 9357  24.688  13.344  13.423
37742W        W 9358  40.798   8.106   2.194
37743W        W 9359   7.294  30.097  10.663
37744W        W 9360   0.388   3.654   3.231
37745W        W 9361   3.472  15.460  13.560
37746W        W 9362  30.143  15.412  12.340
37747W        W 9363  39.898  24.743   0.253
37748W        W 9364  40.871  10.312  14.824
37749W        W 9365  33.157  22.126  11.653
37750W        W 9366   4.420  41.262  13.856
37751W        W 9367  36.286   0.795   4.212
37752W        W 9368   0.355  35.550  12.537
37753W        W 9369  31.591  12.894   3.134
37754W        W 9370  28.476  24.905   1.277
37755W        W 9371   9.401  41.238  12.867
37756W        W 9372  14.596   7.266   4.331
37757W        W 9373  27.608  42.520  14.622
37758W        W 9374  34.886  34.030   3.195
37759W        W 9375  16.729  29.530   0.660
37760W        W 9376  37.061  26.243   4.825
37761W        W 9377  26.124   3.390   2.895
37762W        W 9378  32.695  43.421   0.270
37763W        W 9379  32.528  16.637   2.347
37764W        W 9380  30.554  14.450   4.657
37765W        W 9381   1.288  32.303  12.028
37766W        W 9382  42.494   2.153   0.542
37767W        W 9383  29.638  12.662   4.229
37768W        W 9384  25.221  41.367  11.657
37769W        W 9385  40.244   8.229  14.915
37770W        W 9386  11.406   2.894  14.950
37771W        W 9387   3.912  29.591   1.398
37772W        W 9388  17.927  34.690  10.260
37773W        W 9389  16.649  33.069  13.645
37774W        W 9390  24.142  17.069  10.995
37775W        W 9391  27.510  41.117   1.882
37776W        W 9392   9.430  11.579  10.187
37777W        W 9393   0.485   6.453  14.422
37778W        W 9394  12.794   9.323  11.630
37779W        W 9395  31.186  44.257   0.995
37780W        W 9396  40.964  40.590  13.484
37781W        W 9397  30.454   4.134  14.203
37782W        W 9398  29.059  13.058   3.572
37783W        W 9399   2.410  10.251  12.437
37784W        W 9400  22.806  22.690  10.236
37785W        W 9401  24.704   9.406  13.894
37786W        W 9402  26.231  21.277   0.746
37787W        W 9403  21.104  34.379  11.608
37788W        W 9404  26.026  37.505  11.719
37789W        W 9405   0.860  24.393   1.291
37790W        W 9406   8.268  13.198   2.697
37791W        W 9407   4.364  43.346   4.586
37792W        W 9408   0.304  17.992   1.275
37793W        W 9409  30.771  38.374   1.282
37794W        W 9410  15.259  28.265   3.770
37795W        W 9411  28.882  34.592   1.118
37796W        W 9412  38.140  11.109  10.329
37797W        W 9413  24.991   9.212   5.097
37798W        W 9414   3.451  32.842  10.057
37799W        W 9415   9.580  21.008   3.576
37800W        W 9416   4.844  42.107  13.029
37801W        W 9417  17.059   8.630  12.309
37802W        W 9418  18.895  25.821   2.493
37803W        W 9419  16.387  17.656  12.048
37804W        W 9420  43.253   6.903  14.929
37805W        W 9421  22.218  26.131   2.162
37806W        W 9422  18.252  44.585   5.344
37807W        W 9423  11.269  41.437   1.023
37808W        W 9424  41.373  38.344   3.234
37809W        W 9425  26.902   3.839   4.482
37810W        W 9426  26.938  44.281   1.708
37811W        W 9427   9.112  20.995   3.785
37812W        W 9428  30.172   4.016  14.676
37813W        W 9429  11.099  14.818  11.143
37814W        W 9430  35.144  32.028   1.272
37815W        W 9431  28.489  34.812  14.377
37816W        W 9432  42.784  34.741   3.615
37817W        W 9433   8.960  31.598  10.247
37818W        W 9434  30.059  10.751  13.426
37819W        W 9435  12.208  37.808   1.837
37820W        W 9436  19.601  16.335  12.181
37821W        W 9437  23.008   7.696   2.412
37822W        W 9438  44.294  35.341  12.610
37823W        W 9439  43.872  31.431   1.489
37824W        W 9440  37.879  35.391  10.739
37825W        W 9441  35.875  40.361   2.738
37826W        W 9442  35.989  39.839   1.955
37827W        W 9443   7.187  41.910  14.863
37828W        W 9444  25.488   6.501   4.982
37829W        W 9445  31.820  12.651   3.940
37830W        W 9446  42.312  27.224  11.101
37831W        W 9447   6.420  10.457   4.176
37832W        W 9448  28.148  27.557  12.675
37833W        W 9449   5.490   5.306   4.623
37834W        W 9450  39.550  34.427   4.272
37835W        W 9451  31.874  35.607  13.445
37836W        W 9452   6.256   2.943   2.944
37837W        W 9453   3.421  20.098  13.981
37838W        W 9454  35.279  28.164   5.092
37839W        W 9455   6.463  19.502  11.241
37840W        W 9456  27.083  34.562   2.456
37841W        W 9457  23.178   9.205  11.927
37842W        W 9458  10.812  39.918   0.488
37843W        W 9459  42.475  32.587   1.902
37844W        W 9460  16.485  44.537   5.129
37845W        W 9461   7.607   8.346   3.241
37846W        W 9462   5.118  31.371  13.899
37847W        W 9463  27.889   5.591   1.868
37848W        W 9464  38.574   9.051  13.599
37849W        W 9465  44.302  20.153  10.574
37850W        W 9466  18.603  18.587  12.204
37851W        W 9467  20.922  24.717   1.838
37852W        W 9468  35.313  33.952  11.980
37853W        W 9469  41.607  12.123   2.243
37854W        W 9470  16.050  44.747   0.304
37855W        W 9471  42.493  43.448   1.339
37856W        W 9472   5.757   0.056  12.492
37857W        W 9473  30.971  42.327   1.234
37858W        W 9474  44.396  21.546   4.601
37859W        W 9475   5.933  41.480  14.928
37860W        W 9476  21.790  29.023  11.479
37861W        W 9477  34.290  33.355  14.760
37862W        W 9478  16.671  21.510  12.284
37863W        W 9479   0.422  30.608  11.912
37864W        W 9480  32.455   2.848  12.501
37865W        W 9481   9.152  12.754   4.359
37866W        W 9482   2.726   2.237  10.699
37867W        W 9483  18.768  35.444  11.417
37868W        W 9484  37.725  28.101  11.175
37869W        W 9485  27.556  26.543  14.848
37870W        W 9486  12.812  13.309  10.903
37871W        W 9487  22.091  26.920   1.812
37872W        W 9488  20.277  30.223   2.366
37873W        W 9489   7.334  37.970  10.599
37874W        W 9490  33.061  31.187   2.863
37875W        W 9491  32.096   5.148  11.066
37876W        W 9492  38.450  40.365   1.201
37877W        W 9493   6.727  31.980   4.375
37878W        W 9494   4.638  40.049  13.832
37879W        W 9495  43.964   2.549   2.846
37880W        W 9496  35.393  30.882   0.018
37881W        W 9497   8.659  43.156   0.913
37882W        W 9498   4.875   8.370  13.452
37883W        W 9499  42.679  32.182  14.770
37884W        W 9500  36.415  28.481   2.101
37885W        W 9501  42.438   2.962   3.621
37886W        W 9502  25.293   8.718   3.250
37887W        W 9503  44.680  21.573  11.990
37888W        W 9504   7.248  25.857  12.342
37889W        W 9505  22.840  38.119   4.527
37890W        W 9506  23.377  24.042   2.726
37891W        W 9507   5.697  22.777  13.615
37892W        W 9508  44.914  40.317   4.240
37893W        W 9509  11.118  41.344   2.411
37894W        W 9510  29.231  42.385   4.595
37895W        W 9511  15.981  27.581  13.377
37896W        W 9512   3.776  24.444   2.265
37897W        W 9513   6.885  26.169   1.049
37898W        W 9514  41.773  25.192  12.876
37899W        W 9515  40.275  10.219  13.817
37900W        W 9516  44.203   5.025  11.185
37901W        W 9517  10.290  41.282  10.318
37902W        W 9518  22.541  13.062   4.963
37903W        W 9519  18.194  15.844   2.775
37904W        W 9520  27.787   6.281  14.849
37905W        W 9521  35.303   7.976   1.842
37906W        W 9522  29.504  12.928   3.794
37907W        W 9523  44.471  22.255  10.759
37908W        W 9524  37.027   5.259   0.362
37909W        W 9525  20.174  35.394   0.191
37910W        W 9526   3.857  33.033  12.091
37911W        W 9527   0.431  10.982   3.131
37912W        W 9528  11.269  22.797   2.188
37913W        W 9529  41.450  40.547  12.920
37914W        W 9530   8.601  11.224  12.971
37915W        W 9531  21.759  13.877   2.813
37916W        W 9532  37.134   4.368   2.882
37917W        W 9533  40.291  34.468  13.870
37918W        W 9534  28.430  12.873  14.485
37919W        W 9535  41.958  44.321  10.698
37920W        W 9536  43.782  41.002   1.375
37921W        W 9537  10.274  16.099  14.419
37922W        W 9538  32.357   5.599   0.065
37923W        W 9539   3.305   8.121  11.575
37924W        W 9540  44.524  10.140   4.049
37925W        W 9541  12.741  22.014   4.277
37926W        W 9542  20.675  24.529  11.638
37927W        W 9543  15.565   0.328  14.974
37928W        W 9544  41.223   6.653  11.605
37929W        W 9545  28.990  18.081   2.052
37930W        W 9546   2.179  34.183   2.328
37931W        W 9547   3.239  37.469   3.330
37932W        W 9548  32.435  24.659  12.959
37933W        W 9549  33.412  15.892   1.854
37934W        W 9550  40.308  28.631  12.482
37935W        W 9551  38.391  23.587  10.400
37936W        W 9552  27.099   3.186   1.701
37937W        W 9553  35.466  28.151  11.464
37938W        W 9554  29.970  26.625   2.868
37939W        W 9555  22.237   4.670  12.495
37940W        W 9556  28.149   3.421  10.686
37941W        W 9557  11.961  42.547   4.684
37942W        W 9558   9.199   8.695  13.361
37943W        W 9559  42.814   3.280  13.496
37944W        W 9560   9.723  22.987  14.458
37945W        W 9561  13.183  42.510   4.116
37946W        W 9562  17.419  32.077  11.661
37947W        W 9563  39.684  21.269   4.590
37948W        W 9564  10.312  32.235   0.991
37949W        W 9565   0.504  14.304   4.622
37950W        W 9566  39.371  17.840   0.034
37951W        W 9567  34.545  18.020  10.671
37952W        W 9568   9.369  35.593   2.734
37953W        W 9569  36.361  22.224  12.448
37954W        W 9570  34.239  41.476  13.103
37955W        W 9571  35.062   4.993  12.511
37956W        W 9572  22.506  24.628   3.809
37957W        W 9573  41.866   8.849  14.452
37958W        W 9574  31.463   3.016   0.719
37959W        W 9575   6.418  20.077  12.126
37960W        W 9576  42.852  15.511   1.859
37961W        W 9577  12.763  36.382   4.914
37962W        W 9578   7.659   0.054   0.454
37963W        W 9579  44.042  20.470   3.865
37964W        W 9580  12.645  36.970   3.806
37965W        W 9581  17.916  17.231  12.767
37966W        W 9582  41.296  17.701  10.423
37967W        W 9583   3.806  16.716  13.876
37968W        W 9584  40.999   0.261   1.934
37969W        W 9585  33.637  26.403  12.204
37970W        W 9586  38.881   6.468  14.652
37971W        W 9587  21.044  30.454   2.885
37972W        W 9588  25.613   3.689  13.955
37973W        W 9589  10.867  41.700  12.422
37974W        W 9590   9.247  18.102   3.772
37975W        W 9591  37.452  42.022  11.916
37976W        W 9592  44.222  42.036  11.155
37977W        W 9593   7.321  34.387  12.577
37978W        W 9594  23.143  32.237  13.272
37979W        W 9595  27.090   3.892   3.487
37980W        W 9596   4.707  24.175  13.279
37981W        W 9597  19.708  10.089  10.978
37982W        W 9598  19.765  31.478  14.288
37983W        W 9599  31.530  36.027   3.471
37984W        W 9600  39.880  21.634  14.360
37985W        W 9601   7.953  34.679  10.611
37986W        W 9602  29.515  17.478  12.089
37987W        W 9603   2.225  17.337  12.908
37988W        W 9604  27.698  33.915  14.001
37989W        W 9605  41.084  40.032  12.516
37990W        W 9606  10.671  24.864   1.231
37991W        W 9607  40.863  36.005   1.293
37992W        W 9608  19.173  24.418  12.654
37993W        W 9609  28.589  36.885   0.523
37994W        W 9610  21.475   8.320   2.724
37995W        W 9611  14.333  22.590   4.009
37996W        W 9612   0.829  31.466  11.627
37997W        W 9613  35.332  22.015  14.720
37998W        W 9614  33.091   0.913  14.174
37999W        W 9615  43.409  35.598  11.167
38000W        W 9616  22.085  17.772   1.982
38001W        W 9617  22.065  25.504  12.911
38002W        W 9618  39.817  40.300  12.712
38003W        W 9619  31.722  30.614   4.259
38004W        W 9620  27.962  36.194   3.683
38005W        W 9621  18.286   6.439  12.897
38006W        W 9622  14.148  29.024   4.167
38007W        W 9623  18.558  14.525   3.661
38008W        W 9624  31.487   0.767  10.149
38009W        W 9625  17.576  11.664   1.690
38010W        W 9626  26.691  24.990  13.928
38011W        W 9627  28.511  16.931  14.767
38012W        W 9628  31.977  26.250   9.712
38013W        W 9629  28.073  20.695   0.892
38014W        W 9630  39.342  19.775   2.705
38015W        W 9631  21.702   0.871  12.390
38016W        W 9632  10.900  12.891   0.857
38017W        W 9633  35.460  31.737  14.353
38018W        W 9634  11.914  35.623   1.881
38019W        W 9635  18.781  26.184  11.975
38020W        W 9636   6.353  10.788   3.755
38021W        W 9637   3.522  10.149   3.953
38022W        W 9638  15.349   9.424  13.838
38023W        W 9639  19.256   8.642   1.229
38024W        W 9640   9.218  40.621   0.413
38025W        W 9641  28.965  30.195   1.341
38026W        W 9642   5.312  15.813  10.142
38027W        W 9643  23.561  15.776   1.878
38028W        W 9644  33.309   7.800   2.821
38029W        W 9645  34.426  15.196   0.690
38030W        W 9646  37.940  34.414   1.949
38031W        W 9647  11.876  10.352  12.189
38032W        W 9648  13.737  13.827   4.395
38033W        W 9649  15.744  25.230  10.840
38034W        W 9650   6.254  12.488  10.155
38035W        W 9651   2.704   4.253  12.039
38036W        W 9652  12.321  43.592   3.223
38037W        W 9653  28.725  31.501   3.239
38038W        W 9654  11.608   2.327   4.054
38039W        W 9655   5.220   1.257  12.380
38040W        W 9656  28.960  42.304  10.451
38041W        W 9657   5.933   5.788  14.801
38042W        W 9658  15.104   2.831   1.289
38043W        W 9659  31.978  39.039  14.967
38044W        W 9660  27.436   2.918   0.990
38045W        W 9661  42.900  22.135  11.593
38046W        W 9662  13.708  13.424   4.072
38047W        W 9663   1.211   3.737  13.887
38048W        W 9664   1.328  15.031  11.602
38049W        W 9665  21.717   6.334  13.006
38050W        W 9666  17.311  11.727  14.325
38051W        W 9667  13.017  22.709  12.824
38052W        W 9668   4.223   8.611   2.337
38053W        W 9669  31.727  28.813   1.730
38054W        W 9670   0.294  42.904  10.775
38055W        W 9671  27.516  20.236   3.581
38056W        W 9672  13.420  22.709  11.232
38057W        W 9673   5.473  19.151   2.176
38058W        W 9674  38.938  22.596  14.837
38059W        W 9675  21.809  30.558   3.408
38060W        W 9676  35.431  40.957   4.348
38061W        W 9677  41.283  30.594   3.677
38062W        W 9678   6.832  23.138   2.387
38063W        W 9679   1.361  20.358  12.390
38064W        W 9680  20.865  18.260   9.607
38065W        W 9681  39.589  30.040  12.479
38066W        W 9682   6.347   1.823  11.155
38067W        W 9683  22.471  43.322  11.991
38068W        W 9684  18.017  34.646  13.313
38069W        W 9685  28.074  21.557   0.352
38070W        W 9686  19.595   0.721  11.442
38071W        W 9687   3.622   6.401   2.802
38072W        W 9688  33.663  23.972   2.224
38073W        W 9689  19.657  29.595   5.067
38074W        W 9690  35.738  43.881   0.781
38075W        W 9691  25.657  35.407  13.077
38076W        W 9692  10.741  31.634   1.782
38077W        W 9693  40.123  40.544   2.249
38078W        W 9694  40.983   8.242   4.544
38079W        W 9695  26.739   6.555   3.089
38080W        W 9696  43.814   0.228  12.027
38081W        W 9697  43.968  36.393  11.899
38082W        W 9698  32.826   9.175   1.152
38083W        W 9699  33.679  37.358   2.766
38084W        W 9700  33.503  37.368   0.548
38085W        W 9701  42.831  33.017   4.609
38086W        W 9702  23.644  35.284  13.072
38087W        W 9703  17.124  26.735  10.633
38088W        W 9704  21.183  42.770   1.947
38089W        W 9705   0.504   2.729   0.096
38090W        W 9706  27.273  13.843  12.731
38091W        W 9707   1.538   2.940  13.000
38092W        W 9708  26.408   0.624   3.710
38093W        W 9709  20.547  18.717  13.897
38094W        W 9710  30.107  32.700  12.468
38095W        W 9711  27.112  22.166   3.601
38096W        W 9712   3.941   9.996  13.349
38097W        W 9713   8.607   1.377   4.967
38098W        W 9714  36.846  43.565   1.255
38099W        W 9715  26.227  13.675  11.092
38100W        W 9716  29.656   1.893  14.338
38101W        W 9717  44.420   0.448  14.436
38102W        W 9718  23.215  20.146   2.768
38103W        W 9719  14.592  13.167  11.994
38104W        W 9720  15.225  38.528   2.725
38105W        W 9721  26.980  42.770  12.389
38106W        W 9722  12.580  42.605   2.811
38107W        W 9723  34.131  30.605  12.652
38108W        W 9724   0.986   7.895   3.319
38109W        W 9725   6.288  22.556   3.633
38110W        W 9726  16.719  40.581   0.752
38111W        W 9727   7.676   5.892  10.608
38112W        W 9728  41.458  23.535   0.345
38113W        W 9729  37.957  19.884  10.808
38114W        W 9730  19.909   2.734  12.450
38115W        W 9731  25.000  39.465  14.726
38116W        W 9732  16.340  37.303  14.930
38117W        W 9733   8.375  17.548   3.348
38118W        W 9734  11.013  34.116  14.534
38119W        W 9735   9.101  40.931  12.586
38120W        W 9736  28.192  22.551  11.907
38121W        W 9737  23.317  20.062   0.021
38122W        W 9738  42.549  23.131   3.737
38123W        W 9739  18.958  12.407  12.968
38124W        W 9740  20.601  12.542   0.897
38125W        W 9741  23.462  12.409  12.569
38126W        W 9742  11.431  31.676   3.370
38127W        W 9743  12.608  21.160  11.509
38128W        W 9744   1.017  24.091   3.730
38129W        W 9745  17.766  15.659   0.779
38130W        W 9746  27.528   7.622   3.112
38131W        W 9747   3.315  38.776   1.432
38132W        W 9748   5.254  39.380   2.280
38133W        W 9749  33.000  26.148  12.926
38134W        W 9750  25.359   3.845   1.269
38135W        W 9751   4.406  13.934   0.917
38136W        W 9752  18.197  19.219  14.844
38137W        W 9753  18.795  24.228  10.987
38138W        W 9754  23.590   4.739   1.204
38139W        W 9755   9.588   2.743  10.993
38140W        W 9756   6.477  30.618  11.156
38141W        W 9757  29.042  29.900  14.073
38142W        W 9758  32.377  32.629   2.162
38143W        W 9759  18.471  19.597  11.614
38144W        W 9760  15.041  24.980  12.442
38145W        W 9761  18.688   6.669   2.452
38146W        W 9762  37.694   6.445   4.106
38147W        W 9763   6.180   3.916   0.197
38148W        W 9764   7.679  39.096   1.840
38149W        W 9765  42.803  26.364   4.323
38150W        W 9766  44.194   4.498  11.195
38151W        W 9767  19.599  43.992   9.890
38152W        W 9768  10.110  44.506   1.155
38153W        W 9769  21.615   2.477   1.291
38154W        W 9770   8.832   8.586   0.344
38155W        W 9771  41.495  37.280   1.788
38156W        W 9772  17.269  16.308   1.502
38157W        W 9773  33.535  23.297  14.959
38158W        W 9774  33.756  19.260   4.537
38159W        W 9775  29.209   2.863  11.990
38160W        W 9776  34.850  40.448   1.562
38161W        W 9777  34.465  13.781  13.116
38162W        W 9778  32.853  36.535  13.091
38163W        W 9779  43.274  29.650   0.415
38164W        W 9780  38.979  21.537  11.532
38165W        W 9781  40.363  30.591   0.517
38166W        W 9782  19.034   5.476   4.397
38167W        W 9783  28.915  18.799   0.446
38168W        W 9784   1.033  21.535   0.455
38169W        W 9785  21.296  20.197   1.389
38170W        W 9786  20.850   4.057   2.750
38171W        W 9787   3.012   5.207  14.442
38172W        W 9788  17.760   9.090   0.017
38173W        W 9789   8.048   1.366  10.613
38174W        W 9790  13.029  18.258  13.547
38175W        W 9791  39.944  43.910  12.438
38176W        W 9792  20.026  39.664   4.218
38177W        W 9793  44.501   9.316  11.212
38178W        W 9794  21.296  38.614   3.453
38179W        W 9795   1.892  37.077   4.231
38180W        W 9796  44.474  24.418  13.924
38181W        W 9797  17.986  15.533  10.707
38182W        W 9798  25.919  12.697   2.850
38183W        W 9799  37.951  25.960   3.729
38184W        W 9800  32.479  40.050  11.542
38185W        W 9801  34.557  41.095  12.403
38186W        W 9802  39.933  31.961  11.654
38187W        W 9803  12.097  25.770  12.862
38188W        W 9804  26.526  14.568  13.720
38189W        W 9805  11.376  12.386  11.584
38190W        W 9806  15.231  33.694  14.585
38191W        W 9807  10.245  21.267   5.004
38192W        W 9808  24.218  13.150   2.288
38193W        W 9809  19.080  36.920   3.020
38194W        W 9810  27.948  11.186  13.920
38195W        W 9811  19.841  42.819   2.904
38196W        W 9812  24.998  32.294  11.724
38197W        W 9813  29.164  23.053  10.680
38198W        W 9814  36.851  16.789   4.845
38199W        W 9815  44.076  32.773   2.018
38200W        W 9816  10.445  22.468   2.711
38201W        W 9817  24.823  31.438   1.456
38202W        W 9818   9.433  18.271   0.943
38203W        W 9819  42.367  21.517  14.871
38204W        W 9820  20.301   9.156  11.153
38205W        W 9821  19.049  41.933  12.179
38206W        W 9822  36.892  21.792   0.475
38207W        W 9823   3.784  32.468  14.514
38208W        W 9824   0.671   7.758   2.238
38209W        W 9825  27.719  28.445  11.126
38210W        W 9826  29.404  42.551   0.379
38211W        W 9827  38.067  17.261   4.168
38212W        W 9828   7.301  10.126   4.060
38213W        W 9829   4.898  43.179   2.836
38214W        W 9830  10.540  38.159   0.722
38215W        W 9831  29.151  36.808   4.887
38216W        W 9832  20.057  42.628   0.672
38217W        W 9833  29.992  16.704   3.281
38218W        W 9834   1.024   2.323  12.407
38219W        W 9835  34.827  24.481   4.123
38220W        W 9836  38.885  12.697   4.207
38221W        W 9837  21.426   4.529  12.064
38222W        W 9838  22.695   6.631  14.931
38223W        W 9839  31.999  36.984   2.882
38224W        W 9840  16.116  10.631   1.192
38225W        W 9841  19.008  42.793   3.258
38226W        W 9842   4.409  28.186   3.861
38227W        W 9843  10.106  18.691   2.755
38228W        W 9844  15.026  31.413  13.780
38229W        W 9845  38.885  39.848  12.947
38230W        W 9846  36.567  14.596   2.399
38231W        W 9847   2.669  20.773   1.477
38232W        W 9848  32.334  14.116  12.497
38233W        W 9849  40.796   1.533   3.358
38234W        W 9850  34.446  29.355   3.115
38235W        W 9851  39.252  23.531  13.154
38236W        W 9852   0.696  36.110  10.684
38237W        W 9853  40.291  28.099  12.577
38238W        W 9854  10.354  38.988  10.601
38239W        W 9855   0.701  27.521   0.911
38240W        W 9856   6.259  30.990   1.518
38241W        W 9857  20.970  11.116  11.087
38242W        W 9858  12.145  35.801  11.556
38243W        W 9859  27.456  37.425  13.022
38244W        W 9860  27.182  22.436  14.839
38245W        W 9861  15.582  32.726   1.099
38246W        W 9862  21.792   6.317  10.111
38247W        W 9863  31.472  24.910  13.674
38248W        W 9864   5.869  29.027  12.649
38249W        W 9865  30.035  38.037  11.378
38250W        W 9866  33.835   1.292  14.020
38251W        W 9867  12.785  33.456  13.757
38252W        W 9868   0.951   8.890  11.210
38253W        W 9869   5.457  37.230   1.348
38254W        W 9870  16.972  39.491   2.769
38255W        W 9871  18.048  30.839   0.425
38256W        W 9872  26.931  13.538  13.565
38257W        W 9873  43.670  33.473  12.346
38258W        W 9874  25.617  35.403  11.311
38259W        W 9875   1.034  11.378  13.688
38260W        W 9876  26.810  22.578   3.536
38261W        W 9877  22.675  44.106  10.580
38262W        W 9878  24.932  42.078   3.263
38263W        W 9879  31.634  35.403   0.860
38264W        W 9880  13.080  12.301  14.311
38265W        W 9881   0.254  26.795   1.346
38266W        W 9882  29.555   3.769  14.297
38267W        W 9883  31.320  29.125   1.881
38268W        W 9884  14.126   7.406  14.362
38269W        W 9885  16.055  25.607  14.300
38270W        W 9886  34.932  40.283   1.072
38271W        W 9887  35.105  41.867  12.056
38272W        W 9888  16.116  13.304  14.540
38273W        W 9889   4.882  20.407   4.205
38274W        W 9890  44.903  38.055   2.636
38275W        W 9891  24.448  32.074   0.587
38276W        W 9892   1.876  42.411   4.493
38277W        W 9893   2.013  42.506   0.292
38278W        W 9894  18.600   0.918  13.188
38279W        W 9895  28.117  41.320  10.191
38280W        W 9896  25.805  28.561   1.857
38281W        W 9897   9.585   0.792  14.422
38282W        W 9898  21.530  40.819   1.813
38283W        W 9899  29.491  40.070  14.378
38284W        W 9900  25.607  38.667  13.534
38285W        W 9901   8.902  36.349   3.629
38286W        W 9902   9.207  19.031   4.799
38287W        W 9903  10.660  11.860  14.820
38288W        W 9904  41.210  33.463   2.639
38289W        W 9905  12.561   6.333  11.085
38290W        W 9906  36.745   4.666  12.600
38291W        W 9907  36.270  14.708   1.780
38292W        W 9908  17.125  38.429  12.034
38293W        W 9909  33.917  23.490  11.157
38294W        W 9910  40.322  26.074  14.944
38295W        W 9911  16.671   3.573   1.209
38296W        W 9912   8.657  30.100   3.065
38297W        W 9913   5.934  44.247  12.639
38298W        W 9914  32.337   2.689  13.972
38299W        W 9915  23.344  36.477  11.478
38300W        W 9916  27.319   7.454  12.826
38301W        W 9917  39.493  41.047   0.831
38302W        W 9918  28.661  12.702   3.950
38303W        W 9919  18.234  13.159  10.943
38304W        W 9920  30.338   1.228  14.025
38305W        W 9921  35.324  21.207   4.173
38306W        W 9922  20.644  37.837  11.074
38307W        W 9923  40.402  26.983  14.480
38308W        W 9924   1.761  14.651  14.955
38309W        W 9925  17.277  16.875  13.874
38310W        W 9926  15.802   2.459  11.553
38311W        W 9927   3.858  26.725  12.988
38312W        W 9928  24.265  40.010  10.541
38313W        W 9929   1.467  36.433  13.342
38314W        W 9930  43.538  25.868   1.406
38315W        W 9931  25.107  35.620  12.002
38316W        W 9932  38.327  36.267  13.420
38317W        W 9933  14.047   7.835   0.951
38318W        W 9934   2.209  40.246  11.143
38319W        W 9935  34.159   3.094   3.708
38320W        W 9936  24.555   0.235  12.482
38321W        W 9937  27.955   4.443  13.958
38322W        W 9938   7.585   8.358  14.908
38323W        W 9939   2.800   9.543   4.300
38324W        W 9940   8.921  15.512   0.138
38325W        W 9941   9.907  19.089  11.581
38326W        W 9942   0.289  42.260   2.386
38327W        W 9943  22.218  22.928   4.149
38328W        W 9944  34.187  25.968   2.760
38329W        W 9945  16.807  14.100   2.416
38330W        W 9946  26.814  21.490   2.816
38331W        W 9947  19.524  21.128   4.172
38332W        W 9948   0.404  19.653  10.785
38333W        W 9949  12.032  16.729  14.354
38334W        W 9950  28.099  12.185  10.716
38335W        W 9951  36.470  26.541   0.223
38336W        W 9952  36.159   0.104  12.531
38337W        W 9953  17.384  16.212  12.603
38338W        W 9954   6.358  25.942   3.623
38339W        W 9955   6.161   6.915   4.563
38340W        W 9956   5.328  22.527   0.392
38341W        W 9957   2.161  24.954   5.095
38342W        W 9958  36.667   0.561  14.827
38343W        W 9959  13.660  27.795   4.176
38344W        W 9960  29.527  17.065  14.122
38345W        W 9961  36.612  29.624   2.834
38346W        W 9962  38.932  37.438  11.213
38347W        W 9963  10.761  14.654   2.369
38348W        W 9964  44.427  23.961   0.977
38349W        W 9965   5.336  29.887  11.660
38350W        W 9966   6.659   0.552  10.331
38351W        W 9967  43.760  39.791   1.377
38352W        W 9968  17.245   6.930  13.852
38353W        W 9969  34.107  10.103   2.424
38354W        W 9970  34.007   1.891   3.164
38355W        W 9971  40.483  27.652   3.344
38356W        W 9972  34.884  16.957   3.591
38357W        W 9973   8.817  39.926  13.405
38358W        W 9974  27.086  32.127  14.121
38359W        W 9975  14.701  42.830   1.957
38360W        W 9976   5.759   8.234  14.919
38361W        W 9977  26.554   2.000  14.985
38362W        W 9978  24.634  43.463   2.276
38363W        W 9979  43.839  35.444  11.403
38364W        W 9980  41.383  38.038  14.718
38365W        W 9981  12.518   8.396  11.275
38366W        W 9982  29.114   2.367   0.873
38367W        W 9983   5.935  26.591   2.473
38368W        W 9984  16.925  20.600   4.859
38369W        W 9985  18.169   2.005  12.569
38370W        W 9986  41.345  43.848  11.108
38371W        W 9987  34.924  41.556   4.767
38372W        W 9988  24.596   9.007  11.928
38373W        W 9989  18.117  20.525  13.445
38374W        W 9990   1.452  17.859   0.807
38375W        W 9991   2.694  23.438  12.818
38376W        W 9992  41.358  26.041   4.793
38377W        W 9993  40.377  13.296   3.760
38378W        W 9994   7.887  22.610   2.361
38379W        W 9995   1.764  16.358  14.496
38380W        W 9996  43.314  13.656   1.982
38381W        W 9997   0.753  38.216  10.599
38382W        W 9998  16.256  14.612  11.898
38383W        W 9999  20.606  38.626  12.602
38384W        W10000  38.363  41.021   2.937
38385W        W10001  16.207  42.981   2.442
38386W        W10002   0.822  18.343  10.748
38387W        W10003  11.238  34.385  12.063
38388W        W10004  41.580  23.432  11.812
38389W        W10005  29.456   6.735  13.398
38390W        W10006  29.783  28.357  10.297
38391W        W10007   2.204  10.336   1.730
38392W        W10008   9.196  25.014  11.106
38393W        W10009  17.624  34.126  10.944
38394W        W10010  35.948  12.615  12.016
38395W        W10011   2.194  39.557  11.988
38396W        W10012  33.636  32.337  14.045
38397W        W10013  36.989  23.573  11.605
38398W        W10014  39.368  21.915   4.689
38399W        W10015   0.240  14.347   1.714
38400W        W10016  11.583  32.464   0.178
38401W        W10017   9.737   4.720   3.143
38402W        W10018   3.655  43.324  13.010
38403W        W10019  24.434   5.255   0.898
38404W        W10020  29.849  12.348  12.500
38405W        W10021  32.501  18.683   0.930
38406W        W10022  37.480  14.715   2.204
38407W        W10023   5.100   0.325   0.674
38408W        W10024  26.491   6.470   1.219
38409W        W10025  44.267  22.685   3.158
38410W        W10026  41.346  14.249   0.037
38411W        W10027   9.924  22.660   2.801
38412W        W10028  34.618  24.963  12.919
38413W        W10029  15.520   7.021   4.087
38414W        W10030  18.310  12.902   0.210
38415W        W10031   0.261  36.970  13.436
38416W        W10032  40.997   0.005  14.368
38417W        W10033   1.541  31.194   0.290
38418W        W10034   1.410  23.806   3.559
38419W        W10035  39.738  21.070   0.219
38420W        W10036   5.434  43.300   1.861
38421W        W10037  40.324  37.141  12.420
38422W        W10038   0.494  24.038  11.919
38423W        W10039  16.058   5.570   0.811
38424W        W10040  13.549   6.247  13.084
38425W        W10041  33.828  22.199   4.234
38426W        W10042  14.246  37.065   3.701
38427W        W10043  34.556  31.453   0.739
38428W        W10044  38.048   9.912  11.241
38429W        W10045  44.549  28.120   0.387
38430W        W10046  31.990  39.309   3.181
38431W        W10047   6.446  19.714   2.825
38432W        W10048  20.125  22.162  13.210
38433W        W10049  43.589  42.590  11.220
38434W        W10050   0.940  38.482  13.332
38435W        W10051  38.123  41.853   4.220
38436W        W10052   2.858   7.728  14.595
38437W        W10053  17.194  23.197   2.286
38438W        W10054  24.206  37.164  14.476
38439W        W10055  39.849   6.808   2.215
38440W        W10056  36.862  38.338  10.740
38441W        W10057  21.095  34.386  12.609
38442W        W10058   1.402  11.565  14.778
38443W        W10059  29.696  19.759  12.358
38444W        W10060  14.177  15.124   3.397
38445W        W10061  13.034  38.346  11.942
38446W        W10062  32.052   8.650   4.451
38447W        W10063  10.320  11.890  12.437
38448W        W10064   5.856  41.472   2.671
38449W        W10065  11.823  29.370   1.220
38450W        W10066  12.012  18.544   4.163
38451W        W10067   0.872  31.922   2.886
38452W        W10068  21.147  32.322  13.527
38453W        W10069  19.743  35.551  10.964
38454W        W10070  32.277  21.109   3.342
38455W        W10071   8.143  20.268  11.659
38456W        W10072   1.402  33.082  14.294
38457W        W10073   3.919  21.415   0.079
38458W        W10074  44.454  27.259   0.823
38459W        W10075  27.724  12.673   0.813
38460W        W10076  18.315  43.307   1.683
38461W        W10077  13.415  13.579  14.017
38462W        W10078   0.803  26.989  11.938
38463W        W10079   0.464  25.103  13.428
38464W        W10080   2.290  16.554  11.691
38465W        W10081  40.421   5.817  13.991
38466W        W10082  43.871  37.916   3.524
38467W        W10083   4.055  20.586  11.294
38468W        W10084  26.588   7.440   5.177
38469W        W10085  15.630  44.581  10.023
38470W        W10086  37.885  26.637  12.941
38471W        W10087  32.836  16.721   2.754
38472W        W10088   5.091  30.663   2.236
38473W        W10089   9.320  43.794  14.243
38474W        W10090  22.999   3.372   0.888
38475W        W10091  29.099  33.460  10.045
38476W        W10092  26.127  40.776  11.242
38477W        W10093  18.264   6.924   4.731
38478W        W10094  11.971   6.276   4.178
38479W        W10095  27.260  17.224   0.772
38480W        W10096  30.378  37.783  14.148
38481W        W10097  36.977  44.169   3.643
38482W        W10098  37.311  13.823   0.707
38483W        W10099  24.700   0.722  11.653
38484W        W10100  40.493   7.658   2.702
38485W        W10101  23.597  28.491  12.785
38486W        W10102   6.884  33.084  12.915
38487W        W10103  43.610  43.455   4.707
38488W        W10104  25.853  19.478  12.951
38489W        W10105   5.995  22.801  11.609
38490W        W10106  13.761  15.715   1.357
38491W        W10107  38.304  33.358  11.372
38492W        W10108  10.217  27.685   0.403
38493W        W10109   2.778  21.884  14.258
38494W        W10110   7.932   9.210   2.869
38495W        W10111  36.117  27.997   4.462
38496W        W10112   8.108  40.328  12.920
38497W        W10113   0.962  39.522   3.694
38498W        W10114   4.952   7.365   2.410
38499W        W10115  23.527   6.276   1.875
38500W        W10116  18.617  37.965  12.647
38501W        W10117   3.990  33.019  12.591
38502W        W10118   6.767  30.055   2.861
38503W        W10119  17.298   5.928   2.356
38504W        W10120  38.797  28.090  13.602
38505W        W10121  40.904  24.143   1.436
38506W        W10122  34.591  35.224  13.927
38507W        W10123  24.684  40.132  11.921
38508W        W10124  12.059  22.165  10.871
38509W        W10125  21.588  26.175   4.214
38510W        W10126  16.999  24.791  10.328
38511W        W10127  12.792  41.434  14.494
38512W        W10128  12.653  44.101   3.676
38513W        W10129  22.617  23.438   5.131
38514W        W10130  11.133  20.578  11.585
38515W        W10131  38.475  18.945   0.005
38516W        W10132  14.781  25.455  12.469
38517W        W10133  21.425   9.617  11.899
38518W        W10134   8.395  13.321  12.017
38519W        W10135  27.024   6.180   1.872
38520W        W10136  23.192  25.167  13.796
38521W        W10137  32.106  43.893   1.624
38522W        W10138  18.220  18.368   2.805
38523W        W10139  23.677  24.741   4.761
38524W        W10140  32.414  10.935  14.866
38525W        W10141  12.125  15.041  12.593
38526W        W10142  25.984   7.725   0.244
38527W        W10143   5.645  12.834   0.995
38528W        W10144  14.509  36.285   0.334
38529W        W10145  44.952  20.078  14.772
38530W        W10146  25.269  36.708   4.712
38531W        W10147  16.550  30.967   3.190
38532W        W10148  26.137   8.402   2.354
38533W        W10149  11.128  21.093   3.793
38534W        W10150  14.345   1.275  12.114
38535W        W10151  28.398   0.010  11.249
38536W        W10152   1.405   2.678  14.051
38537W        W10153   6.254   7.088   2.339
38538W        W10154  36.523  41.112  13.609
38539W        W10155  42.081  40.462   0.029
38540W        W10156  43.299  40.470   3.891
38541W        W10157   3.929  36.859  14.564
38542W        W10158   2.457   3.516  12.437
38543W        W10159   0.710  44.921   0.061
38544W        W10160  22.104  26.977   0.168
38545W        W10161  14.977  36.406  13.949
38546W        W10162  17.582   9.831   1.313
38547W        W10163  26.578  14.579   4.521
38548W        W10164  31.067  10.102   2.814
38549W        W10165  18.049  37.111  12.507
38550W        W10166  15.543  16.204  11.091
38551W        W10167  23.637   1.307  14.552
38552W        W10168  34.073  40.249   2.717
38553W        W10169  14.682   9.764   3.269
38554W        W10170  29.610  14.519  11.958
38555W        W10171   2.333   3.547   1.837
38556W        W10172  26.540   1.727   4.645
38557W        W10173   2.056  10.768   3.161
38558W        W10174  25.400   0.352  13.008
38559W        W10175  23.243  15.535   0.968
38560W        W10176  10.419  29.074   0.318
38561W        W10177  27.736  19.379  12.910
38562W        W10178  41.641  22.617   0.727
38563W        W10179  26.155  36.936   4.385
38564W        W10180  41.802  10.511  13.861
38565W        W10181  37.444   4.454  11.392
38566W        W10182  36.356  11.953  12.213
38567W        W10183   5.197  28.567   3.645
38568W        W10184  32.312  27.087  13.918
38569W        W10185  17.776  15.311   1.784
38570W        W10186  18.236  13.195  10.437
38571W        W10187  17.620  34.935   4.814
38572W        W10188  32.366  30.628   2.359
38573W        W10189  35.866  37.118   1.438
38574W        W10190  25.442  24.038  12.122
38575W        W10191   2.264  20.590   1.198
38576W        W10192   4.829  32.191  10.264
38577W        W10193   4.669  43.438  12.945
38578W        W10194  13.177  38.117   1.226
38579W        W10195   5.366  24.341  13.482
38580W        W10196  35.396  26.625  13.210
38581W        W10197   1.999   2.800  12.741
38582W        W10198  43.851  21.619  13.296
38583W        W10199  32.642  41.964  12.487
38584W        W10200  16.567  38.934   3.750
38585W        W10201  20.364  33.033   1.271
38586W        W10202  16.070  35.823  11.245
38587W        W10203  39.033  39.129  14.496
38588W        W10204  34.718  32.411  14.759
38589W        W10205   1.896   7.418  14.869
38590W        W10206  31.159  44.099   4.247
38591W        W10207  12.445  26.001   4.177
38592W        W10208  42.961  10.833  11.346
38593W        W10209  30.658  15.313  12.374
38594W        W10210  44.378  38.833  11.504
38595W        W10211  21.921  27.557   3.233
38596W        W10212   8.311   2.833  14.330
38597W        W10213  34.016  10.736  10.758
38598W        W10214  26.169  14.622  14.881
38599W        W10215  18.644  31.558   0.141
38600W        W10216  34.283  36.564  11.914
38601W        W10217   8.676   4.374  11.116
38602W        W10218   0.734  33.582   1.176
38603W        W10219  19.787  40.990   1.661
38604W        W10220  21.050   3.450   5.156
38605W        W10221   2.749  21.552  12.965
38606W        W10222  44.623  18.145   0.509
38607W        W10223  31.534  27.010  11.606
38608W        W10224   5.289  39.251  11.946
38609W        W10225   2.923  20.150   2.235
38610W        W10226  39.612  27.235   4.153
38611W        W10227  22.015   8.332  14.010
38612W        W10228  16.079   0.593   3.152
38613W        W10229  20.158  32.714   2.427
38614W        W10230  38.911  24.031  11.032
38615W        W10231  40.914  36.516   1.577
38616W        W10232  39.519   9.665   1.364
38617W        W10233   7.125  43.711   2.428
38618W        W10234  10.601   8.680  14.887
38619W        W10235  26.413  14.343  12.674
38620W        W10236  39.283  24.036   2.280
38621W        W10237  25.637  34.088   1.310
38622W        W10238  13.585  12.824  13.815
38623W        W10239  29.541  29.113   3.985
38624W        W10240  18.064  21.602   1.371
38625W        W10241  28.072  17.227  12.189
38626W        W10242  40.318   3.274  13.800
38627W        W10243  35.947  31.830   1.394
38628W        W10244  11.895   4.924  12.495
38629W        W10245  33.955   3.009   2.216
38630W        W10246   8.421  41.093  13.913
38631W        W10247  29.646  27.096   1.291
38632W        W10248  19.577  33.561   3.496
38633W        W10249  18.227  22.079   1.644
38634W        W10250  30.854  27.364  12.128
38635W        W10251   5.911  23.739  14.346
38636W        W10252  27.986  32.052  10.420
38637W        W10253  29.104  39.964  12.625
38638W        W10254  16.377  39.024  12.012
38639W        W10255  34.391  18.100   4.052
38640W        W10256  14.807  34.361  11.219
38641W        W10257   7.851  29.110  13.962
38642W        W10258  29.002  22.819  12.442
38643W        W10259  40.382  21.809  14.296
38644W        W10260  32.025  44.972  10.121
38645W        W10261  37.878  19.019   2.835
38646W        W10262  25.559  28.606   4.546
38647W        W10263  37.689  35.365  14.906
38648W        W10264  23.374  29.997   4.421
38649W        W10265  32.941  34.332   2.885
38650W        W10266  21.591   4.221   3.051
38651W        W10267   7.545  23.334   4.071
38652W        W10268   0.390  30.449   2.283
38653W        W10269  16.856  10.176  13.893
38654W        W10270  31.503  30.633   4.717
38655W        W10271   1.980  30.550  13.859
38656W        W10272  36.222  25.594  11.121
38657W        W10273  11.721  43.347  14.000
38658W        W10274  22.128   5.187   0.482
38659W        W10275  33.577   7.866   1.474
38660W        W10276  35.854  43.385   1.043
38661W        W10277  26.723   9.763   0.742
38662W        W10278  10.304  36.715   3.449
38663W        W10279  25.282  42.170  14.911
38664W        W10280  42.539  23.888   4.128
38665W        W10281  34.892  43.502   4.006
38666W        W10282  27.504  37.308  12.052
38667W        W10283  10.107  44.424  10.571
38668W        W10284   1.806  43.721  11.976
38669W        W10285   2.376  21.017   3.353
38670W        W10286  30.385   0.941  14.458
38671W        W10287  29.694  20.142  13.030
38672W        W10288  37.828  42.365   0.245
38673W        W10289  36.293  38.572   3.764
38674W        W10290  14.027  25.454   1.745
38675W        W10291  33.718  21.201   3.511
38676W        W10292   8.832  14.552  11.155
38677W        W10293   2.497  20.515  14.808
38678W        W10294  37.788  18.799   4.155
38679W        W10295  21.443  34.533  11.944
38680W        W10296  10.571  16.139  13.959
38681W        W10297   5.391  42.802   2.751
38682W        W10298  31.007   0.015  12.853
38683W        W10299  36.020   0.172  11.135
38684W        W10300   8.965  29.079   1.415
38685W        W10301  43.436  37.117  11.110
38686W        W10302  23.613  28.030  11.575
38687W        W10303  12.710  19.213   4.081
38688W        W10304   4.905  20.261  14.782
38689W        W10305  42.708  14.724  14.283
38690W        W10306  41.350  21.511   0.158
38691W        W10307   8.704  33.560   3.042
38692W        W10308  44.340  13.375   1.760
38693W        W10309  42.896  43.383   1.680
38694W        W10310  40.794  36.441   1.044
38695W        W10311  20.196   2.266  13.946
38696W        W10312  17.068  35.554  13.436
38697W        W10313   2.294   5.910  14.417
38698W        W10314  23.230  15.304  13.427
38699W        W10315  28.027  40.075   2.603
38700W        W10316   0.967  11.976   1.291
38701W        W10317   7.362  34.177   4.183
38702W        W10318  20.724  27.838   2.126
38703W        W10319  32.992  22.096  12.184
38704W        W10320  22.103  33.684  10.515
38705W        W10321  28.125   7.934  12.422
38706W        W10322  30.837  28.955   4.454
38707W        W10323  24.253  20.596   4.081
38708W        W10324  13.357  20.677   3.844
38709W        W10325   6.622  27.325   1.839
38710W        W10326  27.616  12.553  12.541
38711W        W10327  22.163  19.497  13.340
38712W        W10328   3.922  41.083   3.628
38713W        W10329  40.028  11.103   1.226
38714W        W10330  40.121  36.312  10.694
38715W        W10331  14.561  17.665   4.383
38716W        W10332   8.037  23.915  11.945
38717W        W10333  30.133   8.460   0.780
38718W        W10334  41.091   5.717  14.578
38719W        W10335  15.730  21.770   2.744
38720W        W10336  15.309  15.620   4.530
38721W        W10337  17.641  35.033   3.141
38722W        W10338  23.535   0.867   3.678
38723W        W10339  40.864  35.096   0.240
38724W        W10340  25.201  13.705  11.077
38725W        W10341  38.439   2.919  13.725
38726W        W10342  12.669  29.530  14.296
38727W        W10343  11.261  43.438  11.584
38728W        W10344  11.788  31.993  12.884
38729W        W10345  14.712  15.769  14.034
38730W        W10346   6.412  37.412  11.609
38731W        W10347  26.400  37.378   4.194
38732W        W10348  40.863  30.241  14.247
38733W        W10349   0.963  44.077  10.953
38734W        W10350  20.141  19.528  14.811
38735W        W10351   6.872  38.737   1.393
38736W        W10352   2.978   5.370   0.843
38737W        W10353  37.860  13.186   0.290
38738W        W10354  43.250  20.184  14.821
38739W        W10355  23.187  25.018   3.616
38740W        W10356  30.700  26.060   4.875
38741W        W10357  40.130   1.529  13.839
38742W        W10358  40.014  34.318  12.433
38743W        W10359  13.801  35.400  11.428
38744W        W10360  27.221   9.747  11.453
38745W        W10361  36.458  24.430  12.953
38746W        W10362  29.751  27.395   1.797
38747W        W10363  11.573  30.639   2.155
38748W        W10364  36.157  14.135  12.755
38749W        W10365  24.148   3.374  13.774
38750W        W10366  31.484  25.423   0.979
38751W        W10367  33.341  18.195   2.219
38752W        W10368  12.480  28.627   0.184
38753W        W10369   6.272  40.536   2.744
38754W        W10370  15.049  20.279   0.030
38755W        W10371  38.891  25.397  14.378
38756W        W10372  42.738   6.397   0.455
38757W        W10373  29.444  16.045  12.595
38758W        W10374  22.491  11.772   0.158
38759W        W10375  31.865  31.489   0.484
38760W        W10376  29.974  32.769   2.854
38761W        W10377  41.012   9.671  12.556
38762W        W10378  38.299  13.925   4.996
38763W        W10379   1.523  32.651  12.905
38764W        W10380  28.635  16.191  14.282
38765W        W10381   0.391  39.197  13.704
38766W        W10382  24.174  19.106  12.736
38767W        W10383  39.487  20.254  11.050
38768W        W10384  35.397  27.159   3.829
38769W        W10385  16.202   6.974  11.360
38770W        W10386  15.106   1.904   2.190
38771W        W10387  23.487  12.964   3.960
38772W        W10388  34.859  28.753   0.466
38773W        W10389  42.012  39.714  14.534
38774W        W10390  42.903   8.116  11.997
38775W        W10391  28.063  44.152   3.499
38776W        W10392  44.306   6.390  13.330
38777W        W10393  27.381   4.945  13.747
38778W        W10394  32.554   5.752  13.059
38779W        W10395   5.026  10.258  12.355
38780W        W10396  33.182  20.817   0.278
38781W        W10397   2.230   3.870  10.480
38782W        W10398  38.165   6.428   1.267
38783W        W10399  31.613  16.837   1.746
38784W        W10400  42.932  34.102   4.040
38785W        W10401   5.767  28.148   3.712
38786W        W10402  39.917   4.677  11.605
38787W        W10403  27.243  24.527   3.418
38788W        W10404  30.015  34.879  12.951
38789W        W10405   3.262  28.059  10.462
38790W        W10406   2.023  33.995   1.879
38791W        W10407  21.965   0.122  11.994
38792W        W10408   1.758  23.411   3.585
38793W        W10409  32.741  37.829   2.750
38794W        W10410  11.715   6.689   2.518
38795W        W10411  14.681  29.024   4.224
38796W        W10412  34.702  32.104  12.475
38797W        W10413  44.687   3.916  11.146
38798W        W10414  12.647  15.767  11.512
38799W        W10415  18.811  44.984   1.890
38800W        W10416  10.925   8.875   0.723
38801W        W10417   0.814  20.578   3.131
38802W        W10418  36.333  38.767   3.264
38803W        W10419  43.404  17.043  10.678
38804W        W10420  14.890  14.328  11.159
38805W        W10421  28.577  38.501  14.036
38806W        W10422  40.429  42.387   4.244
38807W        W10423  34.930  41.452  11.611
38808W        W10424  20.287  20.314  12.458
38809W        W10425  27.707  44.754   2.737
38810W        W10426  37.959   0.484  12.987
38811W        W10427  11.323   0.078  14.045
38812W        W10428   8.279  10.725  11.540
38813W        W10429  40.563  35.880   3.759
38814W        W10430  12.126  12.143  10.650
38815W        W10431  42.556  18.794   2.625
38816W        W10432  11.632  15.126   4.753
38817W        W10433  16.763  25.164  13.396
38818W        W10434  19.624  42.193  13.812
38819W        W10435  30.611  31.725   0.848
38820W        W10436   4.275  44.792  14.549
38821W        W10437  20.273  25.707  14.060
38822W        W10438  40.072  39.160  13.479
38823W        W10439  39.279  20.065   3.674
38824W        W10440  44.940  27.576   2.906
38825W        W10441  33.420  41.013   2.077
38826W        W10442  34.554  35.091   0.653
38827W        W10443  43.058  24.602   0.521
38828W        W10444  16.754  43.600  12.017
38829W        W10445   9.349  23.519  11.270
38830W        W10446  27.717  39.838   1.455
38831W        W10447  35.320   6.724  10.904
38832W        W10448   4.152  21.902   0.014
38833W        W10449   7.497   9.399  11.623
38834W        W10450  32.500  35.673   4.813
38835W        W10451  11.628   6.025  11.880
38836W        W10452  11.298  22.962  10.662
38837W        W10453  17.111   5.204  12.112
38838W        W10454  13.440  11.310  14.290
38839W        W10455  30.920  12.552  11.541
38840W        W10456  14.961  16.775  14.336
38841W        W10457  25.397  25.537  13.059
38842W        W10458  26.391  12.252   0.913
38843W        W10459  39.456  23.501   4.679
38844W        W10460  12.340  15.599  11.115
38845W        W10461  23.517   7.777  12.065
38846W        W10462   5.299  15.321  10.326
38847W        W10463  11.320  36.597  12.921
38848W        W10464   7.747   6.283   3.870
38849W        W10465  37.850  32.157  13.742
38850W        W10466  21.730  39.419   0.067
38851W        W10467  27.662  27.870   0.287
38852W        W10468  15.144  34.435  13.912
38853W        W10469  12.683  13.835   4.341
38854W        W10470   4.635   7.284   4.765
38855W        W10471  32.036  42.306   1.931
38856W        W10472  36.921  37.684   1.682
38857W        W10473  17.869  13.070   1.134
38858W        W10474  24.759  35.093   0.056
38859W        W10475  28.866   0.239   3.312
38860W        W10476   5.571  33.815  11.169
38861W        W10477  40.343  21.089  11.053
38862W        W10478  39.368   6.761   3.115
38863W        W10479  21.101  10.497   3.670
38864W        W10480  36.821  23.677  13.291
38865W        W10481  37.083  35.554   4.342
38866W        W10482  13.354  14.618  14.986
38867W        W10483  31.986   1.571   5.282
38868W        W10484  20.240  29.907  11.665
38869W        W10485  35.082  26.178   3.293
38870W        W10486   8.046  36.386   0.933
38871W        W10487  35.981  26.955  13.507
38872W        W10488   8.539  26.725   3.950
38873W        W10489  36.526  31.681  13.525
38874W        W10490  22.212  31.651  11.278
38875W        W10491  22.724  44.546  11.562
38876W        W10492   4.945  19.877  12.857
38877W        W10493  32.350   4.691  13.214
38878W        W10494  36.030  35.632  13.903
38879W        W10495  38.461  30.002   4.561
38880W        W10496  28.721  15.577  13.837
38881W        W10497  12.328   1.829   3.666
38882W        W10498  27.942  11.204  12.424
38883W        W10499   0.718  11.087  14.616
38884W        W10500  43.756  44.726   1.924
38885W        W10501  40.987  41.771   2.111
38886W        W10502  30.439  41.751   3.304
38887W        W10503  22.575  20.687   2.651
38888W        W10504  38.568  18.704  12.525
38889W        W10505  19.732   9.567   3.286
38890W        W10506  31.363  39.469   0.040
38891W        W10507  43.326  43.650   3.950
38892W        W10508  25.269  24.733   3.277
38893W        W10509  33.802  24.037   0.340
38894W        W10510   0.215  38.920   1.246
38895W        W10511  15.735   8.027   2.855
38896W        W10512  41.011  21.031   2.798
38897W        W10513  24.324  27.018   4.147
38898W        W10514  38.497  27.092   2.707
38899W        W10515  31.047  14.510   4.794
38900W        W10516   5.222  37.643  13.013
38901W        W10517  42.821  13.762  14.048
38902W        W10518  37.776  41.064   4.115
38903W        W10519   3.698  30.392   1.784
38904W        W10520  13.869  32.903  12.051
38905W        W10521  33.926   1.468  12.474
38906W        W10522  16.839  32.946   3.273
38907W        W10523   6.378  22.473  11.650
38908W        W10524  42.734  33.317  11.650
38909W        W10525  10.949  20.037   3.172
38910W        W10526  33.544  19.156   1.776
38911W        W10527  18.274   0.340  14.397
38912W        W10528  26.258   6.383   3.854
38913W        W10529  14.229  38.961  14.978
38914W        W10530   8.830  26.975  14.283
38915W        W10531  25.568  40.483   3.560
38916W        W10532   6.469  38.372  12.762
38917W        W10533  18.626  38.154  13.139
38918W        W10534  40.942  33.425   3.101
38919W        W10535  20.581  33.056  14.014
38920W        W10536   0.251  18.216  14.458
38921W        W10537  19.028  18.589   0.954
38922W        W10538   0.280  29.147  11.088
38923W        W10539  20.955  14.046   1.029
38924W        W10540  24.499  41.974  14.395
38925W        W10541  10.489   4.167   2.791
38926W        W10542  17.147  16.646  11.533
38927W        W10543  12.567  38.048   3.357
38928W        W10544  42.336  17.575  10.568
38929W        W10545   0.948  23.752  11.862
38930W        W10546  19.107  19.992   2.228
38931W        W10547   1.395  41.527  10.653
38932W        W10548  24.397  32.426   1.517
38933W        W10549  43.271  24.256   3.664
38934W        W10550   3.388  30.931  13.015
38935W        W10551  13.177  43.990   0.646
38936W        W10552   4.939  44.376  12.510
38937W        W10553  19.158  14.171   4.625
38938W        W10554  19.380  11.677  10.705
38939W        W10555  25.954  38.305   0.309
38940W        W10556   7.132   1.268   3.118
38941W        W10557  43.781  22.135  11.880
38942W        W10558  12.860  10.465   3.583
38943W        W10559  15.489  39.637  13.781
38944W        W10560  36.478  33.543   0.327
38945W        W10561  39.332   7.036   0.983
38946W        W10562  22.673  17.225   3.033
38947W        W10563  26.586  14.067   5.221
38948W        W10564  34.100  26.579  12.376
38949W        W10565  32.919  31.837  13.250
38950W        W10566  43.297   4.195   2.781
38951W        W10567  21.293  21.491   2.263
38952W        W10568  44.828   1.333  14.786
38953W        W10569  38.770  13.468   3.173
38954W        W10570  17.272  38.832   2.187
38955W        W10571  10.348  34.553  13.428
38956W        W10572  16.545  37.046   1.164
38957W        W10573   9.247  19.240   0.311
38958W        W10574   2.724  14.491  11.510
38959W        W10575  41.116  31.229  14.367
38960W        W10576  33.949  44.370  13.827
38961W        W10577  12.845  43.579  12.957
38962W        W10578   9.692  34.257  12.603
38963W        W10579   9.897  12.598  13.873
38964W        W10580  44.984  44.860   0.715
38965W        W10581   7.675  39.855   4.086
38966W        W10582  35.180  39.345  10.740
38967W        W10583  29.478  23.202  13.298
38968W        W10584   3.625  24.824  12.050
38969W        W10585  40.799   2.626  11.961
38970W        W10586  39.399  27.688  14.803
38971W        W10587   0.046   6.518  12.590
38972W        W10588  27.922  22.642   2.136
38973W        W10589  16.626  42.410  11.093
38974W        W10590  44.475   6.906   0.421
38975W        W10591  23.267   8.872   2.961
38976W        W10592   0.571   9.973  10.240
38977W        W10593  33.673  17.864  11.061
38978W        W10594  19.669  36.483   5.300
38979W        W10595   7.362  44.511  10.802
38980W        W10596   2.292  34.006  11.983
38981W        W10597   3.183  23.033   3.257
38982W        W10598  13.744   5.298   0.796
38983W        W10599   4.200  24.950  13.897
38984W        W10600  15.724  32.634  13.515
38985W        W10601  33.027  24.068  14.799
38986W        W10602   6.399  20.661   3.728
38987W        W10603  15.774  20.590  11.701
38988W        W10604  36.771  22.068  14.732
38989W        W10605  15.639  10.181  10.611
38990W        W10606  16.582  29.187  12.346
38991W        W10607  23.406   3.695  14.813
38992W        W10608  25.563  40.825  11.975
38993W        W10609  11.692  43.985   3.409
38994W        W10610  16.293  23.010   2.957
38995W        W10611  37.557  32.398   1.735
38996W        W10612   0.269  24.537  11.040
38997W        W10613  41.327   3.862   4.624
38998W        W10614  36.453  24.852   1.409
38999W        W10615  28.947  43.902  13.570
39000W        W10616  22.756  27.629  10.746
39001W        W10617  29.927  19.816  11.094
39002W        W10618  28.210  44.403  14.394
39003W        W10619   3.104   4.663   3.197
39004W        W10620   9.466  19.053  13.958
39005W        W10621  26.956   4.505  12.883
39006W        W10622  18.539  19.827  14.699
39007W        W10623  11.696  42.972  14.935
39008W        W10624  35.362  44.127  12.876
39009W        W10625  23.958  34.587   1.630
39010W        W10626  41.322  34.167  12.125
39011W        W10627  21.248  23.974   3.582
39012W        W10628  36.818  26.164  13.095
39013W        W10629  11.581  41.148  12.176
39014W        W10630  43.298  26.666   4.593
39015W        W10631  19.745   0.806   1.210
39016W        W10632   2.983  23.103   4.183
39017W        W10633  37.020   8.109   3.233
39018W        W10634  30.982  16.775  12.954
39019W        W10635  19.691   6.730  13.391
39020W        W10636  18.692  44.340   1.826
39021W        W10637  37.482  16.041  10.727
39022W        W10638  32.231  30.980  12.328
39023W        W10639   5.134   9.592  11.024
39024W        W10640  24.050  36.854  10.466
39025W        W10641  38.097   3.347  12.176
39026W        W10642   5.553  39.438   1.321
39027W        W10643   4.333  25.646   1.425
39028W        W10644  44.899  33.404  13.049
39029W        W10645  28.559  17.283  14.388
39030W        W10646   9.498  24.203   3.409
39031W        W10647   3.164  39.821   3.202
39032W        W10648  22.681  42.839  11.959
39033W        W10649   3.659  19.604  13.861
39034W        W10650   4.736  15.355  14.331
39035W        W10651   2.502  44.299  11.948
39036W        W10652   4.707  18.293   0.922
39037W        W10653  44.475  15.236  12.421
39038W        W10654  39.274   7.703  11.540
39039W        W10655  31.832   7.717  13.959
39040W        W10656  37.840   2.238  12.793
39041W        W10657   9.669  22.412  12.964
39042W        W10658  35.593  18.005  10.619
39043W        W10659   7.210  38.749   1.807
39044W        W10660  33.056  28.456   0.502
39045W        W10661  11.350  39.995   4.878
39046W        W10662  41.057  17.326  14.019
39047W        W10663   8.702  29.599   3.149
39048W        W10664   1.485  26.946  14.927
39049W        W10665  25.361   0.864  13.378
39050W        W10666  44.384  17.406   0.345
39051W        W10667  29.287   3.770  13.810
39052W        W10668  17.255  24.375   0.267
39053W        W10669   9.752  44.472  12.082
39054W        W10670  32.550  42.538   2.650
39055W        W10671  38.793  23.070   3.329
39056W        W10672   1.275  18.428   3.517
39057W        W10673  39.645  29.967   2.246
39058W        W10674  23.093  37.630   4.447
39059W        W10675  22.479  43.871  14.719
39060W        W10676  11.115  13.874  14.212
39061W        W10677  17.073  11.210  11.534
39062W        W10678  15.264  41.683  10.547
39063W        W10679  11.829   4.492   2.158
39064W        W10680  23.266  37.136   4.588
39065W        W10681   2.849  16.284  14.437
39066W        W10682  12.909  19.659  10.650
39067W        W10683   5.913  32.611  13.630
39068W        W10684  21.480  17.758   4.171
39069W        W10685  29.159   6.335  13.005
39070W        W10686  29.925   5.854  13.776
39071W        W10687   8.820  29.415  13.037
39072W        W10688  21.614  39.582  10.707
39073W        W10689  30.372  30.385  10.163
39074W        W10690  32.690  13.257   0.810
39075W        W10691  17.184  24.718   0.662
39076W        W10692  33.504   5.608  13.559
39077W        W10693  26.001  33.476   2.276
39078W        W10694  39.579  42.045  12.834
39079W        W10695   1.012  20.345   4.288
39080W        W10696   9.779  29.519   1.020
39081W        W10697  15.840  20.627   1.878
39082W        W10698  38.136   3.161  12.657
39083W        W10699  26.428   7.668   2.416
39084W        W10700  33.335  39.371  11.446
39085W        W10701  31.878   1.547  11.628
39086W        W10702  12.654  40.008  12.203
39087W        W10703  40.810   5.941  10.701
39088W        W10704  10.770  21.049  14.448
39089W        W10705  38.966   6.974  14.736
39090W        W10706  44.170  18.243  12.415
39091W        W10707  20.203  40.911  11.426
39092W        W10708  38.330   9.886  10.430
39093W        W10709  10.505  16.055   1.294
39094W        W10710  11.852  37.065  12.411
39095W        W10711  12.651  40.704   0.748
39096W        W10712  44.350  10.794  12.444
39097W        W10713   0.360   6.554   3.164
39098W        W10714  18.295  42.634   1.229
39099W        W10715  38.843   9.011   0.763
39100W        W10716  15.824  25.016  12.902
39101W        W10717  15.484  21.634   3.633
39102W        W10718  36.024  23.982  12.416
39103W        W10719   0.680  23.983   2.913
39104W        W10720   1.889   2.625  10.700
39105W        W10721  39.887   5.303  12.900
39106W        W10722  35.062  18.761   5.100
39107W        W10723  34.959  41.415  12.528
39108W        W10724   0.885   1.373  12.613
39109W        W10725  27.278  40.410   3.681
39110W        W10726  23.591  38.115   0.894
39111W        W10727  20.007  29.176  13.328
39112W        W10728  32.139  35.413   3.229
39113W        W10729  14.549  25.864  14.931
39114W        W10730  14.288  41.537  13.626
39115W        W10731  22.490   3.068  12.164
39116W        W10732  38.921  13.122  11.485
39117W        W10733  22.915  38.046  10.235
39118W        W10734   8.814  20.563  10.642
39119W        W10735  13.242  28.807  13.007
39120W        W10736  13.259   4.717  14.715
39121W        W10737  14.119   6.179  13.938
39122W        W10738  15.301  11.860  12.842
39123W        W10739  41.071  38.515   2.823
39124W        W10740   7.690  26.076   4.874
39125W        W10741  38.125   2.944   1.439
39126W        W10742  44.086   4.735   3.797
39127W        W10743   5.881  12.625   1.410
39128W        W10744  20.932   3.845   3.558
39129W        W10745   8.805  30.327   3.692
39130W        W10746   7.184   8.343   0.554
39131W        W10747   7.893  18.152   2.847
39132W        W10748  41.565   8.985   2.406
39133W        W10749   4.411   3.843  10.756
39134W        W10750  36.875  34.203  14.225
39135W        W10751  27.083  25.940   1.444
39136W        W10752   4.399  40.817  12.986
39137W        W10753  40.034  22.757   2.370
39138W        W10754  22.635  22.941   0.468
39139W        W10755  33.417  10.449   0.673
39140W        W10756  44.120  18.019   0.653
39141W        W10757  39.374  44.016   4.326
39142W        W10758  14.823  28.131   3.523
39143W        W10759  36.893   2.766   2.041
39144W        W10760  40.040   1.488  12.925
39145W        W10761  30.114  42.007   0.637
39146W        W10762  26.654  42.770   1.725
39147W        W10763  43.016  17.243  11.488
39148W        W10764  12.193  31.235  14.828
39149W        W10765  13.227  32.948  13.027
39150W        W10766  44.875   0.538   0.191
39151W        W10767  33.953  41.325   1.924
39152W        W10768   1.977  27.080   0.837
39153W        W10769   7.761   9.405   2.402
39154W        W10770  24.632  29.797   0.118
39155W        W10771  24.405  13.234  11.009
39156W        W10772  29.673   5.934  10.805
39157W        W10773  42.877  33.409   3.327
39158W        W10774  39.042  42.319  12.196
39159W        W10775  38.506   0.470  11.119
39160W        W10776  14.669  28.876  12.996
39161W        W10777  28.498  10.778   3.174
39162W        W10778  17.536   4.389  11.157
39163W        W10779   6.513  29.011   1.892
39164W        W10780   0.822  28.984  11.807
39165W        W10781  40.902   1.947  12.611
39166W        W10782   9.709  20.423  11.563
39167W        W10783  19.324  17.374   0.881
39168W        W10784   6.341   4.252   2.244
39169W        W10785  26.026  19.212   2.554
39170W        W10786  26.867   0.107  12.036
39171W        W10787  27.462  14.101   9.614
39172W        W10788   3.681  28.878  13.052
39173W        W10789  44.555  21.731   0.074
39174W        W10790  20.540   6.377  10.468
39175W        W10791  16.255  24.545  13.840
39176W        W10792  22.173  38.062  13.289
39177W        W10793  32.397  15.785   1.870
39178W        W10794  27.155   3.926  10.336
39179W        W10795  19.353   4.459  13.553
39180W        W10796  21.857  35.543  12.876
39181W        W10797   0.805  44.410   0.125
39182W        W10798  39.388  36.578   0.890
39183W        W10799  27.515   4.966   3.254
39184W        W10800  34.140  13.041  12.453
39185W        W10801   0.375  17.898   2.313
39186W        W10802  10.370  17.717   2.722
39187W        W10803   6.909  18.187  14.971
39188W        W10804  41.922  11.090   3.229
39189W        W10805  40.343  40.426   1.738
39190W        W10806  39.368  39.022   0.754
39191W        W10807  16.835  36.341  12.461
39192W        W10808  32.141  20.171  14.388
39193W        W10809   1.331   2.934  14.518
39194W        W10810  26.200  44.275   0.283
39195W        W10811   3.466  34.510  12.773
39196W        W10812   4.783  14.569  11.271
39197W        W10813  31.832  30.991  12.948
39198W        W10814  14.030   1.098  12.644
39199W        W10815  28.635  42.618   1.876
39200W        W10816  33.139  35.558  13.002
39201W        W10817  18.163  31.590  14.890
39202W        W10818  23.270  18.681   4.180
39203W        W10819  42.059  27.249  11.562
39204W        W10820  38.758  25.324  11.595
39205W        W10821   8.547  16.303   3.192
39206W        W10822  22.656  32.878   3.310
39207W        W10823  16.531  16.107  13.391
39208W        W10824  14.420  43.566  11.199
39209W        W10825  39.996   2.633  11.531
39210W        W10826  24.065  33.654   1.884
39211W        W10827   9.499   1.310  14.466
39212W        W10828  31.944  16.385   3.737
39213W        W10829  23.205  13.041  14.946
39214W        W10830  42.914  28.760  11.191
39215W        W10831  31.072   3.880  11.469
39216W        W10832  24.289  33.914  12.883
39217W        W10833  39.992   3.142  11.604
39218W        W10834  15.944  17.565   0.481
39219W        W10835  13.651  19.095  11.054
39220W        W10836  16.245  44.215   3.575
39221W        W10837  12.450  38.353   3.792
39222W        W10838  23.442  17.104   2.213
39223W        W10839   5.364  44.989   1.195
39224W        W10840   0.762  11.589  10.576
39225W        W10841  22.193  40.413  14.840
39226W        W10842  30.103  14.316  11.845
39227W        W10843  37.751  33.083  14.041
39228W        W10844  24.474  38.843   2.853
39229W        W10845  13.137   7.324  12.991
39230W        W10846  41.317  44.459   4.928
39231W        W10847  38.523   4.285  11.152
39232W        W10848  17.519  19.017   4.491
39233W        W10849  28.113  38.988  10.771
39234W        W10850  18.352   7.277   4.365
39235W        W10851  42.300  38.134   0.257
39236W        W10852  17.332  11.282  12.872
39237W        W10853  44.597  42.919   1.330
39238W        W10854  15.109  23.462   4.377
39239W        W10855  25.862  43.521   1.682
39240W        W10856  32.309   8.895   2.691
39241W        W10857   7.563  29.208   3.636
39242W        W10858  14.173  12.224   4.408
39243W        W10859   0.827  27.167   0.532
39244W        W10860  22.145  31.717  12.331
39245W        W10861  31.918  43.000   0.974
39246W        W10862  32.555   6.987   3.841
39247W        W10863   9.139  41.824   1.054
39248W        W10864  31.167  37.011   1.424
39249W        W10865  31.547  41.808   3.683
39250W        W10866  34.673  42.721   2.255
39251W        W10867   2.054  39.790  14.005
39252W        W10868  29.093   1.708  11.548
39253W        W10869  31.401  20.553   0.443
39254W        W10870  13.726  24.693   4.524
39255W        W10871  40.855  22.545  14.549
39256W        W10872  19.587  22.838  14.366
39257W        W10873  19.817  15.146   3.811
39258W        W10874   6.638   7.723  14.459
39259W        W10875  40.965  43.925   4.211
39260W        W10876  23.591  24.165  13.338
39261W        W10877   0.228  40.409   2.070
39262W        W10878  37.648  30.973  11.931
39263W        W10879  35.313  43.929   4.686
39264W        W10880   7.099  28.021  10.498
39265W        W10881  38.684  44.254   2.762
39266W        W10882  17.718  41.750  10.410
39267W        W10883  18.912  25.592   3.093
39268W        W10884  17.347  36.012  13.338
39269W        W10885   1.646  31.623   0.029
39270W        W10886  25.626  41.088   3.988
39271W        W10887   9.669  37.334   0.306
39272W        W10888  35.415  11.335   4.112
39273W        W10889   9.233  25.393   3.099
39274W        W10890  20.623   1.026   2.693
39275W        W10891  18.513  33.805  10.703
39276W        W10892  28.498  31.037  14.250
39277W        W10893   4.176  39.754  13.788
39278W        W10894  44.532  17.760  14.730
39279W        W10895  19.880   7.941   4.135
39280W        W10896  10.859  44.763  14.844
39281W        W10897   9.373  27.378  13.067
39282W        W10898  11.537  29.193  13.748
39283W        W10899  38.409  17.938   3.886
39284W        W10900  15.553   3.876  13.544
39285W        W10901  10.786  13.285  12.584
39286W        W10902  10.442   0.002  13.030
39287W        W10903   4.237   7.213   3.948
39288W        W10904  22.511  35.935  13.571
39289W        W10905  40.664   3.466   0.143
39290W        W10906  30.670  38.808   0.491
39291W        W10907  21.222  21.155  14.875
39292W        W10908  10.778  28.482  10.754
39293W        W10909   9.858  25.757  13.843
39294W        W10910  44.882  11.362   2.390
39295W        W10911  13.897   4.215   2.646
39296W        W10912   7.807   3.037  12.477
39297W        W10913  13.602   6.771  11.516
39298W        W10914   1.956  19.281  12.589
39299W        W10915  39.790  26.623   2.327
39300W        W10916  16.383  25.377   2.146
39301W        W10917  13.353   6.842   4.921
39302W        W10918  25.570  10.103  13.406
39303W        W10919  40.912  37.866   2.440
39304W        W10920   0.069  36.944   2.359
39305W        W10921  41.599  33.073  10.712
39306W        W10922   1.946  18.086   0.809
39307W        W10923  41.968  10.367  10.740
39308W        W10924  11.682  20.842  10.568
39309W        W10925  18.126  38.970   2.943
39310W        W10926  17.735   6.746  12.105
39311W        W10927  31.183  16.726   4.201
39312W        W10928  25.269  44.498  10.641
39313W        W10929  25.092  40.631  13.565
39314W        W10930  36.638  13.810  14.305
39315W        W10931  37.496  17.484   1.318
39316W        W10932  44.226  35.341  13.524
39317W        W10933  30.892   4.514  10.691
39318W        W10934  33.162  25.454  13.715
39319W        W10935  15.104   2.685   0.788
39320W        W10936  43.859  11.820   4.650
39321W        W10937  13.595   1.194   4.965
39322W        W10938   6.280  21.187   4.706
39323W        W10939   9.071  42.809   1.279
39324W        W10940  40.374  39.601  12.798
39325W        W10941  36.548   1.731   2.751
39326W        W10942  36.390  25.649   3.792
39327W        W10943  28.621  39.318  12.460
39328W        W10944   9.743  32.800  13.387
39329W        W10945  43.612   4.163   0.562
39330W        W10946  28.191  32.769   2.175
39331W        W10947  26.079  16.849   3.871
39332W        W10948  23.134  36.141   3.577
39333W        W10949  32.368   8.899  13.919
39334W        W10950  18.648  37.490   4.151
39335W        W10951  23.113  36.624   0.110
39336W        W10952  17.849  17.002  11.673
39337W        W10953  33.958  11.407  12.128
39338W        W10954  15.513  22.209  12.921
39339W        W10955  25.551  29.364  11.331
39340W        W10956  17.218  19.644   1.395
39341W        W10957  10.715  12.118  14.361
39342W        W10958  27.023   8.680   0.905
39343W        W10959  30.108   6.894  14.779
39344W        W10960  40.269  41.544   2.200
39345W        W10961  29.084  20.643   1.555
39346W        W10962  36.987  42.841   2.783
39347W        W10963  13.248   8.904  13.917
39348W        W10964  40.605   2.630  10.804
39349W        W10965   6.309   4.357  10.706
39350W        W10966   1.885  39.352  11.542
39351W        W10967   1.369  19.681  13.184
39352W        W10968  20.281  17.171  12.879
39353W        W10969  17.217  40.583  11.614
39354W        W10970  36.446   7.567  10.620
39355W        W10971   9.603  18.208   2.381
39356W        W10972  34.156  18.794  12.604
39357W        W10973   1.449  28.717   1.924
39358W        W10974  13.373  42.991  11.171
39359W        W10975  35.846  28.411  13.101
39360W        W10976  22.111  34.579  13.091
39361W        W10977  16.391  17.095  11.565
39362W        W10978  29.617  19.215   4.387
39363W        W10979  11.272   9.418  11.498
39364W        W10980  17.108   7.716   4.243
39365W        W10981  27.888   9.224   3.261
39366W        W10982  18.471   5.338  12.466
39367W        W10983   6.942  32.576   0.827
39368W        W10984   2.341  24.228   1.947
39369W        W10985  31.052  22.647  11.086
39370W        W10986  37.011  18.820   0.829
39371W        W10987  31.515  34.388   2.580
39372W        W10988  18.785  34.139   0.199
39373W        W10989  36.667  19.191  14.013
39374W        W10990  44.887  14.854  12.065
39375W        W10991  19.634   1.461   2.194
39376W        W10992  36.311  24.081  11.639
39377W        W10993  38.309   2.460   4.571
39378W        W10994  21.052  14.558   4.061
39379W        W10995  35.441  22.571  10.653
39380W        W10996  40.525   7.193   1.359
39381W        W10997  37.348  30.072   3.300
39382W        W10998  31.738  41.004   3.295
39383W        W10999  20.220  19.285  12.586
39384W        W11000   4.845  38.831  12.629
39385W        W11001  39.158  14.125  11.704
39386W        W11002  32.947  10.733   3.274
39387W        W11003   7.450  27.350   3.162
39388W        W11004  34.707  23.513   3.314
39389W        W11005  32.922  11.163  11.555
39390W        W11006   0.394  30.384   4.407
39391W        W11007  28.889   7.657  13.517
39392W        W11008  42.590  38.220  13.949
39393W        W11009  37.916   2.008   4.578
39394W        W11010   2.559  40.724  13.953
39395W        W11011  34.960  31.698  12.888
39396W        W11012  22.593  17.261   1.355
39397W        W11013  13.361   0.943  10.900
39398W        W11014  17.462  13.866  11.625
39399W        W11015   6.761  32.819  14.824
39400W        W11016  16.358  17.621   4.459
39401W        W11017  35.968  35.353   2.255
39402W        W11018   9.563  31.944   1.365
39403W        W11019  35.404   1.968   2.386
39404W        W11020  15.610  40.865  10.675
39405W        W11021  24.519  32.547  12.419
39406W        W11022  22.998  13.799   4.141
39407W        W11023  10.910  10.362  12.124
39408W        W11024  36.565  21.123   1.975
39409W        W11025  22.208  28.947   4.041
39410W        W11026  11.594  32.418  12.522
39411W        W11027  27.186  11.223  13.380
39412W        W11028   0.926  24.730  14.946
39413W        W11029   4.237  34.448  11.077
39414W        W11030  11.702  29.940   5.205
39415W        W11031  15.912  37.090   3.529
39416W        W11032   8.066  24.687  13.530
39417W        W11033   3.671  34.908   2.368
39418W        W11034  10.345  25.086  13.337
39419W        W11035  28.009   4.917   0.233
39420W        W11036  32.502  31.981   3.564
39421W        W11037  42.458  10.853  11.214
39422W        W11038  22.528  12.234  11.572
39423W        W11039  43.858  20.754   4.688
39424W        W11040   0.219  39.524   5.019
39425W        W11041  37.338   6.941   2.808
39426W        W11042  19.160  35.625  13.088
39427W        W11043   8.168   0.292   4.173
39428W        W11044   7.893  13.594   1.341
39429W        W11045   2.727  19.250  11.531
39430W        W11046  38.997  11.325   2.807
39431W        W11047  41.565  30.948   0.903
39432W        W11048  12.602   1.805  12.015
39433W        W11049  43.950  37.096  14.341
39434W        W11050  41.868  44.399   2.081
39435W        W11051  11.397   6.996   0.790
39436W        W11052  31.786  27.714  12.400
39437W        W11053  39.337   4.360  13.912
39438W        W11054  31.674  37.929  14.356
39439W        W11055   2.507  29.428   3.698
39440W        W11056   3.440  43.534  11.190
39441W        W11057  29.478  21.783   4.598
39442W        W11058  15.286   1.978  12.829
39443W        W11059  37.363  34.123  14.461
39444W        W11060  33.352  36.975   2.639
39445W        W11061   7.908  37.757   2.327
39446W        W11062  35.053  36.802   3.558
39447W        W11063   1.511  16.622  11.205
39448W        W11064  16.986  14.410   5.077
39449W        W11065  28.609  28.263  12.105
39450W        W11066  37.423   9.404   1.941
39451W        W11067  19.811  10.225   1.916
39452W        W11068   1.775  28.219   2.449
39453W        W11069  32.859   7.853   0.895
39454W        W11070  22.564  39.301  13.877
39455W        W11071  22.568  28.729  13.020
39456W        W11072  38.130  35.149  14.956
39457W        W11073  36.561  31.862   2.622
39458W        W11074  23.141  44.536   1.708
39459W        W11075   7.376  31.446  12.957
39460W        W11076   0.904  18.766  14.843
39461W        W11077  24.558  34.854   4.508
39462W        W11078  22.951  15.055  14.500
39463W        W11079  39.886  35.966   2.855
39464W        W11080  25.157  28.221  12.039
39465W        W11081  30.455  17.242   3.213
39466W        W11082  42.224  35.064   0.371
39467W        W11083   5.894  25.942  12.910
39468W        W11084  14.199   3.395  11.388
39469W        W11085  16.942  18.865   0.301
39470W        W11086  42.379  41.284  14.508
39471W        W11087  12.625  38.518   2.749
39472W        W11088  38.782  14.161  13.020
39473W        W11089  33.004  41.923  10.638
39474W        W11090  30.723  27.231   2.343
39475W        W11091  24.727  16.617   3.653
39476W        W11092  28.414  34.911  12.887
39477W        W11093   3.692  23.110   3.106
39478W        W11094   3.484  43.531   4.698
39479W        W11095  33.185  44.465  13.181
39480W        W11096  40.563   2.400   4.288
39481W        W11097  17.728  28.671   3.215
39482W        W11098  15.179  38.046   1.436
39483W        W11099  22.628  39.467   1.192
39484W        W11100  38.920  39.684  10.221
39485W        W11101  13.238  22.580   2.120
39486W        W11102  22.644  33.199   3.744
39487W        W11103  26.393  26.706  12.480
39488W        W11104  40.476  22.185   3.144
39489W        W11105  38.887   7.625   2.801
39490W        W11106   4.070  34.614   3.469
39491W        W11107  19.207   4.453   4.235
39492W        W11108  42.647  37.162   5.089
39493W        W11109  40.205  30.463   0.018
39494W        W11110  25.999  23.546  10.654
39495W        W11111  32.799  44.542  14.654
39496W        W11112  18.657  41.748   4.720
39497W        W11113   3.741  40.434   4.205
39498W        W11114  31.175  17.694  13.747
39499W        W11115  13.545  39.860  12.717
39500W        W11116  32.117  37.046   0.332
39501W        W11117  41.353  39.377   2.358
39502W        W11118  34.352  29.365  13.485
39503W        W11119   9.157   4.363  14.776
39504W        W11120  41.038  20.520   0.423
39505W        W11121  16.358   1.911  10.392
39506W        W11122  26.195  30.123   2.423
39507W        W11123  11.778  18.131   1.694
39508W        W11124  16.528  17.459   0.728
39509W        W11125   2.653  31.109   3.658
39510W        W11126   3.601  18.699  13.841
39511W        W11127   6.296  42.949  14.921
39512W        W11128  43.323  19.337  12.026
39513W        W11129   1.332   6.466  11.961
39514W        W11130  24.694   9.729   2.975
39515W        W11131   0.989   0.396  13.254
39516W        W11132  24.924  19.588   1.893
39517W        W11133  39.627  27.579   4.562
39518W        W11134  44.726  17.591   4.904
39519W        W11135  18.523   1.477  11.971
39520W        W11136  10.935   9.757  10.459
39521W        W11137  16.744  11.578  12.854
39522W        W11138   5.775  19.164   0.862
39523W        W11139   9.977  28.131   0.319
39524W        W11140  10.142   7.867  12.103
39525W        W11141  13.287  34.985  13.595
39526W        W11142   2.318   4.235   3.742
39527W        W11143  16.895  28.929  14.815
39528W        W11144  20.402  13.877   0.540
39529W        W11145  31.102  22.767  13.350
39530W        W11146  34.328  31.088  12.495
39531W        W11147  12.198   9.875  12.947
39532W        W11148  26.446  23.297  12.595
39533W        W11149   4.379  17.669   4.117
39534W        W11150  35.890  42.882   4.364
39535W        W11151  40.107  27.693   4.709
39536W        W11152  37.986  35.761   0.031
39537W        W11153   6.475   5.801   0.767
39538W        W11154   0.681  39.058  14.766
39539W        W11155  41.459  15.244   0.915
39540W        W11156  20.271  15.081  11.059
39541W        W11157  39.964   2.746   1.118
39542W        W11158  35.851  30.103  12.932
39543W        W11159  19.484  24.482  13.940
39544W        W11160  21.091  23.230  13.483
39545W        W11161   3.520   5.440   3.632
39546W        W11162  18.602  23.489  13.425
39547W        W11163  40.295  18.387  12.166
39548W        W11164  40.953  37.001   4.149
39549W        W11165  29.190   9.355  10.667
39550W        W11166  26.727   5.348  14.745
39551W        W11167  26.500   1.118   3.608
39552W        W11168  23.867  13.196   1.888
39553W        W11169  36.228  32.092   2.310
39554W        W11170  19.210  23.426   4.085
39555W        W11171   8.449  29.041   0.292
39556W        W11172  14.269   6.658  14.048
39557W        W11173   5.275  32.510   0.722
39558W        W11174   2.705  39.532  14.420
39559W        W11175   9.386   5.786  12.386
39560W        W11176  28.969  42.799  10.680
39561W        W11177  26.295  10.580   1.028
39562W        W11178  11.299  30.670   4.850
39563W        W11179  17.562  14.313   0.364
39564W        W11180  37.502  18.408  11.645
39565W        W11181  36.268  17.573   3.269
39566W        W11182  36.623  15.824   3.548
39567W        W11183  13.739  17.843  14.462
39568W        W11184  10.808   4.669   0.839
39569W        W11185  43.525  37.985  11.487
39570W        W11186  22.637  26.209   2.429
39571W        W11187  26.081  38.553  13.384
39572W        W11188   7.479  16.215  12.439
39573W        W11189  37.248  15.126  12.100
39574W        W11190  24.354   9.356   3.090
39575W        W11191  21.762   5.298   2.331
39576W        W11192  44.070  28.945  12.390
39577W        W11193  16.630  16.637   1.449
39578W        W11194  29.484  38.785   4.178
39579W        W11195   3.429  13.659  13.456
39580W        W11196  16.138  37.322  11.013
39581W        W11197  38.910   6.319  11.874
39582W        W11198  15.098  10.687   3.333
39583W        W11199   4.854  15.541   2.213
39584W        W11200  41.462  42.348   4.560
39585W        W11201  10.201  21.224  14.023
39586W        W11202  40.397  19.962  11.988
39587W        W11203  15.842  44.286  13.300
39588W        W11204  25.070   9.372  14.442
39589W        W11205  13.813  24.093  12.378
39590W        W11206  36.509  37.550   2.896
39591W        W11207  20.522  36.097   4.704
39592W        W11208  17.280   6.445   0.885
39593W        W11209  19.206  43.697   4.552
39594W        W11210   5.313  38.243   3.626
39595W        W11211   6.695  25.156   3.050
39596W        W11212   1.266   5.875   3.603
39597W        W11213  21.618  21.171  13.979
39598W        W11214  42.194  19.174  14.883
39599W        W11215  44.366  30.969  11.681
39600W        W11216  16.480  37.638  11.826
39601W        W11217   8.822  40.148  10.580
39602W        W11218  17.877  28.946   3.614
39603W        W11219  41.262  28.053  11.527
39604W        W11220  38.294   3.215   0.972
39605W        W11221  11.147  37.397  10.348
39606W        W11222  16.305   8.136   3.636
39607W        W11223  26.616  13.570  12.146
39608W        W11224  21.076  17.100  12.460
39609W        W11225  26.951  11.442   4.323
39610W        W11226  15.313  27.619  10.414
39611W        W11227  16.327   2.691  12.184
39612W        W11228  18.276  30.416  14.499
39613W        W11229   5.750  22.886   4.676
39614W        W11230  14.389  32.704   3.644
39615W        W11231   3.731   4.876  10.774
39616W        W11232   7.174   4.381   0.837
39617W        W11233   9.559  19.619  14.485
39618W        W11234  38.671   9.864   4.895
39619W        W11235  30.183  39.956   1.240
39620W        W11236   2.512  20.187   1.395
39621W        W11237  14.779   9.504   1.189
39622W        W11238  19.792  13.002   2.908
39623W        W11239  33.933   2.306   0.036
39624W        W11240  20.302  18.311   2.336
39625W        W11241  30.018   0.736   4.519
39626W        W11242  11.628  31.870   0.803
39627W        W11243  16.412  15.111  13.174
39628W        W11244  37.887  24.665   1.881
39629W        W11245  34.811  39.342   2.175
39630W        W11246  35.128   2.815  11.981
39631W        W11247  13.548  15.176   2.304
39632W        W11248  31.155  26.660   0.379
39633W        W11249   3.019  36.130  14.256
39634W        W11250  32.065  28.703   3.846
39635W        W11251  42.490   5.299  12.013
39636W        W11252  42.267  13.686  14.838
39637W        W11253   1.456  25.933  14.302
39638W        W11254  31.833  18.204   1.904
39639W        W11255  38.983  11.577  13.464
39640W        W11256  39.191  28.930  11.168
39641W        W11257  18.667  43.350   0.446
39642W        W11258  19.041  21.616   1.188
39643W        W11259  25.576  40.982  12.478
39644W        W11260   0.010   9.236  11.241
39645W        W11261  13.835  32.386  12.808
39646W        W11262   6.529  39.922   3.173
39647W        W11263  22.178  34.034   3.684
39648W        W11264  43.624   5.203   3.140
39649W        W11265   0.697  26.724   0.852
39650W        W11266  38.680  34.496   4.488
39651W        W11267  14.549   5.939   3.715
39652W        W11268  41.748  32.612   2.892
39653W        W11269  10.154  16.631   2.560
39654W        W11270  26.106   3.944  13.029
39655W        W11271  36.546  21.454  13.611
39656W        W11272  42.763  34.594   3.128
39657W        W11273  26.329  13.588   5.213
39658W        W11274  31.721  19.927   3.317
39659W        W11275  36.411  19.580   4.677
39660W        W11276  12.362  44.822   3.767
39661W        W11277  11.729  25.565  14.849
39662W        W11278  22.163  25.489   2.943
39663W        W11279  38.536  41.309  13.035
39664W        W11280  14.570  38.053  13.555
39665W        W11281  34.665  23.990  12.537
39666W        W11282  31.770  34.648  14.466
39667W        W11283   0.585  36.229   5.500
39668W        W11284   9.007  36.471   1.163
39669W        W11285   4.787  38.288   1.726
39670W        W11286  28.664  11.692  12.489
39671W        W11287  30.726   8.438  11.965
39672W        W11288  26.258  31.152  14.750
39673W        W11289  41.368  13.557   0.822
39674W        W11290  10.485   0.800   1.950
39675W        W11291  28.175  17.054  13.086
39676W        W11292  19.927   1.206  11.128
39677W        W11293  28.911   2.923  10.668
39678W        W11294  41.947  25.962  12.462
39679W        W11295  33.634  38.333   2.791
39680W        W11296  36.454  43.483  11.098
39681W        W11297   7.892  12.389   1.792
39682W        W11298  38.123  28.453  14.032
39683W        W11299   2.686  35.266  11.495
39684W        W11300  25.935  12.343   2.261
39685W        W11301  33.627  15.889  10.260
39686W        W11302  35.049  43.543  14.235
39687W        W11303  40.027  12.366  13.826
39688W        W11304  33.234  13.685   4.239
39689W        W11305  41.804   1.425  11.606
39690W        W11306  38.360  38.503   1.146
39691W        W11307  31.135  31.866  12.328
39692W        W11308  24.190  43.302  10.733
39693W        W11309  35.447  41.886  10.645
39694W        W11310  16.057  23.791   3.432
39695W        W11311  12.482  30.193   4.550
39696W        W11312   1.860  40.004   0.326
39697W        W11313  33.458  15.088  12.498
39698W        W11314  19.330  17.792  13.733
39699W        W11315   7.144   6.846  11.437
39700W        W11316   3.525  28.559   2.018
39701W        W11317  30.769  11.224   4.538
39702W        W11318  33.148   3.856  11.911
39703W        W11319   2.030  10.866   0.849
39704W        W11320  30.472  42.850  14.718
39705W        W11321  25.932   8.731   1.997
39706W        W11322  13.208  11.271   4.094
39707W        W11323  22.761   7.371  12.868
39708W        W11324  22.425  44.975  11.572
39709W        W11325   7.137   9.291   3.704
39710W        W11326  23.331  16.826   0.936
39711W        W11327  37.859   3.913   2.614
39712W        W11328  11.282  23.536  10.754
39713W        W11329  13.319   4.394  11.606
39714W        W11330  33.009   6.586   1.386
39715W        W11331  37.551  18.308  13.432
39716W        W11332   7.571  33.372  10.281
39717W        W11333  17.408  35.158   0.433
39718W        W11334  26.391  25.712  12.229
39719W        W11335  26.629  30.796  12.811
39720W        W11336  32.369  14.647  13.263
39721W        W11337  17.818   9.242  10.776
39722W        W11338  23.249  16.656  13.418
39723W        W11339  33.410  39.097  11.978
39724W        W11340  11.209   8.279   2.812
39725W        W11341  36.480   8.551  10.225
39726W        W11342   0.538  10.775  13.395
39727W        W11343   1.238  29.068  14.926
39728W        W11344  27.797  42.362   3.694
39729W        W11345   2.811  32.026  12.398
39730W        W11346  34.041  22.769  12.965
39731W        W11347  35.443   4.442  12.062
39732W        W11348  10.133  36.428   1.149
39733W        W11349  12.378  23.600  14.023
39734W        W11350  19.633  36.217   0.396
39735W        W11351  19.324  27.574   1.437
39736W        W11352  38.654  24.539  12.552
39737W        W11353  17.419   3.779   2.264
39738W        W11354  11.922  11.329   1.442
39739W        W11355  30.099  44.824  13.266
39740W        W11356  13.324  34.509   0.494
39741W        W11357  24.138  39.281   4.083
39742W        W11358  18.865  43.977   3.578
39743W        W11359  40.513  15.500   4.090
39744W        W11360  12.111  13.761  11.140
39745W        W11361   8.924  33.899  12.045
39746W        W11362  10.228  42.437  13.837
39747W        W11363  44.889  14.634  11.579
39748W        W11364  22.209  27.263  14.317
39749W        W11365  14.762   5.272  10.774
39750W        W11366  34.359   0.754  10.206
39751W        W11367   4.189   7.419   4.985
39752W        W11368  23.671  13.825   3.747
39753W        W11369  15.705  24.064  12.943
39754W        W11370  22.501  35.083   2.648
39755W        W11371  37.969  19.032   3.723
39756W        W11372  27.448  32.750   0.381
39757W        W11373  10.214   8.844  14.531
39758W        W11374  10.062   1.356  11.838
39759W        W11375   9.892  26.262  13.060
39760W        W11376  35.637  17.283  14.358
39761W        W11377   4.879  25.444   0.406
39762W        W11378   0.563  38.010   3.691
39763W        W11379  42.688   5.962  12.897
39764W        W11380  15.910  18.788   9.767
39765W        W11381   1.849  25.713  14.617
39766W        W11382   3.723   2.194   1.948
39767W        W11383  21.437   8.949   4.469
39768W        W11384  16.954  18.675  10.939
39769W        W11385   9.989   7.885   4.663
39770W        W11386  28.163  35.090  12.452
39771W        W11387  28.429   0.907  11.257
39772W        W11388  41.615  19.054   2.661
39773W        W11389   1.327  10.840   4.173
39774W        W11390   0.006  12.754  10.330
39775W        W11391  16.109  42.048   2.144
39776W        W11392  14.474   0.574   0.547
39777W        W11393  23.051  15.174   2.250
39778W        W11394  32.801  11.839   2.439
39779W        W11395  34.611  22.528  11.440
39780W        W11396   7.889  15.886   1.689
39781W        W11397  16.366  11.650  11.178
39782W        W11398   6.078  31.738  12.408
39783W        W11399   7.787  44.635  11.134
39784W        W11400  27.140  39.118   3.638
39785W        W11401  15.611  40.668   3.400
39786W        W11402  11.162  40.716   1.375
39787W        W11403  14.413  28.267   0.304
39788W        W11404  21.611  11.713   1.314
39789W        W11405  36.887  19.966   0.228
39790W        W11406  17.840   3.800   4.200
39791W        W11407  22.186  25.049  12.651
39792W        W11408   9.900  19.717   4.633
39793W        W11409  21.565  44.556   3.237
39794W        W11410  26.529  41.781  11.090
39795W        W11411  29.454  12.179   0.479
39796W        W11412  16.007   4.671  10.210
39797W        W11413   4.817   2.304  12.087
39798W        W11414  28.953  42.324   4.122
39799W        W11415  25.565  28.039  11.072
39800W        W11416  37.115  28.151   4.561
39801W        W11417  18.810  28.217   4.809
39802W        W11418  23.072  18.999   0.673
39803W        W11419  39.904  33.885   2.469
39804W        W11420  11.772   6.890  12.118
39805W        W11421   3.807  38.381  14.272
39806W        W11422  29.566   2.484  12.905
39807W        W11423  25.991  33.055   2.704
39808W        W11424  20.631  23.219  11.629
39809W        W11425  27.973  30.947  12.063
39810W        W11426  18.022  35.988  11.564
39811W        W11427  30.998  30.941   0.502
39812W        W11428  41.577  44.307  11.072
39813W        W11429  20.233  43.790   3.821
39814W        W11430  27.510   5.239   2.783
39815W        W11431  16.860  12.468   0.817
39816W        W11432  32.557  23.335  11.913
39817W        W11433  12.710   3.696  14.360
39818W        W11434  15.776   1.180  12.033
39819W        W11435  11.915  32.089   0.389
39820W        W11436  23.121  25.017   4.508
39821W        W11437  24.394  11.391  14.069
39822W        W11438  19.733  28.347  12.094
39823W        W11439   3.701  38.465  12.122
39824W        W11440  13.561  38.043   4.221
39825W        W11441   9.377  30.052  14.451
39826W        W11442  34.563  35.406  11.369
39827W        W11443  36.950  15.188   4.596
39828W        W11444  31.057  18.503   4.107
39829W        W11445  36.940   5.137  11.299
39830W        W11446  20.868   3.505  11.132
39831W        W11447  32.530  22.131   2.686
39832W        W11448  27.128  19.576   1.919
39833W        W11449  28.628   5.417  14.791
39834W        W11450   7.781  18.540   4.150
39835W        W11451   3.572   9.822   2.675
39836W        W11452  12.866  35.842   0.549
39837W        W11453  20.201  41.547   3.528
39838W        W11454  37.869   0.728   3.815
39839W        W11455   6.858  19.669   0.699
39840W        W11456  39.325  39.239  10.911
39841W        W11457  13.576  36.695   3.359
39842W        W11458  24.249  21.188   2.626
39843W        W11459  14.880  30.040   4.589
39844W        W11460  18.841  35.832  13.441
39845W        W11461  29.498  40.866  12.376
39846W        W11462  35.895  14.000   1.964
39847W        W11463  29.525  15.603  12.978
39848W        W11464  36.834  10.285  11.849
39849W        W11465   0.749   6.945   1.805
39850W        W11466  22.027  32.193   3.309
39851W        W11467   8.368  22.477  11.231
39852W        W11468  24.262  11.127   1.798
39853W        W11469   7.827   3.421   1.868
39854W        W11470  14.592   1.052   0.780
39855W        W11471  28.205  32.993   3.159
39856W        W11472  25.087  26.323   4.043
39857W        W11473  21.501  33.178  10.626
39858W        W11474   1.766  42.833  12.419
39859W        W11475  33.736  43.953  10.213
39860W        W11476  30.862   6.263   4.089
39861W        W11477  13.642  19.269   2.662
39862W        W11478  10.016  10.832  12.045
39863W        W11479  33.106  30.655  14.010
39864W        W11480   2.056  24.178  10.717
39865W        W11481  32.096   0.395   4.150
39866W        W11482  16.684  24.447   0.945
39867W        W11483   0.212  43.680  13.076
39868W        W11484  21.103   1.847   4.760
39869W        W11485   4.881   9.168   4.188
39870W        W11486   3.848  25.231  14.882
39871W        W11487  28.715  27.589  11.480
39872W        W11488   6.720  43.105   1.736
39873W        W11489  17.826  22.364   1.861
39874W        W11490   7.721  39.511   1.234
39875W        W11491   1.880  26.931   1.370
39876W        W11492  17.140  21.244  11.010
39877W        W11493  36.334  12.350   2.098
39878W        W11494  36.244  32.149  14.408
39879W        W11495  15.633  27.391   0.786
39880W        W11496  16.736  10.931   3.628
39881W        W11497  17.236  38.061   3.473
39882W        W11498  37.868  27.701   3.330
39883W        W11499  31.874  31.377   3.711
39884W        W11500  33.687  40.368  12.453
39885W        W11501  30.922  14.092   3.111
39886W        W11502  27.951   9.224   2.681
39887W        W11503   4.781  43.471   4.263
39888W        W11504  13.696  24.967   4.941
39889W        W11505  36.973   3.834   0.960
39890W        W11506  27.162   5.640  11.082
39891W        W11507   4.265  31.615   2.833
39892W        W11508  19.767   7.607  12.988
39893W        W11509  22.145  40.982  13.672
39894W        W11510  13.273  41.403  14.756
39895W        W11511  34.937   7.257   2.855
39896W        W11512  17.384  17.273   3.752
39897W        W11513  39.758  12.228   2.666
39898W        W11514  40.911  32.210  11.142
39899W        W11515   4.751  12.832  11.614
39900W        W11516  30.805  32.851   4.369
39901W        W11517  32.938  29.056   5.353
39902W        W11518  37.486  37.374  13.473
39903W        W11519  12.236   8.765   2.009
39904W        W11520  20.242   1.845   2.792
39905W        W11521  25.931   2.233   4.126
39906W        W11522   1.016  23.536   0.254
39907W        W11523  23.485  26.658  14.826
39908W        W11524   2.849  22.902   4.632
39909W        W11525  27.034   1.683   3.143
39910W        W11526  44.444  20.134   2.922
39911W        W11527  38.754  37.608  11.660
39912W        W11528  35.602  12.815  11.086
39913W        W11529   9.631  28.952  13.843
39914W        W11530  32.173  37.062   1.320
39915W        W11531   7.666  14.829  13.968
39916W        W11532  26.589  38.655   0.498
39917W        W11533  11.137  18.108   4.444
39918W        W11534  12.495  41.882  13.936
39919W        W11535   5.800  23.197   0.470
39920W        W11536   8.302  41.886   0.755
39921W        W11537   4.346  27.251  10.862
39922W        W11538  42.209  30.076  10.634
39923W        W11539  31.857  43.819  11.681
39924W        W11540  43.931  38.123  12.996
39925W        W11541  18.757  37.123  12.925
39926W        W11542  20.094  33.087   0.782
39927W        W11543   0.741  42.810   3.281
39928W        W11544   6.153  21.319  13.895
39929W        W11545  29.850  18.762  14.375
39930W        W11546  16.149  11.578  10.062
39931W        W11547  14.281  14.834   1.890
39932W        W11548  20.619   6.048   2.423
39933W        W11549   2.390  44.315   9.976
39934W        W11550  39.795   2.674   2.698
39935W        W11551  17.608  16.405  10.544
39936W        W11552  37.851   8.885  11.952
39937W        W11553  31.906  35.563  13.967
39938W        W11554  37.401  40.474  11.629
39939W        W11555  29.014  35.065   0.251
39940W        W11556  15.273  25.444  10.721
39941W        W11557   5.459  32.984   0.523
39942W        W11558  24.267  43.870  11.447
39943W        W11559  20.240  22.467   2.675
39944W        W11560   9.671  19.672   1.372
39945W        W11561  32.978  12.992   0.442
39946W        W11562  24.154  43.559  13.917
39947W        W11563  33.810  38.523  12.362
39948W        W11564  20.940  17.548  13.054
39949W        W11565   2.196  28.681  13.831
39950W        W11566  31.540  10.823   0.978
39951W        W11567   8.339   6.802   0.332
39952W        W11568  14.424   3.361  10.486
39953W        W11569  29.829   5.321   0.540
39954W        W11570  29.380  42.055  11.814
39955W        W11571  17.456   0.770  10.654
39956W        W11572  29.862  41.036  14.853
39957W        W11573   9.377  20.837   1.937
39958W        W11574  34.536  19.171  11.378
39959W        W11575   6.043  34.022  13.370
39960W        W11576  16.552  41.396   0.318
39961W        W11577  13.562  24.086  10.429
39962W        W11578  33.581  18.267   3.600
39963W        W11579   6.187   8.400   0.167
39964W        W11580  39.889  30.872  13.403
39965W        W11581   2.768  19.570  11.123
39966W        W11582   5.999   5.951  13.683
39967W        W11583  36.611   1.812  10.339
39968W        W11584   7.390   7.358  14.968
39969W        W11585  30.759  31.246   4.539
39970W        W11586   1.470  25.187  10.539
39971W        W11587  21.232  10.515   1.843
39972W        W11588  27.419   7.709   4.151
39973W        W11589  43.522  12.807   0.680
39974W        W11590  19.300  12.771  13.117
39975W        W11591  18.351   8.616  13.435
39976W        W11592   4.772  30.445  12.628
39977W        W11593  30.592  33.481   5.331
39978W        W11594  42.816  38.769   3.920
39979W        W11595  41.061  38.981  14.362
39980W        W11596   4.687  40.606  12.010
39981W        W11597  24.821  34.524   0.921
39982W        W11598  40.715  37.599  11.541
39983W        W11599  26.166  41.944  10.686
39984W        W11600   6.610  36.723  12.411
39985W        W11601  20.310  24.483  14.361
39986W        W11602   7.905  20.735   1.902
39987W        W11603  23.594   9.178  14.406
39988W        W11604  33.993   8.203  14.081
39989W        W11605  17.769   3.964  10.945
39990W        W11606  18.305   4.687   4.270
39991W        W11607  31.623  26.946   2.200
39992W        W11608  17.533  41.278  10.228
39993W        W11609   1.542  11.088  12.527
39994W        W11610  10.333  27.567  11.604
39995W        W11611   7.015   1.768   0.362
39996W        W11612  21.027   3.721  12.624
39997W        W11613  30.078  18.904  11.090
39998W        W11614   6.172  36.793  13.860
39999W        W11615   3.181  34.964   2.237
40000W        W11616  44.315  28.674   0.612
40001W        W11617  19.740  29.234   3.919
40002W        W11618  12.518  30.572  14.886
40003W        W11619  43.315  34.662   3.603
40004W        W11620  10.409  17.193   1.331
40005W        W11621  11.658  20.393   2.810
40006W        W11622  21.192  17.954   1.371
40007W        W11623  15.006   9.437   2.358
40008W        W11624   6.805   5.832   3.281
40009W        W11625  37.328  27.093   1.784
40010W        W11626  34.501  12.692   2.454
40011W        W11627  29.057  44.865   0.316
40012W        W11628  13.180  40.602   0.877
40013W        W11629  15.934   8.134  13.285
40014W        W11630  30.136  43.653   4.835
40015W        W11631  11.699   8.681   1.800
40016W        W11632  39.930  10.173   1.404
40017W        W11633  12.913  11.510   2.275
40018W        W11634  44.466   7.274  11.662
40019W        W11635  20.438  38.329   1.705
40020W        W11636  33.529  40.275   0.768
40021W        W11637  25.806  31.861  13.903
40022W        W11638  32.890   7.089   1.318
40023W        W11639  33.393  17.587   2.818
40024W        W11640  26.159  13.138  11.553
40025W        W11641   2.203  19.842   4.188
40026W        W11642   6.720  33.065   4.814
40027W        W11643  18.608  18.577   0.251
40028W        W11644   2.005   3.846  12.494
40029W        W11645  10.665  12.029  11.231
40030W        W11646  18.854  19.062  12.105
40031W        W11647  11.501   6.661  12.503
40032W        W11648  24.011  20.740  11.627
40033W        W11649   7.846   5.668  12.543
40034W        W11650  43.459  43.280   2.310
40035W        W11651  44.319  41.523  14.498
40036W        W11652  35.308   5.478   2.807
40037W        W11653   9.618  44.235  14.336
40038W        W11654   1.457  41.277   2.394
40039W        W11655   4.265  17.814   0.960
40040W        W11656  34.593  15.092   2.943
40041W        W11657  43.304  34.141   0.364
40042W        W11658   0.973   0.019  12.883
40043W        W11659  33.031  39.521   4.601
40044W        W11660  28.242   2.203   1.414
40045W        W11661  22.597  40.455   0.778
40046W        W11662  34.884  42.284  12.916
40047W        W11663  27.506  14.801  12.923
40048W        W11664  25.038   2.829   0.447
40049W        W11665  38.764  18.602   2.651
40050W        W11666  11.293  10.894   2.669
40051W        W11667  13.757  37.832   3.771
40052W        W11668   5.373   3.266   2.776
40053W        W11669  35.669  38.697   1.357
40054W        W11670  41.425  28.684   0.244
40055W        W11671  15.260  23.681  13.904
40056W        W11672  38.339   0.385   2.628
40057W        W11673   0.398  29.096  12.079
40058W        W11674  19.164  30.716   3.830
40059W        W11675  14.863   7.710   2.790
40060W        W11676  37.691  42.305  14.077
40061W        W11677  24.788  19.621  11.139
40062W        W11678  11.870  30.537  10.727
40063W        W11679  27.720  37.282   4.064
40064W        W11680   2.187  23.161   0.363
40065W        W11681   2.299  43.808   9.852
40066W        W11682   1.374   8.085   4.542
40067W        W11683  33.065  12.721  10.308
40068W        W11684  28.527  18.089  13.896
40069W        W11685  30.309  15.313   2.550
40070W        W11686  38.961  33.107  12.726
40071W        W11687  36.609  35.560   3.101
40072W        W11688  42.981  41.322  13.385
40073W        W11689  16.231  17.799   3.943
40074W        W11690  14.220  14.612  11.159
40075W        W11691   2.788  42.284   4.545
40076W        W11692   3.330   9.172   1.817
40077W        W11693   4.157  35.484   2.719
40078W        W11694   1.259  16.565   1.770
40079W        W11695  12.677  15.286   3.859
40080W        W11696  22.566  38.336  13.007
40081W        W11697   5.401  17.924  13.104
40082W        W11698   7.761  13.587   4.743
40083W        W11699   4.306  20.854  13.519
40084W        W11700  19.929  33.712  12.167
40085W        W11701   6.975   5.403  13.001
40086W        W11702  43.984  13.844   3.198
40087W        W11703  13.797  29.721   3.710
40088W        W11704  27.695  29.213  10.681
40089W        W11705  35.179  41.118  11.107
40090W        W11706  37.635   1.022  13.063
40091W        W11707  36.659  36.386  13.991
40092W        W11708   8.962  30.511  11.959
40093W        W11709  27.825  15.953  10.168
40094W        W11710  11.327  24.970  10.877
40095W        W11711  38.692  37.303   4.046
40096W        W11712  44.920  21.198   3.982
40097W        W11713  32.821  26.983  13.884
40098W        W11714  14.225  39.085   3.810
40099W        W11715  22.461   9.064   0.878
40100W        W11716  26.407  35.844   1.031
40101W        W11717   0.626   2.377  10.700
40102W        W11718  12.957  27.679  12.736
40103W        W11719   6.880  24.696   2.868
40104W        W11720  33.123  15.703   3.557
40105W        W11721  41.747   4.994   1.809
40106W        W11722  29.842  40.312   0.439
40107W        W11723  44.232   0.423   1.932
40108W        W11724   4.328   5.935   3.185
40109W        W11725  35.576   3.458  13.258
40110W        W11726  29.437  15.674   5.040
40111W        W11727   6.454  34.729  11.871
40112W        W11728  14.270  32.827  11.686
40113W        W11729  31.991  29.485   3.415
40114W        W11730  30.115   8.289   4.541
40115W        W11731   2.396  31.586  14.084
40116W        W11732  13.315   0.037   3.976
40117W        W11733  37.026  44.544  13.457
40118W        W11734  19.139  20.506  12.360
40119W        W11735  43.905   4.997  10.747
40120W        W11736  43.515  18.458   1.255
40121W        W11737  24.597  16.387  10.927
40122W        W11738   0.889  14.337   5.013
40123W        W11739  43.038  17.667  14.994
40124W        W11740  20.706   5.838   0.537
40125W        W11741   3.306  30.820   4.067
40126W        W11742  29.414  26.452  12.970
40127W        W11743  31.131  15.548   0.224
40128W        W11744  27.403  12.037  13.832
40129W        W11745   1.194   6.903   0.965
40130W        W11746   7.383  24.535   3.562
40131W        W11747  39.534  20.143   1.419
40132W        W11748  12.719   5.308  12.679
40133W        W11749  22.031   6.340   0.926
40134W        W11750   1.461  22.153   0.835
40135W        W11751   5.740  42.820  13.417
40136W        W11752   4.321   1.035   2.374
40137W        W11753  22.299  29.067   0.446
40138W        W11754  28.994  23.932  13.233
40139W        W11755  17.359   8.288  13.519
40140W        W11756  10.622   0.537   4.100
40141W        W11757  35.046  34.987   0.786
40142W        W11758  17.809  20.656  13.981
40143W        W11759   0.997  43.825   3.394
40144W        W11760  28.509  41.794   1.448
40145W        W11761  37.937  25.005  13.768
40146W        W11762  43.915  36.077   3.155
40147W        W11763  25.574  10.564  11.989
40148W        W11764   4.970   3.928   0.922
40149W        W11765  17.105  13.708  13.090
40150W        W11766   6.462   8.800   0.386
40151W        W11767  34.954   7.557  14.903
40152W        W11768   3.830  34.659  11.991
40153W        W11769  20.974  25.238   1.782
40154W        W11770  31.333  21.589  10.741
40155W        W11771  42.359   9.137  12.499
40156W        W11772  39.407  23.393  12.100
40157W        W11773  25.848   6.836  14.183
40158W        W11774  24.540  34.317   3.747
40159W        W11775  24.725   6.398   1.257
40160W        W11776  13.551  34.960   1.843
40161W        W11777  37.274  25.498  11.927
40162W        W11778  24.146  37.869  11.537
40163W        W11779  44.980  18.228  14.902
40164W        W11780  34.521  29.879   2.232
40165W        W11781  30.596   7.724   1.652
40166W        W11782  14.378  38.006   3.782
40167W        W11783  34.368   4.171  13.500
40168W        W11784  29.871  20.910  10.575
40169W        W11785  22.750   4.672   3.349
40170W        W11786  12.117  40.434   2.223
40171W        W11787   0.085  42.532   4.751
40172W        W11788  21.060   0.947  13.433
40173W        W11789  31.364  19.700  14.989
40174W        W11790   7.916   3.906   3.646
40175W        W11791   9.193  44.965   4.826
40176W        W11792  22.958  26.641   1.185
40177W        W11793  21.101  14.421  10.695
40178W        W11794  18.584  42.972  12.997
40179W        W11795  42.380  40.776   1.751
40180W        W11796  19.006   2.308  10.988
40181W        W11797  15.991   5.261  10.682
40182W        W11798  41.045  42.728   0.831
40183W        W11799  20.126  24.335  11.003
40184W        W11800   9.198  19.117   3.636
40185W        W11801  37.923  33.882   3.263
40186W        W11802   1.435  19.130   2.748
40187W        W11803  39.082  12.394  10.098
40188W        W11804  13.762  43.417  14.330
40189W        W11805  34.797   4.513  12.559
40190W        W11806  12.101  38.371  14.430
40191W        W11807  40.059  31.276   2.247
40192W        W11808   7.023   7.063   2.859
40193W        W11809   9.965  35.548   4.000
40194W        W11810  26.759   0.388  12.495
40195W        W11811  33.629   7.407  11.054
40196W        W11812  11.866  42.093   1.631
40197W        W11813   4.719  40.799  10.693
40198W        W11814  26.503  29.140   3.114
40199W        W11815  19.518  37.325  13.268
40200W        W11816  25.463  41.629   0.680
40201W        W11817  35.935  10.621  11.461
40202W        W11818  25.171   9.633  13.930
40203W        W11819  25.764  22.024   4.101
40204W        W11820  33.843  21.290  12.832
40205W        W11821   6.126  22.583   4.441
40206W        W11822  22.877  10.910  11.693
40207W        W11823  18.712  14.353  12.394
40208W        W11824  38.876  39.576   3.771
40209W        W11825  42.492  32.150   2.716
40210W        W11826  12.624   5.948  14.062
40211W        W11827  11.075  10.006  13.519
40212W        W11828  38.093   0.966  14.485
40213W        W11829   3.468  33.441  13.887
40214W        W11830   0.443   8.181   4.626
40215W        W11831  34.008   7.238   2.783
40216W        W11832   3.152  37.459   4.384
40217W        W11833   3.836   6.638   4.087
40218W        W11834   8.096  42.826  13.375
40219W        W11835   0.356   1.680  11.025
40220W        W11836   4.204  13.620   1.307
40221W        W11837   0.975  22.306   2.237
40222W        W11838  19.591  21.562  13.388
40223W        W11839  44.769  14.329   1.918
40224W        W11840  12.577  32.019   4.651
40225W        W11841  24.375  38.976  12.608
40226W        W11842  21.351  37.121  11.172
40227W        W11843  41.395  37.920  11.826
40228W        W11844  28.937  15.778   0.591
40229W        W11845  20.209  23.956   5.110
40230W        W11846   7.663  21.474  14.724
40231W        W11847  42.223  22.486  11.062
40232W        W11848   6.227   6.227   0.950
40233W        W11849  29.662  32.592  11.610
40234W        W11850  21.545  12.082   3.665
40235W        W11851  25.245  26.596   0.311
40236W        W11852  27.012  13.516  14.765
40237W        W11853  37.508  15.949  12.003
40238W        W11854  34.953  14.922   4.664
40239W        W11855   0.259  16.810   4.515
40240W        W11856   1.183  40.454  12.053
40241W        W11857  17.515  23.152  12.834
40242W        W11858  25.503  11.031   4.290
40243W        W11859  18.319  30.200   4.032
40244W        W11860  44.234  22.710  10.767
40245W        W11861   0.768  39.941   3.407
40246W        W11862  39.513  23.045   2.608
40247W        W11863  41.090   5.828  11.110
40248W        W11864   4.885  39.559  12.996
40249W        W11865   9.735  43.486  11.236
40250W        W11866  10.954  35.086  10.812
40251W        W11867  44.940  40.563  13.892
40252W        W11868   8.611  36.453  12.459
40253W        W11869   7.351  37.155  11.830
40254W        W11870  43.336  19.846  11.910
40255W        W11871  19.594  26.162  11.541
40256W        W11872  10.314  13.346  13.614
40257W        W11873   8.611  38.066   0.743
40258W        W11874  21.506  26.686   4.138
40259W        W11875   1.949  15.717   2.414
40260W        W11876  41.852  13.565   4.871
40261W        W11877   8.138  41.471   4.856
40262W        W11878  35.314  25.486  12.904
40263W        W11879  34.858  40.541   3.185
40264W        W11880  26.029  13.618  13.307
40265W        W11881  13.108  26.615  11.571
40266W        W11882  22.187   9.036   1.777
40267W        W11883  22.239  12.306   0.273
40268W        W11884   3.260   1.550   3.552
40269W        W11885  34.869   0.167  13.599
40270W        W11886   9.778  37.961  12.037
40271W        W11887  13.313   7.228   4.577
40272W        W11888  39.901  33.015   1.316
40273W        W11889  33.934  44.836  10.290
40274W        W11890  26.740  25.989  13.011
40275W        W11891  34.824  14.746   2.429
40276W        W11892  40.869   7.826  12.966
40277W        W11893  19.634  25.089  10.742
40278W        W11894  28.633   4.785   4.590
40279W        W11895  38.857  14.182  14.988
40280W        W11896  20.741  36.073   1.125
40281W        W11897   8.324   9.849   0.965
40282W        W11898   2.098  17.684  13.366
40283W        W11899  44.823   9.754   1.416
40284W        W11900  30.176  16.645  13.986
40285W        W11901  19.986  16.659   1.252
40286W        W11902  44.196   8.923  13.825
40287W        W11903  25.050  36.176  11.181
40288W        W11904   4.936  44.924   5.011
40289W        W11905  13.371  21.671  14.872
40290W        W11906  43.116   3.759  10.848
40291W        W11907  13.506  13.252   1.320
40292W        W11908  12.587  15.718   1.842
40293W        W11909  12.866  42.869  11.134
40294W        W11910  19.009  11.534  14.365
40295W        W11911  29.183   2.372   3.416
40296W        W11912  10.969  27.741   2.418
40297W        W11913  32.838  43.716   3.986
40298W        W11914  33.880   9.397   1.914
40299W        W11915  21.259   3.032   9.991
40300W        W11916  31.826  35.022   3.152
40301W        W11917  13.958  22.968   2.735
40302W        W11918   7.788  38.336   3.828
40303W        W11919  21.552  17.047   2.366
40304W        W11920  39.473  24.502   3.722
40305W        W11921  17.275  27.005   3.576
40306W        W11922   9.122  25.596   4.892
40307W        W11923  38.042  12.648  10.734
40308W        W11924  10.769  27.546   1.216
40309W        W11925  10.100  34.222   3.910
40310W        W11926   7.385  35.292  12.939
40311W        W11927  38.996  39.171   0.003
40312W        W11928   2.903  24.364  12.995
40313W        W11929  31.546  43.789   3.841
40314W        W11930  13.051  21.013   0.441
40315W        W11931  29.731  44.024   4.224
40316W        W11932  19.466  21.971   3.242
40317W        W11933  22.967  38.185   3.141
40318W        W11934   7.774  18.033  11.253
40319W        W11935   0.214   1.892   1.904
40320W        W11936  37.466  17.103   1.704
40321W        W11937  20.774  15.866   1.177
40322W        W11938  30.420  37.062   4.641
40323W        W11939  21.257  12.652   1.297
40324W        W11940  14.305  30.691   3.724
40325W        W11941  44.869   8.348   1.423
40326W        W11942  15.880  16.091   3.436
40327W        W11943  35.151  16.044  12.938
40328W        W11944   6.375  21.473   4.278
40329W        W11945  36.158  33.253   4.612
40330W        W11946  12.641   5.067  10.684
40331W        W11947  39.036  38.041   1.324
40332W        W11948  25.194  37.885  13.735
40333W        W11949  27.759  18.318  14.824
40334W        W11950  31.970  33.364   2.233
40335W        W11951  36.937   4.997  13.061
40336W        W11952  38.247  41.403   4.513
40337W        W11953  18.081  26.495   0.086
40338W        W11954   2.859  25.698  10.647
40339W        W11955  10.900  38.532  11.011
40340W        W11956  26.695   9.195  11.201
40341W        W11957  42.754  20.122   1.552
40342W        W11958  20.621  35.694  12.543
40343W        W11959   8.776  22.898  14.968
40344W        W11960  12.905  26.529  14.722
40345W        W11961   9.438  38.369   4.704
40346W        W11962  14.507   2.826  14.341
40347W        W11963  31.525   3.222  11.727
40348W        W11964  41.979  10.187   2.265
40349W        W11965  42.436  35.564   1.637
40350W        W11966  14.057  33.393   1.014
40351W        W11967  25.161  15.754   3.775
40352W        W11968  39.631   6.364   3.355
40353W        W11969  44.545  40.242  13.889
40354W        W11970  39.514   7.972   0.313
40355W        W11971  23.205  12.291   2.675
40356W        W11972   2.697  16.300  12.007
40357W        W11973  44.481  38.745   5.496
40358W        W11974  17.065  43.010  14.040
40359W        W11975  35.482  39.219   3.156
40360W        W11976   6.953   1.082   1.116
40361W        W11977  10.037  17.786  14.415
40362W        W11978   4.866  20.353   0.758
40363W        W11979  38.400   8.121  12.883
40364W        W11980  15.879   3.761   2.168
40365W        W11981   8.296  39.266  14.902
40366W        W11982   1.648  34.047   4.089
40367W        W11983  42.976   4.809   0.264
40368W        W11984  39.403  12.762  14.348
40369W        W11985  42.225  30.261  13.790
40370W        W11986   6.690  41.781  11.403
40371W        W11987  27.088  17.043  11.055
40372W        W11988   0.921  31.508   2.174
40373W        W11989  29.822   6.892  10.931
40374W        W11990  26.476  26.474   4.546
40375W        W11991  14.133  35.289   0.854
40376W        W11992  33.912  44.957  12.662
40377W        W11993  42.202  41.769   0.653
40378W        W11994   7.197  39.278   1.844
40379W        W11995  13.282  43.007  13.807
40380W        W11996   4.029  22.467  10.258
40381W        W11997   3.682  25.686   1.637
40382W        W11998  26.906  27.258   2.692
40383W        W11999  10.777  26.610   3.297
40384W        W12000  15.795  28.954  11.274
40385W        W12001  36.369   3.819   1.985
40386W        W12002  41.793   3.372   2.670
40387W        W12003  16.606  26.515   2.743
40388W        W12004  16.755   2.483  12.621
40389W        W12005  20.761  13.877  10.899
40390W        W12006  17.426  19.091  11.562
40391W        W12007  23.972  39.593   1.211
40392W        W12008  33.127   3.681   4.108
40393W        W12009  17.263   0.767   3.761
40394W        W12010  35.939  33.818  13.392
40395W        W12011   6.990  29.988  12.454
40396W        W12012  17.034   9.320   3.775
40397W        W12013  20.088   4.051   3.168
40398W        W12014  18.320  28.707  12.437
40399W        W12015  34.319  38.406   2.205
40400W        W12016  21.750  30.853   2.206
40401W        W12017  30.412  19.120   2.402
40402W        W12018  30.236  15.059   1.725
40403W        W12019   1.893  19.593   0.698
40404W        W12020  34.102  24.944   0.249
40405W        W12021  18.254  13.591  11.243
40406W        W12022  15.659   0.006   3.513
40407W        W12023  28.384  42.361  13.788
40408W        W12024  11.250  39.262  13.430
40409W        W12025  28.576  35.608   2.790
40410W        W12026  15.042  17.329  12.925
40411W        W12027  30.696  12.222  12.956
40412W        W12028  26.115  32.083   2.344
40413W        W12029  30.214   8.776   3.818
40414W        W12030   7.503   7.879  13.294
40415W        W12031  38.933  25.535   2.063
40416W        W12032   5.628  21.598  12.409
40417W        W12033  32.902  44.755  10.261
40418W        W12034  27.877   7.702   4.372
40419W        W12035  38.056  13.162  10.564
40420W        W12036  24.240  23.596   4.360
40421W        W12037  10.666  33.611   3.850
40422W        W12038  14.918   6.465  11.486
40423W        W12039   0.846  34.393   0.339
40424W        W12040  18.577  38.864   1.212
40425W        W12041  33.467  13.285   0.361
40426W        W12042  27.768  35.920  14.710
40427W        W12043   2.617  18.989   1.916
40428W        W12044  26.089  16.137  12.146
40429W        W12045  35.566  21.064  11.315
40430W        W12046  37.993  10.269   1.878
40431W        W12047  14.114   2.814   1.253
40432W        W12048  12.772  37.984   1.886
40433W        W12049  25.959  44.423  11.224
40434W        W12050  44.374  23.533   5.083
40435W        W12051  42.418  33.635   3.276
40436W        W12052  35.892  25.033   2.800
40437W        W12053  23.909  40.080   1.334
40438W        W12054  24.921  20.606  11.988
40439W        W12055  17.231  26.088   4.700
40440W        W12056  24.095  11.572  13.506
40441W        W12057  34.730  27.839   2.229
40442W        W12058  10.409  35.533   0.885
40443W        W12059  26.225   3.103  11.531
40444W        W12060  41.700  24.121  12.932
40445W        W12061  29.395  29.054  11.364
40446W        W12062  16.065   6.459   4.631
40447W        W12063   8.108  39.295  13.588
40448W        W12064  38.884  22.752  12.232
40449W        W12065  10.700  13.614   0.415
40450W        W12066  24.291  39.449   0.263
40451W        W12067  43.239   7.926  13.487
40452W        W12068  22.171  36.865  14.777
40453W        W12069   2.230   7.255   3.275
40454W        W12070  28.027  38.981   4.084
40455W        W12071  17.619   1.308   0.244
40456W        W12072  29.456  37.311   0.010
40457W        W12073  14.021   6.622   4.180
40458W        W12074  42.331  15.544   2.390
40459W        W12075   8.914  33.726  13.970
40460W        W12076  10.241  30.646   3.646
40461W        W12077  14.587  24.668  11.662
40462W        W12078  29.263  39.080  14.545
40463W        W12079  30.363  44.696  12.115
40464W        W12080  40.385   7.969   3.080
40465W        W12081  14.807  38.339   3.902
40466W        W12082  39.800  32.792  12.734
40467W        W12083   5.931   9.171   4.134
40468W        W12084  37.028   4.082   1.442
40469W        W12085   4.686  10.742  11.602
40470W        W12086  10.279  32.714   0.795
40471W        W12087  44.439   9.848  13.348
40472W        W12088  23.181  23.131   3.119
40473W        W12089  35.600  19.042  10.681
40474W        W12090  29.133  41.193  13.091
40475W        W12091   6.715  27.429   0.379
40476W        W12092   9.142   0.260   4.419
40477W        W12093  32.394  33.491  12.680
40478W        W12094   0.004   3.616   3.648
40479W        W12095  12.649   8.267  12.205
40480W        W12096  43.729  38.041   4.493
40481W        W12097  38.431  31.021   4.380
40482W        W12098  21.125  40.820   1.501
40483W        W12099  10.078   5.982  14.321
40484W        W12100  30.457  12.799  11.471
40485W        W12101  31.480  19.667  13.954
40486W        W12102  26.764  29.952   4.596
40487W        W12103  22.201  26.687   3.608
40488W        W12104  26.965  16.591  14.968
40489W        W12105   6.121  32.438   0.205
40490W        W12106  31.715  39.352   2.750
40491W        W12107  34.132  24.427   0.319
40492W        W12108   3.682  10.987   1.381
40493W        W12109  37.336   8.254  12.011
40494W        W12110  28.242  20.365   3.602
40495W        W12111   9.336  37.753   3.123
40496W        W12112  26.160   1.333  14.319
40497W        W12113  28.915  17.356  10.544
40498W        W12114   2.230  36.599  13.545
40499W        W12115   6.176  10.612  14.246
40500W        W12116  30.979  20.699  12.070
40501W        W12117   7.411  26.116  11.581
40502W        W12118   2.655   0.697  12.478
40503W        W12119  19.763  24.639  10.482
40504W        W12120  15.326  42.670  12.538
40505W        W12121  13.338  17.110  14.176
40506W        W12122   0.056  28.568   4.209
40507W        W12123  38.054  22.664   2.341
40508W        W12124  27.665   2.792   2.422
40509W        W12125  20.772  25.495  10.939
40510W        W12126  17.037  36.297   3.303
40511W        W12127  41.731  28.193   0.932
40512W        W12128   3.240  25.189   3.677
40513W        W12129  14.320  18.965   2.735
40514W        W12130  15.095   6.191   3.209
40515W        W12131  41.442  36.420  12.990
40516W        W12132  41.185   5.261   3.136
40517W        W12133  13.160  13.488   3.115
40518W        W12134  19.675  14.844   3.159
40519W        W12135  13.349  30.402  10.707
40520W        W12136  12.380  36.003   0.549
40521W        W12137   0.942   2.657  11.868
40522W        W12138  31.085  37.853  10.948
40523W        W12139   7.938  35.776   3.619
40524W        W12140   5.773   0.415   3.770
40525W        W12141   5.750  29.347   0.693
40526W        W12142  36.572  16.936   4.303
40527W        W12143  38.948  10.106   1.287
40528W        W12144  26.030   3.334  10.608
40529W        W12145  25.835  13.906  12.928
40530W        W12146   7.847   2.814  12.008
40531W        W12147  23.619   6.566  13.480
40532W        W12148  34.850  22.501   0.810
40533W        W12149  40.240  12.963   5.601
40534W        W12150  16.218  11.270   1.899
40535W        W12151   2.512  25.569   9.789
40536W        W12152   5.882  22.108   4.518
40537W        W12153  20.929  11.285  11.563
40538W        W12154  26.302  35.754   3.849
40539W        W12155   7.221  18.381  11.871
40540W        W12156  21.453   8.665   1.758
40541W        W12157  44.937   2.704   2.897
40542W        W12158  15.176  36.716   0.792
40543W        W12159  12.869   4.443  13.960
40544W        W12160  43.795  44.322  14.062
40545W        W12161   3.894  16.591  11.466
40546W        W12162  11.895  24.566  14.986
40547W        W12163  21.116   3.196   0.744
40548W        W12164  30.733  24.772  11.230
40549W        W12165  34.857   9.736  14.407
40550W        W12166  32.461  40.553  11.530
40551W        W12167   4.852  38.464  10.660
40552W        W12168  12.687  28.991  14.223
40553W        W12169  38.535  13.347  14.465
40554W        W12170  42.214   7.655  11.745
40555W        W12171  32.788  16.217   2.635
40556W        W12172   0.237  44.953  12.040
40557W        W12173  12.825   2.198  12.919
40558W        W12174  11.722   4.247   0.937
40559W        W12175  42.771  31.125  12.135
40560W        W12176  43.890  35.434   9.919
40561W        W12177  36.824  23.220  11.287
40562W        W12178  37.437  20.127   0.480
40563W        W12179  36.067   9.106   3.140
40564W        W12180  10.317  17.966  12.124
40565W        W12181  14.158   4.658   5.031
40566W        W12182   0.465   3.360   2.778
40567W        W12183  30.552  37.609   3.159
40568W        W12184   4.666  12.993   3.323
40569W        W12185  10.452  32.782  12.322
40570W        W12186  33.976  34.018  10.390
40571W        W12187   7.194  11.866  12.911
40572W        W12188  26.507   3.267   1.351
40573W        W12189  44.972   4.083  11.586
40574W        W12190  34.456  18.758   0.499
40575W        W12191   6.355  28.599  14.460
40576W        W12192   9.817   5.486  14.415
40577W        W12193  16.242  19.278   2.830
40578W        W12194   1.664   6.279   2.801
40579W        W12195  27.398  33.889   4.064
40580W        W12196  29.500  34.964  12.933
40581W        W12197   9.031  11.734  14.068
40582W        W12198   3.040  41.561  14.667
40583W        W12199   0.272  34.924   0.520
40584W        W12200  42.446   3.211   4.063
40585W        W12201   7.844  33.201   1.349
40586W        W12202  42.376  38.034  11.106
40587W        W12203  13.666  14.901   3.575
40588W        W12204  38.843  25.706   4.945
40589W        W12205  33.956  41.681   0.952
40590W        W12206  26.583  32.703  13.600
40591W        W12207  24.628   4.115   2.211
40592W        W12208  15.532  11.391  12.791
40593W        W12209   1.744  11.606   3.581
40594W        W12210  12.678  11.668   0.730
40595W        W12211  19.886  39.390   2.888
40596W        W12212  13.980  33.480   3.290
40597W        W12213  33.031  24.918   0.985
40598W        W12214   6.190   4.649   3.953
40599W        W12215  40.654   6.030   4.099
40600W        W12216  23.804   6.276  10.687
40601W        W12217  27.551  33.492   2.200
40602W        W12218  40.535  10.765   1.771
40603W        W12219  41.816  18.479  12.618
40604W        W12220  30.260  30.225   1.691
40605W        W12221  31.008  38.077   3.919
40606W        W12222  28.399  39.857  14.888
40607W        W12223  19.346  39.842  13.021
40608W        W12224  37.418  19.584   1.194
40609W        W12225  44.838  13.867   4.460
40610W        W12226  31.906  35.128  12.427
40611W        W12227   5.282   0.637   4.606
40612W        W12228  11.827  44.651  11.945
40613W        W12229  38.912  14.665  11.133
40614W        W12230   5.862  33.950   2.865
40615W        W12231   2.905  32.442  12.685
40616W        W12232  17.735  35.147   0.830
40617W        W12233   0.451  17.662   3.674
40618W        W12234  41.412  11.523  10.648
40619W        W12235  21.639  22.447  11.071
40620W        W12236  29.541  31.094  11.931
40621W        W12237  27.199   3.926   2.995
40622W        W12238  21.184  10.893  12.546
40623W        W12239  43.962  18.232  13.968
40624W        W12240   1.005  44.461  12.052
40625W        W12241  36.414  36.298   0.347
40626W        W12242  12.229   5.951  11.163
40627W        W12243  42.807  37.339  13.954
40628W        W12244  10.522  38.506   0.318
40629W        W12245   2.427  16.314   4.044
40630W        W12246  30.483  11.343   4.045
40631W        W12247  17.471   5.221   1.942
40632W        W12248  42.379  25.619   0.512
40633W        W12249  31.007  13.579   3.855
40634W        W12250   4.472  14.812  12.583
40635W        W12251   8.354  21.520  13.075
40636W        W12252  12.777  14.038   3.855
40637W        W12253   7.173  25.958   1.649
40638W        W12254   8.898   1.727   2.854
40639W        W12255  37.898  24.323  13.594
40640W        W12256  24.180  31.619   4.097
40641W        W12257  27.323   8.973  14.421
40642W        W12258  34.330  36.772  11.450
40643W        W12259   6.389  34.447   4.589
40644W        W12260   9.659  44.970   3.703
40645W        W12261  40.576  33.136  11.437
40646W        W12262  35.404   2.901  12.399
40647W        W12263   4.864  22.725  14.092
40648W        W12264  12.396  40.815   3.363
40649W        W12265  21.055  41.979  11.096
40650W        W12266  40.393  27.366  14.853
40651W        W12267  14.152  21.610  13.826
40652W        W12268   1.997  32.479   4.291
40653W        W12269  25.592  23.492  12.878
40654W        W12270   7.915  15.056  13.577
40655W        W12271  42.546  17.118  10.729
40656W        W12272  18.045  14.551   3.729
40657W        W12273   1.890  37.541   1.266
40658W        W12274   7.949   3.873  13.911
40659W        W12275  34.610  27.655  14.022
40660W        W12276  38.617  42.411   4.893
40661W        W12277  36.760   5.757   2.836
40662W        W12278   3.965  39.274  13.540
40663W        W12279  40.200  12.628  14.231
40664W        W12280  34.322   2.770  12.596
40665W        W12281  29.830  22.641  13.030
40666W        W12282  34.083  23.687  12.048
40667W        W12283  24.882  10.261  12.441
40668W        W12284  17.620  12.514  12.647
40669W        W12285  27.497  29.385   4.604
40670W        W12286  42.922   3.250   2.301
40671W        W12287  23.531  42.461   3.451
40672W        W12288   2.890  15.245  11.968
40673W        W12289  23.221  19.029  11.418
40674W        W12290  38.555  18.066  13.458
40675W        W12291  20.550  37.978  14.386
40676W        W12292  40.415  19.637  14.628
40677W        W12293  16.810  10.262  11.158
40678W        W12294  29.557  31.995   3.180
40679W        W12295  20.524  39.287  13.339
40680W        W12296  22.978  22.653   1.912
40681W        W12297  27.507   5.155  14.411
40682W        W12298   3.477  43.380  10.283
40683W        W12299   8.167  22.077  10.573
40684W        W12300  34.472  27.594  11.490
40685W        W12301  24.634  21.645  10.656
40686W        W12302  31.116   3.747   3.938
40687W        W12303  17.858  27.243   0.389
40688W        W12304   3.732   4.792   4.434
40689W        W12305   2.244  33.946   2.774
40690W        W12306  11.203  34.793   2.384
40691W        W12307  21.273  44.320   4.384
40692W        W12308  21.138  40.808  10.608
40693W        W12309  23.290  37.989   2.721
40694W        W12310  43.445  22.496  10.336
40695W        W12311  39.099  37.851  12.050
40696W        W12312  24.375  40.188   4.215
40697W        W12313  19.128   5.338  14.535
40698W        W12314  39.580  24.104   1.869
40699W        W12315  43.412  39.485   5.029
40700W        W12316  43.862  12.324  11.546
40701W        W12317  19.625  21.052  13.345
40702W        W12318  24.484  36.389   0.242
40703W        W12319   2.418  10.842   1.763
40704W        W12320  44.834  42.913  12.665
40705W        W12321  33.508  40.590  12.018
40706W        W12322   2.030  29.396   2.833
40707W        W12323  39.363  14.249  10.778
40708W        W12324  44.710  28.494   3.256
40709W        W12325   6.140  42.545  13.345
40710W        W12326   7.189  14.947  11.661
40711W        W12327  30.635   0.998  13.511
40712W        W12328  15.874   8.598   5.065
40713W        W12329  25.178   6.141   1.294
40714W        W12330   0.793  23.766  11.001
40715W        W12331  20.709  16.353   2.410
40716W        W12332  34.163  11.798  14.554
40717W        W12333  28.540  26.719   0.303
40718W        W12334  14.770  18.959   5.040
40719W        W12335   8.671  14.782  11.599
40720W        W12336  43.244   9.779   1.953
40721W        W12337   9.354   8.249   0.504
40722W        W12338  16.443  20.618   4.617
40723W        W12339  23.502  15.950   0.878
40724W        W12340   1.000  11.181  11.227
40725W        W12341   9.668  40.053  14.820
40726W        W12342  41.554  33.263   0.309
40727W        W12343  43.422  14.320  10.257
40728W        W12344  26.474  37.670  13.481
40729W        W12345   4.277  20.192  14.554
40730W        W12346  32.895  27.418   2.860
40731W        W12347   2.601  25.844   4.982
40732W        W12348   7.372   7.600   4.609
40733W        W12349  33.075  27.660  13.148
40734W        W12350  41.778  23.088   0.918
40735W        W12351   5.366  42.770  14.940
40736W        W12352  36.891  23.010  14.424
40737W        W12353   9.284  41.153  11.733
40738W        W12354  13.118   8.722   0.712
40739W        W12355  42.410  22.401   4.128
40740W        W12356   2.249  40.960  13.613
40741W        W12357  22.730  24.953  11.150
40742W        W12358  13.432   5.794   5.062
40743W        W12359   1.518  31.770   2.089
40744W        W12360  41.000  15.193  14.703
40745W        W12361  19.755  29.093  14.498
40746W        W12362  14.736  11.684   1.933
40747W        W12363  25.643  25.050   1.272
40748W        W12364  40.937  43.214  14.246
40749W        W12365  38.609  12.925  10.217
40750W        W12366   6.197   6.506   3.282
40751W        W12367  28.667  32.075  13.368
40752W        W12368  23.184  16.130  11.559
40753W        W12369  41.526  10.784   4.383
40754W        W12370  13.882  43.426  12.986
40755W        W12371  12.381   7.407   0.798
40756W        W12372  16.454   9.140   3.407
40757W        W12373  23.207   8.202  12.035
40758W        W12374  16.559  43.600   5.130
40759W        W12375  27.664   3.226  10.665
40760W        W12376  29.655  42.839  14.225
40761W        W12377  35.654  17.139  13.376
40762W        W12378  12.361  18.158   4.107
40763W        W12379   8.246  30.089   0.253
40764W        W12380  41.133  22.769   3.247
40765W        W12381   6.419   0.907  13.926
40766W        W12382   4.735  18.075  13.900
40767W        W12383  36.403  15.617  10.188
40768W        W12384  14.116   9.293  12.807
40769W        W12385  38.114   1.545   4.173
40770W        W12386  39.160  32.839  11.252
40771W        W12387   7.464  41.576  13.342
40772W        W12388  30.078  30.473  13.812
40773W        W12389  16.554   9.740  10.853
40774W        W12390   8.276  20.868  12.390
40775W        W12391   4.653  43.283   2.382
40776W        W12392  19.718  12.257  14.484
40777W        W12393  16.040  12.430  12.372
40778W        W12394   9.167   0.827   0.743
40779W        W12395  35.560   3.869  14.974
40780W        W12396  10.416  44.366   4.745
40781W        W12397  41.803   7.360   2.758
40782W        W12398  35.279  40.235   3.148
40783W        W12399  35.162   3.214  10.238
40784W        W12400  36.397  22.063   2.116
40785W        W12401  29.687  33.578   2.318
40786W        W12402  24.181  25.523  12.405
40787W        W12403  23.234   5.347  14.805
40788W        W12404  15.244  21.141  10.968
40789W        W12405  36.522  18.578   0.773
40790W        W12406   2.489  36.412  12.584
40791W        W12407  38.835  43.907  11.125
40792W        W12408  29.923  40.406  11.305
40793W        W12409  43.692   8.217  13.363
40794W        W12410  22.817   0.541   0.945
40795W        W12411  37.315   2.485  14.461
40796W        W12412  44.242  32.301   1.909
40797W        W12413  18.224  28.571   4.495
40798W        W12414  12.140  17.671  14.424
40799W        W12415  33.048   8.750   0.952
40800W        W12416  21.465  34.773   2.574
40801W        W12417  24.270   1.752   1.590
40802W        W12418   5.761  36.896   0.335
40803W        W12419  13.784   0.718   3.253
40804W        W12420  30.473  22.359   0.962
40805W        W12421  42.609  24.811  11.126
40806W        W12422  43.501  22.837   1.316
40807W        W12423  33.072  17.031   4.782
40808W        W12424  16.209   6.451  10.476
40809W        W12425   3.270  21.965   2.427
40810W        W12426  37.762  22.800  10.105
40811W        W12427  22.902  31.402   4.732
40812W        W12428  11.104  10.091   3.676
40813W        W12429   7.439   9.789   0.371
40814W        W12430  21.515   0.109  14.035
40815W        W12431  12.808  12.507  13.514
40816W        W12432   0.006  41.736  11.500
40817W        W12433  18.679  29.694   0.847
40818W        W12434  10.090   6.789   2.397
40819W        W12435  20.136  33.261   5.065
40820W        W12436  13.843  44.225   2.366
40821W        W12437  17.567  31.604  13.936
40822W        W12438  23.680  32.404  14.505
40823W        W12439   3.030  38.062  12.515
40824W        W12440  35.369  25.053   1.127
40825W        W12441   8.939   4.306  11.556
40826W        W12442  18.285  19.540   3.540
40827W        W12443  32.016   9.413   4.242
40828W        W12444  28.180   3.847   2.885
40829W        W12445   3.633  28.155  14.115
40830W        W12446  31.445  10.240  10.707
40831W        W12447  24.565  31.899  13.149
40832W        W12448  11.903  10.778  13.890
40833W        W12449   7.328  20.699   2.135
40834W        W12450  23.828  16.801   4.915
40835W        W12451  26.589   1.800  10.749
40836W        W12452  41.902  43.473   0.991
40837W        W12453   4.387  31.299  14.603
40838W        W12454   3.879  43.528  12.556
40839W        W12455   6.132   0.069   4.659
40840W        W12456  36.425   5.880  11.186
40841W        W12457  12.630  16.248  11.926
40842W        W12458  32.410  14.128  13.383
40843W        W12459  36.746  25.465  13.822
40844W        W12460  26.143  44.984   0.491
40845W        W12461  16.627   7.558   4.087
40846W        W12462  33.308  24.243   1.973
40847W        W12463   4.511   6.236  12.414
40848W        W12464   0.561  19.521   3.303
40849W        W12465  13.346  20.422   2.366
40850W        W12466  34.932  12.634   2.132
40851W        W12467  15.814  43.352  14.731
40852W        W12468  15.130  12.437   1.840
40853W        W12469  38.235  37.955   1.811
40854W        W12470  32.649  37.872   0.964
40855W        W12471  21.807  21.122   2.782
40856W        W12472  38.920  15.206  14.007
40857W        W12473  12.062  15.496  12.989
40858W        W12474  24.195  41.055  14.740
40859W        W12475  41.623  22.189  10.385
40860W        W12476   3.245  24.010  11.865
40861W        W12477  43.721  21.747  14.622
40862W        W12478  39.523   6.716  11.830
40863W        W12479   0.617   0.998   1.791
40864W        W12480  17.514  32.613  13.052
40865W        W12481   4.006  37.286   4.193
40866W        W12482  21.123  11.144  14.010
40867W        W12483   3.460  28.714   4.317
40868W        W12484  44.029  42.840  14.985
40869W        W12485   9.156  44.197   1.315
40870W        W12486  23.658  12.273  10.973
40871W        W12487  40.789  13.353   0.029
40872W        W12488  41.129   8.330   0.887
40873W        W12489  39.297  16.354  14.828
40874W        W12490  22.952  13.241  14.506
40875W        W12491  18.138  13.902  11.647
40876W        W12492  26.177  37.910  14.050
40877W        W12493   6.797  30.883  13.514
40878W        W12494  16.204  44.835   1.903
40879W        W12495  37.352  42.464  14.992
40880W        W12496  15.009   2.386   3.798
40881W        W12497  34.789   5.642  13.870
40882W        W12498   5.876  38.351  14.398
40883W        W12499  25.815  18.616  13.844
40884W        W12500  17.934  36.926   4.701
40885W        W12501   9.954  31.634   2.190
40886W        W12502  18.370  39.488   2.799
40887W        W12503  29.733  41.737  12.333
40888W        W12504  30.193   6.372  14.826
40889W        W12505  13.864  21.278  14.924
40890W        W12506  16.122  18.262   0.025
40891W        W12507  40.803  12.322  14.087
40892W        W12508  13.748   3.376  14.042
40893W        W12509  34.302  42.002   3.162
40894W        W12510  34.124  39.724   2.703
40895W        W12511   9.799  31.139   4.657
40896W        W12512  29.208  28.032  11.123
40897W        W12513  32.972  32.643  12.876
40898W        W12514  39.748  25.294   2.429
40899W        W12515  15.746  20.825  12.588
40900W        W12516   4.407  27.424  13.133
40901W        W12517   3.517  22.224  13.909
40902W        W12518  35.460   7.391   0.731
40903W        W12519  21.731  17.352   4.361
40904W        W12520  32.300   7.194  12.481
40905W        W12521  25.891  37.880  10.969
40906W        W12522   0.883  12.027  11.513
40907W        W12523  37.770  44.869   1.766
40908W        W12524  27.120  39.551   4.085
40909W        W12525  27.780  13.709   4.557
40910W        W12526  18.629  31.650  12.984
40911W        W12527   3.291  12.668   0.815
40912W        W12528  13.327   1.446   3.662
40913W        W12529  23.183  23.505   3.593
40914W        W12530  14.526   4.142  11.881
40915W        W12531   1.761  32.485   3.783
40916W        W12532   5.093   3.005   0.451
40917W        W12533  25.128  37.395  13.368
40918W        W12534  24.647  12.396  13.246
40919W        W12535  10.784  13.326  13.425
40920W        W12536  29.623  42.841  12.088
40921W        W12537  41.292  13.893   3.776
40922W        W12538   6.813  15.103  14.469
40923W        W12539   7.422   8.246   2.752
40924W        W12540  38.611  35.780   4.797
40925W        W12541   2.122  14.251   1.632
40926W        W12542  12.139  24.517   2.287
40927W        W12543   2.010  34.976  10.991
40928W        W12544  16.356  18.088  10.526
40929W        W12545  30.496   6.004   2.916
40930W        W12546   9.748  19.227  12.564
40931W        W12547  30.375  21.311   3.733
40932W        W12548  21.380  17.643  13.304
40933W        W12549  43.367  13.187  11.574
40934W        W12550  14.365  10.071  11.220
40935W        W12551  10.182  38.377   1.668
40936W        W12552  24.007  15.734  11.166
40937W        W12553   4.042  39.850   1.348
40938W        W12554  28.862   9.951   4.338
40939W        W12555  29.063  10.273  13.863
40940W        W12556  41.856  22.623   1.432
40941W        W12557  40.959   2.690   0.245
40942W        W12558   0.376  41.816   0.177
40943W        W12559  24.710  28.056   0.817
40944W        W12560   5.843  27.593   2.277
40945W        W12561  31.670   0.196   3.298
40946W        W12562  21.506  19.614  11.569
40947W        W12563  20.133   6.221  13.884
40948W        W12564  31.642  40.169   2.281
40949W        W12565  21.739  30.380  13.443
40950W        W12566  32.095   7.729   5.020
40951W        W12567  16.264  25.333   5.163
40952W        W12568   8.696  41.509  13.853
40953W        W12569  13.690   9.236  13.064
40954W        W12570  13.620  22.613  11.703
40955W        W12571   7.509  24.870   1.740
40956W        W12572  18.220  29.903  14.612
40957W        W12573  44.777  32.819  11.332
40958W        W12574   3.861  44.549   4.480
40959W        W12575  31.002   1.230  12.000
40960W        W12576  32.392  37.769  13.015
40961W        W12577   1.537  39.993  10.485
40962W        W12578  38.961  19.569   2.368
40963W        W12579  10.873  36.732  13.463
40964W        W12580  20.173  18.613   4.489
40965W        W12581  16.514  43.060  13.991
40966W        W12582   3.537  33.272  14.783
40967W        W12583  41.840   6.901   4.313
40968W        W12584   4.142  19.258   1.602
40969W        W12585  26.113  28.934   1.405
40970W        W12586   8.845  18.283   2.812
40971W        W12587  20.518   2.675  13.885
40972W        W12588  19.960  12.168  12.968
40973W        W12589   4.210  24.352  10.066
40974W        W12590   5.488  22.973  14.036
40975W        W12591  38.985  39.635  14.732
40976W        W12592  44.818  15.911  13.381
40977W        W12593  33.402  24.506   0.948
40978W        W12594  17.554  12.584   4.689
40979W        W12595  35.766   5.276   0.842
40980W        W12596  18.068  27.426  12.081
40981W        W12597  23.903   1.818   0.512
40982W        W12598  13.914   4.937   3.683
40983W        W12599  39.411  21.123   1.669
40984W        W12600   8.443  42.196  11.647
40985W        W12601  20.792  10.828  12.991
40986W        W12602   2.996   0.430  14.100
40987W        W12603   9.162  22.580  14.919
40988W        W12604  29.925  33.399   1.115
40989W        W12605  31.534  38.461  10.459
40990W        W12606  34.432  39.354   1.257
40991W        W12607  38.052   8.219  14.030
40992W        W12608  22.743  44.529  12.502
40993W        W12609  39.156  35.534   5.113
40994W        W12610  19.549  22.416   5.153
40995W        W12611   8.728  27.481  14.384
40996W        W12612  35.544  13.713   0.386
40997W        W12613  20.175  44.718  14.752
40998W        W12614  25.670  36.886   4.158
40999W        W12615  40.720   4.168  13.507
41000W        W12616  36.896  27.672  14.890
41001W        W12617  10.067  38.492   0.002
41002W        W12618  40.645  21.208  11.467
41003W        W12619  15.287  43.022  12.145
41004W        W12620  34.566  15.657   2.236
41005W        W12621  43.425  22.673   0.010
41006W        W12622  31.215  17.006   0.468
41007W        W12623  35.052  18.304   4.561
41008W        W12624  25.012  24.971  10.627
41009W        W12625  23.170  38.045   4.111
41010W        W12626   2.432   1.931  14.995
41011W        W12627  40.496  19.753   1.969
41012W        W12628   1.499  44.334  12.039
41013W        W12629   9.063  17.568  14.269
41014W        W12630  14.048  31.007  10.673
41015W        W12631  28.242   7.808   4.025
41016W        W12632   0.790  24.004   4.461
41017W        W12633   6.879  42.766   3.331
41018W        W12634  27.718  19.442   1.259
41019W        W12635  14.922  20.782  12.045
41020W        W12636  36.683   6.961   0.316
41021W        W12637  20.843  30.404   2.400
41022W        W12638  44.924  13.252   4.140
41023W        W12639  39.502   5.192  13.253
41024W        W12640  17.243  41.783  13.014
41025W        W12641   8.697  31.560   3.974
41026W        W12642  26.434   6.125   0.220
41027W        W12643  21.213   3.922   4.934
41028W        W12644  12.206  40.001  13.056
41029W        W12645  27.625   2.257   0.342
41030W        W12646  33.463  29.444   3.241
41031W        W12647  43.790   6.165  14.503
41032W        W12648   8.134   1.957   4.718
41033W        W12649  35.739   8.345  13.587
41034W        W12650  26.349   3.748   1.427
41035W        W12651  15.241   9.817   4.034
41036W        W12652  40.036  31.229  13.813
41037W        W12653  38.452   6.788   3.053
41038W        W12654  39.261  20.088   1.861
41039W        W12655  27.917  43.406  14.492
41040W        W12656  26.322  15.671   2.280
41041W        W12657   7.934  15.596  12.074
41042W        W12658  32.824  17.009   1.515
41043W        W12659  43.904  14.287   3.445
41044W        W12660  27.707  23.927   2.376
41045W        W12661  32.694  27.929   3.670
41046W        W12662  18.372  31.153  13.005
41047W        W12663   7.604  37.177  12.873
41048W        W12664  43.829   3.600  13.486
41049W        W12665  20.378  19.680  11.056
41050W        W12666  35.795  38.443   3.817
41051W        W12667  30.679   0.774   2.291
41052W        W12668  25.261   7.649  13.342
41053W        W12669   4.210  11.282   2.842
41054W        W12670  44.939  43.792   1.235
41055W        W12671  28.053  33.920   2.892
41056W        W12672  25.153   1.935   4.363
41057W        W12673  28.474  17.906  12.934
41058W        W12674  37.347  14.866   4.554
41059W        W12675   4.836  11.856  10.675
41060W        W12676  42.934  35.085   3.243
41061W        W12677  38.271   2.212  14.137
41062W        W12678  34.778  17.423  14.505
41063W        W12679  16.823  28.103   0.556
41064W        W12680   7.213   3.187   1.914
41065W        W12681  21.177  18.745  14.430
41066W        W12682   8.024   8.381  11.286
41067W        W12683  20.735  38.477   4.156
41068W        W12684  36.927  14.098  13.935
41069W        W12685   2.846  37.998  11.180
41070W        W12686   7.443   6.767   2.878
41071W        W12687  15.269   3.001  14.034
41072W        W12688  31.639  33.391   2.912
41073W        W12689  27.412  25.263  11.138
41074W        W12690  35.272   4.437   2.737
41075W        W12691  35.304  11.662   4.896
41076W        W12692  36.594  19.724  11.559
41077W        W12693   0.454  41.462  10.711
41078W        W12694  24.186   9.520   3.585
41079W        W12695  18.688  26.642   1.918
41080W        W12696   1.687  13.151   0.459
41081W        W12697  12.700  25.028  11.179
41082W        W12698  21.203  30.401  14.012
41083W        W12699  22.223  15.587   4.223
41084W        W12700  41.594  25.456  14.088
41085W        W12701  11.669  10.830  10.925
41086W        W12702  41.909  14.233   4.297
41087W        W12703  37.996   2.920   4.494
41088W        W12704  25.997  20.577  14.956
41089W        W12705   9.118  11.339   3.150
41090W        W12706  35.809   2.678  11.003
41091W        W12707  23.062  20.065  13.636
41092W        W12708  15.247  31.005   1.030
41093W        W12709  19.346   6.990  11.095
41094W        W12710  41.100  36.035   2.178
41095W        W12711  20.544  18.075   4.197
41096W        W12712  43.005  43.763  12.557
41097W        W12713   4.696   9.908  13.488
41098W        W12714  28.980  22.948   4.153
41099W        W12715   2.308  16.138   1.221
41100W        W12716   9.723  42.312   3.326
41101W        W12717  15.256  38.737   0.056
41102W        W12718  18.668  30.688  10.430
41103W        W12719  30.401  22.780  11.622
41104W        W12720  12.692  14.761   0.816
41105W        W12721  26.975   2.550   2.229
41106W        W12722   8.734  24.948   0.917
41107W        W12723  36.001  24.514   2.070
41108W        W12724   3.308  28.224  11.500
41109W        W12725  14.346  28.404  14.686
41110W        W12726  44.411  14.851   4.583
41111W        W12727  29.369  40.152   4.764
41112W        W12728  35.403  30.264  11.904
41113W        W12729  25.152   6.913   1.867
41114W        W12730  38.860  13.536   3.665
41115W        W12731  16.713  34.601   2.180
41116W        W12732  41.419  19.053  13.739
41117W        W12733  28.625  27.200  14.440
41118W        W12734  28.550   5.844   2.418
41119W        W12735  44.365   0.418   2.863
41120W        W12736  32.510   9.938  14.979
41121W        W12737  42.321  29.394   1.345
41122W        W12738   9.715  14.737  12.155
41123W        W12739  13.343  37.581   3.242
41124W        W12740   5.936  20.858  13.962
41125W        W12741  16.342   7.539   4.910
41126W        W12742  38.918  35.584  12.950
41127W        W12743  32.825  34.173  12.041
41128W        W12744  20.257  10.140   4.696
41129W        W12745  11.892   2.606   1.261
41130W        W12746   2.503   7.158   2.852
41131W        W12747  33.341  16.956  11.090
41132W        W12748  12.902  33.585   0.267
41133W        W12749   3.766   2.641   3.348
41134W        W12750  34.571  39.499  12.975
41135W        W12751   9.243   0.236   3.920
41136W        W12752  28.200  33.207  12.568
41137W        W12753  30.843   3.819  14.024
41138W        W12754  32.449  20.906   3.827
41139W        W12755  32.076   6.635  11.061
41140W        W12756  40.026  25.560  13.417
41141W        W12757  20.484  25.955  13.136
41142W        W12758   8.472  35.059  13.898
41143W        W12759  40.548  17.555   3.963
41144W        W12760  39.812   8.388  11.191
41145W        W12761  40.206  36.595   4.157
41146W        W12762  20.244  23.461   3.364
41147W        W12763  29.629  44.890   2.380
41148W        W12764  25.056  37.174   4.964
41149W        W12765  26.091  16.160   1.241
41150W        W12766  17.666  10.134   1.746
41151W        W12767  12.420  34.660  13.447
41152W        W12768  41.787  12.255   1.337
41153W        W12769  25.919  27.469   0.454
41154W        W12770  10.381  38.604  10.991
41155W        W12771  13.635  29.943  10.657
41156W        W12772  17.694   1.715  11.544
41157W        W12773  38.916  22.000  12.934
41158W        W12774  43.115  10.363  13.382
41159W        W12775  18.364  29.503  12.606
41160W        W12776  12.553   3.738  10.444
41161W        W12777  31.887  42.602  13.851
41162W        W12778   9.235  31.338  11.858
41163W        W12779  22.648   2.816   3.593
41164W        W12780  34.023  14.345  13.897
41165W        W12781  39.194  44.760  12.841
41166W        W12782   8.124   6.049   4.102
41167W        W12783  38.253  44.378   3.665
41168W        W12784   8.621  39.006   0.860
41169W        W12785  15.038  15.236   9.699
41170W        W12786  30.858  31.093   9.839
41171W        W12787  19.066   0.843  10.740
41172W        W12788  38.492  20.380   4.063
41173W        W12789  34.465   3.393  12.837
41174W        W12790  42.031  24.417   1.792
41175W        W12791  35.819  33.989  12.911
41176W        W12792  34.522  29.111   4.509
41177W        W12793   0.077  19.206   3.523
41178W        W12794  34.846  32.429  14.248
41179W        W12795  11.129  28.018   2.890
41180W        W12796   7.152   1.862   1.453
41181W        W12797   0.119   0.860   1.708
41182W        W12798   4.185   2.745  13.082
41183W        W12799  22.236  17.127   1.720
41184W        W12800   4.276  23.289  13.245
41185W        W12801  30.205   8.609  11.914
41186W        W12802   9.888   0.852  11.636
41187W        W12803  36.356  16.310   1.214
41188W        W12804  27.539  17.059  14.430
41189W        W12805  19.898  20.012  12.280
41190W        W12806   0.692   6.273  14.923
41191W        W12807  15.398  41.006  11.119
41192W        W12808  43.082  40.079   1.349
41193W        W12809  36.117  43.058  11.025
41194W        W12810  36.537  14.193   0.922
41195W        W12811  22.295   8.546  14.945
41196W        W12812  10.111  15.717   1.243
41197W        W12813  42.746  44.489   3.366
41198W        W12814  36.954  42.224  11.335
41199W        W12815   2.178  42.933   2.995
41200W        W12816  36.888  40.621   2.983
41201W        W12817  42.409  36.520  14.196
41202W        W12818  37.968  40.525   2.287
41203W        W12819  37.419  35.852  14.086
41204W        W12820  10.803   5.730   1.667
41205W        W12821  18.338  31.033  12.085
41206W        W12822  38.510  42.817   3.092
41207W        W12823  18.073  15.073   0.486
41208W        W12824  16.196  22.605   0.382
41209W        W12825   7.435  14.891   2.287
41210W        W12826  32.818  28.436  13.823
41211W        W12827   2.763  14.656   0.912
41212W        W12828  22.347  26.660  12.101
41213W        W12829   6.417  19.718   3.740
41214W        W12830  35.433  27.498  13.451
41215W        W12831  36.445  26.910  14.834
41216W        W12832  18.727  12.431  10.783
41217W        W12833  11.237  16.779   0.503
41218W        W12834  44.475   5.083   5.072
41219W        W12835  10.838  20.437   0.906
41220W        W12836   0.880   0.811  11.569
41221W        W12837  39.794  26.172   3.922
41222W        W12838  15.427  37.006   0.002
41223W        W12839  31.485  11.890   1.751
41224W        W12840  23.143  25.716   1.469
41225W        W12841   0.230  15.767   1.914
41226W        W12842  29.305  13.742   1.587
41227W        W12843  29.390   3.375  13.470
41228W        W12844  43.455  27.006  11.004
41229W        W12845   2.237  27.646   2.804
41230W        W12846  21.106   6.729  12.937
41231W        W12847  44.727  31.822   1.354
41232W        W12848  25.175  14.345  13.325
41233W        W12849  22.013  30.024   1.821
41234W        W12850  32.118   8.469   0.859
41235W        W12851  20.582  25.573   1.684
41236W        W12852  18.805  22.723   1.917
41237W        W12853  37.496  27.695  12.524
41238W        W12854  19.186  19.011   2.614
41239W        W12855  29.481  17.182   4.227
41240W        W12856  43.333  15.657  14.805
41241W        W12857   2.678  25.983   4.088
41242W        W12858   7.051   2.235  13.452
41243W        W12859  18.313  41.474   0.812
41244W        W12860  27.004  17.184   2.354
41245W        W12861  44.263   4.494  14.194
41246W        W12862  20.485  16.182  10.425
41247W        W12863  11.208   7.642  10.627
41248W        W12864  11.056  21.551   0.254
41249W        W12865  29.517  20.241  14.421
41250W        W12866  18.078  40.834   0.985
41251W        W12867  14.342  20.185  12.368
41252W        W12868  44.552   2.776  13.308
41253W        W12869   2.474  30.237   4.938
41254W        W12870  35.078  25.389   1.372
41255W        W12871  12.543  14.332   4.236
41256W        W12872  13.414   7.435  12.073
41257W        W12873  40.467   1.008  11.515
41258W        W12874  38.340   1.424  13.411
41259W        W12875  42.957  14.328   0.911
41260W        W12876   9.262  19.116  10.967
41261W        W12877  30.942  41.000  11.679
41262W        W12878  41.647   1.731   3.519
41263W        W12879  36.471  40.528  12.983
41264W        W12880  24.999  27.092   0.254
41265W        W12881   4.515  20.753  10.463
41266W        W12882   5.799  39.059   0.027
41267W        W12883  36.211  35.828  11.311
41268W        W12884   6.192  24.716  12.796
41269W        W12885  24.574  10.468  13.606
41270W        W12886  10.854  34.066   1.854
41271W        W12887  40.569  12.249   4.027
41272W        W12888   2.848  23.060  14.003
41273W        W12889  30.557  22.349   2.132
41274W        W12890  16.870   0.258  12.490
41275W        W12891  22.521  27.688  13.626
41276W        W12892  33.108  40.300  13.482
41277W        W12893  17.782  27.568  12.898
41278W        W12894  31.491  43.701   2.486
41279W        W12895  44.848  29.938   2.867
41280W        W12896  41.422  13.030   4.128
41281W        W12897  27.594  36.547   0.977
41282W        W12898  43.022  28.036  10.470
41283W        W12899   6.246   0.267   1.912
41284W        W12900  35.635   7.375  12.496
41285W        W12901   7.424  36.625   4.365
41286W        W12902   2.324  27.146   1.208
41287W        W12903  42.819  29.165  13.957
41288W        W12904  33.437  31.168  12.181
41289W        W12905  21.322   6.707  11.353
41290W        W12906  41.768  38.360  13.264
41291W        W12907  43.321  21.411   2.725
41292W        W12908  40.339  40.872   4.196
41293W        W12909  39.753  27.633  12.965
41294W        W12910  15.263   7.624  13.847
41295W        W12911  21.113  43.077  12.125
41296W        W12912  14.766  22.732  13.021
41297W        W12913   0.303  38.881   2.542
41298W        W12914  23.673  31.294   1.754
41299W        W12915  39.723  11.877   4.195
41300W        W12916  10.337  29.198   4.503
41301W        W12917  39.802  11.720   0.084
41302W        W12918  10.268  24.418   2.377
41303W        W12919  13.781  15.280  13.819
41304W        W12920  24.599  14.325   2.223
41305W        W12921  20.090  43.339  10.214
41306W        W12922  29.765  35.888  13.540
41307W        W12923  27.085  43.812  11.543
41308W        W12924   6.853  20.164   1.970
41309W        W12925  24.702   2.686   3.302
41310W        W12926   7.204  41.845   1.226
41311W        W12927  15.764  39.235   0.153
41312W        W12928  12.902   1.847   1.403
41313W        W12929  38.299   5.918   4.445
41314W        W12930   8.960   1.226   4.515
41315W        W12931  24.075  33.678  13.906
41316W        W12932  34.522  42.555   1.704
41317W        W12933  19.901  34.673   2.847
41318W        W12934  42.335  38.247  10.619
41319W        W12935  39.577   3.194   1.242
41320W        W12936  33.496  21.428  12.010
41321W        W12937  35.927   2.942   1.813
41322W        W12938   3.958  43.507   1.877
41323W        W12939   0.840   8.208   3.776
41324W        W12940  15.364  39.046   1.476
41325W        W12941  35.323  33.599  12.574
41326W        W12942  34.067  29.918   2.764
41327W        W12943  42.138   0.023  14.225
41328W        W12944  28.777   4.888   1.433
41329W        W12945  17.314   3.195  10.584
41330W        W12946  16.976  16.110   0.747
41331W        W12947  21.607  40.505  13.949
41332W        W12948  18.146  35.458  13.825
41333W        W12949  26.153  27.074   3.653
41334W        W12950  14.359   9.342  10.761
41335W        W12951  29.809  27.075   4.034
41336W        W12952  22.690  42.446   0.474
41337W        W12953  27.693  26.619   4.622
41338W        W12954  43.567  12.264   0.443
41339W        W12955   8.334  17.269   1.925
41340W        W12956  18.826   2.496  13.353
41341W        W12957  39.397  23.465  12.679
41342W        W12958  12.805  41.099  12.117
41343W        W12959  37.483  29.064  11.069
41344W        W12960  43.372  38.948   1.711
41345W        W12961   9.814  10.213   2.384
41346W        W12962   7.249   2.316  11.770
41347W        W12963  33.102   3.379  13.526
41348W        W12964  39.608  10.146  14.646
41349W        W12965   0.974  22.509   4.509
41350W        W12966  19.615  21.100  10.695
41351W        W12967  37.419  37.596   0.682
41352W        W12968  13.797  44.705   4.501
41353W        W12969  24.501  39.942   0.347
41354W        W12970   6.386  20.775   0.533
41355W        W12971   0.989   1.352   1.654
41356W        W12972  16.711  37.563  13.991
41357W        W12973  34.494  14.105  13.996
41358W        W12974   9.108  24.755  12.489
41359W        W12975  30.073  11.479  12.801
41360W        W12976  16.970  10.714   4.513
41361W        W12977  33.364  18.150  10.340
41362W        W12978  37.759  25.566  11.114
41363W        W12979  19.976  16.908   3.939
41364W        W12980  33.046  34.002  13.407
41365W        W12981  15.297  29.561   0.799
41366W        W12982  32.522   4.446   3.918
41367W        W12983   6.809   5.886  13.049
41368W        W12984  20.119  23.333  11.582
41369W        W12985  29.547   2.929   2.735
41370W        W12986  10.772  11.298   4.696
41371W        W12987   1.737   6.248  14.001
41372W        W12988   3.489  23.566   3.319
41373W        W12989   5.436  32.387  11.486
41374W        W12990   0.305  26.762   0.479
41375W        W12991  23.715  14.626  13.013
41376W        W12992  14.526  44.441  14.906
41377W        W12993  43.472  38.659   4.665
41378W        W12994  23.803  10.635   2.832
41379W        W12995  17.129   9.898   1.622
41380W        W12996  13.092  32.999   3.228
41381W        W12997  34.444  24.131  10.870
41382W        W12998  27.546  37.887   3.251
41383W        W12999   9.782  15.393   4.792
41384W        W13000  12.277  22.626  10.687
41385W        W13001  19.767   1.556   4.785
41386W        W13002  33.481  42.089   4.588
41387W        W13003  26.727  42.995   4.228
41388W        W13004  11.355  37.328   3.261
41389W        W13005  41.824   7.865  14.380
41390W        W13006   2.072  32.730  11.167
41391W        W13007  32.444  37.456  11.223
41392W        W13008   8.530  15.515  13.546
41393W        W13009  24.093   6.477   0.861
41394W        W13010  13.088  32.594  11.183
41395W        W13011  17.853  27.942  10.638
41396W        W13012  28.975  18.143  13.619
41397W        W13013   8.484  15.728   5.066
41398W        W13014   1.081   6.216   2.115
41399W        W13015  18.237  44.098   5.552
41400W        W13016  30.021  29.894   0.506
41401W        W13017  33.578  34.997  11.959
41402W        W13018  38.386  29.473  11.479
41403W        W13019  39.315  25.255   3.285
41404W        W13020  28.990  28.863  14.081
41405W        W13021   9.142  19.109  12.127
41406W        W13022  21.779  22.791   1.425
41407W        W13023  28.464  23.955   3.873
41408W        W13024  31.039  13.078   4.554
41409W        W13025  10.318   0.322  13.946
41410W        W13026  24.916  24.032   2.847
41411W        W13027  14.351   9.014   4.742
41412W        W13028  10.416  16.141   4.487
41413W        W13029  43.377  42.425   3.088
41414W        W13030  24.222   9.167  13.972
41415W        W13031  29.982  39.956  10.521
41416W        W13032   8.070  11.126   1.389
41417W        W13033   8.379  30.521   1.012
41418W        W13034  15.432  42.073   3.676
41419W        W13035   2.403  27.443   3.257
41420W        W13036  40.275  17.654  12.902
41421W        W13037   7.384   8.354  13.574
41422W        W13038  35.380  14.599  11.539
41423W        W13039  42.243   2.754  12.094
41424W        W13040  39.936  44.971  12.321
41425W        W13041  12.812  31.133   3.227
41426W        W13042  37.225  30.490   0.557
41427W        W13043  21.145  33.244   1.701
41428W        W13044  35.181  11.758   2.569
41429W        W13045   3.616  40.742   0.494
41430W        W13046   8.229  41.311   3.555
41431W        W13047  26.432   9.909   3.806
41432W        W13048  13.377   0.355   4.636
41433W        W13049  23.504  12.112   2.296
41434W        W13050   9.388  31.469  12.869
41435W        W13051  37.926  13.339   2.242
41436W        W13052  12.610   3.343   3.300
41437W        W13053  42.959  39.770   3.266
41438W        W13054   6.933  43.736   4.076
41439W        W13055  13.220  25.789  13.796
41440W        W13056  25.660  10.711   2.618
41441W        W13057  41.791  36.056   1.551
41442W        W13058  31.289  27.048   3.708
41443W        W13059  20.174   8.335  14.309
41444W        W13060  31.179  35.847   3.145
41445W        W13061   0.553  36.690  13.058
41446W        W13062  34.131  34.612  10.774
41447W        W13063  28.919   6.388   1.197
41448W        W13064  31.335  16.247   0.843
41449W        W13065  23.575  12.688  10.639
41450W        W13066   8.265  44.240   3.380
41451W        W13067   9.953  10.054   4.183
41452W        W13068  11.860  23.570   2.730
41453W        W13069   5.224   9.128  13.396
41454W        W13070  27.835  42.380  12.861
41455W        W13071  16.147  19.009  14.286
41456W        W13072  15.625   3.908   3.136
41457W        W13073   8.184   1.765  13.440
41458W        W13074  32.685  37.526   3.814
41459W        W13075   4.434  44.382   1.938
41460W        W13076  36.574  30.046   1.581
41461W        W13077  22.944   6.015  10.685
41462W        W13078  44.379  37.835  12.928
41463W        W13079  40.739  31.490   2.854
41464W        W13080  42.785  39.958  12.934
41465W        W13081   8.970  11.906  11.157
41466W        W13082  28.122  37.019   0.298
41467W        W13083  22.967   4.837  12.901
41468W        W13084   1.581  41.910   3.591
41469W        W13085  43.459   5.791  12.446
41470W        W13086  27.432   2.038   0.898
41471W        W13087  22.847   1.767  11.157
41472W        W13088   9.934   1.863  10.677
41473W        W13089  40.567  38.796   4.288
41474W        W13090  42.237  38.573   3.787
41475W        W13091  43.616  38.358  14.810
41476W        W13092   8.140   6.990  13.374
41477W        W13093  40.960  18.894  11.201
41478W        W13094   1.963   4.741  14.941
41479W        W13095  18.724  26.242  13.754
41480W        W13096  24.028   1.415  11.050
41481W        W13097  15.218  40.079   0.392
41482W        W13098  39.934  16.580  12.178
41483W        W13099  38.764   2.619  14.843
41484W        W13100  21.207  20.629   1.723
41485W        W13101   6.251  11.527   3.112
41486W        W13102   0.999  10.674  10.983
41487W        W13103  26.621  31.234   3.778
41488W        W13104   3.404   6.366   3.638
41489W        W13105   2.197  18.484  12.848
41490W        W13106  28.256  24.860  14.435
41491W        W13107  20.099  26.393  12.517
41492W        W13108  37.518  25.113  11.019
41493W        W13109   1.908  29.620   4.568
41494W        W13110   3.990  17.882   3.877
41495W        W13111  36.047  30.423  14.816
41496W        W13112  18.106  36.468  12.696
41497W        W13113  36.365  29.151  10.376
41498W        W13114  13.534  26.970  13.232
41499W        W13115   7.963  12.158   4.744
41500W        W13116  33.858  39.550   2.241
41501W        W13117  18.665  21.619  11.167
41502W        W13118   8.777  24.019   0.627
41503W        W13119  27.172  37.988  12.598
41504W        W13120   4.803   5.765   1.816
41505W        W13121  38.096  22.742  10.964
41506W        W13122  29.207  41.806   3.689
41507W        W13123  17.319  36.846  13.072
41508W        W13124   4.768  12.638   2.113
41509W        W13125   0.243  39.865   4.152
41510W        W13126   8.285  22.831  13.018
41511W        W13127  29.955   5.814  11.230
41512W        W13128  28.346  13.828  14.490
41513W        W13129  27.678  17.527   0.688
41514W        W13130  29.830  15.259  10.427
41515W        W13131  20.343  35.908   1.916
41516W        W13132  22.673  20.042   1.942
41517W        W13133  35.025  17.329  14.959
41518W        W13134  41.325  25.228   0.741
41519W        W13135  17.797   0.712  12.566
41520W        W13136  23.585   6.892  11.797
41521W        W13137  27.149   3.431   2.794
41522W        W13138  33.227  38.365   1.516
41523W        W13139  17.703  19.047   0.952
41524W        W13140  43.528  38.546  11.977
41525W        W13141   9.837  14.612   1.421
41526W        W13142  26.052  24.076  14.833
41527W        W13143  29.811  12.306  14.438
41528W        W13144   4.923   2.700   4.030
41529W        W13145  12.076  17.266   2.877
41530W        W13146  14.809   8.377  14.984
41531W        W13147  43.960  41.795   0.218
41532W        W13148  28.151   6.735   4.134
41533W        W13149   1.854  11.490  13.294
41534W        W13150  19.347  41.776   1.779
41535W        W13151  41.963  10.880  10.992
41536W        W13152   0.832  36.896  11.828
41537W        W13153  43.080  38.361  13.974
41538W        W13154  34.477   0.935  10.675
41539W        W13155  10.276  37.495   0.956
41540W        W13156   4.931   8.404   3.230
41541W        W13157  29.861  12.734   1.799
41542W        W13158  32.534   5.347  11.209
41543W        W13159   3.305  25.059  14.043
41544W        W13160   2.274  13.944   3.805
41545W        W13161  44.342  10.320   0.789
41546W        W13162   8.180  38.962   1.775
41547W        W13163  44.801   7.605  13.553
41548W        W13164  20.279  20.553   4.695
41549W        W13165  26.227   4.302   0.424
41550W        W13166  31.477   3.726   0.208
41551W        W13167  44.279  31.022  14.464
41552W        W13168  38.293  21.895   3.852
41553W        W13169  25.203  39.625   1.884
41554W        W13170   9.566  17.749  12.579
41555W        W13171  31.941   4.861  14.717
41556W        W13172   4.749   6.520   3.541
41557W        W13173   8.276  27.086  14.799
41558W        W13174   7.297  28.959   2.233
41559W        W13175  33.871   9.233  14.969
41560W        W13176  35.079  36.112  14.330
41561W        W13177  15.707  37.078  10.929
41562W        W13178  26.943   9.701  13.024
41563W        W13179  28.535  35.950  13.726
41564W        W13180   3.230  15.751  11.564
41565W        W13181  39.609  34.453   3.343
41566W        W13182  31.554  18.462  11.230
41567W        W13183  25.685  36.799  11.121
41568W        W13184  29.876  22.535  10.433
41569W        W13185   8.481  39.269  12.183
41570W        W13186  37.939  13.853   2.963
41571W        W13187  27.101  31.953  10.998
41572W        W13188  37.505  15.649   2.437
41573W        W13189  39.602   6.916  12.814
41574W        W13190  40.980   2.241  13.581
41575W        W13191   5.362   4.480  12.125
41576W        W13192  35.318  28.071   4.252
41577W        W13193   0.174  20.358   0.981
41578W        W13194  27.379  20.340   1.374
41579W        W13195  11.388  21.266  14.584
41580W        W13196  12.800  43.847   4.107
41581W        W13197  40.040  34.396   3.083
41582W        W13198  12.283  32.455   2.315
41583W        W13199   4.720  23.099   1.779
41584W        W13200   3.937   5.022  13.451
41585W        W13201  12.742   6.963  14.251
41586W        W13202   2.198  23.474   3.216
41587W        W13203  41.069  41.084  11.618
41588W        W13204  33.095   1.691  13.458
41589W        W13205  32.907  42.638  11.483
41590W        W13206  39.479  29.988  13.334
41591W        W13207   0.681  35.293  12.206
41592W        W13208  27.967  10.254   2.697
41593W        W13209   5.813  36.886  10.776
41594W        W13210  25.233  36.431   2.303
41595W        W13211  14.830  33.011   3.563
41596W        W13212  35.753  35.613  11.201
41597W        W13213  42.711   3.837   4.340
41598W        W13214  40.761  12.829  14.241
41599W        W13215   3.364  17.600  14.560
41600W        W13216   9.245  36.452   0.224
41601W        W13217  38.253  22.090  14.870
41602W        W13218  29.598  13.921   0.396
41603W        W13219  42.293  19.513   0.259
41604W        W13220  40.536   5.252   4.505
41605W        W13221  21.314   9.614  14.004
41606W        W13222  29.690  38.673   0.424
41607W        W13223  25.099  10.298   4.512
41608W        W13224  16.113  30.470  12.503
41609W        W13225  10.734   5.806  12.305
41610W        W13226  22.391  19.864   1.551
41611W        W13227  30.132   4.487  12.532
41612W        W13228  16.060  43.234   1.435
41613W        W13229  15.129  12.162  13.737
41614W        W13230  28.181  26.527   3.283
41615W        W13231  38.442  19.005   1.952
41616W        W13232  17.592   3.092  14.519
41617W        W13233  19.294  26.462  14.770
41618W        W13234   3.723  38.234  11.072
41619W        W13235   8.298  22.533   2.061
41620W        W13236  33.823   5.379   4.526
41621W        W13237   4.422  22.347  14.966
41622W        W13238  33.956  16.336  10.531
41623W        W13239  44.936  24.135  13.782
41624W        W13240  29.554  34.776   3.317
41625W        W13241  12.490  29.137   0.066
41626W        W13242   8.403  15.115  14.416
41627W        W13243  38.952  24.527   3.710
41628W        W13244  18.795  32.915   2.784
41629W        W13245  15.015  11.786   2.348
41630W        W13246  12.479  21.942  11.054
41631W        W13247  20.843  24.611  13.827
41632W        W13248  19.991   0.832  14.793
41633W        W13249  37.148  26.491  11.964
41634W        W13250  19.685   8.238   4.531
41635W        W13251  32.999   0.888  10.464
41636W        W13252  13.842   2.037  12.457
41637W        W13253  43.824  27.928  12.179
41638W        W13254  13.395   3.448   2.756
41639W        W13255   7.377  26.024  13.314
41640W        W13256  17.597  11.149  13.720
41641W        W13257   5.903  43.842   3.215
41642W        W13258  33.652  27.871  12.450
41643W        W13259  12.066  42.379  13.526
41644W        W13260   9.075  17.991  13.925
41645W        W13261   2.948  17.541  12.399
41646W        W13262  13.799  35.450   3.869
41647W        W13263   1.359  40.791  14.910
41648W        W13264   7.837  43.992  14.240
41649W        W13265  30.204  40.828  14.463
41650W        W13266  37.021  44.765  13.928
41651W        W13267  40.875  27.028  11.354
41652W        W13268  40.400  20.789  13.886
41653W        W13269  13.123  31.549  13.467
41654W        W13270  12.209  42.382   1.362
41655W        W13271  13.574  37.760  12.077
41656W        W13272   6.188  30.637  14.205
41657W        W13273  30.109   2.843   4.138
41658W        W13274  18.753  32.993   0.883
41659W        W13275  43.679  29.414  13.403
41660W        W13276  37.521  18.288   4.820
41661W        W13277  43.036  25.589  11.325
41662W        W13278  26.528  37.248  11.204
41663W        W13279  39.408  34.996  11.693
41664W        W13280  20.439  23.112   4.322
41665W        W13281  20.106  21.347  12.501
41666W        W13282   6.038  17.852  11.189
41667W        W13283  38.303  25.958   1.680
41668W        W13284   2.999   2.992   2.789
41669W        W13285  17.673  10.817  13.320
41670W        W13286   7.009   3.877   1.482
41671W        W13287  24.124   2.694   3.141
41672W        W13288  34.508  21.346   4.085
41673W        W13289  21.595  33.991  14.910
41674W        W13290  21.718  10.745   3.639
41675W        W13291  25.069  43.211   2.422
41676W        W13292  26.929  28.569  14.750
41677W        W13293  16.186  12.153  10.491
41678W        W13294  32.920  31.664  12.185
41679W        W13295  10.723   5.900   0.193
41680W        W13296   2.890  23.226  14.845
41681W        W13297  41.311  11.696  11.947
41682W        W13298  19.006   1.347   1.407
41683W        W13299  17.512  36.507   0.863
41684W        W13300  44.566   3.742  11.613
41685W        W13301  13.155  17.614   4.800
41686W        W13302  30.199  32.847   1.491
41687W        W13303  37.099   4.930   3.699
41688W        W13304  30.715  40.656  14.335
41689W        W13305  19.140   9.829  12.690
41690W        W13306  32.205  26.680  13.312
41691W        W13307  28.685  12.292  12.066
41692W        W13308   6.043  22.683   0.941
41693W        W13309  16.832  15.660   1.025
41694W        W13310  32.651  14.623  14.770
41695W        W13311  42.483  12.397   0.873
41696W        W13312   9.297  31.878   0.479
41697W        W13313  40.356  12.158   0.463
41698W        W13314  24.533   8.338  10.575
41699W        W13315  19.772   4.331   2.897
41700W        W13316   6.325   7.341   0.416
41701W        W13317  28.690  37.332  12.485
41702W        W13318  20.590  30.176   2.769
41703W        W13319  43.045   1.246   0.679
41704W        W13320  15.237  32.652  14.222
41705W        W13321   6.924  41.922   0.747
41706W        W13322  22.487  10.594   1.285
41707W        W13323  29.587  10.486  14.493
41708W        W13324  14.350  30.100   4.537
41709W        W13325   4.351  14.157   4.524
41710W        W13326  13.621  14.808   2.686
41711W        W13327  23.721   0.769   4.844
41712W        W13328  25.981  14.727  14.421
41713W        W13329   2.881  42.709   4.277
41714W        W13330  28.407  20.246   4.596
41715W        W13331  29.700  39.845  13.919
41716W        W13332  39.420  40.494   1.656
41717W        W13333  26.062  31.968  12.396
41718W        W13334  24.499   4.951   2.654
41719W        W13335  28.034  39.570   2.601
41720W        W13336   1.036  39.938   5.187
41721W        W13337  15.424  21.785   2.318
41722W        W13338   9.575  21.420  12.962
41723W        W13339  30.334  35.397  14.114
41724W        W13340  20.138  32.000  11.173
41725W        W13341  15.731  11.985   4.635
41726W        W13342  22.133  14.403  13.186
41727W        W13343  27.201  35.395   1.406
41728W        W13344  43.962  39.764   3.745
41729W        W13345  28.973  26.492   2.679
41730W        W13346  13.307  13.759   4.656
41731W        W13347   6.103   9.273   3.541
41732W        W13348  15.774  27.634  10.663
41733W        W13349   7.348   2.910   2.361
41734W        W13350  18.144  43.488  12.617
41735W        W13351  37.316  11.423   3.042
41736W        W13352  33.290   0.773   0.078
41737W        W13353  22.214   6.721  12.306
41738W        W13354  23.222  43.524  12.428
41739W        W13355  17.496  12.243  13.084
41740W        W13356  32.194  23.605  13.382
41741W        W13357  23.943  38.999   0.199
41742W        W13358   1.443  27.921  11.050
41743W        W13359  20.148  18.192  11.690
41744W        W13360  41.053  21.773   0.836
41745W        W13361  31.577   0.193   4.062
41746W        W13362  26.044  18.631   2.847
41747W        W13363  18.711  32.888   4.903
41748W        W13364  34.953  38.924  10.486
41749W        W13365   7.729  30.509   2.217
41750W        W13366   6.424  24.551   4.670
41751W        W13367  29.097  42.744  14.885
41752W        W13368   0.734  12.644   4.092
41753W        W13369  32.647  29.930  14.930
41754W        W13370  15.743  24.555   3.147
41755W        W13371  11.997  35.066   2.656
41756W        W13372  11.122  13.847   2.314
41757W        W13373  41.759  26.116   2.485
41758W        W13374  36.509  20.068  11.928
41759W        W13375  13.707   7.803   4.668
41760W        W13376  24.765  35.300   2.796
41761W        W13377  15.424   0.633  14.561
41762W        W13378  14.604   0.031   2.311
41763W        W13379  23.936   9.841  13.402
41764W        W13380  29.608  37.169   2.338
41765W        W13381  15.103  25.403   1.679
41766W        W13382  27.997  15.748  14.477
41767W        W13383   5.476  22.666  12.785
41768W        W13384  23.798  14.983  14.796
41769W        W13385  39.831  11.336   1.638
41770W        W13386  13.999  13.581   0.783
41771W        W13387  33.599  30.610  13.874
41772W        W13388  23.071  43.713  14.477
41773W        W13389  41.099   5.745   2.349
41774W        W13390  16.108  25.160  14.564
41775W        W13391   0.250  11.490  13.894
41776W        W13392  15.489  21.605  13.416
41777W        W13393  37.908  31.190   1.452
41778W        W13394  43.378  42.462   3.606
41779W        W13395  26.461  11.548  11.947
41780W        W13396  13.704  41.283   0.277
41781W        W13397  38.624  15.219   4.033
41782W        W13398   1.155  24.144  14.379
41783W        W13399   0.379   7.137   0.025
41784W        W13400  26.012   7.337  14.869
41785W        W13401  27.977  29.048  14.091
41786W        W13402  10.751  33.904   4.547
41787W        W13403  28.838  20.249   1.315
41788W        W13404  37.045  20.767  14.838
41789W        W13405  30.033  25.659   2.398
41790W        W13406   6.327   7.800   4.887
41791W        W13407   9.563  43.956   0.949
41792W        W13408   1.127  23.497  10.710
41793W        W13409  28.876  19.081  10.891
41794W        W13410  36.367  12.814   3.380
41795W        W13411  23.565  43.537   0.318
41796W        W13412  26.975  26.894   4.083
41797W        W13413  12.098  29.867   0.403
41798W        W13414  31.901  17.176   0.800
41799W        W13415  18.121  32.185   1.716
41800W        W13416  38.278  12.213   0.035
41801W        W13417  31.657  16.613  14.503
41802W        W13418  18.341  31.508   3.641
41803W        W13419   3.764  37.349  12.185
41804W        W13420  31.579  31.007  10.287
41805W        W13421  33.506  26.721   3.563
41806W        W13422  24.078  38.322   0.978
41807W        W13423  16.648  15.757  12.425
41808W        W13424  16.651   5.440  12.085
41809W        W13425  20.143  16.392  10.890
41810W        W13426  40.419  26.069  13.076
41811W        W13427  19.737  12.383   1.368
41812W        W13428  29.114  14.071   4.473
41813W        W13429   6.144  44.725  12.456
41814W        W13430   5.314  31.964   0.772
41815W        W13431   0.938  44.439   1.824
41816W        W13432  37.059  15.654  13.034
41817W        W13433  38.659  27.433  14.405
41818W        W13434  16.186  34.888   3.864
41819W        W13435  22.440   3.713   1.471
41820W        W13436  43.454   8.923  13.394
41821W        W13437  44.232  37.020   3.342
41822W        W13438  17.739   6.690   2.683
41823W        W13439  16.590   3.120   3.898
41824W        W13440   2.373  23.316   4.125
41825W        W13441  25.725  15.150   1.721
41826W        W13442  24.750  24.732   3.285
41827W        W13443  34.177  26.740   4.138
41828W        W13444  29.450  31.072   2.489
41829W        W13445   9.869  40.141   2.896
41830W        W13446  13.656  20.638  11.620
41831W        W13447   9.720  21.275   0.220
41832W        W13448  35.654  12.166   4.242
41833W        W13449  30.689   3.620   3.682
41834W        W13450  23.732  24.217   0.896
41835W        W13451  22.505  15.581   5.368
41836W        W13452   2.860  40.933  11.225
41837W        W13453  25.942  17.905   4.403
41838W        W13454   2.430  34.985   2.708
41839W        W13455  25.725   9.602   4.679
41840W        W13456   0.570  39.374   2.488
41841W        W13457  38.413  22.052   4.843
41842W        W13458  26.483  33.901  12.428
41843W        W13459  43.202  32.627   2.398
41844W        W13460   5.390  40.105  13.388
41845W        W13461  26.910   7.681  11.100
41846W        W13462  13.168  10.908   2.791
41847W        W13463  13.756   5.798   3.179
41848W        W13464  39.515  21.816   3.251
41849W        W13465  29.714  42.934   2.269
41850W        W13466  15.286  37.117  13.107
41851W        W13467  20.524  17.212   2.445
41852W        W13468  36.548  10.156   0.430
41853W        W13469  38.673  33.174   0.610
41854W        W13470  16.705  24.055   3.708
41855W        W13471   9.341  26.646  13.789
41856W        W13472  43.487  32.180   1.233
41857W        W13473  11.348  22.154  14.036
41858W        W13474  31.964  40.078   4.983
41859W        W13475  18.019   4.431  11.957
41860W        W13476  33.376  34.896  12.451
41861W        W13477  10.184  19.696   4.179
41862W        W13478  40.227  12.509   4.918
41863W        W13479   2.503  32.561  10.937
41864W        W13480  15.152  16.877   2.201
41865W        W13481  28.536  40.376   1.022
41866W        W13482  27.527   4.449   3.185
41867W        W13483  27.101  44.322   2.195
41868W        W13484  28.696   4.800  11.394
41869W        W13485  31.539  40.075   3.240
41870W        W13486   9.341   2.023  13.953
41871W        W13487  29.036  28.186   3.089
41872W        W13488  33.221  26.564  14.360
41873W        W13489   4.786  34.968  10.729
41874W        W13490  39.480  21.286  11.289
41875W        W13491  12.492   3.791  10.944
41876W        W13492  35.429  25.964  13.806
41877W        W13493  39.068  10.203   4.330
41878W        W13494  35.638  18.993  13.318
41879W        W13495   8.654   5.851   1.463
41880W        W13496  13.717  30.978  11.886
41881W        W13497  13.407  41.612  11.943
41882W        W13498   7.311   4.604  14.986
41883W        W13499   0.984  35.082  13.872
41884W        W13500  14.249  27.145   3.660
41885W        W13501  21.329  35.581  12.057
41886W        W13502  28.846   8.130   0.311
41887W        W13503  25.266   9.807   0.784
41888W        W13504  30.382   1.825   1.704
41889W        W13505   5.786  24.367   2.259
41890W        W13506  43.799   0.699   2.193
41891W        W13507  10.239  29.664   3.192
41892W        W13508  29.609  38.452   4.588
41893W        W13509  25.389  25.160  12.582
41894W        W13510  11.050  23.743   1.273
41895W        W13511  12.606   3.964  12.441
41896W        W13512  13.365  43.505  12.960
41897W        W13513   5.229  37.683   1.227
41898W        W13514  33.953  27.922  10.704
41899W        W13515  39.017   7.925   1.303
41900W        W13516  25.621  18.733   0.566
41901W        W13517  13.845  20.769   0.870
41902W        W13518  20.769   0.116   2.366
41903W        W13519  16.247  44.761   4.743
41904W        W13520  15.640  19.788  14.306
41905W        W13521  10.388  19.840   1.864
41906W        W13522  36.417  11.607  10.682
41907W        W13523  42.914  35.895   1.316
41908W        W13524  34.835  20.544  14.440
41909W        W13525   1.929  11.282  13.755
41910W        W13526  31.312  41.927   1.317
41911W        W13527  37.932  25.532  14.453
41912W        W13528   3.747   5.635   2.028
41913W        W13529  37.335   6.379  11.664
41914W        W13530  17.039   9.816   3.686
41915W        W13531  16.324  35.826   1.905
41916W        W13532   9.214   7.486   0.329
41917W        W13533  32.659  37.428   4.549
41918W        W13534  40.048  17.817  13.337
41919W        W13535  38.079  19.712   2.479
41920W        W13536   5.799  43.029  14.775
41921W        W13537  43.161  10.941   3.292
41922W        W13538  15.818   4.065   4.869
41923W        W13539  41.825   5.201  10.688
41924W        W13540  18.058  31.141  11.613
41925W        W13541  40.502  32.683   1.749
41926W        W13542  10.804  20.700   4.682
41927W        W13543  36.920  17.161  11.062
41928W        W13544  18.519  35.569  12.366
41929W        W13545  39.879  19.568  11.403
41930W        W13546  44.388  13.635  13.414
41931W        W13547   7.826  27.912  11.202
41932W        W13548  18.260  29.673   4.088
41933W        W13549   9.263  41.791   3.308
41934W        W13550  18.619  10.646   3.205
41935W        W13551   8.425  43.414   3.700
41936W        W13552  36.289  40.025   0.419
41937W        W13553  14.601  11.847  10.058
41938W        W13554   9.926   0.937   3.632
41939W        W13555   2.249  41.883  12.116
41940W        W13556  41.575   5.021   2.904
41941W        W13557  14.123   1.553  13.916
41942W        W13558  39.829  30.012  11.988
41943W        W13559  15.798  17.168  14.282
41944W        W13560   5.554  26.032  11.941
41945W        W13561  29.985  43.477   2.061
41946W        W13562   1.953  10.420  13.531
41947W        W13563  18.376  38.527   2.866
41948W        W13564  35.140   2.777  12.823
41949W        W13565  39.336  32.363   1.784
41950W        W13566   2.237  37.548   3.899
41951W        W13567  29.244  22.089  13.687
41952W        W13568  41.368  11.094  12.574
41953W        W13569  33.389  13.685  13.906
41954W        W13570  28.519  21.467   3.660
41955W        W13571  22.209  43.385   5.013
41956W        W13572   5.064  26.962   3.329
41957W        W13573  18.802  19.343  12.524
41958W        W13574  37.799  16.154  13.840
41959W        W13575  22.393  31.411   4.866
41960W        W13576  36.925  11.526   9.909
41961W        W13577  18.171  20.252  11.746
41962W        W13578   8.041  20.084   4.074
41963W        W13579  26.232  25.304  11.927
41964W        W13580  41.025  22.937   1.369
41965W        W13581   4.769  35.868  11.998
41966W        W13582  19.108  21.645  11.439
41967W        W13583  14.610  31.493   2.725
41968W        W13584  32.061  33.886  14.857
41969W        W13585   0.459   4.712   4.158
41970W        W13586  25.707   3.959   0.842
41971W        W13587  42.272  34.336  12.884
41972W        W13588  15.534  33.016  12.536
41973W        W13589  29.102  30.598  14.830
41974W        W13590   5.833  37.062   3.544
41975W        W13591  39.357  29.730  12.897
41976W        W13592  12.801  18.751  10.723
41977W        W13593  19.616  43.774   5.517
41978W        W13594  19.687  15.393  10.153
41979W        W13595  10.632   3.469  10.388
41980W        W13596  34.933  22.624  10.715
41981W        W13597  30.219  37.057  14.326
41982W        W13598  34.830  17.649   2.744
41983W        W13599  18.095  34.882  11.086
41984W        W13600   7.226  17.269  14.985
41985W        W13601  13.069  26.626   2.916
41986W        W13602  41.282  27.666  10.819
41987W        W13603  24.547   7.110  11.180
41988W        W13604  30.177  17.675   3.363
41989W        W13605   9.467  43.790  10.908
41990W        W13606  43.977  33.527   4.142
41991W        W13607  43.249  14.278  12.133
41992W        W13608   1.230  22.181   1.800
41993W        W13609  38.589   4.756  12.531
41994W        W13610   0.934   3.436   0.870
41995W        W13611  42.699   2.955   2.804
41996W        W13612  38.608  43.390  13.907
41997W        W13613   6.654  30.033  12.997
41998W        W13614  39.459   4.260   3.834
41999W        W13615  33.985   0.816  12.801
42000W        W13616   5.757  27.472   3.121
42001W        W13617   1.765  17.518  13.759
42002W        W13618   5.205  23.105  10.551
42003W        W13619   4.523  18.148   3.934
42004W        W13620  17.078  43.878  14.261
42005W        W13621  39.133  36.565  12.914
42006W        W13622  19.635  17.765  11.997
42007W        W13623  26.940   5.008  12.960
42008W        W13624   2.257  12.731  11.579
42009W        W13625  44.852  31.202   3.688
42010W        W13626  19.027  15.135   4.181
42011W        W13627   0.942  25.425   1.302
42012W        W13628  15.393  22.562  11.090
42013W        W13629  19.696  38.634  14.424
42014W        W13630   4.405   0.975  10.027
42015W        W13631  40.305   5.336   0.420
42016W        W13632  13.039  36.908   4.145
42017W        W13633   6.194  21.134  14.753
42018W        W13634  19.794  18.725   4.124
42019W        W13635  11.891  22.637   2.740
42020W        W13636  39.191  16.551   0.563
42021W        W13637  28.887  29.119   0.335
42022W        W13638   9.184  11.679  14.913
42023W        W13639  21.310  32.402  10.472
42024W        W13640  35.078   0.760   1.168
42025W        W13641  24.988  18.990  14.266
42026W        W13642  26.209   6.990   4.476
42027W        W13643  16.338  15.734   4.700
42028W        W13644  16.327  37.512  12.488
42029W        W13645  35.921  24.772   0.347
42030W        W13646  22.574  41.286  13.789
42031W        W13647  30.802  32.682  13.667
42032W        W13648  10.799   9.165   3.731
42033W        W13649  13.586  17.787   0.847
42034W        W13650  29.608  18.720   4.145
42035W        W13651  35.336   2.996   2.471
42036W        W13652   1.967  31.834  12.478
42037W        W13653  22.536  12.870   3.617
42038W        W13654  44.372  40.151  11.582
42039W        W13655   2.345  14.042  13.620
42040W        W13656   2.411   0.135   2.210
42041W        W13657  23.190  32.062   1.283
42042W        W13658  27.356  21.862   1.260
42043W        W13659  26.445  43.191   0.379
42044W        W13660  14.618  20.877   3.609
42045W        W13661  36.380  32.101   4.105
42046W        W13662  31.129  17.687  11.023
42047W        W13663  38.408  23.679  12.433
42048W        W13664  22.952   5.721  11.588
42049W        W13665  11.120  26.170  13.920
42050W        W13666  28.855  19.235   2.788
42051W        W13667  10.012  19.820  10.300
42052W        W13668  17.121  31.473  14.876
42053W        W13669   7.246  19.975   1.696
42054W        W13670  44.016  20.473   0.012
42055W        W13671  23.738  24.443   4.318
42056W        W13672   7.684  38.003  14.007
42057W        W13673  36.106  37.610   0.441
42058W        W13674  12.121  22.529   0.342
42059W        W13675  31.040  25.665  12.285
42060W        W13676  15.862  22.709   4.271
42061W        W13677   2.392  40.959   0.887
42062W        W13678  39.915  18.402   2.753
42063W        W13679  19.248  29.465  11.728
42064W        W13680  40.554  31.574  10.630
42065W        W13681  37.959  10.441   2.796
42066W        W13682  24.109   5.476  14.269
42067W        W13683  14.710   6.408   3.888
42068W        W13684   1.202  43.347  13.000
42069W        W13685  43.823  25.004   0.328
42070W        W13686  15.682  22.318  10.736
42071W        W13687  22.374  40.933   0.006
42072W        W13688   3.425  31.334   1.153
42073W        W13689   9.323  38.125   3.700
42074W        W13690  35.556   2.572   4.832
42075W        W13691   7.190  44.821   0.346
42076W        W13692  24.960  22.296   4.447
42077W        W13693  10.363  18.349  14.384
42078W        W13694  39.780   6.458   1.445
42079W        W13695  25.247  18.123  13.889
42080W        W13696   7.193  44.515  14.715
42081W        W13697  16.501  23.002   0.143
42082W        W13698   5.531  11.130   2.227
42083W        W13699  25.470  41.080  12.987
42084W        W13700  10.977  35.652  11.991
42085W        W13701  18.077  43.001  10.389
42086W        W13702  13.347  12.683  10.686
42087W        W13703  24.985   8.658   0.453
42088W        W13704  12.231  28.533  13.295
42089W        W13705  10.594  10.915  13.429
42090W        W13706  23.701  27.651   0.971
42091W        W13707  19.801  39.931  10.422
42092W        W13708  43.955  30.306   3.878
42093W        W13709  11.790   4.046  12.038
42094W        W13710  43.417   4.264   4.579
42095W        W13711   3.729  37.031  10.707
42096W        W13712  31.541  31.528   1.687
42097W        W13713  11.673  18.136  13.125
42098W        W13714  17.227  40.011   3.596
42099W        W13715  37.913  31.409   1.941
42100W        W13716   2.324  15.677   1.492
42101W        W13717  33.693  31.513  13.025
42102W        W13718   9.365  31.046   1.832
42103W        W13719  34.928  18.829   3.649
42104W        W13720  42.757   1.702  13.361
42105W        W13721  37.456  34.845   1.462
42106W        W13722  31.450  32.441   4.817
42107W        W13723  21.645  18.337   1.410
42108W        W13724   8.169  12.466   4.190
42109W        W13725  15.667  12.438  14.843
42110W        W13726   7.801  24.590  12.538
42111W        W13727  28.480   8.144   3.297
42112W        W13728   2.699  21.494  12.076
42113W        W13729  20.753  29.820  12.492
42114W        W13730  11.433   6.907  14.846
42115W        W13731  21.319  19.721  11.083
42116W        W13732  43.010  10.576  14.343
42117W        W13733  28.109   5.808  12.961
42118W        W13734  12.332  37.047  10.544
42119W        W13735  19.631  28.854   0.991
42120W        W13736   2.869  20.142  12.482
42121W        W13737  41.367  35.077  12.291
42122W        W13738  20.525   1.870   3.653
42123W        W13739  37.830  31.054   2.889
42124W        W13740  24.783  29.019   4.508
42125W        W13741  38.088  31.856  12.363
42126W        W13742  36.618  36.401   4.649
42127W        W13743  44.961  16.408   2.595
42128W        W13744  13.836  27.456   0.298
42129W        W13745  44.477  36.941  10.636
42130W        W13746   3.496  16.471   1.511
42131W        W13747  28.214  34.339   4.026
42132W        W13748  12.879   9.920   3.621
42133W        W13749  14.833  43.449  10.646
42134W        W13750  32.188  33.045   1.341
42135W        W13751  27.931  34.673   2.262
42136W        W13752  13.150  36.045   4.194
42137W        W13753  18.741  37.608  14.376
42138W        W13754  37.607  39.832   3.709
42139W        W13755  35.790   9.804   3.641
42140W        W13756  36.453   5.217   1.786
42141W        W13757   8.135  30.367  11.410
42142W        W13758  16.656   5.253  13.631
42143W        W13759   2.464   7.868  10.724
42144W        W13760  31.679   6.394   0.485
42145W        W13761  33.191   9.206  13.780
42146W        W13762  21.404   1.324   2.447
42147W        W13763  20.067   2.194   4.219
42148W        W13764  30.549  37.502   0.929
42149W        W13765  14.642   5.367   4.843
42150W        W13766  36.553   7.908   2.422
42151W        W13767  20.593  31.041   0.935
42152W        W13768  32.380  29.459  14.936
42153W        W13769   7.925  36.782  11.140
42154W        W13770   4.945  32.846   4.028
42155W        W13771  17.103  12.978  14.384
42156W        W13772   4.346   8.373  14.782
42157W        W13773  15.209  23.482  13.413
42158W        W13774  13.844   0.760  13.012
42159W        W13775  24.989  17.010  10.544
42160W        W13776   6.187  43.742  11.504
42161W        W13777  27.923  39.831   2.127
42162W        W13778  10.256   2.239  14.989
42163W        W13779  36.922  39.541  14.519
42164W        W13780   1.774  23.568   4.241
42165W        W13781  39.122  25.198   0.216
42166W        W13782  14.150   1.848  14.348
42167W        W13783  19.778   6.166   4.618
42168W        W13784   7.839  43.891   2.165
42169W        W13785  17.583  25.462  14.742
42170W        W13786  15.040  25.656  13.858
42171W        W13787   6.324  18.518  13.717
42172W        W13788  10.890  44.277   4.531
42173W        W13789   8.465  25.633  14.191
42174W        W13790  35.075   2.882   0.231
42175W        W13791  21.919  33.644   4.581
42176W        W13792  26.649   9.408   1.199
42177W        W13793  26.625  18.721   0.835
42178W        W13794  40.546  38.819   1.171
42179W        W13795  12.841  17.200  14.302
42180W        W13796  43.896  44.303   4.579
42181W        W13797  25.386  13.654  13.902
42182W        W13798  15.054  32.690   1.906
42183W        W13799   1.467   5.511   3.905
42184W        W13800  12.358  40.817  12.081
42185W        W13801  17.535  33.509   2.720
42186W        W13802  42.447  28.265  13.259
42187W        W13803  40.132  32.776  12.272
42188W        W13804   6.781  36.037   2.889
42189W        W13805  30.852  28.372   3.647
42190W        W13806  17.107  16.772   1.274
42191W        W13807  36.345  26.753  11.497
42192W        W13808  10.708  22.879   1.274
42193W        W13809  39.187  25.532  13.936
42194W        W13810  19.080  19.769  12.829
42195W        W13811  43.713  21.246  10.997
42196W        W13812  21.323   9.647   3.406
42197W        W13813   7.315  44.441  13.819
42198W        W13814   6.276  25.760  13.852
42199W        W13815   0.622  29.704  14.772
42200W        W13816  12.063  32.884   1.359
42201W        W13817  17.758   7.474   2.215
42202W        W13818  26.588  37.266  12.208
42203W        W13819  30.002  14.206  10.514
42204W        W13820  16.795  37.882   2.712
42205W        W13821  21.193  38.795  10.547
42206W        W13822  37.828   2.493   4.826
42207W        W13823  21.275  25.569  14.058
42208W        W13824  32.459   1.974   4.066
42209W        W13825   1.054  14.410  13.903
42210W        W13826  40.189  24.577  13.443
42211W        W13827  24.170  22.236  12.458
42212W        W13828  21.654  32.641  11.533
42213W        W13829  33.634  32.232   4.618
42214W        W13830  42.839   1.143  12.457
42215W        W13831  16.289  36.824  11.681
42216W        W13832   5.128  34.878  14.110
42217W        W13833  26.228  36.808   0.301
42218W        W13834  43.999  18.814   4.856
42219W        W13835  22.525   6.146   0.991
42220W        W13836   1.835  11.354  11.598
42221W        W13837   6.199  28.388   2.457
42222W        W13838  19.497  34.922   3.088
42223W        W13839  44.239  43.456   1.908
42224W        W13840  12.676   6.512   0.008
42225W        W13841  39.453   6.113  13.779
42226W        W13842  30.435  24.583   3.205
42227W        W13843  25.707   0.154   0.748
42228W        W13844   9.843  33.471  14.886
42229W        W13845  23.113  41.581   2.584
42230W        W13846  18.767  33.366   4.121
42231W        W13847   5.807   7.138   3.918
42232W        W13848  42.680  41.283  12.407
42233W        W13849  35.979  35.016   0.298
42234W        W13850  22.718  22.462  11.517
42235W        W13851  40.990  27.969   4.181
42236W        W13852  33.861   7.749   0.967
42237W        W13853  20.131  43.711  14.918
42238W        W13854  10.410  21.409  14.478
42239W        W13855   4.268  10.327  14.758
42240W        W13856  12.840  34.342   0.702
42241W        W13857  43.337  14.871   0.301
42242W        W13858  31.273  21.134   3.622
42243W        W13859  22.297  26.449   1.762
42244W        W13860  37.136  12.941   1.853
42245W        W13861  34.379  27.461   4.754
42246W        W13862  16.340  42.005  11.281
42247W        W13863   6.234  18.018  13.866
42248W        W13864  10.393  44.263  13.909
42249W        W13865   6.674  17.850   0.367
42250W        W13866  27.769  13.114   5.398
42251W        W13867  22.610  23.537  13.773
42252W        W13868  44.694  17.725  13.101
42253W        W13869  36.447  23.609   3.087
42254W        W13870  34.294  40.985  10.593
42255W        W13871  14.080  25.582   0.580
42256W        W13872  39.769   7.324   0.883
42257W        W13873  15.513  41.431   4.225
42258W        W13874  22.946   2.834  12.076
42259W        W13875  32.010  11.794   1.695
42260W        W13876  37.404  44.361   3.352
42261W        W13877   3.386  23.879  10.451
42262W        W13878  39.783  18.277  11.985
42263W        W13879  28.956  38.721  13.426
42264W        W13880  37.837  36.067  13.335
42265W        W13881   3.546  34.842   1.345
42266W        W13882  16.275   7.379   0.811
42267W        W13883  14.857  19.134  12.994
42268W        W13884  29.461   3.684   3.297
42269W        W13885  11.607  19.936   4.326
42270W        W13886   8.826   1.197   0.872
42271W        W13887  22.761   0.401   4.156
42272W        W13888   6.770  33.110   2.639
42273W        W13889  38.143  32.030  11.437
42274W        W13890  24.960  18.127  12.567
42275W        W13891   2.903  43.926   4.136
42276W        W13892  27.489   7.599   4.698
42277W        W13893  12.302   2.349   0.497
42278W        W13894  13.678  30.465  12.564
42279W        W13895  15.587  17.084  11.124
42280W        W13896  17.740   1.693   0.537
42281W        W13897   0.796   4.290  13.410
42282W        W13898  43.396  36.457  14.528
42283W        W13899  20.723  36.588  12.436
42284W        W13900   0.691  30.122  11.479
42285W        W13901   0.703  44.975  13.333
42286W        W13902  25.479   6.485   4.210
42287W        W13903  40.792   8.420  13.582
42288W        W13904  27.973  41.647   3.269
42289W        W13905  34.078  10.410   2.000
42290W        W13906  20.029  17.070  14.522
42291W        W13907  38.348   1.249   1.439
42292W        W13908   8.848   0.207   1.240
42293W        W13909  14.795  21.226   3.252
42294W        W13910   5.660  38.713  10.308
42295W        W13911  44.419  16.492   1.249
42296W        W13912  27.904  38.527   3.167
42297W        W13913  13.238  39.910   2.284
42298W        W13914  19.608  41.557  11.603
42299W        W13915  23.921   2.873  12.437
42300W        W13916  23.032  37.388   2.718
42301W        W13917   6.973  40.019   2.902
42302W        W13918   9.486  36.540  11.432
42303W        W13919  34.532  21.358   2.887
42304W        W13920  14.559  36.379  12.957
42305W        W13921  20.022   0.396  14.014
42306W        W13922  32.023  36.078  12.694
42307W        W13923  23.640  37.618  10.739
42308W        W13924  26.662   2.228   1.913
42309W        W13925  34.171  21.225   4.523
42310W        W13926  15.168  15.902   0.907
42311W        W13927  29.561  18.236  12.579
42312W        W13928  18.927  33.481  12.851
42313W        W13929  18.184   1.475  13.845
42314W        W13930  11.207  35.050  12.009
42315W        W13931  40.532   5.108  14.981
42316W        W13932  16.640   7.757  12.391
42317W        W13933  17.562   6.686   4.148
42318W        W13934   3.247  24.716   0.853
42319W        W13935  42.064  15.296   4.345
42320W        W13936  37.404  19.556   2.262
42321W        W13937   6.165  14.666   3.637
42322W        W13938  27.113   6.659   0.369
42323W        W13939   1.985  34.641   4.557
42324W        W13940  40.425   4.461   0.779
42325W        W13941  44.331  35.444   3.791
42326W        W13942  44.875   5.208  13.960
42327W        W13943  29.466  39.322   1.187
42328W        W13944   3.876  37.729   0.715
42329W        W13945  36.563  10.123  14.859
42330W        W13946  22.544  31.146  14.624
42331W        W13947  33.651  29.223  11.656
42332W        W13948  26.491  33.506  14.814
42333W        W13949   5.344  40.449   2.179
42334W        W13950  11.596  24.641   1.331
42335W        W13951   7.331   2.356   2.356
42336W        W13952  26.054  34.022   4.995
42337W        W13953  28.045  14.242   1.747
42338W        W13954  41.482  30.429   0.900
42339W        W13955   9.064  17.803  11.020
42340W        W13956   2.860   8.899  12.319
42341W        W13957  17.424  23.183  10.934
42342W        W13958  28.283  35.449   3.228
42343W        W13959  31.606  13.665  14.392
42344W        W13960   5.607  26.031  10.983
42345W        W13961  35.592  27.028  11.953
42346W        W13962  14.205   7.609  12.533
42347W        W13963  40.346  35.011   2.187
42348W        W13964  21.907   4.384  11.968
42349W        W13965  32.443  43.909   4.227
42350W        W13966   8.145  32.177  14.988
42351W        W13967  31.137  41.427   2.316
42352W        W13968  35.028   8.837   3.340
42353W        W13969  11.266  13.446  11.736
42354W        W13970  28.882  36.188  13.338
42355W        W13971   6.479   4.365   0.327
42356W        W13972  11.066  44.467   0.317
42357W        W13973  33.060  20.850   2.755
42358W        W13974  17.237  20.539   1.914
42359W        W13975  14.872  37.400  13.019
42360W        W13976   5.290   2.805   0.898
42361W        W13977   1.597  21.051  13.576
42362W        W13978  21.600  16.700  10.468
42363W        W13979  25.710   3.728  10.507
42364W        W13980  43.899  16.161  11.514
42365W        W13981  34.693  31.222  11.578
42366W        W13982  23.996  17.642  11.589
42367W        W13983  18.295  15.279   1.951
42368W        W13984  27.439  18.572  13.355
42369W        W13985   5.771  12.243   1.724
42370W        W13986   7.882   7.471   5.126
42371W        W13987  16.331  12.250  11.996
42372W        W13988  22.145  38.383  12.297
42373W        W13989   9.816  32.570   0.301
42374W        W13990  38.384  17.135  10.636
42375W        W13991  33.796   1.686   3.608
42376W        W13992   4.680  23.596  10.230
42377W        W13993  27.127  25.455   3.199
42378W        W13994  18.487  13.659   0.280
42379W        W13995  43.332  33.932   4.356
42380W        W13996  41.205  39.820   0.212
42381W        W13997  44.868  29.722   2.279
42382W        W13998   5.326  17.605   1.814
42383W        W13999  39.286  23.287   0.225
42384W        W14000  27.962   8.121  11.984
42385W        W14001  40.791  30.588   1.365
42386W        W14002  26.071  23.179  14.491
42387W        W14003  13.240  24.398  10.725
42388W        W14004  20.889  12.725  14.764
42389W        W14005  34.867  29.648   1.369
42390W        W14006  44.387   5.298  11.610
42391W        W14007   1.981  41.487   4.887
42392W        W14008  20.582  25.261  14.031
42393W        W14009   2.741  19.760   4.861
42394W        W14010  29.186   6.880   1.031
42395W        W14011  12.489   5.296  10.229
42396W        W14012   3.915  19.016   1.190
42397W        W14013  44.807   7.734   4.563
42398W        W14014  41.376  22.046  11.377
42399W        W14015  19.648  22.364   1.589
42400W        W14016  38.047  26.050  12.207
42401W        W14017   7.909  23.554  14.704
42402W        W14018  21.857  34.616  10.482
42403W        W14019  39.181  20.128  12.863
42404W        W14020  35.306  30.735  11.742
42405W        W14021  17.638  16.770  14.382
42406W        W14022   4.700  27.078  11.635
42407W        W14023  15.193  15.474  10.627
42408W        W14024   1.433  33.490   2.688
42409W        W14025   8.392  37.976  12.915
42410W        W14026  34.453   3.172   0.855
42411W        W14027  19.907  43.120  14.359
42412W        W14028  14.707  34.411   2.278
42413W        W14029  23.054   9.764  10.771
42414W        W14030  36.516  18.343  11.198
42415W        W14031  43.990  41.412  13.577
42416W        W14032  33.012   1.027   3.618
42417W        W14033  43.675  30.027  12.156
42418W        W14034   2.185  29.445   0.836
42419W        W14035  27.975  20.216  13.570
42420W        W14036  32.468  20.367   2.256
42421W        W14037  16.994  39.488   0.974
42422W        W14038  11.177  23.304   2.106
42423W        W14039  23.971  12.230   3.806
42424W        W14040   7.370  40.300  12.097
42425W        W14041  15.991  30.265  11.116
42426W        W14042  10.393   7.633   4.417
42427W        W14043  22.523   0.920  10.456
42428W        W14044   9.197  12.082   0.925
42429W        W14045  20.228  31.657  14.431
42430W        W14046  39.845  40.360  12.220
42431W        W14047  39.573  36.019  13.542
42432W        W14048   9.695  27.034   4.476
42433W        W14049   1.405   3.191  14.031
42434W        W14050  12.199  41.826   2.909
42435W        W14051  12.324   2.398   1.045
42436W        W14052  38.320   1.918  12.017
42437W        W14053   7.454  16.828  11.271
42438W        W14054   1.280  12.391   2.804
42439W        W14055  17.911   0.439   4.089
42440W        W14056  42.044  29.112   3.661
42441W        W14057   4.084   5.794   2.421
42442W        W14058  28.514  40.200  11.492
42443W        W14059  39.090   4.843  13.983
42444W        W14060  27.129  41.878   3.667
42445W        W14061  14.564  17.244  12.003
42446W        W14062  26.885  33.427  10.642
42447W        W14063   7.703   6.283  13.931
42448W        W14064   0.113  35.673   0.962
42449W        W14065   2.861   4.271   3.719
42450W        W14066  32.311  29.349  11.673
42451W        W14067   3.386  14.554  13.280
42452W        W14068   2.884  43.067  13.328
42453W        W14069   4.330  14.739  13.917
42454W        W14070  23.898  43.564  11.687
42455W        W14071  41.852  20.642   3.000
42456W        W14072  36.902  36.541  12.599
42457W        W14073   6.028  28.749   2.776
42458W        W14074  30.052  26.670   4.250
42459W        W14075  31.783  29.298  12.270
42460W        W14076  14.206   4.160   3.067
42461W        W14077  31.840  22.981  13.957
42462W        W14078  12.537  19.710   4.121
42463W        W14079  24.661  13.848   4.425
42464W        W14080  25.675  10.581   4.022
42465W        W14081  42.344   5.281  10.666
42466W        W14082  10.725  31.935   0.895
42467W        W14083  14.127  42.260   0.937
42468W        W14084  25.458  37.941  10.677
42469W        W14085  22.087   0.657   2.716
42470W        W14086  14.210  35.088  12.595
42471W        W14087  38.116  20.715  12.598
42472W        W14088  40.387  19.049  13.367
42473W        W14089  28.067   6.419  12.667
42474W        W14090  17.875  39.467  13.331
42475W        W14091   7.293  22.877  14.968
42476W        W14092  26.660  25.797   1.784
42477W        W14093   0.058  44.506   3.654
42478W        W14094  34.370  21.446   5.011
42479W        W14095  44.068  44.344   1.995
42480W        W14096   7.354  27.052   0.698
42481W        W14097  40.921  24.452  10.451
42482W        W14098  22.145  38.485  10.444
42483W        W14099  43.290  16.020   1.174
42484W        W14100  17.374  23.147   0.023
42485W        W14101  21.948   8.921   4.550
42486W        W14102  31.386  17.223   0.926
42487W        W14103  27.696  16.757  12.965
42488W        W14104  29.036  17.000  14.828
42489W        W14105  30.670  18.846  12.219
42490W        W14106   4.449  26.796  14.311
42491W        W14107  39.313  37.488   0.299
42492W        W14108  24.273  27.734  12.053
42493W        W14109   0.187  37.486  11.459
42494W        W14110  44.613  42.453   4.569
42495W        W14111  17.790  17.649   4.667
42496W        W14112  19.302   9.647  11.447
42497W        W14113  17.330  37.840  14.295
42498W        W14114  39.919  38.410   4.927
42499W        W14115  14.449  22.276  13.018
42500W        W14116   1.896  34.907   1.729
42501W        W14117  42.532   0.368   3.621
42502W        W14118  29.384   6.809   3.426
42503W        W14119  13.084  36.821  12.581
42504W        W14120  40.312   8.761   4.629
42505W        W14121  11.209  22.049  10.963
42506W        W14122  16.664  10.697  13.880
42507W        W14123  26.739   8.936  11.916
42508W        W14124  18.602  10.809  12.500
42509W        W14125  20.230   1.989   0.282
42510W        W14126  11.829  44.990  12.326
42511W        W14127  42.520  44.957  12.297
42512W        W14128  12.651   1.550  10.687
42513W        W14129  35.626   8.674  14.304
42514W        W14130  24.222  26.029   4.815
42515W        W14131  24.619  37.466  14.514
42516W        W14132  17.735  29.294   1.501
42517W        W14133  17.556   9.758  13.492
42518W        W14134   0.311  17.066   0.223
42519W        W14135   0.709  43.762   0.390
42520W        W14136  39.898  16.073  11.970
42521W        W14137  15.216  29.570  14.733
42522W        W14138  13.098  24.315   3.603
42523W        W14139  22.474  12.321   4.859
42524W        W14140  34.977  35.409   1.625
42525W        W14141  34.076  44.353  10.196
42526W        W14142   4.545  12.827  14.334
42527W        W14143   5.775  13.660   1.408
42528W        W14144  18.716   2.025  14.634
42529W        W14145  31.479   8.903   1.607
42530W        W14146   0.313  33.204  14.833
42531W        W14147  14.160   1.826   1.186
42532W        W14148  10.294  36.375   3.827
42533W        W14149  33.567  38.631   1.879
42534W        W14150  20.840  33.134  12.127
42535W        W14151  30.173  10.873  12.506
42536W        W14152   5.620  29.195  12.227
42537W        W14153   5.340  42.017   0.613
42538W        W14154   3.369  26.072  10.642
42539W        W14155  35.671  29.063   3.376
42540W        W14156  38.489  12.804   4.539
42541W        W14157  38.001  12.398   2.898
42542W        W14158  15.517  22.315   0.437
42543W        W14159  18.780  22.892   1.416
42544W        W14160  39.273  19.159   2.353
42545W        W14161  43.511  10.808   2.456
42546W        W14162  11.210  12.186   4.184
42547W        W14163  19.287  21.495  14.345
42548W        W14164  43.027  44.840   3.650
42549W        W14165  25.069   5.909   1.752
42550W        W14166   3.230  11.117   4.352
42551W        W14167  13.319  20.830   0.941
42552W        W14168  31.113  24.468   1.876
42553W        W14169  39.182  24.954  13.330
42554W        W14170  21.112  28.414  14.854
42555W        W14171  11.314  33.016   1.813
42556W        W14172  16.128  43.391  11.951
42557W        W14173   5.059  38.939   4.239
42558W        W14174  40.904  44.256   1.747
42559W        W14175  32.654  12.585   0.422
42560W        W14176  40.027  24.505   3.681
42561W        W14177  38.433  16.145  10.649
42562W        W14178  27.410   5.215   0.933
42563W        W14179  33.600  21.488   1.330
42564W        W14180   9.793   2.513   1.679
42565W        W14181   2.201  13.976  12.212
42566W        W14182  31.213  27.222  13.427
42567W        W14183  40.060  30.310   2.194
42568W        W14184  35.568  20.619  11.564
42569W        W14185  16.725  26.213   4.913
42570W        W14186  12.388  10.314   4.817
42571W        W14187  25.487  41.558   4.127
42572W        W14188  10.457   1.308   3.751
42573W        W14189  27.150  26.307  14.300
42574W        W14190  37.349  43.496  10.808
42575W        W14191  42.955  11.660   1.644
42576W        W14192  29.889   9.205   0.680
42577W        W14193  18.231  27.566  10.665
42578W        W14194  10.304   0.989   4.145
42579W        W14195  16.753  12.328  11.696
42580W        W14196  39.240  17.288  10.173
42581W        W14197  33.997   3.275  13.019
42582W        W14198   7.837  33.916   1.936
42583W        W14199   1.623  15.650  12.558
42584W        W14200  13.991  40.847  14.709
42585W        W14201  20.799  23.268  12.582
42586W        W14202  43.250   7.898   1.333
42587W        W14203  25.178  22.398  14.888
42588W        W14204  35.911  35.665  14.936
42589W        W14205  11.345  10.334   0.916
42590W        W14206   5.663   9.519   1.634
42591W        W14207   7.907   4.820  13.443
42592W        W14208  34.493   4.386  10.660
42593W        W14209  28.744   5.938  14.869
42594W        W14210  23.670  37.092   4.954
42595W        W14211  33.153  21.246  11.643
42596W        W14212  43.323   1.321   4.755
42597W        W14213   6.133  23.772   2.322
42598W        W14214  31.358  22.243   4.349
42599W        W14215  31.413  34.562  12.831
42600W        W14216  23.719  32.954  12.427
42601W        W14217  42.033  11.807   2.222
42602W        W14218   2.219  12.604  14.954
42603W        W14219  13.740   6.712  13.935
42604W        W14220  15.495  14.342  13.530
42605W        W14221  39.078  28.108  14.053
42606W        W14222  25.586  30.198   0.315
42607W        W14223  11.668   9.315  14.102
42608W        W14224  36.654  19.586  12.656
42609W        W14225   3.226  11.620  11.478
42610W        W14226  24.476   2.314   4.677
42611W        W14227  24.066  44.250   1.699
42612W        W14228   1.794  14.663   3.216
42613W        W14229  16.599  10.448   0.920
42614W        W14230  11.934  36.971   1.965
42615W        W14231  40.632  42.518   2.263
42616W        W14232  24.251  24.030  14.555
42617W        W14233   9.641  12.806   0.661
42618W        W14234  31.405  38.896  11.982
42619W        W14235  44.787   3.747  13.975
42620W        W14236   8.643  10.649   1.809
42621W        W14237  29.090  14.956  14.634
42622W        W14238  22.250  34.680  10.817
42623W        W14239  11.279  19.624  11.621
42624W        W14240  14.661  32.032  14.558
42625W        W14241   2.893   5.642   2.292
42626W        W14242  27.027  19.940   4.990
42627W        W14243  12.400   2.921  14.734
42628W        W14244   9.754   5.465  13.023
42629W        W14245  10.919  23.428   3.204
42630W        W14246  40.415  37.773   2.640
42631W        W14247  41.733   2.304   2.216
42632W        W14248  24.439  29.121   0.084
42633W        W14249  19.682  26.898   1.107
42634W        W14250  26.690  44.945  13.864
42635W        W14251   0.875   1.999   3.776
42636W        W14252  14.833  41.556  13.103
42637W        W14253  38.527  33.681   2.310
42638W        W14254  12.257  10.171   1.409
42639W        W14255  38.469  16.717  12.222
42640W        W14256  13.135  20.283  10.551
42641W        W14257  35.097  12.062   0.434
42642W        W14258  32.712  38.391   3.644
42643W        W14259  41.112  41.266   3.138
42644W        W14260  39.775  35.157   1.598
42645W        W14261   2.338  11.335  13.447
42646W        W14262  35.968  12.299  11.609
42647W        W14263  34.596   8.371   2.284
42648W        W14264  30.048  35.536  12.075
42649W        W14265  22.668  41.268   0.286
42650W        W14266   0.981  33.434   0.707
42651W        W14267   8.227  41.925   4.546
42652W        W14268  15.936  29.768  11.237
42653W        W14269  44.814   4.198  14.891
42654W        W14270   2.789  18.215   0.547
42655W        W14271  24.761  28.199   3.961
42656W        W14272   1.690  11.314  14.427
42657W        W14273  14.072  34.956   1.861
42658W        W14274  43.723  36.780   4.174
42659W        W14275  31.106  10.345   3.253
42660W        W14276  21.235   3.781   2.174
42661W        W14277   6.827  20.068  10.555
42662W        W14278  42.692   3.487  11.774
42663W        W14279  42.324  38.758  10.559
42664W        W14280  39.529  29.081   2.438
42665W        W14281   8.799  28.405   2.620
42666W        W14282  10.720   3.351  14.784
42667W        W14283  42.483   8.906   4.029
42668W        W14284   0.711  25.992   1.340
42669W        W14285   5.334   1.468  14.436
42670W        W14286  28.185  29.582  12.017
42671W        W14287  32.045   9.976   0.793
42672W        W14288  24.127  44.919   2.961
42673W        W14289  31.969  39.860  12.697
42674W        W14290   6.226   9.300   2.186
42675W        W14291  37.449   0.683   4.625
42676W        W14292  11.400  41.838  11.645
42677W        W14293  36.307  18.688  12.955
42678W        W14294  23.870  35.169  11.970
42679W        W14295  36.562  37.432   1.410
42680W        W14296  42.759  27.476  13.065
42681W        W14297  15.118  22.985   4.175
42682W        W14298  24.554   1.807  12.995
42683W        W14299  40.792  10.895  12.023
42684W        W14300  39.366  18.074   4.648
42685W        W14301  12.889  26.415   4.754
42686W        W14302   9.203  22.080  12.124
42687W        W14303   9.604  35.151  11.680
42688W        W14304  42.298  23.023  10.337
42689W        W14305  11.126  30.053  12.157
42690W        W14306  38.053   6.562  11.979
42691W        W14307  26.335  17.649   1.239
42692W        W14308  35.426  13.857  12.706
42693W        W14309  33.043  40.023  12.978
42694W        W14310  34.705  29.159   3.569
42695W        W14311  34.365   1.274   1.245
42696W        W14312  19.081  43.739   3.069
42697W        W14313  24.661  10.765   1.927
42698W        W14314   2.741   8.358   4.446
42699W        W14315  12.760  23.146   0.912
42700W        W14316  14.799  29.135  12.572
42701W        W14317  19.005  26.742  12.511
42702W        W14318  14.567   3.719  13.777
42703W        W14319  31.843  14.212   1.425
42704W        W14320  40.486  15.235   0.530
42705W        W14321  19.472  13.155  12.399
42706W        W14322  37.273  15.108  10.445
42707W        W14323  39.401  26.743  14.361
42708W        W14324  29.991  39.332  13.576
42709W        W14325  30.180  25.618  12.026
42710W        W14326  22.922  38.368  13.885
42711W        W14327  30.457  40.107   1.674
42712W        W14328  21.707   9.806  10.906
42713W        W14329  24.517  43.519  14.311
42714W        W14330  39.906  19.285   3.768
42715W        W14331   6.459  15.322  13.072
42716W        W14332  43.473  13.830  13.473
42717W        W14333  19.261   4.140  11.528
42718W        W14334   3.809  22.626   3.319
42719W        W14335  10.308  33.798  14.029
42720W        W14336  22.526  27.682  11.704
42721W        W14337  16.257  29.235  11.321
42722W        W14338  39.578  22.020  12.101
42723W        W14339  42.873  38.655   5.625
42724W        W14340  13.858  28.409  12.900
42725W        W14341  44.181  28.412   0.201
42726W        W14342  10.319   5.694  12.032
42727W        W14343  12.130   4.238  12.378
42728W        W14344  33.962  14.521   2.526
42729W        W14345   5.142   7.220   0.319
42730W        W14346   7.036  34.787   3.639
42731W        W14347  38.111   7.036   0.717
42732W        W14348  23.611  36.802  11.173
42733W        W14349  22.244  20.214   3.776
42734W        W14350  28.576  30.669  11.910
42735W        W14351  14.417  29.819   1.643
42736W        W14352  42.403   4.339  11.962
42737W        W14353  11.367  20.715   4.053
42738W        W14354   3.595  36.904  13.462
42739W        W14355   9.750  30.544  14.071
42740W        W14356   9.172  36.474   4.969
42741W        W14357  23.278  35.874   0.873
42742W        W14358  12.129   0.556   0.459
42743W        W14359  42.911  40.838  12.541
42744W        W14360  39.087   6.418  14.025
42745W        W14361  27.638  27.852  11.872
42746W        W14362  41.942  41.615  14.443
42747W        W14363  39.166  11.371  12.413
42748W        W14364  15.168  19.117  10.891
42749W        W14365  44.885   4.607  10.622
42750W        W14366  17.335   6.387   2.807
42751W        W14367  25.044   6.406   0.847
42752W        W14368  31.807  27.273  10.141
42753W        W14369  10.461   9.362  12.902
42754W        W14370  30.645  11.080   0.809
42755W        W14371  35.442  44.368  13.568
42756W        W14372   1.777  25.611   3.804
42757W        W14373   4.393  36.835  12.173
42758W        W14374  43.420  25.648   4.804
42759W        W14375  40.897   5.039   4.183
42760W        W14376   8.264  19.796  14.264
42761W        W14377  36.505  40.439  12.473
42762W        W14378  44.689  28.674  13.801
42763W        W14379  40.408  43.544  13.067
42764W        W14380  44.272   1.431  12.106
42765W        W14381  34.652  24.089  13.075
42766W        W14382  32.036  19.011   0.841
42767W        W14383  20.704  22.689   4.171
42768W        W14384   0.598  32.315   2.016
42769W        W14385   0.716  23.717   5.366
42770W        W14386  18.074  10.599   3.264
42771W        W14387  24.953  36.065   1.964
42772W        W14388  16.192   4.811   1.475
42773W        W14389  26.238  44.520  12.546
42774W        W14390  30.698  26.454   1.704
42775W        W14391  35.447  37.025  11.516
42776W        W14392  36.973   8.950   1.822
42777W        W14393  35.611  41.413   1.228
42778W        W14394  44.109  40.550   0.160
42779W        W14395  26.742  40.470   5.121
42780W        W14396  41.450  27.430  14.873
42781W        W14397  17.075   3.279  11.906
42782W        W14398  15.891  16.168   2.915
42783W        W14399  11.325  23.942   1.986
42784W        W14400  12.288  23.703   1.803
42785W        W14401  19.725  35.632   2.861
42786W        W14402  38.769  26.433   2.256
42787W        W14403   8.235  18.629  12.932
42788W        W14404  13.342  21.277   1.366
42789W        W14405  17.528  14.049  10.609
42790W        W14406  41.442   0.781   4.064
42791W        W14407  16.272  20.666   0.211
42792W        W14408   9.374  30.992   4.382
42793W        W14409   3.684  17.137   1.327
42794W        W14410   3.909  22.022   4.996
42795W        W14411  26.453  33.968   2.784
42796W        W14412  25.613  23.926  12.593
42797W        W14413  31.271  27.658  12.430
42798W        W14414   9.485  21.118   3.044
42799W        W14415  44.162  33.327   2.837
42800W        W14416  18.088   0.884   3.339
42801W        W14417   2.465   2.955   1.817
42802W        W14418  21.179  16.808  11.217
42803W        W14419  22.301  28.710  12.480
42804W        W14420   5.124  32.534   3.151
42805W        W14421  18.914  31.666   1.867
42806W        W14422  18.691  44.725  12.451
42807W        W14423  21.728   5.982  11.059
42808W        W14424  31.373   7.215   1.893
42809W        W14425  29.855  15.226   3.730
42810W        W14426   8.433   5.468  11.718
42811W        W14427  29.667  35.061  11.233
42812W        W14428  31.865   6.504   1.020
42813W        W14429   5.230  27.720  13.480
42814W        W14430  21.326  35.070   0.392
42815W        W14431  41.010  38.818  13.374
42816W        W14432  22.569  18.007   0.358
42817W        W14433  34.996   3.919   3.230
42818W        W14434  16.106  36.552  13.541
42819W        W14435  15.296  20.108  11.693
42820W        W14436  20.711  44.250  11.542
42821W        W14437  29.087  32.798  13.141
42822W        W14438  28.202  31.505   1.973
42823W        W14439  26.802   3.745  11.846
42824W        W14440   2.096  28.470  12.256
42825W        W14441  41.227  43.812  14.878
42826W        W14442  32.638   6.959  13.999
42827W        W14443  39.440  42.929  10.674
42828W        W14444  29.388  30.975  13.749
42829W        W14445  13.025  39.156  12.687
42830W        W14446  35.091  34.460   2.076
42831W        W14447  29.581  11.389   2.733
42832W        W14448  11.197  11.876   1.766
42833W        W14449  10.708   5.953   3.647
42834W        W14450   3.874   5.252  10.437
42835W        W14451  44.906   0.800  13.799
42836W        W14452   3.644   3.536   2.212
42837W        W14453   8.257   1.503  12.565
42838W        W14454  22.227  39.907   3.328
42839W        W14455  19.025  18.591   2.855
42840W        W14456  30.605  40.633   0.201
42841W        W14457  26.656  34.668   2.112
42842W        W14458  13.639  38.400   2.911
42843W        W14459  13.307  21.452  12.356
42844W        W14460   4.056  18.921  12.447
42845W        W14461  38.573  36.911  11.462
42846W        W14462  27.560  25.140   0.325
42847W        W14463  42.416  14.685   2.813
42848W        W14464  41.878   4.773  14.371
42849W        W14465   3.955  43.197   3.336
42850W        W14466  16.042  16.954   4.955
42851W        W14467  20.650  31.590  12.813
42852W        W14468  43.794  10.692   1.382
42853W        W14469  37.794  20.718   1.777
42854W        W14470  14.366   0.326   3.622
42855W        W14471  40.113   3.177   1.361
42856W        W14472  26.469  18.893   2.377
42857W        W14473  35.894   1.366   0.272
42858W        W14474  28.698  19.250   1.387
42859W        W14475  21.962   4.893  13.712
42860W        W14476  44.911  12.084  11.857
42861W        W14477  33.560  32.493   2.359
42862W        W14478  20.355  42.336   5.078
42863W        W14479   7.361  33.843  10.384
42864W        W14480  16.590  19.901   0.856
42865W        W14481   6.602  22.594   0.919
42866W        W14482  43.965  43.068   0.789
42867W        W14483  21.181  19.086  11.557
42868W        W14484  29.957  11.618   0.134
42869W        W14485   4.672  16.382  14.609
42870W        W14486  38.623  42.968   2.172
42871W        W14487   5.500  34.655  10.889
42872W        W14488  26.695  35.429   1.051
42873W        W14489  18.844   0.486   3.153
42874W        W14490  13.319   8.501  13.611
42875W        W14491  18.448  27.751  11.996
42876W        W14492  26.571  43.075   2.585
42877W        W14493   8.128  10.100   3.749
42878W        W14494  34.922  13.643   2.645
42879W        W14495   4.179  10.416   0.250
42880W        W14496   8.208   1.263   2.375
42881W        W14497  29.107  12.766   3.129
42882W        W14498   6.515  19.719  14.252
42883W        W14499   2.237  17.022   0.386
42884W        W14500  37.502  38.216  12.373
42885W        W14501  29.617  22.245   3.838
42886W        W14502  44.762  30.602   0.457
42887W        W14503  44.567  26.621  12.109
42888W        W14504  16.775  21.240   0.402
42889W        W14505   9.146  13.970  10.717
42890W        W14506  10.823  10.460  13.483
42891W        W14507   2.378   6.394   2.406
42892W        W14508   5.946  38.986  13.866
42893W        W14509   7.651  15.712  11.639
42894W        W14510  41.838  11.357  12.558
42895W        W14511   0.851  32.338   3.194
42896W        W14512  41.491  19.173   0.458
42897W        W14513  43.986  22.183  14.459
42898W        W14514  20.287  29.495   0.450
42899W        W14515  33.549  11.053  11.137
42900W        W14516  22.310  10.402  10.548
42901W        W14517   3.098  23.599  13.957
42902W        W14518  10.703   0.745  10.251
42903W        W14519   6.806  37.611  12.829
42904W        W14520   5.379  43.023   2.283
42905W        W14521   4.297  22.507  12.466
42906W        W14522  29.535   1.526  13.055
42907W        W14523   0.910  23.229   4.121
42908W        W14524  30.442  31.913   0.064
42909W        W14525  22.684  33.588  12.417
42910W        W14526   3.307   9.825  12.479
42911W        W14527  43.432  32.565  12.831
42912W        W14528  43.452   2.990  11.999
42913W        W14529  15.237   1.660   0.739
42914W        W14530  37.351  10.982   3.297
42915W        W14531  41.064  10.627   0.421
42916W        W14532   6.542  38.824   4.556
42917W        W14533  22.603  34.391  12.889
42918W        W14534  35.133  27.442   3.479
42919W        W14535  36.067   5.205  12.337
42920W        W14536  37.581  28.438  10.407
42921W        W14537  23.665  14.675  12.089
42922W        W14538  10.720  44.253   1.875
42923W        W14539  37.562   0.932  10.885
42924W        W14540  43.516  42.045   3.856
42925W        W14541  25.168   2.882  12.082
42926W        W14542  42.869  41.452  12.871
42927W        W14543   4.710  19.285  11.179
42928W        W14544  33.526   3.078  12.920
42929W        W14545  35.094   2.233  12.867
42930W        W14546  21.779  20.675   3.141
42931W        W14547  42.456   3.264  11.046
42932W        W14548  31.136  18.599  14.753
42933W        W14549  33.999  40.116  13.345
42934W        W14550   9.104  28.642   4.154
42935W        W14551  40.351  28.890   2.082
42936W        W14552   9.661  34.821   4.077
42937W        W14553  39.966  11.946  14.094
42938W        W14554  25.238  13.526  11.580
42939W        W14555  38.084  36.003   3.726
42940W        W14556  36.041  40.820   3.595
42941W        W14557   5.531  37.136  13.115
42942W        W14558  14.622   0.814  14.890
42943W        W14559  21.031  15.344   3.639
42944W        W14560  44.221   8.660   1.473
42945W        W14561  12.676  13.857  13.575
42946W        W14562   2.417   3.794   0.699
42947W        W14563  18.093  20.221  11.246
42948W        W14564  18.108  34.948  12.037
42949W        W14565  33.515  23.026  10.964
42950W        W14566  38.614  20.731   1.542
42951W        W14567  39.038  25.674   1.183
42952W        W14568  39.782  17.661   3.758
42953W        W14569  21.950  40.467   2.690
42954W        W14570  11.846   3.004  12.087
42955W        W14571   6.120  35.885   1.524
42956W        W14572  43.940  19.231   0.440
42957W        W14573   8.909  27.026   3.718
42958W        W14574  31.513  25.159   2.405
42959W        W14575  10.046  31.639   4.617
42960W        W14576  14.302  22.311   0.835
42961W        W14577  17.282   0.646  13.486
42962W        W14578  34.433   0.825  13.105
42963W        W14579   4.982  17.133  10.653
42964W        W14580  32.007   8.195   2.178
42965W        W14581  16.722  32.626  14.970
42966W        W14582   8.887   8.777   2.198
42967W        W14583  12.861  30.369   0.887
42968W        W14584  13.915  31.307  14.384
42969W        W14585  36.247  24.968   9.931
42970W        W14586  29.721   7.691  12.477
42971W        W14587  13.340  27.466  14.494
42972W        W14588   8.154  44.920   4.641
42973W        W14589  20.539  13.924  12.810
42974W        W14590  12.346  38.947   2.663
42975W        W14591  41.803   6.438  13.191
42976W        W14592   8.244  20.529   2.267
42977W        W14593  10.420  21.086   2.775
42978W        W14594  40.479  41.283   0.843
42979W        W14595  22.782  10.124  14.892
42980W        W14596   7.824  34.365   3.854
42981W        W14597  22.354  41.879  10.300
42982W        W14598  15.737  40.326   4.689
42983W        W14599   3.317   7.849  11.098
42984W        W14600  38.829   9.741  10.556
42985W        W14601  39.488  16.831  12.016
42986W        W14602  13.525   8.793   2.189
42987W        W14603   8.865  35.447   4.222
42988W        W14604  32.083   6.998   2.931
42989W        W14605  22.233  30.191  12.536
42990W        W14606  10.852  17.924   1.798
42991W        W14607   9.202  28.665   1.880
42992W        W14608  19.764   5.996   1.968
42993W        W14609   7.229  36.299   4.715
42994W        W14610  32.945  26.395   4.395
42995W        W14611  30.017   3.303  12.066
42996W        W14612   5.913  15.660   4.462
42997W        W14613  33.981  25.169   0.705
42998W        W14614  32.646  10.814   1.928
42999W        W14615   2.463  21.972   3.371
43000W        W14616  21.314  28.227  12.981
43001W        W14617  19.731  11.369  12.400
43002W        W14618  41.567  13.303  10.793
43003W        W14619  43.799   7.693  12.254
43004W        W14620  41.434  11.158   3.083
43005W        W14621  21.653   2.366  10.684
43006W        W14622  18.771  36.119  14.453
43007W        W14623  31.871  44.745   2.881
43008W        W14624  16.826  21.857  13.254
43009W        W14625   7.727   4.726   5.106
43010W        W14626  14.529  22.277  11.953
43011W        W14627   0.770  15.645  13.506
43012W        W14628   1.785  43.347   4.593
43013W        W14629   3.721  23.155   2.595
43014W        W14630  27.910  15.778  10.668
43015W        W14631  17.647  39.303  10.709
43016W        W14632  22.496  25.086  10.691
43017W        W14633  40.349  36.603  12.440
43018W        W14634  40.039  15.132   4.549
43019W        W14635   1.903  11.871  11.958
43020W        W14636  41.862  30.604  12.097
43021W        W14637   8.233  28.182   0.892
43022W        W14638  32.582  28.613   2.288
43023W        W14639  13.202   6.213  12.681
43024W        W14640   0.070  39.551  13.880
43025W        W14641  42.143  23.977   5.205
43026W        W14642  30.375  17.942   1.956
43027W        W14643  44.314  26.703  11.603
43028W        W14644  41.388  36.939  12.983
43029W        W14645  25.190   0.003  11.523
43030W        W14646   2.930   3.801   0.628
43031W        W14647  41.618  22.229   1.657
43032W        W14648  37.433   4.553   0.892
43033W        W14649  35.938  36.894  13.343
43034W        W14650  18.168  34.806  14.471
43035W        W14651  26.011  19.748  13.517
43036W        W14652   3.316  20.544   3.668
43037W        W14653  22.867  35.180   3.694
43038W        W14654   4.300  22.178   0.433
43039W        W14655  12.632  25.699   3.795
43040W        W14656  26.184  44.944   4.103
43041W        W14657  15.104  20.224   0.557
43042W        W14658  21.815  17.590  12.788
43043W        W14659  15.179  24.537  13.523
43044W        W14660  27.041  30.390   2.493
43045W        W14661  24.163  18.382   1.222
43046W        W14662  31.123  28.963  12.850
43047W        W14663  38.431  35.552  11.840
43048W        W14664  18.809  28.710  11.006
43049W        W14665  34.897  18.586   2.757
43050W        W14666  17.476  16.207  11.727
43051W        W14667  31.511  22.635   2.894
43052W        W14668   1.971  27.166  14.900
43053W        W14669  39.605  16.903   1.350
43054W        W14670  18.089  24.711   4.550
43055W        W14671   8.372  38.642   1.412
43056W        W14672  20.627  41.324   3.282
43057W        W14673  13.234  19.037   3.633
43058W        W14674  17.544  17.788  11.474
43059W        W14675  43.132  16.748  14.924
43060W        W14676  11.317  23.770   3.306
43061W        W14677  26.492  13.746   2.351
43062W        W14678  25.084  39.985  14.543
43063W        W14679  32.419  18.742  11.501
43064W        W14680  29.106  40.229  13.923
43065W        W14681  39.914  13.592  10.553
43066W        W14682  21.550  29.572   3.570
43067W        W14683   4.222  25.430   2.947
43068W        W14684  25.844  22.320  10.321
43069W        W14685  41.052  25.514  13.420
43070W        W14686   0.286  41.402   0.515
43071W        W14687  27.170   0.880   0.341
43072W        W14688   6.434  22.703   4.964
43073W        W14689  25.725  12.353  14.587
43074W        W14690  24.741  39.331  14.286
43075W        W14691  24.199  23.555   2.272
43076W        W14692   7.822  39.471   2.836
43077W        W14693  10.267  23.102   1.505
43078W        W14694  27.930  18.769   0.698
43079W        W14695  26.761  29.888   0.737
43080W        W14696  35.002  25.958   2.842
43081W        W14697  31.044   0.527   1.304
43082W        W14698  42.082  44.591  12.091
43083W        W14699  22.085  13.338   4.891
43084W        W14700  18.044  44.252   4.991
43085W        W14701  33.073   5.228   1.508
43086W        W14702  26.829   3.553  10.180
43087W        W14703   6.268  39.545   1.703
43088W        W14704  28.929  10.726  10.822
43089W        W14705  34.849   8.326  11.960
43090W        W14706  42.991  39.617   0.401
43091W        W14707  44.230   1.703   0.226
43092W        W14708  18.199  21.536  10.957
43093W        W14709  20.070  16.095   2.861
43094W        W14710  37.876   1.683  12.201
43095W        W14711  22.371  40.359   1.721
43096W        W14712  27.554  18.153   0.257
43097W        W14713   7.755  44.818   1.975
43098W        W14714  31.413  44.265  13.321
43099W        W14715  14.328  25.631   3.632
43100W        W14716  37.992  32.543   1.980
43101W        W14717  32.168   0.672  10.689
43102W        W14718  38.019  16.183  12.848
43103W        W14719  27.056  22.226  13.778
43104W        W14720  21.228   4.766   2.258
43105W        W14721  28.045   1.364   0.223
43106W        W14722  36.931   5.837   4.266
43107W        W14723  12.697  38.517  10.710
43108W        W14724  32.174   1.775   0.496
43109W        W14725  43.187  32.666  11.231
43110W        W14726  27.908  13.143   4.045
43111W        W14727  38.862  44.999   4.235
43112W        W14728  27.112  29.147   4.297
43113W        W14729   4.916  13.429   1.015
43114W        W14730   3.023  31.061   1.746
43115W        W14731  18.379  41.433  11.122
43116W        W14732   6.078  35.622  14.003
43117W        W14733  41.003  18.332   3.397
43118W        W14734  22.652  29.949  12.092
43119W        W14735  18.586  25.705   4.538
43120W        W14736  34.798  31.002  10.436
43121W        W14737  36.601  41.619  13.813
43122W        W14738  37.775  35.519  13.259
43123W        W14739  29.763  41.606   5.065
43124W        W14740  35.042  43.383   2.526
43125W        W14741  27.640  25.267   1.799
43126W        W14742   8.134   4.131  11.896
43127W        W14743  15.685   5.717   3.699
43128W        W14744  25.657  42.301   3.438
43129W        W14745   5.845  22.943   3.706
43130W        W14746  21.046   4.213   4.184
43131W        W14747  27.906  12.725  12.928
43132W        W14748   5.974  35.421   2.168
43133W        W14749  39.238  31.589   0.936
43134W        W14750   5.888  32.862   2.704
43135W        W14751  15.375  21.183  10.470
43136W        W14752  10.927  26.079   3.273
43137W        W14753   7.188  36.169   4.176
43138W        W14754  12.202   8.804  11.244
43139W        W14755  16.964  27.687   3.782
43140W        W14756  42.836  42.694   2.835
43141W        W14757  13.143  41.260   1.273
43142W        W14758  39.378  21.694   1.871
43143W        W14759  16.587  23.743   2.277
43144W        W14760  19.682   0.696   1.718
43145W        W14761  33.902  13.833  13.928
43146W        W14762  10.892  33.363  10.638
43147W        W14763  14.998  42.344   1.362
43148W        W14764   8.080  34.520   1.410
43149W        W14765  41.620  39.268   1.925
43150W        W14766  37.327   8.929  12.702
43151W        W14767  42.259  13.318   0.716
43152W        W14768  42.474   3.855   1.242
43153W        W14769   4.291  29.125  13.489
43154W        W14770   5.852  43.441  10.576
43155W        W14771  37.016   5.719  10.686
43156W        W14772  14.481  21.116   1.949
43157W        W14773  22.213  43.033  12.922
43158W        W14774  41.297  21.108   3.551
43159W        W14775   2.291  29.456  12.994
43160W        W14776  36.453  23.926  12.109
43161W        W14777   1.790  29.349   1.890
43162W        W14778   3.608  11.162  12.842
43163W        W14779  42.278  41.336   0.414
43164W        W14780  16.048   3.637   4.615
43165W        W14781  13.060  19.839  10.165
43166W        W14782  30.598  26.965  13.429
43167W        W14783   0.780  38.498   3.672
43168W        W14784  42.110  21.812  11.248
43169W        W14785  24.313   0.836   3.059
43170W        W14786   7.849  37.296   3.599
43171W        W14787   6.755  19.603  13.280
43172W        W14788  29.435  41.449   0.553
43173W        W14789  12.189  20.587  14.957
43174W        W14790  42.451  16.347   1.869
43175W        W14791  27.586  13.901   2.456
43176W        W14792  35.605  14.651  12.452
43177W        W14793  23.559  40.479   4.682
43178W        W14794  25.534  17.907   0.223
43179W        W14795  12.483   3.777   3.736
43180W        W14796  33.956  31.413   3.663
43181W        W14797  42.808  27.592  10.709
43182W        W14798  10.006  42.951   4.047
43183W        W14799   0.694  26.519   1.325
43184W        W14800  14.474  40.416  10.122
43185W        W14801  37.569   2.472   2.700
43186W        W14802   2.743  32.871  12.989
43187W        W14803  11.396  34.425  10.754
43188W        W14804   6.386  12.008  12.450
43189W        W14805  10.779  39.326  11.305
43190W        W14806  40.887  11.739   2.958
43191W        W14807  18.519  10.849   2.299
43192W        W14808  23.148   0.379   3.268
43193W        W14809  37.923  40.712   2.756
43194W        W14810   4.362  28.520   0.808
43195W        W14811  28.955  34.990   0.777
43196W        W14812  35.586  17.655  13.521
43197W        W14813   5.798   6.560   0.802
43198W        W14814  24.620  11.319   4.880
43199W        W14815   1.999  16.565   4.256
43200W        W14816  16.691   1.653  11.194
43201W        W14817  41.569  16.734   2.808
43202W        W14818  37.708   5.907  13.617
43203W        W14819  13.824  18.065   1.883
43204W        W14820  19.731   3.088   5.072
43205W        W14821  31.689  41.036   1.839
43206W        W14822   1.070   4.714  10.258
43207W        W14823  19.143  25.527   1.626
43208W        W14824  28.429   1.496  13.385
43209W        W14825  27.694  44.422  14.305
43210W        W14826   8.293   6.217   4.559
43211W        W14827   3.198  11.793  14.825
43212W        W14828  23.708  31.988  10.163
43213W        W14829   4.729  36.245   0.767
43214W        W14830  33.549  14.205   0.030
43215W        W14831   1.067  29.151   3.724
43216W        W14832  14.320  10.249  14.696
43217W        W14833  17.059  22.157   3.910
43218W        W14834  10.523  22.766  13.341
43219W        W14835  29.656  17.721  12.585
43220W        W14836  43.489  16.809  11.526
43221W        W14837   5.150  24.865  11.088
43222W        W14838  28.435  27.547  11.929
43223W        W14839   6.415  10.244  11.965
43224W        W14840   0.455  32.233   2.832
43225W        W14841  32.017  43.454   0.712
43226W        W14842  25.170  38.007  14.985
43227W        W14843   2.505   5.757  13.964
43228W        W14844  22.093  39.319  10.788
43229W        W14845  37.913  32.570  13.417
43230W        W14846  44.368  34.490   0.750
43231W        W14847  19.756  16.046   1.869
43232W        W14848  15.707  44.400  11.028
43233W        W14849  43.350  12.352   3.279
43234W        W14850  21.256  16.399  14.541
43235W        W14851  38.342  12.631  13.521
43236W        W14852   3.325   5.321   2.250
43237W        W14853  20.992  20.826   3.932
43238W        W14854   3.844   6.848   1.382
43239W        W14855  28.148   4.437   3.722
43240W        W14856  12.919  44.024   2.702
43241W        W14857  13.813  26.919   2.082
43242W        W14858  28.090   6.989  14.462
43243W        W14859  16.398  11.855   2.936
43244W        W14860   8.466  43.824  11.097
43245W        W14861  41.845  14.064   4.776
43246W        W14862   5.639  37.163   0.782
43247W        W14863  21.940  43.572  12.023
43248W        W14864  27.285  32.425  10.536
43249W        W14865  16.036  30.354  11.987
43250W        W14866  20.701   7.192   0.783
43251W        W14867  21.691  44.769   0.895
43252W        W14868  33.569   0.716  14.081
43253W        W14869   6.962  42.796  14.382
43254W        W14870  25.751  21.040  14.897
43255W        W14871   2.911  29.544  12.636
43256W        W14872   7.798  27.918   0.962
43257W        W14873   4.361  19.979   1.032
43258W        W14874  32.894  25.583  11.168
43259W        W14875  11.346  32.960  12.515
43260W        W14876  29.740  33.237   3.579
43261W        W14877   8.585  30.543   2.813
43262W        W14878  25.910  15.541  13.559
43263W        W14879  13.323  34.009  10.577
43264W        W14880   6.924  11.755  14.273
43265W        W14881   5.753  30.147   1.282
43266W        W14882  19.767  29.686   1.814
43267W        W14883  22.218  25.237  13.951
43268W        W14884   4.522  28.654   4.290
43269W        W14885  13.837  34.506   0.738
43270W        W14886  40.409  42.899  11.002
43271W        W14887  19.320  34.297  13.921
43272W        W14888  20.611   5.741  11.662
43273W        W14889   2.780  25.128  13.985
43274W        W14890  11.135  30.470   1.906
43275W        W14891  11.369   6.463  11.554
43276W        W14892   0.657  19.059  11.528
43277W        W14893  43.287  20.908   2.792
43278W        W14894  22.197  23.884   0.483
43279W        W14895  18.189  13.201  12.821
43280W        W14896  19.977   5.722  10.352
43281W        W14897  24.952  25.096  11.510
43282W        W14898  39.976  12.169   4.626
43283W        W14899  27.664  35.357  13.895
43284W        W14900  17.264  14.383  10.222
43285W        W14901  19.856  33.433   1.796
43286W        W14902   8.248  17.150   4.160
43287W        W14903  27.264  38.508   3.872
43288W        W14904   6.432  38.947   0.435
43289W        W14905  41.011   5.248   1.129
43290W        W14906  33.723  17.229  10.479
43291W        W14907  20.983   9.168  12.910
43292W        W14908  30.136  34.650  12.510
43293W        W14909  17.110  39.738   1.795
43294W        W14910   7.751  29.915   1.403
43295W        W14911  31.763   9.938  11.681
43296W        W14912  11.813  35.392  14.433
43297W        W14913  26.541  10.366   0.605
43298W        W14914  14.897  29.634  12.633
43299W        W14915  15.228  14.033   4.227
43300W        W14916  21.668   9.084  13.502
43301W        W14917  15.862  17.252  13.363
43302W        W14918   5.661  11.784   2.387
43303W        W14919   9.845  11.718  12.308
43304W        W14920  31.630  35.579   3.171
43305W        W14921   4.852  25.370  11.030
43306W        W14922   7.670  36.602   1.233
43307W        W14923  21.213  34.344   0.039
43308W        W14924  12.786  35.057  13.463
43309W        W14925  31.414  34.402   4.297
43310W        W14926  27.953  11.557  11.516
43311W        W14927   1.180  23.626  14.676
43312W        W14928  40.886  32.347   1.784
43313W        W14929  41.010   4.800  13.562
43314W        W14930  40.607  28.887  12.152
43315W        W14931  18.275  22.239  11.537
43316W        W14932  28.487  30.708   2.445
43317W        W14933  29.656   6.220  14.045
43318W        W14934  21.512  14.277  14.329
43319W        W14935  23.178  29.698   1.268
43320W        W14936  43.898   2.729   3.326
43321W        W14937  32.912  28.483  12.497
43322W        W14938   9.186  19.769   4.183
43323W        W14939  12.081   7.806   0.676
43324W        W14940  39.981  21.069  13.011
43325W        W14941  28.361  30.049  11.854
43326W        W14942  33.012  23.705  14.040
43327W        W14943  44.486  29.385  14.013
43328W        W14944  34.778  17.447   3.696
43329W        W14945   6.728   9.856   3.430
43330W        W14946  26.205  30.109   1.883
43331W        W14947  30.693  38.916  13.383
43332W        W14948  32.166   2.280   3.750
43333W        W14949   1.844   0.738  13.484
43334W        W14950   3.020  24.953   2.698
43335W        W14951  37.810   4.270   3.768
43336W        W14952   6.465   7.472  14.900
43337W        W14953  30.159  10.300   3.149
43338W        W14954  33.084  25.639  12.413
43339W        W14955   8.686  14.862  14.039
43340W        W14956  35.856  15.647  12.186
43341W        W14957  10.056  23.552   3.411
43342W        W14958  12.190   7.428   2.649
43343W        W14959   1.143  25.250   0.312
43344W        W14960  38.343  24.476  13.815
43345W        W14961  23.056   6.374  14.615
43346W        W14962  29.978  10.673   4.555
43347W        W14963   6.766  16.507  13.042
43348W        W14964  42.969   7.141   2.248
43349W        W14965   4.253  40.020  11.563
43350W        W14966  32.034  39.043  14.053
43351W        W14967  23.043  42.271  12.309
43352W        W14968  25.519  34.594  13.022
43353W        W14969   7.820  44.942  10.699
43354W        W14970   4.148   8.405  12.952
43355W        W14971  21.811   9.864   4.224
43356W        W14972   6.152   2.260  11.884
43357W        W14973   6.735  23.060  13.583
43358W        W14974  11.754  44.625   5.094
43359W        W14975  22.973  13.114   4.646
43360W        W14976   5.248  27.210   3.761
43361W        W14977  38.030  42.097  10.737
43362W        W14978  21.804  26.958   3.800
43363W        W14979  11.727  27.043   0.276
43364W        W14980   3.755  15.248   0.257
43365W        W14981  31.432  23.787   3.131
43366W        W14982  30.939  30.983  11.814
43367W        W14983  15.259  39.562   1.473
43368W        W14984  34.457  33.628  14.343
43369W        W14985   6.288  36.870  12.029
43370W        W14986   9.883  25.753   2.257
43371W        W14987  23.912  31.717  11.952
43372W        W14988  41.873  19.302   3.075
43373W        W14989  10.123  31.902   3.129
43374W        W14990  40.068  23.636   0.334
43375W        W14991  25.344  12.281  14.930
43376W        W14992  13.681  31.559   0.631
43377W        W14993  10.153  10.822  14.432
43378W        W14994  40.998  13.057  11.972
43379W        W14995  38.681  33.842   4.124
43380W        W14996   7.227   5.246  10.433
43381W        W14997   5.922  24.297   4.295
43382W        W14998  13.081  10.913  11.079
43383W        W14999  23.277  12.349   1.807
43384W        W15000  30.944  22.571   2.699
43385W        W15001  29.433  44.789   4.628
43386W        W15002  21.368  21.639   3.195
43387W        W15003  26.992  30.713  14.028
43388W        W15004  17.383   3.913  12.619
43389W        W15005  10.601  25.823   3.635
43390W        W15006  21.322  37.114  14.490
43391W        W15007  43.793  16.277  10.553
43392W        W15008  36.294  18.818   1.196
43393W        W15009   5.419  12.652   2.804
43394W        W15010  31.051  16.920  13.927
43395W        W15011  30.344  24.853   3.633
43396W        W15012   8.085   9.650  12.262
43397W        W15013  19.251   1.439  10.710
43398W        W15014  42.665  21.787  11.285
43399W        W15015   1.438  16.217  10.528
43400W        W15016  12.781   1.781   3.387
43401W        W15017  41.878  35.003  12.178
43402W        W15018   2.768  11.266  11.605
43403W        W15019  43.149  20.397   2.776
43404W        W15020   6.288  13.864  11.984
43405W        W15021  16.566  16.535   4.161
43406W        W15022  42.964  29.202   0.474
43407W        W15023  28.700   0.933   2.337
43408W        W15024  34.544   6.458   0.446
43409W        W15025  10.345  40.496  11.336
43410W        W15026   2.730  33.981  13.883
43411W        W15027  21.707  27.882   0.070
43412W        W15028   2.664  11.882   0.314
43413W        W15029  15.960  35.378  10.653
43414W        W15030  33.277  30.590  11.457
43415W        W15031  30.685  38.084  13.331
43416W        W15032   7.347  25.411   1.668
43417W        W15033  20.838  44.371   4.629
43418W        W15034  42.022  21.465   2.382
43419W        W15035  41.794  41.386  11.118
43420W        W15036  21.282   5.287  10.537
43421W        W15037  16.118  23.157   0.935
43422W        W15038  22.235  31.084  11.099
43423W        W15039  29.480   6.938   4.857
43424W        W15040  34.582   3.214  11.454
43425W        W15041   3.643   8.843   0.537
43426W        W15042  20.486   9.582  12.895
43427W        W15043  31.892  36.533   5.136
43428W        W15044  14.816  11.321   4.086
43429W        W15045  36.110  10.838   1.109
43430W        W15046  12.626   4.422   1.640
43431W        W15047  29.307   1.855   0.752
43432W        W15048  30.558   0.782   1.271
43433W        W15049  17.217   7.419  13.983
43434W        W15050  14.652   1.928   2.462
43435W        W15051  24.499   2.499  13.391
43436W        W15052  18.559  11.998  10.575
43437W        W15053  21.752  15.815  10.675
43438W        W15054  30.377  27.590   0.023
43439W        W15055  27.572   7.036   3.879
43440W        W15056  13.419  34.658   1.435
43441W        W15057  12.778  23.023   3.706
43442W        W15058   9.834  15.076   4.240
43443W        W15059  43.538   3.479  14.292
43444W        W15060   3.963  42.432  13.310
43445W        W15061  36.839  25.293   2.006
43446W        W15062  36.078  34.439  12.866
43447W        W15063  24.738  24.529  10.667
43448W        W15064   0.243  31.974   1.819
43449W        W15065  31.349  40.532  13.542
43450W        W15066  33.962  35.333  11.994
43451W        W15067  34.169  14.017  12.141
43452W        W15068  21.514  21.935   2.335
43453W        W15069  23.393  32.456   4.424
43454W        W15070  41.767  32.158  11.549
43455W        W15071  30.907  37.075   4.880
43456W        W15072  24.600  24.057   1.497
43457W        W15073  31.730  20.720   2.984
43458W        W15074  23.943  32.615   2.352
43459W        W15075  25.993  10.847  11.166
43460W        W15076  42.114  38.374  14.796
43461W        W15077  19.091  40.272  14.998
43462W        W15078  16.791  43.707   9.464
43463W        W15079   8.911  40.854   1.417
43464W        W15080   1.044  10.131  14.337
43465W        W15081  23.923  25.769  13.328
43466W        W15082   7.979   9.617   4.638
43467W        W15083  16.397  34.593   4.273
43468W        W15084  11.219  36.341  13.359
43469W        W15085  37.862  27.408  13.973
43470W        W15086  21.336  31.683   4.909
43471W        W15087  21.717  22.663   4.602
43472W        W15088  17.709  12.109   1.474
43473W        W15089  44.239  44.285   2.483
43474W        W15090  10.597  28.212  13.380
43475W        W15091  34.138   7.747  14.301
43476W        W15092  43.892  23.633   1.233
43477W        W15093   4.883  34.780   0.960
43478W        W15094  41.738   8.824   2.873
43479W        W15095  29.990  15.821  11.697
43480W        W15096  12.109   5.863   0.219
43481W        W15097  14.664  34.644   4.589
43482W        W15098  20.603  25.096  12.451
43483W        W15099  30.446  10.889   2.889
43484W        W15100  20.663   2.759  12.967
43485W        W15101  24.575   0.212   4.432
43486W        W15102   0.443  20.040   1.386
43487W        W15103  28.907   0.459   4.208
43488W        W15104  39.549  10.894   5.034
43489W        W15105  32.584  28.593   3.831
43490W        W15106  11.195  31.772  11.102
43491W        W15107  26.893  11.635   0.449
43492W        W15108  39.434   6.709  10.358
43493W        W15109  14.430  25.214   0.767
43494W        W15110  27.767  21.428   2.671
43495W        W15111   0.834  36.403  10.232
43496W        W15112  26.622  42.936   5.198
43497W        W15113  23.540  38.709  13.955
43498W        W15114  14.807  10.314   0.030
43499W        W15115   2.336   1.209   0.728
43500W        W15116  35.380  34.397  14.422
43501W        W15117   4.335  21.796  13.743
43502W        W15118  42.433  36.279  11.583
43503W        W15119  23.116  34.413   0.393
43504W        W15120   0.913  21.145  12.083
43505W        W15121  15.540  11.199   0.560
43506W        W15122  14.632  30.526   4.495
43507W        W15123  39.888  26.192   4.423
43508W        W15124  15.692  32.187   2.647
43509W        W15125  13.617  31.654  14.152
43510W        W15126  16.051  29.427   1.768
43511W        W15127  41.045  19.149   4.082
43512W        W15128  12.768   2.343   3.314
43513W        W15129  17.286  31.153   4.539
43514W        W15130  41.395  13.982  10.986
43515W        W15131   5.191  14.402   0.983
43516W        W15132  28.119  17.617   2.386
43517W        W15133   0.814  28.264  10.634
43518W        W15134  33.563  23.317  13.422
43519W        W15135  40.399  27.266  11.135
43520W        W15136   7.171  38.921  14.332
43521W        W15137  43.895   8.060   3.714
43522W        W15138  10.086  13.160   1.479
43523W        W15139   1.460   2.439   3.412
43524W        W15140  24.975  37.804   0.441
43525W        W15141  43.925   7.062   3.662
43526W        W15142  16.059   2.949  12.581
43527W        W15143  35.970   9.703  11.345
43528W        W15144  23.096  30.030  14.586
43529W        W15145  42.500  20.112  10.736
43530W        W15146  40.469  39.365  10.476
43531W        W15147  30.421  29.351   2.002
43532W        W15148  12.149  34.638  13.890
43533W        W15149  17.625  42.197  10.690
43534W        W15150  41.529   2.921  14.928
43535W        W15151  16.835  41.864   3.096
43536W        W15152  21.339  13.044   5.142
43537W        W15153  37.256   0.368  11.571
43538W        W15154  26.304  23.657  12.966
43539W        W15155  23.785  32.406  13.049
43540W        W15156   1.714  21.085  10.669
43541W        W15157  19.997   9.748   1.885
43542W        W15158  28.615  27.399   2.850
43543W        W15159  13.698  37.441   0.331
43544W        W15160  42.724  22.458  13.830
43545W        W15161   1.678  30.581   4.758
43546W        W15162   8.357   7.312   2.208
43547W        W15163  28.626  20.762   1.276
43548W        W15164  18.308   5.662  14.006
43549W        W15165   8.929  17.506  13.779
43550W        W15166  38.324  30.372  12.898
43551W        W15167  12.350   0.650   1.460
43552W        W15168  32.176  21.511  13.987
43553W        W15169  40.210   2.786  13.590
43554W        W15170  37.969   4.403   4.247
43555W        W15171  28.976  29.179   4.227
43556W        W15172   6.445  12.208   4.593
43557W        W15173  12.846   4.041  12.902
43558W        W15174  25.696  30.589   2.861
43559W        W15175  38.366  27.134  11.322
43560W        W15176  24.566  23.497  10.707
43561W        W15177  11.609  21.771   4.477
43562W        W15178  32.977  26.119   3.153
43563W        W15179   3.863  30.857   1.911
43564W        W15180   8.109   6.901   2.540
43565W        W15181  21.253  44.841   1.176
43566W        W15182   8.905  35.589  11.505
43567W        W15183  21.567  38.792  11.913
43568W        W15184   3.036  28.305   2.807
43569W        W15185  43.544  11.711  12.657
43570W        W15186  23.936  28.326  11.305
43571W        W15187  16.252  38.963   4.145
43572W        W15188  17.647  11.019   1.613
43573W        W15189  10.544  22.431   3.967
43574W        W15190  28.186  35.430  12.994
43575W        W15191  42.351  10.048   2.877
43576W        W15192  34.108  44.412  14.783
43577W        W15193  13.324  18.607   2.958
43578W        W15194  26.870  36.452   1.349
43579W        W15195   6.533  36.953  12.883
43580W        W15196   5.655  42.826   3.704
43581W        W15197  40.375  21.477  11.804
43582W        W15198  26.357  43.812   0.948
43583W        W15199   1.657  44.633   0.339
43584W        W15200  16.352   6.237  12.818
43585W        W15201   5.218  42.071   3.281
43586W        W15202  26.302   5.208  12.232
43587W        W15203  17.074  10.407  12.508
43588W        W15204  22.718  30.886  11.257
43589W        W15205  26.397  34.634  11.234
43590W        W15206  37.039  31.179   1.176
43591W        W15207  43.858  38.041   4.996
43592W        W15208  12.174  13.932   4.276
43593W        W15209   4.734   0.478  11.877
43594W        W15210  21.760   7.125   3.279
43595W        W15211  39.348   0.865   4.193
43596W        W15212  30.598   1.794   4.521
43597W        W15213  41.874  33.210  11.499
43598W        W15214  41.569  19.081   1.307
43599W        W15215  29.139  15.219   5.007
43600W        W15216  21.100  18.639  13.561
43601W        W15217  16.723  22.249  10.735
43602W        W15218   4.260  15.557   1.739
43603W        W15219  40.849  12.689   2.182
43604W        W15220  40.377  16.752   1.812
43605W        W15221  44.474  28.504  11.867
43606W        W15222   2.444  36.067  14.251
43607W        W15223  11.254  20.155   3.576
43608W        W15224  23.637  11.224   4.063
43609W        W15225  34.123  16.528  14.416
43610W        W15226   1.072  32.798  11.056
43611W        W15227  41.082  23.076  13.758
43612W        W15228  41.291   9.776  11.588
43613W        W15229  44.976  35.834   3.239
43614W        W15230  30.979  38.940   0.923
43615W        W15231  14.189  12.397   1.702
43616W        W15232  26.606  19.035  14.048
43617W        W15233   8.808  24.417   0.992
43618W        W15234   9.405  25.349   5.226
43619W        W15235  17.553  22.989   4.292
43620W        W15236  33.583  31.701   2.658
43621W        W15237  31.512  39.750   3.673
43622W        W15238  23.020  37.395   0.527
43623W        W15239  13.498  39.527  11.893
43624W        W15240  32.983  22.387   2.679
43625W        W15241   3.886   4.988   2.788
43626W        W15242  34.511  37.847   4.691
43627W        W15243  15.160  16.388   1.848
43628W        W15244  12.311  41.391   1.200
43629W        W15245  19.754  16.498  14.877
43630W        W15246  15.735  24.514   4.598
43631W        W15247  34.217  13.003   4.671
43632W        W15248  26.657  19.353   0.409
43633W        W15249  17.889  28.908  14.732
43634W        W15250  39.926  37.021   4.175
43635W        W15251  30.404   1.712  12.513
43636W        W15252  22.777  25.248   0.640
43637W        W15253   5.980   0.324   3.286
43638W        W15254  11.748  38.812  13.351
43639W        W15255   9.569  31.275  10.567
43640W        W15256  28.404  33.625   1.837
43641W        W15257  14.965   0.329   0.408
43642W        W15258  33.343   0.009   0.856
43643W        W15259  34.503  34.563  12.017
43644W        W15260  13.212  41.721   3.706
43645W        W15261   4.302   5.843  13.440
43646W        W15262  15.374  38.601  11.639
43647W        W15263   0.265   3.798   1.983
43648W        W15264  22.413  32.154  11.567
43649W        W15265  38.282  18.699   4.175
43650W        W15266  28.912  27.950  14.013
43651W        W15267  43.084   7.367  13.841
43652W        W15268  26.557  42.395  14.333
43653W        W15269  21.758   8.936   0.504
43654W        W15270   0.794  27.371   2.816
43655W        W15271   8.770  17.714   4.632
43656W        W15272  21.719  16.606  13.877
43657W        W15273   4.012  29.946   1.792
43658W        W15274  39.822  17.329   4.181
43659W        W15275   8.457   9.136  10.946
43660W        W15276  40.756  20.055   2.868
43661W        W15277  15.271  41.466  12.220
43662W        W15278  33.162  18.498  12.896
43663W        W15279  13.861  43.005   2.929
43664W        W15280  39.356  24.044  13.257
43665W        W15281   9.767  15.886   0.750
43666W        W15282  22.641  29.432  12.091
43667W        W15283  25.467  21.037   0.363
43668W        W15284  17.322   4.720   2.714
43669W        W15285  32.319  36.484  11.677
43670W        W15286  16.683  11.717  12.331
43671W        W15287  28.650  17.075   5.401
43672W        W15288  37.084  24.551  14.715
43673W        W15289  14.295  28.042  10.755
43674W        W15290  36.602  28.435   1.627
43675W        W15291  35.943  10.790  10.502
43676W        W15292  34.561  33.412  12.048
43677W        W15293   6.932  31.008  10.775
43678W        W15294  13.096  15.590   1.893
43679W        W15295  36.525   9.507  14.066
43680W        W15296  20.355  34.938  13.809
43681W        W15297  23.479   6.694  13.940
43682W        W15298  36.170   1.024   3.318
43683W        W15299  29.629  43.078  12.916
43684W        W15300   0.744  26.039  11.010
43685W        W15301  29.093   3.350  14.971
43686W        W15302   1.281  43.053  14.912
43687W        W15303   1.338  10.275   2.361
43688W        W15304  44.171   3.943  11.171
43689W        W15305  31.200  37.861  12.457
43690W        W15306  44.550  32.881  10.865
43691W        W15307  32.468  36.363  12.158
43692W        W15308   3.651  24.735   2.681
43693W        W15309  41.993  17.572  14.935
43694W        W15310  17.341  44.211   1.238
43695W        W15311  14.939  21.002   2.776
43696W        W15312   6.865  25.611   2.837
43697W        W15313  15.824   1.221   1.418
43698W        W15314  42.848  19.344   4.109
43699W        W15315  28.002  41.386   2.374
43700W        W15316  43.172  12.376  12.475
43701W        W15317   6.265  41.983  12.141
43702W        W15318   9.671  40.604  14.830
43703W        W15319  32.977  19.707  13.860
43704W        W15320  24.128  21.490   2.224
43705W        W15321  26.671   7.369  10.734
43706W        W15322  28.431  39.924  11.932
43707W        W15323  18.036  13.711   2.879
43708W        W15324  24.625  22.557   0.862
43709W        W15325  43.791  44.786  13.465
43710W        W15326  15.562  43.768   0.428
43711W        W15327  39.364  38.502   0.678
43712W        W15328  42.438   3.289  12.978
43713W        W15329  43.012  37.219   1.133
43714W        W15330  28.856  24.692  14.317
43715W        W15331  26.911  12.834  12.144
43716W        W15332   4.181   3.007   4.563
43717W        W15333   9.805  33.708   2.431
43718W        W15334   3.242   4.757  10.733
43719W        W15335  13.677  17.301  14.593
43720W        W15336  12.070  28.692   4.696
43721W        W15337  43.404  13.256   4.617
43722W        W15338  29.219  23.694  11.094
43723W        W15339  43.408  40.392  13.124
43724W        W15340  18.980  32.531   1.206
43725W        W15341  28.099  18.292   4.091
43726W        W15342  33.217  25.686   0.284
43727W        W15343  24.795  39.189  11.654
43728W        W15344  14.627   7.327  12.935
43729W        W15345   2.499  29.432  14.318
43730W        W15346   0.004  18.769  14.814
43731W        W15347  22.571  38.519   0.231
43732W        W15348  26.654  41.489  12.793
43733W        W15349  36.457  32.550   3.275
43734W        W15350  41.938   8.491  11.990
43735W        W15351  16.600   0.238  12.974
43736W        W15352  43.570  16.053  12.588
43737W        W15353  13.590  19.367  14.260
43738W        W15354  43.808  12.324   2.347
43739W        W15355  40.716  29.470   0.722
43740W        W15356  23.933  21.056   1.261
43741W        W15357   9.196  17.917  11.536
43742W        W15358  25.678   5.974  10.519
43743W        W15359  22.548  27.191   0.387
43744W        W15360   5.797  30.085   2.380
43745W        W15361   3.895  33.731  13.926
43746W        W15362   6.477  21.250   0.175
43747W        W15363  29.046  38.933   3.183
43748W        W15364  37.823  21.023   2.707
43749W        W15365  25.406  38.580   0.752
43750W        W15366  31.794  21.325  11.842
43751W        W15367   4.157  43.464   0.023
43752W        W15368  42.483   3.859   2.629
43753W        W15369   9.739   8.402   3.252
43754W        W15370   3.095  20.855   4.527
43755W        W15371  27.259  23.659  12.720
43756W        W15372  43.831  41.814  13.284
43757W        W15373  11.772  16.261  14.567
43758W        W15374  11.595  17.891  10.366
43759W        W15375   7.177  18.612   2.786
43760W        W15376  13.283  35.029   0.435
43761W        W15377  18.289   3.033  12.694
43762W        W15378  40.219  19.545   3.408
43763W        W15379   8.383  29.755   2.767
43764W        W15380  14.640  33.292  14.787
43765W        W15381  34.859  19.058   1.267
43766W        W15382  10.280  16.633  13.903
43767W        W15383   8.356  10.263   0.313
43768W        W15384  29.200  19.307   1.435
43769W        W15385  27.497  20.458   2.196
43770W        W15386  34.392  28.168  10.650
43771W        W15387  10.351  38.481  12.921
43772W        W15388  16.875  37.176  13.703
43773W        W15389   0.962   1.428   4.543
43774W        W15390   0.182  36.512  14.270
43775W        W15391  40.336  41.546  10.951
43776W        W15392   5.238  40.996  12.241
43777W        W15393  10.301   7.835  14.394
43778W        W15394   2.753  14.763  12.558
43779W        W15395  11.164  22.568   3.314
43780W        W15396  24.286  35.441   2.867
43781W        W15397  38.138  19.313   1.237
43782W        W15398   2.916  38.911  13.134
43783W        W15399  14.273  24.242  13.162
43784W        W15400  29.432  32.779   2.741
43785W        W15401  32.116  12.425   1.130
43786W        W15402  33.578  14.813  12.054
43787W        W15403  43.726  44.216  10.612
43788W        W15404  13.690  10.106  12.692
43789W        W15405  33.132  12.751  11.357
43790W        W15406   5.094  18.003  12.641
43791W        W15407  16.206  34.087   3.325
43792W        W15408  22.782  25.948  13.824
43793W        W15409  26.584   0.799  10.829
43794W        W15410  13.142  36.001  10.377
43795W        W15411  29.472   2.159   4.650
43796W        W15412  15.366  40.159  13.961
43797W        W15413  23.113  10.192   4.771
43798W        W15414  24.486  19.746   4.822
43799W        W15415  26.151  41.667  14.964
43800W        W15416  19.509   5.480  10.417
43801W        W15417  27.648  34.600   2.697
43802W        W15418  36.445  40.835   2.211
43803W        W15419  18.345   6.396   0.908
43804W        W15420  23.539  28.662   3.241
43805W        W15421  13.254   0.284   2.729
43806W        W15422  11.591   8.305   0.950
43807W        W15423   3.206  23.169   2.404
43808W        W15424  40.261  30.633   4.556
43809W        W15425  27.102   7.767   3.500
43810W        W15426  43.408  17.802   3.699
43811W        W15427  18.275   6.491  11.150
43812W        W15428  27.059  39.962   4.410
43813W        W15429  44.290  15.150  11.935
43814W        W15430  43.988  27.614  14.845
43815W        W15431   8.291  15.657   1.418
43816W        W15432  19.114  43.190  11.916
43817W        W15433  43.337  42.169   2.277
43818W        W15434  10.477  17.602   4.470
43819W        W15435  33.760  23.261   2.611
43820W        W15436  13.263  34.185   2.352
43821W        W15437  18.168  21.103   4.104
43822W        W15438   4.527  16.493  13.501
43823W        W15439  33.491  43.809   4.559
43824W        W15440  21.035   0.431   3.584
43825W        W15441  28.392  31.937   5.095
43826W        W15442   9.418  23.258   1.689
43827W        W15443  30.429  32.176   1.774
43828W        W15444   1.516   6.305   3.732
43829W        W15445  29.422   1.253   1.362
43830W        W15446  21.813   6.625  10.600
43831W        W15447   0.039  25.018   4.951
43832W        W15448   2.840   1.183  12.506
43833W        W15449  42.794  36.840  13.067
43834W        W15450   1.800  39.828   0.827
43835W        W15451  34.518  31.040   4.349
43836W        W15452  34.616  18.278   0.374
43837W        W15453  32.635   2.945   3.331
43838W        W15454  35.579  31.971  11.205
43839W        W15455  15.367  15.174   2.755
43840W        W15456  36.325  13.623  13.949
43841W        W15457  28.498  15.167   0.181
43842W        W15458  12.309  23.076  14.709
43843W        W15459  28.735  42.566  11.937
43844W        W15460  27.711  14.740  13.619
43845W        W15461  24.471  11.713  10.765
43846W        W15462  33.968  24.214  10.619
43847W        W15463  11.794   0.808   2.215
43848W        W15464   6.161   9.910  14.922
43849W        W15465   2.718  22.045  12.472
43850W        W15466  10.193  30.644   2.318
43851W        W15467  27.669  27.458  11.499
43852W        W15468  28.562  15.066  11.552
43853W        W15469  44.685   6.993   4.159
43854W        W15470  33.351  27.433  11.187
43855W        W15471  35.587  26.018   2.168
43856W        W15472  23.746  44.362  12.393
43857W        W15473  13.743  22.646   2.327
43858W        W15474  21.731  10.924  11.651
43859W        W15475  12.922  23.194  12.437
43860W        W15476  27.934  13.048  14.499
43861W        W15477   2.459  23.009  10.785
43862W        W15478  34.366   4.445   2.715
43863W        W15479  37.952  15.308  13.820
43864W        W15480  42.951  41.944  12.791
43865W        W15481   9.911  23.812  13.908
43866W        W15482  26.500  36.379  11.204
43867W        W15483  42.065  18.166   0.416
43868W        W15484  41.022   9.277   2.604
43869W        W15485  26.422   2.514   1.510
43870W        W15486  17.813  29.918  13.853
43871W        W15487   2.541  22.833  12.044
43872W        W15488  44.916   9.371   3.342
43873W        W15489  19.237  17.612   0.351
43874W        W15490  38.629  34.079  13.926
43875W        W15491  39.770   5.431   2.696
43876W        W15492  33.143  36.335   0.708
43877W        W15493  25.039  42.608   3.361
43878W        W15494   7.147  26.559   0.797
43879W        W15495  37.086   5.340  14.374
43880W        W15496  40.541  34.152   1.741
43881W        W15497  11.663  22.733   3.273
43882W        W15498   8.136   2.940   1.763
43883W        W15499  32.285  12.239   1.619
43884W        W15500   4.714  12.810  12.968
43885W        W15501  34.013  19.460   3.197
43886W        W15502  29.576  21.589   0.061
43887W        W15503  26.120  15.408   2.701
43888W        W15504  38.199  30.012   2.994
43889W        W15505  34.691   1.537  12.999
43890W        W15506  31.154  24.874   4.112
43891W        W15507  37.081  18.461   4.560
43892W        W15508  23.163  24.413  13.498
43893W        W15509  40.420  39.806   1.424
43894W        W15510  44.413  32.595   3.311
43895W        W15511  29.121  10.772   1.445
43896W        W15512  38.823  32.861  14.815
43897W        W15513  18.173  37.270   4.375
43898W        W15514  27.176  37.048  13.350
43899W        W15515  20.026  28.906  14.090
43900W        W15516  10.913  36.457  12.606
43901W        W15517  10.015   5.800  14.806
43902W        W15518  25.694  38.463   3.291
43903W        W15519  44.802  22.756  14.324
43904W        W15520  29.239  39.111  13.604
43905W        W15521   6.966  44.519  13.417
43906W        W15522   6.125  33.178   3.788
43907W        W15523  16.600  41.083   2.880
43908W        W15524   4.397  28.159   4.383
43909W        W15525  18.803  16.118  10.468
43910W        W15526  24.158   9.261  10.411
43911W        W15527  11.179  39.012   4.563
43912W        W15528  19.781  27.886   3.717
43913W        W15529  27.110  39.565  14.870
43914W        W15530  12.663  40.487  12.412
43915W        W15531  13.842  30.178   4.533
43916W        W15532   2.981   2.930   1.789
43917W        W15533  42.765  19.998   2.532
43918W        W15534  33.019  34.021   0.340
43919W        W15535  11.285   7.169  10.370
43920W        W15536  11.185  40.900  13.948
43921W        W15537  33.087  31.546  11.261
43922W        W15538  14.096  29.840   4.183
43923W        W15539  44.031   2.367   1.355
43924W        W15540  24.626  44.806  12.187
43925W        W15541   2.974  13.741  13.270
43926W        W15542  30.205  25.519  11.501
43927W        W15543  17.418  11.596  10.868
43928W        W15544  22.082  31.487  12.844
43929W        W15545  31.155   7.998   1.296
43930W        W15546  29.175  13.859   2.400
43931W        W15547  33.868  13.757   0.767
43932W        W15548  34.482  24.035   0.360
43933W        W15549  13.150  28.633  13.497
43934W        W15550  38.359  26.705  10.078
43935W        W15551   3.945   0.406  12.873
43936W        W15552   4.354  14.776   1.327
43937W        W15553  24.698   1.928  10.619
43938W        W15554  10.453   6.828  14.732
43939W        W15555  40.477   8.353   3.419
43940W        W15556  27.930  37.434   4.530
43941W        W15557   0.258  25.718   2.885
43942W        W15558  31.924  21.487   3.458
43943W        W15559  40.465  39.552   4.625
43944W        W15560  23.004  29.385  11.127
43945W        W15561  13.221  43.552   4.152
43946W        W15562  23.948  15.640  13.447
43947W        W15563  38.927   8.548  12.850
43948W        W15564   5.815  44.490  11.757
43949W        W15565  44.667  33.261   1.339
43950W        W15566  40.008  14.564   4.605
43951W        W15567  16.975  27.022  14.019
43952W        W15568  37.466  16.340  11.142
43953W        W15569  42.615  43.528  13.909
43954W        W15570  31.895   6.405  13.335
43955W        W15571   1.592   5.088  10.963
43956W        W15572  18.821  30.239   1.816
43957W        W15573  30.642  12.320  13.465
43958W        W15574  40.564  18.034  11.526
43959W        W15575  10.449  30.622  13.509
43960W        W15576  35.571  34.825  12.376
43961W        W15577  17.118  30.704  12.987
43962W        W15578  29.990  15.114   2.178
43963W        W15579  24.233  12.679   3.654
43964W        W15580  25.697  42.097   2.936
43965W        W15581   2.230  44.886   3.289
43966W        W15582  18.573  13.204   0.576
43967W        W15583  25.489  37.510  10.270
43968W        W15584   0.152  18.086   0.417
43969W        W15585  13.859  42.781  11.206
43970W        W15586   6.161  14.392   4.256
43971W        W15587  31.952  35.661   4.161
43972W        W15588   3.475  24.615   1.310
43973W        W15589  36.141   1.916   0.394
43974W        W15590  22.803  41.919   4.167
43975W        W15591  26.542  30.053  13.438
43976W        W15592  36.934  29.640   0.389
43977W        W15593  31.226  32.965   4.056
43978W        W15594   8.958  28.376  14.251
43979W        W15595  29.075  12.136   0.138
43980W        W15596   4.292  37.009   1.587
43981W        W15597  19.871   7.277   0.795
43982W        W15598  11.123  16.749  12.395
43983W        W15599  37.771  34.001   2.226
43984W        W15600   2.712   3.334  14.746
43985W        W15601   5.242  43.989   2.308
43986W        W15602  35.367  28.826  12.287
43987W        W15603  28.440  13.632   1.972
43988W        W15604  42.073  35.966  13.631
43989W        W15605  21.603  16.915  11.499
43990W        W15606  26.488  12.953  10.757
43991W        W15607  23.562  41.356   2.368
43992W        W15608  18.087   2.508  11.687
43993W        W15609  14.015   4.165   3.699
43994W        W15610  29.630   8.071   3.726
43995W        W15611   9.379  40.986  13.865
43996W        W15612  39.621  27.129   1.792
43997W        W15613  36.483  15.601  10.689
43998W        W15614   6.287  40.246   4.937
43999W        W15615  37.330  17.170   3.766
44000W        W15616  26.575   7.903   2.864
44001W        W15617  34.297  40.100  11.119
44002W        W15618  10.653   6.099  11.067
44003W        W15619  35.120  44.003  13.383
44004W        W15620   6.841  11.278  12.629
44005W        W15621  18.606   5.302  13.417
44006W        W15622   0.015  28.795  13.398
44007W        W15623  29.190  28.682  13.602
44008W        W15624  41.924  14.212  12.120
44009W        W15625  37.947  14.477  12.772
44010W        W15626  15.407  19.743  13.496
44011W        W15627  26.530  35.436   4.215
44012W        W15628  33.963  24.549  11.049
44013W        W15629  37.833   0.026   2.270
44014W        W15630   1.332  29.505   0.212
44015W        W15631   2.191  14.739  10.724
44016W        W15632   1.138   0.945   3.283
44017W        W15633  24.436  26.725  12.565
44018W        W15634  34.452  35.154  12.620
44019W        W15635  11.325   3.241   1.570
44020W        W15636  36.312  23.396  12.124
44021W        W15637  25.424  41.856   3.307
44022W        W15638  38.392  32.849  13.461
44023W        W15639  25.733  27.673   2.198
44024W        W15640  26.695  15.261  11.145
44025W        W15641   3.179  14.271  11.424
44026W        W15642  40.169  25.194   3.693
44027W        W15643   9.779  12.875  11.627
44028W        W15644  40.854  27.706   2.295
44029W        W15645  24.620   9.474   4.815
44030W        W15646  43.425  23.190  11.488
44031W        W15647  44.261   8.917  11.601
44032W        W15648  13.786  32.975  11.546
44033W        W15649  33.437  44.728   4.468
44034W        W15650  38.333   4.194   0.913
44035W        W15651  23.927  40.733  14.348
44036W        W15652  39.543   9.687   4.542
44037W        W15653  31.413  26.530  11.487
44038W        W15654  28.062  21.252   3.747
44039W        W15655   8.467  44.426  12.477
44040W        W15656  27.075   9.027   1.734
44041W        W15657  40.833  38.480   0.264
44042W        W15658   5.845  44.283   0.216
44043W        W15659  11.116  17.078  11.583
44044W        W15660  44.315   2.991  11.959
44045W        W15661  18.199   6.541   2.913
44046W        W15662  22.459  44.712  12.074
44047W        W15663  21.769  34.805   1.240
44048W        W15664  36.735   6.078  13.938
44049W        W15665  36.995  31.758  11.015
44050W        W15666  41.764  43.378   4.060
44051W        W15667   3.937   1.874   2.840
44052W        W15668  38.913  39.466  10.694
44053W        W15669  10.612  25.197  13.899
44054W        W15670  15.708   5.677   9.607
44055W        W15671  19.168   7.904   0.763
44056W        W15672   2.724  18.781  11.994
44057W        W15673  19.110  42.482   2.381
44058W        W15674  28.997  31.153   1.501
44059W        W15675  41.806  11.790  14.984
44060W        W15676  10.419  10.228  11.481
44061W        W15677  36.816  33.058   1.378
44062W        W15678  20.261  36.321   0.705
44063W        W15679  44.955  44.031  12.822
44064W        W15680  26.654   8.047   5.169
44065W        W15681  12.281  30.006  14.936
44066W        W15682   3.486   3.235  10.708
44067W        W15683  35.602  30.469   2.850
44068W        W15684  40.491  16.910   4.625
44069W        W15685  15.871  23.412  11.783
44070W        W15686  13.256  35.941  12.601
44071W        W15687  23.776  44.552   3.642
44072W        W15688  37.800   9.670  13.365
44073W        W15689   9.682  39.749   4.545
44074W        W15690  34.791  39.334  11.673
44075W        W15691   9.146  12.347   0.480
44076W        W15692   0.451  43.384   4.925
44077W        W15693   1.433  38.335  13.367
44078W        W15694  25.081   4.901   1.915
44079W        W15695   4.822  26.512   1.895
44080W        W15696   3.811  43.497  13.462
44081W        W15697   7.156  43.042  12.548
44082W        W15698  19.207  34.382   0.452
44083W        W15699  21.344  18.157  13.460
44084W        W15700   1.423  24.610  12.434
44085W        W15701  41.046  13.500  13.790
44086W        W15702  12.246  12.236   4.806
44087W        W15703  36.105  42.315  11.485
44088W        W15704  18.486  30.118  13.059
44089W        W15705  15.617  35.720  10.473
44090W        W15706  11.652   3.679  13.409
44091W        W15707   0.864  39.892   0.663
44092W        W15708  40.251  40.641  12.923
44093W        W15709   4.247  23.780   3.707
44094W        W15710  10.907  15.800   1.487
44095W        W15711  15.177  33.650  12.665
44096W        W15712  25.479   3.484  11.912
44097W        W15713  24.944   1.057  12.458
44098W        W15714   8.910  27.495   4.087
44099W        W15715  31.466  12.872   4.240
44100W        W15716  39.454  15.765  14.063
44101W        W15717  44.978   6.420  10.515
44102W        W15718  30.615   5.776   2.489
44103W        W15719  25.403   4.938  13.871
44104W        W15720  32.657  35.394  12.997
44105W        W15721   5.357  18.866  10.719
44106W        W15722  35.608  18.105   0.803
44107W        W15723  40.054  39.063   1.183
44108W        W15724  11.199  11.385  12.545
44109W        W15725   7.857   2.794   4.275
44110W        W15726  18.257  16.220   1.817
44111W        W15727  11.853   0.275   0.788
44112W        W15728   4.193  23.002  14.424
44113W        W15729   7.339  30.405   3.079
44114W        W15730  21.642  42.377   1.490
44115W        W15731  15.351  17.312  13.355
44116W        W15732  12.034  13.331   1.328
44117W        W15733   8.852  34.434   2.410
44118W        W15734  43.366  12.266  13.163
44119W        W15735  42.320   8.741  14.152
44120W        W15736  16.026  11.302  13.503
44121W        W15737  15.913  17.970   2.412
44122W        W15738  36.938  37.442  10.352
44123W        W15739  11.167  12.355  14.245
44124W        W15740  30.484  42.445   2.772
44125W        W15741  35.523  11.732  10.993
44126W        W15742  41.814  11.905   0.491
44127W        W15743   0.231  43.385  12.053
44128W        W15744  44.761   3.043  12.920
44129W        W15745  25.633  28.478  12.038
44130W        W15746  40.416  17.105  11.628
44131W        W15747  37.489  17.989  12.030
44132W        W15748  41.408   0.167  12.995
44133W        W15749  43.481  22.361   1.537
44134W        W15750  42.756   1.333   2.690
44135W        W15751  16.398   6.521   0.858
44136W        W15752  27.344  37.155   1.941
44137W        W15753   9.439   8.947   3.804
44138W        W15754  31.888  44.551  14.834
44139W        W15755  29.761   9.074   4.614
44140W        W15756  38.912   1.695   2.766
44141W        W15757  19.736   8.196  10.622
44142W        W15758  24.429   0.550  12.047
44143W        W15759  14.494  28.537  11.650
44144W        W15760  15.628  39.000  11.167
44145W        W15761  38.978  41.424  13.271
44146W        W15762  37.396  18.510   0.695
44147W        W15763  12.935  37.471  14.919
44148W        W15764  29.688   0.694  13.747
44149W        W15765  14.679  19.632   2.324
44150W        W15766  10.231  10.276  14.278
44151W        W15767   5.947   0.843   3.507
44152W        W15768  35.754  24.801  12.372
44153W        W15769   2.333  38.071   0.784
44154W        W15770   7.135  11.191  13.521
44155W        W15771  13.972  35.027   5.149
44156W        W15772  20.318  20.182  11.213
44157W        W15773  40.343  39.785   0.054
44158W        W15774  31.061  29.191  10.734
44159W        W15775  28.532   4.299  13.378
44160W        W15776  20.011   0.055  13.011
44161W        W15777  23.169  31.888  14.729
44162W        W15778  38.924  36.355  14.770
44163W        W15779  42.731   0.592  11.098
44164W        W15780  19.700  13.143   4.727
44165W        W15781  30.459  15.865  11.495
44166W        W15782  28.737  36.819  12.469
44167W        W15783   6.110  19.275   0.362
44168W        W15784   6.284   2.720  13.477
44169W        W15785  15.412   1.409   1.147
44170W        W15786  37.860  27.923  14.025
44171W        W15787  11.558   2.652  13.022
44172W        W15788  15.596  10.301   0.840
44173W        W15789  35.408  25.720  13.354
44174W        W15790  25.705  18.248  14.797
44175W        W15791  17.582   6.852  10.744
44176W        W15792   6.253  18.714   4.071
44177W        W15793  19.174  24.754  11.601
44178W        W15794  43.303  24.143   0.769
44179W        W15795  43.149  39.575   2.694
44180W        W15796  25.366  12.266   0.866
44181W        W15797  36.764  19.725  13.997
44182W        W15798   9.239  32.652   4.608
44183W        W15799  11.882  29.992   2.812
44184W        W15800  27.255  21.222   0.881
44185W        W15801   5.319  32.012  12.863
44186W        W15802   3.228  15.663   4.191
44187W        W15803  39.844  22.394   2.008
44188W        W15804  19.513  34.128  10.745
44189W        W15805  11.293  12.321  10.688
44190W        W15806   0.240   4.898   2.315
44191W        W15807  21.146   0.549  10.809
44192W        W15808   3.324  38.633   5.023
44193W        W15809  15.216  20.211   1.482
44194W        W15810  19.410  23.159   4.480
44195W        W15811   3.444   0.204  13.993
44196W        W15812  36.987  19.014   3.644
44197W        W15813  24.107  28.074   1.429
44198W        W15814   9.104  39.323   0.234
44199W        W15815  23.583   3.281   0.071
44200W        W15816   2.939  32.521   2.579
44201W        W15817  13.838   6.010  12.182
44202W        W15818  13.412  22.251   3.616
44203W        W15819  33.642   8.908  12.211
44204W        W15820  41.676  25.064   2.414
44205W        W15821  32.609  14.117  14.882
44206W        W15822  31.033   1.681  10.367
44207W        W15823  28.536  34.063   2.714
44208W        W15824  43.286  40.847  13.333
44209W        W15825  44.211   1.935   4.141
44210W        W15826   1.081  29.572   4.037
44211W        W15827  39.279  18.797   4.111
44212W        W15828  36.345  18.650   4.355
44213W        W15829   0.656  29.950   4.221
44214W        W15830  41.473  42.998  11.393
44215W        W15831  36.146  30.332   1.675
44216W        W15832  40.795  35.948  11.056
44217W        W15833   2.255  30.066   3.237
44218W        W15834  23.128  39.059  12.108
44219W        W15835   1.720  10.119  13.889
44220W        W15836  40.887  18.184  12.807
44221W        W15837  22.052  15.925  11.078
44222W        W15838  37.815  34.730  14.943
44223W        W15839  17.353  18.639  10.039
44224W        W15840   5.618   3.870  14.381
44225W        W15841  25.664  41.706  12.496
44226W        W15842  31.709  32.043   0.809
44227W        W15843  26.939   9.410  12.602
44228W        W15844  30.042  25.613  12.590
44229W        W15845  24.354   6.370  14.905
44230W        W15846   9.825  36.580  11.810
44231W        W15847  31.356   3.418  10.883
44232W        W15848  21.003  15.575  14.265
44233W        W15849   1.524  17.967  11.184
44234W        W15850  42.881  25.401   2.226
44235W        W15851  14.863  24.923   3.389
44236W        W15852  22.476   1.959  12.977
44237W        W15853  23.006  31.585  11.949
44238W        W15854  44.186   7.156  10.420
44239W        W15855   7.353  16.724  12.505
44240W        W15856  24.668   2.956  12.088
44241W        W15857   6.269  22.094  10.535
44242W        W15858  40.789  42.469  10.645
44243W        W15859  20.062  44.214  14.868
44244W        W15860  14.710   3.528  12.572
44245W        W15861  31.771  25.574  13.041
44246W        W15862  27.370  24.228   0.203
44247W        W15863  21.659  23.197   2.702
44248W        W15864   0.297   6.619  14.875
44249W        W15865   0.772  35.629   2.689
44250W        W15866   0.511  25.333  13.961
44251W        W15867  29.203  14.376   5.453
44252W        W15868  11.569  30.996  10.694
44253W        W15869  21.826  25.711   4.343
44254W        W15870  35.593   1.752   1.896
44255W        W15871   6.249  32.077   3.163
44256W        W15872   5.241  36.135   2.028
44257W        W15873  24.572  30.119   3.127
44258W        W15874  18.630  28.077   4.308
44259W        W15875  37.459  25.722  12.735
44260W        W15876   6.601  35.859   1.725
44261W        W15877  22.824  26.732  11.805
44262W        W15878  30.071   3.121  11.131
44263W        W15879  36.063  24.286   0.458
44264W        W15880  36.474  42.855  12.853
44265W        W15881   3.990  24.604  12.364
44266W        W15882  15.118  31.083  13.393
44267W        W15883  25.047  18.490  12.211
44268W        W15884  18.522  32.474   2.784
44269W        W15885  30.978  28.567   0.211
44270W        W15886  21.468  24.221   3.163
44271W        W15887  33.121   6.629  14.016
44272W        W15888  23.717   4.271   1.353
44273W        W15889  18.079  40.281   2.754
44274W        W15890  29.040  13.712   4.815
44275W        W15891  27.158  29.455  11.994
44276W        W15892  17.660  38.954  13.934
44277W        W15893   6.262  27.675  14.550
44278W        W15894  40.466  40.358  11.598
44279W        W15895  18.545  16.142   1.375
44280W        W15896   6.513  12.131  14.391
44281W        W15897   1.715  41.781  13.920
44282W        W15898  38.972  42.744   5.096
44283W        W15899  43.173  11.967   2.944
44284W        W15900  25.226  24.690   2.348
44285W        W15901  29.011  22.736   2.379
44286W        W15902  14.929  34.000  12.972
44287W        W15903  44.854  22.538   2.981
44288W        W15904  13.749  29.474  14.945
44289W        W15905  11.027  14.614   0.258
44290W        W15906  16.215  29.491   0.679
44291W        W15907  44.740  37.365   0.727
44292W        W15908  13.310  43.992   3.061
44293W        W15909  30.124   6.969   2.404
44294W        W15910   0.218  35.998  12.319
44295W        W15911  39.489  44.031  12.238
44296W        W15912  36.125  16.644   0.868
44297W        W15913  10.696  29.471  10.908
44298W        W15914  38.378  28.446  13.540
44299W        W15915  23.739  12.221  10.458
44300W        W15916  18.070  33.510  11.880
44301W        W15917  16.453   4.300  11.541
44302W        W15918  39.337  28.205  11.631
44303W        W15919  12.119  14.922   2.445
44304W        W15920  35.158  23.623   1.346
44305W        W15921  40.359  24.583   3.124
44306W        W15922  20.710  37.972  11.947
44307W        W15923  34.250  17.182  10.551
44308W        W15924  41.218  15.842  13.801
44309W        W15925  21.578  34.641   0.276
44310W        W15926  34.478  12.514  14.912
44311W        W15927   3.047  19.730  10.712
44312W        W15928   7.843  12.089  12.962
44313W        W15929   6.390  42.846   4.139
44314W        W15930  32.007  11.325  11.039
44315W        W15931  34.549  21.707   3.282
44316W        W15932   8.006  42.480  10.695
44317W        W15933  38.069  37.948   2.815
44318W        W15934  32.375  26.535   2.765
44319W        W15935  15.805  12.887  10.677
44320W        W15936  19.343  43.692  12.774
44321W        W15937  22.774  10.296  13.073
44322W        W15938  28.776  35.025  13.442
44323W        W15939  35.481  10.448   4.620
44324W        W15940  39.339  10.777   3.619
44325W        W15941  20.520  39.081  14.914
44326W        W15942  24.555   6.725  13.277
44327W        W15943  38.388  13.556  13.631
44328W        W15944   4.663  44.483   3.197
44329W        W15945  27.602  11.816  14.276
44330W        W15946   3.115  28.926   1.385
44331W        W15947  10.777  11.241   4.182
44332W        W15948  36.767  21.171   3.706
44333W        W15949   0.009  14.292   0.362
44334W        W15950  44.771  36.526   2.245
44335W        W15951  23.375   2.899  14.334
44336W        W15952  23.206  35.995  11.118
44337W        W15953  32.763  30.256   9.865
44338W        W15954   2.269  15.355   3.742
44339W        W15955   9.138  41.283   0.910
44340W        W15956  21.149  10.184   1.445
44341W        W15957   4.384  16.020  12.025
44342W        W15958   4.582  44.494   5.067
44343W        W15959   0.691   3.363   0.076
44344W        W15960   2.744  17.525  11.565
44345W        W15961   4.444   9.238   2.767
44346W        W15962  40.148   1.241  11.179
44347W        W15963  29.112  28.150   4.272
44348W        W15964  19.191   5.180  14.035
44349W        W15965  17.705  23.233   3.814
44350W        W15966  28.399  32.461  13.031
44351W        W15967  15.411   4.331   5.064
44352W        W15968  40.732   3.888   1.113
44353W        W15969  20.478  44.847   2.756
44354W        W15970   6.702   3.882   3.820
44355W        W15971  37.288  40.444   3.610
44356W        W15972  29.188  24.184   4.455
44357W        W15973  15.782  37.953   0.795
44358W        W15974   7.204  16.493   4.572
44359W        W15975  33.865  37.953   4.080
44360W        W15976  26.269  16.290  13.113
44361W        W15977  41.944  34.136   0.008
44362W        W15978  13.260  25.096  12.958
44363W        W15979  19.984  12.220  11.712
44364W        W15980  29.581  13.925  10.693
44365W        W15981  39.557  19.533  14.970
44366W        W15982  18.369  42.905   0.363
44367W        W15983  18.961   5.293   2.771
44368W        W15984  25.441  37.032   1.316
44369W        W15985  12.736  26.916   1.793
44370W        W15986  30.547  35.382  12.144
44371W        W15987  26.099  38.802   3.099
44372W        W15988  39.555  11.307  10.034
44373W        W15989   2.216   1.284  10.657
44374W        W15990  43.250  38.187  11.086
44375W        W15991  44.599   7.802  14.868
44376W        W15992  18.551   6.309  13.333
44377W        W15993  28.109  29.040   1.900
44378W        W15994  30.401  35.979   0.254
44379W        W15995  15.545   3.874  10.348
44380W        W15996  16.119  43.712  10.415
44381W        W15997  19.049   4.163  12.877
44382W        W15998  18.766  33.537  10.330
44383W        W15999  39.833   9.654   0.879
44384W        W16000  17.147  21.523  12.498
44385W        W16001  11.906   1.004  12.024
44386W        W16002   4.902  14.396  13.205
44387W        W16003  33.921  38.043  11.553
44388W        W16004  36.605  35.815  10.361
44389W        W16005  37.413   3.401  10.840
44390W        W16006  38.800  26.980  10.996
44391W        W16007  42.987   9.114  11.267
44392W        W16008  32.319   1.180   0.275
44393W        W16009  32.911  31.394  13.521
44394W        W16010  13.501  19.197  12.514
44395W        W16011  28.530  24.538   4.155
44396W        W16012  18.031  13.304   1.994
44397W        W16013  20.550  32.859   0.808
44398W        W16014   1.980  26.335   2.222
44399W        W16015  43.787  26.658  13.871
44400W        W16016  37.891  14.920   1.271
44401W        W16017  27.444  37.410  14.892
44402W        W16018   7.190  13.495   2.678
44403W        W16019   0.433   9.816   4.779
44404W        W16020  28.170  24.250  13.998
44405W        W16021  26.526  20.556   4.404
44406W        W16022  41.324  30.916   2.598
44407W        W16023  12.256  26.582   2.386
44408W        W16024  28.974  24.738   1.880
44409W        W16025  43.873  20.185  12.346
44410W        W16026  14.362  10.202   3.728
44411W        W16027  27.624  41.425   0.541
44412W        W16028  31.685  11.634   1.297
44413W        W16029  43.322  41.231  13.002
44414W        W16030  33.485   7.406  14.317
44415W        W16031  28.005  16.889  12.575
44416W        W16032   6.751  29.972  10.672
44417W        W16033  15.423  20.275   3.272
44418W        W16034  30.916  28.657  10.735
44419W        W16035   8.281  21.989   4.649
44420W        W16036  30.977  34.540  14.030
44421W        W16037  42.522   6.735   2.715
44422W        W16038   2.444  13.258  11.624
44423W        W16039  35.311   2.984  14.320
44424W        W16040  33.506   7.753  13.523
44425W        W16041   8.631  15.043   4.907
44426W        W16042  14.204  22.743  13.042
44427W        W16043  36.840  32.960  14.259
44428W        W16044  22.324  21.065   2.850
44429W        W16045  31.952   4.215   3.985
44430W        W16046  31.113   0.972  12.462
44431W        W16047  26.908  36.253   4.564
44432W        W16048  33.620  14.782  11.144
44433W        W16049  40.256  12.532   2.226
44434W        W16050  24.643   2.719   2.295
44435W        W16051  26.908   1.882  11.166
44436W        W16052  14.225   0.413  13.102
44437W        W16053  34.267  27.400  11.920
44438W        W16054  31.672  38.812   2.740
44439W        W16055  16.087   8.139   2.141
44440W        W16056   8.571  38.906  12.948
44441W        W16057   1.109  32.832   1.012
44442W        W16058  24.812   7.826   1.865
44443W        W16059  12.718   6.710   3.216
44444W        W16060   6.685  16.321   4.516
44445W        W16061  14.005  37.423  14.444
44446W        W16062  33.868  38.611  12.902
44447W        W16063  17.281  40.344  12.181
44448W        W16064  18.376  14.721   2.324
44449W        W16065  14.212   3.900  11.498
44450W        W16066  24.522  15.349   2.350
44451W        W16067  12.123  21.146  10.640
44452W        W16068   1.405  27.031  10.885
44453W        W16069  43.939  31.885   1.250
44454W        W16070  26.703  29.899   4.070
44455W        W16071  28.057  24.002  11.550
44456W        W16072  24.206   0.001   4.757
44457W        W16073  43.219  29.550   1.362
44458W        W16074  11.778  24.224  13.826
44459W        W16075  26.740   4.806   3.722
44460W        W16076   3.236  36.957   3.181
44461W        W16077  42.848  12.235   3.253
44462W        W16078  43.828   1.522   2.659
44463W        W16079  18.622  17.477  14.305
44464W        W16080  34.487  23.204  13.182
44465W        W16081  30.486  14.563  12.138
44466W        W16082  13.010  44.451  14.815
44467W        W16083  36.965  14.279   5.061
44468W        W16084  35.153  19.592   2.894
44469W        W16085   3.412  28.409  13.681
44470W        W16086   9.231   9.580   3.233
44471W        W16087   6.056  36.062  13.709
44472W        W16088   2.259  20.184  11.641
44473W        W16089  32.974  39.316  14.453
44474W        W16090  34.991  35.922   3.625
44475W        W16091  20.795  20.015  11.126
44476W        W16092  17.732   6.971  14.946
44477W        W16093  31.503  17.269   2.737
44478W        W16094  23.970   9.788   2.200
44479W        W16095  40.979  40.026  14.231
44480W        W16096  44.215  27.917  13.979
44481W        W16097  22.225  41.724  12.326
44482W        W16098   0.108  26.553  13.486
44483W        W16099   9.339  32.698   0.919
44484W        W16100  35.008  26.407  12.912
44485W        W16101   9.396  15.362   0.006
44486W        W16102  41.070   3.330  10.664
44487W        W16103  29.972  37.564   2.380
44488W        W16104  22.960  39.816  11.146
44489W        W16105  39.130   8.027   0.811
44490W        W16106  38.635  18.120   2.457
44491W        W16107  19.648  17.216   2.321
44492W        W16108   0.798  27.007   1.466
44493W        W16109   1.914  32.975   4.153
44494W        W16110  43.756  43.364  14.423
44495W        W16111  32.485  29.571   0.828
44496W        W16112  43.936  28.802   3.576
44497W        W16113  43.776   2.303  12.811
44498W        W16114  19.687  38.445   1.590
44499W        W16115  37.750  14.571   4.603
44500W        W16116  29.868   7.733  10.715
44501W        W16117   0.995   7.346  14.416
44502W        W16118  32.905  18.289  10.546
44503W        W16119  44.864   1.544  14.328
44504W        W16120  32.185  40.398   0.350
44505W        W16121  39.895  19.766  10.384
44506W        W16122  26.137  10.852   3.887
44507W        W16123   5.482  13.726   4.074
44508W        W16124  21.207  20.274  13.366
44509W        W16125   6.913  14.370   3.539
44510W        W16126  36.900  14.312   1.923
44511W        W16127  27.672   3.217   4.500
44512W        W16128  17.129  43.762  11.675
44513W        W16129  41.077  12.576   4.567
44514W        W16130   6.453  36.076   2.467
44515W        W16131  13.901  29.256  12.491
44516W        W16132   9.565  27.620  11.880
44517W        W16133  25.688   2.323  14.340
44518W        W16134  13.301  26.685   4.596
44519W        W16135  34.063  17.315   2.371
44520W        W16136   0.687  18.127   0.411
44521W        W16137  15.907   2.697   2.254
44522W        W16138  15.555   5.815   4.992
44523W        W16139  18.146  20.599  10.511
44524W        W16140   4.277   4.787   1.076
44525W        W16141  25.079   0.234   4.040
44526W        W16142  11.275  24.188  13.590
44527W        W16143  31.241  32.970   1.266
44528W        W16144  16.996  23.058   0.375
44529W        W16145  30.572  35.347   0.423
44530W        W16146  36.146  44.193   4.479
44531W        W16147  44.673   1.792  13.913
44532W        W16148  11.913  29.143   1.678
44533W        W16149  21.059  35.739  14.540
44534W        W16150  24.577  22.500   4.120
44535W        W16151   7.989  19.034   4.098
44536W        W16152  42.008  41.483  13.501
44537W        W16153  14.193  16.041  14.156
44538W        W16154  20.519   6.558   3.303
44539W        W16155   6.471  25.933   4.130
44540W        W16156  22.465  13.928   5.064
44541W        W16157  13.812  15.840  13.808
44542W        W16158  15.147  21.223   3.656
44543W        W16159  10.419   9.731   2.460
44544W        W16160  36.656  36.594  13.042
44545W        W16161  30.543   3.897  11.316
44546W        W16162   9.464  44.124  13.843
44547W        W16163  38.064   4.670   0.967
44548W        W16164  42.902  23.755  13.380
44549W        W16165   7.851  12.666  12.055
44550W        W16166  32.935   6.869   4.652
44551W        W16167  31.213  31.383   4.214
44552W        W16168  40.615  27.409  13.386
44553W        W16169  21.089   9.305  14.364
44554W        W16170   0.922  39.859  14.127
44555W        W16171  43.333  18.126   0.881
44556W        W16172  39.375  31.586  14.928
44557W        W16173  26.629  36.229   0.767
44558W        W16174  29.577  32.102   0.686
44559W        W16175  36.516  11.313   1.990
44560W        W16176  26.146  44.030   3.890
44561W        W16177  10.359  12.453  14.057
44562W        W16178   6.928  26.218  13.561
44563W        W16179   2.368  22.235   1.900
44564W        W16180  25.808  39.132  14.951
44565W        W16181  22.195  33.791   1.251
44566W        W16182   1.203   7.814   4.116
44567W        W16183  33.801  38.620   2.353
44568W        W16184  42.820   7.214  10.591
44569W        W16185   4.697  22.032   3.349
44570W        W16186   8.265  34.525   3.076
44571W        W16187  32.329  23.050   0.201
44572W        W16188  42.542   1.017   1.431
44573W        W16189  15.773   3.904   0.852
44574W        W16190  16.659  16.759  10.474
44575W        W16191   8.216  30.008  10.813
44576W        W16192  38.330  44.317   2.381
44577W        W16193  27.955   0.404   4.939
44578W        W16194   6.657  42.765   4.607
44579W        W16195  10.839  14.565   3.477
44580W        W16196  17.225  21.034  13.416
44581W        W16197  37.262  26.132   4.346
44582W        W16198  36.753   3.135   4.210
44583W        W16199  20.297  30.994   1.399
44584W        W16200   1.646  25.066  12.462
44585W        W16201  34.394  34.870   4.566
44586W        W16202  41.391  23.870   4.484
44587W        W16203   5.504  36.062  10.400
44588W        W16204  15.619  19.600  12.884
44589W        W16205   7.833   4.738   2.232
44590W        W16206  44.213  38.340   3.661
44591W        W16207   2.602  25.607  13.846
44592W        W16208  19.646   9.778   2.840
44593W        W16209  24.413  28.091  11.215
44594W        W16210  37.294  42.544  10.639
44595W        W16211  44.410  41.831   0.466
44596W        W16212  39.136  34.138   4.144
44597W        W16213  13.044   9.791  13.284
44598W        W16214  21.515  27.173  11.548
44599W        W16215  25.714   5.321  11.557
44600W        W16216   1.338  33.849  14.912
44601W        W16217  22.557  40.520   4.587
44602W        W16218   5.935  37.309  13.427
44603W        W16219  20.806   0.700   3.203
44604W        W16220  44.295   4.230   1.515
44605W        W16221  44.799  23.230  12.434
44606W        W16222  44.788  15.362  12.023
44607W        W16223  27.188  26.225  10.538
44608W        W16224   6.279  37.921  12.618
44609W        W16225   4.334  32.112  12.939
44610W        W16226  24.010   0.264  13.078
44611W        W16227  23.739  44.950  14.118
44612W        W16228   6.762   0.464  11.604
44613W        W16229  12.137  17.587  12.075
44614W        W16230  13.866  30.435  10.629
44615W        W16231  39.850   9.738  10.421
44616W        W16232  39.589  11.167   0.930
44617W        W16233  13.273   4.471   2.811
44618W        W16234  44.354  43.479   3.311
44619W        W16235  23.122  37.887  13.751
44620W        W16236  33.039  34.829   0.765
44621W        W16237  15.770  33.939   0.243
44622W        W16238  16.202   7.080   0.291
44623W        W16239   4.583  22.553  10.299
44624W        W16240  44.269  37.496  12.476
44625W        W16241  30.594   1.938  14.401
44626W        W16242  22.459  18.660   4.653
44627W        W16243  19.919  25.160   3.819
44628W        W16244  33.975  14.416  14.788
44629W        W16245  19.054  39.917  12.581
44630W        W16246  18.042  22.980   4.101
44631W        W16247  34.198  30.768   0.517
44632W        W16248  37.455  36.443  11.039
44633W        W16249  16.297   6.195  11.962
44634W        W16250  27.221   4.809   1.710
44635W        W16251   4.957  43.352   1.149
44636W        W16252   7.740  18.983  11.096
44637W        W16253  41.376  28.875  11.999
44638W        W16254  13.412  18.203   2.295
44639W        W16255  37.536  29.077   2.993
44640W        W16256  14.813   1.904   0.491
44641W        W16257  16.916   4.951   0.727
44642W        W16258  12.016  37.959  13.499
44643W        W16259  32.268  30.116   9.868
44644W        W16260  37.815   4.514  11.031
44645W        W16261   0.631  39.100   1.631
44646W        W16262   0.878  10.262   1.632
44647W        W16263  28.970   6.503  12.553
44648W        W16264  30.785  18.828   2.173
44649W        W16265   6.143  23.872  12.515
44650W        W16266  38.981   7.221   0.670
44651W        W16267  20.742  32.408  14.455
44652W        W16268   3.251  19.250  11.569
44653W        W16269  25.646   5.145   3.742
44654W        W16270   4.933   1.005   4.263
44655W        W16271  34.421   5.117  13.342
44656W        W16272  25.977  23.477   3.136
44657W        W16273  33.942   5.809  13.772
44658W        W16274  25.164  27.252   1.698
44659W        W16275  12.654  35.800  13.833
44660W        W16276  24.628   7.159  14.300
44661W        W16277  28.572   9.836  10.899
44662W        W16278  10.255  34.325  13.967
44663W        W16279  29.122  22.110  14.210
44664W        W16280  11.417  30.867  12.555
44665W        W16281  24.147  24.009  13.013
44666W        W16282  43.332   2.892  10.998
44667W        W16283   1.565   9.215  10.662
44668W        W16284  22.453  22.594   1.843
44669W        W16285  21.587  30.957   3.641
44670W        W16286  17.012   2.967   2.383
44671W        W16287  27.224  34.449  14.896
44672W        W16288  28.184  36.094  14.961
44673W        W16289  11.224  36.560  13.851
44674W        W16290  30.612  40.877  13.511
44675W        W16291   1.240  10.252  13.012
44676W        W16292  44.309   0.151   2.385
44677W        W16293  33.980  39.156  14.276
44678W        W16294  25.085  43.732   3.823
44679W        W16295  15.205   1.002   4.182
44680W        W16296  18.758  25.957   1.327
44681W        W16297  42.956  19.979  10.477
44682W        W16298  12.454   5.805   1.928
44683W        W16299   1.786  16.240   1.167
44684W        W16300  40.341  23.057  10.643
44685W        W16301  12.686  14.374  12.870
44686W        W16302  28.508  12.588  14.036
44687W        W16303   5.686  25.700   4.308
44688W        W16304  10.777  21.773  11.961
44689W        W16305  31.124  33.565  11.660
44690W        W16306  14.145  17.324  10.154
44691W        W16307  26.669   3.202   4.616
44692W        W16308  12.073  15.349   4.883
44693W        W16309  31.102   9.636   4.617
44694W        W16310  13.239  29.111   3.397
44695W        W16311  26.583  36.440  13.060
44696W        W16312  33.314  38.593  12.150
44697W        W16313   0.092  37.894  13.354
44698W        W16314   0.715  29.901  12.802
44699W        W16315   0.182  28.062   3.793
44700W        W16316  16.271  22.062   3.824
44701W        W16317  35.061  11.108  11.148
44702W        W16318  21.089  32.678   2.975
44703W        W16319  15.582  12.603  12.484
44704W        W16320  42.336  43.519   2.290
44705W        W16321  26.802  29.548  14.180
44706W        W16322  34.357  39.875   0.382
44707W        W16323   9.227  32.401   4.143
44708W        W16324  33.042   2.741  13.448
44709W        W16325  39.067  10.213   3.276
44710W        W16326   6.849  34.410   4.934
44711W        W16327  23.891   4.218   1.826
44712W        W16328  29.305  18.892   0.796
44713W        W16329  30.906   3.448  10.570
44714W        W16330  40.529  43.485  14.060
44715W        W16331  32.077   5.731   1.853
44716W        W16332  42.069  16.222  10.673
44717W        W16333   5.829  41.306   1.240
44718W        W16334  43.471  33.639   1.258
44719W        W16335   6.170  20.323  13.486
44720W        W16336   6.795   1.640   4.282
44721W        W16337  40.818  27.068  14.788
44722W        W16338  29.632  26.904   2.553
44723W        W16339  44.322  16.069  11.823
44724W        W16340  31.512  15.422  11.026
44725W        W16341  27.035   0.386  11.625
44726W        W16342   1.145  28.079  11.440
44727W        W16343  33.941  20.476  14.247
44728W        W16344  27.864  20.577  11.958
44729W        W16345   9.693  21.045  11.557
44730W        W16346  35.633   0.941  12.380
44731W        W16347   2.964   9.885  11.175
44732W        W16348  17.447  38.819  11.983
44733W        W16349  20.309  41.252  14.495
44734W        W16350  36.189  35.896   1.363
44735W        W16351  24.225  13.598   4.538
44736W        W16352  15.056  42.450   3.712
44737W        W16353  27.650  44.364   0.678
44738W        W16354   3.300  12.298   4.142
44739W        W16355  42.004  43.275   3.225
44740W        W16356   7.610  32.997  12.515
44741W        W16357   5.264  15.144   3.594
44742W        W16358  21.509  18.809  12.721
44743W        W16359  35.519   8.456   1.831
44744W        W16360   0.457  38.747  14.415
44745W        W16361  16.159  36.849  12.665
44746W        W16362  16.672  24.706   2.499
44747W        W16363  36.453  23.193   2.805
44748W        W16364  42.286  32.126   0.145
44749W        W16365  18.742  28.430  12.327
44750W        W16366  26.051  28.126   1.892
44751W        W16367   8.777  23.963  13.325
44752W        W16368  14.965  23.252  14.053
44753W        W16369  26.300  11.298   2.186
44754W        W16370  33.482   1.362   0.817
44755W        W16371   2.770   9.465   1.453
44756W        W16372   4.174  25.128   2.127
44757W        W16373   5.488  35.395   2.354
44758W        W16374  40.519   6.484   3.208
44759W        W16375  18.208  18.622  13.287
44760W        W16376  31.272  42.437  10.700
44761W        W16377  35.059   6.847   4.405
44762W        W16378  24.882  11.168  13.910
44763W        W16379  25.618  16.424  14.919
44764W        W16380   9.342  23.549   2.565
44765W        W16381  19.535  40.821  13.360
44766W        W16382  41.371  24.996  14.057
44767W        W16383  37.059  16.695   1.834
44768W        W16384  33.318  31.941  14.261
44769W        W16385  27.205   1.382   0.189
44770W        W16386  18.281   0.495  12.442
44771W        W16387  29.890  40.843  11.604
44772W        W16388   5.919  35.420   0.304
44773W        W16389  18.647  13.938   4.499
44774W        W16390  31.314  33.452  10.751
44775W        W16391   6.760   0.854   0.711
44776W        W16392   6.229  11.431   1.304
44777W        W16393  39.369  39.834   4.332
44778W        W16394  10.148  15.058   2.621
44779W        W16395  10.276  24.063   3.620
44780W        W16396   4.464   7.604  11.337
44781W        W16397  13.946  37.663   1.308
44782W        W16398   9.781   2.411  12.821
44783W        W16399   6.065  16.251   2.712
44784W        W16400  15.745  38.408   4.591
44785W        W16401  35.849  34.326   0.895
44786W        W16402  19.379   5.403   0.006
44787W        W16403  39.007   7.131  10.902
44788W        W16404  12.195   3.261  13.097
44789W        W16405  26.530  27.221   4.146
44790W        W16406  33.937  15.664   0.484
44791W        W16407  24.646  15.432   0.000
44792W        W16408  32.892  14.433   4.063
44793W        W16409   4.210  39.259   4.429
44794W        W16410  10.238   2.643   4.929
44795W        W16411  10.609   9.810  10.861
44796W        W16412  37.292  39.827   2.710
44797W        W16413  41.450  19.521   3.340
44798W        W16414  43.158  41.641   1.320
44799W        W16415  32.570  29.492  12.141
44800W        W16416   1.233  44.354   0.442
44801W        W16417  29.120  27.657  10.176
44802W        W16418  21.563  23.031   1.815
44803W        W16419  16.693   3.512  11.016
44804W        W16420  31.643   4.668  13.336
44805W        W16421  28.091  21.057   0.481
44806W        W16422  21.165  38.422   2.783
44807W        W16423   5.669  35.790   3.746
44808W        W16424  30.944   1.567  14.311
44809W        W16425  44.774  32.914   4.585
44810W        W16426  29.914  34.117  14.478
44811W        W16427  39.357  22.986   4.642
44812W        W16428  40.797  28.577  12.621
44813W        W16429  43.370  23.523  13.350
44814W        W16430   1.637  23.924  12.596
44815W        W16431  38.456  22.834   1.353
44816W        W16432  13.805  24.235  14.887
44817W        W16433  21.786  30.188  11.983
44818W        W16434  27.728  12.227   2.734
44819W        W16435  11.156   1.061   1.836
44820W        W16436  12.444   1.736   4.628
44821W        W16437   5.913  30.928  12.882
44822W        W16438  34.295  39.396  11.681
44823W        W16439  43.872  41.651  14.236
44824W        W16440  18.301  16.323   4.092
44825W        W16441  18.272  15.913  11.878
44826W        W16442  42.976  34.526   0.244
44827W        W16443  17.701  37.081  13.327
44828W        W16444  33.875  37.582   2.307
44829W        W16445  18.358  23.643  14.378
44830W        W16446  22.620  10.408   0.320
44831W        W16447  27.659  24.150   4.406
44832W        W16448  19.244   0.928  13.777
44833W        W16449   1.934  38.358  12.448
44834W        W16450   4.514   7.173   2.610
44835W        W16451  36.931   8.365  12.325
44836W        W16452   5.112  22.144   4.350
44837W        W16453  10.199  17.543   4.897
44838W        W16454   9.905  27.241   0.309
44839W        W16455  35.362  14.132  10.657
44840W        W16456  19.499  38.437   4.516
44841W        W16457  37.450  38.118   3.077
44842W        W16458  39.376  43.203  14.981
44843W        W16459  15.801  19.233   3.206
44844W        W16460  44.692  34.815   3.957
44845W        W16461  18.774  35.001  10.537
44846W        W16462  40.952   7.850  11.207
44847W        W16463  16.589  15.891  12.923
44848W        W16464  26.736  15.156   4.416
44849W        W16465   3.122   9.886  14.851
44850W        W16466  32.481  18.170  13.878
44851W        W16467  16.110   5.663  10.359
44852W        W16468  19.309   2.583   0.782
44853W        W16469  44.859  37.099  14.610
44854W        W16470  23.251  18.267   4.940
44855W        W16471  29.330  41.753   1.424
44856W        W16472  28.695  31.709   9.979
44857W        W16473  44.060  35.009  11.249
44858W        W16474  38.862  16.552   4.206
44859W        W16475  11.932  18.688  10.510
44860W        W16476   6.442  13.127   4.571
44861W        W16477   8.632  37.608  14.108
44862W        W16478   4.680  42.856  12.590
44863W        W16479  31.595  25.396  13.491
44864W        W16480  17.226  19.493   4.192
44865W        W16481  30.622   5.245  11.350
44866W        W16482  10.218  11.611   2.842
44867W        W16483   0.765  44.474  12.508
44868W        W16484  34.760  44.504   0.948
44869W        W16485   4.248  40.446   1.882
44870W        W16486   0.539  16.186  13.084
44871W        W16487  15.533  11.907  13.999
44872W        W16488  22.432   0.379  11.204
44873W        W16489  15.077  13.719   2.225
44874W        W16490  32.104  26.194  11.576
44875W        W16491  31.730   1.408   3.249
44876W        W16492  38.525   0.313   2.145
44877W        W16493   7.214  33.497   0.475
44878W        W16494   9.390  33.691   2.750
44879W        W16495   4.180  44.470   3.761
44880W        W16496  10.544  43.267   1.808
44881W        W16497  17.554  16.800   5.048
44882W        W16498   4.666  13.758  11.977
44883W        W16499  43.903  34.003  12.412
44884W        W16500  35.982  42.159  14.930
44885W        W16501  17.165   0.940  14.829
44886W        W16502   0.325  36.114  11.067
44887W        W16503   5.903  40.800  11.045
44888W        W16504  40.873  19.090   0.848
44889W        W16505   7.454  10.695  13.980
44890W        W16506  28.943  22.616  14.366
44891W        W16507  29.611  41.595  11.212
44892W        W16508  41.127  36.622   0.283
44893W        W16509  32.903  30.960   0.765
44894W        W16510  29.173  13.757   1.105
44895W        W16511   4.734  39.216   2.314
44896W        W16512   9.314   0.986  13.309
44897W        W16513  34.861  21.561   0.830
44898W        W16514   9.924   2.000   0.301
44899W        W16515  12.587  20.316  11.772
44900W        W16516  42.316  20.007   3.317
44901W        W16517  23.471  16.126   1.376
44902W        W16518   3.952   0.865   2.006
44903W        W16519  41.588  15.244   4.526
44904W        W16520  15.112   3.393  12.272
44905W        W16521  10.473   4.488   0.490
44906W        W16522   5.281   3.788  10.978
44907W        W16523  43.414  14.218   3.290
44908W        W16524  35.342  17.400  11.611
44909W        W16525  11.616  15.912   0.764
44910W        W16526  10.707   8.636  14.383
44911W        W16527  21.649   7.640   4.170
44912W        W16528   8.918  19.944  10.323
44913W        W16529   8.273  10.127  13.925
44914W        W16530  19.445  22.262   3.692
44915W        W16531  40.673   0.037  11.511
44916W        W16532  36.372  25.129   3.671
44917W        W16533   7.993  27.150   0.441
44918W        W16534  33.128  28.966   1.235
44919W        W16535  36.371  33.360  13.925
44920W        W16536  38.872   1.560  10.734
44921W        W16537  22.955   9.150   3.293
44922W        W16538  34.479  43.558   0.931
44923W        W16539  32.932  14.738   3.624
44924W        W16540  34.582  44.631  12.502
44925W        W16541  26.905  27.985   3.355
44926W        W16542  18.134   2.441   0.432
44927W        W16543  22.269  39.351   0.148
44928W        W16544  14.225  40.887   4.155
44929W        W16545  13.784  18.344   3.671
44930W        W16546  20.798  20.000   4.136
44931W        W16547  19.075  12.328   4.856
44932W        W16548  14.782  12.913   2.764
44933W        W16549  19.696  42.881  14.815
44934W        W16550   8.702  31.014  13.886
44935W        W16551  17.438  23.070   4.826
44936W        W16552  28.017  44.329  10.760
44937W        W16553  14.106  24.686  11.903
44938W        W16554  21.138   3.357   3.550
44939W        W16555  38.626   3.333   4.538
44940W        W16556   5.540  40.897   1.974
44941W        W16557  11.795   7.612   2.920
44942W        W16558  15.354  14.618  14.535
44943W        W16559   8.904  24.346   2.344
44944W        W16560  43.546  28.146   1.494
44945W        W16561  24.706  44.707  11.679
44946W        W16562  18.529  29.568  11.260
44947W        W16563  33.661   7.839  10.677
44948W        W16564  20.273  30.114  11.208
44949W        W16565   3.073  37.971  11.643
44950W        W16566   0.948  20.037   2.717
44951W        W16567  37.382  18.026   1.451
44952W        W16568  14.197  17.011  11.494
44953W        W16569  31.620  15.660   0.344
44954W        W16570  23.372  39.052  12.562
44955W        W16571  12.737  19.579   1.449
44956W        W16572   1.856  32.438  13.816
44957W        W16573  12.263   6.837  14.926
44958W        W16574  35.448  25.592   3.904
44959W        W16575   0.238  23.816   0.018
44960W        W16576   9.931  29.495  12.101
44961W        W16577  36.640  32.624  14.891
44962W        W16578  32.055   5.307  14.438
44963W        W16579   5.245  40.821  12.715
44964W        W16580  27.731  30.892  10.757
44965W        W16581  39.019  11.112   3.333
44966W        W16582  43.732  18.264  14.440
44967W        W16583  38.475   2.726   0.799
44968W        W16584  30.601  40.957   2.739
44969W        W16585  28.618  26.771  13.417
44970W        W16586   9.944   4.449  11.615
44971W        W16587  27.552  26.434   5.126
44972W        W16588  24.852   3.245   0.176
44973W        W16589   1.958  36.746   1.823
44974W        W16590  29.591  34.008   0.933
44975W        W16591  40.308  15.780  12.647
44976W        W16592  36.390   6.154  13.135
44977W        W16593  30.234  31.444  14.109
44978W        W16594  14.103   6.832  13.551
44979W        W16595  22.825  39.419  14.311
44980W        W16596  11.361  43.333   2.239
44981W        W16597  34.116   3.818  11.931
44982W        W16598   1.798  41.608  13.422
44983W        W16599  43.998   9.828  11.527
44984W        W16600   9.298  21.573  10.927
44985W        W16601   9.722   2.472   2.201
44986W        W16602  40.911  20.768   2.383
44987W        W16603  14.577  23.277   4.999
44988W        W16604   9.621   1.869  14.908
44989W        W16605  22.290   8.829   2.694
44990W        W16606  30.189  38.507  11.452
44991W        W16607  27.109  25.098   1.685
44992W        W16608  14.249  22.688  13.950
44993W        W16609  22.023  29.555   0.284
44994W        W16610  37.113  22.957  13.950
44995W        W16611  10.353  13.146  13.105
44996W        W16612  24.053  41.314   2.093
44997W        W16613  33.693   4.814   0.184
44998W        W16614  37.068  30.009  11.584
44999W        W16615   9.294  24.101  14.806
45000W        W16616   3.244  42.983  13.956
45001W        W16617  41.445   3.170   1.361
45002W        W16618   1.717   3.498   3.592
45003W        W16619  41.523  18.532   4.665
45004W        W16620   3.844  37.356  13.264
45005W        W16621   8.601  15.802   3.292
45006W        W16622  36.643  31.536   1.235
45007W        W16623   8.543   8.292  11.418
45008W        W16624  14.063  32.770  12.549
45009W        W16625   7.314  27.930  11.349
45010W        W16626   4.004  21.609  14.614
45011W        W16627  15.813  27.966  11.642
45012W        W16628  23.155  38.422  10.736
45013W        W16629  27.695   9.545   4.552
45014W        W16630  17.173   1.752  11.090
45015W        W16631  34.547  43.538   1.838
45016W        W16632  22.492  19.460  14.020
45017W        W16633  18.639  29.984  13.548
45018W        W16634  17.750  13.786  11.199
45019W        W16635  12.429  31.442   4.584
45020W        W16636  17.247  27.871   3.233
45021W        W16637   4.898  36.844   4.259
45022W        W16638  13.301   7.844   2.804
45023W        W16639  11.836  39.752   3.759
45024W        W16640   3.259  11.464   3.366
45025W        W16641   1.257  21.254   4.255
45026W        W16642   9.590  26.006   3.087
45027W        W16643   7.116   4.981  11.671
45028W        W16644  44.937  33.518  14.076
45029W        W16645  42.554  22.161  13.391
45030W        W16646  24.752   9.080  13.173
45031W        W16647  11.548   2.932  11.117
45032W        W16648  13.559  42.264   2.805
45033W        W16649   7.380  33.043   2.183
45034W        W16650  32.384  26.938  11.426
45035W        W16651   4.711   4.633   0.349
45036W        W16652   8.669  15.383  14.044
45037W        W16653  20.079  10.843   2.402
45038W        W16654  25.541  11.785   2.066
45039W        W16655  37.148  19.060   1.289
45040W        W16656   4.165  19.653  13.939
45041W        W16657   3.147  30.887  14.320
45042W        W16658  26.088  19.386  11.518
45043W        W16659   1.002  30.212  12.502
45044W        W16660  20.270  28.584   1.537
45045W        W16661  20.648  25.267  14.547
45046W        W16662  19.820  20.819   4.514
45047W        W16663  28.567  40.557  11.133
45048W        W16664  36.826  39.698  12.707
45049W        W16665   3.912  29.644   3.398
45050W        W16666  32.876  10.190  11.693
45051W        W16667  25.960  35.789  13.336
45052W        W16668  35.532   6.305  12.147
45053W        W16669  32.691  40.981  13.322
45054W        W16670   4.276  27.174  11.361
45055W        W16671  29.038  27.569  14.317
45056W        W16672   1.720  12.260   2.024
45057W        W16673  15.648  34.603  11.090
45058W        W16674  19.410  34.412  11.193
45059W        W16675  14.807  12.296  13.342
45060W        W16676  38.400  44.982  12.288
45061W        W16677  30.941   4.426   4.079
45062W        W16678  15.893  40.902  11.128
45063W        W16679  13.729  27.603   2.259
45064W        W16680  25.625  21.615   2.861
45065W        W16681  15.555  32.027  14.126
45066W        W16682   6.311  37.801   4.456
45067W        W16683  18.777  44.429  12.851
45068W        W16684  14.365  44.500   3.210
45069W        W16685  43.509   4.691   1.359
45070W        W16686   5.089  27.465  14.839
45071W        W16687  16.398   5.291  12.541
45072W        W16688  37.537  44.100  13.405
45073W        W16689   7.079   1.012  11.848
45074W        W16690  42.992  23.617  14.775
45075W        W16691  12.730  26.597  13.377
45076W        W16692   5.227  41.338  11.855
45077W        W16693  23.550   2.425  14.361
45078W        W16694  10.563  40.961  10.811
45079W        W16695   1.568  35.033   3.329
45080W        W16696  39.294  14.234  12.953
45081W        W16697  23.315  29.478  12.841
45082W        W16698  27.735  17.731   3.733
45083W        W16699  13.320  28.071  12.082
45084W        W16700  13.283   8.538   1.479
45085W        W16701  20.142  20.499   2.887
45086W        W16702  10.778  28.822   1.236
45087W        W16703  20.660  10.220   3.607
45088W        W16704  44.743  12.939   0.241
45089W        W16705  43.867  11.563   1.699
45090W        W16706  23.705  15.383   4.553
45091W        W16707  44.693   5.922   3.586
45092W        W16708  44.412  14.567  10.819
45093W        W16709  14.385  40.838   2.174
45094W        W16710  20.133  26.813   3.048
45095W        W16711  23.531  16.637   3.212
45096W        W16712  37.480  38.644  12.081
45097W        W16713  39.143  12.584  13.332
45098W        W16714  14.807  16.179  10.048
45099W        W16715  18.874  14.025   2.751
45100W        W16716  29.551   7.544   3.631
45101W        W16717  33.902   9.622  12.954
45102W        W16718  44.103   3.175  10.957
45103W        W16719   9.729   4.966   0.301
45104W        W16720   5.149  32.853  12.586
45105W        W16721   9.615  35.924   1.865
45106W        W16722   2.238   9.780  10.745
45107W        W16723  20.297  31.063  10.894
45108W        W16724  41.385  22.545   1.173
45109W        W16725  17.538  11.729   1.153
45110W        W16726  14.459  23.833   4.926
45111W        W16727  27.014   0.781  13.862
45112W        W16728  41.806  15.755  11.552
45113W        W16729   7.253  14.069  13.922
45114W        W16730   3.861  40.314  12.391
45115W        W16731   8.351  35.619   2.330
45116W        W16732  43.919  37.098   0.268
45117W        W16733  25.632  18.893   2.587
45118W        W16734  30.122  12.287  12.069
45119W        W16735  27.855  32.466   0.291
45120W        W16736  16.710  37.032   2.329
45121W        W16737  39.934  37.371  13.197
45122W        W16738  20.715  24.242   1.844
45123W        W16739  43.278  36.845   2.197
45124W        W16740  11.329  16.254  11.530
45125W        W16741   5.181  42.998   3.658
45126W        W16742  19.154  42.943  10.166
45127W        W16743  40.541  25.161  14.748
45128W        W16744  38.037  35.396   2.185
45129W        W16745   4.245  42.749   3.127
45130W        W16746  29.580  31.770   1.109
45131W        W16747   4.816  37.524   2.485
45132W        W16748   8.930  28.436   0.707
45133W        W16749  41.015  40.107  13.718
45134W        W16750  23.127  17.786  12.860
45135W        W16751  32.358   0.914  11.138
45136W        W16752  36.523   0.970   0.539
45137W        W16753  13.955  29.254  13.288
45138W        W16754  36.398   3.970   3.410
45139W        W16755  14.190  15.552  14.056
45140W        W16756  10.472  43.284  13.493
45141W        W16757   1.401  22.329   9.810
45142W        W16758  23.640  31.735   2.764
45143W        W16759  27.529  31.601   1.740
45144W        W16760  30.154  22.778  14.896
45145W        W16761   0.302  33.170  13.917
45146W        W16762  34.955  11.320  14.869
45147W        W16763  11.677  31.587   1.735
45148W        W16764  23.072  41.534   0.487
45149W        W16765   2.325   7.722   1.769
45150W        W16766  11.026  37.135   3.966
45151W        W16767  43.412   5.381  13.544
45152W        W16768  15.135   6.624  14.075
45153W        W16769  42.025   3.463   4.605
45154W        W16770   6.337  33.457  13.502
45155W        W16771   8.778  26.459   0.840
45156W        W16772  38.096  32.150   1.408
45157W        W16773   0.379  20.625  10.610
45158W        W16774  19.182  36.854   2.496
45159W        W16775  18.805  43.327   1.475
45160W        W16776  18.967  23.670   1.846
45161W        W16777  39.934  11.136  11.597
45162W        W16778  31.514  39.121   2.324
45163W        W16779  19.524  20.540  10.693
45164W        W16780  17.101   6.090   0.532
45165W        W16781   9.593  20.148  14.367
45166W        W16782   5.418  31.349   3.258
45167W        W16783   7.838   5.066   0.421
45168W        W16784  13.249  43.076  12.006
45169W        W16785  44.765  36.108   4.701
45170W        W16786  24.854  12.204  14.794
45171W        W16787   9.868  30.970  14.358
45172W        W16788  37.770  33.458  10.495
45173W        W16789  16.566   2.941  14.399
45174W        W16790  21.484  14.425   1.693
45175W        W16791  37.517  38.100  11.867
45176W        W16792   3.474   7.868  13.378
45177W        W16793  20.976   4.968   1.815
45178W        W16794  32.766  19.344   0.398
45179W        W16795  12.320  22.811  11.901
45180W        W16796  42.272  10.753  13.372
45181W        W16797  41.294  17.322   4.132
45182W        W16798   7.157  32.929   3.933
45183W        W16799  30.761  35.047   1.746
45184W        W16800  37.311  38.588  10.731
45185W        W16801   5.190   7.717   3.458
45186W        W16802  34.583  15.831  14.001
45187W        W16803  32.207  30.228   5.093
45188W        W16804  40.287  25.083  13.376
45189W        W16805   3.252  15.332   1.112
45190W        W16806  35.391  36.452   1.228
45191W        W16807  24.184   8.287   3.779
45192W        W16808  35.802  28.242   0.504
45193W        W16809   1.449  21.205   3.376
45194W        W16810  19.499  27.488  13.427
45195W        W16811  39.365  10.676  12.131
45196W        W16812  17.980   8.543  12.123
45197W        W16813  41.084  25.414  13.927
45198W        W16814  34.609  24.641   1.663
45199W        W16815   6.642  13.663   2.423
45200W        W16816   3.254  31.652  13.482
45201W        W16817  24.730  16.379   0.050
45202W        W16818  24.042   5.329  12.472
45203W        W16819  43.488  16.840  13.019
45204W        W16820  29.651  35.104  10.398
45205W        W16821  32.068  23.251  12.098
45206W        W16822   5.445  44.311  11.111
45207W        W16823  37.417  36.038   3.704
45208W        W16824  42.453  33.102   1.932
45209W        W16825  19.440  15.769   1.189
45210W        W16826  38.429  30.861  14.442
45211W        W16827  37.106  14.206  10.988
45212W        W16828  42.204  40.594   2.237
45213W        W16829  43.528   5.670  14.406
45214W        W16830  12.221  44.520   0.479
45215W        W16831  19.659  10.706   2.136
45216W        W16832  12.416  24.212  13.310
45217W        W16833  15.166  41.566   4.754
45218W        W16834  41.140  17.198  10.695
45219W        W16835  32.916  29.949   4.525
45220W        W16836  40.484   2.331  13.621
45221W        W16837  15.575  27.766   2.770
45222W        W16838  26.961  31.533  11.565
45223W        W16839  39.374  32.636   0.881
45224W        W16840  26.975  15.305  13.461
45225W        W16841  13.877  43.296  11.045
45226W        W16842  42.568   7.657   1.803
45227W        W16843  18.589  23.467   3.351
45228W        W16844  29.652   5.819   0.467
45229W        W16845  34.038  23.255   0.868
45230W        W16846  18.286  38.439   3.733
45231W        W16847  27.086  20.329  14.518
45232W        W16848  40.857  27.929   0.413
45233W        W16849  39.444   6.653   0.581
45234W        W16850   4.951   5.636  12.176
45235W        W16851  39.980  27.050  13.519
45236W        W16852  25.674   2.803  10.746
45237W        W16853   4.070  38.771   4.369
45238W        W16854  10.845  27.990   1.470
45239W        W16855  17.620   7.365  11.639
45240W        W16856  23.154  29.592  10.681
45241W        W16857  25.634   8.989   3.541
45242W        W16858   1.781  13.872   2.896
45243W        W16859  32.893  44.420  11.937
45244W        W16860   0.791  43.440   1.718
45245W        W16861   9.622  21.690   4.736
45246W        W16862  20.925  34.593  13.055
45247W        W16863  10.748  30.340  13.825
45248W        W16864  22.614  29.665  10.756
45249W        W16865  39.362  42.804   0.325
45250W        W16866   0.998  18.082   3.242
45251W        W16867  37.117   0.393   3.237
45252W        W16868   5.947   5.189  10.421
45253W        W16869  22.711  19.110  12.600
45254W        W16870  11.876  41.800   2.481
45255W        W16871  10.347   5.743   4.988
45256W        W16872  43.474   0.191   3.730
45257W        W16873  32.957   0.287  13.520
45258W        W16874   9.715  30.123  13.503
45259W        W16875   9.766  11.486   4.680
45260W        W16876  11.633  18.187   5.183
45261W        W16877  33.125  25.722   1.457
45262W        W16878  31.538  28.522   4.101
45263W        W16879  23.155   9.322  10.540
45264W        W16880  32.662  13.443  10.828
45265W        W16881  14.159   3.324  12.351
45266W        W16882   1.469  38.313  11.644
45267W        W16883  28.437   8.851   2.673
45268W        W16884  43.733  31.893  10.656
45269W        W16885  42.848  38.839   0.838
45270W        W16886   0.703  32.026  13.851
45271W        W16887   0.384  23.659   2.108
45272W        W16888  17.188  24.619   4.776
45273W        W16889  15.258  32.654   3.234
45274W        W16890  39.878  33.915  13.761
45275W        W16891   6.715   4.258  12.555
45276W        W16892  20.076  11.974   0.707
45277W        W16893  25.871  21.057  11.506
45278W        W16894  35.274  12.748  12.499
45279W        W16895  44.552   6.097   0.792
45280W        W16896  28.472  29.063  13.893
45281W        W16897   8.343  26.847  11.230
45282W        W16898   9.663  23.332   3.667
45283W        W16899  29.325  19.818   0.531
45284W        W16900  35.617   9.328   0.409
45285W        W16901   4.840  18.772   2.740
45286W        W16902  44.401  29.395   2.355
45287W        W16903  13.664   4.800   4.993
45288W        W16904  35.521  26.181  11.820
45289W        W16905   3.769  12.293   3.877
45290W        W16906   0.555  34.799  12.967
45291W        W16907  20.651  39.861   2.281
45292W        W16908  16.800  22.360  13.289
45293W        W16909   3.654  22.657   2.345
45294W        W16910  23.997  25.479  12.893
45295W        W16911  44.467  18.271   3.357
45296W        W16912   1.637  11.328   1.713
45297W        W16913  41.034  36.395  10.632
45298W        W16914  26.932  40.035   3.358
45299W        W16915  21.078  34.958  11.514
45300W        W16916  10.265  16.121   2.463
45301W        W16917  10.761  42.502  12.510
45302W        W16918  11.644  44.166   2.622
45303W        W16919   7.970  25.628   1.184
45304W        W16920  30.548   5.774   4.261
45305W        W16921  11.620  14.070  11.155
45306W        W16922  14.623  34.083   4.554
45307W        W16923   0.216  36.811   1.318
45308W        W16924  34.043  20.330   1.304
45309W        W16925   2.774   3.385  14.226
45310W        W16926  33.431  41.399  13.105
45311W        W16927   4.488   5.765  11.934
45312W        W16928  44.421  33.847  12.445
45313W        W16929  31.139  14.485   3.839
45314W        W16930  31.780  20.023   0.839
45315W        W16931  42.924  39.954   1.854
45316W        W16932   1.304  38.277  14.929
45317W        W16933  29.592  42.024   1.770
45318W        W16934  24.444  37.191  10.257
45319W        W16935   3.747  32.924   2.663
45320W        W16936  15.608   0.025   0.430
45321W        W16937   8.387  13.914  13.132
45322W        W16938  13.446  19.365  11.539
45323W        W16939  34.808  14.792  12.881
45324W        W16940  36.048  42.419   4.564
45325W        W16941  18.642  36.540   4.901
45326W        W16942  44.385  28.485  14.732
45327W        W16943  14.119   2.086  13.875
45328W        W16944   0.756  24.217  10.146
45329W        W16945  16.443  19.268   4.480
45330W        W16946  31.558  17.769   2.708
45331W        W16947  14.282   5.930   2.260
45332W        W16948  11.381  39.500  12.972
45333W        W16949  26.641   5.288   2.139
45334W        W16950  35.523  13.118  13.413
45335W        W16951  32.705  31.454  11.594
45336W        W16952   5.292  12.317  11.472
45337W        W16953   4.887  34.403  14.789
45338W        W16954  32.944  31.498   4.702
45339W        W16955  39.475   9.432  11.057
45340W        W16956  41.727   8.631  13.419
45341W        W16957  23.929  31.469   0.420
45342W        W16958  10.323  32.442  11.160
45343W        W16959  13.557  43.787  11.125
45344W        W16960  36.115  19.257  14.010
45345W        W16961  22.985   0.855  11.600
45346W        W16962  16.555  17.167   5.053
45347W        W16963  41.527   8.651   1.237
45348W        W16964  32.302  12.743   3.163
45349W        W16965  18.074  32.939   3.681
45350W        W16966  16.909   7.747  12.856
45351W        W16967  31.954  37.515  13.905
45352W        W16968  44.297  14.326   1.639
45353W        W16969  26.402  39.774  11.103
45354W        W16970  11.142  33.990  10.666
45355W        W16971   9.933  13.599  13.870
45356W        W16972  43.191  24.893   1.393
45357W        W16973  32.507  16.764   4.559
45358W        W16974  40.576  33.129   2.152
45359W        W16975  33.993  37.969  10.686
45360W        W16976  44.393  10.252  14.819
45361W        W16977  18.635  41.280  12.125
45362W        W16978  39.036  18.059  12.716
45363W        W16979  22.778  40.494  13.432
45364W        W16980  18.322  28.619  10.900
45365W        W16981   6.813  32.029  10.453
45366W        W16982   9.824  18.244  14.467
45367W        W16983  13.285  33.046  11.466
45368W        W16984  37.661  27.170  12.506
45369W        W16985  39.898  43.046   1.736
45370W        W16986  12.589  19.380   2.177
45371W        W16987  16.582  12.722  12.023
45372W        W16988  27.459  19.727   4.316
45373W        W16989  19.791  31.438  14.801
45374W        W16990   6.167  42.904  12.478
45375W        W16991  32.913  24.083   0.289
45376W        W16992  17.742  27.506  10.893
45377W        W16993  14.770  35.340  14.768
45378W        W16994   5.296  22.986   4.469
45379W        W16995  39.322  19.140   0.224
45380W        W16996  26.777  35.411  11.752
45381W        W16997  15.997  22.189  12.002
45382W        W16998  27.474  32.502  12.528
45383W        W16999  31.004  28.065  11.575
45384W        W17000  35.366  24.560  13.867
45385W        W17001  16.206  24.255   3.641
45386W        W17002  10.789  14.579   1.329
45387W        W17003  42.329  22.766  14.575
45388W        W17004  36.341   2.407  10.553
45389W        W17005  30.910  15.559   5.040
45390W        W17006   2.285  17.029   2.827
45391W        W17007  32.276  25.681   4.401
45392W        W17008  44.771  12.589  13.554
45393W        W17009   1.319  10.274   2.926
45394W        W17010  23.779  12.353  13.023
45395W        W17011  14.105  32.673  11.071
45396W        W17012   9.791  28.466  10.824
45397W        W17013  10.479  10.151   0.767
45398W        W17014  24.220  20.641  12.518
45399W        W17015  37.410  24.425   2.394
45400W        W17016   3.058   9.986   4.143
45401W        W17017  33.559  10.922  10.592
45402W        W17018  13.188   7.739  12.419
45403W        W17019   2.309  23.336  14.030
45404W        W17020  37.484   3.462   2.651
45405W        W17021  39.629  13.779  11.048
45406W        W17022  29.786  40.480  13.106
45407W        W17023  20.570  41.553   4.194
45408W        W17024  17.505  35.708   0.478
45409W        W17025  26.402  37.579  14.831
45410W        W17026  14.222  31.216  12.611
45411W        W17027   4.264  42.460   1.606
45412W        W17028  11.893  19.595  14.911
45413W        W17029  32.630  15.366   0.133
45414W        W17030  16.381  10.796  14.460
45415W        W17031  25.613  34.289  14.375
45416W        W17032  39.639  25.195   0.172
45417W        W17033  44.277   1.924   3.611
45418W        W17034  19.817  29.515  10.720
45419W        W17035   8.640  31.126  13.386
45420W        W17036  16.849  10.092  14.795
45421W        W17037  42.783  33.819   3.614
45422W        W17038  31.752  39.048  11.555
45423W        W17039  17.255  14.839   2.928
45424W        W17040  34.554   0.843   0.343
45425W        W17041  44.827  44.776   2.859
45426W        W17042   2.973  20.020  14.303
45427W        W17043   6.035  19.331   1.286
45428W        W17044   6.780  37.451  13.720
45429W        W17045  16.664  34.881   0.965
45430W        W17046  24.308   8.940  13.513
45431W        W17047  23.450  34.421  10.677
45432W        W17048  33.439  37.320  11.575
45433W        W17049  35.135  44.965  12.338
45434W        W17050  15.386  42.331  11.593
45435W        W17051  21.719  13.773  10.674
45436W        W17052   0.026  42.706  11.153
45437W        W17053  26.164  20.267  11.901
45438W        W17054  26.998  44.505   4.218
45439W        W17055  15.170  16.633   3.191
45440W        W17056  13.704  33.580   0.708
45441W        W17057  25.383  17.071  14.308
45442W        W17058  39.766  41.923   3.292
45443W        W17059  44.244   0.986   3.408
45444W        W17060  21.494  16.802  14.315
45445W        W17061  21.688  42.983   2.163
45446W        W17062  44.697   8.910  13.875
45447W        W17063   7.460  40.420   0.801
45448W        W17064  43.821  38.010  10.276
45449W        W17065   0.851  21.082   3.604
45450W        W17066   2.760  25.589   4.563
45451W        W17067  24.607  11.840  13.914
45452W        W17068  21.270  17.225   4.124
45453W        W17069  13.478  26.613   1.177
45454W        W17070  40.084   4.109   1.606
45455W        W17071   6.377  22.126   0.822
45456W        W17072  24.946   9.276   0.824
45457W        W17073  12.197  10.108  14.887
45458W        W17074  43.535   6.813   3.909
45459W        W17075   1.734   9.744  10.657
45460W        W17076  27.431  17.238   2.638
45461W        W17077   7.069   7.770  12.334
45462W        W17078  11.962  11.613   3.242
45463W        W17079  37.654  19.490   2.731
45464W        W17080  44.011  18.728  12.524
45465W        W17081  18.523  26.670  14.845
45466W        W17082  28.125   0.301  13.831
45467W        W17083  41.994  40.077  12.433
45468W        W17084  33.822   4.511   4.135
45469W        W17085  36.643  23.077  14.884
45470W        W17086  27.297  11.834  13.003
45471W        W17087  44.590   4.352   0.542
45472W        W17088  29.232  16.889  13.098
45473W        W17089  35.579  41.446   3.048
45474W        W17090  35.126  23.511  14.300
45475W        W17091  27.417  41.872  11.681
45476W        W17092  16.255   2.705   0.224
45477W        W17093   0.729  40.558  13.315
45478W        W17094  16.720  27.018  13.563
45479W        W17095  15.665  32.929   0.373
45480W        W17096  38.356  31.551  12.035
45481W        W17097  20.161  31.619  13.024
45482W        W17098  40.201  43.322  10.767
45483W        W17099  20.531   2.023   0.920
45484W        W17100  31.150   6.272   3.666
45485W        W17101   7.223  34.550  13.496
45486W        W17102  43.807  40.974   0.015
45487W        W17103   6.886   0.413   0.474
45488W        W17104  31.621   2.031  13.835
45489W        W17105  12.383  23.518   0.949
45490W        W17106  11.599  27.674  14.798
45491W        W17107  35.506   2.427  13.839
45492W        W17108  11.836  14.862   2.899
45493W        W17109  14.351  21.817   3.710
45494W        W17110  36.271   2.990   3.612
45495W        W17111  42.915  40.072   4.647
45496W        W17112  37.810   4.753  11.664
45497W        W17113  12.852  13.182  12.399
45498W        W17114  10.248   3.634  10.699
45499W        W17115   7.434  13.085  14.105
45500W        W17116  15.170  23.294   1.422
45501W        W17117   1.335  31.651   2.898
45502W        W17118   4.770  39.350   0.873
45503W        W17119  35.394  34.392  12.204
45504W        W17120  14.085  21.110  13.990
45505W        W17121  22.085  41.436  13.901
45506W        W17122  18.318  19.037   1.739
45507W        W17123  27.642  16.786   3.380
45508W        W17124  24.735   7.402   0.179
45509W        W17125  25.205  43.795  13.174
45510W        W17126  26.158  12.645  14.021
45511W        W17127  37.794   3.102  11.152
45512W        W17128  27.055  30.078  11.666
45513W        W17129  43.124  29.394  14.971
45514W        W17130   8.389  37.650   0.470
45515W        W17131  44.525  29.000  12.648
45516W        W17132  28.518   9.675   4.609
45517W        W17133  24.507  41.276   4.054
45518W        W17134  30.472  30.483  12.425
45519W        W17135  30.042  28.384   3.196
45520W        W17136  42.106   7.044   1.409
45521W        W17137   1.794   2.704  14.420
45522W        W17138  10.637   3.668   2.812
45523W        W17139  39.573  30.937   0.410
45524W        W17140  11.547  24.258   0.795
45525W        W17141   8.650  26.894   4.750
45526W        W17142  22.819  31.144   4.007
45527W        W17143  32.130  42.878   5.198
45528W        W17144  39.280  36.479  11.074
45529W        W17145  29.685  43.724   4.623
45530W        W17146  18.619  10.576  12.019
45531W        W17147  22.916  13.869   1.280
45532W        W17148  43.868  26.955   3.766
45533W        W17149  20.847  22.467   2.220
45534W        W17150  15.944  31.244   3.892
45535W        W17151  32.397  31.655  14.473
45536W        W17152  33.360  17.978   1.472
45537W        W17153  37.296  41.745  14.783
45538W        W17154   3.833   8.766   3.158
45539W        W17155  25.081  31.362  14.838
45540W        W17156  28.080  34.893   4.933
45541W        W17157  39.795   6.792  14.681
45542W        W17158  35.657  11.262   3.667
45543W        W17159  43.469  17.325  12.875
45544W        W17160  22.087   8.362   3.880
45545W        W17161   0.286  25.887   2.315
45546W        W17162   7.940  30.050   4.363
45547W        W17163   0.856  31.552   4.678
45548W        W17164   8.652   9.776   2.953
45549W        W17165  31.273   6.433  14.551
45550W        W17166  24.379  26.001  13.440
45551W        W17167  27.923  41.943  13.592
45552W        W17168  27.951  32.361  13.870
45553W        W17169  14.564  19.448   4.169
45554W        W17170  44.713  26.075   0.498
45555W        W17171   4.308  12.349   2.243
45556W        W17172   2.885  19.698   2.499
45557W        W17173  34.070  36.111  12.995
45558W        W17174  18.580  17.898  12.207
45559W        W17175  39.404  31.441   0.463
45560W        W17176  20.019  10.341   2.379
45561W        W17177  29.073  40.859   3.054
45562W        W17178  27.653  44.247   2.724
45563W        W17179  38.489   3.965  10.710
45564W        W17180  12.675  44.707  11.931
45565W        W17181  32.140  23.076   4.096
45566W        W17182   2.295  36.990   0.311
45567W        W17183  20.296  18.248  13.464
45568W        W17184  21.487  13.331   3.206
45569W        W17185  34.912  42.979  11.548
45570W        W17186   8.663   2.375  11.708
45571W        W17187  13.554  20.844  14.759
45572W        W17188  19.275  32.873   0.807
45573W        W17189  19.850  16.529   2.605
45574W        W17190  14.032  31.475  13.000
45575W        W17191  39.069  10.639  10.542
45576W        W17192  12.321  17.175  14.362
45577W        W17193  36.860  41.089   4.510
45578W        W17194   5.318  38.532   2.586
45579W        W17195  32.924  20.620   3.744
45580W        W17196  18.292   6.104  13.737
45581W        W17197  40.894   4.903  14.653
45582W        W17198  37.541  38.981  14.899
45583W        W17199  26.998  23.540   0.711
45584W        W17200  25.236   9.192  12.996
45585W        W17201  40.104  12.357  10.291
45586W        W17202  36.866  26.127   0.006
45587W        W17203  39.960   5.775  13.772
45588W        W17204  37.916  33.609   2.825
45589W        W17205  22.480  10.355   3.598
45590W        W17206  41.979  32.897   0.176
45591W        W17207  21.066  31.817  13.587
45592W        W17208  17.007   4.874   2.327
45593W        W17209  19.243  17.748   3.885
45594W        W17210  19.619   8.750   3.801
45595W        W17211   5.235  20.773  13.568
45596W        W17212  31.671  10.816  12.545
45597W        W17213  30.455  20.634  14.340
45598W        W17214  25.673   5.677  14.342
45599W        W17215  25.720   6.321   2.310
45600W        W17216  16.827  22.873  13.237
45601W        W17217  14.744   4.845   1.247
45602W        W17218  29.901   4.959  14.315
45603W        W17219  38.000  41.744   2.729
45604W        W17220   7.614  33.545  12.059
45605W        W17221  22.801  43.534   2.885
45606W        W17222  15.727  30.787  13.990
45607W        W17223  38.585  20.540  14.093
45608W        W17224  32.477  39.317  12.856
45609W        W17225  29.219  14.744   9.802
45610W        W17226  37.664  26.442  12.056
45611W        W17227  43.432   1.026  10.799
45612W        W17228  32.230  31.888   0.779
45613W        W17229  38.385   4.453  12.894
45614W        W17230  26.639  26.563  14.986
45615W        W17231   8.145  18.161   0.418
45616W        W17232  40.525  19.783  14.071
45617W        W17233  29.470  27.919  14.055
45618W        W17234   8.242  21.743   3.337
45619W        W17235  29.043  23.788   2.337
45620W        W17236  44.365  41.093   4.367
45621W        W17237  14.689   8.139  12.020
45622W        W17238  13.769   1.728   1.956
45623W        W17239  44.990  26.957  11.413
45624W        W17240   1.426   5.460  14.423
45625W        W17241   6.246  18.753  14.713
45626W        W17242   8.621  41.723  12.051
45627W        W17243   8.728   5.868  11.900
45628W        W17244   8.275   7.710   0.753
45629W        W17245  40.923  44.067  12.377
45630W        W17246  34.611  37.622   0.265
45631W        W17247   4.872  34.049  10.706
45632W        W17248   5.668   6.057   0.809
45633W        W17249   8.722  42.155   4.593
45634W        W17250   0.997  36.467  12.088
45635W        W17251  43.345  42.255  10.858
45636W        W17252   0.303  37.203   0.892
45637W        W17253  43.876   6.557   3.604
45638W        W17254   8.262  42.581  14.921
45639W        W17255   3.758  30.799   4.298
45640W        W17256  14.404  26.564   3.423
45641W        W17257  20.619  15.240  14.345
45642W        W17258   7.725  14.374  10.659
45643W        W17259  32.393  18.299  10.638
45644W        W17260  23.180  30.367  13.420
45645W        W17261  40.643  27.442  14.391
45646W        W17262  30.996  31.847   2.285
45647W        W17263   4.377  25.723  14.365
45648W        W17264  18.667  10.469  11.486
45649W        W17265   6.247  36.918  11.514
45650W        W17266  17.038   6.097   4.170
45651W        W17267   6.821  41.568   2.321
45652W        W17268  44.431  28.058   5.012
45653W        W17269  23.131  39.154  13.011
45654W        W17270  33.638  22.557  11.182
45655W        W17271  39.777   9.816   1.794
45656W        W17272  19.878  42.777   1.687
45657W        W17273  34.909  31.962   4.132
45658W        W17274  25.179   0.976  13.913
45659W        W17275   1.843  23.097  12.439
45660W        W17276   6.137  12.584   1.897
45661W        W17277  16.671  37.516   4.016
45662W        W17278  29.677   8.396  14.415
45663W        W17279  19.439   3.369  10.644
45664W        W17280  31.142  20.582   1.724
45665W        W17281  17.978  39.434   3.136
45666W        W17282  27.713  35.372  12.134
45667W        W17283  20.659   9.023  12.023
45668W        W17284  18.672  34.739  12.290
45669W        W17285   3.873  40.851  12.553
45670W        W17286  17.770  37.531  10.686
45671W        W17287  12.995  29.732   2.181
45672W        W17288   3.596  16.647  13.403
45673W        W17289  40.823  10.356  11.334
45674W        W17290  31.041   7.729   3.091
45675W        W17291  18.272   3.790   1.924
45676W        W17292  18.082  41.638  12.916
45677W        W17293  37.850  26.850   1.962
45678W        W17294  31.021   1.902   3.582
45679W        W17295  41.147  12.904  12.918
45680W        W17296  35.173  44.800   0.760
45681W        W17297  12.925  24.939   1.226
45682W        W17298  12.478  19.446   0.330
45683W        W17299  41.900  40.858   1.520
45684W        W17300  43.851  24.392   4.570
45685W        W17301   4.187  37.410   1.274
45686W        W17302   8.855  26.422   4.820
45687W        W17303   4.930  31.276   4.180
45688W        W17304   5.280   1.943   2.276
45689W        W17305  13.401  32.115  14.322
45690W        W17306   5.893  31.680   1.383
45691W        W17307  11.400  39.359   3.599
45692W        W17308  13.625  35.950  10.669
45693W        W17309  12.632  37.589  10.682
45694W        W17310  17.969  24.184   2.281
45695W        W17311  39.991  10.351   4.310
45696W        W17312  18.056   5.667   0.478
45697W        W17313  17.189  26.115   1.027
45698W        W17314  29.187  26.354   0.500
45699W        W17315  24.896   5.247  10.638
45700W        W17316  30.052   7.760   3.618
45701W        W17317  40.934   1.190  13.535
45702W        W17318  35.611   3.822  11.947
45703W        W17319  34.015  32.715  14.084
45704W        W17320  33.364  33.031   1.738
45705W        W17321   4.939   0.883  12.118
45706W        W17322  13.780  23.177   2.284
45707W        W17323  15.331  32.532   4.111
45708W        W17324  11.178  43.669  11.125
45709W        W17325  17.818  10.470  12.962
45710W        W17326  41.123  38.488  14.851
45711W        W17327   1.898  24.203   2.262
45712W        W17328  17.568   0.983  12.105
45713W        W17329  30.452   1.463   2.868
45714W        W17330   0.903  42.920   0.341
45715W        W17331  20.198  44.523  10.815
45716W        W17332   9.464  17.370   1.102
45717W        W17333  28.711   2.183   2.737
45718W        W17334   1.767  17.828  11.598
45719W        W17335  17.662  19.606  12.800
45720W        W17336  35.894  39.452   3.920
45721W        W17337  33.206  35.841  10.283
45722W        W17338  26.689  16.638   4.592
45723W        W17339  18.519  39.442  14.134
45724W        W17340  23.045  37.950  14.773
45725W        W17341  41.111  19.932   0.788
45726W        W17342  21.715  29.951   3.896
45727W        W17343  43.532  43.623  10.718
45728W        W17344  34.444  27.105   0.299
45729W        W17345   0.688   6.856   0.905
45730W        W17346  12.188  30.831  11.057
45731W        W17347   0.603  44.654  12.949
45732W        W17348   0.852  41.566  13.537
45733W        W17349  11.640  37.847  14.935
45734W        W17350  22.570  10.130   3.133
45735W        W17351  41.377  34.538   4.273
45736W        W17352  18.534  40.893  12.845
45737W        W17353  21.635  43.281  10.528
45738W        W17354   5.705  24.313   3.784
45739W        W17355   0.159  42.671  13.015
45740W        W17356  21.337   6.667  14.493
45741W        W17357  11.630  23.915  13.013
45742W        W17358  40.848   1.034   3.270
45743W        W17359  11.826  32.910  13.285
45744W        W17360  11.940  20.669   3.857
45745W        W17361   7.441  21.783  14.058
45746W        W17362  27.562   6.470   0.605
45747W        W17363  20.318  43.771  12.963
45748W        W17364  43.334  28.438   4.600
45749W        W17365  17.794   8.896   3.338
45750W        W17366  28.165  17.536   2.931
45751W        W17367  20.840  14.787   4.460
45752W        W17368  32.703   2.020   1.732
45753W        W17369  26.246  43.821  12.888
45754W        W17370  39.521  37.791  13.980
45755W        W17371  18.894  38.919   5.082
45756W        W17372  10.069  27.082   4.860
45757W        W17373   8.618  37.546  12.571
45758W        W17374  42.471  29.855   0.808
45759W        W17375   7.336  15.855  12.992
45760W        W17376  36.857  27.950  13.849
45761W        W17377  29.666  10.832   0.682
45762W        W17378  42.882   6.952   1.764
45763W        W17379  19.929   2.719   1.455
45764W        W17380  13.311  41.089  12.047
45765W        W17381  25.986  23.725   0.272
45766W        W17382  42.552  38.965  10.111
45767W        W17383   4.545  22.756   5.424
45768W        W17384  42.322  31.549  11.368
45769W        W17385  43.605  13.752   1.556
45770W        W17386  30.969   8.883  13.924
45771W        W17387  38.823  27.289   4.832
45772W        W17388  16.083  34.847  11.005
45773W        W17389  20.398  24.717  11.235
45774W        W17390  40.401  23.972   4.827
45775W        W17391  18.052  41.099   1.428
45776W        W17392  37.014  27.361  11.035
45777W        W17393  20.179  34.040  12.965
45778W        W17394  23.644  12.928  14.687
45779W        W17395  39.856  36.112   4.606
45780W        W17396  20.536   7.287  11.167
45781W        W17397  25.439  38.588  11.616
45782W        W17398   8.570  31.661   1.518
45783W        W17399  13.938  38.498  14.937
45784W        W17400  27.194  34.132  11.563
45785W        W17401  28.980  20.987  10.428
45786W        W17402  42.518  19.685   4.984
45787W        W17403  29.132  15.983   0.027
45788W        W17404  11.450   2.269   0.198
45789W        W17405  41.719  18.090   4.915
45790W        W17406  40.522  25.696  10.353
45791W        W17407  13.023   3.889   9.539
45792W        W17408  37.596   6.622   0.392
45793W        W17409  33.546   4.720   2.401
45794W        W17410  22.566  33.699   3.815
45795W        W17411  16.802  27.491  14.324
45796W        W17412  22.635  36.396   4.584
45797W        W17413  17.049  32.644  11.527
45798W        W17414   5.949  22.894   2.673
45799W        W17415  14.405  31.161   1.494
45800W        W17416  19.546  20.279  12.049
45801W        W17417  33.102   3.655   2.276
45802W        W17418   5.523  35.544   3.261
45803W        W17419  14.589   0.242  14.065
45804W        W17420  14.402  25.171   3.365
45805W        W17421  33.906  39.520  13.916
45806W        W17422  21.233  43.279  14.932
45807W        W17423  11.338  38.451   0.006
45808W        W17424   4.344  36.431   2.739
45809W        W17425  27.635  22.903  11.281
45810W        W17426  33.470  15.681   2.747
45811W        W17427   2.705  44.829   3.149
45812W        W17428  34.887  27.316  12.864
45813W        W17429  31.036  27.473  14.240
45814W        W17430   1.116  43.751   5.464
45815W        W17431   5.277  22.033   4.843
45816W        W17432  15.078  12.638  12.446
45817W        W17433  10.372  33.464  10.610
45818W        W17434   1.868   9.933   1.751
45819W        W17435  26.990   5.475   1.176
45820W        W17436  26.572  38.722   2.632
45821W        W17437  17.012   8.789   1.732
45822W        W17438  13.776   6.328   3.392
45823W        W17439  15.313  30.445  10.795
45824W        W17440  23.782  17.356   1.889
45825W        W17441   4.133  21.761   1.329
45826W        W17442  24.649   7.828  10.606
45827W        W17443  17.567   5.370  13.327
45828W        W17444  12.726  15.171   0.504
45829W        W17445  23.160  38.455   0.891
45830W        W17446  41.857  14.677   1.495
45831W        W17447  15.546  11.835   3.198
45832W        W17448  44.925   8.641  13.489
45833W        W17449   0.125  35.470  13.437
45834W        W17450  41.252   2.190  12.058
45835W        W17451  16.162  41.274  12.084
45836W        W17452  33.512   4.014  12.622
45837W        W17453   2.917  15.822  11.982
45838W        W17454  36.822  12.888   4.136
45839W        W17455  27.188  25.774  14.333
45840W        W17456  39.758  38.577  14.570
45841W        W17457   5.663  19.142  12.963
45842W        W17458  26.421   7.400   4.220
45843W        W17459  21.565  26.020  14.018
45844W        W17460  10.929  12.913  11.150
45845W        W17461  35.159  28.094   2.268
45846W        W17462  34.064  19.873   2.277
45847W        W17463  36.845   4.568  12.093
45848W        W17464  36.494  42.808   1.922
45849W        W17465  22.267  43.308  14.956
45850W        W17466  17.505   4.422  11.970
45851W        W17467  42.006  22.489  12.501
45852W        W17468  25.776   4.805  13.359
45853W        W17469  42.390  27.096  13.184
45854W        W17470  23.229  15.633   4.561
45855W        W17471  18.248  15.679  14.527
45856W        W17472  28.522  18.288  13.383
45857W        W17473  43.348  26.596   0.084
45858W        W17474  41.078  43.057   5.059
45859W        W17475   3.996  10.962  11.201
45860W        W17476  40.778  30.564   4.576
45861W        W17477  30.378  12.321   4.163
45862W        W17478  26.516  40.057   0.200
45863W        W17479  12.731  15.805   3.122
45864W        W17480  42.552  25.615   5.241
45865W        W17481  12.813  14.599  11.215
45866W        W17482  29.483  10.806   0.094
45867W        W17483  17.221   6.927   3.821
45868W        W17484  26.174  14.755  12.431
45869W        W17485   1.985   8.235  10.723
45870W        W17486  19.627  10.599  10.978
45871W        W17487   1.265  37.403   1.909
45872W        W17488  30.734  21.950   1.854
45873W        W17489  43.509  21.119   2.336
45874W        W17490  39.753   6.750  14.169
45875W        W17491  16.272   1.357  12.169
45876W        W17492  31.512   5.860   0.523
45877W        W17493  15.677  22.084   1.385
45878W        W17494  23.963  12.056  13.414
45879W        W17495  14.618  24.372  11.254
45880W        W17496   3.886  18.803  11.968
45881W        W17497   5.318   9.190   0.420
45882W        W17498  34.190  26.479   2.733
45883W        W17499  13.793  42.653  14.900
45884W        W17500  34.162  15.421  14.692
45885W        W17501  27.609  16.055  13.512
45886W        W17502  22.101  24.000  10.664
45887W        W17503  17.248  26.888   2.315
45888W        W17504  16.955   9.773  11.191
45889W        W17505   6.271  13.022  12.395
45890W        W17506  40.733   8.821  13.091
45891W        W17507  31.065  30.621  13.176
45892W        W17508  37.061  37.502   4.123
45893W        W17509  16.289  36.350  12.545
45894W        W17510  16.054  31.709  12.035
45895W        W17511  37.340  15.058   2.911
45896W        W17512   1.481  10.259   1.317
45897W        W17513  23.488   5.951   2.283
45898W        W17514  26.155  41.820  13.683
45899W        W17515  23.735  20.495   4.089
45900W        W17516   5.161  43.618  14.828
45901W        W17517  26.889  38.029   2.174
45902W        W17518  25.522  42.182   0.413
45903W        W17519  42.550  10.772  12.935
45904W        W17520  42.471  40.265   1.831
45905W        W17521  22.508  38.984   4.102
45906W        W17522  43.826  13.863  13.884
45907W        W17523  34.017  20.771  12.957
45908W        W17524  28.400  10.168   4.495
45909W        W17525  31.079   9.594   2.812
45910W        W17526   2.725  26.950   0.273
45911W        W17527  19.202  22.625   4.850
45912W        W17528  17.839  14.181   0.800
45913W        W17529   2.400  42.640   1.922
45914W        W17530  37.067  36.986   0.409
45915W        W17531  36.509  27.639  14.135
45916W        W17532  19.363  19.487   2.684
45917W        W17533  28.237   8.323  14.394
45918W        W17534  34.006  15.804   0.998
45919W        W17535  25.058  35.600   0.744
45920W        W17536  39.589   0.412   2.819
45921W        W17537  19.356  23.235   3.243
45922W        W17538  10.727  33.395   0.380
45923W        W17539  43.764  35.857   1.731
45924W        W17540  10.615   5.581  13.226
45925W        W17541  16.204   3.837   3.691
45926W        W17542  22.127  43.410  10.721
45927W        W17543   2.273   2.350   0.308
45928W        W17544  15.766   5.000   1.716
45929W        W17545  12.474  12.068   0.393
45930W        W17546  18.054  17.653   2.855
45931W        W17547  43.467  31.857   0.782
45932W        W17548   4.141  44.299  14.397
45933W        W17549   3.706   3.774  13.565
45934W        W17550   4.878  13.475   3.334
45935W        W17551  42.072  31.415   1.365
45936W        W17552  12.157   5.893   1.270
45937W        W17553   8.147   5.838  11.407
45938W        W17554  37.317  22.007  11.596
45939W        W17555  33.092  38.763  10.635
45940W        W17556  15.274  17.221  14.222
45941W        W17557  21.049   3.641  13.793
45942W        W17558   6.279  28.904   2.343
45943W        W17559   3.698  32.130   1.343
45944W        W17560  39.478   3.865  11.673
45945W        W17561  35.805  30.750  13.165
45946W        W17562  34.107  11.646   0.901
45947W        W17563  40.766   4.241  11.470
45948W        W17564  44.814   0.231  13.281
45949W        W17565  15.134  27.715   3.649
45950W        W17566  35.512  27.285   2.456
45951W        W17567  29.745  25.707  11.665
45952W        W17568  36.338  43.463   1.318
45953W        W17569  24.957  22.411  12.015
45954W        W17570  21.340  33.219  12.018
45955W        W17571  10.477  20.587   3.713
45956W        W17572  37.864  12.064   4.879
45957W        W17573  32.005   9.798   3.371
45958W        W17574  41.821  22.256  11.210
45959W        W17575  28.411   9.762  12.091
45960W        W17576  10.633  41.986   1.407
45961W        W17577  26.868  41.322   3.697
45962W        W17578  19.378   0.770   4.939
45963W        W17579  34.485  17.600  11.844
45964W        W17580  35.340   4.377   3.583
45965W        W17581   8.294   1.836   0.451
45966W        W17582  36.674  18.689  14.356
45967W        W17583   3.947  11.815  11.188
45968W        W17584  42.364  35.048  13.585
45969W        W17585   9.088  21.959  14.142
45970W        W17586  10.559  13.092  12.136
45971W        W17587   8.309  44.690  14.162
45972W        W17588  36.998  17.095  12.841
45973W        W17589   7.786   9.781  10.730
45974W        W17590  41.326  20.670  11.499
45975W        W17591  22.651  33.888  12.003
45976W        W17592  10.382  43.958  10.587
45977W        W17593   7.943  25.107  10.781
45978W        W17594  43.534  25.745   2.744
45979W        W17595  19.662   7.747   0.781
45980W        W17596  15.809  22.959   3.823
45981W        W17597  37.340  31.495   0.737
45982W        W17598  10.771  16.092   3.127
45983W        W17599  25.600   0.721  11.831
45984W        W17600  12.880  18.753   3.870
45985W        W17601  16.344  14.216   0.833
45986W        W17602  22.485   9.162   4.084
45987W        W17603  17.998  12.341   4.322
45988W        W17604  36.605  34.512  12.915
45989W        W17605  27.673  43.248   4.003
45990W        W17606  33.043  37.378   1.861
45991W        W17607  34.515  44.805   0.355
45992W        W17608   1.757   8.928  11.060
45993W        W17609  44.723   2.997   0.365
45994W        W17610  30.839  29.958   0.153
45995W        W17611  24.071  43.244   1.913
45996W        W17612  18.355  26.357  11.141
45997W        W17613  18.961  42.851  10.672
45998W        W17614   7.048  21.215  12.895
45999W        W17615  31.125  19.823   2.174
46000W        W17616  34.102  10.225   0.304
46001W        W17617  20.523   2.524   2.272
46002W        W17618   0.790  17.478  10.252
46003W        W17619  21.266  26.155  11.297
46004W        W17620  12.609  10.733   3.203
46005W        W17621  17.486   7.130  11.188
46006W        W17622  39.877  33.760   1.974
46007W        W17623  39.538  13.803  11.557
46008W        W17624  39.871  33.467   3.977
46009W        W17625   5.343   7.936  14.988
46010W        W17626   5.460   3.372   0.387
46011W        W17627   6.767  10.736  11.611
46012W        W17628   7.436  40.267   1.803
46013W        W17629  11.108  35.419  12.436
46014W        W17630   2.548   4.721  11.037
46015W        W17631  15.877  30.442  13.659
46016W        W17632  31.912  34.426  12.910
46017W        W17633  36.553  26.484  10.167
46018W        W17634  22.782  39.126  10.615
46019W        W17635  22.516  20.257  11.938
46020W        W17636  35.073   2.748  13.762
46021W        W17637  14.155  28.129   4.220
46022W        W17638  29.954   3.825  11.553
46023W        W17639  33.917  31.978  12.922
46024W        W17640  13.948   0.044   2.704
46025W        W17641   1.219  37.769  14.801
46026W        W17642  32.029  25.190  11.539
46027W        W17643   5.752  18.341   1.382
46028W        W17644  17.011  26.039  11.043
46029W        W17645  39.366  26.160  10.572
46030W        W17646  14.807  22.180   4.539
46031W        W17647  39.125  12.611  12.816
46032W        W17648  33.380  16.270   4.430
46033W        W17649  33.424  12.462  14.890
46034W        W17650  37.338  38.827   2.265
46035W        W17651   6.168   5.468  13.799
46036W        W17652  13.170  31.690   0.820
46037W        W17653  12.566  22.034  13.454
46038W        W17654  42.368  40.050   3.576
46039W        W17655  11.761  37.675   3.356
46040W        W17656  38.386  43.378   2.416
46041W        W17657  35.405   0.754   4.691
46042W        W17658  43.812  10.296   3.200
46043W        W17659   7.366   8.232  12.482
46044W        W17660  44.302  16.704   3.273
46045W        W17661  22.211   6.917   2.741
46046W        W17662  22.439   9.097  14.680
46047W        W17663  25.559  13.521   3.178
46048W        W17664   8.659  42.097   2.769
46049W        W17665  40.231  33.958  14.833
46050W        W17666   0.822   2.341   0.820
46051W        W17667  16.496  15.386  11.821
46052W        W17668  44.685  39.438  11.170
46053W        W17669  29.177  19.838   1.426
46054W        W17670   8.158  11.225   4.366
46055W        W17671  11.142   8.651   0.225
46056W        W17672   6.044  16.362  12.325
46057W        W17673  21.729  30.210  14.854
46058W        W17674  31.301  12.872  14.968
46059W        W17675  32.486  31.465  10.656
46060W        W17676  43.841   7.022  14.379
46061W        W17677  18.068   2.757  14.899
46062W        W17678  27.631  11.287   2.756
46063W        W17679  17.268  27.285   0.449
46064W        W17680   6.079  27.431   2.722
46065W        W17681  28.002  13.432  14.905
46066W        W17682  43.941   1.149  14.193
46067W        W17683  23.053   1.277  10.899
46068W        W17684   5.876  27.152   0.277
46069W        W17685  15.841  35.145   2.170
46070W        W17686  41.856  41.013   0.456
46071W        W17687  32.373   4.874  12.733
46072W        W17688   3.933  34.008  11.041
46073W        W17689  43.467  37.559   2.772
46074W        W17690  26.939  35.869   5.062
46075W        W17691  20.544  17.584  14.945
46076W        W17692  12.586  38.519  11.640
46077W        W17693   1.319  31.959  14.842
46078W        W17694  11.530   6.261   4.747
46079W        W17695  42.086  10.267  13.485
46080W        W17696  18.493   8.357   2.131
46081W        W17697   8.816  11.611   2.373
46082W        W17698  16.682  34.076   2.169
46083W        W17699  18.666  37.449   4.723
46084W        W17700  36.404   9.846  14.438
46085W        W17701   9.219  16.637   1.690
46086W        W17702  34.012   1.576   0.470
46087W        W17703  22.685  34.854   1.220
46088W        W17704  40.270  17.181   0.959
46089W        W17705   5.129  21.338   2.157
46090W        W17706  42.049  11.422   0.762
46091W        W17707  33.851  11.316  10.767
46092W        W17708  39.883  15.535  11.920
46093W        W17709  37.064  11.294  11.127
46094W        W17710  35.225  25.341  11.089
46095W        W17711  17.664  21.483   4.599
46096W        W17712  13.495  28.024  11.086
46097W        W17713  10.951  25.953   2.780
46098W        W17714  41.281  42.984  14.557
46099W        W17715  12.247  17.331  10.787
46100W        W17716  44.047  35.127  12.158
46101W        W17717  39.405   5.309  11.001
46102W        W17718  30.437  31.146   1.809
46103W        W17719  22.542  25.637  13.385
46104W        W17720  13.360  31.795  11.563
46105W        W17721  44.921  41.602  13.888
46106W        W17722  31.057  21.686  11.204
46107W        W17723  29.233  41.972  11.282
46108W        W17724   1.373  13.115  13.042
46109W        W17725   9.133  37.418  11.985
46110W        W17726  15.637   3.271  12.986
46111W        W17727  28.144  20.623  11.108
46112W        W17728  24.968  44.984   4.897
46113W        W17729   1.883  24.709   3.818
46114W        W17730   4.783  33.879   3.688
46115W        W17731  27.150  29.287   1.493
46116W        W17732  10.866   6.422   0.317
46117W        W17733   7.237  43.994   2.869
46118W        W17734  30.031  29.539  14.393
46119W        W17735  35.149  18.331   1.089
46120W        W17736  20.577  40.013  12.464
46121W        W17737  44.382  14.244  14.857
46122W        W17738  41.459  29.903   0.918
46123W        W17739  24.526  31.952   0.087
46124W        W17740   8.874   2.227  13.884
46125W        W17741  33.111  40.291   2.391
46126W        W17742  33.972  13.115   1.316
46127W        W17743  26.115  44.785  14.473
46128W        W17744  20.177   7.905  10.660
46129W        W17745  27.206  39.116  12.368
46130W        W17746  14.111  17.046   4.244
46131W        W17747  25.435  37.693  11.127
46132W        W17748  33.201  17.695  12.428
46133W        W17749  30.649   5.601   0.485
46134W        W17750  29.611  26.407   3.269
46135W        W17751  17.582  25.712   0.465
46136W        W17752  19.746  38.575   0.282
46137W        W17753  38.515  23.050  13.718
46138W        W17754   6.686  15.053   1.356
46139W        W17755  40.076   3.674   2.858
46140W        W17756  37.847  37.836  13.508
46141W        W17757  15.260  14.563   3.256
46142W        W17758   7.746   0.763  11.528
46143W        W17759  15.644  31.945   1.753
46144W        W17760  42.744  12.760   3.642
46145W        W17761   8.683   0.999   2.312
46146W        W17762  10.806  23.237  13.928
46147W        W17763  40.524  18.272   0.677
46148W        W17764   7.415   4.697   2.834
46149W        W17765  43.508   3.163  12.488
46150W        W17766  12.090  15.813   1.801
46151W        W17767   9.558  41.355   3.315
46152W        W17768  19.458  28.550  11.646
46153W        W17769  28.107  20.433  10.650
46154W        W17770  27.971   9.396  10.891
46155W        W17771  39.593  35.601  11.090
46156W        W17772  28.651  41.703   2.811
46157W        W17773   3.058  23.409   3.575
46158W        W17774  37.071  15.440   2.704
46159W        W17775  33.628  30.924   4.039
46160W        W17776  42.283  36.494  10.230
46161W        W17777  27.154  32.361   1.893
46162W        W17778  43.380  35.714  11.690
46163W        W17779  12.535  19.261   3.113
46164W        W17780  36.458  36.539  14.875
46165W        W17781   5.419  38.482   4.515
46166W        W17782  43.554  24.129  11.542
46167W        W17783  32.416   4.287   4.401
46168W        W17784  30.688  40.345  14.786
46169W        W17785  26.686   8.164  14.433
46170W        W17786  11.013  43.026   4.153
46171W        W17787   7.140  20.561  11.550
46172W        W17788  18.284   9.638   4.792
46173W        W17789   0.187  42.247  12.734
46174W        W17790   9.987  27.232   1.591
46175W        W17791  18.578  41.939  12.870
46176W        W17792  15.081  42.316   4.343
46177W        W17793   6.319  16.221  10.735
46178W        W17794   6.289  19.222   0.842
46179W        W17795  13.271  36.137   0.405
46180W        W17796  22.997  10.828  13.863
46181W        W17797  32.274  39.091  11.555
46182W        W17798  31.588   7.328   4.643
46183W        W17799  43.190  21.134  12.431
46184W        W17800  24.423  25.429   1.664
46185W        W17801  25.068  30.085   3.772
46186W        W17802  11.732  23.171   0.469
46187W        W17803  21.718  41.301  13.522
46188W        W17804  11.080  39.750  10.583
46189W        W17805   8.950  20.086   0.361
46190W        W17806   8.883  34.939   4.059
46191W        W17807  33.570  25.188   0.345
46192W        W17808  37.438  44.878  12.348
46193W        W17809   8.856   0.816  12.456
46194W        W17810  32.686  22.573  14.327
46195W        W17811  18.817  36.722   0.194
46196W        W17812  33.311   8.322   0.289
46197W        W17813   3.508   6.202  13.350
46198W        W17814  30.842  17.313   1.846
46199W        W17815  38.763  18.997   0.446
46200W        W17816   1.272  26.710  14.506
46201W        W17817  31.003  29.429  13.094
46202W        W17818   2.961  14.958  14.420
46203W        W17819  39.832   5.769   0.958
46204W        W17820  36.011  18.988  12.151
46205W        W17821  26.744   7.384  12.822
46206W        W17822  22.689  20.767  12.234
46207W        W17823  34.617  42.303  14.501
46208W        W17824  43.708  26.546   5.132
46209W        W17825  29.061  22.619   0.445
46210W        W17826  15.255  18.587   4.178
46211W        W17827   3.203  41.099  14.813
46212W        W17828  36.003  28.518  12.595
46213W        W17829  31.425  12.412   1.745
46214W        W17830  38.885  41.028   2.306
46215W        W17831   0.511  18.723   2.751
46216W        W17832  32.978   3.269   5.104
46217W        W17833  18.859  30.007  11.119
46218W        W17834  15.949  35.986  13.003
46219W        W17835  37.399  28.472   2.378
46220W        W17836   3.293  26.456   2.754
46221W        W17837  22.615  16.751   1.296
46222W        W17838  18.872  43.445   4.193
46223W        W17839  29.098  20.549  12.719
46224W        W17840  30.168   1.367   3.265
46225W        W17841  30.442  31.410  14.962
46226W        W17842  26.649  31.962   1.338
46227W        W17843  15.010  24.625  14.771
46228W        W17844  13.795   4.266   4.927
46229W        W17845   5.818  19.483  13.382
46230W        W17846  23.457  32.495   3.904
46231W        W17847  25.422   4.699   3.695
46232W        W17848  33.754  44.230  14.473
46233W        W17849  22.833   3.412  11.267
46234W        W17850  14.582   1.999  10.288
46235W        W17851  42.052  22.109  13.470
46236W        W17852  32.882  31.937  13.753
46237W        W17853   3.245  21.785   1.334
46238W        W17854  18.261  23.009   1.488
46239W        W17855  24.850  19.507  14.245
46240W        W17856  18.253  11.214   1.365
46241W        W17857  23.641  17.335   2.631
46242W        W17858   6.306  18.479   1.381
46243W        W17859   4.655  31.421   3.751
46244W        W17860  13.387  17.753  12.464
46245W        W17861  25.978   2.643  11.568
46246W        W17862  11.691  18.067   3.232
46247W        W17863  18.069   0.274   3.617
46248W        W17864   2.292  18.291  10.640
46249W        W17865  13.707  19.643   2.260
46250W        W17866  35.850  38.857  12.063
46251W        W17867  35.624   3.712  10.824
46252W        W17868  24.002  43.288   0.472
46253W        W17869  31.885   9.463  11.583
46254W        W17870   8.866  13.572   0.063
46255W        W17871  28.196  30.544  14.323
46256W        W17872  30.770  21.182  12.130
46257W        W17873  18.048  24.141  10.693
46258W        W17874  39.207  44.492   1.140
46259W        W17875  30.787  33.991   3.517
46260W        W17876  44.018  42.236   2.886
46261W        W17877  16.355  18.356   0.703
46262W        W17878  10.322  13.138  14.595
46263W        W17879  29.711  35.623  10.398
46264W        W17880  12.645  42.752  12.966
46265W        W17881  25.638  43.605  12.413
46266W        W17882  43.931  40.780  14.165
46267W        W17883  13.573  13.648  12.110
46268W        W17884   3.233  13.238   2.088
46269W        W17885  36.108  33.302   1.059
46270W        W17886  35.001   3.670   3.696
46271W        W17887   1.245   6.974   3.270
46272W        W17888  18.355  12.643  12.816
46273W        W17889   6.186  39.872   4.030
46274W        W17890  42.615  37.851   1.711
46275W        W17891  30.174   9.629   3.798
46276W        W17892  39.601  29.046  13.291
46277W        W17893  36.593  27.055   4.591
46278W        W17894  39.245  37.494  10.793
46279W        W17895  29.758   4.961   1.509
46280W        W17896  14.091   6.844   1.823
46281W        W17897  25.095  29.029   1.792
46282W        W17898  20.714  26.250   2.614
46283W        W17899  37.470  21.411   2.822
46284W        W17900  24.718  11.362  11.715
46285W        W17901  25.738   5.879   3.275
46286W        W17902  40.560  17.569   3.423
46287W        W17903  34.560  34.050  11.519
46288W        W17904  35.506  32.217   0.353
46289W        W17905  30.904  15.726  11.858
46290W        W17906  37.526   0.426  13.727
46291W        W17907   6.603  25.485   0.764
46292W        W17908  14.932  27.746   3.153
46293W        W17909   7.798  10.780  13.199
46294W        W17910  26.146  41.226   3.264
46295W        W17911   8.691  38.582  10.706
46296W        W17912  10.630  21.030  10.197
46297W        W17913  29.650  37.376  10.700
46298W        W17914   1.488  37.949  10.655
46299W        W17915  39.640  26.121   2.266
46300W        W17916  21.128   6.919   0.872
46301W        W17917  44.261   2.465   2.426
46302W        W17918  23.142  31.881   0.766
46303W        W17919  23.985  42.544  11.566
46304W        W17920  26.189  37.621  12.201
46305W        W17921  14.212   3.501   2.021
46306W        W17922   1.621  40.024   4.181
46307W        W17923  17.509  20.195   0.411
46308W        W17924  10.881   6.838  10.691
46309W        W17925  42.074  44.042   0.752
46310W        W17926  25.166  23.528  11.278
46311W        W17927  20.106   6.338   2.869
46312W        W17928   7.163  20.357  14.308
46313W        W17929  26.608  13.709   0.030
46314W        W17930  28.834  27.257   2.373
46315W        W17931   3.683  14.667   3.206
46316W        W17932  39.784  16.687  11.219
46317W        W17933  13.228   6.716  12.483
46318W        W17934   5.681   0.333  13.454
46319W        W17935  13.348  38.622   4.154
46320W        W17936  17.196  15.645  11.081
46321W        W17937   0.248  16.039   1.317
46322W        W17938   2.581  11.374   0.334
46323W        W17939   3.867  21.035  10.159
46324W        W17940  35.067  14.687  10.442
46325W        W17941   1.099   6.902  14.670
46326W        W17942   3.763  43.208  11.718
46327W        W17943  38.260  24.677  14.273
46328W        W17944   8.821  40.232  13.851
46329W        W17945  32.918  39.557  12.644
46330W        W17946   0.839  25.045   4.583
46331W        W17947  13.814  25.234   1.332
46332W        W17948  20.266  19.710   0.863
46333W        W17949   0.307   4.831   4.656
46334W        W17950   2.293  16.831  13.077
46335W        W17951  10.568  36.897   3.056
46336W        W17952  32.829  11.437  10.668
46337W        W17953   8.636  21.091  14.487
46338W        W17954  43.528  26.878  10.470
46339W        W17955  35.600  32.651  12.316
46340W        W17956  23.628  44.041  10.842
46341W        W17957  22.464   8.858   4.520
46342W        W17958  33.990  18.282   4.563
46343W        W17959  41.285  15.821  10.427
46344W        W17960  30.660  10.707  12.509
46345W        W17961  30.956   7.162   4.361
46346W        W17962  38.351  40.664  13.359
46347W        W17963  42.312  43.741   1.734
46348W        W17964  11.708  33.431  13.377
46349W        W17965  37.589   4.214  14.523
46350W        W17966  14.907  42.812  13.830
46351W        W17967  29.460  13.002  12.087
46352W        W17968  22.553  30.712  10.809
46353W        W17969  43.311  15.251  12.317
46354W        W17970  35.849  20.882  14.616
46355W        W17971  36.971  10.890  14.391
46356W        W17972  13.406  11.675   4.872
46357W        W17973  36.366  12.283  15.000
46358W        W17974  18.576  15.548   2.949
46359W        W17975  36.350  24.302   1.536
46360W        W17976   2.978  17.792  11.942
46361W        W17977  24.715  29.160   2.697
46362W        W17978  31.626  34.810   0.006
46363W        W17979   9.283  42.947  10.755
46364W        W17980  29.891  26.365  11.962
46365W        W17981  35.637  34.641  14.042
46366W        W17982  16.292  29.665  13.141
46367W        W17983   1.837   9.845  14.827
46368W        W17984  17.632  37.008   0.822
46369W        W17985   4.405  34.997  13.383
46370W        W17986  33.502  10.277  12.530
46371W        W17987  22.023  10.307   3.119
46372W        W17988  14.864   3.266   0.071
46373W        W17989  20.303   0.357   2.870
46374W        W17990  33.184  29.864   4.960
46375W        W17991  19.851   2.052  14.918
46376W        W17992  32.373   0.022   2.832
46377W        W17993  17.268  16.788   3.647
46378W        W17994  39.693  35.093  13.918
46379W        W17995  30.409  35.288   3.301
46380W        W17996  11.890  26.013   0.341
46381W        W17997   0.779  21.194   4.517
46382W        W17998   7.481  25.204  11.565
46383W        W17999  31.221  12.325   0.702
46384W        W18000  19.286  16.249   2.044
46385W        W18001  19.351   8.656   0.348
46386W        W18002   1.812  35.620   1.101
46387W        W18003  16.347  27.896  12.433
46388W        W18004  33.426  13.672  14.971
46389W        W18005  31.136  20.138  11.368
46390W        W18006  37.507  29.459  11.398
46391W        W18007   7.795  36.531  10.708
46392W        W18008   8.237   2.447  14.666
46393W        W18009  27.150  24.678  12.037
46394W        W18010   4.017  13.880  13.045
46395W        W18011  25.088  21.800   3.645
46396W        W18012  36.243  41.507   0.556
46397W        W18013   5.933  34.401  14.847
46398W        W18014  11.012  21.952   1.722
46399W        W18015  16.441   0.901  10.490
46400W        W18016  44.074  27.634   0.927
46401W        W18017  26.303  26.490   2.931
46402W        W18018  30.215  32.949  12.913
46403W        W18019   9.394  36.653  14.771
46404W        W18020  12.707  21.035  14.441
46405W        W18021  40.905  21.729   1.978
46406W        W18022  27.202  16.341   9.848
46407W        W18023  24.697   9.637   3.490
46408W        W18024  34.070  17.600   1.943
46409W        W18025  33.653  30.070   3.658
46410W        W18026  38.516  43.442  11.609
46411W        W18027  13.807  19.277   1.655
46412W        W18028  19.404  43.341   4.225
46413W        W18029  26.922  38.363   0.216
46414W        W18030  37.482  11.118   5.111
46415W        W18031  17.162  35.061  13.232
46416W        W18032  38.516  23.800   4.366
46417W        W18033  37.489   2.036   3.657
46418W        W18034  17.254  39.579  13.456
46419W        W18035   8.671  18.515  12.683
46420W        W18036   5.639  16.627   0.831
46421W        W18037  24.297  17.776  14.967
46422W        W18038   7.108  16.180   2.672
46423W        W18039  10.839   0.632  13.568
46424W        W18040  18.232  25.125  11.599
46425W        W18041  30.728   1.278   3.268
46426W        W18042  21.216   7.677  12.960
46427W        W18043  29.087   2.844   3.224
46428W        W18044  18.031  41.050  11.166
46429W        W18045  42.022  13.624   1.392
46430W        W18046  40.759  30.528  13.832
46431W        W18047  33.537   4.756   1.545
46432W        W18048  37.828  20.727  12.185
46433W        W18049   0.978   3.807  13.388
46434W        W18050  11.703   2.273   4.566
46435W        W18051  22.352  13.914  11.114
46436W        W18052  25.526  17.744  14.107
46437W        W18053  37.583  22.480   1.417
46438W        W18054   2.299  10.331   3.013
46439W        W18055  29.885  17.783   1.935
46440W        W18056  25.718  33.947  11.731
46441W        W18057  34.093  11.854   3.230
46442W        W18058  25.938  42.417  13.112
46443W        W18059  39.848   9.907  12.103
46444W        W18060   8.738  22.921   1.400
46445W        W18061   0.482  37.051   3.579
46446W        W18062  36.107  22.785  11.018
46447W        W18063  41.545  23.624  12.292
46448W        W18064  31.946  37.070  11.880
46449W        W18065  16.983  15.844   3.697
46450W        W18066  18.105  37.417   4.850
46451W        W18067   2.218   5.784   0.299
46452W        W18068   9.699   8.155  13.896
46453W        W18069  12.739  19.712  11.131
46454W        W18070  25.393  21.213  10.686
46455W        W18071  25.454  36.599  12.408
46456W        W18072  29.244  29.263  10.786
46457W        W18073  43.842  21.920  12.852
46458W        W18074  21.575   5.876  13.223
46459W        W18075  25.300  19.819  12.088
46460W        W18076  42.301  18.028   3.086
46461W        W18077  33.517  15.295   1.448
46462W        W18078  12.712  44.280   0.565
46463W        W18079   4.630   8.816   3.313
46464W        W18080  19.494   7.836   4.793
46465W        W18081  22.136   2.433  13.882
46466W        W18082  30.539  41.689  13.033
46467W        W18083  30.503  44.554  13.482
46468W        W18084   6.464  12.214  12.940
46469W        W18085  14.570  32.027   3.301
46470W        W18086  36.018  35.081  11.707
46471W        W18087  10.967  39.378  14.936
46472W        W18088  30.823  15.182   4.004
46473W        W18089   9.044  24.750  13.523
46474W        W18090  31.000  18.465  10.323
46475W        W18091   4.755   0.695   1.106
46476W        W18092  26.722  24.537   3.372
46477W        W18093  44.581  30.131   1.341
46478W        W18094  33.525  41.608   1.226
46479W        W18095  23.911  14.300   3.228
46480W        W18096  40.048   5.861  12.884
46481W        W18097  41.506  32.753   0.423
46482W        W18098  27.524  11.241   0.944
46483W        W18099  32.831  22.122   0.241
46484W        W18100  38.571  34.181   0.406
46485W        W18101  16.656  12.309  10.732
46486W        W18102  20.105  36.258  14.545
46487W        W18103  28.558  14.512   2.796
46488W        W18104  18.508  31.441   4.674
46489W        W18105  35.000  11.630  11.112
46490W        W18106  40.344  22.593  13.432
46491W        W18107  43.792  38.449  12.596
46492W        W18108  41.093  33.902   3.237
46493W        W18109  28.212  10.770  13.839
46494W        W18110  18.229  21.127   1.210
46495W        W18111   5.684  28.026   4.225
46496W        W18112  41.442  36.392   2.343
46497W        W18113  21.163   4.295   3.687
46498W        W18114  38.012  42.054  12.599
46499W        W18115  32.124   1.791  13.091
46500W        W18116  38.090  33.176  12.329
46501W        W18117  32.119  37.953  10.878
46502W        W18118  35.424  15.873  12.019
46503W        W18119  42.609  38.335  14.860
46504W        W18120   7.716   3.216   4.603
46505W        W18121   7.857  40.006   2.852
46506W        W18122  43.942  15.672  12.491
46507W        W18123  10.056  24.949  12.085
46508W        W18124  25.727  31.859  12.010
46509W        W18125  30.119  42.471  11.964
46510W        W18126   3.975  27.100   3.141
46511W        W18127  40.330   5.904  14.509
46512W        W18128  33.059  32.942   4.636
46513W        W18129  15.366   6.706   1.318
46514W        W18130  41.840  15.041  11.138
46515W        W18131  14.945   0.653   0.825
46516W        W18132  14.624   2.723  14.838
46517W        W18133  13.664  42.473   1.725
46518W        W18134  18.454  10.412   3.625
46519W        W18135   3.716  16.220   0.067
46520W        W18136   7.218  43.249   3.324
46521W        W18137   4.485   8.674   2.800
46522W        W18138  23.741  22.445   1.452
46523W        W18139  33.733  27.570   2.234
46524W        W18140  25.565  19.578  10.655
46525W        W18141  12.125   0.715  13.872
46526W        W18142  18.865  32.128  12.986
46527W        W18143  30.384  43.455   4.404
46528W        W18144  42.969  32.954  11.999
46529W        W18145  37.021  44.423   0.303
46530W        W18146  27.934   8.747  13.472
46531W        W18147  43.830  15.854   4.953
46532W        W18148   1.091   5.877  14.485
46533W        W18149  17.576  19.474  14.924
46534W        W18150  38.845  12.322   0.451
46535W        W18151  28.882  12.388   4.388
46536W        W18152  21.960  15.329  14.519
46537W        W18153  29.216  15.555   1.690
46538W        W18154  38.394  19.483   2.133
46539W        W18155   7.425   8.300  10.646
46540W        W18156  37.935  21.071   0.487
46541W        W18157   5.417  26.688  14.289
46542W        W18158  26.533  33.237   0.583
46543W        W18159  30.738  20.197  14.346
46544W        W18160  42.291  27.938  14.752
46545W        W18161  14.901  41.768  10.921
46546W        W18162   0.858  11.601   3.574
46547W        W18163  32.562  20.174   0.247
46548W        W18164  26.926   9.594  13.539
46549W        W18165  30.037  44.864  13.771
46550W        W18166  38.304   1.811   1.258
46551W        W18167  10.155  30.372   0.486
46552W        W18168  26.450  40.555  12.810
46553W        W18169  21.795  21.766   1.333
46554W        W18170  23.771  14.606  11.573
46555W        W18171  31.699   3.714  11.969
46556W        W18172  18.151  16.558  14.108
46557W        W18173   0.789   6.756   3.366
46558W        W18174   6.904  25.664  12.005
46559W        W18175   4.278   9.292  14.469
46560W        W18176  42.939  12.846   2.126
46561W        W18177  32.826  25.609   3.212
46562W        W18178  33.850  36.337  14.955
46563W        W18179   0.432  26.133  11.404
46564W        W18180  29.559  37.109  12.617
46565W        W18181  14.887  19.687   3.763
46566W        W18182  27.596  24.133   3.363
46567W        W18183  16.311   1.439  10.594
46568W        W18184  44.758  19.648  14.972
46569W        W18185  36.617   1.804  13.010
46570W        W18186  18.844   1.786   1.169
46571W        W18187  11.660  32.940  11.786
46572W        W18188  19.105  40.545  11.915
46573W        W18189  16.020  39.387  12.945
46574W        W18190  15.218  22.791   2.203
46575W        W18191  38.284  25.454  11.139
46576W        W18192  12.837  28.180  11.925
46577W        W18193  19.579  37.858  13.425
46578W        W18194  21.602   3.603  14.054
46579W        W18195   0.360  40.644   3.704
46580W        W18196  16.224  30.713  12.964
46581W        W18197   4.643  14.286  11.814
46582W        W18198  44.025   2.452  10.738
46583W        W18199  42.659  38.553   1.243
46584W        W18200  15.579   2.413   0.748
46585W        W18201  11.506   7.000  11.687
46586W        W18202   4.227  14.117  10.606
46587W        W18203  12.668  43.039   3.664
46588W        W18204  32.406  42.821  13.479
46589W        W18205  34.995  21.139   0.587
46590W        W18206   2.938   5.626   1.417
46591W        W18207  21.961  15.700   3.793
46592W        W18208   5.163  31.498   3.691
46593W        W18209   5.583  13.133  14.044
46594W        W18210  12.635   7.368  12.077
46595W        W18211  30.115   0.047   3.740
46596W        W18212  43.837  24.252   2.253
46597W        W18213  39.471   8.671  11.608
46598W        W18214  11.114  15.929  14.591
46599W        W18215  33.651   0.539   2.164
46600W        W18216   6.731  26.562  11.465
46601W        W18217  15.307  18.015   0.807
46602W        W18218  36.091  39.343   1.888
46603W        W18219   2.334  31.231   4.768
46604W        W18220   2.453  17.713  14.812
46605W        W18221   0.044  16.112  12.961
46606W        W18222   0.265  29.581   2.877
46607W        W18223  35.312  29.668   1.687
46608W        W18224  25.781  44.803  10.870
46609W        W18225  37.246  29.845   4.199
46610W        W18226  28.380   1.435  12.550
46611W        W18227  42.949   8.839  13.318
46612W        W18228  33.645   5.894  11.503
46613W        W18229  25.435  35.811  14.372
46614W        W18230  23.034   3.784   0.253
46615W        W18231  11.879   4.594   5.477
46616W        W18232   0.462   9.043  11.101
46617W        W18233  13.996  33.976  14.414
46618W        W18234  27.480  34.087   0.837
46619W        W18235  31.608  37.119  12.495
46620W        W18236  44.050  37.316  13.342
46621W        W18237  37.535  39.009  11.678
46622W        W18238  12.640  17.624   4.580
46623W        W18239  39.072  12.400  12.285
46624W        W18240  28.371  11.719   4.974
46625W        W18241   6.435   1.863   3.673
46626W        W18242  39.976  27.336   0.780
46627W        W18243  30.611  37.047  13.448
46628W        W18244  36.024  36.684   1.950
46629W        W18245  36.089  35.124  13.962
46630W        W18246  18.165   7.509  14.198
46631W        W18247  24.220  36.439  11.289
46632W        W18248  28.222  28.585  13.876
46633W        W18249  12.280  29.644  13.967
46634W        W18250  42.574  29.022  12.450
46635W        W18251  19.647  44.460   9.644
46636W        W18252   7.783  38.352   4.342
46637W        W18253   0.453  24.817  13.941
46638W        W18254  14.670  23.579  10.609
46639W        W18255   2.596  13.723  11.851
46640W        W18256  25.315   1.239  12.804
46641W        W18257   0.668  35.958  12.607
46642W        W18258  22.856  42.589  11.532
46643W        W18259  35.036  14.063   5.057
46644W        W18260  33.914  27.502  13.807
46645W        W18261  26.507  10.982   4.595
46646W        W18262   4.229  44.997   3.767
46647W        W18263   2.723  21.281   0.710
46648W        W18264  38.634  36.569   1.794
46649W        W18265  39.947   0.446  14.924
46650W        W18266  22.022  33.089  13.337
46651W        W18267  37.136   9.698  14.722
46652W        W18268  20.697   0.315  14.305
46653W        W18269  37.426  19.266  11.444
46654W        W18270  12.216  16.933   2.515
46655W        W18271  13.173  26.224   2.094
46656W        W18272  22.041  10.854  12.436
46657W        W18273  24.144  43.916   1.233
46658W        W18274   6.423  37.873   3.606
46659W        W18275  19.706  32.000  13.576
46660W        W18276   8.313  23.051   3.686
46661W        W18277  28.787  21.002  14.442
46662W        W18278  38.115   7.713  14.168
46663W        W18279  17.158  11.804  14.841
46664W        W18280   1.634   2.983   3.494
46665W        W18281  42.567  13.607   0.320
46666W        W18282  24.569   0.294   3.913
46667W        W18283  37.193  12.086  11.157
46668W        W18284  25.471   1.519  14.547
46669W        W18285  24.724  22.039   0.703
46670W        W18286   1.356   4.847  11.728
46671W        W18287   6.457  15.748  10.142
46672W        W18288  10.115  25.603  13.410
46673W        W18289  35.894  17.804   3.577
46674W        W18290  18.871  13.353   0.989
46675W        W18291  37.792   1.843   3.220
46676W        W18292  43.936  21.479  12.625
46677W        W18293  23.452  39.784   4.146
46678W        W18294  16.612  42.011   4.073
46679W        W18295  30.922   4.347  14.013
46680W        W18296  44.283  27.545  14.391
46681W        W18297  30.968  18.649   1.679
46682W        W18298  22.148  12.686  10.697
46683W        W18299  36.436  40.008   2.755
46684W        W18300   1.321  36.987  10.618
46685W        W18301   4.134  21.076   2.311
46686W        W18302   5.441  16.778   2.377
46687W        W18303  12.782  31.632   3.154
46688W        W18304  36.481   1.252  13.012
46689W        W18305  11.785   9.834   2.025
46690W        W18306  39.264  21.527  10.567
46691W        W18307  24.608  17.803  10.905
46692W        W18308  14.153  31.013   2.356
46693W        W18309   2.389  19.483  10.343
46694W        W18310   4.949  42.551  11.175
46695W        W18311   9.743  39.362   0.876
46696W        W18312  41.260  17.482  11.889
46697W        W18313  15.240  10.449  10.838
46698W        W18314  35.499   2.530   1.337
46699W        W18315  32.505  13.257  13.874
46700W        W18316   0.758   1.180   1.233
46701W        W18317  34.928  38.376  11.935
46702W        W18318  11.237  13.782  10.956
46703W        W18319   8.882  26.275   1.309
46704W        W18320  15.694  17.137   0.347
46705W        W18321   4.316  17.635  10.756
46706W        W18322  12.312  35.151  13.641
46707W        W18323  27.114  28.448   3.270
46708W        W18324  38.404  42.780   5.196
46709W        W18325  40.828   1.917   2.034
46710W        W18326   1.146   5.305  14.871
46711W        W18327  36.464  31.848   0.724
46712W        W18328  27.503  31.974   4.232
46713W        W18329  30.933  42.335   0.426
46714W        W18330  41.256   2.701   1.441
46715W        W18331  11.719  10.606   4.248
46716W        W18332  15.804  19.295   1.036
46717W        W18333  13.882   1.609   0.400
46718W        W18334  15.700   0.692   1.295
46719W        W18335  42.437  24.341  11.215
46720W        W18336  37.402  41.283   2.215
46721W        W18337  32.908   3.352  12.103
46722W        W18338   2.076  27.431  12.557
46723W        W18339  10.613  27.189  12.134
46724W        W18340  42.602  38.067  12.877
46725W        W18341  32.174  22.582   4.785
46726W        W18342  31.966  23.257   1.418
46727W        W18343   8.704   7.220   0.059
46728W        W18344   0.320   7.193  10.965
46729W        W18345   4.568  33.609   5.226
46730W        W18346  12.817  40.893  13.521
46731W        W18347  16.657  23.739  10.611
46732W        W18348  42.788  34.578   4.802
46733W        W18349  31.376  18.963  11.627
46734W        W18350  39.289  12.328  11.239
46735W        W18351  32.877  27.143  11.222
46736W        W18352  28.918  42.793   3.546
46737W        W18353  37.982  39.469  13.021
46738W        W18354  20.615  18.780   4.892
46739W        W18355  43.037  10.661   4.067
46740W        W18356   5.172  33.483  10.932
46741W        W18357  12.104  35.960   2.900
46742W        W18358  30.290  30.889   2.819
46743W        W18359   4.471   1.259   4.241
46744W        W18360  16.972   4.294   0.560
46745W        W18361  14.578   3.427   3.530
46746W        W18362   0.156  24.047   5.106
46747W        W18363  35.931  41.484   4.370
46748W        W18364  33.497  36.102   2.868
46749W        W18365  36.415  25.957  13.875
46750W        W18366  40.845  33.503   0.426
46751W        W18367  22.219   8.206  10.887
46752W        W18368  18.253  12.741   4.126
46753W        W18369  18.672  21.289   4.054
46754W        W18370   4.819  34.099   1.208
46755W        W18371  33.364   4.794  13.301
46756W        W18372  19.092  25.787  11.608
46757W        W18373  27.364  14.136   3.298
46758W        W18374   6.990  23.662  10.660
46759W        W18375   9.735  21.204  13.807
46760W        W18376   5.501   7.854   0.792
46761W        W18377  18.333  25.062   3.627
46762W        W18378  31.148  17.303   4.565
46763W        W18379  16.909  35.776   1.962
46764W        W18380  20.294  27.591   0.496
46765W        W18381   5.362   3.674  10.490
46766W        W18382  42.135  13.157   5.224
46767W        W18383  28.373  16.673   1.498
46768W        W18384  25.487  33.472  10.662
46769W        W18385  36.383  32.993  14.564
46770W        W18386  37.184  10.692   1.850
46771W        W18387  32.360  26.099  14.117
46772W        W18388  41.557  40.246   2.694
46773W        W18389  20.532  26.666  14.300
46774W        W18390  36.201  28.040  10.950
46775W        W18391   2.463   5.802   3.119
46776W        W18392   0.469  27.550   4.785
46777W        W18393   2.763  17.261  12.013
46778W        W18394   6.723   1.817  13.380
46779W        W18395  23.563  19.564   2.125
46780W        W18396  29.493  37.054   0.476
46781W        W18397  17.766  31.701  13.417
46782W        W18398  34.866  36.129  11.134
46783W        W18399  21.758   3.370  12.941
46784W        W18400  38.698   2.522  13.972
46785W        W18401   8.824  25.995   0.472
46786W        W18402   9.435  20.280   0.271
46787W        W18403  16.116  18.465  11.483
46788W        W18404   6.896   2.916  12.526
46789W        W18405   3.356  11.267  13.717
46790W        W18406   3.742   7.435   0.465
46791W        W18407  32.193  26.691  14.394
46792W        W18408  41.473  34.472   4.784
46793W        W18409   6.381  17.726  13.037
46794W        W18410   0.450  41.582   2.042
46795W        W18411   3.242  24.923  11.147
46796W        W18412  44.306  19.647   4.124
46797W        W18413  23.053  26.760   2.407
46798W        W18414  33.387  44.539  11.634
46799W        W18415  28.650   9.890  13.898
46800W        W18416  14.843  43.509  14.612
46801W        W18417  38.009  29.318  13.069
46802W        W18418  36.573  34.781  10.448
46803W        W18419  25.526  30.389  14.355
46804W        W18420  35.765   0.966   4.323
46805W        W18421   5.007  25.004   2.702
46806W        W18422  13.774  41.013  14.269
46807W        W18423  14.680  16.388  12.809
46808W        W18424  15.913   1.303  12.549
46809W        W18425  17.756  21.141   1.457
46810W        W18426  34.398  15.049  12.613
46811W        W18427  18.941  20.655   1.709
46812W        W18428  40.033  29.473  11.107
46813W        W18429  34.039   9.379  11.016
46814W        W18430  13.981  39.123   4.835
46815W        W18431  24.633  14.166   3.582
46816W        W18432  26.982  37.526  13.499
46817W        W18433  44.715  20.647  12.026
46818W        W18434  31.163   3.375   0.446
46819W        W18435   2.488   2.967   1.278
46820W        W18436  10.278  42.863   4.520
46821W        W18437  18.484  24.576   3.663
46822W        W18438  22.242  19.517   3.227
46823W        W18439  40.217  30.419  11.101
46824W        W18440  32.865  29.471   5.055
46825W        W18441  44.003  21.104  12.057
46826W        W18442  34.471  22.656   1.161
46827W        W18443  28.075  18.178  11.657
46828W        W18444  28.266   4.139   0.632
46829W        W18445   4.259   4.366   2.398
46830W        W18446  20.590  15.962  14.894
46831W        W18447  11.693  27.629   3.135
46832W        W18448  21.975  44.245  10.242
46833W        W18449  35.547  39.059  13.005
46834W        W18450  14.843  20.312  11.460
46835W        W18451  10.087  16.039  12.062
46836W        W18452  33.345  28.598   0.903
46837W        W18453  19.072  27.696  10.969
46838W        W18454  11.798   1.788  13.862
46839W        W18455  24.651   8.234   0.479
46840W        W18456   2.718  20.475  14.326
46841W        W18457  17.718  31.710   1.264
46842W        W18458  13.625   7.179  13.054
46843W        W18459   8.199   3.531  12.976
46844W        W18460   4.773  24.463   4.184
46845W        W18461  21.262  21.612   1.323
46846W        W18462  34.715  40.689  10.480
46847W        W18463  23.011  16.324  13.113
46848W        W18464  39.430   4.871  11.646
46849W        W18465   6.801  13.330  10.673
46850W        W18466  28.185  30.957  11.590
46851W        W18467  10.787   1.680  10.668
46852W        W18468  24.439   3.132   3.317
46853W        W18469  30.671  27.682   0.935
46854W        W18470  34.616   4.940  12.814
46855W        W18471  30.558  43.970  14.344
46856W        W18472  25.059  27.838   4.219
46857W        W18473  31.226  34.672   0.717
46858W        W18474  31.460  29.927   4.042
46859W        W18475  33.850  23.208   0.363
46860W        W18476  18.519  23.089   0.231
46861W        W18477  40.381  42.436  13.538
46862W        W18478   9.955  38.286   4.671
46863W        W18479   2.943  43.698   2.240
46864W        W18480  38.497  13.812   4.501
46865W        W18481  20.204  23.570   4.287
46866W        W18482   4.101  27.562   0.525
46867W        W18483  32.010   0.944   1.419
46868W        W18484  15.258  12.887   2.138
46869W        W18485  19.026  29.600   2.575
46870W        W18486  42.894  26.147  13.842
46871W        W18487   0.368  41.918   0.684
46872W        W18488  27.701  15.815   0.896
46873W        W18489  13.392  19.491  14.728
46874W        W18490  14.490  27.752  11.145
46875W        W18491  36.426  28.145  14.096
46876W        W18492  31.543   8.725   4.287
46877W        W18493  14.276   6.242   2.728
46878W        W18494  34.044  39.090   2.425
46879W        W18495  19.186  11.367  11.146
46880W        W18496  19.161  25.198   3.307
46881W        W18497  43.812  28.595   0.775
46882W        W18498  19.110  16.558  13.968
46883W        W18499  20.479  41.765  13.613
46884W        W18500  26.337  12.212  14.960
46885W        W18501   9.608   5.762   0.992
46886W        W18502  42.927  18.656  14.786
46887W        W18503  44.823   2.660   0.759
46888W        W18504  44.476  23.693   0.503
46889W        W18505   3.183  37.992   3.151
46890W        W18506   7.304   3.780  12.143
46891W        W18507  37.835  30.383   1.683
46892W        W18508  39.325  13.029   2.395
46893W        W18509  33.181  36.863  12.379
46894W        W18510  12.724  29.580  11.754
46895W        W18511  37.299   1.296  10.596
46896W        W18512  19.127  43.534   3.758
46897W        W18513  33.786  27.713  11.138
46898W        W18514  15.755  30.969  12.964
46899W        W18515  31.095   5.705  14.334
46900W        W18516  13.331   3.771   9.974
46901W        W18517  18.744  22.306  10.711
46902W        W18518  19.897  30.983  13.941
46903W        W18519  38.953  33.513   4.549
46904W        W18520  14.246  31.020  13.126
46905W        W18521  42.525  44.282   0.852
46906W        W18522  29.145  19.318  14.177
46907W        W18523   0.011  17.369   3.706
46908W        W18524  41.315   7.622   1.291
46909W        W18525   8.268   2.744   2.216
46910W        W18526  41.894  13.697  10.791
46911W        W18527   4.838  39.701   2.371
46912W        W18528  41.089  21.685  12.937
46913W        W18529  42.700  28.135  14.982
46914W        W18530   3.962  44.454   1.720
46915W        W18531   3.254  17.305  11.190
46916W        W18532   3.588  31.273  13.407
46917W        W18533  11.090  35.560  12.924
46918W        W18534  27.945  25.524   0.325
46919W        W18535  10.162  26.529  11.397
46920W        W18536  13.714  36.865  13.180
46921W        W18537   2.275  27.959   1.112
46922W        W18538  17.295   8.185   1.007
46923W        W18539  19.642  38.264  12.841
46924W        W18540   6.377  34.008   2.876
46925W        W18541  42.883   5.415   1.920
46926W        W18542  21.467  21.309  12.499
46927W        W18543   3.328   8.614   3.221
46928W        W18544  16.359   4.363  10.446
46929W        W18545   2.847   1.219   4.281
46930W        W18546  18.051  27.439   3.663
46931W        W18547  21.144   0.542  12.108
46932W        W18548  10.736  14.690   1.857
46933W        W18549  20.968   1.362  12.347
46934W        W18550  19.184  10.793  13.962
46935W        W18551  12.337  15.772   0.346
46936W        W18552  34.614  22.732  13.039
46937W        W18553  43.023   4.338  11.649
46938W        W18554  10.158   2.438   4.060
46939W        W18555  38.062  32.035  14.778
46940W        W18556  27.847  20.098   1.307
46941W        W18557   7.888  27.366   3.948
46942W        W18558  21.307  27.735   3.519
46943W        W18559  31.002  23.703  12.512
46944W        W18560  32.355   4.338   0.275
46945W        W18561  28.102  12.061   4.545
46946W        W18562  17.697  11.600   4.136
46947W        W18563   2.361  32.168  12.603
46948W        W18564  19.293  42.303   5.072
46949W        W18565  20.958   6.402   2.714
46950W        W18566  13.282  18.100   3.690
46951W        W18567  23.213  25.200  12.493
46952W        W18568  28.387  29.907  14.976
46953W        W18569   5.461  10.272   3.180
46954W        W18570  34.407  19.735  11.232
46955W        W18571  15.377  44.827  12.579
46956W        W18572  32.305  20.609   0.158
46957W        W18573   7.272  39.135   0.513
46958W        W18574   9.836  13.387  11.607
46959W        W18575  34.455  11.247   1.043
46960W        W18576  19.331  18.044   4.739
46961W        W18577  22.659  14.192   0.226
46962W        W18578   9.391  33.609  11.581
46963W        W18579  25.384  21.249  11.550
46964W        W18580  26.879   5.633   2.574
46965W        W18581  42.778  40.809   0.921
46966W        W18582  28.705  33.117  13.841
46967W        W18583  26.300  42.161  14.968
46968W        W18584  12.858  36.499   2.146
46969W        W18585  42.473  14.132  12.328
46970W        W18586  44.253  25.717  14.021
46971W        W18587  39.453  27.212  12.770
46972W        W18588  34.055  16.123  10.044
46973W        W18589  10.871  19.355  11.490
46974W        W18590  10.299   5.899   2.845
46975W        W18591  34.597  31.055   0.387
46976W        W18592  16.603  28.649   1.263
46977W        W18593   6.823  12.691   0.576
46978W        W18594  10.122  11.244   3.222
46979W        W18595  28.542  18.731  10.613
46980W        W18596  11.365  35.351  10.574
46981W        W18597  26.108  12.329   1.383
46982W        W18598  43.789  29.689   0.535
46983W        W18599  43.489  24.247  10.718
46984W        W18600  44.673  38.406   1.891
46985W        W18601  21.043  18.285   2.636
46986W        W18602  19.170  32.168  14.701
46987W        W18603  43.488   1.856   2.424
46988W        W18604  21.971  18.666  11.435
46989W        W18605  21.701  17.808   1.257
46990W        W18606   7.914  35.728   3.018
46991W        W18607  13.259  23.422  11.586
46992W        W18608   7.642  44.433   4.224
46993W        W18609  10.451  37.601  12.565
46994W        W18610   2.739  41.389   4.221
46995W        W18611  19.619  13.811  12.990
46996W        W18612  12.747   3.225   2.251
46997W        W18613  31.279  44.036   0.352
46998W        W18614   1.909   3.795   3.198
46999W        W18615  37.786  15.659   1.707
47000W        W18616   3.629  31.566   2.291
47001W        W18617   7.902  34.969  14.574
47002W        W18618  35.698  34.647  13.184
47003W        W18619  41.827  18.467  11.669
47004W        W18620   1.465  26.184   2.133
47005W        W18621  15.283  14.653   1.282
47006W        W18622  42.231  23.122   1.891
47007W        W18623  36.051  39.773   4.567
47008W        W18624  27.639  33.033   2.809
47009W        W18625  10.033  36.857  13.581
47010W        W18626  11.066  38.536  11.538
47011W        W18627  38.798  19.792   3.750
47012W        W18628  26.541  26.087  11.016
47013W        W18629  17.283   0.276  14.328
47014W        W18630  30.428   8.215  14.844
47015W        W18631  39.754   3.295   1.710
47016W        W18632  34.072   3.322   4.172
47017W        W18633  40.990  37.887   4.156
47018W        W18634  33.544  28.704   2.890
47019W        W18635  13.956  21.636   0.715
47020W        W18636  41.554  21.504  12.988
47021W        W18637   8.282  28.661  12.654
47022W        W18638  19.013  25.731  11.109
47023W        W18639  33.459  12.374   3.577
47024W        W18640  41.302   2.716  12.047
47025W        W18641  41.577  19.722   2.318
47026W        W18642  15.287  23.263   2.455
47027W        W18643  41.125  35.032   2.827
47028W        W18644  43.797  19.111   4.411
47029W        W18645   3.015  39.772  10.685
47030W        W18646  33.517  32.164  14.678
47031W        W18647  29.655  11.937   3.592
47032W        W18648  27.330   2.872   2.031
47033W        W18649  35.551  42.892  10.782
47034W        W18650  34.227  24.822  11.436
47035W        W18651  26.603  13.799   9.889
47036W        W18652  42.189  24.129   2.785
47037W        W18653  37.633  23.276  11.887
47038W        W18654   2.879  43.823   3.176
47039W        W18655   1.857  20.056  13.577
47040W        W18656   1.755  22.322  14.766
47041W        W18657   0.803  17.011   2.374
47042W        W18658  42.840  42.418   0.771
47043W        W18659  16.152   0.997  13.951
47044W        W18660  15.316  33.393   4.528
47045W        W18661   1.176  13.342  12.047
47046W        W18662  14.167   8.187  11.575
47047W        W18663  32.481  22.604  12.477
47048W        W18664   6.756   3.797  11.246
47049W        W18665  27.882  26.541   3.721
47050W        W18666  33.513  35.455  12.342
47051W        W18667  26.129  24.583  14.933
47052W        W18668  30.950  44.709   0.949
47053W        W18669  23.406  24.268  14.864
47054W        W18670  27.578  12.299  12.999
47055W        W18671  34.630  14.269  13.000
47056W        W18672  10.442   1.844  12.435
47057W        W18673  27.712  24.236  14.824
47058W        W18674  41.975   0.421  13.342
47059W        W18675  24.724  26.665   2.733
47060W        W18676   2.141   9.816   2.464
47061W        W18677  37.346   8.066  11.094
47062W        W18678  29.990   4.405  14.341
47063W        W18679  24.120  10.192  10.712
47064W        W18680   6.833  16.159   3.120
47065W        W18681   4.393  30.353  11.448
47066W        W18682   2.322  13.732   0.757
47067W        W18683   8.495  26.656  12.080
47068W        W18684  32.454   6.325  12.810
47069W        W18685  11.184  24.254  13.046
47070W        W18686  39.821  36.614   0.072
47071W        W18687   3.506  23.581   1.443
47072W        W18688  23.757  32.229   2.830
47073W        W18689  17.346  34.594   1.252
47074W        W18690  39.143   8.694   3.328
47075W        W18691  22.504  15.664  11.896
47076W        W18692  33.647  13.799  11.121
47077W        W18693  27.818  15.061  10.222
47078W        W18694   7.259  32.241   1.320
47079W        W18695  15.773  42.467   3.593
47080W        W18696  16.355  31.903   1.149
47081W        W18697   8.941  18.003  14.510
47082W        W18698  42.564  27.935  12.868
47083W        W18699  10.940   1.225   3.571
47084W        W18700  41.044   2.374  10.614
47085W        W18701  23.237  23.531  11.107
47086W        W18702  42.024  10.414   2.732
47087W        W18703   7.815  32.908   4.629
47088W        W18704  16.107  21.932  13.854
47089W        W18705  31.433  27.810   9.985
47090W        W18706  36.580  19.105   0.864
47091W        W18707  38.800  22.090  14.017
47092W        W18708  41.072  44.920   0.650
47093W        W18709  16.615   6.375  12.383
47094W        W18710  33.891  28.513   3.239
47095W        W18711  30.871  37.870   1.894
47096W        W18712  13.960  10.165   5.002
47097W        W18713  15.938  22.630  10.421
47098W        W18714  22.843   6.582   4.138
47099W        W18715  27.052  39.105   3.129
47100W        W18716  24.194  13.368   3.113
47101W        W18717   3.545   1.474  10.183
47102W        W18718  11.290   6.136  13.526
47103W        W18719  42.386   8.549   0.638
47104W        W18720  14.834   7.439  13.635
47105W        W18721  37.770  17.086   2.891
47106W        W18722  12.762   0.454  12.385
47107W        W18723  37.121   8.687   4.148
47108W        W18724  10.074   9.404  14.373
47109W        W18725   3.721   2.768  12.177
47110W        W18726  24.021  31.368   2.780
47111W        W18727  42.212  17.798   1.048
47112W        W18728  32.636   5.523  13.522
47113W        W18729  26.836  15.714   2.279
47114W        W18730   7.686  34.326  12.926
47115W        W18731  31.039   6.661   1.460
47116W        W18732  38.256  12.182  12.006
47117W        W18733   2.193  13.517   2.415
47118W        W18734  39.557  38.455  11.454
47119W        W18735  31.623   3.219   0.271
47120W        W18736  19.215  37.451   1.278
47121W        W18737  24.903  12.033   0.853
47122W        W18738   9.916  32.006  12.014
47123W        W18739   8.427  29.620  11.173
47124W        W18740   4.169   7.916  14.568
47125W        W18741   6.359  38.119  10.494
47126W        W18742  29.183  13.052  13.783
47127W        W18743   4.334  44.123  13.353
47128W        W18744  11.223  43.951   0.527
47129W        W18745  29.714  17.158   5.032
47130W        W18746  26.080  38.407  12.840
47131W        W18747  29.328  21.041  12.875
47132W        W18748  31.029  35.599   0.328
47133W        W18749  33.568  26.750   0.207
47134W        W18750  20.853  25.356   0.029
47135W        W18751  40.482  32.613   3.590
47136W        W18752  35.941  25.165   1.853
47137W        W18753  11.134  20.479  12.609
47138W        W18754   3.488  14.488  11.049
47139W        W18755  21.569  25.401  14.428
47140W        W18756  40.600  31.071   0.477
47141W        W18757  28.735  44.801   4.073
47142W        W18758  26.958  16.431   1.179
47143W        W18759  41.278  27.634   0.305
47144W        W18760  21.597  20.110   0.961
47145W        W18761  13.279  38.304  10.769
47146W        W18762  37.121  34.566  12.956
47147W        W18763  29.654   8.215   0.783
47148W        W18764  40.242   1.812   5.058
47149W        W18765  39.242  42.150   2.349
47150W        W18766  22.337  25.681   0.446
47151W        W18767   0.757  21.013  13.855
47152W        W18768  11.828  38.597   3.248
47153W        W18769  42.691  14.107   3.360
47154W        W18770  11.851  16.893  14.859
47155W        W18771  43.704   8.123   4.212
47156W        W18772   4.315   1.374   5.085
47157W        W18773  22.236  33.512   4.185
47158W        W18774  40.012  35.812  13.375
47159W        W18775  33.933  29.868   1.556
47160W        W18776   0.736   9.093  12.456
47161W        W18777   4.617  44.048  10.643
47162W        W18778   9.649  21.199  12.401
47163W        W18779   8.360  40.750  13.080
47164W        W18780  30.457  25.166   2.738
47165W        W18781  26.105   2.937  11.992
47166W        W18782  27.544  17.044   1.179
47167W        W18783  44.463   9.407  10.703
47168W        W18784  14.137  22.475  10.633
47169W        W18785   7.655  39.836  12.343
47170W        W18786  28.149  37.637   2.652
47171W        W18787   4.888   1.505   1.358
47172W        W18788  25.166  21.990   1.008
47173W        W18789  26.130  15.342  13.991
47174W        W18790  43.703   1.823   4.344
47175W        W18791   4.826   9.930  14.391
47176W        W18792  24.946  44.235   1.885
47177W        W18793  19.142  43.245   9.730
47178W        W18794  15.350  29.874  12.113
47179W        W18795  17.844   6.764  11.170
47180W        W18796  43.367   3.337  12.954
47181W        W18797  25.687   5.798   0.634
47182W        W18798  22.007  40.108  13.878
47183W        W18799  21.067  41.495   2.713
47184W        W18800  25.434  15.751   3.303
47185W        W18801  10.251   3.403  13.367
47186W        W18802  24.178  38.391   4.332
47187W        W18803   7.667  38.328  13.560
47188W        W18804  18.539  20.757   4.184
47189W        W18805   1.542  20.641  14.869
47190W        W18806  14.481  40.218  12.021
47191W        W18807  22.960   6.923   0.817
47192W        W18808  36.579  25.101   2.389
47193W        W18809   2.833  40.421  14.311
47194W        W18810  18.666  35.573   1.735
47195W        W18811   0.328  23.430  12.440
47196W        W18812  21.739  26.487   1.922
47197W        W18813  16.273  27.930  10.688
47198W        W18814  39.070  12.709   0.218
47199W        W18815  32.843  41.867   3.170
47200W        W18816  19.254   2.731   4.181
47201W        W18817  29.141  33.034   0.182
47202W        W18818  10.214  28.864  14.914
47203W        W18819  38.975   2.668   4.025
47204W        W18820  24.106  14.234   2.747
47205W        W18821   3.165  38.842  11.447
47206W        W18822   9.859  41.119   2.184
47207W        W18823  44.527  31.436   2.365
47208W        W18824  29.343  12.175   4.194
47209W        W18825  43.611  19.894   4.931
47210W        W18826  14.325  24.333  12.644
47211W        W18827  13.655  32.167  11.880
47212W        W18828   1.350  26.149   3.617
47213W        W18829  29.647   4.798  13.501
47214W        W18830  27.496  22.411  11.159
47215W        W18831  10.742  19.324   4.310
47216W        W18832   3.882  40.103   3.500
47217W        W18833  23.457  41.497  10.990
47218W        W18834  32.914   0.520   3.652
47219W        W18835   7.759  11.418  10.541
47220W        W18836   1.983   0.217  14.905
47221W        W18837  32.131  11.889   1.191
47222W        W18838   4.431  36.379  12.572
47223W        W18839  41.756   8.658  12.454
47224W        W18840  39.323   0.350  14.599
47225W        W18841   0.943  17.609  12.012
47226W        W18842  39.615  13.764   0.442
47227W        W18843  14.744  15.080   1.845
47228W        W18844  25.914  17.448  10.362
47229W        W18845  20.202  13.451   0.800
47230W        W18846   5.075  43.772  10.543
47231W        W18847   6.925  38.945  11.650
47232W        W18848   1.985   0.471  11.040
47233W        W18849  25.819  19.521  11.093
47234W        W18850   1.985   9.856   3.555
47235W        W18851  11.355  38.523   2.341
47236W        W18852  18.759  25.340   2.387
47237W        W18853  21.796  14.538   0.894
47238W        W18854  28.847  30.690   1.288
47239W        W18855  32.642  24.193  13.038
47240W        W18856  18.217  42.099  11.991
47241W        W18857  17.324  33.837  14.802
47242W        W18858  38.710  39.781   3.190
47243W        W18859  34.110  20.688   4.598
47244W        W18860  14.096  40.705  11.662
47245W        W18861   1.943  38.051   3.965
47246W        W18862  33.612  32.000   2.239
47247W        W18863  37.642  14.392  14.389
47248W        W18864  39.479  30.380  14.500
47249W        W18865  16.190  15.270   2.167
47250W        W18866  23.990  30.612   3.264
47251W        W18867  29.173  38.340   4.306
47252W        W18868  11.630  21.731   1.300
47253W        W18869   8.485  44.372   3.829
47254W        W18870  20.774  34.138   0.296
47255W        W18871  43.123  14.271  11.129
47256W        W18872   9.844  28.487   0.644
47257W        W18873  21.817  21.677  12.316
47258W        W18874  11.235  34.995   4.820
47259W        W18875  20.965  28.162  13.882
47260W        W18876   8.835  19.765   0.977
47261W        W18877  42.894   6.277   3.983
47262W        W18878   0.900  36.581   1.416
47263W        W18879  44.884   3.996  14.422
47264W        W18880  37.351  15.586  14.869
47265W        W18881  40.544  11.407  12.366
47266W        W18882  21.517  40.510  10.844
47267W        W18883  28.965  33.766  13.423
47268W        W18884  31.364  10.244   1.830
47269W        W18885  31.681  34.678   4.666
47270W        W18886  14.892  36.528  12.573
47271W        W18887   0.784   7.168  10.039
47272W        W18888  30.664   8.731   1.832
47273W        W18889  38.847  24.585  13.928
47274W        W18890  35.979  29.206   2.702
47275W        W18891  28.456  35.634   0.967
47276W        W18892  17.255  40.366  13.959
47277W        W18893   9.275  14.604  14.752
47278W        W18894  31.968  14.813  12.941
47279W        W18895   6.861  24.097   2.578
47280W        W18896  36.759  41.561  14.923
47281W        W18897  44.699   5.894  11.160
47282W        W18898  37.444  41.411  14.089
47283W        W18899  23.686  37.758  14.923
47284W        W18900  35.575  42.037   3.792
47285W        W18901  38.983  42.645   4.599
47286W        W18902  43.978  12.629  11.946
47287W        W18903  43.782  35.300   3.383
47288W        W18904  10.727   7.091  12.871
47289W        W18905  10.219   3.147   0.813
47290W        W18906   0.372  31.574  13.948
47291W        W18907  43.039  44.513  13.042
47292W        W18908  44.903  25.129   0.495
47293W        W18909  30.905  25.127  13.306
47294W        W18910  17.555   3.837   1.355
47295W        W18911  32.645   3.345  12.544
47296W        W18912   5.864  25.073  12.621
47297W        W18913  44.631   0.900   4.844
47298W        W18914  30.395  39.359   1.452
47299W        W18915  18.887  10.410   1.212
47300W        W18916   6.648  20.222   3.805
47301W        W18917  38.620  16.712   1.349
47302W        W18918  12.772  21.056   3.935
47303W        W18919  16.251  23.213  14.373
47304W        W18920  14.094   4.064   4.204
47305W        W18921  22.709   9.403   3.677
47306W        W18922  17.328  10.382  13.899
47307W        W18923  31.492  27.638   4.681
47308W        W18924  44.031  25.144   2.305
47309W        W18925  23.014  31.101   3.525
47310W        W18926   3.238   2.530   3.661
47311W        W18927  28.422  38.337  12.605
47312W        W18928  34.967  31.542   2.221
47313W        W18929  24.795   0.674  13.746
47314W        W18930   4.666  16.763   3.362
47315W        W18931  28.691  17.589  13.891
47316W        W18932  27.586  29.169   1.827
47317W        W18933   0.408  32.414   1.530
47318W        W18934  31.203  41.006  11.176
47319W        W18935  32.452  36.811  14.504
47320W        W18936  17.074  44.920   5.477
47321W        W18937   5.104  43.443   3.880
47322W        W18938  30.601   0.832  12.545
47323W        W18939  25.905  13.120   3.161
47324W        W18940  26.849   8.563   1.722
47325W        W18941  15.443  12.450   4.576
47326W        W18942  42.330   7.882  13.658
47327W        W18943  31.063  26.245  13.623
47328W        W18944  12.145  11.892   4.111
47329W        W18945  13.726  26.757  10.366
47330W        W18946  43.322   5.703   1.931
47331W        W18947  19.156  24.203   4.490
47332W        W18948  23.033  34.660  14.032
47333W        W18949  39.094  44.562  13.861
47334W        W18950   0.758   9.317   3.799
47335W        W18951  27.192  28.892   0.925
47336W        W18952  25.936   0.002  12.665
47337W        W18953  30.513  37.911  11.168
47338W        W18954   3.480  23.178   4.276
47339W        W18955  25.581  15.663  10.972
47340W        W18956  37.187  18.054   0.484
47341W        W18957  21.288  33.094   3.277
47342W        W18958   7.884  34.822  12.142
47343W        W18959  13.802   1.297  11.415
47344W        W18960  44.228   7.019  14.055
47345W        W18961  13.771  21.715   2.164
47346W        W18962  26.192   1.303   1.644
47347W        W18963  18.236  26.868  12.975
47348W        W18964  10.333  14.831   1.326
47349W        W18965  16.741  37.071  14.690
47350W        W18966  11.133   9.697   1.238
47351W        W18967   7.609  15.555  12.505
47352W        W18968  20.156  43.781   2.017
47353W        W18969  15.183  43.486  12.417
47354W        W18970  10.075  32.908  13.922
47355W        W18971  14.881  28.106   2.254
47356W        W18972  27.624  35.608   0.657
47357W        W18973  19.848  39.926  12.960
47358W        W18974  11.714   0.422  13.984
47359W        W18975  25.529  37.350  11.584
47360W        W18976   0.733  22.023  10.716
47361W        W18977  43.036  31.436  10.684
47362W        W18978  17.589   0.497  11.940
47363W        W18979  36.357   6.633  10.244
47364W        W18980  43.484  44.443   4.876
47365W        W18981  28.963  34.122  14.520
47366W        W18982  41.903  39.555  10.695
47367W        W18983   5.698   4.865   2.783
47368W        W18984  35.520   7.739  11.567
47369W        W18985   3.002  20.030  11.138
47370W        W18986  26.238  34.830   2.728
47371W        W18987  33.392  37.383   2.303
47372W        W18988  44.529  11.839   4.527
47373W        W18989  36.136  25.058  12.564
47374W        W18990  30.641  16.763  14.898
47375W        W18991  43.024  17.813   1.337
47376W        W18992  14.389  12.673   4.579
47377W        W18993   9.382  44.730  12.885
47378W        W18994  28.623  24.086   2.271
47379W        W18995  14.349  18.379  12.311
47380W        W18996   9.283  32.686   3.717
47381W        W18997  27.727  30.715   2.753
47382W        W18998  43.602  26.409  14.346
47383W        W18999  23.691   4.207  12.975
47384W        W19000   4.636  33.423  13.020
47385W        W19001  11.247  19.166   3.583
47386W        W19002  32.221  12.905   1.299
47387W        W19003  18.508  13.921  10.882
47388W        W19004  40.718  43.690   0.830
47389W        W19005  36.356  16.327  14.397
47390W        W19006  12.765  32.151   1.892
47391W        W19007  32.977   8.034   3.246
47392W        W19008  36.562  42.084  10.647
47393W        W19009  28.433  23.675  10.690
47394W        W19010  38.992   0.833   4.608
47395W        W19011   8.364  10.103  12.352
47396W        W19012  42.388  32.509  11.657
47397W        W19013  26.494  25.654  11.274
47398W        W19014  17.159  28.141   3.647
47399W        W19015  17.537  18.542  12.519
47400W        W19016   4.960   0.020  11.635
47401W        W19017  15.517   2.378   2.469
47402W        W19018  32.523  29.931  10.275
47403W        W19019  23.658  14.896  12.575
47404W        W19020  30.937  26.096  12.026
47405W        W19021  27.264  20.840   1.265
47406W        W19022  28.083  11.601  14.251
47407W        W19023  20.171  19.239   0.252
47408W        W19024  21.064  27.973  12.601
47409W        W19025   3.360  19.684   2.670
47410W        W19026   8.299  43.487   2.798
47411W        W19027   0.914  14.095  10.726
47412W        W19028   2.447  42.087  11.680
47413W        W19029  42.373  21.741  10.482
47414W        W19030  23.574   2.923   4.115
47415W        W19031  32.005   7.674  11.130
47416W        W19032  16.801  20.093  13.887
47417W        W19033  26.022   1.504   0.240
47418W        W19034  14.529  41.715  11.275
47419W        W19035  23.107  39.228   3.201
47420W        W19036  18.286  17.507   4.858
47421W        W19037  38.608   1.345   4.159
47422W        W19038   8.638  40.311  12.876
47423W        W19039  16.132  23.946  11.177
47424W        W19040   9.383   0.873   3.747
47425W        W19041  35.028  37.809   3.633
47426W        W19042  19.090  25.624  12.087
47427W        W19043  44.931  22.085  10.624
47428W        W19044   7.803  36.462  13.516
47429W        W19045  38.409  13.301   4.418
47430W        W19046  39.429   5.146  14.244
47431W        W19047  13.929  30.879  11.391
47432W        W19048  13.811  12.837  13.315
47433W        W19049  22.762  42.979   2.193
47434W        W19050   1.843  37.541  10.545
47435W        W19051  11.047  40.395   4.766
47436W        W19052   7.190  43.217  11.158
47437W        W19053  33.070  42.907  10.514
47438W        W19054   9.678  24.579   0.774
47439W        W19055  23.038   2.564  14.563
47440W        W19056  40.826  38.213  14.091
47441W        W19057  14.278  40.768   3.203
47442W        W19058  11.658   3.919  12.537
47443W        W19059   2.427   9.396   2.285
47444W        W19060   1.409  33.318   4.755
47445W        W19061  18.166  43.379   0.304
47446W        W19062  42.357  11.181  11.608
47447W        W19063  37.951   2.780  11.535
47448W        W19064  14.449  26.128   1.281
47449W        W19065   8.350   0.988  12.463
47450W        W19066  39.366  42.960   1.718
47451W        W19067  23.149  19.929   0.490
47452W        W19068   5.317  18.981   2.900
47453W        W19069  27.042  23.391  10.943
47454W        W19070  12.104  18.630  11.856
47455W        W19071  26.751  37.024  14.466
47456W        W19072  18.072   1.239  12.093
47457W        W19073  13.435  28.228   0.656
47458W        W19074  41.102  15.650   0.929
47459W        W19075  42.500  13.087   0.315
47460W        W19076   4.316  26.133   0.418
47461W        W19077  35.361  27.659  11.280
47462W        W19078  14.010  44.889  12.014
47463W        W19079  27.598  38.188   4.240
47464W        W19080  25.184  24.648  11.422
47465W        W19081  32.251  39.862   3.999
47466W        W19082   0.282  41.635   4.588
47467W        W19083  29.494  30.434  10.694
47468W        W19084  36.871  42.426  10.387
47469W        W19085  15.310  32.012   4.021
47470W        W19086  42.238  26.113  11.168
47471W        W19087  14.774   2.349  11.429
47472W        W19088  20.040   2.846  11.096
47473W        W19089  34.234  40.302  12.425
47474W        W19090  33.459   0.874  10.723
47475W        W19091   9.398  14.114   2.756
47476W        W19092  20.411  42.883   0.365
47477W        W19093   4.370  44.006   5.035
47478W        W19094  42.406  15.549   3.302
47479W        W19095  44.745  31.067  14.787
47480W        W19096  34.743  33.204   0.863
47481W        W19097  31.312  25.744  11.869
47482W        W19098   7.496  10.881  11.128
47483W        W19099   6.735   5.193   0.885
47484W        W19100  21.986   7.322  11.124
47485W        W19101  27.916   1.109  11.575
47486W        W19102  29.454  19.519   3.592
47487W        W19103  31.096  31.865   0.701
47488W        W19104  42.223  18.315  12.033
47489W        W19105  32.927  42.489  14.857
47490W        W19106  24.704  17.259   2.068
47491W        W19107  26.097  42.337   3.166
47492W        W19108  16.540  38.782   4.567
47493W        W19109  33.837  38.768   9.995
47494W        W19110  11.386  27.850  10.096
47495W        W19111  11.080   2.700   0.932
47496W        W19112  14.690  15.686   3.072
47497W        W19113  39.507  33.823   0.370
47498W        W19114  19.416   8.695   4.894
47499W        W19115  24.270  15.071  14.988
47500W        W19116  35.473  26.956  13.599
47501W        W19117  44.259  43.389  12.704
47502W        W19118   0.988  20.149   1.362
47503W        W19119  22.421  11.722   1.713
47504W        W19120  43.871  24.128   3.198
47505W        W19121  10.245  43.391  11.425
47506W        W19122  26.728  35.134   1.894
47507W        W19123  19.300  24.644   2.210
47508W        W19124  34.381   4.962   2.811
47509W        W19125  41.343  31.808   5.079
47510W        W19126  14.160  20.643   1.352
47511W        W19127  20.491   9.400   4.217
47512W        W19128  31.461  19.117  13.065
47513W        W19129  29.628  38.394  10.768
47514W        W19130  19.099  42.035  13.738
47515W        W19131  17.241   7.442   3.803
47516W        W19132  20.329  17.082  14.109
47517W        W19133   1.111  10.993   0.938
47518W        W19134   9.822  19.169   2.179
47519W        W19135   9.807  42.430  14.145
47520W        W19136  24.423   7.250  14.785
47521W        W19137  31.614  17.165  13.605
47522W        W19138  25.424   6.582   2.779
47523W        W19139  36.121  26.257   2.627
47524W        W19140  39.926  20.300  14.381
47525W        W19141   0.759   2.663   3.217
47526W        W19142  40.592  40.856  11.614
47527W        W19143  25.327   1.069   9.742
47528W        W19144   5.684  39.353  10.633
47529W        W19145  11.752  11.347  10.791
47530W        W19146  20.401   6.894   3.725
47531W        W19147  32.110  33.967   2.940
47532W        W19148   1.891   7.314   1.171
47533W        W19149  16.461  20.055   4.222
47534W        W19150  43.907  25.240   0.784
47535W        W19151  27.037  39.772  11.440
47536W        W19152  25.599  27.948   0.720
47537W        W19153  43.536  18.088  13.716
47538W        W19154  16.661   8.976   3.843
47539W        W19155  12.819  37.028  13.380
47540W        W19156  36.361  33.097  12.025
47541W        W19157  20.175  34.861  12.614
47542W        W19158  42.235   6.643   3.168
47543W        W19159  25.189   2.947  14.929
47544W        W19160  42.775  11.633  13.004
47545W        W19161  41.993  38.018  11.550
47546W        W19162  14.000   7.168   2.663
47547W        W19163   9.798  19.254   3.365
47548W        W19164   8.147  32.800   1.455
47549W        W19165  22.813  27.233  11.690
47550W        W19166  34.602  26.146  11.353
47551W        W19167  18.931  22.945   4.581
47552W        W19168  16.267   7.233  10.893
47553W        W19169  10.791  37.777   1.696
47554W        W19170  16.807  20.770   2.886
47555W        W19171  44.053  34.043   3.311
47556W        W19172  28.140   6.413   4.542
47557W        W19173  22.050  31.526   4.138
47558W        W19174   6.084  21.060   3.650
47559W        W19175  36.318  18.777  13.929
47560W        W19176  24.408   7.633  14.446
47561W        W19177  14.342  25.413  10.841
47562W        W19178  37.412  39.643   0.885
47563W        W19179   2.434  24.807   2.699
47564W        W19180   9.406  26.066  13.111
47565W        W19181  42.221  38.109   9.807
47566W        W19182  27.920  11.105   3.152
47567W        W19183  42.860  32.508  13.977
47568W        W19184  28.080  21.463  13.052
47569W        W19185  10.115  29.182   0.795
47570W        W19186  20.824   3.555  14.988
47571W        W19187  20.223  38.749  12.277
47572W        W19188  43.342  22.016   0.748
47573W        W19189   5.092  31.651  13.458
47574W        W19190  37.874   3.771   3.664
47575W        W19191  40.529  39.909   0.906
47576W        W19192  42.374  10.394  14.752
47577W        W19193  31.441  20.982   0.781
47578W        W19194  11.085   0.367  14.378
47579W        W19195  39.726   9.648   3.701
47580W        W19196  18.054  42.380  14.303
47581W        W19197  38.873  41.140  14.478
47582W        W19198  25.715  25.514   3.165
47583W        W19199  31.708   7.802  14.482
47584W        W19200  27.292  22.329  12.030
47585W        W19201   1.371   9.193   0.747
47586W        W19202   6.892  34.874  13.094
47587W        W19203  29.275  18.636   3.194
47588W        W19204  22.618  22.179  12.854
47589W        W19205  28.347  44.335   4.839
47590W        W19206  29.553  31.371  12.418
47591W        W19207  18.019   9.602  13.283
47592W        W19208  21.731  28.571  10.710
47593W        W19209  35.256  30.553  10.398
47594W        W19210  41.404   2.449   1.860
47595W        W19211   1.138   9.779   2.225
47596W        W19212  40.984  30.176   3.692
47597W        W19213  28.214  15.823   1.378
47598W        W19214  41.811  19.084   0.856
47599W        W19215  35.068  33.955  11.549
47600W        W19216   0.507   2.670  11.128
47601W        W19217   7.161  20.280   3.755
47602W        W19218  15.669  30.764   2.811
47603W        W19219  15.217   3.013  10.911
47604W        W19220  43.196  21.928   4.636
47605W        W19221  17.237  15.486   1.937
47606W        W19222   0.764  30.701   0.345
47607W        W19223  43.471  31.404  12.809
47608W        W19224   5.912  26.148   0.323
47609W        W19225   0.195  26.258   0.473
47610W        W19226  40.808  38.537  10.609
47611W        W19227  23.841  30.980  10.685
47612W        W19228  28.672  20.983  12.037
47613W        W19229  33.990  11.106   2.735
47614W        W19230  31.206   1.220  10.259
47615W        W19231  40.942   5.470   1.915
47616W        W19232   7.117  11.282   1.123
47617W        W19233  38.091  15.221   4.272
47618W        W19234  19.282  32.401   3.288
47619W        W19235   1.948   5.650   2.249
47620W        W19236   1.262  13.669   0.737
47621W        W19237   8.296  36.023   1.269
47622W        W19238  42.833   5.656  11.987
47623W        W19239  38.463  42.929  12.576
47624W        W19240  43.760  23.506   4.013
47625W        W19241  35.503   5.991   1.946
47626W        W19242  21.023   8.707   4.228
47627W        W19243  22.259  16.191  13.083
47628W        W19244  30.996  11.148  11.413
47629W        W19245  36.451  43.792  11.717
47630W        W19246  23.198  20.513  13.357
47631W        W19247   9.141  28.745  12.612
47632W        W19248   7.315  35.063   0.320
47633W        W19249  25.909  23.358  11.557
47634W        W19250  29.408  43.296   4.673
47635W        W19251  20.992  20.677  10.632
47636W        W19252  36.337  35.141   3.258
47637W        W19253  34.082  12.586   3.639
47638W        W19254  14.710  40.500  14.596
47639W        W19255  10.250  13.812   1.318
47640W        W19256  12.927  19.505   0.006
47641W        W19257  19.647  21.105  12.533
47642W        W19258  39.966  30.599  12.464
47643W        W19259  34.049  37.716   3.637
47644W        W19260   7.795  12.380  12.512
47645W        W19261  27.871  14.798  14.463
47646W        W19262  40.456  40.602  11.114
47647W        W19263  29.388  37.541  11.139
47648W        W19264   7.145   4.535   4.065
47649W        W19265  28.530  21.736   4.569
47650W        W19266  16.038  16.395   2.426
47651W        W19267  34.844  34.853  14.802
47652W        W19268  11.229   4.862  14.077
47653W        W19269  26.529  42.487   1.314
47654W        W19270  25.569   1.737   0.555
47655W        W19271  32.117  13.259   4.570
47656W        W19272  24.968  41.743  14.911
47657W        W19273   4.402  29.988   0.300
47658W        W19274  22.593  29.127  12.483
47659W        W19275   4.712  24.183  12.319
47660W        W19276  35.797   7.136   4.964
47661W        W19277  17.361  16.318   5.007
47662W        W19278  43.311   2.979   3.762
47663W        W19279  36.387  43.036   5.064
47664W        W19280  30.301  11.901   0.491
47665W        W19281  29.685  33.917   3.731
47666W        W19282  33.459  28.446   4.070
47667W        W19283  25.480  23.212   0.946
47668W        W19284  36.455  30.508   1.300
47669W        W19285   3.076  27.537   2.118
47670W        W19286  19.051   5.017  14.982
47671W        W19287  37.753  14.679  11.355
47672W        W19288  29.701  16.802   0.453
47673W        W19289  22.009  20.323  13.051
47674W        W19290   9.659   7.078  11.575
47675W        W19291  33.911  18.294  13.312
47676W        W19292  41.021  41.372   1.745
47677W        W19293  14.562  37.061  11.529
47678W        W19294  23.715  22.265   2.300
47679W        W19295   6.937  32.962  11.493
47680W        W19296  10.192  26.554  14.823
47681W        W19297  24.167  27.677  13.040
47682W        W19298  31.501  34.621  13.808
47683W        W19299  33.678  12.170   4.448
47684W        W19300  14.560  43.812   1.728
47685W        W19301  44.071   3.773  13.049
47686W        W19302  40.313  15.908  13.700
47687W        W19303  35.607  34.004  12.436
47688W        W19304  14.270  32.441   3.206
47689W        W19305  22.202   8.874  13.411
47690W        W19306   7.864  20.486   4.383
47691W        W19307  29.186  43.828  10.588
47692W        W19308  34.038   8.840  13.332
47693W        W19309  35.839  13.094   4.247
47694W        W19310  28.699   6.472  14.855
47695W        W19311  40.591  20.610  10.879
47696W        W19312  29.939  17.173  14.872
47697W        W19313  26.623   7.167  11.552
47698W        W19314  33.902  26.606   0.899
47699W        W19315  18.366  25.924  13.975
47700W        W19316  44.824  16.065   3.035
47701W        W19317  13.476  33.435   3.303
47702W        W19318   6.768  11.751   3.256
47703W        W19319   9.312  20.026  14.806
47704W        W19320  43.051  34.849  14.403
47705W        W19321  31.483  15.140   0.324
47706W        W19322   0.675  19.186  14.263
47707W        W19323   2.282  29.425   2.393
47708W        W19324  21.132  42.546  12.636
47709W        W19325  40.766  22.308   0.395
47710W        W19326   8.281  15.613   0.873
47711W        W19327   4.773  11.942  14.403
47712W        W19328  36.891  20.462   0.380
47713W        W19329  18.127   2.195   4.260
47714W        W19330  23.109  33.068   3.043
47715W        W19331  30.007  18.134   2.318
47716W        W19332  11.933  25.098   0.494
47717W        W19333   6.525  21.665  11.926
47718W        W19334  37.454  33.375  13.540
47719W        W19335   9.167  34.459  14.364
47720W        W19336  33.862  19.780   1.357
47721W        W19337   9.155  32.245  14.914
47722W        W19338   1.369   0.775   4.291
47723W        W19339  16.127  13.773   3.135
47724W        W19340  23.518  33.533  10.382
47725W        W19341   5.846  20.024   4.254
47726W        W19342  32.019  16.346  14.246
47727W        W19343  19.890   7.368   2.723
47728W        W19344   0.246  21.590   1.228
47729W        W19345  14.184  20.361   2.384
47730W        W19346   7.705  17.837  14.648
47731W        W19347  34.391   3.897  14.359
47732W        W19348  11.544  22.204  14.536
47733W        W19349  38.530  34.929   1.656
47734W        W19350   2.738  33.362  12.562
47735W        W19351  36.554   0.285   1.948
47736W        W19352  10.224  43.129  13.077
47737W        W19353  41.974  39.565  12.464
47738W        W19354  43.033  39.136  10.123
47739W        W19355  21.191  12.262  14.962
47740W        W19356  34.972  22.917  11.470
47741W        W19357   8.631   7.684   1.682
47742W        W19358  33.788   2.244   1.816
47743W        W19359  10.689  40.049   4.507
47744W        W19360  21.723  27.467   3.696
47745W        W19361  42.400  43.809  13.048
47746W        W19362   1.735   5.490  13.000
47747W        W19363  22.677  18.334  14.437
47748W        W19364  15.348  25.739   1.370
47749W        W19365  42.289  36.419   5.060
47750W        W19366  21.427  35.896  14.887
47751W        W19367  31.492  30.175  12.160
47752W        W19368  31.954  22.086  14.819
47753W        W19369  14.042  15.069   1.488
47754W        W19370  18.658  40.721  14.391
47755W        W19371  38.645   4.345   1.304
47756W        W19372  34.886  33.500   2.342
47757W        W19373  25.078  17.249   1.240
47758W        W19374  18.521  30.136   3.556
47759W        W19375  12.875  27.500  13.215
47760W        W19376  20.769  37.001  14.386
47761W        W19377  37.869  15.745   4.606
47762W        W19378   7.801  28.623   3.193
47763W        W19379   5.781   4.271   3.917
47764W        W19380  14.729   9.630   4.140
47765W        W19381  38.357  21.231  10.682
47766W        W19382  43.443  19.153  14.721
47767W        W19383  39.389  29.066  11.618
47768W        W19384  41.781  36.623  10.110
47769W        W19385  32.036   0.454  13.796
47770W        W19386  15.129   4.688   4.173
47771W        W19387  37.070   1.533   4.967
47772W        W19388  40.988  44.032  11.478
47773W        W19389  24.114  14.237   1.307
47774W        W19390   4.695  27.673  12.005
47775W        W19391   3.191  18.782  13.530
47776W        W19392  44.200  24.851   1.900
47777W        W19393  28.192  28.665  11.132
47778W        W19394  27.245  15.486  13.057
47779W        W19395  10.843  43.484  10.755
47780W        W19396  21.665  20.547  10.768
47781W        W19397  25.185  32.112   4.546
47782W        W19398  16.440  31.455   3.393
47783W        W19399  11.112  34.989   0.936
47784W        W19400  37.743   0.392  11.757
47785W        W19401   4.573  28.081   1.065
47786W        W19402  24.000  41.412  13.031
47787W        W19403  28.085   3.736   0.926
47788W        W19404  28.357  35.204  10.428
47789W        W19405   3.740  22.001   1.606
47790W        W19406  26.629  41.478  14.836
47791W        W19407  21.284   0.208   0.177
47792W        W19408  18.879  23.675   0.846
47793W        W19409   6.842   6.540   4.065
47794W        W19410  24.698  13.341   2.206
47795W        W19411  41.833  42.013   1.634
47796W        W19412  20.061   1.735  12.587
47797W        W19413  32.554  43.042  12.548
47798W        W19414  43.806  33.948  14.085
47799W        W19415  25.105   6.717  13.348
47800W        W19416  39.866  23.021   1.357
47801W        W19417  21.968   9.215   2.801
47802W        W19418   2.492  23.586   0.423
47803W        W19419   9.227   2.379   1.349
47804W        W19420  21.985  15.651  11.802
47805W        W19421  25.741  37.921   3.321
47806W        W19422  20.003   3.090  14.592
47807W        W19423  37.963  41.953  12.066
47808W        W19424  10.722  11.787   2.900
47809W        W19425   7.214  19.344  12.134
47810W        W19426  10.287  21.622  11.142
47811W        W19427   0.801  23.235   3.274
47812W        W19428  26.584  41.302   1.864
47813W        W19429  15.920  23.117  13.919
47814W        W19430  18.626   4.250  14.732
47815W        W19431  20.687   9.835   2.968
47816W        W19432  11.659   6.832   4.979
47817W        W19433  14.591  19.777   1.827
47818W        W19434   2.966  22.367  14.321
47819W        W19435  21.768  24.972  11.115
47820W        W19436  16.981  20.231  11.013
47821W        W19437   3.756  22.721  10.664
47822W        W19438  37.464  27.618   1.648
47823W        W19439  21.828  43.870  12.537
47824W        W19440  36.526  17.119   3.106
47825W        W19441  21.591  28.062   1.118
47826W        W19442   4.500  24.612  12.510
47827W        W19443  29.959  20.709  11.136
47828W        W19444  13.716  13.781   1.751
47829W        W19445  14.584  18.335  14.463
47830W        W19446  27.444  30.129  12.978
47831W        W19447  19.858   5.741   3.333
47832W        W19448   2.171  21.065  12.718
47833W        W19449  26.361  34.331  10.716
47834W        W19450  38.845  13.522  13.348
47835W        W19451  22.679   1.474  14.858
47836W        W19452  32.627  10.284   4.321
47837W        W19453   1.204  33.919   2.910
47838W        W19454  14.399  12.003  12.194
47839W        W19455  33.386  29.972   1.946
47840W        W19456  35.019  43.357   1.711
47841W        W19457  30.114   1.970  14.673
47842W        W19458   9.210  35.552   3.256
47843W        W19459  16.311  23.078  12.425
47844W        W19460  31.324  15.292  11.475
47845W        W19461   1.934   7.909  14.748
47846W        W19462  34.039   0.423   3.293
47847W        W19463  25.408   8.562  10.982
47848W        W19464   4.444  13.666  13.410
47849W        W19465  22.008  40.067   3.786
47850W        W19466  18.881  26.071   3.880
47851W        W19467  41.623  10.308   3.536
47852W        W19468   5.198  40.308   3.653
47853W        W19469  44.053   9.820  14.798
47854W        W19470   6.899  25.094  10.626
47855W        W19471  35.093  19.284   4.360
47856W        W19472  22.207  33.395   0.323
47857W        W19473  19.675  24.152   3.809
47858W        W19474  26.205  21.488   4.549
47859W        W19475  19.338   7.281   3.277
47860W        W19476   8.712  27.913  13.035
47861W        W19477  16.769  24.661  12.313
47862W        W19478   1.112   2.872   1.511
47863W        W19479  36.082  30.642  10.811
47864W        W19480  16.311  44.825  14.765
47865W        W19481  42.475  37.761  10.682
47866W        W19482  17.554  25.079  12.865
47867W        W19483   7.764  30.678  11.204
47868W        W19484  20.649  37.084   4.668
47869W        W19485  31.904  38.198  11.692
47870W        W19486   8.318  29.957   1.765
47871W        W19487  16.045  44.496  12.341
47872W        W19488  10.679  23.115  12.362
47873W        W19489  23.152  34.096  13.576
47874W        W19490  15.841  34.357  11.527
47875W        W19491   0.524   3.968   0.896
47876W        W19492  26.162  41.786   2.134
47877W        W19493   3.973   3.040  12.510
47878W        W19494  33.292   7.321  12.793
47879W        W19495  38.564   9.097   2.764
47880W        W19496   2.490   9.768  13.611
47881W        W19497  12.219   4.942  11.046
47882W        W19498  23.535  40.667   0.749
47883W        W19499   9.104  31.230  13.638
47884W        W19500   1.390   0.257   5.059
47885W        W19501  41.525  21.050  14.865
47886W        W19502   2.286  34.250  10.210
47887W        W19503  21.996   2.369   4.553
47888W        W19504   5.109   7.918  12.021
47889W        W19505  13.570  34.443   3.195
47890W        W19506  18.659   5.654   1.265
47891W        W19507  44.711  34.258  11.180
47892W        W19508   6.033  36.514   1.809
47893W        W19509  12.695  40.261   3.121
47894W        W19510  29.987   0.689   2.716
47895W        W19511  30.349  24.075  14.507
47896W        W19512   2.888  42.963  14.333
47897W        W19513  15.331  32.874  13.755
47898W        W19514   9.431  20.146   1.384
47899W        W19515  28.685  12.577  11.165
47900W        W19516  43.279  19.789  12.860
47901W        W19517   1.991  31.382   0.409
47902W        W19518   0.912  38.294  13.794
47903W        W19519   8.908   8.228  11.061
47904W        W19520  43.507  31.881   3.987
47905W        W19521  41.339  10.819  11.872
47906W        W19522  43.369  26.985  13.632
47907W        W19523  27.444   0.743  11.633
47908W        W19524  13.652  10.320  11.675
47909W        W19525  25.280  43.234  12.311
47910W        W19526  36.599  17.313   1.306
47911W        W19527   4.329  32.443   2.333
47912W        W19528  11.546  27.680   4.162
47913W        W19529  17.130  39.499   4.860
47914W        W19530  42.351  25.434   0.037
47915W        W19531   9.088  21.575  13.801
47916W        W19532  24.056  32.342   0.774
47917W        W19533  32.637  12.831   2.269
47918W        W19534  11.590  18.561   0.476
47919W        W19535   1.271   3.135  11.091
47920W        W19536  12.973  15.621  14.782
47921W        W19537  33.642  22.027   2.197
47922W        W19538  17.636  36.899   2.243
47923W        W19539   1.197  20.740   2.793
47924W        W19540  33.849  18.728   3.750
47925W        W19541   1.573  20.024   2.424
47926W        W19542  39.802  20.195   3.704
47927W        W19543   1.447  29.842  11.197
47928W        W19544  22.228  16.702  14.946
47929W        W19545  11.142  24.259   2.401
47930W        W19546   8.186  27.772   4.114
47931W        W19547  40.461  19.151  10.449
47932W        W19548  21.389   1.688   1.182
47933W        W19549   8.833  20.690  11.648
47934W        W19550   8.361  27.068   3.573
47935W        W19551  23.021   2.231  10.921
47936W        W19552   2.232  28.231   0.121
47937W        W19553  11.150   9.124  11.915
47938W        W19554  31.389   6.236  11.527
47939W        W19555  36.977  13.398   1.749
47940W        W19556  42.927   0.053  14.805
47941W        W19557  38.570  25.414   3.256
47942W        W19558  14.620  21.865  11.116
47943W        W19559   4.942  44.504  11.633
47944W        W19560  32.143  42.883  12.291
47945W        W19561   5.412  37.589   4.222
47946W        W19562  32.041  14.074   0.377
47947W        W19563   9.328   8.696  14.594
47948W        W19564  13.273   7.140   3.158
47949W        W19565  31.226  13.386  13.304
47950W        W19566  43.570   3.663  11.616
47951W        W19567  42.673  17.675  12.949
47952W        W19568  38.487  28.913  13.332
47953W        W19569  39.962  13.317   0.754
47954W        W19570  44.396   8.486   2.235
47955W        W19571   9.926  42.042   2.125
47956W        W19572   3.120   3.876   1.287
47957W        W19573  32.444   6.178   4.247
47958W        W19574  32.680  25.018  10.770
47959W        W19575  17.881   7.845  11.613
47960W        W19576  15.594  15.823   0.620
47961W        W19577  17.012   7.186   4.227
47962W        W19578   6.130  11.053   3.357
47963W        W19579  14.107  30.397  12.288
47964W        W19580   8.848   8.345   2.863
47965W        W19581  16.833   1.802  14.889
47966W        W19582  39.812  40.299   0.548
47967W        W19583  19.822   3.863   4.571
47968W        W19584  12.162  26.024   1.135
47969W        W19585  19.505  10.236   2.334
47970W        W19586  29.183  35.264  12.116
47971W        W19587   5.928  21.969  10.906
47972W        W19588  21.788  35.315  14.338
47973W        W19589  33.914   2.081  14.574
47974W        W19590  28.141  44.604   1.250
47975W        W19591   8.190  29.950   3.263
47976W        W19592  36.965   2.173   4.378
47977W        W19593  39.632  25.248  12.027
47978W        W19594  35.306  42.280   1.660
47979W        W19595  16.266  19.370   5.001
47980W        W19596  17.177   5.204  12.981
47981W        W19597  15.679  14.410  10.673
47982W        W19598  16.128  39.299   0.920
47983W        W19599  23.690  40.917   3.763
47984W        W19600  20.225  33.423  10.366
47985W        W19601  15.741  25.245   3.928
47986W        W19602  24.751   1.305   0.645
47987W        W19603  29.998  42.641  12.440
47988W        W19604  32.992  37.315   4.174
47989W        W19605  33.364  23.267  12.354
47990W        W19606  42.008  25.391   0.806
47991W        W19607  16.758  41.345  12.558
47992W        W19608   1.177  23.091   0.476
47993W        W19609  11.604  39.505   0.997
47994W        W19610  23.485  32.669   2.847
47995W        W19611  25.517  16.148   1.459
47996W        W19612  42.772  38.490  13.568
47997W        W19613  19.389  37.308   1.773
47998W        W19614  24.230  44.254   2.215
47999W        W19615  44.203  31.972  13.863
48000W        W19616  13.654   8.619  12.527
48001W        W19617  14.187  29.440   4.529
48002W        W19618  39.803  26.348   3.377
48003W        W19619   5.335  14.669   3.386
48004W        W19620  29.453  20.981   4.054
48005W        W19621  24.037  10.163   2.795
48006W        W19622  25.112  36.756   3.786
48007W        W19623  43.288  16.726  14.046
48008W        W19624  36.986   4.300   3.858
48009W        W19625   5.338  29.486   3.668
48010W        W19626   2.165  38.134   3.248
48011W        W19627  29.165  27.810  10.664
48012W        W19628  30.456  28.453  12.547
48013W        W19629  18.268   5.607   4.048
48014W        W19630  12.502  40.339   4.554
48015W        W19631  34.558  34.360   3.372
48016W        W19632  25.794  39.565   2.778
48017W        W19633  33.374  38.657   4.153
48018W        W19634  23.748  34.587  13.533
48019W        W19635  25.347  13.271   5.001
48020W        W19636  10.932  12.203   2.637
48021W        W19637  29.972   2.013   1.400
48022W        W19638  21.141  13.169  13.993
48023W        W19639   4.888  21.472  12.510
48024W        W19640  43.483  44.523   4.313
48025W        W19641  26.398  25.160  10.560
48026W        W19642  21.126   2.730   3.326
48027W        W19643  30.664  10.397  11.745
48028W        W19644   6.012  36.175  10.320
48029W        W19645  28.141  13.762   5.041
48030W        W19646  25.039  40.455   3.673
48031W        W19647  22.201  44.223   4.053
48032W        W19648  35.060   7.667  11.343
48033W        W19649  23.533  28.929   1.904
48034W        W19650  27.954  39.575  13.034
48035W        W19651  37.062   1.306   3.404
48036W        W19652  32.353  24.618  11.545
48037W        W19653  36.077  37.427   3.190
48038W        W19654  38.394  33.199  14.799
48039W        W19655  19.789  36.944   1.731
48040W        W19656   5.781  28.830  13.898
48041W        W19657  18.686  41.442  13.011
48042W        W19658   8.675   6.417   0.867
48043W        W19659   3.887  17.295  12.001
48044W        W19660  15.010   5.942   2.778
48045W        W19661  22.813  39.943  11.628
48046W        W19662  22.279  16.570   1.769
48047W        W19663  34.758   4.943   4.455
48048W        W19664  32.078   7.767  13.441
48049W        W19665   5.151   9.389   3.785
48050W        W19666  17.800  31.057   2.691
48051W        W19667  15.238  31.810   0.847
48052W        W19668  38.906  13.196   0.380
48053W        W19669  26.464  40.029   2.605
48054W        W19670  35.861  43.925   0.284
48055W        W19671  43.823   4.556   0.862
48056W        W19672  26.771  44.958   4.667
48057W        W19673  31.078  32.497   1.968
48058W        W19674  27.672  18.037  11.976
48059W        W19675  34.996  34.036   0.697
48060W        W19676  44.004   0.462   4.096
48061W        W19677   7.829   3.766  11.045
48062W        W19678   1.157  17.073   1.802
48063W        W19679  36.941  44.269  13.916
48064W        W19680  26.193  27.668   0.058
48065W        W19681   3.977  21.100  12.143
48066W        W19682   2.842   5.759  12.867
48067W        W19683   8.416   9.313   4.505
48068W        W19684  35.675  10.229   3.090
48069W        W19685   5.780   2.289   3.542
48070W        W19686  21.801  37.398  11.092
48071W        W19687   6.920  12.158   4.790
48072W        W19688   9.261  23.538  14.050
48073W        W19689  34.883   4.958  14.565
48074W        W19690  44.073  15.738  13.975
48075W        W19691  30.737  25.176   1.351
48076W        W19692  30.558  31.325   2.730
48077W        W19693   9.934  28.927   0.392
48078W        W19694   4.246  14.074  12.050
48079W        W19695  18.495  12.405  14.538
48080W        W19696  25.125  19.275   1.209
48081W        W19697  35.981   6.138  14.838
48082W        W19698  20.196  24.036   2.635
48083W        W19699  32.904   7.176   4.214
48084W        W19700  39.565  33.311   0.298
48085W        W19701  28.676  17.045  10.160
48086W        W19702  38.491   0.901  12.027
48087W        W19703   4.787  20.170   1.292
48088W        W19704  24.080  16.577  10.794
48089W        W19705  34.531  16.197   2.342
48090W        W19706   4.322  24.640  14.333
48091W        W19707  31.133  18.999   4.186
48092W        W19708  32.546  17.907  12.927
48093W        W19709  12.787  22.110   2.842
48094W        W19710  36.976   1.836   1.000
48095W        W19711  25.187   3.980  13.976
48096W        W19712   2.893  39.959   0.276
48097W        W19713  32.830   6.631  13.589
48098W        W19714   4.267  34.834  14.314
48099W        W19715  36.964   9.383   2.777
48100W        W19716  33.765   8.455   0.533
48101W        W19717  27.475  18.193   1.457
48102W        W19718   4.894  18.344   9.981
48103W        W19719  18.287  44.369  13.986
48104W        W19720  40.092   6.508   1.851
48105W        W19721  37.827  21.656  10.782
48106W        W19722  10.060   5.407  13.462
48107W        W19723   2.097  38.821   1.971
48108W        W19724  44.832  35.135   4.761
48109W        W19725  26.927   7.757   3.992
48110W        W19726  33.975  34.145   4.178
48111W        W19727   3.305  10.860  14.041
48112W        W19728   7.181   0.608   0.951
48113W        W19729  34.555  10.178  13.437
48114W        W19730  13.133  20.373   4.660
48115W        W19731  31.067  43.535   0.294
48116W        W19732  42.340  15.092   0.443
48117W        W19733  21.725  13.250  13.830
48118W        W19734  27.584  38.033  12.951
48119W        W19735   6.133  25.710   0.646
48120W        W19736  22.602  26.778   5.070
48121W        W19737  10.807  36.005   3.346
48122W        W19738  18.622  37.186   0.755
48123W        W19739  23.471  23.006   2.699
48124W        W19740  31.962  27.307   5.561
48125W        W19741   9.862  15.196  13.405
48126W        W19742  43.021   4.938  10.676
48127W        W19743  21.498  38.922   1.415
48128W        W19744  32.973  27.456  10.832
48129W        W19745  22.662   9.750   1.701
48130W        W19746  42.551   5.457  13.015
48131W        W19747  21.543  38.837   4.801
48132W        W19748  30.172  31.675  14.592
48133W        W19749  20.637   8.902  13.819
48134W        W19750  44.332   3.961  13.722
48135W        W19751  12.178  37.297   1.648
48136W        W19752  41.739  10.266  10.287
48137W        W19753  27.497  43.384  11.538
48138W        W19754  30.179   2.116   3.608
48139W        W19755  25.986  24.101   4.373
48140W        W19756  20.595   5.660  13.933
48141W        W19757  30.969   1.018   1.471
48142W        W19758   6.402  13.686   0.918
48143W        W19759  16.978  34.915   1.409
48144W        W19760  14.602  13.265  10.635
48145W        W19761  18.069  14.894  11.970
48146W        W19762  42.031  20.232   4.659
48147W        W19763  43.851  27.127   4.363
48148W        W19764  17.030  35.891   3.641
48149W        W19765  40.532  35.581  13.389
48150W        W19766  17.953  12.399  14.370
48151W        W19767  38.217  12.678   3.694
48152W        W19768  19.800   9.740  11.338
48153W        W19769  39.258  13.737  10.064
48154W        W19770   5.119  26.302  14.397
48155W        W19771  28.489  21.925  14.509
48156W        W19772  41.446   4.888   2.407
48157W        W19773   2.555  37.356  14.068
48158W        W19774  13.255  28.102  11.551
48159W        W19775  36.905  28.107   4.107
48160W        W19776   4.908   8.887   3.750
48161W        W19777  29.606  15.091  14.502
48162W        W19778  13.361   7.829  14.793
48163W        W19779   5.752  19.194   3.113
48164W        W19780   8.903   4.122   0.748
48165W        W19781  22.770  17.258  13.753
48166W        W19782  20.332   0.871  11.140
48167W        W19783  11.646  36.869   4.443
48168W        W19784  13.065  14.318   3.106
48169W        W19785   9.938  41.768  11.371
48170W        W19786  31.148  40.516  14.589
48171W        W19787  18.739  15.116  14.482
48172W        W19788  39.446  33.048  13.501
48173W        W19789  16.747  35.080   2.464
48174W        W19790  37.250   3.350   0.996
48175W        W19791  22.163  29.890  14.684
48176W        W19792  24.155  33.896   0.451
48177W        W19793  26.109  18.349   4.186
48178W        W19794  29.649  44.835  14.431
48179W        W19795  25.014  14.079   0.065
48180W        W19796  41.393  28.137   0.245
48181W        W19797  19.553  22.109   4.183
48182W        W19798  44.776  43.893  13.669
48183W        W19799   8.955  24.244   1.468
48184W        W19800  43.127  31.043  12.965
48185W        W19801  14.735  13.781   0.296
48186W        W19802  16.252  12.853   2.735
48187W        W19803  31.581   1.813   0.497
48188W        W19804  40.529   3.981  13.073
48189W        W19805  12.084  42.896   5.071
48190W        W19806  22.477  42.545   4.653
48191W        W19807  40.802   3.230  14.601
48192W        W19808   0.929  43.841   1.395
48193W        W19809   1.669  27.427   2.932
48194W        W19810  19.265  39.074   1.437
48195W        W19811  20.872  21.102  10.289
48196W        W19812  25.668  16.789  13.191
48197W        W19813  16.118  38.028   3.058
48198W        W19814  44.832  24.255   0.832
48199W        W19815  16.731  16.538   0.949
48200W        W19816   4.713  42.939  10.878
48201W        W19817  26.552   7.383  14.657
48202W        W19818  41.223   5.213  13.830
48203W        W19819  11.649  35.910  11.694
48204W        W19820  38.523  26.040  11.973
48205W        W19821   4.535  40.748   4.197
48206W        W19822  11.005   7.897  12.348
48207W        W19823   1.712   5.701   0.320
48208W        W19824   4.192  34.431   2.990
48209W        W19825  26.133  32.361   3.147
48210W        W19826  33.974   2.388   3.254
48211W        W19827  19.506   9.591  10.959
48212W        W19828  27.901   2.755  10.664
48213W        W19829  28.597  22.840   0.427
48214W        W19830  12.200   6.309  14.979
48215W        W19831   1.366  42.059  10.654
48216W        W19832  39.974  26.463  14.714
48217W        W19833  25.081  22.665   0.376
48218W        W19834  26.457   0.909  11.314
48219W        W19835   5.728   0.927  10.458
48220W        W19836   7.186   7.288  11.142
48221W        W19837  17.083  18.597   1.620
48222W        W19838  35.997   3.919  13.114
48223W        W19839  23.801  34.618   2.909
48224W        W19840  33.004  16.228  12.897
48225W        W19841  40.644   6.468   0.931
48226W        W19842  40.524   6.386  14.583
48227W        W19843   4.807  27.966  13.655
48228W        W19844  34.064  20.777   3.522
48229W        W19845  37.861  10.934   0.850
48230W        W19846  18.639   5.195  11.964
48231W        W19847  17.843   2.434   2.482
48232W        W19848  22.063  34.467   1.790
48233W        W19849  12.142   2.323   3.995
48234W        W19850  33.188  37.459   3.696
48235W        W19851  20.487  17.270   1.938
48236W        W19852   5.703   6.357   3.211
48237W        W19853  16.744  22.032  12.384
48238W        W19854  40.981  32.979   2.860
48239W        W19855  26.826  36.451  12.537
48240W        W19856   7.620  20.205   0.971
48241W        W19857  36.792  19.691  10.535
48242W        W19858  24.681  12.135   2.831
48243W        W19859  25.147  19.691  13.857
48244W        W19860  16.886   3.376  11.456
48245W        W19861  17.558  20.546   0.020
48246W        W19862  20.156   7.217   2.293
48247W        W19863  18.113  21.647   3.180
48248W        W19864   6.465  29.064   3.634
48249W        W19865  10.655  12.448   0.799
48250W        W19866  29.627   3.403  11.120
48251W        W19867  22.920   8.461  11.685
48252W        W19868  37.892  31.647   2.418
48253W        W19869  32.947  32.137   1.470
48254W        W19870   9.461  23.585   4.065
48255W        W19871  25.577  10.236   2.757
48256W        W19872  28.036  29.996  14.205
48257W        W19873  20.294  40.940   4.684
48258W        W19874  19.189   9.403   4.451
48259W        W19875  31.978  23.246  12.597
48260W        W19876   2.859  34.308   4.928
48261W        W19877  36.444  22.731  14.519
48262W        W19878  11.884  16.433   3.401
48263W        W19879  20.924  19.602   5.068
48264W        W19880  10.372  42.776   0.305
48265W        W19881  13.895  42.723  12.080
48266W        W19882  11.686  20.212   3.858
48267W        W19883  29.823   9.672   1.433
48268W        W19884  18.505  15.729  10.640
48269W        W19885  19.185  35.160  12.851
48270W        W19886  43.360  35.378   3.088
48271W        W19887  15.220   1.515   4.236
48272W        W19888  36.414  21.653   2.771
48273W        W19889   4.614  11.161  13.889
48274W        W19890   4.531   2.989  10.455
48275W        W19891  28.107  37.623  13.971
48276W        W19892  26.807  39.362  10.701
48277W        W19893   9.750  29.601   2.942
48278W        W19894   0.286  22.990   1.333
48279W        W19895   0.805  44.009  11.900
48280W        W19896  37.721   9.165  13.464
48281W        W19897  37.759  15.507  12.744
48282W        W19898   9.547  34.150   2.340
48283W        W19899  16.079  19.273   1.465
48284W        W19900  41.888  22.162   0.652
48285W        W19901   4.907  19.082  11.598
48286W        W19902  30.089  33.190   0.196
48287W        W19903   9.198  30.582   1.653
48288W        W19904  25.152  38.794  13.710
48289W        W19905  20.619  24.624   2.873
48290W        W19906  22.179  26.119   3.614
48291W        W19907  38.310  16.992  12.871
48292W        W19908  23.876  26.185  14.443
48293W        W19909  26.757  25.759  13.486
48294W        W19910  39.723  15.057   1.319
48295W        W19911  23.933  10.046   4.138
48296W        W19912  43.836   0.555   3.614
48297W        W19913  15.487   1.624   3.770
48298W        W19914   2.340  19.158  14.840
48299W        W19915  21.241  35.467   3.340
48300W        W19916  14.310  33.201   3.656
48301W        W19917  38.883  30.635   1.415
48302W        W19918   4.923  13.405   1.535
48303W        W19919  18.084  40.478  14.995
48304W        W19920  34.320  12.337   0.855
48305W        W19921  11.747  42.370   2.592
48306W        W19922  33.053   8.645  12.895
48307W        W19923   2.409  21.683   5.417
48308W        W19924  18.599  43.683  12.441
48309W        W19925  10.095  13.836  13.429
48310W        W19926  40.063  10.775   0.263
48311W        W19927  44.259  36.625   2.233
48312W        W19928  29.550  40.187   2.751
48313W        W19929  43.436  13.915   2.425
48314W        W19930  41.848  13.146   1.659
48315W        W19931   3.474   1.910  12.280
48316W        W19932  32.163   6.296   1.446
48317W        W19933  25.385  14.062  14.687
48318W        W19934   5.163  38.815  10.927
48319W        W19935   4.207  20.718  14.470
48320W        W19936  28.285  20.462   2.582
48321W        W19937  35.977  19.761  13.964
48322W        W19938   3.836   6.003   1.692
48323W        W19939  27.653   0.904   2.344
48324W        W19940   7.093  16.057   4.301
48325W        W19941  36.750  38.520  11.627
48326W        W19942  31.026   2.395  14.965
48327W        W19943   7.016   0.224  11.210
48328W        W19944  13.505  22.739  12.966
48329W        W19945  35.520  16.639   4.082
48330W        W19946  40.609   2.278   0.360
48331W        W19947  32.584  10.680   4.723
48332W        W19948   6.018   2.669   1.393
48333W        W19949  17.239   4.423   1.448
48334W        W19950  30.438  19.110   2.928
48335W        W19951  31.225  39.590  11.209
48336W        W19952  11.869  28.746   2.109
48337W        W19953   0.305  36.271  12.840
48338W        W19954  15.229  25.087  14.691
48339W        W19955  15.206   4.326  12.338
48340W        W19956  17.797   0.216  12.479
48341W        W19957  16.675  10.584   4.067
48342W        W19958  24.273   6.662   1.293
48343W        W19959  40.473  13.546  14.473
48344W        W19960   8.933  11.480  10.345
48345W        W19961   3.918  29.399   4.987
48346W        W19962  14.210   0.767   4.473
48347W        W19963  44.691   4.465  14.477
48348W        W19964  28.586  16.287   0.714
48349W        W19965  13.136  42.436  11.222
48350W        W19966   6.715  30.584  11.644
48351W        W19967  17.829  26.404   0.849
48352W        W19968  22.113   7.959   2.184
48353W        W19969   0.434  41.367  13.284
48354W        W19970   3.867   0.873   9.793
48355W        W19971  18.042   3.345  13.276
48356W        W19972   6.156   0.288  14.685
48357W        W19973  24.493  16.811   3.222
48358W        W19974  44.530  30.639   1.770
48359W        W19975  42.791  19.487  14.360
48360W        W19976  43.854  34.452   9.923
48361W        W19977  22.215  19.025  14.600
48362W        W19978  39.513  23.439   2.941
48363W        W19979  43.150  41.240  10.746
48364W        W19980   7.192  22.486   1.758
48365W        W19981   5.044  33.800   1.917
48366W        W19982  28.248  16.704   4.584
48367W        W19983  20.725  42.939  12.585
48368W        W19984  11.148   0.326  12.292
48369W        W19985  26.520  35.446   3.254
48370W        W19986   0.933  43.353  11.709
48371W        W19987  25.036   5.942  12.922
48372W        W19988  32.569  11.267  12.341
48373W        W19989  20.388  44.609  10.332
48374W        W19990  20.307   8.210  11.543
48375W        W19991  14.064  28.289  13.390
48376W        W19992   6.136   9.873  11.108
48377W        W19993   8.303  41.922  13.427
48378W        W19994  15.214  37.298   4.238
48379W        W19995  22.640  13.183   1.385
48380W        W19996  23.075  24.013   4.503
48381W        W19997  16.544  26.545   0.312
48382W        W19998   1.806  34.538  10.833
48383W        W19999  29.506   5.142   1.909
48384W        W20000  35.335  39.295   2.208
48385W        W20001  30.761  21.983  11.671
48386W        W20002   8.311  17.011   2.384
48387W        W20003  36.568  24.458   3.677
48388W        W20004  22.508   5.775   1.385
48389W        W20005  19.167  38.130  10.547
48390W        W20006  33.368  38.407  12.639
48391W        W20007  39.582  31.101   4.530
48392W        W20008  37.989  25.991  10.785
48393W        W20009  17.689  10.401  14.283
48394W        W20010  29.710  34.475  12.793
48395W        W20011  39.848  22.053  11.643
48396W        W20012  17.732  43.631   5.515
48397W        W20013   5.776  37.284   4.013
48398W        W20014  18.256   3.820  11.111
48399W        W20015   5.568  28.445   3.279
48400W        W20016  17.633   2.190  10.618
48401W        W20017   6.768  39.358  10.743
48402W        W20018  14.099  26.179   3.626
48403W        W20019  18.799  20.767   4.626
48404W        W20020  34.269  31.694  14.133
48405W        W20021  12.650  27.204   0.723
48406W        W20022  40.028  18.634  14.978
48407W        W20023  30.027  35.010   2.816
48408W        W20024  28.064  26.524   0.463
48409W        W20025  43.377  35.226  11.557
48410W        W20026  31.471  39.482   4.495
48411W        W20027  19.219  12.317  11.434
48412W        W20028  22.196  12.398   1.241
48413W        W20029  23.557  11.956  12.803
48414W        W20030  36.466   8.259   1.861
48415W        W20031  42.977   4.595  13.035
48416W        W20032  28.564  38.425   0.762
48417W        W20033  19.594  17.168   3.677
48418W        W20034  25.168  12.390  12.072
48419W        W20035  35.467  18.620   2.762
48420W        W20036  40.721  38.140   2.857
48421W        W20037  39.562   4.492   0.950
48422W        W20038  39.533  24.032  11.533
48423W        W20039  33.815  26.510  10.915
48424W        W20040   3.858  44.339  14.856
48425W        W20041  31.507  29.060  10.990
48426W        W20042   2.736  16.422   1.339
48427W        W20043  42.565  44.963   1.199
48428W        W20044  10.874   2.239  11.518
48429W        W20045  30.394  10.697  12.067
48430W        W20046   7.684  26.439  10.363
48431W        W20047   9.477  26.026  11.019
48432W        W20048   5.862  35.041   4.640
48433W        W20049  21.600  32.303   4.973
48434W        W20050   6.363  29.948   0.254
48435W        W20051  18.585  22.745  14.546
48436W        W20052  14.695  17.004   0.526
48437W        W20053  37.521   9.462  10.712
48438W        W20054   0.558  18.556   4.517
48439W        W20055  29.873  27.296  12.355
48440W        W20056   2.742  40.590   2.876
48441W        W20057   9.088  28.615  13.110
48442W        W20058  32.488  27.993   1.019
48443W        W20059  16.124   3.838  14.561
48444W        W20060   6.367  15.318   2.293
48445W        W20061   6.020  12.134   1.245
48446W        W20062  27.756  31.173   1.924
48447W        W20063  21.310  19.959   4.952
48448W        W20064  18.991  39.122  14.072
48449W        W20065  22.601  39.923   1.911
48450W        W20066  37.569  25.067   3.294
48451W        W20067  37.741  15.996  12.449
48452W        W20068   7.209  29.419   0.776
48453W        W20069   6.861  27.886  14.261
48454W        W20070  23.769   8.756   3.081
48455W        W20071  37.547  13.667   4.679
48456W        W20072   1.320  21.219  12.607
48457W        W20073  11.107  14.757  14.187
48458W        W20074  25.488  21.335   4.953
48459W        W20075  44.454   1.981   2.578
48460W        W20076   2.493  20.119  11.169
48461W        W20077  43.269  42.468   1.718
48462W        W20078  28.703  24.096   1.346
48463W        W20079   0.789   1.828  13.964
48464W        W20080  13.703   6.457  11.956
48465W        W20081  25.550   3.238   2.373
48466W        W20082  36.399   4.273  11.972
48467W        W20083   8.736  30.639   1.403
48468W        W20084  39.905  33.053  14.296
48469W        W20085   6.074  21.542  13.431
48470W        W20086   8.345  40.323  10.473
48471W        W20087  15.726   8.188   4.751
48472W        W20088   9.649  34.572   2.700
48473W        W20089   3.504  23.600   2.424
48474W        W20090  25.616  10.790  12.487
48475W        W20091  30.986  28.057   2.404
48476W        W20092  40.463  39.090   0.246
48477W        W20093   2.236  31.961   3.141
48478W        W20094  12.601   8.564  12.935
48479W        W20095  42.482  37.396  14.348
48480W        W20096  25.196  18.912  10.663
48481W        W20097   5.710  29.809  13.965
48482W        W20098   4.749  40.568   3.750
48483W        W20099  11.709  32.662  11.211
48484W        W20100  32.824   4.265  11.976
48485W        W20101  17.499  27.111   1.883
48486W        W20102  10.474   4.432  13.388
48487W        W20103  40.874  24.072   3.708
48488W        W20104  22.756  38.388   4.089
48489W        W20105  27.363  28.130   4.241
48490W        W20106  37.695  42.045   0.669
48491W        W20107  13.616  40.556   2.635
48492W        W20108  35.905  39.789  13.960
48493W        W20109  17.351  18.775  13.877
48494W        W20110  31.401  39.875   2.777
48495W        W20111  32.138  23.291  11.148
48496W        W20112  18.397  24.224  12.138
48497W        W20113   7.574  37.121   1.220
48498W        W20114  30.229  33.985   2.340
48499W        W20115   2.986  23.870  12.876
48500W        W20116  11.087  36.907   3.147
48501W        W20117   8.420  30.246  11.992
48502W        W20118   4.534  33.504   2.776
48503W        W20119  37.089  16.806  14.357
48504W        W20120   4.866   9.386  11.449
48505W        W20121  28.148  34.445   3.107
48506W        W20122  11.398   3.474  12.658
48507W        W20123   0.443   0.883  10.609
48508W        W20124  16.648  21.173   2.339
48509W        W20125  24.395  30.133   1.234
48510W        W20126  23.485  26.302  12.479
48511W        W20127  30.922  41.488  11.254
48512W        W20128  26.691  24.237   0.913
48513W        W20129   3.243   8.338  13.496
48514W        W20130  41.839   5.840   3.374
48515W        W20131  16.013   7.072  14.456
48516W        W20132  24.409  15.015   4.150
48517W        W20133   6.840   8.222  12.430
48518W        W20134  14.105  41.413   3.898
48519W        W20135  37.476   0.876  12.404
48520W        W20136  30.503   4.395  11.476
48521W        W20137  36.929  24.135  14.422
48522W        W20138  24.552  37.125   2.185
48523W        W20139  20.995  18.970  14.876
48524W        W20140  26.599  33.154   1.849
48525W        W20141  44.843   5.468   2.816
48526W        W20142  12.758  40.512  11.916
48527W        W20143   5.255  12.633   2.292
48528W        W20144  28.158  14.009  14.012
48529W        W20145  34.279  34.676  13.071
48530W        W20146  15.791  18.584   1.942
48531W        W20147  41.676  11.416   0.392
48532W        W20148   2.731  29.725  13.102
48533W        W20149  18.588  19.953  14.186
48534W        W20150  32.405  44.992  13.581
48535W        W20151   7.997  21.264   0.961
48536W        W20152  28.157  26.734  13.157
48537W        W20153  41.906  32.693  11.532
48538W        W20154  36.629  23.233   4.835
48539W        W20155  13.781  42.501  14.378
48540W        W20156   0.873  40.242   4.808
48541W        W20157  39.917  34.052  12.871
48542W        W20158  13.863  25.283   2.299
48543W        W20159  24.760  12.110  11.925
48544W        W20160  39.067  29.971  12.509
48545W        W20161   7.202   8.501   3.497
48546W        W20162  30.831  43.873  13.895
48547W        W20163  13.548   3.692   0.946
48548W        W20164  28.683  29.670  12.041
48549W        W20165  31.021  20.417   3.740
48550W        W20166  41.943   6.810   1.858
48551W        W20167  44.867  39.021   2.298
48552W        W20168  16.648  43.898   1.505
48553W        W20169  38.664  21.913   0.351
48554W        W20170  28.098  39.539   1.262
48555W        W20171   6.461  39.711   4.816
48556W        W20172  31.026  14.982   3.116
48557W        W20173  34.608  10.079   1.197
48558W        W20174  22.275  17.219  13.957
48559W        W20175  33.945  31.430  14.454
48560W        W20176   5.344  29.432  11.868
48561W        W20177  18.035  39.777  14.473
48562W        W20178   4.244  24.897  14.794
48563W        W20179  11.674   8.114  13.331
48564W        W20180  18.486  23.516   5.241
48565W        W20181   8.654  27.711  11.350
48566W        W20182  28.086  26.768   2.815
48567W        W20183  37.352  18.084  13.930
48568W        W20184  12.726   8.670   3.856
48569W        W20185  17.099  19.681   2.423
48570W        W20186   7.897  15.341   3.117
48571W        W20187  22.727  11.936   5.137
48572W        W20188  43.397  41.919  14.449
48573W        W20189  44.320  14.174   1.143
48574W        W20190  33.060   9.472   3.114
48575W        W20191  38.409  30.080   0.864
48576W        W20192  12.762   2.933   1.332
48577W        W20193  28.434  11.843  12.045
48578W        W20194  12.760  39.532  12.425
48579W        W20195  29.245  15.267   9.748
48580W        W20196   5.955  15.698   1.301
48581W        W20197  19.779  32.026  13.052
48582W        W20198   7.938  32.991   0.405
48583W        W20199   2.375  35.144   3.282
48584W        W20200  36.888  11.773  12.407
48585W        W20201   7.602  38.464  14.807
48586W        W20202  41.248  36.403   0.736
48587W        W20203  30.545  29.078  11.925
48588W        W20204   0.543  28.002   0.731
48589W        W20205  13.407  25.367  10.666
48590W        W20206  33.391  22.083  11.183
48591W        W20207  17.059  12.841  14.892
48592W        W20208  13.292  18.015  13.941
48593W        W20209  41.009  32.553   0.253
48594W        W20210  20.091  30.871  13.334
48595W        W20211  30.652  38.321   0.288
48596W        W20212   6.638  23.244  13.089
48597W        W20213  25.120  38.403  11.975
48598W        W20214  22.216  31.915   0.662
48599W        W20215  18.696   9.225  11.273
48600W        W20216  38.937   6.946   3.810
48601W        W20217  30.545   2.459  10.473
48602W        W20218  39.838  30.415   3.046
48603W        W20219  11.514  42.230  13.511
48604W        W20220   0.575  35.665   4.755
48605W        W20221  31.844  24.486  11.606
48606W        W20222  19.822  30.645  14.411
48607W        W20223  13.649  17.199   4.106
48608W        W20224  16.752  18.051   2.125
48609W        W20225  15.162  20.024  11.174
48610W        W20226  39.595  23.131  13.053
48611W        W20227  12.163  32.596   0.722
48612W        W20228  29.648  30.107  12.351
48613W        W20229  26.245  29.203  12.935
48614W        W20230  44.816  13.205   1.854
48615W        W20231  44.030  29.552   0.996
48616W        W20232  38.395  16.639   0.034
48617W        W20233  40.178   1.305   1.503
48618W        W20234  11.391   9.388   2.725
48619W        W20235  39.151  18.284   2.401
48620W        W20236  18.619  28.948  11.449
48621W        W20237   2.280  23.238  12.237
48622W        W20238  14.262  29.599  11.091
48623W        W20239  11.083   4.980   3.166
48624W        W20240  33.093  23.349  10.856
48625W        W20241  39.328  40.613   2.156
48626W        W20242  33.614  42.078   5.109
48627W        W20243  13.385  36.520   4.286
48628W        W20244  43.968   7.247   1.314
48629W        W20245  36.794  25.521   2.593
48630W        W20246  44.663  16.268   4.494
48631W        W20247   7.713  30.074   2.933
48632W        W20248  34.025  42.790   0.896
48633W        W20249  43.396  19.478   4.613
48634W        W20250  35.180  16.108   1.612
48635W        W20251  41.318  12.547  10.745
48636W        W20252  37.946  12.585   0.963
48637W        W20253  21.470  27.641   1.396
48638W        W20254  12.339  31.337   3.157
48639W        W20255  24.435   5.807   2.439
48640W        W20256  15.797  27.057  14.097
48641W        W20257  33.078   3.788   1.142
48642W        W20258  23.579  35.409   3.298
48643W        W20259  24.019  40.423   4.473
48644W        W20260  42.506  44.182   2.810
48645W        W20261  19.160   0.710   2.320
48646W        W20262  39.060  23.716  13.591
48647W        W20263  30.968  24.211  12.560
48648W        W20264  18.690  11.129  12.074
48649W        W20265  38.982   2.319   1.801
48650W        W20266  12.648  36.619  12.409
48651W        W20267  26.165  38.620   4.565
48652W        W20268  13.204  15.426   0.636
48653W        W20269  28.621  20.510  14.367
48654W        W20270  12.209  24.448  12.432
48655W        W20271  16.463  11.362  12.020
48656W        W20272  11.249  44.343  12.597
48657W        W20273   7.170   3.201  14.516
48658W        W20274   0.338  24.034  11.026
48659W        W20275  10.695  41.883   4.671
48660W        W20276  29.522  24.104  11.193
48661W        W20277   8.267  25.645   2.393
48662W        W20278  23.005  37.861   0.311
48663W        W20279   8.287   8.253  10.408
48664W        W20280  26.940   3.978   0.205
48665W        W20281  29.400  28.519  10.650
48666W        W20282  40.842   6.899  12.459
48667W        W20283  32.933  38.595  13.043
48668W        W20284  10.610  12.822   2.880
48669W        W20285   9.802  33.335   2.772
48670W        W20286  32.025  13.625  11.555
48671W        W20287  27.578  28.341  12.812
48672W        W20288  18.300  28.176  12.376
48673W        W20289  11.814   6.833   0.527
48674W        W20290  21.513   8.637   3.148
48675W        W20291  30.370  37.903   3.577
48676W        W20292  19.226  26.923   3.203
48677W        W20293  43.100  34.505  12.198
48678W        W20294  27.557  12.071   4.492
48679W        W20295  32.571  22.250   3.785
48680W        W20296  26.245  33.473   0.941
48681W        W20297  33.629   4.780  11.974
48682W        W20298  44.324   0.983  13.249
48683W        W20299  43.432  22.629   0.533
48684W        W20300  32.137  42.361  13.439
48685W        W20301  23.909   7.665   0.448
48686W        W20302  42.595  29.451  14.925
48687W        W20303   2.280  26.000  13.634
48688W        W20304  26.669  11.395  13.404
48689W        W20305   7.130   6.491   0.917
48690W        W20306  24.991  19.805   4.585
48691W        W20307  24.602  21.456  12.521
48692W        W20308  32.235  33.170   0.318
48693W        W20309  16.208  23.302   1.425
48694W        W20310   0.518   7.800   0.881
48695W        W20311  42.581   2.723  14.289
48696W        W20312  31.458  26.089  12.233
48697W        W20313  34.200  26.837  11.056
48698W        W20314  12.110  24.021   2.608
48699W        W20315   5.051   4.944  12.195
48700W        W20316  36.110   3.824   1.526
48701W        W20317  26.932   1.374  11.773
48702W        W20318  43.339   7.853  12.093
48703W        W20319  39.780  33.324  10.734
48704W        W20320  20.081  10.669  13.637
48705W        W20321  32.818  39.496  12.143
48706W        W20322  25.511  31.434  13.990
48707W        W20323   0.899  15.405  14.787
48708W        W20324  22.177   0.302  12.509
48709W        W20325  34.567  35.541   1.967
48710W        W20326  42.942  16.777  13.407
48711W        W20327  27.629  31.547  14.780
48712W        W20328  36.390  26.591  12.303
48713W        W20329  20.029  12.206   3.675
48714W        W20330  36.063  36.159  14.945
48715W        W20331  25.485   4.749   4.746
48716W        W20332  43.655   2.958   2.927
48717W        W20333  32.791  38.856   4.114
48718W        W20334  14.221  34.300   0.453
48719W        W20335  24.514   3.913   0.287
48720W        W20336  43.803  42.235  12.429
48721W        W20337  31.914  16.761  11.996
48722W        W20338  29.491  38.432   0.835
48723W        W20339   4.905  33.419  12.142
48724W        W20340  34.164  39.610   4.854
48725W        W20341  40.032  31.015  11.175
48726W        W20342  26.066  27.871   4.831
48727W        W20343  27.492   6.593   4.731
48728W        W20344  21.677  29.171  14.919
48729W        W20345  20.235  44.534   0.812
48730W        W20346  24.730  34.136  11.992
48731W        W20347  21.207  16.681   1.680
48732W        W20348  19.224   9.003  12.524
48733W        W20349  39.166   1.467  13.085
48734W        W20350  19.588  23.091  11.665
48735W        W20351  39.170  13.109  14.936
48736W        W20352  17.702  42.309   0.528
48737W        W20353   4.809  30.137  13.848
48738W        W20354  44.200  22.665  12.075
48739W        W20355   0.878  23.266   2.416
48740W        W20356  37.647  25.245   4.702
48741W        W20357   2.736  10.783  12.882
48742W        W20358   3.023  29.776  12.154
48743W        W20359  23.186  14.050  12.440
48744W        W20360  24.278   1.482   0.758
48745W        W20361  39.376  43.729  11.088
48746W        W20362  25.929   1.757  12.591
48747W        W20363  43.145  30.915   3.450
48748W        W20364  25.631  11.802   4.092
48749W        W20365  22.543  25.227  12.991
48750W        W20366  20.007   6.681   2.333
48751W        W20367  28.232  17.426  14.801
48752W        W20368   9.268   0.513  14.751
48753W        W20369  34.825  26.491  13.932
48754W        W20370  11.689   2.467  14.769
48755W        W20371   8.947  19.091  13.927
48756W        W20372  38.795  33.055  10.969
48757W        W20373  41.746  34.025   4.661
48758W        W20374  15.617  38.351   0.481
48759W        W20375  36.320  30.994   2.797
48760W        W20376   6.770  35.613   2.607
48761W        W20377  29.910   8.800   1.319
48762W        W20378  14.135  41.925   3.789
48763W        W20379   6.379  14.080  11.265
48764W        W20380  27.938  22.426  13.842
48765W        W20381   7.932   3.503   5.012
48766W        W20382  32.572  41.046   3.692
48767W        W20383  14.366  34.629  11.141
48768W        W20384   4.957   0.441  14.035
48769W        W20385  42.542   2.457  11.641
48770W        W20386   2.427   9.176  14.772
48771W        W20387   6.852  16.663  14.361
48772W        W20388  27.235   4.778   2.829
48773W        W20389  40.099   7.827  10.725
48774W        W20390   9.172  36.088  13.032
48775W        W20391  26.848  28.052  10.305
48776W        W20392  33.392   3.252  10.637
48777W        W20393  14.690  38.872   1.414
48778W        W20394  26.990   9.822  11.909
48779W        W20395  37.200  27.003  13.150
48780W        W20396  25.232  20.259   2.399
48781W        W20397   2.145   3.462   4.572
48782W        W20398  13.805  15.211  13.294
48783W        W20399  33.300   6.982  11.084
48784W        W20400  24.932  27.974  11.126
48785W        W20401   6.248  29.030   1.350
48786W        W20402   0.205  19.992   0.467
48787W        W20403   6.650   4.030   1.869
48788W        W20404  17.019   5.743  14.695
48789W        W20405   8.279  41.105  10.966
48790W        W20406   5.844   3.859   3.613
48791W        W20407  39.498   9.153  10.598
48792W        W20408  39.979  15.236   0.393
48793W        W20409  43.646  14.393  11.789
48794W        W20410  16.820  13.108   3.334
48795W        W20411  22.537  40.762   1.990
48796W        W20412  17.027   3.294  12.828
48797W        W20413   7.198  16.867  12.979
48798W        W20414  20.468  30.467   3.760
48799W        W20415  42.737  32.352   0.260
48800W        W20416  39.932  25.991  13.939
48801W        W20417  38.602  29.280   1.448
48802W        W20418   3.199  42.024   3.775
48803W        W20419  39.591  44.970  11.936
48804W        W20420   1.601  14.186   3.289
48805W        W20421  23.724  15.647   1.253
48806W        W20422  16.787  25.410  11.529
48807W        W20423   1.222  30.441   4.574
48808W        W20424  10.859  30.375  10.913
48809W        W20425  32.590   3.016   1.709
48810W        W20426  18.615  43.975   3.128
48811W        W20427  23.650  21.471   2.676
48812W        W20428  40.563  30.313   2.319
48813W        W20429  24.179  10.637   4.736
48814W        W20430   9.342  12.251  14.989
48815W        W20431  22.078   7.495   3.490
48816W        W20432  38.059  24.170   1.757
48817W        W20433  25.724   5.960  11.501
48818W        W20434   1.312  44.700  12.390
48819W        W20435  23.747  42.053   0.746
48820W        W20436  29.667  21.410   0.559
48821W        W20437  11.667  11.176   3.229
48822W        W20438   8.684  28.506   1.780
48823W        W20439  41.360  11.971   3.374
48824W        W20440  21.389  32.388  12.461
48825W        W20441  32.047  16.327  10.763
48826W        W20442  22.460  28.671   3.673
48827W        W20443  39.285   9.894   3.602
48828W        W20444  39.463   0.454   3.897
48829W        W20445   0.127  33.871  12.980
48830W        W20446   2.231  14.187  10.240
48831W        W20447  28.018  11.728  10.090
48832W        W20448  29.040  43.906   0.643
48833W        W20449  36.263   8.269   1.345
48834W        W20450  43.804  21.443   4.140
48835W        W20451  24.599   7.896   1.401
48836W        W20452  37.846  29.672  14.776
48837W        W20453  12.565  19.961  12.561
48838W        W20454  21.302   9.867   4.232
48839W        W20455  34.694   1.254  10.302
48840W        W20456  26.518  21.424   4.119
48841W        W20457  30.564   1.865  13.008
48842W        W20458  21.740   4.372   2.568
48843W        W20459  10.348  20.344   1.907
48844W        W20460  18.163   1.932   0.375
48845W        W20461  39.246   4.916   2.853
48846W        W20462  41.486   9.146   1.434
48847W        W20463   5.760   3.398  14.533
48848W        W20464  32.535  26.466  11.573
48849W        W20465  35.140  10.138  11.037
48850W        W20466   3.436   0.717  14.015
48851W        W20467  18.288  26.417  12.027
48852W        W20468  43.925  22.773  11.203
48853W        W20469  37.116  29.023   4.313
48854W        W20470  11.345  13.274   4.558
48855W        W20471   9.906  38.679  13.173
48856W        W20472  18.284  36.058   3.734
48857W        W20473   1.263  33.983  11.915
48858W        W20474  12.226  24.984   0.063
48859W        W20475  30.608  28.598  12.076
48860W        W20476   8.416  23.282  14.970
48861W        W20477  25.999  39.030  12.054
48862W        W20478  21.050  13.624   4.276
48863W        W20479   8.072  19.603  13.818
48864W        W20480  33.949  25.912   4.608
48865W        W20481  10.038  29.190  14.508
48866W        W20482   1.654  22.567  11.071
48867W        W20483  14.357   8.485  11.169
48868W        W20484  44.364  21.275  13.915
48869W        W20485  16.588  41.831   2.134
48870W        W20486  36.990  16.173  12.832
48871W        W20487  29.835  23.202   2.430
48872W        W20488  42.813  15.523  11.520
48873W        W20489   8.618   3.155   3.780
48874W        W20490  16.128  20.124  13.586
48875W        W20491   5.275  44.241  10.640
48876W        W20492  41.203  42.060  11.739
48877W        W20493  36.119  43.700  13.285
48878W        W20494   2.436  26.933   3.294
48879W        W20495  12.525  37.865   2.316
48880W        W20496  10.330  13.740  10.480
48881W        W20497  13.373  37.316   2.184
48882W        W20498   3.391   3.737  13.985
48883W        W20499  23.057  35.373  11.024
48884W        W20500  41.317  33.859  11.354
48885W        W20501  36.904  40.800  13.358
48886W        W20502  27.377  44.989  12.028
48887W        W20503  43.106  23.527   1.632
48888W        W20504  13.608  30.376   1.695
48889W        W20505  22.617  34.368   4.665
48890W        W20506  20.581  18.276  10.181
48891W        W20507  29.698   0.320   4.611
48892W        W20508  41.380  23.921  11.920
48893W        W20509  32.124  10.892   1.885
48894W        W20510  39.942  25.413   1.806
48895W        W20511  38.626  35.232  14.209
48896W        W20512   9.107  42.554   0.360
48897W        W20513  26.295  18.003  12.933
48898W        W20514  21.026   7.004  14.999
48899W        W20515  29.139  31.887   4.122
48900W        W20516  36.854   4.772   2.757
48901W        W20517  11.390   3.271  13.654
48902W        W20518   5.172  31.644   2.883
48903W        W20519  18.761   7.774  13.036
48904W        W20520  19.668  17.024  14.913
48905W        W20521   1.232  17.584  11.035
48906W        W20522  11.373  43.867  10.693
48907W        W20523  28.634  26.251   4.124
48908W        W20524   6.581  38.610   0.012
48909W        W20525  33.884  41.257   3.769
48910W        W20526  39.533  11.226   2.274
48911W        W20527  35.302  26.791  14.048
48912W        W20528  41.127   4.290  14.867
48913W        W20529  17.573   9.692   2.577
48914W        W20530  37.827  34.689   0.738
48915W        W20531   1.079   2.922  13.263
48916W        W20532  19.966  33.946  14.408
48917W        W20533  15.662  25.705   4.174
48918W        W20534  35.500  14.258   1.201
48919W        W20535  42.083   4.656   4.413
48920W        W20536  32.865   9.027   5.180
48921W        W20537  31.768  17.499  12.408
48922W        W20538  21.289  11.830   2.778
48923W        W20539  43.817   3.357   0.442
48924W        W20540   0.545  12.262   1.439
48925W        W20541  33.348  18.797   3.442
48926W        W20542  17.984  12.215   2.228
48927W        W20543   2.310  36.635   2.191
48928W        W20544  19.796  32.453   3.145
48929W        W20545  11.259  41.146   0.018
48930W        W20546   4.133  36.908  11.028
48931W        W20547  14.908  10.434   1.358
48932W        W20548  17.494  31.138  10.757
48933W        W20549   9.311  30.971   0.880
48934W        W20550   5.110  30.844  11.053
48935W        W20551  32.575  20.256  11.876
48936W        W20552  18.660  21.506  11.652
48937W        W20553  41.475  28.914  13.999
48938W        W20554  36.891  36.303   2.169
48939W        W20555  16.119  44.621  10.267
48940W        W20556  33.906   7.981  12.083
48941W        W20557  31.041  14.022  11.582
48942W        W20558  42.572  16.231  12.487
48943W        W20559  20.035  42.072  14.386
48944W        W20560   4.960  29.615  14.517
48945W        W20561  29.471  37.885  10.652
48946W        W20562  35.368  20.152  14.801
48947W        W20563  40.616  33.573  12.644
48948W        W20564  43.883  42.981   4.112
48949W        W20565  20.576  43.316  10.451
48950W        W20566  32.072  27.181   1.143
48951W        W20567  39.890  37.285  13.716
48952W        W20568  15.096   7.402  10.722
48953W        W20569  34.609  15.676  14.805
48954W        W20570   2.237  16.074   0.675
48955W        W20571  43.781  32.197  11.953
48956W        W20572  15.700  28.468  11.876
48957W        W20573   9.201  25.733   0.204
48958W        W20574  21.544  34.958  10.732
48959W        W20575  22.315  19.609  11.183
48960W        W20576  36.410  31.842  13.049
48961W        W20577  34.274  37.975   3.111
48962W        W20578  40.096  20.799   2.842
48963W        W20579  36.035  32.306   3.120
48964W        W20580  38.664  23.850   1.259
48965W        W20581  32.125  43.547   4.596
48966W        W20582  11.402  38.651   4.206
48967W        W20583   9.793   2.876   4.644
48968W        W20584  23.509   2.272   1.611
48969W        W20585  23.036  29.980   0.641
48970W        W20586   3.752  11.849  13.428
48971W        W20587  41.511  30.561  10.779
48972W        W20588  40.980  30.054  12.985
48973W        W20589  17.649  37.497   1.836
48974W        W20590  41.538  21.045  14.310
48975W        W20591  16.981   3.862   3.206
48976W        W20592  29.277   6.033   1.717
48977W        W20593  27.643   8.175  12.391
48978W        W20594  18.513  16.709  13.370
48979W        W20595  22.017  12.113  14.296
48980W        W20596  33.609  15.663   3.714
48981W        W20597  32.598  44.070  12.582
48982W        W20598   3.319  21.961  14.330
48983W        W20599  40.991  12.066   0.904
48984W        W20600  13.408  13.560   3.648
48985W        W20601  19.263  27.082  14.399
48986W        W20602   1.821  30.608  13.359
48987W        W20603  22.217  43.019   2.701
48988W        W20604  24.125  31.654  14.872
48989W        W20605  14.847  12.784  13.059
48990W        W20606  18.035  19.699  14.779
48991W        W20607  34.341  32.152  14.484
48992W        W20608  41.382   7.315  12.902
48993W        W20609  33.269  19.407  14.136
48994W        W20610  12.322  42.348   2.401
48995W        W20611  38.359  44.350  10.527
48996W        W20612  27.334  33.627  12.794
48997W        W20613  35.908  43.311  13.551
48998W        W20614  10.799  27.624   3.409
48999W        W20615  29.188  32.113  12.570
49000W        W20616  41.304   8.608  10.935
49001W        W20617  18.165  36.785   2.253
49002W        W20618  26.318   7.238  13.765
49003W        W20619  25.191  24.300  14.752
49004W        W20620  29.010  28.654   4.275
49005W        W20621  13.599   7.099   0.056
49006W        W20622  13.368  22.945  12.506
49007W        W20623  36.960  15.559  10.334
49008W        W20624  13.370  19.529   3.684
49009W        W20625   6.229   2.382   3.813
49010W        W20626  43.010  26.980   1.184
49011W        W20627  40.885  19.424  11.291
49012W        W20628  16.099  29.183   4.515
49013W        W20629  12.899  13.475   0.680
49014W        W20630  28.161  16.059   2.551
49015W        W20631  18.254  13.859  14.841
49016W        W20632  41.847  44.658  14.018
49017W        W20633  23.720   1.288   0.059
49018W        W20634  14.293  11.168  14.163
49019W        W20635  44.022  41.329   2.758
49020W        W20636  43.894  14.911   4.589
49021W        W20637  42.860  10.162  13.804
49022W        W20638   4.146   3.834   1.609
49023W        W20639  30.571  32.328  13.339
49024W        W20640  12.791  30.905   2.716
49025W        W20641  35.531  31.629  13.773
49026W        W20642  13.221  29.024  14.288
49027W        W20643  30.594  14.693   3.717
49028W        W20644  29.098   5.680   0.746
49029W        W20645  30.182  20.022  12.970
49030W        W20646  35.467   8.948   4.190
49031W        W20647  28.676  40.551  12.432
49032W        W20648   5.396  24.734   4.942
49033W        W20649  39.829  13.695   2.859
49034W        W20650  14.834  40.970  14.356
49035W        W20651  38.447  11.067  11.957
49036W        W20652  10.062  18.396   9.875
49037W        W20653   1.710   6.854   0.950
49038W        W20654  19.495  26.561  13.312
49039W        W20655  20.838  44.534   5.093
49040W        W20656   1.464   1.520   4.536
49041W        W20657  17.665  44.983  11.084
49042W        W20658   3.840  39.378  14.519
49043W        W20659  23.766  28.025  13.527
49044W        W20660  13.318  39.374  13.764
49045W        W20661   6.504  28.917   0.300
49046W        W20662  39.459   2.297  14.982
49047W        W20663  37.922  33.060  13.554
49048W        W20664  38.170   7.342   1.914
49049W        W20665  42.068  16.196   4.914
49050W        W20666  32.434  28.026  13.927
49051W        W20667   1.448  26.210   1.628
49052W        W20668  12.884   3.467  12.072
49053W        W20669  37.330  44.456  11.634
49054W        W20670   8.793  14.269   9.717
49055W        W20671  14.849  20.636   0.728
49056W        W20672  29.926  25.569   1.373
49057W        W20673  12.962  15.211   4.608
49058W        W20674  33.762  33.493   3.771
49059W        W20675  32.431   9.524   2.587
49060W        W20676  41.976   9.812  14.885
49061W        W20677  30.804  41.851   1.345
49062W        W20678  20.852  34.614  10.846
49063W        W20679   3.782  27.577   3.131
49064W        W20680  27.017  16.086  11.161
49065W        W20681   2.999  42.499  12.187
49066W        W20682  39.116   3.519   4.612
49067W        W20683   4.748  22.708  13.585
49068W        W20684  10.346  22.106   2.326
49069W        W20685  37.775  19.298   0.262
49070W        W20686  43.267  20.068  11.457
49071W        W20687   6.702  23.121  14.975
49072W        W20688   8.286  31.239  13.008
49073W        W20689   6.105  10.058  11.611
49074W        W20690  30.687  44.676  11.566
49075W        W20691  33.366  43.488  10.612
49076W        W20692   8.250   5.848   0.286
49077W        W20693  33.778  34.481   1.417
49078W        W20694  28.057  20.943  13.811
49079W        W20695  20.014  31.456  11.154
49080W        W20696   9.256  38.041   4.357
49081W        W20697  24.433   3.332   0.500
49082W        W20698  31.551  26.385  14.895
49083W        W20699  29.905  24.703   2.326
49084W        W20700  29.026  42.078   1.167
49085W        W20701   8.721   2.069   0.685
49086W        W20702  27.084  17.566  13.995
49087W        W20703  21.992  28.176  12.394
49088W        W20704  41.501  35.088   2.410
49089W        W20705   1.771  13.592  11.550
49090W        W20706  32.105  39.179  13.157
49091W        W20707  23.149  33.204   2.553
49092W        W20708   7.219  23.476  12.016
49093W        W20709   2.026   9.661   0.845
49094W        W20710   3.786  34.514   0.631
49095W        W20711  14.097  20.154   0.842
49096W        W20712  38.588  32.037   1.311
49097W        W20713  29.426   1.383   4.196
49098W        W20714  19.479   8.228  11.903
49099W        W20715  15.865   9.397  13.819
49100W        W20716  20.236  30.665   4.293
49101W        W20717  13.768  37.901  14.439
49102W        W20718  38.340  41.329  10.605
49103W        W20719  35.568  36.017  11.916
49104W        W20720  28.818  15.136   2.949
49105W        W20721  10.433  34.169   0.750
49106W        W20722  19.010   4.254   2.908
49107W        W20723  27.370  26.441  12.544
49108W        W20724  42.069  26.363   0.487
49109W        W20725  14.120  15.768   2.784
49110W        W20726   1.543   7.244  12.566
49111W        W20727  25.672  19.998  11.232
49112W        W20728   3.703  16.165   0.580
49113W        W20729  19.845  26.819   2.600
49114W        W20730  30.373  13.828  14.786
49115W        W20731   6.248   3.474  14.695
49116W        W20732   0.879  20.797  12.968
49117W        W20733   6.808  35.009   1.304
49118W        W20734  18.609  14.538   2.798
49119W        W20735  22.170  17.062   3.102
49120W        W20736  29.631   7.688   0.800
49121W        W20737   6.449  18.969   1.273
49122W        W20738   1.281  16.696  10.754
49123W        W20739  43.216  29.677  13.518
49124W        W20740  24.482  16.202   1.508
49125W        W20741   6.890  39.129   2.425
49126W        W20742  15.578  38.951  12.504
49127W        W20743  15.687  33.246   3.801
49128W        W20744  34.896   8.866   3.880
49129W        W20745  42.084  34.541   0.335
49130W        W20746  39.912  13.696  13.375
49131W        W20747  11.851  32.925   3.569
49132W        W20748  15.638  16.605   2.913
49133W        W20749  42.840  37.355  13.080
49134W        W20750  34.209   3.023   1.330
49135W        W20751  10.174   9.804   1.580
49136W        W20752  27.466  44.606  12.386
49137W        W20753  42.897  21.995  14.003
49138W        W20754  31.653  39.924  10.478
49139W        W20755  22.701  34.435  14.393
49140W        W20756   8.257  10.428   4.609
49141W        W20757  41.869  38.584   1.448
49142W        W20758  13.427  38.386   0.850
49143W        W20759  18.615  25.631  14.948
49144W        W20760   1.608  29.711   4.124
49145W        W20761   9.964  18.577  10.388
49146W        W20762  34.825  34.155  11.969
49147W        W20763  27.612  14.490   1.303
49148W        W20764   9.256   5.191   0.247
49149W        W20765  32.077  21.064  12.580
49150W        W20766  29.756  14.010  12.069
49151W        W20767  18.467  44.265  10.279
49152W        W20768  29.166  26.138   4.061
49153W        W20769  27.601  43.473   2.160
49154W        W20770   7.181  25.658  14.872
49155W        W20771   8.298  38.011  11.928
49156W        W20772  19.746  22.092   0.446
49157W        W20773   0.763  36.479  12.606
49158W        W20774  10.839   0.705   1.587
49159W        W20775  36.896  37.419   0.688
49160W        W20776  34.885   7.829   0.849
49161W        W20777  19.857  25.438  12.057
49162W        W20778  44.739  17.431  14.397
49163W        W20779   8.248  10.864   0.975
49164W        W20780   3.089  36.962  13.455
49165W        W20781   9.385  33.903  12.857
49166W        W20782   4.721  13.016  13.684
49167W        W20783   3.883  27.304   4.077
49168W        W20784   4.507  43.322   1.415
49169W        W20785  11.051  42.843  14.170
49170W        W20786  32.203  44.431   3.411
49171W        W20787  39.711  30.587  11.123
49172W        W20788  21.650  25.703  13.199
49173W        W20789  28.109   3.030   5.105
49174W        W20790  17.495  21.713   0.714
49175W        W20791  25.792  36.510  10.584
49176W        W20792   7.644   0.742  12.420
49177W        W20793  34.296  44.250  11.946
49178W        W20794   0.505  19.163  13.788
49179W        W20795   1.557  31.667   0.539
49180W        W20796  42.411   9.198  11.431
49181W        W20797  30.369  28.651  11.603
49182W        W20798  34.162  16.812   4.227
49183W        W20799  38.092  40.866  13.802
49184W        W20800  26.716   3.912   1.762
49185W        W20801  44.170   7.176  10.920
49186W        W20802  29.101  25.554   0.801
49187W        W20803  11.675  28.210  11.094
49188W        W20804  16.260  32.611   1.437
49189W        W20805  12.798  24.461  11.997
49190W        W20806  29.925   2.694   0.814
49191W        W20807  35.215   0.870   0.690
49192W        W20808   0.354  20.722  12.880
49193W        W20809  42.858  10.100   3.108
49194W        W20810  26.141  27.858  12.565
49195W        W20811  28.217  29.392  10.633
49196W        W20812   3.032  32.685   0.838
49197W        W20813  27.980  35.539  11.676
49198W        W20814  21.905  38.003   1.303
49199W        W20815  35.492  32.876   2.761
49200W        W20816  44.983   8.560   4.559
49201W        W20817  43.314  33.010   2.006
49202W        W20818  17.759  25.294   1.605
49203W        W20819   7.703  37.348   0.760
49204W        W20820   6.298  19.619   4.648
49205W        W20821  16.784  34.615  13.369
49206W        W20822  13.762  33.127   2.907
49207W        W20823  29.637   4.456  11.120
49208W        W20824  31.910  25.400  12.572
49209W        W20825  28.751  36.492  12.896
49210W        W20826  34.777   8.926  13.961
49211W        W20827  25.125  29.175   4.859
49212W        W20828  23.167   7.705  12.975
49213W        W20829  25.511   0.585  11.064
49214W        W20830  18.573  19.035   4.181
49215W        W20831  34.629  19.579   0.928
49216W        W20832  19.188  44.297  10.621
49217W        W20833  44.512  22.761  11.650
49218W        W20834  35.366  28.560   0.433
49219W        W20835  10.613  31.603   4.005
49220W        W20836  41.127  21.127  11.640
49221W        W20837   8.443  21.253   1.932
49222W        W20838   5.238  35.752  12.206
49223W        W20839  22.273  36.421   4.208
49224W        W20840  12.178  24.476   2.812
49225W        W20841  36.449  34.386   4.377
49226W        W20842  31.382  38.533   3.986
49227W        W20843  30.018  16.254   4.623
49228W        W20844  39.438  15.821  12.019
49229W        W20845  34.654   2.359   4.346
49230W        W20846  35.622  14.778   3.698
49231W        W20847  10.001  28.048  10.533
49232W        W20848   1.944  22.198   0.649
49233W        W20849   7.677  40.322   4.624
49234W        W20850  31.686  20.220   2.901
49235W        W20851  38.656   0.290  11.578
49236W        W20852   8.148  33.079  14.025
49237W        W20853  37.128  12.868   9.849
49238W        W20854   8.639  32.555  11.974
49239W        W20855  24.721  14.230  13.517
49240W        W20856  17.554  27.627  13.437
49241W        W20857  38.427  29.477  10.452
49242W        W20858   1.876  40.499   0.218
49243W        W20859  28.572  22.246  11.586
49244W        W20860  30.580   3.739   3.208
49245W        W20861  36.000  44.506   1.820
49246W        W20862  38.619  29.641   3.838
49247W        W20863  40.448  32.810  10.453
49248W        W20864  32.299  19.902   0.894
49249W        W20865  19.684  20.530   0.594
49250W        W20866  43.991  14.560  12.634
49251W        W20867  13.745  14.741   4.541
49252W        W20868  40.526  30.751  13.423
49253W        W20869  30.875  22.947  10.100
49254W        W20870  25.968   4.686  11.414
49255W        W20871  35.480  44.654   2.223
49256W        W20872  35.706  25.487  13.959
49257W        W20873  23.220  17.537  11.098
49258W        W20874  28.069   6.453  11.704
49259W        W20875  12.565  38.180   4.275
49260W        W20876  14.000  43.860  14.419
49261W        W20877   8.380   4.032   2.415
49262W        W20878  37.408  37.261   2.882
49263W        W20879  17.729  38.871  10.419
49264W        W20880  27.206  40.358   1.224
49265W        W20881   5.163  11.983   2.188
49266W        W20882  21.690  44.817   1.476
49267W        W20883  41.310  23.224   1.742
49268W        W20884  39.681   3.364  12.403
49269W        W20885  22.133  25.034   3.563
49270W        W20886  25.148  35.082   2.027
49271W        W20887  38.747  44.242   0.928
49272W        W20888  11.623  22.692  12.788
49273W        W20889  28.950  31.074   3.404
49274W        W20890  17.773  10.105  13.867
49275W        W20891  31.982  30.186  14.320
49276W        W20892  39.297  35.285   1.378
49277W        W20893  23.191  40.733   3.645
49278W        W20894  43.481   1.043   1.828
49279W        W20895  34.847  37.725  14.769
49280W        W20896  43.816   5.394  12.063
49281W        W20897  26.963  39.284  11.231
49282W        W20898   8.875  32.152   0.341
49283W        W20899  12.158  16.159  14.988
49284W        W20900   6.754  35.816  13.539
49285W        W20901  39.779  24.711   4.080
49286W        W20902   6.193  35.633   2.603
49287W        W20903   5.629  37.491   3.257
49288W        W20904  27.065  37.778   2.667
49289W        W20905  35.481  30.437  14.761
49290W        W20906  33.638  15.206  14.997
49291W        W20907  16.689  24.918   0.734
49292W        W20908  25.793  35.843   1.743
49293W        W20909  44.459   2.416   2.925
49294W        W20910  16.582  25.539   3.628
49295W        W20911  40.109  13.430   3.245
49296W        W20912   9.202  13.264   2.216
49297W        W20913   6.966   6.534   2.848
49298W        W20914  25.023  24.564   3.750
49299W        W20915  42.118  28.612   2.373
49300W        W20916  42.499  18.606   1.276
49301W        W20917  21.685  32.960   4.191
49302W        W20918  23.148  17.324  13.078
49303W        W20919  39.980  16.241  14.479
49304W        W20920  14.402  18.126   5.090
49305W        W20921   2.966   8.618   4.841
49306W        W20922  30.551  34.827   0.380
49307W        W20923  43.908  34.611  10.922
49308W        W20924   6.911   0.808   4.583
49309W        W20925  15.631  44.206  12.839
49310W        W20926  14.870  41.087   0.959
49311W        W20927  13.964  39.535  11.099
49312W        W20928  30.205   4.960  14.747
49313W        W20929  10.667  21.555   1.681
49314W        W20930  40.379  17.989  14.275
49315W        W20931  30.077  28.535   4.954
49316W        W20932  29.617  28.155   4.110
49317W        W20933  24.310  21.152  11.549
49318W        W20934  20.543  10.705  12.524
49319W        W20935  31.873  35.747  10.600
49320W        W20936  28.640  28.499   3.248
49321W        W20937  25.720  26.042  14.339
49322W        W20938  35.463  11.787  13.924
49323W        W20939  20.155   6.600  14.789
49324W        W20940   8.841  21.524   1.683
49325W        W20941  40.756  34.602   2.075
49326W        W20942  27.476  23.260  13.063
49327W        W20943  18.978   2.846   2.385
49328W        W20944  18.531  39.880  14.384
49329W        W20945  30.269   1.351   4.536
49330W        W20946   9.636  44.394   0.221
49331W        W20947  26.934  42.785   4.659
49332W        W20948   0.282   8.110   2.213
49333W        W20949  22.422  44.791  13.137
49334W        W20950  39.810  44.510   0.289
49335W        W20951  28.050  16.201  13.287
49336W        W20952   3.172  43.039   4.549
49337W        W20953   5.022  39.714  14.722
49338W        W20954  18.088  24.103   0.968
49339W        W20955  28.536   6.158  12.566
49340W        W20956  44.022  26.146  14.595
49341W        W20957  22.490   4.497  14.353
49342W        W20958  35.997  17.262  11.443
49343W        W20959   0.571  41.774  12.983
49344W        W20960  25.248  33.144  14.260
49345W        W20961  15.229  43.467  11.885
49346W        W20962  33.470  32.865   0.891
49347W        W20963   5.649  10.572   4.237
49348W        W20964   9.331   4.316  13.950
49349W        W20965   1.790  20.768   1.189
49350W        W20966  21.007  22.482  14.817
49351W        W20967  33.043  25.649  14.407
49352W        W20968  31.534  37.443  10.698
49353W        W20969  21.436  27.669  14.334
49354W        W20970  19.064  28.034   2.743
49355W        W20971  26.199   1.518   3.338
49356W        W20972  38.963  44.183   5.103
49357W        W20973  34.975   4.194   4.413
49358W        W20974  27.540  35.753   0.155
49359W        W20975   8.968  30.704  13.582
49360W        W20976  28.008  35.373  14.304
49361W        W20977   8.350  33.250   1.611
49362W        W20978  33.065   4.259   2.170
49363W        W20979  37.436  43.234  14.480
49364W        W20980  29.697  40.584   0.029
49365W        W20981  25.012  44.027  10.723
49366W        W20982  22.712   2.358   3.364
49367W        W20983  22.683  28.425   1.407
49368W        W20984  27.839  30.620   5.184
49369W        W20985  21.827   9.776  12.183
49370W        W20986  39.940   0.138   4.830
49371W        W20987   3.234  37.079   0.815
49372W        W20988  41.824  24.937  12.420
49373W        W20989  33.658  15.684  14.826
49374W        W20990  28.871  35.735  10.667
49375W        W20991  27.508  19.916  11.112
49376W        W20992  15.251  31.883   4.950
49377W        W20993  18.738   4.167   3.350
49378W        W20994  42.335  40.569   3.623
49379W        W20995   5.505  42.231   1.672
49380W        W20996  30.650  33.577  11.465
49381W        W20997  28.937  32.138  14.281
49382W        W20998  13.248  42.035  12.886
49383W        W20999  31.387  22.124  14.803
49384W        W21000  37.882   6.788  13.829
49385W        W21001  17.587   3.860  11.878
49386W        W21002  21.363  40.980  13.825
49387W        W21003  19.737  24.758   3.149
49388W        W21004  25.065  11.330   3.098
49389W        W21005  40.495  23.598   2.752
49390W        W21006  34.343  19.464   2.651
49391W        W21007  34.982  22.206   1.970
49392W        W21008  44.667  19.717  12.036
49393W        W21009  44.669  40.558   0.214
49394W        W21010  21.572  38.136  12.557
49395W        W21011  44.860  13.252   3.205
49396W        W21012   3.645  15.855  13.821
49397W        W21013   4.679   4.024  11.979
49398W        W21014  25.035  43.385   2.932
49399W        W21015  13.185  27.839   1.171
49400W        W21016  31.878  41.410  13.454
49401W        W21017  17.859  16.023   4.152
49402W        W21018  21.974  18.180  11.642
49403W        W21019  10.188  15.694  10.617
49404W        W21020  21.791  34.333   2.821
49405W        W21021   0.014  41.327   3.271
49406W        W21022  11.416  13.864   0.749
49407W        W21023  24.117  34.963   1.971
49408W        W21024  10.734   7.423  13.380
49409W        W21025   6.030   0.505  13.798
49410W        W21026  26.896  33.078   0.919
49411W        W21027   2.816  37.087   3.714
49412W        W21028  18.692   3.979  13.259
49413W        W21029  40.331  44.715  10.660
49414W        W21030  23.778  30.192  11.189
49415W        W21031  30.681  22.734   1.294
49416W        W21032   7.260   5.949  14.368
49417W        W21033  41.391  38.822   1.365
49418W        W21034  10.909   2.749  13.726
49419W        W21035  44.028  26.268  13.079
49420W        W21036  19.443  22.926   0.891
49421W        W21037  39.535  39.968   2.809
49422W        W21038  32.010   3.453  11.620
49423W        W21039   0.200  44.567  11.664
49424W        W21040  32.161  37.443   4.757
49425W        W21041  37.629  14.754   3.217
49426W        W21042  12.163  18.113  11.994
49427W        W21043  32.624  11.720  14.427
49428W        W21044  22.946  16.766  11.209
49429W        W21045  12.991  25.672  10.688
49430W        W21046  26.612  23.558   3.743
49431W        W21047  19.734  19.768   1.010
49432W        W21048  34.988  43.243  13.806
49433W        W21049   8.202  35.012   1.268
49434W        W21050  16.274  40.730   2.666
49435W        W21051  33.902   5.732   2.808
49436W        W21052   8.728  28.050   0.974
49437W        W21053   3.093   2.397  14.463
49438W        W21054  15.600  43.702  11.163
49439W        W21055  23.648   3.648  14.341
49440W        W21056  38.116  13.217  12.427
49441W        W21057   2.018  10.470  14.324
49442W        W21058   0.887  12.383  10.253
49443W        W21059  14.685  14.774   0.458
49444W        W21060   7.286  35.134   3.973
49445W        W21061  37.939  35.822  11.954
49446W        W21062   7.758  13.285   0.922
49447W        W21063  34.638  32.973  13.490
49448W        W21064  13.133   6.709  14.006
49449W        W21065  30.964   2.668   2.719
49450W        W21066  21.076   6.465  12.194
49451W        W21067  29.359  12.859  12.958
49452W        W21068  43.975  36.081   1.284
49453W        W21069  17.512   7.192   4.157
49454W        W21070  27.205   1.558   5.123
49455W        W21071  40.118  39.444   0.395
49456W        W21072  28.991  14.692  10.642
49457W        W21073  24.022  41.024  13.388
49458W        W21074  17.489  36.525  11.086
49459W        W21075  26.033  26.035   1.131
49460W        W21076  34.290  40.535   4.089
49461W        W21077   4.317   1.862   0.677
49462W        W21078   2.736  44.513  13.570
49463W        W21079  35.124   5.368   0.467
49464W        W21080  39.436   0.601   0.960
49465W        W21081  31.857   4.175   3.243
49466W        W21082  19.222   4.491   3.326
49467W        W21083  23.001   7.718  12.032
49468W        W21084   4.357  31.795  14.445
49469W        W21085  41.296   3.792  10.525
49470W        W21086  34.537  28.884  12.017
49471W        W21087  37.421  23.999   3.847
49472W        W21088   5.909  13.918   4.303
49473W        W21089  22.720  13.722  12.331
49474W        W21090  25.107  19.515   2.820
49475W        W21091  19.868   3.838   3.608
49476W        W21092   2.977  24.833   1.276
49477W        W21093  42.403  39.292   3.364
49478W        W21094  31.856  39.790  14.435
49479W        W21095   5.025  38.247  10.229
49480W        W21096  14.196  28.008   3.712
49481W        W21097  17.256  14.650  13.427
49482W        W21098  36.690  21.394   4.173
49483W        W21099  37.980  20.191   0.219
49484W        W21100  10.841  29.527   3.708
49485W        W21101   2.506  39.296  11.096
49486W        W21102  42.938  23.740  10.752
49487W        W21103   4.807  20.292   5.027
49488W        W21104  22.169  38.500   2.834
49489W        W21105  17.278  44.022  12.115
49490W        W21106  14.016   3.872   0.073
49491W        W21107  23.165  13.077   3.586
49492W        W21108  43.515   7.788  13.076
49493W        W21109  24.229  15.920  12.070
49494W        W21110  33.648  14.823   2.804
49495W        W21111   0.896   6.623  10.263
49496W        W21112  40.906   3.733  11.494
49497W        W21113  26.996  42.521   2.521
49498W        W21114  28.008   8.730   0.445
49499W        W21115  44.559  44.775   1.340
49500W        W21116   6.663  29.511   4.050
49501W        W21117  38.062  22.722   0.711
49502W        W21118  18.089  11.752  10.518
49503W        W21119  38.765  22.107  14.895
49504W        W21120   0.756  15.888  14.870
49505W        W21121  16.335  30.420  14.577
49506W        W21122  36.469   9.772  13.619
49507W        W21123  25.907   9.263   0.609
49508W        W21124  30.325   5.129   0.449
49509W        W21125  17.730  24.199   3.201
49510W        W21126  41.827  13.364  11.667
49511W        W21127  17.047  19.436  14.267
49512W        W21128  23.566  41.025   1.932
49513W        W21129  11.150  26.469   5.025
49514W        W21130  40.802  32.923  14.243
49515W        W21131  17.203  26.373   2.392
49516W        W21132  29.217   8.758  12.254
49517W        W21133  17.816   6.690  12.662
49518W        W21134  19.899   4.796   3.595
49519W        W21135  35.532  29.343  10.807
49520W        W21136  21.721  28.106  11.617
49521W        W21137  16.556   8.863   1.381
49522W        W21138  19.576  36.970  10.719
49523W        W21139  22.675   0.763  12.890
49524W        W21140  17.103  13.644   2.445
49525W        W21141  17.347  32.860  11.135
49526W        W21142  29.030  20.119   0.209
49527W        W21143  25.468  44.367  12.978
49528W        W21144  20.553  16.687  10.319
49529W        W21145  17.808  11.219  11.114
49530W        W21146  21.940  29.046  14.466
49531W        W21147  36.120  13.299   3.860
49532W        W21148  11.488   0.707  12.386
49533W        W21149  15.672  42.689  11.363
49534W        W21150  22.824  12.080  11.997
49535W        W21151  22.043  21.533   3.966
49536W        W21152   2.221   6.937  12.521
49537W        W21153  27.653  28.047   3.791
49538W        W21154  31.144  20.331   2.252
49539W        W21155  10.256  28.578  10.612
49540W        W21156   3.461  11.671   2.898
49541W        W21157  29.475  20.071  10.651
49542W        W21158   5.260  33.464   4.548
49543W        W21159   4.208  36.403  14.635
49544W        W21160  40.142  39.793  10.536
49545W        W21161  26.318  26.450   1.275
49546W        W21162  16.229  39.277   1.805
49547W        W21163  29.009   5.027   0.324
49548W        W21164  26.570  36.142  12.180
49549W        W21165  17.634   2.991  11.077
49550W        W21166  34.494  44.961   2.184
49551W        W21167  25.647  20.994  11.065
49552W        W21168   8.920  35.397  12.051
49553W        W21169   4.402  24.587   3.298
49554W        W21170  29.477  33.380   3.169
49555W        W21171   4.004  25.109  12.230
49556W        W21172  11.380  21.607   3.300
49557W        W21173  44.184  36.589   1.363
49558W        W21174  40.810  18.319  11.848
49559W        W21175  23.463  34.384  13.923
49560W        W21176  14.886  31.645   3.148
49561W        W21177  40.037   9.649   1.370
49562W        W21178  27.739  33.342  12.370
49563W        W21179  13.185   1.025   2.039
49564W        W21180  35.501  19.862  13.747
49565W        W21181  42.962  35.486  11.391
49566W        W21182   5.697  16.057  11.449
49567W        W21183  13.952  43.452   4.591
49568W        W21184  38.346   0.196  12.815
49569W        W21185  37.144  10.244   1.022
49570W        W21186  14.096  10.656   3.662
49571W        W21187   9.805  38.522   2.902
49572W        W21188   7.546  32.058  13.747
49573W        W21189  23.978  35.130  11.473
49574W        W21190  12.845  22.209  12.573
49575W        W21191  38.003  31.462  14.886
49576W        W21192  27.466  44.961   2.322
49577W        W21193   6.938  36.238  11.569
49578W        W21194  14.267  31.991  14.907
49579W        W21195  25.058   1.093  14.420
49580W        W21196  37.930  28.158   0.004
49581W        W21197  42.174  14.310  10.814
49582W        W21198  27.965   5.766  11.436
49583W        W21199   9.861   3.975  10.659
49584W        W21200  41.398  40.199   0.862
49585W        W21201  21.209  39.560  13.850
49586W        W21202   0.009  13.345  13.198
49587W        W21203  35.655  21.701   3.230
49588W        W21204  43.182  14.621   4.530
49589W        W21205  43.723   3.622   4.111
49590W        W21206  25.493  43.958  13.583
49591W        W21207  26.544  32.370  11.687
49592W        W21208  40.076  29.631   1.957
49593W        W21209  14.162  20.620   2.861
49594W        W21210  17.123  16.226  10.762
49595W        W21211  43.838  35.041  10.683
49596W        W21212  27.497  10.337   0.536
49597W        W21213  33.805  24.100  11.943
49598W        W21214   8.309  30.369   5.045
49599W        W21215  17.295   9.737   0.683
49600W        W21216   8.276  42.672  11.562
49601W        W21217  33.667  20.577  12.058
49602W        W21218  43.940  37.462   2.592
49603W        W21219   6.070  10.793   0.474
49604W        W21220   8.175  35.572  10.665
49605W        W21221   0.766  24.231   2.220
49606W        W21222  24.928  25.986  11.630
49607W        W21223  19.618  15.645  13.938
49608W        W21224  28.162  20.568   1.408
49609W        W21225  33.883  31.460  10.692
49610W        W21226  40.980  27.556   3.189
49611W        W21227   4.005  15.212  10.349
49612W        W21228  35.924   5.358  10.601
49613W        W21229  22.455  31.599  13.240
49614W        W21230  29.510  14.579   5.052
49615W        W21231  43.309  37.106  13.086
49616W        W21232   7.677  41.325  11.251
49617W        W21233  20.533  43.505   1.799
49618W        W21234  43.979  28.196  10.896
49619W        W21235   3.005  35.086  11.078
49620W        W21236  38.519  35.003   3.645
49621W        W21237   5.505  20.120   1.922
49622W        W21238  22.960  42.294  12.822
49623W        W21239  19.339   5.242   4.781
49624W        W21240  14.908   0.474  13.669
49625W        W21241   6.690  12.818   1.063
49626W        W21242  38.938  22.256   3.620
49627W        W21243  34.436   2.324   2.339
49628W        W21244  42.531   6.768   1.224
49629W        W21245  33.562   4.002  13.140
49630W        W21246  28.434  16.233  10.092
49631W        W21247  30.970  44.323  13.604
49632W        W21248  19.047  17.125   0.429
49633W        W21249  38.624  43.475   4.918
49634W        W21250   5.643  17.997  11.967
49635W        W21251  13.906  40.714   1.962
49636W        W21252  14.019   2.096   0.210
49637W        W21253   2.818  21.985  11.977
49638W        W21254  33.849  13.282  11.156
49639W        W21255   2.174  15.623  14.891
49640W        W21256  22.704  35.336  11.883
49641W        W21257  12.816  22.222  10.769
49642W        W21258  26.117  20.733   2.661
49643W        W21259  13.617  21.091   4.435
49644W        W21260  23.129  12.603   3.780
49645W        W21261  16.608   3.318   4.843
49646W        W21262  17.468  41.852  13.630
49647W        W21263  37.644  28.647  14.019
49648W        W21264  41.707  38.166   9.870
49649W        W21265  43.791  15.312  14.197
49650W        W21266  35.649  21.080  11.808
49651W        W21267  19.008   8.309   2.247
49652W        W21268  25.634   7.127   0.212
49653W        W21269   5.461  31.868  11.056
49654W        W21270  34.507  24.749  11.944
49655W        W21271  36.550  13.267   3.090
49656W        W21272  30.541  23.514  13.807
49657W        W21273   0.367  37.924   0.772
49658W        W21274  35.898  22.324  10.678
49659W        W21275  38.897  40.005   2.287
49660W        W21276  43.440   9.930   3.280
49661W        W21277  37.879  28.589  14.549
49662W        W21278  40.486  21.644   1.639
49663W        W21279   5.685   6.204  14.009
49664W        W21280   3.306  37.416  11.975
49665W        W21281  27.376  20.790  12.009
49666W        W21282   5.329  27.737   4.609
49667W        W21283  22.824   9.543  11.998
49668W        W21284  18.575  17.075   1.304
49669W        W21285  19.745  42.432  13.344
49670W        W21286  42.976  40.787   2.383
49671W        W21287  39.091   3.272  12.466
49672W        W21288  13.133  35.661   2.167
49673W        W21289  15.767  22.919  11.852
49674W        W21290   8.705  34.884   1.202
49675W        W21291   0.270  43.861   4.109
49676W        W21292  17.411  33.695  10.682
49677W        W21293  25.194  25.620  13.539
49678W        W21294  39.041  22.149   3.101
49679W        W21295   4.479  32.467  11.613
49680W        W21296  37.326  36.008   0.537
49681W        W21297  20.725  25.488   0.821
49682W        W21298   6.807  44.534   0.108
49683W        W21299  34.520   0.276   3.182
49684W        W21300   0.336   2.417  13.459
49685W        W21301  28.665  41.359  12.893
49686W        W21302   6.820  14.543   1.892
49687W        W21303  30.079  11.667   0.954
49688W        W21304  27.425  41.503  12.377
49689W        W21305  10.630  41.758  11.968
49690W        W21306   8.122  24.368   2.897
49691W        W21307  40.408   2.670  12.524
49692W        W21308  22.271   2.263  13.421
49693W        W21309  20.069  38.918  10.199
49694W        W21310   7.868  30.403   1.211
49695W        W21311  10.860  35.030  13.030
49696W        W21312  24.147  44.499   2.670
49697W        W21313  21.437   7.296  11.118
49698W        W21314  19.204  30.520   3.123
49699W        W21315  39.854  43.272  14.754
49700W        W21316  24.101   6.954  10.962
49701W        W21317  25.981  31.918  13.398
49702W        W21318  12.792  29.533  11.263
49703W        W21319  16.287  10.859   0.762
49704W        W21320  16.702   9.297  13.373
49705W        W21321  38.352  17.651  12.641
49706W        W21322  44.849  36.535   0.607
49707W        W21323  31.997  27.319   0.640
49708W        W21324  32.162  28.408   4.789
49709W        W21325  43.973  28.570   2.557
49710W        W21326  12.648  33.913   2.963
49711W        W21327  29.729  18.365   2.789
49712W        W21328  25.966   7.453   2.534
49713W        W21329  41.869  21.319  12.051
49714W        W21330  43.308  37.829   2.325
49715W        W21331  25.970  28.985  10.456
49716W        W21332  22.273  43.558  13.753
49717W        W21333  16.865  26.095  12.327
49718W        W21334  35.566  43.056  14.904
49719W        W21335  38.954  14.742  12.157
49720W        W21336  31.657  36.387   1.750
49721W        W21337  13.646  28.543   2.449
49722W        W21338   8.459  21.499   0.742
49723W        W21339  14.760  13.277   1.020
49724W        W21340   4.274  33.801   3.664
49725W        W21341  43.340  33.100   0.410
49726W        W21342  19.762  10.278   0.367
49727W        W21343  39.848  31.626   4.537
49728W        W21344  41.350  41.118  11.196
49729W        W21345  20.959  20.603   1.258
49730W        W21346  23.692  31.946  12.815
49731W        W21347  42.024  33.999  10.749
49732W        W21348   3.563  27.717   2.264
49733W        W21349  37.058  30.590   0.069
49734W        W21350  11.158  15.828   3.640
49735W        W21351  18.692  30.424   4.453
49736W        W21352  40.225   4.029   1.087
49737W        W21353  43.249  43.440  14.315
49738W        W21354  31.939  36.125  10.196
49739W        W21355  19.571  10.178  11.525
49740W        W21356  30.532  18.205   3.372
49741W        W21357   4.170   3.909   0.563
49742W        W21358  34.651   9.082   4.750
49743W        W21359  32.522   6.884  11.118
49744W        W21360  20.452  37.520  14.714
49745W        W21361  31.421  10.235   3.663
49746W        W21362   6.885  36.551   1.393
49747W        W21363   0.497  35.496   3.881
49748W        W21364   8.234  30.231  13.143
49749W        W21365   9.772   3.408  14.937
49750W        W21366  17.800  23.186  14.738
49751W        W21367  10.769   9.330  12.478
49752W        W21368   7.697  32.986  13.831
49753W        W21369  28.302  20.041   4.029
49754W        W21370  21.067   7.255  13.969
49755W        W21371  22.216  29.332   1.451
49756W        W21372  42.990  19.629   0.787
49757W        W21373  38.943  34.851  11.935
49758W        W21374  16.138  36.998  13.172
49759W        W21375  25.104  19.806   0.455
49760W        W21376   4.411   8.581  13.396
49761W        W21377  15.940  20.900   4.325
49762W        W21378  17.548  22.547   4.703
49763W        W21379  28.427  31.171  12.008
49764W        W21380  15.623  34.871   1.803
49765W        W21381  17.027  21.873  14.752
49766W        W21382   3.972   8.922  11.111
49767W        W21383  38.820  34.470   0.830
49768W        W21384  39.001   7.312   1.319
49769W        W21385  18.179  28.904   2.307
49770W        W21386  15.064  22.036  13.857
49771W        W21387  41.922  37.676   9.884
49772W        W21388  16.800  10.607   2.788
49773W        W21389  36.849  44.676   3.695
49774W        W21390   9.591   2.851  11.531
49775W        W21391   2.870   3.886  14.112
49776W        W21392   6.329  30.328   1.569
49777W        W21393   9.105   3.537   4.223
49778W        W21394  25.754  20.686  14.503
49779W        W21395  10.279   7.280  12.637
49780W        W21396  43.625  14.558   4.230
49781W        W21397  21.579  27.624   1.897
49782W        W21398  17.284   7.829   2.192
49783W        W21399  44.824   0.215  13.814
49784W        W21400  28.687  26.395   1.824
49785W        W21401  23.934  38.188  14.634
49786W        W21402  27.624  34.750   0.309
49787W        W21403  32.617  20.891   2.497
49788W        W21404   1.208   2.309  10.693
49789W        W21405  38.669  22.009  12.078
49790W        W21406  22.442  23.022  10.085
49791W        W21407   5.266  35.855  12.706
49792W        W21408   4.294  31.885  10.966
49793W        W21409  40.766  32.672  11.265
49794W        W21410  35.953  10.995  14.650
49795W        W21411  41.498  16.105  12.498
49796W        W21412  18.784  40.390  12.588
49797W        W21413  31.458  26.241   1.680
49798W        W21414  29.892  42.778   0.398
49799W        W21415  21.680  24.161   4.584
49800W        W21416  20.740  38.461  11.665
49801W        W21417  31.418  38.699   0.620
49802W        W21418  30.861  21.012   1.648
49803W        W21419  14.190  41.082  13.935
49804W        W21420  14.343   3.776   3.824
49805W        W21421  38.525  19.488   2.633
49806W        W21422   6.419  23.890   2.748
49807W        W21423  37.531  13.733   2.610
49808W        W21424  14.828  14.662   1.518
49809W        W21425   8.672  31.629   3.445
49810W        W21426  31.781   1.222   0.989
49811W        W21427   2.252   0.026  11.083
49812W        W21428  27.490  26.829   2.278
49813W        W21429  14.476  42.051   4.166
49814W        W21430  36.434   2.349   0.307
49815W        W21431   5.274  12.152   3.196
49816W        W21432  25.357  44.012   2.145
49817W        W21433  31.588  13.294   4.513
49818W        W21434  35.171  37.453  10.387
49819W        W21435  31.485  38.583   2.313
49820W        W21436  16.710   7.039   1.884
49821W        W21437   0.395  15.964  12.347
49822W        W21438  11.296  44.897   0.558
49823W        W21439   9.257  21.799  12.798
49824W        W21440  21.571  25.250  13.438
49825W        W21441  11.142  41.612  14.841
49826W        W21442  12.154  33.096  11.931
49827W        W21443  12.860   2.967  14.957
49828W        W21444  17.869  11.624  14.271
49829W        W21445  42.097  21.667   4.422
49830W        W21446  25.875  21.833   1.964
49831W        W21447   7.355  42.472   1.683
49832W        W21448  19.174  23.720  11.636
49833W        W21449  41.353  42.503  11.461
49834W        W21450  29.867  21.091   1.512
49835W        W21451  24.292  23.656   4.900
49836W        W21452  41.894  44.108  10.210
49837W        W21453  27.962  31.020   0.296
49838W        W21454  31.556  39.603  12.511
49839W        W21455  38.335  35.555  12.341
49840W        W21456   7.278  21.248   0.561
49841W        W21457  31.410   8.185   0.554
49842W        W21458  26.011  13.340  12.874
49843W        W21459   6.247  36.243  12.732
49844W        W21460  44.016  30.504   0.918
49845W        W21461   4.914  35.103   0.450
49846W        W21462  22.635  31.008   4.502
49847W        W21463  23.738   7.679   4.149
49848W        W21464  26.087   4.443  13.964
49849W        W21465  21.850  38.403   4.125
49850W        W21466  44.489   1.290  14.008
49851W        W21467  33.603  16.402  10.141
49852W        W21468  32.362  10.191  11.160
49853W        W21469   9.889  18.235   1.968
49854W        W21470   4.068  30.650   2.371
49855W        W21471  35.325  33.103   2.255
49856W        W21472  15.204   4.383   1.948
49857W        W21473   2.514   6.296   0.964
49858W        W21474  20.995  21.343   4.023
49859W        W21475  26.773  13.640   4.968
49860W        W21476  23.504  11.839  13.284
49861W        W21477   1.360  34.368  10.635
49862W        W21478  20.639  41.750   4.666
49863W        W21479  25.690  27.187   3.935
49864W        W21480  18.579  24.660   2.782
49865W        W21481  40.022  11.540   0.696
49866W        W21482  32.985  44.398   5.417
49867W        W21483  27.653  43.346  12.042
49868W        W21484   2.398  30.520  10.617
49869W        W21485   8.448  19.232  13.816
49870W        W21486  12.446   0.964   0.358
49871W        W21487  28.307   5.851  13.974
49872W        W21488  32.573  33.854  12.358
49873W        W21489  12.063  40.427   4.289
49874W        W21490  32.144  39.791  10.314
49875W        W21491  34.335  40.794  11.585
49876W        W21492  25.241  12.589   3.518
49877W        W21493   0.008  26.168  14.392
49878W        W21494  40.498  12.977  13.334
49879W        W21495  23.055  15.443  14.147
49880W        W21496  24.664  12.861   2.355
49881W        W21497   3.190  12.575  11.126
49882W        W21498  44.363  38.860   2.828
49883W        W21499   3.335  34.157  14.972
49884W        W21500  36.972  43.585  11.153
49885W        W21501  38.622  34.837  12.575
49886W        W21502  36.093  18.055  11.753
49887W        W21503   5.904  32.891  12.933
49888W        W21504   8.383  42.385   0.892
49889W        W21505  12.753  33.884   0.968
49890W        W21506   4.854  42.822  13.516
49891W        W21507  44.235  17.804   3.346
49892W        W21508  14.020  30.742  10.227
49893W        W21509  39.070  35.451  11.065
49894W        W21510  18.057  37.785  11.125
49895W        W21511  17.677  32.212   1.241
49896W        W21512  33.465   7.205  11.509
49897W        W21513  30.907  30.379   2.306
49898W        W21514  27.603  37.023   2.372
49899W        W21515  38.853  25.882   1.653
49900W        W21516  10.568   7.487   0.287
49901W        W21517  42.940  16.432   0.878
49902W        W21518  41.528   8.256   3.647
49903W        W21519  28.524   1.016  13.481
49904W        W21520  25.205  41.797  12.341
49905W        W21521  39.170  30.081   0.277
49906W        W21522  40.509   2.163  11.005
49907W        W21523  19.233   8.312  11.480
49908W        W21524  27.028  41.536  11.135
49909W        W21525  28.013  18.076  13.079
49910W        W21526  20.133  25.518  13.045
49911W        W21527  18.188   9.288   4.039
49912W        W21528   0.406  34.830   1.536
49913W        W21529  30.425  15.598  11.952
49914W        W21530  28.923  38.194  13.365
49915W        W21531  34.133  37.336  10.800
49916W        W21532  25.727  34.374   4.123
49917W        W21533  31.523  42.956   3.075
49918W        W21534  42.766  35.971   2.743
49919W        W21535  35.687  35.426  13.345
49920W        W21536  28.870  27.818  12.054
49921W        W21537  11.139  16.832   3.577
49922W        W21538  26.864  38.460  11.737
49923W        W21539  41.809  35.404   4.298
49924W        W21540  42.729  33.027  14.165
49925W        W21541  23.288   9.720  11.761
49926W        W21542  31.658  18.165  14.396
49927W        W21543  10.612  32.030  10.430
49928W        W21544   3.048   5.293  11.449
49929W        W21545  41.502  40.353  11.575
49930W        W21546   8.966  20.119   4.496
49931W        W21547  24.097  17.405  13.956
49932W        W21548   0.349  27.158  10.693
49933W        W21549  22.976  30.277   4.236
49934W        W21550  44.489   9.820  10.122
49935W        W21551   0.278  43.538   1.714
49936W        W21552  17.507  41.557   1.896
49937W        W21553  17.625  36.318  11.543
49938W        W21554  28.094  40.377  11.111
49939W        W21555  31.716  41.228  11.249
49940W        W21556  30.751   1.686   0.644
49941W        W21557  43.856  37.805  13.390
49942W        W21558   6.948  31.301  12.144
49943W        W21559  34.655   9.251  10.215
49944W        W21560  13.337  26.812  11.149
49945W        W21561  16.351   7.782   3.213
49946W        W21562   6.183  16.048  13.461
49947W        W21563  39.924   0.992   3.314
49948W        W21564   1.297  43.520  13.925
49949W        W21565  15.369  15.850  12.040
49950W        W21566  37.043  42.796   1.834
49951W        W21567  12.009  23.965   0.759
49952W        W21568  13.782  30.974  12.394
49953W        W21569  16.021  11.034   0.341
49954W        W21570  32.923  40.923   2.242
49955W        W21571  12.199  20.055  11.980
49956W        W21572  29.487  15.629   2.562
49957W        W21573  33.786  10.151  12.995
49958W        W21574  11.782  15.262  14.981
49959W        W21575  44.439  21.473   2.854
49960W        W21576  13.996   0.744   1.868
49961W        W21577  27.656  44.347   1.200
49962W        W21578  34.984   8.857   4.401
49963W        W21579  32.573  42.871  14.592
49964W        W21580  37.406  30.943  14.501
49965W        W21581  10.104  26.196  13.981
49966W        W21582  38.810  16.799  12.615
49967W        W21583  29.612  28.343   2.658
49968W        W21584   3.380   6.741   4.343
49969W        W21585   1.208  19.314   2.238
49970W        W21586  22.162   8.293   0.717
49971W        W21587   1.277   3.762   1.538
49972W        W21588   2.323  31.952  10.104
49973W        W21589   4.808  14.044   4.201
49974W        W21590  16.777  12.820  10.583
49975W        W21591  16.346  27.850  13.630
49976W        W21592  16.799  43.409   0.235
49977W        W21593  11.594  10.431  12.612
49978W        W21594  41.768   1.688  14.675
49979W        W21595  13.324   4.544  10.729
49980W        W21596  21.966  43.850   1.767
49981W        W21597  28.534  43.946   3.696
49982W        W21598  37.380  25.102  13.389
49983W        W21599  32.114  16.799   1.885
49984W        W21600  29.939  37.002  13.875
49985W        W21601  21.181  25.096   4.548
49986W        W21602  23.176   9.675   3.765
49987W        W21603  24.072  22.194   1.889
49988W        W21604  32.600  39.318   2.744
49989W        W21605  26.048  23.464   2.084
49990W        W21606  28.163   3.889   4.552
49991W        W21607  40.890   8.334  13.056
49992W        W21608   2.737  41.970  13.934
49993W        W21609  16.189  24.251  13.419
49994W        W21610  35.056   0.677   0.241
49995W        W21611  38.509  16.473  13.566
49996W        W21612  39.052  43.830  11.580
49997W        W21613   7.193  40.592  13.414
49998W        W21614  30.153  32.201   2.895
49999W        W21615  10.075  11.436   1.235
50000W        W21616  35.162  19.580   3.436
50001W        W21617  30.807   2.431   4.264
50002W        W21618   1.509  16.708  12.004
50003W        W21619  40.879  10.739  10.577
50004W        W21620  30.141   1.484  14.860
50005W        W21621  13.292  23.502   2.750
50006W        W21622  34.010  34.595  12.626
50007W        W21623  38.138  43.281   4.943
50008W        W21624  20.074  25.460  14.482
50009W        W21625   3.968  34.911   2.812
50010W        W21626  18.946  43.464   5.139
50011W        W21627  43.752  19.688   3.309
50012W        W21628   8.655   8.675  11.077
50013W        W21629   1.345  30.348  11.847
50014W        W21630  23.845   0.112  11.583
50015W        W21631   4.619  44.458  14.267
50016W        W21632  22.109  37.830  14.773
50017W        W21633   0.507  40.918  13.022
50018W        W21634   8.982   9.346   5.180
50019W        W21635  27.878  10.312  11.670
50020W        W21636  15.864  44.190   0.359
50021W        W21637  35.505  32.601   2.041
50022W        W21638   8.343  28.221   4.329
50023W        W21639  26.341  27.895  10.371
50024W        W21640   5.581  26.089  14.329
50025W        W21641  39.769   3.858  12.117
50026W        W21642  17.249  15.764  11.582
50027W        W21643  10.226  38.574   0.857
50028W        W21644   0.526  36.511   4.735
50029W        W21645  31.013  40.155   1.287
50030W        W21646  31.972  13.824  12.052
50031W        W21647  43.927  31.435   4.648
50032W        W21648   5.677  14.588   3.750
50033W        W21649  41.106   0.976  10.959
50034W        W21650  10.220  25.941  12.024
50035W        W21651  36.241  40.285   3.315
50036W        W21652  28.493  38.845   3.900
50037W        W21653   3.423  14.737  11.492
50038W        W21654  44.504  16.544   2.818
50039W        W21655  36.439  12.341   2.631
50040W        W21656  20.759  21.207   3.587
50041W        W21657  25.262  21.959  12.953
50042W        W21658  17.083  14.873  13.892
50043W        W21659   5.514   1.745   2.733
50044W        W21660  34.239  36.018   0.399
50045W        W21661   0.851  31.027   3.461
50046W        W21662  20.287  27.121  14.393
50047W        W21663  30.936  27.470   3.770
50048W        W21664  28.170  25.564   1.762
50049W        W21665  38.793  35.595  14.549
50050W        W21666   2.297  32.702  13.873
50051W        W21667  28.752  18.235  14.986
50052W        W21668  12.879  35.897   5.061
50053W        W21669  21.066  39.805  14.422
50054W        W21670  29.675  24.074  14.855
50055W        W21671  25.764  44.884   4.515
50056W        W21672  33.063  14.693   0.980
50057W        W21673   7.411   9.898  11.484
50058W        W21674   7.988  30.940   2.099
50059W        W21675  19.188  40.162   0.666
50060W        W21676  35.495   0.407  14.933
50061W        W21677   9.282  24.122   1.864
50062W        W21678  40.842  24.052  13.532
50063W        W21679  36.643  38.240   0.886
50064W        W21680   3.476   5.832  11.999
50065W        W21681   9.182  28.912  10.837
50066W        W21682  33.189  22.510  14.436
50067W        W21683  20.796  40.454  12.618
50068W        W21684  29.205  32.104  14.722
50069W        W21685  11.581   4.849  10.276
50070W        W21686   6.513   9.169   4.865
50071W        W21687  26.897   8.326  14.973
50072W        W21688   6.244   7.988   0.486
50073W        W21689  18.991  21.590  13.871
50074W        W21690  36.028  44.402   0.319
50075W        W21691  15.625  13.706  11.174
50076W        W21692   6.895   4.437   3.123
50077W        W21693  24.660  29.469  14.269
50078W        W21694  20.698  37.461  12.073
50079W        W21695  18.778  41.999   2.631
50080W        W21696  21.022  16.762   4.795
50081W        W21697  25.707  28.997  14.861
50082W        W21698  36.431  24.908   1.924
50083W        W21699  18.083  19.800  12.000
50084W        W21700   6.362  42.109   3.863
50085W        W21701  10.826  20.228  11.252
50086W        W21702   9.419  17.688  10.668
50087W        W21703  29.930  32.426   1.406
50088W        W21704   9.232   8.814   5.310
50089W        W21705  44.735  32.682  12.152
50090W        W21706  32.054  32.605   1.119
50091W        W21707  32.893  21.505  13.532
50092W        W21708  11.924  31.637  11.502
50093W        W21709  24.598   4.766  10.670
50094W        W21710  43.133  25.860   0.986
50095W        W21711  22.514   0.473  10.165
50096W        W21712   6.794  27.205   2.621
50097W        W21713  20.102  33.981  14.932
50098W        W21714  25.241  24.530   0.189
50099W        W21715  34.268  43.548  11.884
50100W        W21716  30.900  40.113  14.380
50101W        W21717  21.916  11.268   0.903
50102W        W21718  41.886  37.881  14.503
50103W        W21719  38.621  38.413   4.109
50104W        W21720  37.078  40.276   4.760
50105W        W21721  41.627  26.134   4.340
50106W        W21722  21.697  29.063   4.777
50107W        W21723  27.247  13.781  11.287
50108W        W21724  17.876  38.889  10.921
50109W        W21725  21.247   7.321  11.635
50110W        W21726  26.499  14.677  14.251
50111W        W21727  25.690   0.224  13.971
50112W        W21728   2.412  13.778  10.510
50113W        W21729  22.696  10.131  10.753
50114W        W21730   8.100   7.554  14.254
50115W        W21731  36.162  14.038   0.557
50116W        W21732  11.282  17.276   3.327
50117W        W21733  31.454  27.420  14.937
50118W        W21734  21.020   4.977   2.758
50119W        W21735  14.080  37.251  13.954
50120W        W21736  16.006  12.498   0.277
50121W        W21737  40.120  17.753   4.201
50122W        W21738  18.538  15.806  14.956
50123W        W21739   9.822  32.493  14.756
50124W        W21740  42.666  16.632  11.009
50125W        W21741  19.587   3.699  13.980
50126W        W21742  42.553  25.368  12.646
50127W        W21743  13.839  39.139  14.333
50128W        W21744  16.703  17.734  13.873
50129W        W21745   3.421  11.110   0.255
50130W        W21746  23.442  35.635  10.766
50131W        W21747  40.192  44.390  11.093
50132W        W21748  35.429   7.508  12.971
50133W        W21749  33.588  26.000   1.044
50134W        W21750   8.659   2.460   2.735
50135W        W21751  20.581  33.532   4.930
50136W        W21752  37.440  29.588   0.225
50137W        W21753  27.124  18.665   0.872
50138W        W21754  43.576  32.973  12.525
50139W        W21755  20.146   8.745  13.988
50140W        W21756  34.861   9.692   3.844
50141W        W21757  27.193  34.874   1.489
50142W        W21758  26.188   5.917  11.716
50143W        W21759   4.933  27.014   2.814
50144W        W21760   2.504  14.000   5.002
50145W        W21761  13.801   7.771  13.248
50146W        W21762  25.769  10.055   0.349
50147W        W21763  20.250  40.757   1.702
50148W        W21764  20.539  41.764   2.358
50149W        W21765  30.500  10.710   4.906
50150W        W21766  41.375  38.867  11.425
50151W        W21767  38.292   2.957   2.636
50152W        W21768  37.564   2.891  10.674
50153W        W21769  15.750  20.840   3.289
50154W        W21770  19.142  36.478  14.383
50155W        W21771  38.382  43.861  13.831
50156W        W21772  18.606  33.346  11.598
50157W        W21773  16.685  23.043   2.170
50158W        W21774  14.907  13.781   3.632
50159W        W21775  43.682  33.077   4.171
50160W        W21776   8.754  38.901   3.660
50161W        W21777  26.023   3.395  13.783
50162W        W21778  28.010   1.414   1.272
50163W        W21779  15.284  21.970   0.849
50164W        W21780  27.949  34.018   4.355
50165W        W21781  29.486  20.066   3.132
50166W        W21782  10.636  10.852   3.858
50167W        W21783   2.136  36.176  12.894
50168W        W21784   1.693  10.420   1.769
50169W        W21785  30.977  32.692   2.840
50170W        W21786  29.966  19.091  12.667
50171W        W21787   8.878  14.845  10.746
50172W        W21788  39.038   4.272   0.725
50173W        W21789  17.413  15.575  12.034
50174W        W21790   7.904  35.334   3.346
50175W        W21791   3.719  36.342   0.700
50176W        W21792   3.334  19.613   3.664
50177W        W21793  40.272  40.090  12.033
50178W        W21794   8.370  35.176   0.326
50179W        W21795  26.938  38.813  14.394
50180W        W21796  38.023  25.483  10.674
50181W        W21797  28.203   7.415  11.525
50182W        W21798  12.389  42.250   4.622
50183W        W21799  27.069  41.011  11.078
50184W        W21800   5.493   9.206  11.898
50185W        W21801  12.887  14.095  11.427
50186W        W21802   4.120  28.449   0.343
50187W        W21803  43.970   5.751   2.321
50188W        W21804  34.152   6.554   0.128
50189W        W21805   8.993  25.157  10.636
50190W        W21806  43.742  21.622   1.796
50191W        W21807  32.207  24.510  12.512
50192W        W21808  13.107  30.977  11.436
50193W        W21809  33.605  26.210  11.710
50194W        W21810  22.967  24.806   4.040
50195W        W21811  23.609  33.047  10.614
50196W        W21812  19.941  21.388  10.348
50197W        W21813  10.613  33.388   1.354
50198W        W21814   8.954   6.956   2.702
50199W        W21815  32.715  33.326   4.351
50200W        W21816  10.676  36.566  10.716
50201W        W21817  15.885  41.583  12.735
50202W        W21818  19.652  26.629   3.070
50203W        W21819   8.068  34.221   2.301
50204W        W21820  11.852  40.718  12.068
50205W        W21821  19.165  22.092   1.857
50206W        W21822  31.404  11.575   2.188
50207W        W21823  10.765  10.932   0.302
50208W        W21824   8.592  20.114  13.415
50209W        W21825  40.361  28.782  14.927
50210W        W21826  11.119   3.930  12.564
50211W        W21827   4.694  41.108  11.119
50212W        W21828  35.757  40.034   3.355
50213W        W21829   4.307  35.975   1.934
50214W        W21830  23.992  22.526  11.116
50215W        W21831  34.087  14.746   3.650
50216W        W21832  36.306  21.954  10.807
50217W        W21833  43.381  21.644   3.178
50218W        W21834   8.804   2.735  14.547
50219W        W21835  28.380  11.846   3.584
50220W        W21836  22.079   3.721  14.824
50221W        W21837   0.035  14.295  13.447
50222W        W21838  24.160  28.050   3.712
50223W        W21839  19.705  16.975   1.846
50224W        W21840  38.528  31.445   4.054
50225W        W21841  22.637  28.190  11.582
50226W        W21842  42.087  19.278   2.610
50227W        W21843  24.656  26.640   4.129
50228W        W21844  34.593  14.540  10.221
50229W        W21845  10.895   7.713   2.993
50230W        W21846   9.318  33.050  14.301
50231W        W21847   7.888  13.639   2.441
50232W        W21848  41.885  41.711   3.569
50233W        W21849  11.186   7.186  13.457
50234W        W21850   7.570  37.570  12.018
50235W        W21851  30.512  19.629   3.654
50236W        W21852   3.279   8.307   3.796
50237W        W21853  28.991  39.035   2.171
50238W        W21854   5.906  18.270  11.544
50239W        W21855   9.303  23.555   0.045
50240W        W21856  42.654   4.914  14.841
50241W        W21857  17.503  36.450   4.751
50242W        W21858  35.196   0.099   2.359
50243W        W21859  20.013  14.705  13.961
50244W        W21860   7.081  44.241   1.612
50245W        W21861   1.608  26.033   4.055
50246W        W21862  33.953   6.242  14.043
50247W        W21863  13.298  13.796  11.670
50248W        W21864  40.013  37.418   2.727
50249W        W21865   6.840  44.217  13.819
50250W        W21866  30.112  36.499  12.089
50251W        W21867  24.006  32.818   4.618
50252W        W21868  12.357  19.234   0.837
50253W        W21869   0.251  29.249  13.543
50254W        W21870   1.032  25.060  11.469
50255W        W21871   4.028  35.639   1.311
50256W        W21872  25.115   4.375   2.364
50257W        W21873  19.817  44.257  11.653
50258W        W21874  38.360   3.433   4.099
50259W        W21875  15.285  32.558  11.026
50260W        W21876  35.612   2.256   3.642
50261W        W21877  31.983  44.982   4.638
50262W        W21878  39.240  39.738  13.841
50263W        W21879  13.233  10.362  14.757
50264W        W21880  37.792  28.688   0.125
50265W        W21881  15.674  28.447   0.150
50266W        W21882   1.444  17.637  11.973
50267W        W21883  34.135  40.323  14.488
50268W        W21884  39.918  14.347   3.361
50269W        W21885   9.248  36.913  11.924
50270W        W21886  41.971  15.352   0.729
50271W        W21887   7.479   3.004   3.566
50272W        W21888  23.453  11.510  11.560
50273W        W21889  13.058  12.142  13.255
50274W        W21890  24.530  15.292   1.418
50275W        W21891  31.936  29.122  13.317
50276W        W21892  32.902  34.859   1.789
50277W        W21893  37.954   8.374  13.027
50278W        W21894  44.802  24.910   2.725
50279W        W21895  38.352  34.935  13.868
50280W        W21896  26.499  30.679  11.062
50281W        W21897  40.104  26.925  14.914
50282W        W21898  11.315  25.449   4.131
50283W        W21899  29.431  15.645   4.214
50284W        W21900   3.776  20.528   0.401
50285W        W21901   4.380  33.543  13.951
50286W        W21902  12.153  25.087   3.226
50287W        W21903  17.140   0.337  10.520
50288W        W21904  25.513  18.160  12.543
50289W        W21905  41.157  21.240  12.513
50290W        W21906   4.268  41.540  11.622
50291W        W21907  22.603  26.224   2.950
50292W        W21908  18.155  16.005   0.320
50293W        W21909  16.100  23.294   4.260
50294W        W21910  44.956  13.714   0.511
50295W        W21911  29.665  33.549  13.769
50296W        W21912  43.740  23.031   3.199
50297W        W21913  40.600  39.800  13.892
50298W        W21914  33.155  22.249  13.112
50299W        W21915  42.542  21.778  12.815
50300W        W21916   8.851   0.029  13.028
50301W        W21917   5.969   5.215   3.716
50302W        W21918  26.765   4.226  10.150
50303W        W21919  19.971  30.610   2.179
50304W        W21920  44.647   1.689   1.316
50305W        W21921  14.077   8.851  13.472
50306W        W21922  35.037  20.052   1.229
50307W        W21923  16.681  20.674   3.793
50308W        W21924   4.399   4.250   0.224
50309W        W21925  17.959   7.262  11.031
50310W        W21926  33.992  12.569   1.222
50311W        W21927  18.047  20.009   4.177
50312W        W21928  24.762  42.996   3.616
50313W        W21929  10.834   8.728  13.869
50314W        W21930  38.330  25.496   2.805
50315W        W21931  12.442  11.421   4.710
50316W        W21932  15.742  30.711  10.800
50317W        W21933  39.055   8.391   4.655
50318W        W21934   5.299  25.820  14.671
50319W        W21935   4.224  37.386   3.715
50320W        W21936  11.234  38.115   1.663
50321W        W21937   4.411  31.387   4.210
50322W        W21938   8.666   5.850  14.963
50323W        W21939  30.620  31.655  10.884
50324W        W21940  16.208  27.168  14.415
50325W        W21941  43.005  25.501   4.194
50326W        W21942  28.531   1.777  11.180
50327W        W21943  25.578   6.996  12.451
50328W        W21944  19.402  30.124   0.977
50329W        W21945  33.301  40.767   2.543
50330W        W21946  11.365  29.320   2.466
50331W        W21947   3.951  21.401  11.601
50332W        W21948  32.579  16.833  13.781
50333W        W21949  26.205   3.995   1.856
50334W        W21950  17.137  38.873   0.790
50335W        W21951  15.308  24.958   0.661
50336W        W21952  43.043  39.857  12.499
50337W        W21953  10.820   6.858   3.625
50338W        W21954  16.904  42.847  11.088
50339W        W21955  38.961  17.294   2.469
50340W        W21956   2.967  40.764  11.680
50341W        W21957   7.349  33.173  14.341
50342W        W21958  21.787  17.182  14.499
50343W        W21959  14.107   6.162  10.574
50344W        W21960  12.721  26.424  14.226
50345W        W21961  38.548  21.276  11.608
50346W        W21962  38.140  42.419   1.395
50347W        W21963  11.756  12.139   0.839
50348W        W21964  21.539  10.381   4.926
50349W        W21965  28.471  29.039  11.372
50350W        W21966  26.701  24.764   1.822
50351W        W21967  26.454  21.097  14.746
50352W        W21968  22.045  37.484  12.052
50353W        W21969  15.174  13.532   3.250
50354W        W21970  40.834  32.399   3.289
50355W        W21971  40.653  28.473   1.905
50356W        W21972   0.572  25.592   1.623
50357W        W21973  44.305  22.657  14.477
50358W        W21974  33.520  42.457   3.213
50359W        W21975   7.920  17.358   0.758
50360W        W21976  15.898  40.432  10.723
50361W        W21977  29.588  26.489  13.919
50362W        W21978  41.943  27.069   2.291
50363W        W21979  44.419  44.974  13.531
50364W        W21980  14.926  28.892  13.452
50365W        W21981  28.949   8.595   1.317
50366W        W21982  10.022  14.658  13.235
50367W        W21983  11.251  24.757   2.328
50368W        W21984  31.645  30.053  13.831
50369W        W21985   7.362  40.469  10.639
50370W        W21986  29.883  22.011  10.672
50371W        W21987  24.032   9.222   2.700
50372W        W21988  30.178  10.128   2.648
50373W        W21989   9.094   8.708  12.057
50374W        W21990  34.856  24.209  11.220
50375W        W21991  35.412  26.009  12.896
50376W        W21992   0.989   8.872  12.065
50377W        W21993  10.305  14.322   1.299
50378W        W21994  38.226  16.896   0.485
50379W        W21995  41.759  29.057  14.808
50380W        W21996  17.101   9.792   2.679
50381W        W21997  14.684   4.916  12.912
50382W        W21998  13.575  15.828   3.675
50383W        W21999  37.322  15.648   1.966
50384W        W22000  39.793  39.479   3.298
50385W        W22001  12.035  33.216   4.156
50386W        W22002  15.748  37.046  12.415
50387W        W22003   6.508   7.295  12.004
50388W        W22004  24.737   1.953  13.464
50389W        W22005  30.321  20.798   5.002
50390W        W22006  35.100   4.868   2.290
50391W        W22007  43.014   0.530  13.825
50392W        W22008   4.382  42.595  14.728
50393W        W22009   6.753  24.163  13.083
50394W        W22010  36.192  11.836   0.736
50395W        W22011  31.657  12.392   4.404
50396W        W22012   5.784  30.441   2.753
50397W        W22013  19.327   0.247   3.220
50398W        W22014  39.997   6.668  11.635
50399W        W22015  37.516  29.873   4.665
50400W        W22016  11.791  26.633  11.103
50401W        W22017  28.371  24.208  11.936
50402W        W22018  36.545  40.012  12.998
50403W        W22019   7.124  15.366  11.381
50404W        W22020  20.079  11.164   0.531
50405W        W22021  29.037  20.164  14.213
50406W        W22022  10.611  33.908   1.394
50407W        W22023  30.967  40.951   5.355
50408W        W22024  18.359  21.045  12.497
50409W        W22025  11.354  26.910  11.146
50410W        W22026  42.426   3.432  14.864
50411W        W22027   5.728  35.271  11.555
50412W        W22028  44.912  11.538  11.091
50413W        W22029  37.006  26.033  13.571
50414W        W22030  28.418   7.708  11.150
50415W        W22031   1.401  23.199   4.261
50416W        W22032   2.110  16.744   2.391
50417W        W22033  36.110  15.759   4.657
50418W        W22034  32.415   6.819   4.758
50419W        W22035  30.844   9.819   2.423
50420W        W22036  40.495   7.918  13.945
50421W        W22037  28.838  40.622  11.572
50422W        W22038   0.592  23.108  14.473
50423W        W22039  37.993  44.685  13.533
50424W        W22040  11.426  34.503  12.536
50425W        W22041  19.784  36.234  13.317
50426W        W22042  19.703  34.199   2.797
50427W        W22043   8.306  21.296   1.418
50428W        W22044  24.525  15.861   2.400
50429W        W22045  25.054  26.689   0.804
50430W        W22046  26.107  22.162   2.776
50431W        W22047  16.773  29.406  12.824
50432W        W22048  13.985  32.814  13.683
50433W        W22049  19.097  16.122   0.305
50434W        W22050  29.081  16.813  12.560
50435W        W22051  23.315  11.240  14.060
50436W        W22052   4.305   8.332  14.255
50437W        W22053  44.497   8.718   4.651
50438W        W22054  40.850   6.097   0.647
50439W        W22055  42.341   2.798  13.848
50440W        W22056  12.679   5.292   4.538
50441W        W22057  14.185  19.844   2.394
50442W        W22058  39.935   4.447   3.590
50443W        W22059   2.564   3.309   0.245
50444W        W22060  11.726  23.739   4.890
50445W        W22061  36.094  12.385  12.448
50446W        W22062  31.007  25.487   1.770
50447W        W22063  39.712  37.980   3.706
50448W        W22064   0.681  41.117  11.036
50449W        W22065   3.256  17.494   2.768
50450W        W22066  35.676  24.714  14.312
50451W        W22067  16.620  35.356   0.724
50452W        W22068  28.016  33.519  14.326
50453W        W22069  44.515  19.520  13.359
50454W        W22070  22.937  18.905   3.192
50455W        W22071  19.138  30.459   0.692
50456W        W22072  43.995  39.888   0.560
50457W        W22073  23.210   8.003  13.933
50458W        W22074  13.724  37.529   4.188
50459W        W22075  19.148  33.903  11.111
50460W        W22076  16.147  37.775  14.814
50461W        W22077  37.914  13.729  13.880
50462W        W22078   7.762  34.622   4.825
50463W        W22079   3.662  28.117   1.207
50464W        W22080  18.654  24.395  12.554
50465W        W22081   7.813   6.723   0.169
50466W        W22082   4.121   5.198   1.941
50467W        W22083  41.536  34.443  14.899
50468W        W22084  24.245  23.023   2.304
50469W        W22085   5.177  26.086   1.588
50470W        W22086  32.866  41.403   3.972
50471W        W22087  28.532  34.757   4.072
50472W        W22088   0.213  15.823   0.535
50473W        W22089   1.738  33.984  12.863
50474W        W22090  23.652   0.439  13.976
50475W        W22091  31.554   4.869  13.822
50476W        W22092  11.222  24.972  10.367
50477W        W22093  28.183  19.233   4.442
50478W        W22094  12.793  26.109   2.467
50479W        W22095  19.558   4.447  10.702
50480W        W22096   6.062   4.955  13.769
50481W        W22097  18.768   8.777   2.352
50482W        W22098  11.810  35.997   0.030
50483W        W22099   3.749   1.461   4.984
50484W        W22100  14.983  30.165  11.059
50485W        W22101   2.011  30.002  10.594
50486W        W22102  42.747   6.740   3.237
50487W        W22103   0.839  30.615  12.222
50488W        W22104  16.056   6.361  12.420
50489W        W22105  41.961  29.372  12.858
50490W        W22106  36.541  10.491   2.173
50491W        W22107   2.363  40.525  10.664
50492W        W22108  29.340  22.263   4.848
50493W        W22109  35.366  29.314  12.165
50494W        W22110   7.149  19.591  13.604
50495W        W22111  22.393  13.396   2.780
50496W        W22112  10.410  32.123  13.028
50497W        W22113  16.799  22.652  11.055
50498W        W22114  28.687  31.554  13.324
50499W        W22115  44.754  11.231  12.440
50500W        W22116  33.651  38.803   3.733
50501W        W22117  40.924  28.859   3.478
50502W        W22118  39.377   0.892  10.944
50503W        W22119   6.363   1.535  13.009
50504W        W22120  41.972  33.928  14.515
50505W        W22121  26.716  34.453   3.969
50506W        W22122  29.594  12.398  12.951
50507W        W22123   4.353  15.298   2.206
50508W        W22124  31.818   7.275   2.183
50509W        W22125  36.146   6.899   0.453
50510W        W22126  39.038  19.324   2.824
50511W        W22127  31.425   8.471  11.147
50512W        W22128  26.137  13.860   0.303
50513W        W22129  22.231  10.059   1.864
50514W        W22130  36.363  23.141   3.829
50515W        W22131  29.950  31.575   0.068
50516W        W22132  37.070   1.648   2.736
50517W        W22133  41.343  18.866   0.849
50518W        W22134  37.417   1.242  11.572
50519W        W22135  15.918  31.173  10.921
50520W        W22136  32.389  10.447  10.661
50521W        W22137  12.699  33.107  13.046
50522W        W22138  42.301   7.203   1.872
50523W        W22139  20.512  38.828   3.815
50524W        W22140  18.683  16.592   4.329
50525W        W22141  26.076  30.968   1.802
50526W        W22142  33.301   4.947   1.977
50527W        W22143  42.462  24.431   4.128
50528W        W22144  12.260  27.660  11.596
50529W        W22145  25.355   6.248  13.440
50530W        W22146  37.296  39.107   3.224
50531W        W22147  24.083   7.372   4.412
50532W        W22148  27.622  38.495   2.361
50533W        W22149  33.899  26.183   2.368
50534W        W22150   9.925  12.333   2.422
50535W        W22151  13.345  38.410  13.347
50536W        W22152  17.976   5.978   3.821
50537W        W22153  42.288  37.291  10.693
50538W        W22154  42.393  37.021  10.263
50539W        W22155  37.394  23.193   1.231
50540W        W22156  43.753   2.350   3.664
50541W        W22157  32.086  17.323   4.910
50542W        W22158   7.759  21.936   4.150
50543W        W22159  40.254   1.235  12.485
50544W        W22160  39.784  23.165   0.328
50545W        W22161  33.125  40.626   1.886
50546W        W22162  22.971   3.402  14.919
50547W        W22163  13.255  40.860   4.246
50548W        W22164   5.722  20.139   0.788
50549W        W22165   4.865  41.597  12.123
50550W        W22166   4.861  27.934   4.525
50551W        W22167  41.902  41.304  12.886
50552W        W22168  27.066   7.651   0.810
50553W        W22169   6.132  21.234   2.338
50554W        W22170  10.677  35.867  12.833
50555W        W22171  30.061  29.076   2.320
50556W        W22172   6.405  20.607  12.050
50557W        W22173  42.877  13.248   4.909
50558W        W22174  27.463  39.568   1.827
50559W        W22175  18.340  42.933  14.350
50560W        W22176   4.381   5.365   2.363
50561W        W22177   7.672  32.136   4.049
50562W        W22178  34.620   3.190  13.598
50563W        W22179  34.104  10.320  11.115
50564W        W22180  13.602   5.889  11.322
50565W        W22181  40.533  31.011  12.994
50566W        W22182  16.791  16.268  10.343
50567W        W22183  13.829   7.297  11.797
50568W        W22184  12.214  43.694  11.268
50569W        W22185  27.632  38.036   1.434
50570W        W22186  33.100  25.910  11.620
50571W        W22187   3.647  23.405  11.144
50572W        W22188   9.198  43.036   0.214
50573W        W22189  42.958   1.704  11.628
50574W        W22190  41.666  21.178  12.483
50575W        W22191  16.298  10.407  12.065
50576W        W22192  20.477  25.260   2.608
50577W        W22193  30.942  24.298  11.192
50578W        W22194  25.520  22.070   3.640
50579W        W22195  33.581  29.179   0.429
50580W        W22196  39.082  23.090  14.807
50581W        W22197  36.455  22.578  10.224
50582W        W22198   5.166  23.964  12.409
50583W        W22199  26.219  32.043  11.913
50584W        W22200  13.836  43.231  11.953
50585W        W22201  28.980  28.489  11.601
50586W        W22202  20.935  25.585   4.475
50587W        W22203  36.228  11.303  12.438
50588W        W22204   9.223  14.517  12.861
50589W        W22205  26.560  15.905  10.030
50590W        W22206  12.694  30.079  12.427
50591W        W22207  21.410  23.200  12.979
50592W        W22208  20.481   6.478  13.577
50593W        W22209  43.804  32.084   3.187
50594W        W22210  35.979  42.053   2.180
50595W        W22211  37.851  16.844   4.665
50596W        W22212  12.386  27.425   4.400
50597W        W22213  39.399  32.605  11.624
50598W        W22214  26.761   7.777  13.365
50599W        W22215   5.028  26.165  14.915
50600W        W22216   0.671  39.256   5.116
50601W        W22217   6.176  20.219  11.659
50602W        W22218  36.125  19.846   0.880
50603W        W22219  33.058   9.899  13.490
50604W        W22220  17.834  27.695   1.303
50605W        W22221   2.464   7.358   0.984
50606W        W22222  37.513   5.313   4.400
50607W        W22223  42.387  30.379   1.802
50608W        W22224  40.554  43.059   1.460
50609W        W22225  25.645  23.208   3.423
50610W        W22226  22.218  17.327   4.573
50611W        W22227   3.944  37.263  11.338
50612W        W22228   8.076  15.096  11.865
50613W        W22229  19.202  37.363   2.777
50614W        W22230  15.584  40.753  12.505
50615W        W22231  28.377  36.985  12.838
50616W        W22232  21.250  20.468   4.847
50617W        W22233  32.506  27.883   5.047
50618W        W22234   5.953  18.173  10.733
50619W        W22235  34.723  40.145  12.636
50620W        W22236  31.629  33.049  12.110
50621W        W22237  41.449   4.346   0.741
50622W        W22238   3.666   3.758  12.181
50623W        W22239  18.742  43.979   4.476
50624W        W22240  11.113  12.144  13.775
50625W        W22241  18.792  18.253  10.947
50626W        W22242  29.564   0.398  11.619
50627W        W22243  11.356  41.184   1.470
50628W        W22244  14.169  12.195  12.615
50629W        W22245  30.896   2.994   0.675
50630W        W22246  26.255  27.381   4.973
50631W        W22247  23.495  19.055   0.391
50632W        W22248  18.004  44.794   0.890
50633W        W22249   9.824   4.842   3.637
50634W        W22250  39.265  41.958  11.891
50635W        W22251  43.405  37.782   3.255
50636W        W22252   2.001  33.521   0.816
50637W        W22253  32.898  38.282  10.682
50638W        W22254  44.357  29.239   1.287
50639W        W22255   0.110  43.513   3.726
50640W        W22256  34.422   9.897  12.962
50641W        W22257  14.914  20.496   3.457
50642W        W22258  42.969   4.721   1.198
50643W        W22259  39.988  29.829   3.686
50644W        W22260  17.233   1.889  11.657
50645W        W22261   2.287   0.382   4.069
50646W        W22262   9.100  14.834   1.231
50647W        W22263   3.857  14.415   4.583
50648W        W22264  25.214   2.765   3.374
50649W        W22265   3.877  34.069   4.401
50650W        W22266  20.514  12.212  13.050
50651W        W22267  18.406  27.997   3.126
50652W        W22268  42.031  36.652   3.718
50653W        W22269  29.391   1.936   2.792
50654W        W22270  44.863  23.818  11.118
50655W        W22271   3.016  21.694  14.953
50656W        W22272  36.501   3.927  14.278
50657W        W22273  34.811   0.716   3.047
50658W        W22274  31.633  33.402  11.559
50659W        W22275  42.325  32.364   1.247
50660W        W22276   8.835   7.314   3.417
50661W        W22277   4.773  18.332   0.403
50662W        W22278  38.033  20.832  13.361
50663W        W22279   1.840   5.969  13.170
50664W        W22280   7.619  28.652   4.136
50665W        W22281  29.184   0.914   4.127
50666W        W22282  40.518  31.892  11.061
50667W        W22283   4.013   1.968  14.958
50668W        W22284  14.831  12.210  12.008
50669W        W22285   6.307   4.908   1.013
50670W        W22286  23.155   6.436   4.968
50671W        W22287  22.243  25.006   3.060
50672W        W22288  40.597  10.270   0.798
50673W        W22289  27.211  19.453   1.402
50674W        W22290   8.364  41.444   2.222
50675W        W22291  39.834  42.709  12.929
50676W        W22292  19.542  18.705  13.568
50677W        W22293  30.861  36.472   2.622
50678W        W22294  16.830  16.104   3.293
50679W        W22295  33.578   3.279  11.563
50680W        W22296  37.424   8.729  12.224
50681W        W22297  36.881  44.881   1.962
50682W        W22298  16.799  15.053   2.776
50683W        W22299  30.157  43.094  14.378
50684W        W22300  16.925  43.316  13.245
50685W        W22301  38.771  17.267  12.867
50686W        W22302  16.199  20.261   0.852
50687W        W22303  33.496  13.684  10.642
50688W        W22304  38.627  13.802  11.140
50689W        W22305   2.675  14.557   1.421
50690W        W22306   0.248  33.111   4.595
50691W        W22307   9.140   1.565  12.503
50692W        W22308  21.733  22.102   1.904
50693W        W22309  35.505  41.390  12.455
50694W        W22310  13.888  25.532  10.664
50695W        W22311  11.863  33.718   4.206
50696W        W22312   4.136   8.683   5.029
50697W        W22313   5.463  44.067   0.629
50698W        W22314   1.090  21.127  13.483
50699W        W22315  18.750  29.984  14.558
50700W        W22316  14.935  44.415  11.480
50701W        W22317  44.766  25.847  12.531
50702W        W22318  26.434  15.545  13.431
50703W        W22319  23.483  20.984  10.973
50704W        W22320  25.086  24.190   2.363
50705W        W22321  32.972  29.586   1.458
50706W        W22322  31.717  25.647   2.381
50707W        W22323   2.528  38.819  12.813
50708W        W22324  29.958  44.164   4.712
50709W        W22325  25.580  35.354   2.201
50710W        W22326   5.480   7.780  13.538
50711W        W22327   9.454  12.214   2.709
50712W        W22328  28.906  43.341  10.617
50713W        W22329  40.118  40.727  11.500
50714W        W22330  18.949  26.221   2.153
50715W        W22331  40.804  35.013   1.690
50716W        W22332  31.661  36.969  13.457
50717W        W22333  18.349  34.924   3.820
50718W        W22334  30.091   5.958   4.113
50719W        W22335  35.749  17.097   1.932
50720W        W22336  26.043  17.815  14.330
50721W        W22337  38.757  42.995   1.352
50722W        W22338   5.525  28.136   4.890
50723W        W22339  29.365  44.849  11.214
50724W        W22340  25.816   9.728  14.473
50725W        W22341  38.022  41.231  10.986
50726W        W22342  36.175  24.118   2.373
50727W        W22343  40.038  38.820  11.520
50728W        W22344  39.170   2.955   3.100
50729W        W22345  42.495  42.924   1.455
50730W        W22346  13.729  32.521  10.677
50731W        W22347  41.121  22.492  12.006
50732W        W22348   2.010  18.409   2.869
50733W        W22349  25.101  26.218  12.053
50734W        W22350  25.507  21.619   3.909
50735W        W22351  17.292  17.506   4.601
50736W        W22352  42.773  30.988   5.083
50737W        W22353  12.734  19.037  13.032
50738W        W22354  29.145  35.635   3.169
50739W        W22355  35.035  18.364   0.085
50740W        W22356   5.886   8.612   3.295
50741W        W22357  33.173  33.411   2.903
50742W        W22358  24.101   6.904   2.233
50743W        W22359  41.356  20.294   1.645
50744W        W22360   8.762  41.589  13.339
50745W        W22361   2.785  16.351   0.437
50746W        W22362  24.078   9.783   3.154
50747W        W22363  35.585  24.325  13.447
50748W        W22364  12.341  16.649  13.886
50749W        W22365   6.318   6.963  11.557
50750W        W22366  31.861  43.080  11.391
50751W        W22367  24.318   5.909  12.518
50752W        W22368  24.017  38.546  14.258
50753W        W22369  16.543  38.888  14.386
50754W        W22370   9.175   1.015  14.732
50755W        W22371  40.836  32.713  14.776
50756W        W22372  38.036  22.978   4.127
50757W        W22373  30.016  26.756   0.411
50758W        W22374   0.501   6.237  12.339
50759W        W22375  24.221  27.719   3.321
50760W        W22376  12.281   0.911  11.677
50761W        W22377  14.316  39.834  13.937
50762W        W22378   9.805   5.297   3.897
50763W        W22379  11.735  27.103   2.965
50764W        W22380  19.073  32.445  10.595
50765W        W22381  12.218  39.933   3.078
50766W        W22382  44.396  11.142   4.174
50767W        W22383  17.007  43.235   1.325
50768W        W22384  17.565  43.925   0.849
50769W        W22385  28.918   9.736   3.430
50770W        W22386  16.866  33.181  14.104
50771W        W22387  19.472  10.110   5.141
50772W        W22388  23.155  25.964   0.535
50773W        W22389  26.415  30.015   3.157
50774W        W22390   1.488  38.454  11.154
50775W        W22391   5.799  44.948   2.759
50776W        W22392  36.575  21.671   3.743
50777W        W22393  22.687  10.853   1.893
50778W        W22394  23.565   1.992  13.430
50779W        W22395  31.639  20.108   0.353
50780W        W22396   4.739  26.923  11.114
50781W        W22397  14.626   0.140  10.827
50782W        W22398  36.126  13.842  13.529
50783W        W22399   3.277  10.703  12.200
50784W        W22400  33.882   4.319   0.163
50785W        W22401  31.570  17.214  10.720
50786W        W22402  22.425  18.909  12.066
50787W        W22403  18.789   2.879   1.884
50788W        W22404  30.661   6.885  12.447
50789W        W22405  30.963   1.467   5.050
50790W        W22406   7.439  40.984  14.357
50791W        W22407  22.214  10.723   3.879
50792W        W22408   7.933  24.035   1.210
50793W        W22409  24.674  33.621  12.494
50794W        W22410  15.178   3.462   4.684
50795W        W22411   5.919  18.979  13.442
50796W        W22412   9.836  41.897   0.305
50797W        W22413  38.789  14.516  11.663
50798W        W22414  20.612  15.643  13.921
50799W        W22415  33.128  10.596   1.074
50800W        W22416  35.528  26.745   0.117
50801W        W22417  24.586  33.521  11.572
50802W        W22418  37.348   0.871   2.405
50803W        W22419  26.333  19.485   5.002
50804W        W22420  15.695  24.560   2.641
50805W        W22421   5.395  23.701   1.471
50806W        W22422  17.084  13.503  13.576
50807W        W22423  16.742  15.137  14.228
50808W        W22424  43.117  10.051  14.238
50809W        W22425  14.999   5.713   1.775
50810W        W22426  16.685   3.840  11.418
50811W        W22427  12.830  38.584   4.090
50812W        W22428  18.070  16.631  14.617
50813W        W22429  31.619  33.936   0.200
50814W        W22430  39.505   2.386   1.793
50815W        W22431  32.584  29.197   0.438
50816W        W22432  24.461   7.205   2.902
50817W        W22433  10.198  32.622   3.697
50818W        W22434  30.400  44.913   2.877
50819W        W22435  11.830  36.039  10.114
50820W        W22436   7.447  43.664  11.128
50821W        W22437  20.183  23.524   4.814
50822W        W22438  20.122  23.862  11.465
50823W        W22439  12.290  26.464   3.392
50824W        W22440   8.294  42.014   3.115
50825W        W22441  42.878   6.244  14.518
50826W        W22442  30.254  20.274   4.226
50827W        W22443  11.576  38.444   2.812
50828W        W22444  10.243  12.194   0.063
50829W        W22445   1.113  41.458  11.092
50830W        W22446  37.582  15.348   4.146
50831W        W22447  40.494  10.913   4.557
50832W        W22448  39.277  38.280   2.329
50833W        W22449  21.723  33.167   0.293
50834W        W22450  37.311  25.642   2.661
50835W        W22451  25.553  12.002  14.268
50836W        W22452  34.092  38.510  11.874
50837W        W22453  26.057  10.357  13.376
50838W        W22454  33.505   0.838  13.566
50839W        W22455  44.137  44.911  11.075
50840W        W22456  15.037  17.775   2.110
50841W        W22457  32.812  35.553   3.799
50842W        W22458   5.770  32.345  11.936
50843W        W22459   5.300  23.232   3.457
50844W        W22460  19.531   0.755   3.230
50845W        W22461  40.093  20.517   0.789
50846W        W22462  42.050  39.977   1.473
50847W        W22463   1.379  31.432   2.432
50848W        W22464  35.927  15.786   2.039
50849W        W22465  40.614   9.130   2.297
50850W        W22466  19.669  34.908   3.631
50851W        W22467   5.795   2.876  13.588
50852W        W22468  35.877  12.067  12.044
50853W        W22469  39.368   5.980  12.553
50854W        W22470  23.029  25.201   2.364
50855W        W22471  19.712  20.629   3.151
50856W        W22472  33.191  34.418  12.286
50857W        W22473  14.085  20.231  13.846
50858W        W22474   9.000   0.361  13.780
50859W        W22475  34.762  43.005   9.763
50860W        W22476  36.435  32.879  10.709
50861W        W22477  12.936  12.265  11.897
50862W        W22478  32.006  34.185  14.421
50863W        W22479  39.505   3.847  13.127
50864W        W22480   8.382  37.119  10.449
50865W        W22481  28.092  24.719   2.385
50866W        W22482   5.865  21.638   4.769
50867W        W22483  13.664  36.565  14.974
50868W        W22484  24.726  42.601  11.187
50869W        W22485  40.271   2.289   3.402
50870W        W22486  36.845  30.915   3.653
50871W        W22487   5.667  34.844  11.869
50872W        W22488  42.798  26.107  11.174
50873W        W22489   2.071  44.452   0.592
50874W        W22490   1.791  38.898  12.434
50875W        W22491   4.849  42.442   4.662
50876W        W22492  30.387   0.555  13.504
50877W        W22493  28.241  12.555   4.654
50878W        W22494  34.082  33.947  13.565
50879W        W22495   8.574  28.229  14.591
50880W        W22496   4.324   9.314   1.766
50881W        W22497  11.471   4.426  14.375
50882W        W22498   0.480   7.894   0.074
50883W        W22499  12.700  39.857  13.173
50884W        W22500  13.690  25.901   0.451
50885W        W22501  11.849   3.024   2.464
50886W        W22502   9.273   8.844   4.786
50887W        W22503  25.700  41.103   2.723
50888W        W22504  13.632   9.847   0.849
50889W        W22505   6.590  37.026   4.155
50890W        W22506  14.058  16.516   0.168
50891W        W22507   8.492  41.812  14.215
50892W        W22508  24.028   3.676   4.498
50893W        W22509   8.773  37.587   0.819
50894W        W22510  27.574  21.653   0.269
50895W        W22511  30.051   1.148   0.567
50896W        W22512  36.204  44.260  11.992
50897W        W22513  13.647  10.695  10.732
50898W        W22514  26.947  20.745   1.668
50899W        W22515  36.821  20.015   3.831
50900W        W22516  37.342  44.737   4.559
50901W        W22517   0.600  12.259  11.121
50902W        W22518  35.334  12.677   1.196
50903W        W22519  34.540  16.377   1.734
50904W        W22520  41.476  22.263  14.043
50905W        W22521  28.969  34.591   0.461
50906W        W22522  21.198  37.368   1.438
50907W        W22523  11.219  35.501  11.039
50908W        W22524  24.440  34.345  14.774
50909W        W22525  42.763  19.258  11.275
50910W        W22526  23.774  28.097   0.668
50911W        W22527   1.013  40.379  14.826
50912W        W22528  36.437  29.371   0.962
50913W        W22529  30.020  13.518   3.604
50914W        W22530  44.472   6.957  12.632
50915W        W22531  34.819  38.969   1.238
50916W        W22532   2.760  15.257   4.663
50917W        W22533  43.880   2.927   4.776
50918W        W22534   0.640  37.407  14.141
50919W        W22535   9.294  37.120   0.002
50920W        W22536  37.048  32.558  14.565
50921W        W22537  19.085  22.920  14.445
50922W        W22538  28.086  19.224  13.633
50923W        W22539   3.496  32.039   0.013
50924W        W22540  29.121  22.214  11.986
50925W        W22541  35.990  28.496  10.744
50926W        W22542   9.682  12.298   0.423
50927W        W22543  15.657  19.310  11.609
50928W        W22544  11.308  44.478   4.812
50929W        W22545  35.555  14.330  11.951
50930W        W22546  29.449  31.928   2.555
50931W        W22547   7.884  20.013  14.569
50932W        W22548  30.946   2.150  10.598
50933W        W22549  15.747  35.867   4.213
50934W        W22550   8.637   6.329  12.170
50935W        W22551  33.590  38.953  14.546
50936W        W22552   7.790  22.144  14.985
50937W        W22553   5.521  24.679  11.427
50938W        W22554  29.928  35.434  13.774
50939W        W22555  31.843  22.196   0.887
50940W        W22556  37.616  44.516  12.046
50941W        W22557  13.396  44.368   4.534
50942W        W22558  21.736  25.965  11.134
50943W        W22559  41.530  32.194   4.791
50944W        W22560   2.087  31.317   1.385
50945W        W22561  14.282  37.706  13.826
50946W        W22562   8.434   0.468  12.436
50947W        W22563  21.365  43.097   2.801
50948W        W22564   9.146  20.123   4.977
50949W        W22565  30.769  41.953  14.925
50950W        W22566   3.148  38.440  14.967
50951W        W22567  28.842  39.043   4.623
50952W        W22568   6.147   4.180   1.741
50953W        W22569  15.980  37.085   2.289
50954W        W22570  10.897   6.558   1.372
50955W        W22571  10.744  40.610   1.081
50956W        W22572  20.001   5.264  12.570
50957W        W22573   1.847  43.552   9.659
50958W        W22574   7.248  33.149  11.138
50959W        W22575  17.224  11.096  13.350
50960W        W22576  36.387  11.633   4.339
50961W        W22577  37.380   2.535   3.607
50962W        W22578   6.582  15.817  14.351
50963W        W22579   3.396  20.186   1.969
50964W        W22580  41.093   7.417   3.489
50965W        W22581  42.545  19.600  14.807
50966W        W22582  17.019  12.476  14.523
50967W        W22583  41.729  30.990   2.248
50968W        W22584  16.790   1.733  10.677
50969W        W22585  37.793  26.145  13.143
50970W        W22586  43.258   1.584  12.086
50971W        W22587  13.141  26.137   3.091
50972W        W22588   4.860  44.045  13.799
50973W        W22589  28.117  24.371   4.891
50974W        W22590  40.106  12.416   4.202
50975W        W22591  35.579   6.413  14.646
50976W        W22592  39.921  12.434   0.460
50977W        W22593  20.155  22.740  10.420
50978W        W22594  10.242  37.192  12.357
50979W        W22595  17.449   5.312  11.541
50980W        W22596   8.941  10.328  11.136
50981W        W22597  43.334  39.257   2.324
50982W        W22598  27.490  27.937   4.702
50983W        W22599  17.586  13.270   1.610
50984W        W22600   1.765  43.764   0.797
50985W        W22601  34.602  38.368  14.043
50986W        W22602   8.366  10.765   4.224
50987W        W22603   3.926  14.552  13.433
50988W        W22604  19.277  41.277   1.772
50989W        W22605  25.612   6.957   1.308
50990W        W22606  18.643  17.580  13.272
50991W        W22607  43.457   5.413  14.860
50992W        W22608  38.714  29.380   0.808
50993W        W22609  35.516  12.855   0.247
50994W        W22610   7.680  11.092   1.744
50995W        W22611   5.923  34.072   1.713
50996W        W22612  31.431  15.204   2.248
50997W        W22613  21.022   6.340  10.662
50998W        W22614  25.171  16.806   0.963
50999W        W22615  13.890  44.301   1.847
51000W        W22616  38.636  15.669   3.771
51001W        W22617   2.855  32.063  10.105
51002W        W22618  10.884  34.472   0.724
51003W        W22619  28.071  29.708   1.346
51004W        W22620  23.990  16.901   4.037
51005W        W22621  21.019  29.982  13.120
51006W        W22622  33.569  29.730  10.774
51007W        W22623   1.832  13.818   1.844
51008W        W22624  20.097  32.583  12.014
51009W        W22625  10.874  14.335  12.529
51010W        W22626  32.997   9.158  12.880
51011W        W22627  24.240  26.046  14.773
51012W        W22628   6.614  18.782   0.767
51013W        W22629  31.034  40.372  12.550
51014W        W22630  29.034  22.150   3.024
51015W        W22631  23.680  12.631   3.611
51016W        W22632  31.619  29.402   1.140
51017W        W22633  31.915  37.576   0.265
51018W        W22634  25.688   9.076   0.180
51019W        W22635  27.499  13.183  11.144
51020W        W22636  20.311  44.360   4.541
51021W        W22637  37.071  40.904   0.817
51022W        W22638   7.231   2.685  14.434
51023W        W22639   2.092  21.232  11.556
51024W        W22640  36.994   3.346   3.393
51025W        W22641   6.207  42.257   0.826
51026W        W22642  18.568  12.087   2.807
51027W        W22643  42.204  11.529   3.132
51028W        W22644  29.412   7.462   5.212
51029W        W22645  25.779  30.791  12.011
51030W        W22646  25.364  41.415   3.615
51031W        W22647  41.449  36.339  14.936
51032W        W22648  36.048  17.278   0.223
51033W        W22649   0.814   2.345   4.592
51034W        W22650  31.206   5.449  13.348
51035W        W22651  37.808  43.264   1.295
51036W        W22652  40.101  35.246   3.412
51037W        W22653  25.024  16.293  14.116
51038W        W22654  33.469  43.964   0.863
51039W        W22655   7.756  27.526  10.855
51040W        W22656  34.265  38.399  12.598
51041W        W22657  21.807  34.403  12.277
51042W        W22658  16.224  27.721  12.933
51043W        W22659   2.943  42.254  11.738
51044W        W22660  29.015  35.937  13.935
51045W        W22661  28.994   4.783   0.813
51046W        W22662  42.747  35.663   4.024
51047W        W22663   1.339  14.094  11.164
51048W        W22664   4.486  34.317  11.487
51049W        W22665  39.524  11.093   4.569
51050W        W22666  13.344  27.555   0.418
51051W        W22667  31.147  37.872  13.460
51052W        W22668   5.853   5.863  12.673
51053W        W22669  24.272  39.298   2.756
51054W        W22670  40.865  25.916   1.714
51055W        W22671  12.763  32.259  10.935
51056W        W22672  19.515  36.435   1.266
51057W        W22673  26.763   1.807  12.996
51058W        W22674  42.405  39.159   0.197
51059W        W22675  16.700  10.862  11.472
51060W        W22676  11.828  23.761   3.231
51061W        W22677   0.316   7.775   3.882
51062W        W22678   7.423   1.221  14.390
51063W        W22679  42.678  33.831  11.563
51064W        W22680  32.080  40.577  14.800
51065W        W22681   2.734   5.892  13.362
51066W        W22682   3.824  14.930   3.663
51067W        W22683  15.222   9.307   1.919
51068W        W22684  18.104  39.983   4.847
51069W        W22685   6.882   4.848  14.772
51070W        W22686   2.723  24.194   4.544
51071W        W22687  29.231  44.341   0.896
51072W        W22688  38.254  25.983   0.796
51073W        W22689  37.812  20.575  12.977
51074W        W22690  36.935  42.781  11.431
51075W        W22691   1.258  20.005  14.542
51076W        W22692  29.851  40.107  14.894
51077W        W22693  37.877  23.611  14.116
51078W        W22694  18.430   5.873   3.610
51079W        W22695  10.095   9.278   4.556
51080W        W22696   0.697  14.201   1.502
51081W        W22697  24.215  26.373  11.351
51082W        W22698  26.858  43.307  13.348
51083W        W22699  25.681  28.560  10.529
51084W        W22700  12.447  15.854  12.941
51085W        W22701  38.526  28.327  13.002
51086W        W22702   2.743  30.282   0.739
51087W        W22703  23.450  16.038  12.003
51088W        W22704   9.390  11.883   0.345
51089W        W22705   5.413   1.897  14.054
51090W        W22706  17.554  22.641  14.323
51091W        W22707  26.642   2.332   0.999
51092W        W22708  12.607  39.683   2.843
51093W        W22709  35.645  28.240   2.321
51094W        W22710  32.483  40.632   4.570
51095W        W22711  11.323  40.335  14.424
51096W        W22712  15.310   4.271  14.410
51097W        W22713  25.218  11.371   2.082
51098W        W22714   2.461  43.443   3.155
51099W        W22715  29.384   0.641   3.719
51100W        W22716  34.962  16.520   0.378
51101W        W22717  25.025   8.975  12.197
51102W        W22718   3.301  38.098  12.071
51103W        W22719  44.311  14.875  12.996
51104W        W22720   9.236  15.951  13.377
51105W        W22721  28.545  19.124  13.900
51106W        W22722  16.808  38.958   1.233
51107W        W22723  42.216  38.065   4.663
51108W        W22724  32.572   6.256   2.368
51109W        W22725   6.947   2.886   0.067
51110W        W22726  11.369  34.849  10.452
51111W        W22727  20.075  12.844   1.683
51112W        W22728  26.520  34.412   3.032
51113W        W22729  14.772  38.807  12.964
51114W        W22730  42.282  33.371  10.695
51115W        W22731  24.374  28.546   3.826
51116W        W22732   8.868  40.569   4.073
51117W        W22733  25.992  44.287  12.958
51118W        W22734  20.158  25.573   2.313
51119W        W22735  19.346  44.404   1.868
51120W        W22736  29.200  43.706  13.129
51121W        W22737   4.817  12.506  13.722
51122W        W22738  22.734  31.114   1.871
51123W        W22739  19.198   9.915  13.189
51124W        W22740  18.245  21.474   0.347
51125W        W22741  43.384   0.549   1.940
51126W        W22742  12.524  24.432  12.865
51127W        W22743  12.470   9.235  11.245
51128W        W22744  30.799  20.627   4.651
51129W        W22745  26.160  33.722  11.538
51130W        W22746  39.045  15.029  11.721
51131W        W22747  26.198  35.294   3.631
51132W        W22748  16.649  17.564  11.595
51133W        W22749  21.121  13.774  12.958
51134W        W22750   7.928  15.150  12.541
51135W        W22751  33.960   4.452   1.426
51136W        W22752  29.942  27.351   3.629
51137W        W22753  39.267  12.224   3.610
51138W        W22754  26.554  11.842  11.524
51139W        W22755   6.310  40.503  13.098
51140W        W22756  27.216  39.093  13.971
51141W        W22757   5.394  11.799  10.593
51142W        W22758  41.726  37.040   1.217
51143W        W22759   5.670  19.678   3.269
51144W        W22760  21.565  32.995  14.178
51145W        W22761  15.778   4.156   5.373
51146W        W22762   5.323  15.760   2.348
51147W        W22763  12.432  37.421   3.635
51148W        W22764   4.133  23.566  11.108
51149W        W22765  29.237  35.308   2.239
51150W        W22766  21.148   1.500  10.726
51151W        W22767  19.771  35.935  13.736
51152W        W22768  17.699  36.056  13.941
51153W        W22769  12.074  35.201  14.979
51154W        W22770  42.615  37.532   3.897
51155W        W22771   8.107  43.024   3.676
51156W        W22772   7.823   5.592   0.406
51157W        W22773   8.209  20.469  13.465
51158W        W22774  43.234   1.707  14.944
51159W        W22775  40.053  26.630   4.657
51160W        W22776   1.282  37.905  12.996
51161W        W22777  33.050   2.778   1.688
51162W        W22778  44.503  40.612  13.044
51163W        W22779  14.608  19.577   0.616
51164W        W22780  31.718  20.986   5.013
51165W        W22781  42.083  38.175  12.888
51166W        W22782  23.551   6.703   3.960
51167W        W22783  44.457  23.226  14.850
51168W        W22784  16.983  25.521  11.064
51169W        W22785   0.794  32.628  14.710
51170W        W22786  39.282  42.417  10.704
51171W        W22787  10.612   6.885   1.050
51172W        W22788  34.050  26.492  11.409
51173W        W22789  35.010   4.868  13.477
51174W        W22790   4.960  15.191   1.859
51175W        W22791  14.811  20.229  12.601
51176W        W22792   0.751  33.257   3.262
51177W        W22793   4.454  35.486  11.903
51178W        W22794  35.469  27.014  12.438
51179W        W22795  39.975  36.171  14.861
51180W        W22796  15.096  37.783   3.252
51181W        W22797   1.151  22.665  12.482
51182W        W22798   9.271  16.643   3.675
51183W        W22799  28.692  36.620   4.132
51184W        W22800   0.848  39.597   1.516
51185W        W22801  39.529  28.352   0.344
51186W        W22802  25.707  10.362  10.699
51187W        W22803  38.625  30.456  10.446
51188W        W22804  21.721  30.971   1.692
51189W        W22805  30.081  42.586  14.452
51190W        W22806  31.411  33.181  13.901
51191W        W22807  21.336  35.705   2.850
51192W        W22808   5.257  44.239   4.352
51193W        W22809  37.752  10.762   9.845
51194W        W22810  13.793  10.856   2.920
51195W        W22811   3.330  34.561  13.292
51196W        W22812  34.476  34.191   2.494
51197W        W22813  25.410  15.672  13.617
51198W        W22814  27.254  19.095  14.735
51199W        W22815  31.575  24.923   0.973
51200W        W22816  36.552  35.049   1.912
51201W        W22817  14.660  29.388   2.845
51202W        W22818  44.441  14.668  11.839
51203W        W22819  27.013  10.152  13.897
51204W        W22820  41.014  11.381   2.172
51205W        W22821   3.850  27.178  11.055
51206W        W22822  28.923  13.530   3.693
51207W        W22823  35.466   2.435  12.108
51208W        W22824  37.641  17.369   2.183
51209W        W22825   5.336   8.582  14.551
51210W        W22826  33.661  34.904   0.342
51211W        W22827   4.815  34.426  11.098
51212W        W22828  32.501   6.397  12.281
51213W        W22829  29.850  32.321  13.848
51214W        W22830  42.814   5.787   3.690
51215W        W22831   0.728  29.181   1.866
51216W        W22832  44.602   0.161  11.100
51217W        W22833  29.600  18.543   1.390
51218W        W22834  29.930  44.863   3.251
51219W        W22835  44.639  32.760  14.436
51220W        W22836  39.310  27.158  11.714
51221W        W22837  44.430   4.587   4.174
51222W        W22838  29.204  17.646  13.434
51223W        W22839   6.458  13.711   1.930
51224W        W22840  15.708   5.715  10.678
51225W        W22841  30.717   8.836  10.665
51226W        W22842  17.355  16.780   0.308
51227W        W22843  35.429  21.061   3.697
51228W        W22844  10.902   1.884  11.120
51229W        W22845   3.779  11.150  14.005
51230W        W22846  14.564   3.886   0.334
51231W        W22847  40.473  18.759   0.923
51232W        W22848   1.772  15.139  11.237
51233W        W22849  25.117  26.681   5.024
51234W        W22850  12.053   8.947   5.040
51235W        W22851  17.374  16.227   4.172
51236W        W22852  10.106  41.993  14.842
51237W        W22853  34.072  37.538   0.429
51238W        W22854  41.007   3.160   1.663
51239W        W22855   3.045  27.842  11.232
51240W        W22856  36.865  42.380   2.588
51241W        W22857   0.847  16.292  14.521
51242W        W22858  29.919  40.356  13.577
51243W        W22859  43.469  21.017  13.824
51244W        W22860  21.009  27.497  13.397
51245W        W22861   0.632  11.632   2.635
51246W        W22862   3.866  17.080  13.322
51247W        W22863  24.480  43.958  13.339
51248W        W22864  28.509  37.980  10.359
51249W        W22865  44.324   2.881   3.080
51250W        W22866  23.600  20.513  10.696
51251W        W22867  28.551  39.811   1.283
51252W        W22868  29.385  39.869  14.842
51253W        W22869  16.391  41.643  13.978
51254W        W22870  37.559  11.182  11.081
51255W        W22871   4.264  29.332  12.549
51256W        W22872  39.096  34.691   4.214
51257W        W22873  44.476  19.130   0.882
51258W        W22874  44.201   7.181   4.121
51259W        W22875  31.820   2.564  13.981
51260W        W22876  20.110  24.386  11.505
51261W        W22877  13.566  37.951   1.559
51262W        W22878  29.632  39.444   3.228
51263W        W22879  20.863  27.691  11.077
51264W        W22880   0.076  24.196  11.417
51265W        W22881  31.665  12.606   2.178
51266W        W22882  24.246  20.195   4.890
51267W        W22883  19.141  13.307  11.980
51268W        W22884  37.192  38.760  12.948
51269W        W22885  30.435  15.240  14.917
51270W        W22886   6.839   5.350  10.764
51271W        W22887   3.264  27.869   2.976
51272W        W22888  27.524  14.225  14.980
51273W        W22889  21.147  44.980  13.011
51274W        W22890  40.024   4.704  11.101
51275W        W22891  16.525  44.725  12.937
51276W        W22892  23.401   7.656   3.723
51277W        W22893  34.559  40.666  14.724
51278W        W22894  11.673  19.090   4.747
51279W        W22895   5.479  15.165  12.961
51280W        W22896  43.217  39.700  12.032
51281W        W22897  33.023   1.913   4.699
51282W        W22898  21.416  42.822  10.704
51283W        W22899   4.739  29.945  14.860
51284W        W22900  14.844   4.309  10.652
51285W        W22901  28.963   7.616   2.485
51286W        W22902  34.560  11.173  13.402
51287W        W22903   7.272  11.036   4.148
51288W        W22904  16.203   8.858   2.667
51289W        W22905   0.582  24.784  11.883
51290W        W22906  38.386  10.412  14.188
51291W        W22907   3.072   6.491   2.917
51292W        W22908  42.625  30.946   3.158
51293W        W22909  42.800   8.400  10.836
51294W        W22910  36.817   5.815  14.388
51295W        W22911  44.087  41.334   1.675
51296W        W22912  24.502  35.173  14.026
51297W        W22913  22.779  38.917  14.474
51298W        W22914  24.482  14.098  11.942
51299W        W22915  31.827  19.268  14.411
51300W        W22916  31.543  32.312  14.462
51301W        W22917  25.527   1.512   0.071
51302W        W22918  10.238  38.799   1.349
51303W        W22919  15.802  14.675   1.252
51304W        W22920  14.770   1.490   4.580
51305W        W22921  33.889   6.350  10.748
51306W        W22922  36.802   3.757  13.888
51307W        W22923  21.884  41.828   2.735
51308W        W22924  41.223  37.442   4.100
51309W        W22925   5.470  24.730  12.539
51310W        W22926   5.296  29.551  14.933
51311W        W22927   1.054  14.556  11.593
51312W        W22928  15.671  39.900   0.553
51313W        W22929  16.783  15.667   4.477
51314W        W22930   8.262  44.356  12.974
51315W        W22931  36.052  38.487   0.534
51316W        W22932  19.246  43.041   1.460
51317W        W22933  29.896  15.767  12.634
51318W        W22934  25.109   2.945   2.315
51319W        W22935  16.310   5.714   0.387
51320W        W22936  28.307  15.544  14.864
51321W        W22937  24.680  26.747  13.028
51322W        W22938   4.556  11.692  13.828
51323W        W22939  44.387   5.131   1.801
51324W        W22940  30.518  32.066  14.549
51325W        W22941  35.008  38.518   4.815
51326W        W22942   1.835  44.722  14.859
51327W        W22943  35.625   7.832  14.486
51328W        W22944  38.802  15.129  10.893
51329W        W22945  40.287   4.474   1.911
51330W        W22946  26.625   4.698  14.495
51331W        W22947  43.810   5.921   1.846
51332W        W22948  36.159  17.596  12.003
51333W        W22949  44.887  17.853  10.640
51334W        W22950  12.007  11.610  11.548
51335W        W22951  38.908   6.791   3.314
51336W        W22952  21.735  14.524  12.552
51337W        W22953  37.820  30.183  14.770
51338W        W22954  24.496  12.239   3.761
51339W        W22955  29.576  14.877   4.627
51340W        W22956  27.161  15.701  12.286
51341W        W22957   8.871  33.864  12.708
51342W        W22958  13.354  31.898   2.764
51343W        W22959   6.651  43.301   4.108
51344W        W22960  36.511  30.008  14.971
51345W        W22961   3.361  23.675   3.895
51346W        W22962   2.843   6.927   1.903
51347W        W22963  34.506   2.473  14.059
51348W        W22964   5.738  20.960   1.380
51349W        W22965  30.894   0.314   1.794
51350W        W22966   0.411  12.594   4.515
51351W        W22967  27.095   0.290  13.982
51352W        W22968   5.427  17.812   0.004
51353W        W22969   8.850  23.458   4.731
51354W        W22970  33.951  17.326   4.229
51355W        W22971  43.347  12.802   1.296
51356W        W22972  22.132  31.442   0.860
51357W        W22973  40.109  30.096  12.437
51358W        W22974  40.231  43.730   0.978
51359W        W22975  42.814  35.891  10.411
51360W        W22976  23.292   0.551  14.347
51361W        W22977  10.267  13.304   2.294
51362W        W22978  10.175   2.245  11.995
51363W        W22979  31.645  27.678  13.719
51364W        W22980  40.497  32.553   0.793
51365W        W22981   1.334  10.440  10.647
51366W        W22982  23.484  12.714  13.810
51367W        W22983  30.161  28.666   2.760
51368W        W22984  18.275  41.122  11.781
51369W        W22985   9.629  21.610   2.910
51370W        W22986  25.911  37.813  14.497
51371W        W22987  38.584  32.086   3.135
51372W        W22988  25.326  23.209  14.050
51373W        W22989  35.590  15.610  10.338
51374W        W22990  43.856  26.508   0.340
51375W        W22991  24.462  12.645  14.151
51376W        W22992  18.861  25.012   1.469
51377W        W22993  40.951  16.558   0.876
51378W        W22994  17.750   3.636  12.335
51379W        W22995  25.756  27.150  13.576
51380W        W22996  29.468  38.405   1.756
51381W        W22997  11.799  17.011   1.774
51382W        W22998  33.130  43.384   4.598
51383W        W22999  34.509  39.103  11.269
51384W        W23000  35.638  32.640  13.398
51385W        W23001   6.830  42.496   5.054
51386W        W23002  23.732   1.765   4.685
51387W        W23003   3.284  38.512  14.453
51388W        W23004   4.968  10.110  10.971
51389W        W23005  35.024  41.761   4.237
51390W        W23006  23.911  10.704  11.501
51391W        W23007   2.186   5.679  12.232
51392W        W23008   7.257  10.899  11.581
51393W        W23009  29.059  28.371   4.750
51394W        W23010  33.631  28.942   2.273
51395W        W23011  27.140   8.096   0.367
51396W        W23012  17.337  21.755  11.105
51397W        W23013   4.469  43.898  12.897
51398W        W23014  24.764  12.070   4.207
51399W        W23015  16.607   5.716   3.704
51400W        W23016  28.568  18.995   1.801
51401W        W23017  19.772  15.070  14.262
51402W        W23018  44.952  35.755  11.120
51403W        W23019  44.477  25.248   3.637
51404W        W23020  15.831  34.376   1.754
51405W        W23021  15.803   2.229  12.402
51406W        W23022  16.095  14.200   1.292
51407W        W23023  38.297  21.554   4.655
51408W        W23024  23.486  26.608   4.130
51409W        W23025  29.156  27.203   1.389
51410W        W23026   7.108   9.479  11.298
51411W        W23027  19.579   2.270   1.536
51412W        W23028  38.705  37.623  10.787
51413W        W23029   8.365   4.821   2.833
51414W        W23030  13.388  41.023  12.982
51415W        W23031  27.609  26.138  11.931
51416W        W23032   2.512  14.796   4.683
51417W        W23033  31.246  20.594   2.915
51418W        W23034   7.748  29.133  11.543
51419W        W23035  24.047  41.745  14.298
51420W        W23036  36.028  29.210   0.273
51421W        W23037  13.866  31.083   4.641
51422W        W23038   6.687  18.360  13.038
51423W        W23039  13.910   0.279   4.532
51424W        W23040  12.595  16.231  13.688
51425W        W23041   6.930  40.066  14.807
51426W        W23042  19.831  36.596  11.766
51427W        W23043  24.084  14.632   4.859
51428W        W23044   6.076  37.283   2.343
51429W        W23045  18.683   9.628  13.988
51430W        W23046  15.859  17.743   2.898
51431W        W23047  12.685  25.486   4.670
51432W        W23048  12.504  28.781  14.678
51433W        W23049  22.034   5.938  12.965
51434W        W23050  40.883  21.545   0.397
51435W        W23051  29.392  16.673  10.465
51436W        W23052  39.826  14.240   0.475
51437W        W23053  15.683  41.900  13.077
51438W        W23054   1.891  43.152   5.085
51439W        W23055  40.594  21.794  13.833
51440W        W23056   2.869  10.344   2.352
51441W        W23057  31.359  28.464   3.612
51442W        W23058   2.162   6.172   2.894
51443W        W23059  26.555  24.745   3.831
51444W        W23060  26.937  14.121   9.618
51445W        W23061  33.094   0.493  14.544
51446W        W23062  42.444  37.419  13.418
51447W        W23063   4.803   5.266  11.853
51448W        W23064  21.985   4.330   0.515
51449W        W23065   3.789  39.501   4.142
51450W        W23066  37.740  15.984   2.116
51451W        W23067   5.167  33.039  11.240
51452W        W23068  31.518  25.240  11.875
51453W        W23069   6.117   3.955   4.700
51454W        W23070  39.802  16.658  12.666
51455W        W23071  41.417  13.996  14.126
51456W        W23072  21.059  19.514  13.918
51457W        W23073  23.757  23.119  12.889
51458W        W23074  13.142  23.240   4.416
51459W        W23075  22.174  27.724   3.668
51460W        W23076  27.396  34.501  11.128
51461W        W23077   3.298  34.406  13.793
51462W        W23078  12.128   0.754   3.805
51463W        W23079  12.372  33.088   1.757
51464W        W23080  14.569  22.367  10.968
51465W        W23081  20.238  35.597   3.162
51466W        W23082  40.711  16.739   2.257
51467W        W23083  39.984  31.967  11.152
51468W        W23084  12.607  21.710   0.345
51469W        W23085   0.149  35.975   5.624
51470W        W23086  42.274  39.494  11.043
51471W        W23087  37.395  13.236  11.067
51472W        W23088   3.628  17.194   0.453
51473W        W23089  13.616  32.213   3.550
51474W        W23090  18.652  24.099   3.617
51475W        W23091   3.611   4.455  11.160
51476W        W23092  14.626   5.267   4.340
51477W        W23093   1.484  38.874  12.909
51478W        W23094   1.280  17.159   0.311
51479W        W23095  40.893  41.416  14.354
51480W        W23096   5.220  42.949   0.461
51481W        W23097  40.495  44.165   0.811
51482W        W23098  14.602  19.803   1.119
51483W        W23099  12.138  19.143   0.043
51484W        W23100  36.432  30.970   4.373
51485W        W23101   6.021  37.045   1.749
51486W        W23102  12.103  15.639  10.660
51487W        W23103  43.816  21.158  11.549
51488W        W23104   3.192  20.489  11.009
51489W        W23105  36.786  10.673   5.107
51490W        W23106  25.577   5.663   3.705
51491W        W23107   5.463   3.724  13.924
51492W        W23108   4.988  17.679  14.120
51493W        W23109  13.689  27.492  13.376
51494W        W23110  16.620  33.550  13.817
51495W        W23111  16.265  28.289   4.042
51496W        W23112   4.512  15.329  14.819
51497W        W23113  26.800  29.851   5.120
51498W        W23114  31.522   4.130  11.627
51499W        W23115  35.618  12.059   4.754
51500W        W23116  27.097   2.322  13.702
51501W        W23117  21.883  14.714  11.102
51502W        W23118  34.910   5.904  13.437
51503W        W23119  19.205  23.939  11.179
51504W        W23120   1.864   0.827  12.431
51505W        W23121  27.898  15.660  11.173
51506W        W23122  11.370  14.320  12.359
51507W        W23123  44.627  37.188   2.290
51508W        W23124  21.739  28.029   4.565
51509W        W23125  44.707  36.694   1.432
51510W        W23126  10.471  31.488   2.199
51511W        W23127  39.001  38.830   4.129
51512W        W23128  38.833   0.277   4.705
51513W        W23129  11.163  40.321   0.861
51514W        W23130   9.738  33.957   1.432
51515W        W23131  33.931  34.009   3.182
51516W        W23132   0.278  42.011   1.750
51517W        W23133  14.135  42.179   4.542
51518W        W23134  34.890  38.882   2.628
51519W        W23135   1.941  27.676   3.283
51520W        W23136   9.373  10.730  13.982
51521W        W23137  36.969  30.962   1.864
51522W        W23138   2.669  38.937  11.480
51523W        W23139  43.103   8.028  14.895
51524W        W23140   7.627  20.492   1.426
51525W        W23141  11.373  28.401  13.907
51526W        W23142  34.352  10.685   0.306
51527W        W23143  27.461   0.140  11.521
51528W        W23144  43.739  25.171  13.955
51529W        W23145  19.255  12.336  14.745
51530W        W23146  18.687  15.110   1.676
51531W        W23147   7.740  43.840   1.669
51532W        W23148  20.162   3.361  12.323
51533W        W23149  25.573  18.370  13.377
51534W        W23150  16.072  21.293  11.137
51535W        W23151  23.092  37.211   3.217
51536W        W23152  16.142  35.128  12.902
51537W        W23153  36.051  16.615  10.715
51538W        W23154  35.310   9.428   0.864
51539W        W23155  24.253  20.192   0.916
51540W        W23156  35.946  18.381  13.891
51541W        W23157  25.144  38.934  11.940
51542W        W23158  28.494  34.383  12.864
51543W        W23159  18.195  39.022  12.655
51544W        W23160  31.492   5.971  14.524
51545W        W23161  31.595  23.707   2.663
51546W        W23162   7.388  19.665   0.811
51547W        W23163   6.815   9.881   2.918
51548W        W23164   0.358  41.819   4.104
51549W        W23165   8.759  29.943   0.261
51550W        W23166  37.399  24.375  11.388
51551W        W23167  26.200  42.825   4.247
51552W        W23168  40.771  22.766   0.961
51553W        W23169  37.493  17.835  10.905
51554W        W23170  30.106  36.225  13.323
51555W        W23171  35.976  27.800  11.889
51556W        W23172  36.671  40.434   2.439
51557W        W23173   0.206  40.409   0.302
51558W        W23174  43.929  37.529   5.043
51559W        W23175  26.628   8.749  12.793
51560W        W23176  40.530   2.013  11.574
51561W        W23177  37.748  11.752   2.298
51562W        W23178   5.833  15.970   0.013
51563W        W23179   2.777  41.529  14.238
51564W        W23180   6.759  13.373   3.366
51565W        W23181  17.014  21.105  11.499
51566W        W23182   4.376  17.493   1.877
51567W        W23183  29.695  20.108   0.284
51568W        W23184  24.955  34.324   3.245
51569W        W23185  21.609  35.352  10.402
51570W        W23186   2.319  37.664   2.913
51571W        W23187   6.436  39.979  13.027
51572W        W23188   7.296  40.981   4.462
51573W        W23189  34.187  26.892  11.985
51574W        W23190  20.510  21.064   4.010
51575W        W23191  19.478   9.740   3.716
51576W        W23192  20.662  31.474   4.397
51577W        W23193  20.447   4.686  12.026
51578W        W23194   7.574  39.604  11.137
51579W        W23195   4.478  16.775   4.156
51580W        W23196  14.590  25.641  12.024
51581W        W23197   0.320  15.781  10.301
51582W        W23198  40.329  24.226  14.777
51583W        W23199  24.259   5.207  11.969
51584W        W23200   6.191  32.966  13.396
51585W        W23201  41.199   4.970   1.953
51586W        W23202  13.498  39.991  11.648
51587W        W23203   6.932  32.046  11.490
51588W        W23204  25.273  16.816   2.736
51589W        W23205  37.235  12.701   1.396
51590W        W23206  38.201   8.805  10.837
51591W        W23207  39.897  25.010  11.641
51592W        W23208  42.023  36.450   4.603
51593W        W23209  26.736  23.707  11.724
51594W        W23210  30.620  14.643   1.782
51595W        W23211  29.914   4.430   3.021
51596W        W23212  15.289  35.404  13.026
51597W        W23213  42.632  41.655   4.230
51598W        W23214  11.804  21.169  14.279
51599W        W23215   1.989  33.064   3.232
51600W        W23216  23.928  27.976   1.929
51601W        W23217  31.874   3.049  13.036
51602W        W23218  21.251  43.286  13.965
51603W        W23219   8.001  12.784   3.568
51604W        W23220  16.675  26.480  10.704
51605W        W23221  32.391  43.471   2.823
51606W        W23222  18.609  25.195   1.908
51607W        W23223  42.282  10.436   4.555
51608W        W23224  37.911   6.369  13.501
51609W        W23225   3.941  27.367   2.270
51610W        W23226  36.320  42.514   2.819
51611W        W23227  29.601  37.471   3.373
51612W        W23228  26.112  29.379  11.258
51613W        W23229  20.198  21.256  10.764
51614W        W23230  38.443  40.836   1.553
51615W        W23231  34.279  41.876   1.314
51616W        W23232  28.403  24.773   0.701
51617W        W23233  13.074   9.109   2.319
51618W        W23234  22.785  36.379   4.080
51619W        W23235  22.836   5.684   4.094
51620W        W23236  35.506  39.539  14.814
51621W        W23237   2.391  38.047  13.523
51622W        W23238  24.757  30.301  14.954
51623W        W23239  14.564   5.932   0.801
51624W        W23240   5.164  24.803  14.785
51625W        W23241   7.728   1.680  12.459
51626W        W23242  21.288  27.215   3.673
51627W        W23243  19.121  20.735  11.858
51628W        W23244  17.722   4.258   4.455
51629W        W23245   2.511  34.000  10.626
51630W        W23246  28.689  33.093   3.816
51631W        W23247  28.574  17.817   2.245
51632W        W23248  19.662  17.349  13.515
51633W        W23249  28.972  35.487   0.985
51634W        W23250  20.825  27.773   3.671
51635W        W23251  37.539  30.039  10.731
51636W        W23252  42.587  42.258  14.896
51637W        W23253  13.857  11.598   3.899
51638W        W23254  35.564   1.284   0.720
51639W        W23255  16.365  27.881   2.458
51640W        W23256  17.633  28.124  13.555
51641W        W23257  12.561  34.323  13.836
51642W        W23258  16.179  41.566   2.348
51643W        W23259   1.450  38.792   1.485
51644W        W23260   9.680   4.465   4.001
51645W        W23261  21.814  11.798  12.922
51646W        W23262  20.113  26.966   4.236
51647W        W23263   4.815  25.419   1.330
51648W        W23264  42.078  24.539   4.492
51649W        W23265  19.691   8.600  14.506
51650W        W23266  38.539   7.050   5.007
51651W        W23267  38.226  10.140   5.010
51652W        W23268  37.838  29.005  11.431
51653W        W23269  25.764  19.106   5.259
51654W        W23270  37.852   1.760  11.285
51655W        W23271  38.449  31.213  14.031
51656W        W23272  43.923   9.593  10.682
51657W        W23273  26.769  17.777   3.208
51658W        W23274  19.778  25.655  13.883
51659W        W23275   0.404  10.619   1.364
51660W        W23276  31.435  15.034  12.328
51661W        W23277  43.603  44.757  11.979
51662W        W23278   5.723  42.265  13.482
51663W        W23279   9.727  19.540  14.973
51664W        W23280   1.669   0.906  11.048
51665W        W23281  18.824  37.613   2.538
51666W        W23282  22.929  36.258   3.109
51667W        W23283  30.135  23.816  14.922
51668W        W23284   6.251   8.157   2.153
51669W        W23285  22.971   3.844   3.399
51670W        W23286  35.438  41.208   2.015
51671W        W23287  43.516  11.407   1.127
51672W        W23288  43.259   8.473   0.186
51673W        W23289  30.956  38.777   4.706
51674W        W23290  44.885   7.098   3.685
51675W        W23291  16.098  23.467   2.394
51676W        W23292  34.424  33.814  10.545
51677W        W23293  37.044  32.191  12.023
51678W        W23294  34.662  10.852  14.887
51679W        W23295  21.053   8.278  14.336
51680W        W23296  38.418   2.709   3.555
51681W        W23297  14.240  19.720  12.157
51682W        W23298  34.005  26.109   0.763
51683W        W23299  43.389  17.516   1.775
51684W        W23300  24.221  12.802  10.327
51685W        W23301  33.805   1.283  12.959
51686W        W23302   3.449   9.805  13.541
51687W        W23303   0.264  32.645  13.946
51688W        W23304  16.196  22.214  10.683
51689W        W23305  42.269  11.840   3.533
51690W        W23306  21.509  22.100  10.164
51691W        W23307  23.007  40.592  10.458
51692W        W23308  17.137  12.198   2.263
51693W        W23309  19.720  41.373   2.735
51694W        W23310  37.393   1.748  11.498
51695W        W23311  25.478  23.602   3.119
51696W        W23312  39.472   2.734   1.434
51697W        W23313  28.389  41.851  11.623
51698W        W23314  41.698   9.674   0.314
51699W        W23315   3.389  31.873   0.984
51700W        W23316  40.940   4.538   4.220
51701W        W23317  19.075  25.057  10.646
51702W        W23318  14.274   0.233  12.295
51703W        W23319  41.291   1.928   1.797
51704W        W23320  20.627  43.071   4.104
51705W        W23321   5.697   1.434   4.294
51706W        W23322  39.315   1.435  14.483
51707W        W23323   6.723  24.403  13.533
51708W        W23324  21.641  29.119   3.773
51709W        W23325  34.149  25.959   3.727
51710W        W23326   3.681  23.997   0.264
51711W        W23327  36.261  11.979   1.661
51712W        W23328  42.092  11.114   0.311
51713W        W23329  41.325  17.310   0.885
51714W        W23330  30.646  14.113   1.720
51715W        W23331   7.588   0.552   2.594
51716W        W23332  16.002  41.120   3.566
51717W        W23333  32.146  35.111  11.911
51718W        W23334  20.639   1.960   4.592
51719W        W23335  33.064   3.621   0.219
51720W        W23336  31.642  10.406  13.237
51721W        W23337  31.059  20.143  10.851
51722W        W23338  42.415  25.944   2.952
51723W        W23339  24.650   5.341   3.680
51724W        W23340  30.201  31.961  11.546
51725W        W23341  31.537  10.799   4.532
51726W        W23342  39.708  19.098   4.549
51727W        W23343  25.133  34.505   2.433
51728W        W23344   7.839   2.001  10.728
51729W        W23345  22.404  26.021  14.361
51730W        W23346  31.093  19.223   4.668
51731W        W23347  15.123  16.102  12.876
51732W        W23348  18.756  34.645   0.416
51733W        W23349  30.922   0.640   3.589
51734W        W23350  35.127  32.665  10.719
51735W        W23351  35.437  39.724   3.126
51736W        W23352  42.044  15.306  11.541
51737W        W23353  42.431   9.636  12.552
51738W        W23354  27.501   4.308  14.959
51739W        W23355  21.084  25.209  13.258
51740W        W23356  28.619   7.917  10.695
51741W        W23357  29.914  27.858  14.866
51742W        W23358   3.855  31.043  13.787
51743W        W23359  27.888   7.893  14.431
51744W        W23360   8.222  23.996   3.816
51745W        W23361  27.625  43.611   0.012
51746W        W23362  25.690  44.468   3.808
51747W        W23363  14.240  25.111  12.854
51748W        W23364  19.427  10.160  12.017
51749W        W23365   2.529  22.069  10.279
51750W        W23366   4.380  13.131   4.150
51751W        W23367  30.396  14.042  12.192
51752W        W23368  34.656  22.382  12.030
51753W        W23369  42.037  35.878   3.302
51754W        W23370  22.741  43.457  13.943
51755W        W23371  39.862   1.301   1.940
51756W        W23372   3.127  40.381   1.339
51757W        W23373  42.731  30.139  11.903
51758W        W23374  23.201  37.814  13.264
51759W        W23375  35.751  35.305  12.098
51760W        W23376  31.437   4.316   4.702
51761W        W23377   3.477  24.243   0.930
51762W        W23378   3.868   2.319  13.062
51763W        W23379  16.089  12.816  12.030
51764W        W23380  27.174  19.234   4.444
51765W        W23381  25.551  21.734  11.715
51766W        W23382  42.028  18.799   2.456
51767W        W23383  27.938  43.092  13.480
51768W        W23384  14.786   9.638  10.604
51769W        W23385  15.519   4.713  13.445
51770W        W23386   9.956  26.828  12.992
51771W        W23387  15.721  15.829  13.517
51772W        W23388   8.423  31.644  11.196
51773W        W23389   4.646  12.573   1.620
51774W        W23390  28.616  28.187  12.654
51775W        W23391  15.163  10.252  10.374
51776W        W23392  19.176  23.094   1.880
51777W        W23393  40.473  19.605   2.960
51778W        W23394  42.984  44.516   5.055
51779W        W23395  22.662  12.632   1.369
51780W        W23396  11.390  16.304  12.297
51781W        W23397  31.592  11.205  10.774
51782W        W23398  21.503   5.546  10.913
51783W        W23399   7.500  43.649  14.390
51784W        W23400  36.511  36.877  13.950
51785W        W23401  22.934   6.877   1.798
51786W        W23402  39.018  21.674   3.305
51787W        W23403  42.931  30.200  12.691
51788W        W23404   8.857  28.600   3.201
51789W        W23405  21.075  29.417   2.697
51790W        W23406  18.331   0.225   1.980
51791W        W23407   0.893   1.850   0.997
51792W        W23408  30.216  37.516  12.605
51793W        W23409  43.289  38.422  13.504
51794W        W23410   8.320  25.245   0.987
51795W        W23411   5.379  31.907   2.362
51796W        W23412  15.961   4.128  10.153
51797W        W23413   8.851  21.467  12.975
51798W        W23414  21.563  31.532   4.320
51799W        W23415  32.340  27.130  10.418
51800W        W23416  40.153   3.935  13.893
51801W        W23417  22.579  12.234  14.867
51802W        W23418  30.385  29.263   4.551
51803W        W23419   7.870  40.537  10.482
51804W        W23420   6.912   4.773   0.295
51805W        W23421  27.859  39.577  14.002
51806W        W23422  18.543   8.241  14.569
51807W        W23423  14.057  22.616   0.448
51808W        W23424  35.266   8.598  11.439
51809W        W23425  29.527  32.743  11.111
51810W        W23426   5.487  35.557  13.949
51811W        W23427   1.166  24.526  10.216
51812W        W23428  19.296  16.149   1.536
51813W        W23429   9.876  18.209  12.037
51814W        W23430  11.978  38.855   1.735
51815W        W23431  22.747  38.607  13.448
51816W        W23432  41.390  37.544   2.787
51817W        W23433   9.666  30.193   0.411
51818W        W23434  28.676  18.629  11.091
51819W        W23435  26.859  21.709   3.740
51820W        W23436   3.710  30.672   0.585
51821W        W23437   2.220  33.533   3.344
51822W        W23438  35.200   3.773   4.191
51823W        W23439   2.244  44.499  12.858
51824W        W23440  16.092   2.404  13.972
51825W        W23441   6.510  44.499  11.173
51826W        W23442  24.267  31.214   2.331
51827W        W23443  40.793  14.085  12.108
51828W        W23444  31.192   3.325   4.290
51829W        W23445  21.731  43.835  14.470
51830W        W23446  42.874  35.258   0.892
51831W        W23447  22.665  36.393  13.334
51832W        W23448   4.424  32.953  14.786
51833W        W23449  18.858  12.134   4.447
51834W        W23450  32.659  19.117   1.155
51835W        W23451   1.413  19.448   1.515
51836W        W23452  24.232  14.757   1.304
51837W        W23453  27.263   4.416  11.067
51838W        W23454  21.207  27.634   4.007
51839W        W23455  25.912  23.174   1.360
51840W        W23456   1.959   6.977  13.040
51841W        W23457  34.161   1.850   0.923
51842W        W23458  25.939   9.609  12.013
51843W        W23459  10.201  43.372   2.480
51844W        W23460   7.652  23.411   2.636
51845W        W23461  27.452  31.608  12.380
51846W        W23462  24.983   4.684   4.886
51847W        W23463  28.119  26.488  11.478
51848W        W23464   9.841  28.028   1.697
51849W        W23465  36.694  28.588  11.421
51850W        W23466  34.934   9.372  13.419
51851W        W23467  30.396  16.279  12.494
51852W        W23468   2.326  30.432   4.117
51853W        W23469  33.636   8.331   2.257
51854W        W23470  29.462  32.667  12.071
51855W        W23471  32.215   4.828  11.996
51856W        W23472  13.877  18.103  10.637
51857W        W23473  12.308  41.750   3.714
51858W        W23474  16.796   6.824   2.348
51859W        W23475  23.600   4.416   3.106
51860W        W23476  29.107   6.900   1.895
51861W        W23477  35.549   1.333   3.976
51862W        W23478  42.761  39.504  10.345
51863W        W23479  44.908  26.344  12.602
51864W        W23480  36.053  37.335  10.588
51865W        W23481  26.652  40.611  14.298
51866W        W23482  24.059  39.918  14.236
51867W        W23483  36.450  39.324  14.503
51868W        W23484   2.432  29.105   4.101
51869W        W23485  44.461  32.897  13.594
51870W        W23486   1.845  26.504  10.626
51871W        W23487  29.944  13.230  12.342
51872W        W23488  21.585   0.795   2.757
51873W        W23489  34.553  34.452   4.267
51874W        W23490  36.030  40.558  12.285
51875W        W23491  13.900  44.242   3.249
51876W        W23492  23.595   1.693  12.443
51877W        W23493  28.937  10.810  13.124
51878W        W23494  43.758  11.287  11.425
51879W        W23495  41.813  40.854  11.151
51880W        W23496  36.026   5.409   4.063
51881W        W23497   8.569  37.612  10.322
51882W        W23498  21.508  10.070  12.485
51883W        W23499  11.565   2.776  13.580
51884W        W23500  14.613  33.902   4.053
51885W        W23501   0.650  17.585   0.973
51886W        W23502   9.917  30.663  12.658
51887W        W23503  12.141  37.772  11.907
51888W        W23504  44.468  43.846  12.654
51889W        W23505  17.100  34.938   3.992
51890W        W23506  29.403  35.169  11.664
51891W        W23507  29.414  26.087   1.971
51892W        W23508  37.161  16.085   1.183
51893W        W23509   9.296   7.435  11.523
51894W        W23510  31.023  21.850  14.413
51895W        W23511  21.433  23.160   0.939
51896W        W23512  18.340   1.463   2.072
51897W        W23513   7.788  12.315  11.602
51898W        W23514  12.361  30.557   2.899
51899W        W23515  12.836  10.085  14.480
51900W        W23516  37.804  10.336  12.043
51901W        W23517  12.871  32.067  14.581
51902W        W23518  19.307  26.973   3.711
51903W        W23519   9.207   4.897  13.291
51904W        W23520  30.494  31.704   4.554
51905W        W23521  21.597  24.798   1.324
51906W        W23522  21.425  40.535   2.745
51907W        W23523   8.576  35.051  11.572
51908W        W23524   6.798   9.870  10.737
51909W        W23525   5.178  19.252  10.444
51910W        W23526  12.647   3.261   0.364
51911W        W23527  10.190  17.227  12.595
51912W        W23528  20.108  10.845   0.103
51913W        W23529   0.990   1.258   3.670
51914W        W23530  33.454  14.107   4.019
51915W        W23531  17.172   3.485   4.924
51916W        W23532  35.020  29.872  11.228
51917W        W23533  33.534  29.549   2.315
51918W        W23534  24.836  18.764   4.178
51919W        W23535  44.517  44.023  14.457
51920W        W23536  18.710  36.585   2.475
51921W        W23537  28.218  25.503  12.488
51922W        W23538  40.951  11.237  10.735
51923W        W23539  18.887  25.132   3.761
51924W        W23540  12.587  33.928   0.490
51925W        W23541  44.688  31.669   3.529
51926W        W23542  16.099   7.672  13.800
51927W        W23543  42.605   4.443  12.435
51928W        W23544   3.054  25.569   5.928
51929W        W23545  30.405   5.205  10.855
51930W        W23546  10.128   1.972   2.036
51931W        W23547  33.943  25.659   1.916
51932W        W23548  21.113  22.925  11.476
51933W        W23549   1.093  17.335  14.832
51934W        W23550   0.710   5.394   1.800
51935W        W23551  37.878  30.141   3.375
51936W        W23552  42.658  24.742   3.283
51937W        W23553  18.284   5.132  14.707
51938W        W23554  27.572  27.518   2.358
51939W        W23555   3.093  40.044  11.119
51940W        W23556  37.984   9.285  13.007
51941W        W23557  38.239   3.216  11.689
51942W        W23558   5.258  16.258   4.439
51943W        W23559   8.916   0.257  12.435
51944W        W23560   8.760   0.722   4.508
51945W        W23561   8.111  35.539   4.050
51946W        W23562  24.873  17.183  13.607
51947W        W23563  20.706   4.879   0.555
51948W        W23564  26.922  29.610   2.522
51949W        W23565   3.261  11.676  13.403
51950W        W23566   6.507  36.763   4.592
51951W        W23567   4.956   6.747  14.021
51952W        W23568   5.885  37.801   4.093
51953W        W23569  17.651   2.422   4.909
51954W        W23570  18.417  38.164  11.127
51955W        W23571  22.898  39.966  13.752
51956W        W23572   5.379  29.348   3.157
51957W        W23573  22.571  38.016  14.483
51958W        W23574  17.926   5.476  11.598
51959W        W23575  16.801  19.991   1.345
51960W        W23576  41.336   2.674   2.884
51961W        W23577   7.310   2.486   0.803
51962W        W23578  29.916  35.924   3.670
51963W        W23579   4.211  41.261  11.198
51964W        W23580   3.997   2.187   3.239
51965W        W23581  19.585  14.888  11.151
51966W        W23582   9.675  14.280   1.802
51967W        W23583  17.586   6.116   3.496
51968W        W23584  23.720  23.251  13.391
51969W        W23585  36.086  24.681   3.694
51970W        W23586  16.778  14.153  14.011
51971W        W23587  40.339  35.413   3.850
51972W        W23588  40.129  41.356   3.235
51973W        W23589  40.525  38.899  11.728
51974W        W23590  19.701  43.510   4.623
51975W        W23591   4.388  33.667   0.488
51976W        W23592  15.821   8.777  13.888
51977W        W23593  11.919  14.032   1.297
51978W        W23594   1.531  17.004  14.838
51979W        W23595   9.951  30.354   2.700
51980W        W23596  25.090  42.348   1.398
51981W        W23597  34.572  28.565   0.033
51982W        W23598  42.533   4.941  12.390
51983W        W23599  38.827  43.450  13.190
51984W        W23600  42.508  15.143  13.355
51985W        W23601  39.752  43.847  14.056
51986W        W23602  28.999  26.550   0.090
51987W        W23603  38.103  34.931   1.958
51988W        W23604  30.963  26.082   4.156
51989W        W23605  19.802  26.889   3.842
51990W        W23606  20.382   9.197   2.634
51991W        W23607  19.244  23.403   1.484
51992W        W23608  22.248   3.935   2.360
51993W        W23609  30.171  15.905   3.685
51994W        W23610  37.298  37.001   1.551
51995W        W23611   5.751   1.216   2.738
51996W        W23612  16.616  20.535  14.816
51997W        W23613  25.670  41.976  11.941
51998W        W23614   8.254  25.692   0.732
51999W        W23615  18.268  36.959  12.994
52000W        W23616   0.625   0.731  13.091
52001W        W23617  43.380  22.169  12.801
52002W        W23618   0.419  10.189   3.429
52003W        W23619  28.542   3.425   3.253
52004W        W23620  20.580   2.725   0.168
52005W        W23621  11.254   4.973   0.912
52006W        W23622  36.484  24.246  14.700
52007W        W23623  19.243  20.812  11.350
52008W        W23624  32.150  18.304  11.612
52009W        W23625   5.431   6.572  12.528
52010W        W23626   7.732   5.791   2.192
52011W        W23627  11.588   7.886   0.642
52012W        W23628  12.873  34.145  11.098
52013W        W23629  11.792  31.317  11.884
52014W        W23630   4.791  21.130   3.356
52015W        W23631  27.479   9.904   3.558
52016W        W23632  15.249   2.913  14.923
52017W        W23633  20.678   8.214  12.550
52018W        W23634   8.748  39.483   2.821
52019W        W23635  22.196   8.324  13.449
52020W        W23636  15.298  24.764   4.336
52021W        W23637   3.418  34.473  12.272
52022W        W23638  10.602  22.205   1.860
52023W        W23639  12.882  33.916  12.862
52024W        W23640  29.164  42.424  11.514
52025W        W23641  23.866  24.148   2.672
52026W        W23642  18.847  15.737   4.163
52027W        W23643  21.389   5.041  12.024
52028W        W23644  40.775   3.955  10.618
52029W        W23645   6.298  15.173   3.652
52030W        W23646   2.473  29.003   0.737
52031W        W23647  28.056  38.524   2.662
52032W        W23648   7.871  20.507  12.125
52033W        W23649   5.475  24.055   4.199
52034W        W23650  22.292   8.817   1.327
52035W        W23651   1.848   6.281   3.295
52036W        W23652  11.075  24.623   0.411
52037W        W23653  18.157  17.697   0.407
52038W        W23654  23.979  26.454  12.552
52039W        W23655  36.504   5.586  10.765
52040W        W23656  18.113  28.240  13.717
52041W        W23657  39.414  31.886  12.811
52042W        W23658   6.943  11.014   0.719
52043W        W23659  23.068  20.649   2.831
52044W        W23660  11.185  25.899  10.411
52045W        W23661  37.860   1.000   2.430
52046W        W23662  43.717  30.598   0.462
52047W        W23663   9.651  33.480   3.444
52048W        W23664  30.360  29.107   3.305
52049W        W23665   7.212   6.775   4.349
52050W        W23666  21.749  24.852  12.477
52051W        W23667  10.915  29.358  14.054
52052W        W23668  32.112  13.650  13.404
52053W        W23669  17.244  36.781   3.423
52054W        W23670  36.494  22.960  10.584
52055W        W23671  14.183  41.194  11.544
52056W        W23672   1.364  35.607  11.678
52057W        W23673  16.171  15.736  11.516
52058W        W23674  23.623   1.601   0.933
52059W        W23675  32.808   1.527   4.973
52060W        W23676  30.469  37.985   1.146
52061W        W23677  20.165  17.753  11.368
52062W        W23678  13.316  43.836  13.439
52063W        W23679   5.778  29.177  11.713
52064W        W23680  35.040  43.881  10.382
52065W        W23681  29.969  20.605   0.833
52066W        W23682   2.429  34.085   0.361
52067W        W23683  27.580  10.725   2.313
52068W        W23684  28.338  10.855   1.886
52069W        W23685  44.740  37.024   4.084
52070W        W23686  29.713  23.590  11.120
52071W        W23687   4.176   6.650  12.381
52072W        W23688  27.892   2.914  12.428
52073W        W23689  42.462  16.674   4.305
52074W        W23690  33.597   1.815  13.582
52075W        W23691  27.032  41.119   1.667
52076W        W23692   7.346  17.907  13.143
52077W        W23693  33.975  41.029   4.668
52078W        W23694  38.674  32.102  11.423
52079W        W23695   2.234  11.211  10.785
52080W        W23696  18.639  14.260  14.766
52081W        W23697  22.534  26.025  11.082
52082W        W23698  30.145  34.255   0.831
52083W        W23699  14.135   4.672  10.641
52084W        W23700  18.764   9.382   1.775
52085W        W23701   5.438   5.913  11.441
52086W        W23702  41.314   5.730   3.300
52087W        W23703  41.490  22.849   2.525
52088W        W23704  25.539   9.304  11.503
52089W        W23705  42.412  13.149  13.559
52090W        W23706  17.789  20.038  13.092
52091W        W23707  38.025   6.071  12.099
52092W        W23708  25.988   9.941   2.697
52093W        W23709  26.596   5.715  14.402
52094W        W23710  43.288  26.426  11.477
52095W        W23711  41.392  37.063   4.399
52096W        W23712   6.071  37.805   3.211
52097W        W23713  15.695  29.058   4.114
52098W        W23714  10.102  34.371  10.978
52099W        W23715  38.802  42.378   2.190
52100W        W23716  15.685   9.940   3.552
52101W        W23717  29.987   5.320   1.815
52102W        W23718  21.068  39.574   2.378
52103W        W23719  28.419  14.686   0.333
52104W        W23720   6.526   3.680   2.284
52105W        W23721  19.338  42.861   4.480
52106W        W23722  10.353  43.916  11.497
52107W        W23723  43.355  36.326   2.217
52108W        W23724  34.382  10.178  11.545
52109W        W23725  10.598  37.345   4.171
52110W        W23726   0.833  28.091   2.006
52111W        W23727  32.607  27.221   0.317
52112W        W23728   1.849  24.264  11.752
52113W        W23729  31.889  40.586   3.551
52114W        W23730  13.518  34.472  11.575
52115W        W23731  28.067  12.873   2.202
52116W        W23732  23.183  16.240   2.599
52117W        W23733  23.160  23.710   0.448
52118W        W23734  27.481  35.048  10.542
52119W        W23735  26.497  17.149   2.891
52120W        W23736  41.537  42.648   3.603
52121W        W23737   8.949  10.106   4.434
52122W        W23738  17.247  10.843   1.908
52123W        W23739  24.615  44.769  14.108
52124W        W23740   4.496  43.810  11.549
52125W        W23741  14.932   4.374   5.284
52126W        W23742   8.781  23.831  14.739
52127W        W23743  35.824  10.585  11.970
52128W        W23744  16.695  38.630   0.834
52129W        W23745   5.674  37.904   1.436
52130W        W23746  35.048  39.805  11.635
52131W        W23747  23.138   4.769   0.959
52132W        W23748  26.518  10.693  12.157
52133W        W23749  17.039   0.854  11.158
52134W        W23750  14.728  30.835   1.032
52135W        W23751  43.697  36.862  10.728
52136W        W23752   1.584  14.827  14.477
52137W        W23753  19.260  31.463  13.548
52138W        W23754  20.265  10.079   1.310
52139W        W23755  23.636  34.469   2.366
52140W        W23756  43.510   2.498   0.242
52141W        W23757   5.490  14.900   4.255
52142W        W23758   5.459   8.874  11.483
52143W        W23759  36.127  23.201   4.707
52144W        W23760  39.226  21.418   4.783
52145W        W23761   4.984  36.515  12.092
52146W        W23762  38.476  22.952   4.638
52147W        W23763  41.698  36.599   0.923
52148W        W23764   7.001  41.854  12.860
52149W        W23765   0.038  12.388   4.199
52150W        W23766   7.333  12.061   1.872
52151W        W23767  21.634  32.216  14.848
52152W        W23768  22.145   9.743   2.896
52153W        W23769  38.449  24.627   1.505
52154W        W23770  22.514   8.161  11.703
52155W        W23771  10.626  26.605   2.770
52156W        W23772  43.102  33.850   3.168
52157W        W23773  31.644  43.975  10.958
52158W        W23774   2.403   5.729  11.569
52159W        W23775  16.303  14.338  14.020
52160W        W23776  13.268  41.767   1.275
52161W        W23777  19.085  18.717   0.456
52162W        W23778  31.132  10.235   2.322
52163W        W23779  33.013   4.372  13.309
52164W        W23780  33.026  18.277   2.671
52165W        W23781  38.867   3.928  11.072
52166W        W23782   0.791  10.281   0.728
52167W        W23783   5.605   1.730  11.686
52168W        W23784  42.019  19.642   2.067
52169W        W23785  25.929  32.640  14.935
52170W        W23786   9.292  32.610  13.629
52171W        W23787  16.205  44.636  11.021
52172W        W23788  25.096  32.564   2.909
52173W        W23789  20.013  17.083   3.361
52174W        W23790  35.455   1.281   4.682
52175W        W23791  13.540  14.839   4.064
52176W        W23792  17.880  41.395  13.981
52177W        W23793   5.145  36.062   0.441
52178W        W23794  37.558  24.777  10.602
52179W        W23795  28.459   2.561  14.187
52180W        W23796   1.447  20.206   1.950
52181W        W23797  44.489   7.916  13.302
52182W        W23798  20.112  16.303   1.587
52183W        W23799  19.594   8.734   4.331
52184W        W23800   8.599  20.561  14.462
52185W        W23801  23.270  28.123   2.332
52186W        W23802   1.641  33.921   3.604
52187W        W23803  18.727  40.347  10.004
52188W        W23804   1.213  15.562   4.150
52189W        W23805   0.245   1.070  13.009
52190W        W23806  21.271  34.187   1.709
52191W        W23807  17.268  37.485  12.478
52192W        W23808  21.023  35.127   4.152
52193W        W23809  20.281  21.026   4.486
52194W        W23810  35.889   2.819  13.473
52195W        W23811  31.518   5.132  14.775
52196W        W23812   2.563   0.368  10.224
52197W        W23813  19.782   2.065   2.883
52198W        W23814  21.486  23.116   3.637
52199W        W23815  11.123  10.823   4.054
52200W        W23816  33.673  34.302   0.270
52201W        W23817  29.630   0.287   1.266
52202W        W23818  38.002  33.629   3.729
52203W        W23819  34.534  32.467   3.052
52204W        W23820  14.086  34.008   2.771
52205W        W23821   9.033  40.821   2.410
52206W        W23822  23.103  41.799  12.489
52207W        W23823  37.541   9.498  14.982
52208W        W23824  28.780   1.862   0.764
52209W        W23825  29.269  14.992  14.121
52210W        W23826  42.100  13.650   3.853
52211W        W23827   0.404   1.288   0.493
52212W        W23828  21.017  35.949  12.343
52213W        W23829  41.452  42.211   2.722
52214W        W23830  12.269   1.500  12.885
52215W        W23831   4.265   8.261  11.946
52216W        W23832  35.958  12.733   4.633
52217W        W23833  21.742  13.612   4.606
52218W        W23834  12.870   3.361   2.765
52219W        W23835   5.833   2.385  13.422
52220W        W23836  27.756  37.812  14.889
52221W        W23837  39.365  43.950  14.400
52222W        W23838  13.877  43.707   2.338
52223W        W23839  15.714  19.287  14.181
52224W        W23840   8.842  18.504  14.608
52225W        W23841  33.481  31.937   3.167
52226W        W23842  31.738  14.353  11.215
52227W        W23843  32.559  26.030  13.144
52228W        W23844  26.229  21.111   2.249
52229W        W23845  11.353  31.859  14.402
52230W        W23846   4.889  42.153   3.709
52231W        W23847  28.084  32.688  13.439
52232W        W23848  24.441  16.391  12.126
52233W        W23849  44.828  14.675  10.529
52234W        W23850  40.917  10.285  10.835
52235W        W23851  19.999  18.072   3.592
52236W        W23852  32.929  28.557   4.647
52237W        W23853  18.703  11.707   0.781
52238W        W23854   7.129  11.818  14.770
52239W        W23855  19.650   8.100  13.125
52240W        W23856  10.220  39.618  11.211
52241W        W23857   0.351   0.357  10.608
52242W        W23858   6.629   2.811   3.271
52243W        W23859  27.159  38.012  11.202
52244W        W23860  43.973  16.801   1.975
52245W        W23861  30.054   2.201   0.920
52246W        W23862  36.081  42.062  12.603
52247W        W23863   0.851   9.863  11.098
52248W        W23864  31.319  22.585  11.544
52249W        W23865  15.594  10.665  12.402
52250W        W23866  14.863  27.595   0.441
52251W        W23867  27.786  42.685   0.082
52252W        W23868  15.216  15.764  14.255
52253W        W23869  11.207  15.690   0.999
52254W        W23870  44.294  38.746   1.834
52255W        W23871  29.142  31.908  11.118
52256W        W23872  16.389  28.581   3.617
52257W        W23873  24.962   1.756  11.668
52258W        W23874  31.691  17.232   3.733
52259W        W23875   3.707  35.615  13.564
52260W        W23876   4.635   3.122  12.984
52261W        W23877  10.874  40.781   3.088
52262W        W23878   3.435  31.339   4.043
52263W        W23879  26.073  25.205  14.311
52264W        W23880  39.621   3.924  13.979
52265W        W23881   3.803   2.663   1.043
52266W        W23882  33.390   1.369   3.735
52267W        W23883  43.850  27.391  12.132
52268W        W23884  27.356   0.710   2.745
52269W        W23885  33.944  40.230  10.753
52270W        W23886  44.859  24.240  10.833
52271W        W23887  40.108   1.250   4.235
52272W        W23888  29.392   1.315   2.175
52273W        W23889   6.738   4.442  13.037
52274W        W23890  34.443   2.031  10.619
52275W        W23891  27.097  36.359  14.390
52276W        W23892  42.830  28.252   1.659
52277W        W23893  17.715  32.024   2.719
52278W        W23894   7.923  11.330  14.370
52279W        W23895  42.524  41.498   3.250
52280W        W23896  40.640   5.708   9.900
52281W        W23897  35.342   9.788   4.088
52282W        W23898  35.753  18.707   2.338
52283W        W23899  17.289   8.926   5.138
52284W        W23900  18.507  11.483  14.495
52285W        W23901  17.782  37.571  12.431
52286W        W23902  14.788   9.751  14.383
52287W        W23903  41.359  34.892   3.282
52288W        W23904  14.199  11.027   1.330
52289W        W23905  21.434  13.800  12.539
52290W        W23906   4.195   4.269  14.716
52291W        W23907  37.156  23.920  14.006
52292W        W23908  10.087  25.452  12.090
52293W        W23909  10.328  38.548  12.375
52294W        W23910  24.002   7.413   2.446
52295W        W23911  23.842  33.152  11.075
52296W        W23912  38.811  34.392  14.949
52297W        W23913   6.169  15.862  12.388
52298W        W23914  30.036   5.159  13.086
52299W        W23915  42.712   2.726   1.428
52300W        W23916  36.486  18.218   4.046
52301W        W23917   1.026  16.352  13.072
52302W        W23918   5.752  30.620  11.951
52303W        W23919  12.866  43.033   4.538
52304W        W23920   2.766  34.345  12.765
52305W        W23921   4.897   1.170  14.382
52306W        W23922  31.161  17.802  14.255
52307W        W23923   8.989  22.837  14.024
52308W        W23924  43.820  16.988   3.395
52309W        W23925  44.525  36.491  12.951
52310W        W23926  20.060  12.607   2.131
52311W        W23927   0.898  44.307   4.920
52312W        W23928   4.921   3.938  10.622
52313W        W23929  37.328  15.562   5.091
52314W        W23930  13.024  27.108  11.449
52315W        W23931  42.071  41.932  12.167
52316W        W23932  11.142  38.851   3.673
52317W        W23933   3.410  35.645  11.648
52318W        W23934  17.860   5.678  13.007
52319W        W23935  22.644   0.266   3.261
52320W        W23936  41.848  22.030  11.642
52321W        W23937  22.577  30.632  14.527
52322W        W23938  18.595  21.904   3.341
52323W        W23939  24.576   6.287   2.640
52324W        W23940  13.205  15.790  14.327
52325W        W23941  19.905   7.012  12.130
52326W        W23942  18.971   7.053   2.700
52327W        W23943  26.313  41.111  10.334
52328W        W23944  30.082   7.937   2.190
52329W        W23945  42.897  23.114  11.432
52330W        W23946   9.966  25.484  10.764
52331W        W23947  25.645  11.669  11.128
52332W        W23948  31.698   2.698   0.353
52333W        W23949  21.209  12.806   4.690
52334W        W23950  10.911  37.368  11.695
52335W        W23951  39.991  23.475   3.707
52336W        W23952  30.625   2.896   4.079
52337W        W23953  18.595  37.858  10.465
52338W        W23954  35.097   7.171   3.399
52339W        W23955   2.977   7.432  12.204
52340W        W23956  23.906  18.719   1.673
52341W        W23957  12.058   4.228   5.078
52342W        W23958  26.844  16.585  11.208
52343W        W23959  20.546  13.385   3.586
52344W        W23960  35.294   9.867   4.596
52345W        W23961  17.698  34.314  12.044
52346W        W23962  26.004   8.817  13.534
52347W        W23963  32.451  26.652  10.638
52348W        W23964  18.068  29.202  12.914
52349W        W23965   3.213  15.598   2.844
52350W        W23966  19.125  29.354   2.073
52351W        W23967  33.040   5.706  13.808
52352W        W23968  31.040  39.283   3.197
52353W        W23969  13.899  37.045  14.831
52354W        W23970  25.075  11.245   4.593
52355W        W23971  37.855  36.786   0.028
52356W        W23972  21.015  38.393   4.580
52357W        W23973   7.814  26.129   2.325
52358W        W23974  27.458  16.521   4.199
52359W        W23975  33.047  13.360  14.483
52360W        W23976   8.582  34.894   3.646
52361W        W23977   8.400   5.717   3.796
52362W        W23978  31.513   9.831  12.570
52363W        W23979  12.142   2.416   2.474
52364W        W23980   2.431  12.621   4.985
52365W        W23981  36.437  23.256  14.449
52366W        W23982  36.283  35.364  12.564
52367W        W23983  43.881  11.639  12.178
52368W        W23984  24.732  23.449   0.734
52369W        W23985  29.129  15.266   0.445
52370W        W23986  41.037  16.669   1.385
52371W        W23987   1.901  23.755  14.844
52372W        W23988  31.524  42.653   4.550
52373W        W23989  18.285  31.946  11.423
52374W        W23990  27.595  30.019  11.155
52375W        W23991  41.462   9.648  14.864
52376W        W23992  27.653  31.170  12.585
52377W        W23993   3.636  24.998  12.592
52378W        W23994   1.271  42.100  12.938
52379W        W23995  26.483  14.018   4.233
52380W        W23996  11.464   2.290   1.175
52381W        W23997  33.627   3.950  14.846
52382W        W23998  21.061  23.638   2.170
52383W        W23999   3.907   7.705   0.036
52384W        W24000  14.694  26.385  14.598
52385W        W24001  44.835  16.927  13.191
52386W        W24002  24.256  37.297   2.585
52387W        W24003  15.582   1.948   1.008
52388W        W24004  33.775  40.210  11.506
52389W        W24005  42.045  15.716   0.338
52390W        W24006  22.535  36.073   2.305
52391W        W24007  42.868  24.296   3.290
52392W        W24008  24.306   8.176   4.587
52393W        W24009  44.334  37.142  14.944
52394W        W24010  16.183  27.730   1.760
52395W        W24011  14.790  12.838  14.118
52396W        W24012  14.770  25.084   1.450
52397W        W24013   6.469  41.095   1.865
52398W        W24014  42.987  13.617  13.577
52399W        W24015   3.961  28.841   0.878
52400W        W24016   0.338  44.960  13.686
52401W        W24017  29.234  14.151  13.342
52402W        W24018  14.317  39.929  10.305
52403W        W24019   0.540  37.596   1.140
52404W        W24020  14.357   8.964  12.091
52405W        W24021  27.193   9.134  11.151
52406W        W24022  12.355   7.772  11.953
52407W        W24023  17.127  38.460  13.956
52408W        W24024  35.467  42.857   5.110
52409W        W24025  13.088  35.899  11.360
52410W        W24026  27.442  15.191   2.723
52411W        W24027  25.951  22.580  12.010
52412W        W24028  11.538  30.592  14.745
52413W        W24029  33.118  21.278   1.268
52414W        W24030  30.084   4.303   4.036
52415W        W24031  31.633  37.623  12.604
52416W        W24032  32.671   4.548   1.023
52417W        W24033  32.831  15.521  12.170
52418W        W24034  40.749  12.320   1.391
52419W        W24035  22.150  19.748   4.041
52420W        W24036  10.619  19.090  13.405
52421W        W24037  26.962   4.284   0.882
52422W        W24038   7.249   7.488   3.701
52423W        W24039  44.314  33.622   1.445
52424W        W24040  25.603   9.576   3.391
52425W        W24041  34.025  42.076  11.191
52426W        W24042   4.236  42.823  13.855
52427W        W24043  44.139  38.995  14.789
52428W        W24044  19.521   5.910  10.110
52429W        W24045  39.909  27.703  11.193
52430W        W24046  41.414  14.377  13.174
52431W        W24047   2.933  41.287   3.384
52432W        W24048  42.318  39.327  14.715
52433W        W24049  32.071  23.602   0.539
52434W        W24050   3.616  12.740  13.980
52435W        W24051  44.070  22.488  11.612
52436W        W24052  39.016  24.272   2.681
52437W        W24053  44.284  13.170   2.275
52438W        W24054  33.989  13.103  14.475
52439W        W24055  37.731  18.812   0.464
52440W        W24056  17.324   6.903   4.560
52441W        W24057  27.445  15.975  10.525
52442W        W24058  38.446  44.476  13.339
52443W        W24059  17.972   8.680  11.101
52444W        W24060  23.694  15.904   4.527
52445W        W24061  13.869  29.050   4.601
52446W        W24062  36.948  16.915  13.338
52447W        W24063  38.030  22.473  11.966
52448W        W24064  27.450  32.493   4.148
52449W        W24065   0.770  19.342   4.126
52450W        W24066  42.695   3.142  13.991
52451W        W24067  13.645   7.356   0.512
52452W        W24068  23.359   3.039  13.607
52453W        W24069  35.338  17.603   2.853
52454W        W24070   8.978   7.986  13.402
52455W        W24071  30.594  30.129   3.190
52456W        W24072  12.447  23.018  12.345
52457W        W24073   7.856  34.384  12.432
52458W        W24074  16.517  44.970  10.233
52459W        W24075  33.471   9.835   3.143
52460W        W24076  21.797  40.928   0.900
52461W        W24077  17.842  45.000   0.001
52462W        W24078   2.222  18.234   3.904
52463W        W24079  28.453  11.219  12.470
52464W        W24080  16.117  15.098   3.366
52465W        W24081  38.927  43.906   4.090
52466W        W24082  28.870  40.040  14.819
52467W        W24083  43.530  23.296   2.237
52468W        W24084   3.761  15.647   2.687
52469W        W24085  40.797  17.539   1.884
52470W        W24086  15.388  31.721   3.034
52471W        W24087   5.661  25.246   2.158
52472W        W24088   2.993  33.420   2.868
52473W        W24089  31.702  11.131   2.247
52474W        W24090  41.371  34.724   1.498
52475W        W24091  25.558  43.915   2.616
52476W        W24092   4.395  35.141  12.464
52477W        W24093   2.163   1.886   0.486
52478W        W24094  40.467   7.872   0.756
52479W        W24095  12.848  27.884   1.712
52480W        W24096  35.497  11.020  10.357
52481W        W24097  26.988   9.181  10.691
52482W        W24098   4.244   2.470   4.547
52483W        W24099  41.149  25.154   4.924
52484W        W24100   6.396  27.674   1.441
52485W        W24101  26.094  34.019  10.385
52486W        W24102  36.983   8.460  11.100
52487W        W24103   2.774   8.397  13.847
52488W        W24104  36.605  36.532   1.181
52489W        W24105  28.720  43.511  11.873
52490W        W24106  16.296   9.266  13.061
52491W        W24107  38.184  44.873  13.978
52492W        W24108  25.312  19.677   1.502
52493W        W24109  27.556  29.840  13.981
52494W        W24110  40.536  43.393   3.401
52495W        W24111  11.350  41.828   2.283
52496W        W24112  26.711  40.417  10.651
52497W        W24113  44.696   4.453  11.864
52498W        W24114   8.111  38.427   3.342
52499W        W24115  44.186  18.544  12.988
52500W        W24116  19.323  36.889  12.035
52501W        W24117   2.047  41.713   2.747
52502W        W24118  35.564  17.715  12.562
52503W        W24119  13.258  14.159   2.222
52504W        W24120  41.949   4.748   2.661
52505W        W24121  28.522  16.343   2.285
52506W        W24122  43.323  16.867   3.919
52507W        W24123  30.955   4.969   1.978
52508W        W24124   1.064  29.627   2.633
52509W        W24125   7.857  37.902  11.677
52510W        W24126  40.822  28.446   0.853
52511W        W24127  27.024  19.692  12.501
52512W        W24128  44.079  12.591  11.177
52513W        W24129  32.598  13.679   1.903
52514W        W24130  30.129  19.929  10.644
52515W        W24131  36.569  33.859  10.746
52516W        W24132  17.302   9.870  13.961
52517W        W24133  13.472  43.862  14.430
52518W        W24134  44.501  24.278   1.390
52519W        W24135  18.509  17.616  10.590
52520W        W24136   3.316  38.178  12.931
52521W        W24137  42.488  33.311   1.401
52522W        W24138  39.382  13.711  12.908
52523W        W24139  29.914  20.286  13.486
52524W        W24140  19.569   9.220  11.592
52525W        W24141  18.083  40.055  12.477
52526W        W24142  14.044  23.270  13.013
52527W        W24143   3.796  35.841   4.141
52528W        W24144   1.980  26.365  13.328
52529W        W24145  38.606  11.071   4.153
52530W        W24146   1.262  44.797   2.645
52531W        W24147  22.453  41.879  13.591
52532W        W24148   7.379  37.568   1.372
52533W        W24149  24.831  17.090   3.499
52534W        W24150   7.152  13.823   0.342
52535W        W24151  30.917  32.337  12.948
52536W        W24152   5.832  36.013  14.674
52537W        W24153  41.703  26.683  10.688
52538W        W24154  18.219  21.369   2.738
52539W        W24155  31.638  38.324   1.876
52540W        W24156  22.144  16.246   0.888
52541W        W24157  17.814  27.141   4.758
52542W        W24158  41.414   8.142  10.718
52543W        W24159  36.334  13.718   1.818
52544W        W24160  29.222   5.706   2.172
52545W        W24161   9.643   6.047  13.046
52546W        W24162  18.842  19.243  11.581
52547W        W24163  34.023  22.995  11.109
52548W        W24164  16.825  15.318   0.206
52549W        W24165  18.632  31.840   3.351
52550W        W24166  31.454   9.413   1.138
52551W        W24167  30.513  31.847   2.814
52552W        W24168  23.060  37.010  14.783
52553W        W24169  35.150  38.340   1.922
52554W        W24170   4.428  26.093  11.499
52555W        W24171  16.661   0.323   3.353
52556W        W24172  26.611  34.962  11.555
52557W        W24173  31.467  27.776   1.777
52558W        W24174  27.206  36.077  13.979
52559W        W24175  29.159   6.000   4.541
52560W        W24176  27.692  44.150  12.538
52561W        W24177  16.665  34.694   3.830
52562W        W24178  19.892  26.040   1.121
52563W        W24179  41.041   6.921  12.937
52564W        W24180  36.555   4.980  12.238
52565W        W24181   5.882   3.271   1.322
52566W        W24182  39.402  18.998   3.084
52567W        W24183   6.402  28.523   2.012
52568W        W24184  17.711  12.171   0.952
52569W        W24185  26.263   4.687  13.496
52570W        W24186   1.017  19.004   1.877
52571W        W24187   7.298  38.217   1.795
52572W        W24188   0.961   9.772  14.716
52573W        W24189  15.810  26.883  14.604
52574W        W24190  44.393  35.596  13.066
52575W        W24191  37.351  17.928  11.482
52576W        W24192  21.129  24.774   4.119
52577W        W24193  31.057   1.244  13.364
52578W        W24194  28.061  28.857   4.042
52579W        W24195   0.484  17.533  14.036
52580W        W24196  27.553  34.360   1.294
52581W        W24197  32.179   2.221  11.995
52582W        W24198  34.775  30.732   2.744
52583W        W24199  18.689  44.847   3.801
52584W        W24200  16.576  35.714   3.781
52585W        W24201  19.975  28.524   0.133
52586W        W24202  29.393   8.448  13.083
52587W        W24203  14.966  27.114  14.591
52588W        W24204   5.712  38.492  11.143
52589W        W24205  14.363   4.897  10.235
52590W        W24206  44.125  30.015   0.074
52591W        W24207  44.930  42.514   2.699
52592W        W24208  15.593   5.335  10.337
52593W        W24209  14.171  42.161  11.119
52594W        W24210   2.844   7.437  14.004
52595W        W24211  27.154  23.522   3.255
52596W        W24212  21.634  42.211  13.427
52597W        W24213  35.161  16.371   3.074
52598W        W24214   2.656  44.843  14.367
52599W        W24215   9.270  36.559   4.434
52600W        W24216  34.464   2.704  13.609
52601W        W24217  21.325  28.692   0.494
52602W        W24218  32.065  40.002   1.369
52603W        W24219   7.949  34.092   2.903
52604W        W24220  35.103  28.195  10.165
52605W        W24221   6.132  31.650  13.417
52606W        W24222  14.581  27.139  11.448
52607W        W24223  23.989  16.397   3.213
52608W        W24224   3.791   1.230   1.011
52609W        W24225  35.309  35.340   2.920
52610W        W24226  10.410  39.368   4.592
52611W        W24227  39.387  22.850  12.086
52612W        W24228  28.919  11.296  12.886
52613W        W24229  31.951  18.106  13.931
52614W        W24230  37.537  36.290  10.557
52615W        W24231  26.841   1.565  14.869
52616W        W24232  43.601  11.144  14.212
52617W        W24233  13.872  35.117  14.942
52618W        W24234   3.921  32.388  13.545
52619W        W24235  10.322  13.618  11.496
52620W        W24236  20.785   8.549   3.731
52621W        W24237  14.235  10.723   0.430
52622W        W24238  32.972  30.355   3.243
52623W        W24239  43.554   2.435   1.210
52624W        W24240  24.652  34.353  11.167
52625W        W24241   0.464  33.441  14.370
52626W        W24242  43.531  34.153   1.250
52627W        W24243  28.061  36.180  14.044
52628W        W24244  21.706  20.718  12.275
52629W        W24245  18.479  12.730   1.785
52630W        W24246   3.293  30.212  12.269
52631W        W24247  12.360  24.748  12.018
52632W        W24248  27.234  24.464   4.344
52633W        W24249  29.093  33.780   0.814
52634W        W24250  41.315  10.725   3.381
52635W        W24251   1.299  13.639   4.615
52636W        W24252  15.574  26.963  10.998
52637W        W24253  13.061  31.705  11.961
52638W        W24254  35.544  44.305  14.521
52639W        W24255  17.616  33.204   1.116
52640W        W24256  34.441  17.840   1.201
52641W        W24257  26.459  21.043  10.880
52642W        W24258  19.240  30.034  14.775
52643W        W24259  29.609  24.141  13.944
52644W        W24260  15.116  28.072   2.776
52645W        W24261  33.686   2.898  10.371
52646W        W24262  28.510   4.711  14.383
52647W        W24263  40.754   4.700  11.867
52648W        W24264  37.268  36.595   0.729
52649W        W24265  31.994   3.857   1.722
52650W        W24266  39.557   2.777  14.316
52651W        W24267  18.615  41.741   0.439
52652W        W24268  13.406  24.522   0.152
52653W        W24269  10.246  14.750   2.222
52654W        W24270   3.755  40.136   0.278
52655W        W24271  37.000  22.086  14.248
52656W        W24272  28.470  42.033  12.127
52657W        W24273  27.479  36.760  12.407
52658W        W24274  44.689  43.462   2.898
52659W        W24275   5.083  26.043  11.072
52660W        W24276  44.034  44.790   0.359
52661W        W24277  17.248  29.797  13.992
52662W        W24278  28.567   4.371   1.387
52663W        W24279  25.149  10.387   1.690
52664W        W24280   3.258  23.094   0.640
52665W        W24281  44.433  22.250   0.454
52666W        W24282   6.302  35.089  13.564
52667W        W24283  28.507  10.663  12.208
52668W        W24284  43.349  30.455  12.926
52669W        W24285  36.059   2.880  10.600
52670W        W24286  24.242  17.113   1.877
52671W        W24287  40.298  35.227  11.522
52672W        W24288  22.989   8.768   4.610
52673W        W24289  39.051  28.639  12.881
52674W        W24290  28.481  44.453   2.183
52675W        W24291  34.430  11.509  14.098
52676W        W24292   8.691  13.702  12.191
52677W        W24293  17.753  13.573   1.222
52678W        W24294  24.647  38.815   3.336
52679W        W24295  17.693   0.039   2.692
52680W        W24296  23.408   1.879   2.430
52681W        W24297  19.691  14.226  13.900
52682W        W24298   5.324  41.520  12.370
52683W        W24299  13.321  16.078  13.903
52684W        W24300  25.721  16.094   9.994
52685W        W24301  29.639  21.103  11.637
52686W        W24302   1.987  42.974   1.819
52687W        W24303  40.478  26.120   2.027
52688W        W24304   2.577   0.688   2.199
52689W        W24305  28.535  11.857   0.418
52690W        W24306  33.401  35.409   4.370
52691W        W24307  11.752  37.513  11.654
52692W        W24308  26.534  29.510  14.794
52693W        W24309  41.830  14.275   3.333
52694W        W24310  28.284   7.296  12.834
52695W        W24311  28.355  18.801   2.218
52696W        W24312  37.666  10.771  13.006
52697W        W24313  40.083   0.276  10.708
52698W        W24314  11.072   2.846   3.735
52699W        W24315  28.470   3.670   0.586
52700W        W24316  41.884  13.470  14.310
52701W        W24317  29.906  28.988  11.594
52702W        W24318   6.889   3.890  13.823
52703W        W24319  16.004  38.736   2.866
52704W        W24320  26.172   5.301  14.698
52705W        W24321  28.632   3.355   0.216
52706W        W24322   7.998  13.839   1.777
52707W        W24323  28.163  15.994  12.815
52708W        W24324  10.393  18.548  13.904
52709W        W24325  26.975   6.114  11.971
52710W        W24326  19.143  35.051  10.914
52711W        W24327   1.532  21.487  13.016
52712W        W24328  19.024   7.717  13.641
52713W        W24329  12.632   2.745  14.322
52714W        W24330  43.224  31.925  10.701
52715W        W24331  15.235  15.868  13.327
52716W        W24332  30.601  19.203   1.854
52717W        W24333   3.243  20.232  12.859
52718W        W24334  39.403  16.304  13.094
52719W        W24335  36.368   1.322   1.884
52720W        W24336  18.541  32.295   1.383
52721W        W24337  44.435   5.489  12.626
52722W        W24338  17.756  15.537   1.280
52723W        W24339   8.420  39.792  14.257
52724W        W24340  11.589   7.672   4.881
52725W        W24341  20.344  20.983  10.254
52726W        W24342  44.968  19.794   2.733
52727W        W24343  17.339  37.554   2.734
52728W        W24344   3.655  35.603   1.894
52729W        W24345  10.829  10.293   4.518
52730W        W24346   2.814  22.595   4.173
52731W        W24347  39.516  27.641   1.892
52732W        W24348  44.584  30.940   1.268
52733W        W24349  20.298  19.798  13.448
52734W        W24350  12.323  21.512  12.592
52735W        W24351  17.056  16.344   3.746
52736W        W24352  14.719  40.969  13.842
52737W        W24353   4.689  10.393   1.307
52738W        W24354  15.083  26.247   4.565
52739W        W24355  35.622  34.531   3.343
52740W        W24356  41.538  43.336  12.337
52741W        W24357  35.499   6.706   4.904
52742W        W24358  32.190   1.348  13.857
52743W        W24359  17.735  33.092  11.911
52744W        W24360  39.504   4.715  11.089
52745W        W24361  44.078   4.124  12.409
52746W        W24362  34.469  37.591  13.358
52747W        W24363  20.741  32.578   4.453
52748W        W24364  44.544  23.070   3.744
52749W        W24365  44.298  42.034  14.406
52750W        W24366  31.304   4.204  12.097
52751W        W24367  29.893  17.103   4.521
52752W        W24368   8.790   8.915   5.005
52753W        W24369  16.156  27.546   0.820
52754W        W24370  15.628  42.951  10.424
52755W        W24371  20.656  18.708   0.769
52756W        W24372  26.610  37.883  13.029
52757W        W24373   3.130  40.865   2.270
52758W        W24374  41.531  40.319  12.455
52759W        W24375  14.549  14.785  11.530
52760W        W24376  33.669  16.666   0.076
52761W        W24377   9.860  12.594   3.618
52762W        W24378  30.919   9.595  13.375
52763W        W24379  26.249  31.539  12.055
52764W        W24380  22.234  25.518   1.362
52765W        W24381  17.673  37.375   4.567
52766W        W24382  29.466  16.166   4.243
52767W        W24383   4.735  26.444   1.217
52768W        W24384  16.206  10.801   1.677
52769W        W24385  40.756  38.117   3.734
52770W        W24386  20.407  42.988  14.580
52771W        W24387  29.432  33.990   0.440
52772W        W24388   3.913   4.635  14.390
52773W        W24389   5.826  21.869   2.721
52774W        W24390  34.969  20.273   3.722
52775W        W24391  40.366  35.972   1.035
52776W        W24392  28.047   9.728   2.853
52777W        W24393   8.402  22.903  10.937
52778W        W24394  35.330  16.290  11.126
52779W        W24395  21.292  16.861   2.771
52780W        W24396  27.864  27.157   2.169
52781W        W24397  17.251  11.594  13.455
52782W        W24398  34.434  33.951   4.379
52783W        W24399  42.875   4.145  12.102
52784W        W24400  13.635  19.895  11.026
52785W        W24401  23.626  30.509  10.630
52786W        W24402  16.846  41.345   3.255
52787W        W24403  36.505  16.495   4.557
52788W        W24404   9.093  25.483  14.205
52789W        W24405  21.153  24.960  12.809
52790W        W24406   0.624  42.050  14.344
52791W        W24407   4.168   1.519   4.600
52792W        W24408  10.676   1.410   4.256
52793W        W24409  27.345  39.427  10.614
52794W        W24410  33.485  22.780  14.767
52795W        W24411  11.234   3.377   0.122
52796W        W24412   1.065   9.195  10.591
52797W        W24413  24.531  22.047  13.832
52798W        W24414  34.296  13.763   1.042
52799W        W24415  18.476  14.252   4.091
52800W        W24416   8.429  21.518   2.403
52801W        W24417  19.559  14.441  12.091
52802W        W24418  37.230   3.321  12.884
52803W        W24419  27.523   5.685  14.402
52804W        W24420  41.944   7.643  10.895
52805W        W24421  39.101  16.677  14.472
52806W        W24422  17.697  41.407  13.476
52807W        W24423  11.810  17.178   3.323
52808W        W24424   7.250   6.856  14.490
52809W        W24425  42.062  24.421  11.562
52810W        W24426  14.977  22.658  10.742
52811W        W24427  33.159  36.022   1.146
52812W        W24428  34.454  20.472  13.156
52813W        W24429  19.074  31.215  12.556
52814W        W24430  42.724  24.953  13.939
52815W        W24431   2.814  26.493  14.312
52816W        W24432   4.866  19.164  14.965
52817W        W24433  43.383   6.101   4.161
52818W        W24434  11.860  24.689   0.889
52819W        W24435  27.095  26.064  11.989
52820W        W24436   6.109  31.119   3.796
52821W        W24437  36.065  14.840  10.638
52822W        W24438   5.183   4.816   2.731
52823W        W24439  44.331   5.371  12.136
52824W        W24440  11.712  23.096   2.907
52825W        W24441  13.093  43.626   1.888
52826W        W24442  16.135  11.286  14.025
52827W        W24443  20.208   6.470  12.062
52828W        W24444  41.851  26.017   2.971
52829W        W24445  32.562  31.648  11.137
52830W        W24446  25.549  32.658   3.774
52831W        W24447  11.606   0.497   1.223
52832W        W24448  41.989  28.064   4.515
52833W        W24449  34.641  44.948  14.034
52834W        W24450  22.226  13.253  13.941
52835W        W24451  17.558  11.898   0.167
52836W        W24452  42.464  12.343   1.798
52837W        W24453   0.708   9.717  14.274
52838W        W24454   2.474   6.358  13.417
52839W        W24455  40.208  20.936   3.347
52840W        W24456  25.496  26.871   1.820
52841W        W24457  42.162  16.610  12.923
52842W        W24458   5.327   6.640  11.159
52843W        W24459  31.456  41.047   1.390
52844W        W24460  23.739  29.494   0.706
52845W        W24461  37.466   8.575   3.748
52846W        W24462  36.488  41.788   1.983
52847W        W24463  10.091  32.579   1.357
52848W        W24464  24.050   2.372  13.917
52849W        W24465  27.202  25.539  12.572
52850W        W24466  15.765  17.348   1.293
52851W        W24467  41.857  31.030  10.839
52852W        W24468  33.458   5.463   2.843
52853W        W24469   5.811   0.944  13.996
52854W        W24470  36.872  27.037   3.805
52855W        W24471  30.684  20.027   2.409
52856W        W24472   5.545  38.489  12.567
52857W        W24473  11.674  35.872   0.917
52858W        W24474   4.902   2.550   3.028
52859W        W24475  25.397  40.465   4.986
52860W        W24476  22.559  13.648   0.353
52861W        W24477   8.877  24.213  11.225
52862W        W24478  32.363  18.727  14.474
52863W        W24479   0.251  22.507   5.093
52864W        W24480  30.865  31.019   2.038
52865W        W24481   1.037  43.608  10.764
52866W        W24482  11.821  23.582   4.172
52867W        W24483  42.439  31.472   0.808
52868W        W24484  18.895  39.618   2.769
52869W        W24485  16.573   9.505   3.961
52870W        W24486  16.051   2.374   3.899
52871W        W24487  11.111  15.718  12.464
52872W        W24488  11.204  12.179   0.237
52873W        W24489   2.698  33.978   3.705
52874W        W24490  36.974  10.173   3.328
52875W        W24491  42.432  17.570   4.428
52876W        W24492  33.785  37.595   5.163
52877W        W24493  24.006  32.062  14.272
52878W        W24494  13.097  22.111  13.429
52879W        W24495  34.473   1.144   3.060
52880W        W24496  37.065  18.991   4.560
52881W        W24497  31.469  10.764  14.983
52882W        W24498  24.504   8.673   0.241
52883W        W24499  21.208  37.377  12.775
52884W        W24500  37.667  31.600  10.472
52885W        W24501  42.470  28.624  10.814
52886W        W24502  30.368  40.268  14.367
52887W        W24503  44.533  22.863   2.742
52888W        W24504  16.507  12.218   4.406
52889W        W24505  43.372  15.274  11.821
52890W        W24506   0.941  19.691  10.777
52891W        W24507  28.104  40.061   1.186
52892W        W24508  21.624  10.145  13.505
52893W        W24509  27.544  13.705  14.893
52894W        W24510  17.145  12.900   0.834
52895W        W24511  18.680   0.863   3.569
52896W        W24512   4.282  38.284  14.821
52897W        W24513  27.924   9.915   3.850
52898W        W24514  20.675   8.221   4.642
52899W        W24515  43.406  41.864   0.014
52900W        W24516  33.649  28.600  13.875
52901W        W24517  20.513  24.691   0.364
52902W        W24518  36.375  25.957   1.774
52903W        W24519  21.678  24.390  14.353
52904W        W24520  40.353  11.723  14.710
52905W        W24521  35.872  38.403   4.338
52906W        W24522  28.460  24.439   1.071
52907W        W24523   6.135   3.872  14.328
52908W        W24524   2.547  11.775   4.070
52909W        W24525  29.735  14.384   0.218
52910W        W24526  35.894  24.135  14.996
52911W        W24527  43.269   8.633  11.208
52912W        W24528  32.398   5.127  14.862
52913W        W24529  18.191  27.186  11.628
52914W        W24530  25.614   5.349  14.732
52915W        W24531   0.360  35.351   2.879
52916W        W24532  21.083  43.860   2.264
52917W        W24533   1.017  21.962   4.973
52918W        W24534  29.499  11.269   4.080
52919W        W24535   1.280  29.950  12.148
52920W        W24536  18.696  21.478  13.216
52921W        W24537  15.156  20.583  11.151
52922W        W24538  43.917  19.102  14.925
52923W        W24539   9.777  17.481   3.817
52924W        W24540  22.024  21.027   0.295
52925W        W24541   3.766   1.976   4.929
52926W        W24542   8.352  13.478  10.759
52927W        W24543  24.273  27.922  13.485
52928W        W24544  12.277  40.872   0.269
52929W        W24545  15.592  28.938  13.940
52930W        W24546  17.909  31.931   2.216
52931W        W24547  20.659  22.446   1.269
52932W        W24548   9.811  37.090  12.612
52933W        W24549  38.239  40.853  11.246
52934W        W24550   3.334  29.055   3.269
52935W        W24551  15.257  22.128  14.837
52936W        W24552   7.728   4.889  12.893
52937W        W24553  40.299  42.821   4.576
52938W        W24554  25.207  30.568   3.803
52939W        W24555  33.509  11.573  11.178
52940W        W24556  12.131  25.658   1.888
52941W        W24557   0.441  29.531   3.393
52942W        W24558  21.047   8.893   3.101
52943W        W24559  19.802  37.455  11.605
52944W        W24560   7.914  17.651   3.182
52945W        W24561   5.618  34.050   0.154
52946W        W24562  21.632   8.348  12.112
52947W        W24563  22.185  11.593  11.889
52948W        W24564  44.609  12.447   4.553
52949W        W24565  39.804  40.991   4.154
52950W        W24566  30.405  32.568   3.149
52951W        W24567  44.009  39.142  13.377
52952W        W24568  38.758  12.241   0.951
52953W        W24569   6.500   1.957   4.601
52954W        W24570  10.355  36.945  10.192
52955W        W24571  14.354   8.302   2.391
52956W        W24572  35.404  37.565  14.785
52957W        W24573  25.607   9.824  11.530
52958W        W24574   8.507  31.702  12.915
52959W        W24575  15.711  44.450   2.871
52960W        W24576   2.192   3.278  11.164
52961W        W24577   4.381  37.383  11.062
52962W        W24578   3.299  42.504   4.651
52963W        W24579  35.964   2.818   1.293
52964W        W24580  28.864  19.649  11.154
52965W        W24581  20.806   8.948   1.165
52966W        W24582  39.524  28.633  11.386
52967W        W24583  41.692  26.941  12.514
52968W        W24584  33.345  39.348  14.789
52969W        W24585  30.400  37.297   4.150
52970W        W24586  29.220  10.086  12.038
52971W        W24587   6.215  15.013  11.117
52972W        W24588   0.547  15.162  12.036
52973W        W24589  19.815  25.040   2.554
52974W        W24590  43.436  42.719   4.325
52975W        W24591  14.488  23.976  13.557
52976W        W24592  31.519  11.905  13.518
52977W        W24593  39.509  10.655  14.383
52978W        W24594   5.333  36.326  12.516
52979W        W24595  36.692  40.835   1.765
52980W        W24596  43.013  10.887   4.557
52981W        W24597  36.093  32.731   4.611
52982W        W24598  18.223  40.625  14.102
52983W        W24599  42.729  29.710   1.370
52984W        W24600  15.799   4.906  11.067
52985W        W24601  22.623  30.129   1.855
52986W        W24602  25.215  32.696  12.981
52987W        W24603  25.476  16.682   2.218
52988W        W24604  29.940   5.860  14.318
52989W        W24605   3.597  41.517  13.034
52990W        W24606  15.844  41.389   0.788
52991W        W24607  42.019   1.458   1.970
52992W        W24608  30.525   3.128   3.623
52993W        W24609   9.215  40.251   0.024
52994W        W24610  23.249   3.412  13.965
52995W        W24611   4.897  32.385   1.861
52996W        W24612  35.370  25.143  14.205
52997W        W24613  21.035  19.689   0.301
52998W        W24614  11.654   5.470   0.247
52999W        W24615  36.058  21.314   1.866
53000W        W24616  24.995  12.321   0.391
53001W        W24617  36.954  21.651   1.330
53002W        W24618  17.263  36.496   1.302
53003W        W24619  37.348  24.726   1.409
53004W        W24620  42.800   4.318   0.212
53005W        W24621  34.409  13.596  14.012
53006W        W24622   2.424  39.403  11.576
53007W        W24623  12.282  28.883  11.150
53008W        W24624  26.137  18.202   3.158
53009W        W24625   9.134   4.734   1.405
53010W        W24626  30.726  35.926  11.525
53011W        W24627  10.950  32.434  11.553
53012W        W24628   5.225  43.638   0.409
53013W        W24629   7.183  24.168  10.795
53014W        W24630  35.606   8.197   4.344
53015W        W24631  21.271  21.911   4.050
53016W        W24632  33.025  40.589  13.908
53017W        W24633  18.370  23.001   2.091
53018W        W24634  16.703   8.512  10.812
53019W        W24635   5.502  13.311  11.984
53020W        W24636   8.539  41.302   3.134
53021W        W24637  18.764  33.150   0.315
53022W        W24638  22.542   8.460  14.003
53023W        W24639  44.728  23.746  12.358
53024W        W24640  35.616   2.541   4.061
53025W        W24641  14.062  37.503   2.174
53026W        W24642  16.205  25.135   4.696
53027W        W24643   9.062   8.300   0.937
53028W        W24644  26.227  22.271  14.701
53029W        W24645   7.901  10.114  13.562
53030W        W24646  31.433  24.131  14.279
53031W        W24647  10.133   8.493   1.842
53032W        W24648  42.166   0.985   2.210
53033W        W24649  31.497  14.896  11.732
53034W        W24650  38.340  37.504   2.848
53035W        W24651  19.999  14.301  11.857
53036W        W24652  20.080  22.880   2.377
53037W        W24653  14.646  12.868  12.574
53038W        W24654  28.897  24.610   1.390
53039W        W24655   2.003  20.780  14.701
53040W        W24656  35.890   0.532  12.572
53041W        W24657  24.743  26.534   0.261
53042W        W24658  26.880  23.000  13.082
53043W        W24659  34.843  26.858  14.282
53044W        W24660   1.311  28.720   1.405
53045W        W24661   8.657  17.265  10.473
53046W        W24662  40.037  42.832  12.458
53047W        W24663  15.207   9.356  10.734
53048W        W24664  22.807   6.809  14.465
53049W        W24665  21.671  18.138   3.389
53050W        W24666   4.908   4.260  11.014
53051W        W24667   0.902   0.969  14.494
53052W        W24668   4.199  16.242   1.159
53053W        W24669   3.748   0.467   2.427
53054W        W24670  32.892  12.701  14.094
53055W        W24671  15.231  24.175  13.137
53056W        W24672  39.329  42.378  14.127
53057W        W24673   8.031   1.879  11.178
53058W        W24674  10.964   3.758  11.215
53059W        W24675   3.417  34.049   0.986
53060W        W24676   2.621  17.289  14.603
53061W        W24677  13.964   6.245   1.197
53062W        W24678  21.067  22.923   4.943
53063W        W24679   1.746  27.369   1.641
53064W        W24680  23.427  13.386  14.461
53065W        W24681  22.633  34.057   2.914
53066W        W24682  22.059   9.991   1.081
53067W        W24683  15.560  11.269   1.110
53068W        W24684  27.429  27.068   4.785
53069W        W24685  13.276  39.792  13.459
53070W        W24686  42.487  42.873  12.828
53071W        W24687  11.003  21.771   2.950
53072W        W24688  20.534  24.140  12.644
53073W        W24689  28.973  27.659   0.263
53074W        W24690  10.353  24.642   4.402
53075W        W24691  32.167  17.402   3.677
53076W        W24692   7.795  25.379  11.192
53077W        W24693  39.800  28.734   4.649
53078W        W24694   5.043  13.351  14.082
53079W        W24695  14.568  42.734   3.632
53080W        W24696   1.798  16.517  10.777
53081W        W24697   8.755  27.744   1.418
53082W        W24698  21.691  23.737   2.910
53083W        W24699  32.572  35.014  14.314
53084W        W24700   7.325   0.901   1.929
53085W        W24701  39.959  24.712  12.989
53086W        W24702  42.290  38.404   2.010
53087W        W24703  15.156   8.899   4.703
53088W        W24704  31.177  33.568   1.762
53089W        W24705   9.685   4.363   3.504
53090W        W24706  11.282  11.315   4.083
53091W        W24707  31.055  43.835  13.429
53092W        W24708  44.789  21.940   1.958
53093W        W24709  20.061  14.386   1.837
53094W        W24710   7.332  19.253   3.172
53095W        W24711  13.907  13.312   2.769
53096W        W24712  32.674  14.261   3.588
53097W        W24713  32.105  33.014  10.530
53098W        W24714  29.586   1.850  12.052
53099W        W24715  39.052  43.798  12.401
53100W        W24716  23.591  20.518  12.077
53101W        W24717  20.207  12.695  11.591
53102W        W24718  36.333  30.463   0.811
53103W        W24719  17.615  26.260   1.306
53104W        W24720  16.462  24.588  14.965
53105W        W24721  13.299  42.668   1.001
53106W        W24722  29.668  17.326  13.480
53107W        W24723  34.841   9.168   0.813
53108W        W24724  26.683   1.935   2.817
53109W        W24725  37.133  10.801  13.897
53110W        W24726   5.239  22.525   2.296
53111W        W24727   7.013  31.766  13.861
53112W        W24728  29.199  29.475  11.573
53113W        W24729  10.912   2.860   1.399
53114W        W24730   8.361  35.093   2.294
53115W        W24731  36.111   4.283   1.724
53116W        W24732  16.314  34.805  11.462
53117W        W24733  20.136  29.636  10.326
53118W        W24734  29.623  32.905   3.195
53119W        W24735  32.158  36.339  14.553
53120W        W24736   4.816  19.589  12.430
53121W        W24737  34.409   0.078   2.700
53122W        W24738  41.967  24.034  10.640
53123W        W24739   1.791  44.668   3.372
53124W        W24740  10.288  36.599   2.177
53125W        W24741  16.709  31.200  12.511
53126W        W24742   8.986   9.905  14.811
53127W        W24743  23.054  28.160  10.758
53128W        W24744   7.369  30.469   3.591
53129W        W24745  38.595  41.038  13.604
53130W        W24746  26.720  13.805   1.839
53131W        W24747   8.684  38.084   2.587
53132W        W24748  10.927  24.024   0.847
53133W        W24749  16.730   8.465   3.734
53134W        W24750  34.055  31.940   4.575
53135W        W24751   3.433  26.676   1.263
53136W        W24752  33.747  11.335  14.855
53137W        W24753  35.622  41.899   1.430
53138W        W24754   1.347  32.472   1.405
53139W        W24755  33.590  11.095   0.450
53140W        W24756  37.475   3.522   4.052
53141W        W24757  28.165  43.095   4.185
53142W        W24758  14.465  42.949  12.570
53143W        W24759   3.252   1.250  11.513
53144W        W24760  15.792  34.875  10.585
53145W        W24761  36.900  43.937   0.528
53146W        W24762  25.184   8.232   0.718
53147W        W24763  19.771  23.176  12.710
53148W        W24764  38.387  29.010  10.786
53149W        W24765  26.069  15.382  13.079
53150W        W24766  34.885  40.909  12.797
53151W        W24767  21.618   7.874  14.434
53152W        W24768  43.338  18.941  13.857
53153W        W24769   0.295   8.917   0.042
53154W        W24770   7.903  42.237   4.835
53155W        W24771   5.403  22.048  14.052
53156W        W24772  24.402  17.305   3.328
53157W        W24773  10.416  28.614  11.130
53158W        W24774  16.672  32.072  13.362
53159W        W24775  33.291  18.082   4.007
53160W        W24776  12.146  18.710   3.296
53161W        W24777  12.318   2.260  11.999
53162W        W24778  36.068  24.503  11.534
53163W        W24779  26.960   4.942   2.414
53164W        W24780  19.120   6.774   0.485
53165W        W24781  44.222  38.000   1.197
53166W        W24782   3.239  25.532  11.900
53167W        W24783  35.171  30.990  14.551
53168W        W24784   4.391   1.860  10.038
53169W        W24785  10.167  19.123  10.698
53170W        W24786  15.310  42.890   0.277
53171W        W24787  43.810  30.758   2.219
53172W        W24788  32.527  14.177   0.896
53173W        W24789  44.989  27.085  14.436
53174W        W24790   5.875  26.691   3.869
53175W        W24791  17.316  26.473  11.040
53176W        W24792  35.842   0.842  14.905
53177W        W24793  12.190   3.710   3.314
53178W        W24794   8.259  36.637   2.312
53179W        W24795  36.972   2.234   3.859
53180W        W24796  17.605   7.051   3.174
53181W        W24797  29.159  25.549  10.563
53182W        W24798   5.967  23.633   0.232
53183W        W24799  19.625  37.431   4.679
53184W        W24800  37.377  26.681   2.429
53185W        W24801  40.512  11.895  13.307
53186W        W24802  13.260  30.170  12.374
53187W        W24803  37.686   4.722   2.291
53188W        W24804   9.826  16.921   3.848
53189W        W24805  34.856  20.231   4.229
53190W        W24806  18.467  18.734   4.592
53191W        W24807  32.534   5.947   3.762
53192W        W24808  10.201   4.957   3.087
53193W        W24809   0.320  23.240   4.656
53194W        W24810  26.277  34.942  14.789
53195W        W24811  28.535  16.333  11.174
53196W        W24812  35.878  33.478  13.811
53197W        W24813  18.174  39.688   4.059
53198W        W24814   6.909   1.692   2.899
53199W        W24815   0.504  29.657   1.759
53200W        W24816   6.836  34.131   1.176
53201W        W24817  37.940  16.138   3.793
53202W        W24818  36.148  40.900  14.444
53203W        W24819  18.802  11.017  11.293
53204W        W24820  15.303  12.415  12.018
53205W        W24821  24.102  40.915   1.225
53206W        W24822  14.183  27.538  11.605
53207W        W24823  42.398  15.291   1.959
53208W        W24824  26.483   5.176   1.630
53209W        W24825  28.978  40.080   1.160
53210W        W24826  18.160  33.011  14.040
53211W        W24827  10.436  19.706   3.715
53212W        W24828  12.091  38.341   1.883
53213W        W24829   2.882   2.900   3.792
53214W        W24830  33.844  36.513  11.609
53215W        W24831  27.186   3.695   1.753
53216W        W24832  31.408  32.951   2.739
53217W        W24833  15.024  11.204   0.370
53218W        W24834  14.593  21.991   0.470
53219W        W24835  29.634  41.105   4.902
53220W        W24836   6.156   3.399  12.500
53221W        W24837  40.002  32.328   2.947
53222W        W24838  41.435  25.224  13.606
53223W        W24839  37.585  40.293   1.247
53224W        W24840  38.456  33.880   3.648
53225W        W24841  40.362  20.682  12.394
53226W        W24842   4.218  29.117  12.078
53227W        W24843  23.951  18.584   3.080
53228W        W24844  22.628   5.184  13.895
53229W        W24845   4.027  27.708  10.310
53230W        W24846  27.300  15.479   0.888
53231W        W24847  34.366   3.931   2.793
53232W        W24848  43.730   3.244  11.312
53233W        W24849   4.650  15.737  13.979
53234W        W24850   2.308  13.105  13.526
53235W        W24851  13.818   1.736  10.683
53236W        W24852  21.309  16.616   0.759
53237W        W24853  39.065  13.226   0.873
53238W        W24854  41.561  41.187   1.801
53239W        W24855  32.965  25.100   0.136
53240W        W24856  20.747   3.918   4.557
53241W        W24857  32.177  15.885  11.013
53242W        W24858   3.908  38.750   2.148
53243W        W24859  33.136  29.253  13.295
53244W        W24860  21.466  44.772   0.394
53245W        W24861  35.438  42.378  12.223
53246W        W24862  23.757  14.314   4.553
53247W        W24863  17.195  33.320  13.092
53248W        W24864   6.794  23.706   3.675
53249W        W24865  14.671  24.052  12.885
53250W        W24866  16.699  28.533  11.772
53251W        W24867  10.378  19.314  12.995
53252W        W24868   5.702  19.274  13.844
53253W        W24869  32.693  12.938  10.647
53254W        W24870  31.597  20.513   2.492
53255W        W24871   6.266  37.100  10.562
53256W        W24872  26.133  30.922   0.672
53257W        W24873  26.410  33.584   4.127
53258W        W24874  31.147  25.291  13.715
53259W        W24875  20.027   6.920   1.864
53260W        W24876  10.418   8.020  13.466
53261W        W24877  36.347  40.222  11.990
53262W        W24878  21.598   2.918   3.560
53263W        W24879  33.507  26.081  13.126
53264W        W24880  18.997  11.333  11.663
53265W        W24881  42.515   5.875  14.419
53266W        W24882  26.085  16.707  12.885
53267W        W24883  12.992   5.888   3.763
53268W        W24884  14.558  22.625   4.457
53269W        W24885  15.735  37.363  13.077
53270W        W24886   7.834   8.844   0.664
53271W        W24887  33.134  26.529   0.486
53272W        W24888  39.521  26.768  11.971
53273W        W24889  34.477  14.368   1.770
53274W        W24890  27.261  27.707  14.320
53275W        W24891  39.778  10.609   2.877
53276W        W24892  41.779  42.059  13.495
53277W        W24893  28.895  21.040  12.551
53278W        W24894   4.280   1.755  12.487
53279W        W24895   1.890  33.466   4.330
53280W        W24896  38.440  39.483  11.856
53281W        W24897  23.676  38.471   2.721
53282W        W24898  26.015   6.781   3.607
53283W        W24899  27.514  35.127  14.334
53284W        W24900  24.734  27.460  11.929
53285W        W24901   5.964  19.609   1.927
53286W        W24902   6.781  27.172  13.561
53287W        W24903  43.318  35.936  12.695
53288W        W24904  11.193   9.687   0.297
53289W        W24905  20.573  39.024   3.193
53290W        W24906  18.004  29.581  11.207
53291W        W24907   6.685  40.100   0.916
53292W        W24908  43.785  36.424  10.982
53293W        W24909   9.782  24.523  10.395
53294W        W24910   6.231  42.318   3.370
53295W        W24911   9.797   7.050   2.773
53296W        W24912   6.895  36.285   1.845
53297W        W24913  37.063  18.730  12.471
53298W        W24914  11.531  16.772  14.485
53299W        W24915   9.311  16.634  14.291
53300W        W24916   6.401  14.790  14.345
53301W        W24917  21.085  13.624   1.291
53302W        W24918  30.900  36.137   0.964
53303W        W24919  38.807   5.344  11.041
53304W        W24920   9.241  19.231  11.452
53305W        W24921  43.664  32.258   3.673
53306W        W24922  42.990  26.653   2.843
53307W        W24923  24.793  26.184   2.525
53308W        W24924  32.075  18.668  11.130
53309W        W24925  26.019  23.190  12.875
53310W        W24926  43.679  24.757   2.304
53311W        W24927   9.344  28.801   3.712
53312W        W24928  20.011  29.294  11.176
53313W        W24929   3.620  19.145  12.219
53314W        W24930  13.637  11.111   4.870
53315W        W24931  10.779  41.017  14.243
53316W        W24932  21.057  17.989  13.838
53317W        W24933  39.209  36.579   2.660
53318W        W24934  35.114   9.365   1.377
53319W        W24935  42.288   8.717  11.621
53320W        W24936  21.223  25.162   3.141
53321W        W24937  29.974  25.610   3.767
53322W        W24938  24.235  16.647   2.803
53323W        W24939  44.748   3.678   2.174
53324W        W24940  31.789  26.705   3.561
53325W        W24941  11.255  17.258   4.943
53326W        W24942   4.274  29.413  13.920
53327W        W24943  20.960  19.803   2.695
53328W        W24944  39.461  37.523  12.974
53329W        W24945  39.307   6.851   2.233
53330W        W24946  39.456  13.650   9.564
53331W        W24947  22.536  12.218  14.354
53332W        W24948  44.923  20.711   1.312
53333W        W24949   1.026  18.726   2.752
53334W        W24950  38.866  35.637  10.623
53335W        W24951  38.958  11.658  14.436
53336W        W24952  13.791  26.038  12.084
53337W        W24953  29.927   7.382  11.168
53338W        W24954   3.013   1.057   0.023
53339W        W24955  18.059  26.536  14.573
53340W        W24956  38.505  10.377   2.272
53341W        W24957  37.654  12.278  13.857
53342W        W24958  24.431   2.849  14.307
53343W        W24959  15.903  21.955   2.264
53344W        W24960  42.271  24.195   0.915
53345W        W24961  35.605  28.037   4.684
53346W        W24962   7.415   4.238   4.427
53347W        W24963  13.246   3.456   5.037
53348W        W24964   1.314  19.000  12.024
53349W        W24965  39.101  11.872  13.963
53350W        W24966  10.274   6.956  11.147
53351W        W24967   6.295  34.023  12.889
53352W        W24968   1.093  38.988   2.839
53353W        W24969  15.714   3.611   3.634
53354W        W24970  29.607  15.547   0.861
53355W        W24971  11.551  28.646  14.842
53356W        W24972  23.230  39.974   1.857
53357W        W24973  39.444  30.460   1.523
53358W        W24974  21.752  36.413   0.369
53359W        W24975  21.661  10.866  10.688
53360W        W24976   6.938  16.151   3.644
53361W        W24977   7.432  40.002   2.241
53362W        W24978  29.449  43.886   1.288
53363W        W24979  17.791  10.981  12.837
53364W        W24980  15.679   2.370   4.735
53365W        W24981  42.952  16.194   4.925
53366W        W24982  32.588  37.431  11.718
53367W        W24983  14.241  44.413   4.609
53368W        W24984  14.779  26.492   4.235
53369W        W24985  19.637  30.872   3.660
53370W        W24986  18.663  31.190   2.156
53371W        W24987  17.606   8.890   4.704
53372W        W24988  25.494   8.041  13.591
53373W        W24989  32.123  16.718   0.974
53374W        W24990  42.167  26.769  12.548
53375W        W24991   6.298  21.264  11.716
53376W        W24992   6.277  39.929  13.522
53377W        W24993  32.069  34.794   1.715
53378W        W24994  39.612  12.702  12.975
53379W        W24995   5.730  19.150   2.615
53380W        W24996  28.588  27.494   4.466
53381W        W24997  15.842  35.624  12.039
53382W        W24998  32.529  31.331   1.307
53383W        W24999   5.239  15.235  14.339
53384W        W25000  38.322  32.991   0.267
53385W        W25001  29.920  30.475  10.402
53386W        W25002  28.589  12.858   4.421
53387W        W25003   9.361  22.048   2.822
53388W        W25004  19.283  12.230  13.381
53389W        W25005  31.396   7.297   4.158
53390W        W25006   8.937   1.785   3.707
53391W        W25007  44.999  18.209  12.007
53392W        W25008  24.741   0.667   4.223
53393W        W25009  22.577   1.800   1.772
53394W        W25010   2.732   7.645  13.131
53395W        W25011  24.214  18.202  13.261
53396W        W25012  16.025  35.370  12.456
53397W        W25013  25.127  36.355   3.445
53398W        W25014  35.388  22.067  12.556
53399W        W25015  41.859   3.221   1.670
53400W        W25016  26.618  42.905  13.537
53401W        W25017  21.472  31.978   0.325
53402W        W25018  44.199  38.522   4.165
53403W        W25019  33.857  18.101   1.347
53404W        W25020   0.676  39.912   3.899
53405W        W25021  23.154  28.601  14.289
53406W        W25022  22.231  19.793   2.064
53407W        W25023  42.269   1.689  14.797
53408W        W25024  23.660  22.548   4.624
53409W        W25025  13.417  25.778  10.343
53410W        W25026   4.829  44.326  13.363
53411W        W25027  44.471   8.377   0.767
53412W        W25028  43.317  19.030  12.953
53413W        W25029  43.333   8.866   0.522
53414W        W25030   7.666  10.865   3.101
53415W        W25031  23.069  22.696  13.885
53416W        W25032  25.899  41.824  14.528
53417W        W25033  34.994  38.013   4.624
53418W        W25034   2.987   0.841  12.888
53419W        W25035  22.294  37.238  11.246
53420W        W25036  10.269  13.067  11.539
53421W        W25037  25.618  32.394   4.590
53422W        W25038   8.639  22.162   1.937
53423W        W25039  13.238   1.430  14.291
53424W        W25040  12.709  33.680  11.550
53425W        W25041  32.929  18.202   1.223
53426W        W25042  44.403  38.057   3.249
53427W        W25043  31.386  40.968  12.014
53428W        W25044   9.281  14.126   0.468
53429W        W25045  40.786  13.195   4.088
53430W        W25046  37.634  44.810   3.105
53431W        W25047  42.273  43.981   3.680
53432W        W25048   0.578  40.745   2.814
53433W        W25049   6.327  25.069  13.377
53434W        W25050  34.911  27.631  13.301
53435W        W25051  43.518  29.001   0.021
53436W        W25052  15.832  33.655   0.728
53437W        W25053  33.674  31.167   0.340
53438W        W25054  33.923  10.655   0.024
53439W        W25055   6.725  23.200  10.607
53440W        W25056   4.834   6.133  12.012
53441W        W25057  29.049  28.618   0.388
53442W        W25058  26.613  10.181   1.102
53443W        W25059  14.028  23.869  14.419
53444W        W25060  11.741  40.588  11.409
53445W        W25061  38.804   5.941  14.739
53446W        W25062  37.909  23.134   2.456
53447W        W25063  21.233  36.435  12.394
53448W        W25064  17.657  27.404  14.922
53449W        W25065  31.674   2.803  11.961
53450W        W25066  16.187   3.808  11.523
53451W        W25067  19.630   0.311  11.766
53452W        W25068   9.330  38.267  12.135
53453W        W25069  20.921  26.017  13.416
53454W        W25070   4.646   5.780   0.868
53455W        W25071  39.430  28.460   1.307
53456W        W25072   1.892  40.301  10.724
53457W        W25073  32.100  31.127  11.529
53458W        W25074  18.525  10.107  11.827
53459W        W25075   8.602  39.253   1.823
53460W        W25076  23.471   8.891   3.461
53461W        W25077  39.379   1.743  10.929
53462W        W25078  27.106  22.754  13.887
53463W        W25079  21.555  13.857   1.742
53464W        W25080  14.624  38.814   4.011
53465W        W25081   3.343   4.918   5.063
53466W        W25082  22.611   7.298  11.445
53467W        W25083   1.293  11.254   1.325
53468W        W25084   0.570  35.162  14.586
53469W        W25085   5.311  24.117  12.961
53470W        W25086  40.304  12.418  12.430
53471W        W25087   6.450  29.042   4.147
53472W        W25088  41.825  30.098  13.481
53473W        W25089   1.224  32.445  13.431
53474W        W25090  39.868  44.816   0.776
53475W        W25091  25.664   7.948  12.332
53476W        W25092  31.626   6.558  12.433
53477W        W25093  26.628  44.695  14.318
53478W        W25094  12.639  36.079  11.159
53479W        W25095  18.109  11.163  14.377
53480W        W25096  36.023   0.378   0.677
53481W        W25097  31.889  11.577   2.431
53482W        W25098  40.951  16.082  14.495
53483W        W25099  29.637  22.665  13.621
53484W        W25100  42.093  35.788   5.586
53485W        W25101  25.143  11.165  12.529
53486W        W25102   4.645  24.533   2.831
53487W        W25103  35.958   4.853  13.083
53488W        W25104  28.868  16.604   1.426
53489W        W25105  31.549   0.933  13.271
53490W        W25106  19.176   9.413  13.001
53491W        W25107   8.753  24.134  10.728
53492W        W25108  41.079  35.523   0.508
53493W        W25109  17.627  43.026   2.185
53494W        W25110  29.233  11.207  13.313
53495W        W25111  19.308  22.645   4.336
53496W        W25112  24.080  13.173   4.809
53497W        W25113   9.778  27.609  13.302
53498W        W25114  40.908  42.379   1.847
53499W        W25115  39.208  24.495  13.540
53500W        W25116  15.836  17.253  10.685
53501W        W25117  16.211   3.109  13.448
53502W        W25118  16.709  25.439  10.643
53503W        W25119   1.485   3.914  14.299
53504W        W25120  12.061  21.140  11.533
53505W        W25121   6.282  28.011   3.767
53506W        W25122  20.245  13.152  12.978
53507W        W25123  33.075  33.856   2.692
53508W        W25124  30.627   5.937  13.442
53509W        W25125  11.342   0.383  14.858
53510W        W25126   5.465   5.395   3.746
53511W        W25127  13.362  24.000   1.039
53512W        W25128  44.868  39.522  14.977
53513W        W25129  32.336  37.628   4.205
53514W        W25130  10.641  23.463  14.428
53515W        W25131   4.744  37.505  14.050
53516W        W25132  22.268  24.111   1.199
53517W        W25133  19.825  21.041  14.765
53518W        W25134   6.749  23.311   1.906
53519W        W25135   7.418  40.465  11.613
53520W        W25136  15.019   6.158  11.005
53521W        W25137  36.102  18.333   2.717
53522W        W25138  17.980  30.015  12.016
53523W        W25139  30.116  11.589   3.710
53524W        W25140  15.762  19.120   0.074
53525W        W25141  39.465  40.029   3.858
53526W        W25142  21.488  17.272  14.933
53527W        W25143  14.005  39.913  12.507
53528W        W25144  21.345  10.389  10.583
53529W        W25145  44.479  18.275  12.018
53530W        W25146  18.610  30.943   1.207
53531W        W25147  42.475  41.973  13.026
53532W        W25148  31.588   0.439   0.350
53533W        W25149  19.699   3.351  12.127
53534W        W25150  21.789  10.085   2.700
53535W        W25151  14.118  36.480   2.648
53536W        W25152  11.058  41.869   0.725
53537W        W25153   2.829   3.747  12.170
53538W        W25154  28.422  16.871   3.693
53539W        W25155  39.389  32.216  10.636
53540W        W25156  32.611   6.795  12.594
53541W        W25157  32.819   5.030  11.466
53542W        W25158   1.995   0.340  12.173
53543W        W25159  25.766  18.671   1.036
53544W        W25160  39.851  26.202   4.926
53545W        W25161  24.601  13.655   3.439
53546W        W25162   8.669  20.129   3.518
53547W        W25163  27.694   6.895   1.905
53548W        W25164  10.915   9.115  13.003
53549W        W25165  11.132   0.821   0.820
53550W        W25166  13.155  31.500   4.937
53551W        W25167  31.175   9.888  13.777
53552W        W25168   5.791  23.693   1.873
53553W        W25169  29.423  24.731   2.135
53554W        W25170  30.987  17.961   3.715
53555W        W25171  31.988   0.617   3.689
53556W        W25172  29.472  22.671   2.614
53557W        W25173  26.348  41.293   3.734
53558W        W25174  25.532   5.207   1.422
53559W        W25175  21.640  41.978   0.038
53560W        W25176   0.353   3.828  10.745
53561W        W25177   5.897  31.502   4.883
53562W        W25178  37.010  28.582   3.605
53563W        W25179  21.228  18.746   2.398
53564W        W25180  16.606   2.414  13.971
53565W        W25181  20.088   3.155   4.183
53566W        W25182  28.442   8.963   0.667
53567W        W25183  27.034  29.129   2.971
53568W        W25184   0.914   2.254  11.105
53569W        W25185   5.260  14.371  12.499
53570W        W25186  36.306  20.572  11.137
53571W        W25187  22.507  30.621  14.011
53572W        W25188  41.945  44.069  11.937
53573W        W25189   2.339  33.261   4.197
53574W        W25190  13.233   8.751  14.435
53575W        W25191  30.397  36.888   1.975
53576W        W25192  20.433  16.648  12.137
53577W        W25193   3.635  20.978   4.719
53578W        W25194  38.283  38.869   1.795
53579W        W25195  10.460  35.414   4.119
53580W        W25196   4.830  17.710   1.780
53581W        W25197  26.979  32.798  12.807
53582W        W25198   2.012   2.537  11.697
53583W        W25199  14.837   8.770  11.250
53584W        W25200  18.554  23.970  13.127
53585W        W25201  31.980  16.999  12.445
53586W        W25202  11.443  19.030  12.991
53587W        W25203  10.118  31.652   0.363
53588W        W25204  33.873  17.691   2.884
53589W        W25205   9.810  38.123  12.951
53590W        W25206  27.012   0.899  10.521
53591W        W25207   7.841  16.175  12.047
53592W        W25208  26.269  28.761   2.783
53593W        W25209  37.519  14.092   4.385
53594W        W25210  43.285  30.066   4.299
53595W        W25211  41.735  19.473  10.733
53596W        W25212  31.364   4.976  14.293
53597W        W25213   7.198   3.196   4.450
53598W        W25214  20.640   6.172  12.028
53599W        W25215   2.778  10.729  13.902
53600W        W25216  11.549  19.038   0.282
53601W        W25217  41.856  13.209  12.164
53602W        W25218  19.796  37.660   0.376
53603W        W25219  22.733  14.298  13.434
53604W        W25220  42.920  20.012  12.182
53605W        W25221   7.424  31.442   3.072
53606W        W25222  38.837   5.642   2.652
53607W        W25223  21.433  35.408  14.693
53608W        W25224   8.421  31.896   0.348
53609W        W25225   5.899   8.372  10.744
53610W        W25226   0.493  38.071   5.146
53611W        W25227   3.925  30.906  13.295
53612W        W25228  44.746  37.962   2.145
53613W        W25229  16.023  13.026   1.357
53614W        W25230  25.230  34.042  11.921
53615W        W25231   0.188   4.057  13.793
53616W        W25232  24.004   2.345   2.747
53617W        W25233   9.671   1.686   3.281
53618W        W25234  14.814   4.214  14.556
53619W        W25235   9.835  43.724  14.341
53620W        W25236   1.459  28.540   2.801
53621W        W25237  10.413  33.911   4.161
53622W        W25238   3.018  20.769   4.022
53623W        W25239  36.766  20.838   4.109
53624W        W25240  11.482  37.829   2.371
53625W        W25241  29.132   3.840  13.322
53626W        W25242  40.591  36.307  12.938
53627W        W25243  32.601  24.519   4.156
53628W        W25244   9.882  25.089   0.309
53629W        W25245   0.105  24.096  14.289
53630W        W25246   1.840  17.215   0.678
53631W        W25247  38.804   7.287   0.183
53632W        W25248  26.702  30.791  11.826
53633W        W25249  31.944   7.358  14.340
53634W        W25250  14.870   9.908  11.468
53635W        W25251  41.920  29.554  12.048
53636W        W25252  20.877  26.245  12.945
53637W        W25253   4.287  18.625   1.045
53638W        W25254   5.157  27.460  12.085
53639W        W25255  11.065  29.020  10.828
53640W        W25256  27.924  33.812   1.921
53641W        W25257  21.121   0.490   0.736
53642W        W25258  13.642  39.660  14.450
53643W        W25259  28.846   3.414  13.405
53644W        W25260  36.677  36.800  11.900
53645W        W25261  15.660  24.104   3.368
53646W        W25262  44.193  34.656   3.805
53647W        W25263  34.595  25.637  12.428
53648W        W25264  15.856   6.574  10.075
53649W        W25265  24.242  22.748  14.031
53650W        W25266  38.485  18.700  14.388
53651W        W25267  30.235  27.246   0.547
53652W        W25268  15.345  32.370  14.676
53653W        W25269   7.218  21.331   4.435
53654W        W25270   7.225  28.108  11.818
53655W        W25271  40.340  30.862   1.434
53656W        W25272  20.849  11.375  12.049
53657W        W25273  31.592  41.389   0.126
53658W        W25274   9.872  15.365  10.911
53659W        W25275  28.348   5.825   0.189
53660W        W25276   0.283  25.141  12.918
53661W        W25277  44.451   3.453  11.208
53662W        W25278  15.148  21.686   1.300
53663W        W25279  23.030  22.419  11.120
53664W        W25280  23.199   5.693  13.414
53665W        W25281  33.315  33.006   0.409
53666W        W25282  14.812  37.986  12.106
53667W        W25283  25.717  13.626  11.039
53668W        W25284  38.509   5.076   4.602
53669W        W25285  32.270  35.835   0.363
53670W        W25286  13.711  24.174   4.580
53671W        W25287  29.927  37.320   0.581
53672W        W25288   6.786  31.652   1.239
53673W        W25289  36.520  24.155   0.997
53674W        W25290  44.806   6.583   3.729
53675W        W25291  19.230  38.181  13.651
53676W        W25292  32.869  32.476  12.407
53677W        W25293  43.831   1.112  10.488
53678W        W25294  35.478  43.387   4.653
53679W        W25295  14.911   3.416  10.694
53680W        W25296   0.268  40.454  14.315
53681W        W25297  13.500   9.154  10.619
53682W        W25298  20.041  20.958   4.950
53683W        W25299  17.654  43.516   0.311
53684W        W25300   2.741  30.708   3.993
53685W        W25301  18.831  27.463   3.651
53686W        W25302  41.959   3.518  11.945
53687W        W25303  16.019  22.470   1.287
53688W        W25304   4.442   7.226   0.700
53689W        W25305   2.659   1.549   2.494
53690W        W25306  39.054  35.483   4.622
53691W        W25307  27.497  28.003   2.639
53692W        W25308  13.244  21.523  12.882
53693W        W25309   3.270   0.470  13.594
53694W        W25310  13.316  25.381   1.151
53695W        W25311  35.877   7.135  12.958
53696W        W25312   2.358  16.249   4.552
53697W        W25313  28.282  31.479  14.398
53698W        W25314  27.186  23.035   1.909
53699W        W25315  16.864   3.903  12.519
53700W        W25316  15.234  28.554   0.456
53701W        W25317  26.953  42.312  13.982
53702W        W25318  44.433  11.138  12.834
53703W        W25319  21.959   9.435  14.692
53704W        W25320   0.715  25.647   3.819
53705W        W25321  39.410   8.707  12.884
53706W        W25322  40.390  20.470   3.125
53707W        W25323  31.317  22.349   0.299
53708W        W25324  43.333  11.488   2.431
53709W        W25325  39.463  11.315  14.974
53710W        W25326   6.815  10.577  14.802
53711W        W25327  19.134   4.023   0.850
53712W        W25328  19.201  16.337   3.631
53713W        W25329  39.517  35.270   4.847
53714W        W25330  18.935   8.117  14.234
53715W        W25331  41.606   3.539   3.833
53716W        W25332  27.656  22.083   0.546
53717W        W25333  32.119  29.020  14.710
53718W        W25334   1.789  21.131   0.708
53719W        W25335   2.888  13.076  11.816
53720W        W25336  31.205   7.249  13.491
53721W        W25337  28.930   1.719  13.390
53722W        W25338  37.295  40.952   4.261
53723W        W25339  22.956   3.819  13.838
53724W        W25340  36.926  27.835  10.886
53725W        W25341  34.901   4.229  10.917
53726W        W25342  27.043   1.967   4.178
53727W        W25343   1.127  37.774  12.484
53728W        W25344  38.785  30.181  11.166
53729W        W25345  18.132  10.638  14.373
53730W        W25346  23.256   2.787   1.907
53731W        W25347  38.387  27.524  14.830
53732W        W25348  25.161   5.289   2.251
53733W        W25349   6.266  37.432   4.091
53734W        W25350  25.565  17.040   1.374
53735W        W25351  29.619  36.121   2.374
53736W        W25352  33.040  25.954  10.646
53737W        W25353  31.203  11.807   1.320
53738W        W25354  10.399  28.230  12.866
53739W        W25355  13.218   7.567   1.373
53740W        W25356  43.769  11.853  13.084
53741W        W25357  15.971   2.319   3.387
53742W        W25358  25.906   2.797  14.264
53743W        W25359  37.789  40.298   3.666
53744W        W25360  28.395  14.242   3.253
53745W        W25361  29.025   9.681  11.081
53746W        W25362  30.201   7.856  12.624
53747W        W25363  25.235  11.226   0.709
53748W        W25364  20.861  14.561   0.847
53749W        W25365   7.320  34.594  10.680
53750W        W25366   1.386  23.555   0.662
53751W        W25367  26.042  20.629   4.624
53752W        W25368  35.815   5.536  11.491
53753W        W25369  16.653  16.396  12.988
53754W        W25370  29.610  17.793   2.379
53755W        W25371  25.013  40.880   0.067
53756W        W25372  15.321  11.622   0.318
53757W        W25373  39.348  22.212  11.627
53758W        W25374  44.373   1.257   3.861
53759W        W25375  30.608   5.698  12.566
53760W        W25376  39.306   0.209  13.398
53761W        W25377  38.003  18.480  14.471
53762W        W25378  11.894  30.871   4.134
53763W        W25379  22.652  35.546  13.935
53764W        W25380  34.686   4.270  13.056
53765W        W25381   1.974  26.118  11.593
53766W        W25382  25.486  23.646   1.221
53767W        W25383   2.466  39.611   4.851
53768W        W25384  39.756  10.482   0.559
53769W        W25385   1.937  30.884   1.636
53770W        W25386  44.232   5.063   4.180
53771W        W25387   7.555  36.041   5.031
53772W        W25388   3.825  29.503   0.029
53773W        W25389  18.978  19.679   4.708
53774W        W25390   4.627  44.397  12.907
53775W        W25391   2.331  10.677   4.314
53776W        W25392  43.536  19.661   2.804
53777W        W25393  24.551   0.841  10.287
53778W        W25394  38.127  27.950   0.459
53779W        W25395  18.638   7.428  11.278
53780W        W25396  20.752  16.290  14.525
53781W        W25397  16.275  43.525  13.963
53782W        W25398  41.811  14.744   1.997
53783W        W25399  22.145  35.167   3.001
53784W        W25400  40.109   2.835  10.662
53785W        W25401  23.870  19.516  12.936
53786W        W25402  42.402   9.841  13.512
53787W        W25403  20.113  30.423   2.847
53788W        W25404  31.670  17.652  14.342
53789W        W25405  39.320  40.778   1.229
53790W        W25406  37.857   9.147   3.231
53791W        W25407  23.554  44.970   1.183
53792W        W25408  16.987  44.763  10.182
53793W        W25409  34.149  27.790  12.372
53794W        W25410   2.926  12.123  14.044
53795W        W25411   1.452  43.752   2.676
53796W        W25412  17.096  13.397  14.092
53797W        W25413   4.877  34.428   2.885
53798W        W25414  43.242   2.985  13.361
53799W        W25415  23.624  31.852   5.068
53800W        W25416   2.342  15.172   0.706
53801W        W25417  41.547  28.463  14.310
53802W        W25418  40.415  25.637  14.467
53803W        W25419   0.693  27.399  10.994
53804W        W25420  25.692  21.976   0.481
53805W        W25421  31.804  30.601  12.060
53806W        W25422  38.855  32.744   5.008
53807W        W25423  13.191  22.553  13.824
53808W        W25424  21.154  21.089   1.301
53809W        W25425  36.873   3.180   0.685
53810W        W25426  28.875  39.819   2.602
53811W        W25427  36.147  21.714   0.950
53812W        W25428  21.998  23.752  13.359
53813W        W25429  42.727   9.159   0.831
53814W        W25430   5.870  39.630   2.069
53815W        W25431   2.261  30.389   0.911
53816W        W25432   8.451  18.100  14.605
53817W        W25433  39.913  44.457   2.149
53818W        W25434   1.296  18.457   1.252
53819W        W25435  44.741  29.199  14.430
53820W        W25436  13.287  35.980  14.540
53821W        W25437   9.388  39.732   0.129
53822W        W25438  29.122  42.188  13.047
53823W        W25439  38.439  22.556  14.967
53824W        W25440   1.723  17.085  11.127
53825W        W25441  26.808  30.955   2.366
53826W        W25442   5.344  19.727   3.669
53827W        W25443   8.165  19.256  11.796
53828W        W25444  29.943  18.590  12.551
53829W        W25445  41.771  24.658   2.981
53830W        W25446  32.515   4.344  14.181
53831W        W25447  27.492  32.466  14.906
53832W        W25448  27.627  19.189  10.702
53833W        W25449  24.938  22.671  13.439
53834W        W25450  20.733   5.711   2.811
53835W        W25451   4.747  27.995  12.691
53836W        W25452  11.699  10.713  11.421
53837W        W25453  36.649  30.544   4.564
53838W        W25454  26.261  38.954   0.808
53839W        W25455  41.331  24.609   3.299
53840W        W25456   3.916  19.687   1.887
53841W        W25457  31.491  33.553  12.018
53842W        W25458  35.978  44.857  10.715
53843W        W25459  25.137  31.053   0.709
53844W        W25460  35.429   8.455   3.320
53845W        W25461  37.855  16.491   2.242
53846W        W25462  20.179  22.960   2.884
53847W        W25463  29.929  32.426   4.036
53848W        W25464  18.762   6.799  13.481
53849W        W25465   5.138  28.050  13.041
53850W        W25466  27.165  40.201   5.038
53851W        W25467  14.831   1.465  11.847
53852W        W25468  33.459   6.737   4.610
53853W        W25469   5.417  18.999  11.609
53854W        W25470   9.920  16.227   4.318
53855W        W25471  32.394  12.077   2.743
53856W        W25472  20.134   9.210  13.395
53857W        W25473   3.745  44.778   3.654
53858W        W25474  17.369   1.933  13.912
53859W        W25475   0.789  25.239  11.069
53860W        W25476   8.452  19.864  11.675
53861W        W25477  39.039   9.662   5.229
53862W        W25478  13.336  24.911   0.905
53863W        W25479  12.161   5.764   2.364
53864W        W25480   8.951   6.345  11.270
53865W        W25481  43.310  40.219   0.273
53866W        W25482   7.120  12.317   0.307
53867W        W25483  39.465  27.857   0.289
53868W        W25484  12.667  32.876  12.090
53869W        W25485  24.292  36.400   1.988
53870W        W25486  27.768  13.327   0.358
53871W        W25487  31.600  41.821  12.397
53872W        W25488   8.325   4.587  14.959
53873W        W25489  18.231  11.583  13.432
53874W        W25490  44.914   2.167   0.669
53875W        W25491   7.135   9.747  14.915
53876W        W25492   5.981  24.695   0.977
53877W        W25493   6.358  22.940  10.864
53878W        W25494  42.381   0.954  12.328
53879W        W25495   2.754  23.107  12.432
53880W        W25496  31.178  16.367   1.788
53881W        W25497   9.423  17.540  13.899
53882W        W25498  13.603  33.543  10.489
53883W        W25499  23.673  14.841   3.690
53884W        W25500  29.028  42.408   3.186
53885W        W25501  43.716  32.754   3.766
53886W        W25502  12.753   7.213   3.347
53887W        W25503  31.431  16.768   2.640
53888W        W25504  27.570  36.301  11.157
53889W        W25505  22.590  16.506  12.847
53890W        W25506  31.060  19.988  13.790
53891W        W25507  18.255  26.085  12.443
53892W        W25508  37.788  38.087  14.450
53893W        W25509  26.970  17.543   1.704
53894W        W25510  37.004  11.116   0.932
53895W        W25511  18.323  36.768  15.000
53896W        W25512  28.399  39.924  10.507
53897W        W25513  34.886  17.551   1.354
53898W        W25514   8.901  13.254  13.540
53899W        W25515  19.564  11.672  14.916
53900W        W25516   4.217  40.233  14.039
53901W        W25517  15.691   8.376  12.043
53902W        W25518  12.562   5.639   2.845
53903W        W25519  41.047  30.672  13.435
53904W        W25520  40.516  37.771  14.897
53905W        W25521  21.773   4.794   2.240
53906W        W25522  19.499   6.343  11.442
53907W        W25523   6.824  22.288  11.845
53908W        W25524  24.595  28.037  13.860
53909W        W25525   9.124  16.543   0.803
53910W        W25526  19.266  25.544  10.685
53911W        W25527  42.300  20.116  13.893
53912W        W25528  21.413  21.059  12.043
53913W        W25529  10.457  24.617  12.145
53914W        W25530  25.524  11.508   0.316
53915W        W25531   1.831  18.478   1.998
53916W        W25532  33.955  34.583   0.942
53917W        W25533  39.012   6.172   2.725
53918W        W25534  32.651   0.225   0.302
53919W        W25535  40.485  15.384  11.462
53920W        W25536  10.005  33.101  13.056
53921W        W25537   7.347  22.551   3.737
53922W        W25538  14.070  15.852   1.757
53923W        W25539  26.130  40.844   2.545
53924W        W25540  20.838   9.964  11.142
53925W        W25541  17.200  14.341   3.010
53926W        W25542   6.685   2.440  12.529
53927W        W25543  35.137   6.498   2.180
53928W        W25544   9.269  38.361  14.328
53929W        W25545  10.769   4.062  14.983
53930W        W25546  10.105  43.310  14.766
53931W        W25547  13.561  26.778  12.121
53932W        W25548  17.966  39.788   2.660
53933W        W25549   3.604  36.523  10.815
53934W        W25550  31.488  43.488   2.979
53935W        W25551  39.478   0.742   3.234
53936W        W25552  26.142  19.277   0.272
53937W        W25553  27.878   7.291   0.647
53938W        W25554  20.033  24.072  14.474
53939W        W25555   9.171  30.899  10.651
53940W        W25556  29.674  27.951  10.601
53941W        W25557  36.280   2.048  13.513
53942W        W25558  27.092  22.155  14.330
53943W        W25559  40.862  43.265  12.017
53944W        W25560  32.000  33.282  12.404
53945W        W25561  15.588  23.295  10.484
53946W        W25562   0.999   3.866   4.295
53947W        W25563  44.447  33.730  14.644
53948W        W25564  27.160   8.639   2.145
53949W        W25565  38.875  25.730   3.515
53950W        W25566  31.173  35.300  14.377
53951W        W25567  33.542  23.661   4.992
53952W        W25568  18.676  16.096   2.869
53953W        W25569   7.154   2.480  13.913
53954W        W25570  22.748  10.970   2.762
53955W        W25571  34.452  40.794   4.519
53956W        W25572  11.082   9.167   0.273
53957W        W25573   3.503  39.792  14.480
53958W        W25574  13.166   0.963   1.535
53959W        W25575  12.182  11.449  14.796
53960W        W25576   4.114  15.275   4.431
53961W        W25577  25.465  31.017  13.460
53962W        W25578  34.357   9.054  14.282
53963W        W25579  20.129  11.125  13.944
53964W        W25580   0.352  37.905  14.197
53965W        W25581   5.779  30.615  11.425
53966W        W25582  12.913  18.772   1.478
53967W        W25583  27.025   9.084  13.972
53968W        W25584  40.566  40.856  14.026
53969W        W25585  29.579   4.281  14.993
53970W        W25586   3.561  44.878  11.566
53971W        W25587  15.732  27.467  12.944
53972W        W25588   8.227  29.123  12.955
53973W        W25589  40.661   7.444  11.707
53974W        W25590  19.814  13.783   0.783
53975W        W25591  43.470  36.932  12.556
53976W        W25592  22.705  23.525   0.697
53977W        W25593  36.002  40.815  11.836
53978W        W25594  34.873  29.919   1.856
53979W        W25595   3.387  24.423  10.363
53980W        W25596  12.876  36.650  14.589
53981W        W25597  15.134  36.246   3.072
53982W        W25598   1.217  18.513  12.137
53983W        W25599  26.507   1.952   4.175
53984W        W25600   8.392  19.775   3.829
53985W        W25601  40.102  18.050   2.439
53986W        W25602   2.497  19.600   3.837
53987W        W25603  35.306  29.168  14.301
53988W        W25604  13.548  12.256  14.518
53989W        W25605   7.897  16.244  14.270
53990W        W25606  24.833   5.504  11.425
53991W        W25607  31.873  16.463   2.810
53992W        W25608  21.677  35.545   4.703
53993W        W25609  43.243  34.241   5.674
53994W        W25610  43.953  43.938  11.896
53995W        W25611   8.147  16.030   0.608
53996W        W25612  17.124  41.522   2.242
53997W        W25613  16.477  21.685  13.589
53998W        W25614  25.462  28.985  10.302
53999W        W25615  38.493   6.724   2.033
54000W        W25616   2.039  39.506   1.177
54001W        W25617  25.584  40.468  14.715
54002W        W25618  29.995   8.715   2.825
54003W        W25619  19.185  25.751  12.613
54004W        W25620  30.196  26.942  10.789
54005W        W25621  40.999   9.949   2.282
54006W        W25622  10.566  15.145   2.286
54007W        W25623   2.642   6.505  10.305
54008W        W25624   4.350  31.017  13.605
54009W        W25625  40.341   2.407   2.490
54010W        W25626  32.106  20.346   2.632
54011W        W25627   3.071  13.482  12.078
54012W        W25628  18.203   5.659   1.532
54013W        W25629  38.773  31.493   2.429
54014W        W25630  20.767  33.142  12.989
54015W        W25631  16.195  33.926   1.658
54016W        W25632  11.194  32.599   2.408
54017W        W25633  16.822   4.469  12.510
54018W        W25634  41.035  36.834  10.327
54019W        W25635  38.457  42.968   0.468
54020W        W25636  22.099  29.148   3.141
54021W        W25637  32.127  12.842   4.906
54022W        W25638  25.123   9.597  10.688
54023W        W25639  41.497  14.779  13.965
54024W        W25640  42.822  26.561   1.390
54025W        W25641  35.929   6.762   4.583
54026W        W25642  30.000  24.515  11.582
54027W        W25643  43.790   6.853   3.195
54028W        W25644   8.526  30.680  12.212
54029W        W25645  15.092   1.161   0.800
54030W        W25646  37.298  40.620  12.132
54031W        W25647  31.630  22.990   1.134
54032W        W25648  34.635   8.801   1.988
54033W        W25649  18.150  31.007  14.552
54034W        W25650  11.734  40.177   1.769
54035W        W25651  12.128  17.347  14.849
54036W        W25652  25.980  23.997  13.810
54037W        W25653  11.859  28.236  13.935
54038W        W25654  16.299  13.224   4.605
54039W        W25655  10.145  13.830  14.296
54040W        W25656   1.521  10.779   3.170
54041W        W25657  32.520  14.641   2.793
54042W        W25658  42.808  13.210  14.886
54043W        W25659  33.918  11.725  13.987
54044W        W25660  29.424  36.135   3.663
54045W        W25661   8.345   4.434  14.290
54046W        W25662  32.388  30.074  10.731
54047W        W25663  12.805  18.012   1.877
54048W        W25664  29.939  30.481  12.556
54049W        W25665  22.286  13.891   2.896
54050W        W25666   3.243  31.929  11.550
54051W        W25667   5.170  16.192  14.575
54052W        W25668  17.758  28.374   4.680
54053W        W25669   3.227  35.160  11.532
54054W        W25670  21.470  31.953   4.025
54055W        W25671  10.608  23.136  11.128
54056W        W25672  21.449   4.230   4.564
54057W        W25673  29.240   5.489  12.459
54058W        W25674  12.753  27.227   4.081
54059W        W25675  42.209  13.130  14.883
54060W        W25676  27.013   6.819  12.526
54061W        W25677  36.273  22.181   1.608
54062W        W25678   6.178  10.555  11.559
54063W        W25679  36.550   7.826  13.484
54064W        W25680   2.503  19.312   4.974
54065W        W25681  40.483  11.776   2.610
54066W        W25682  17.601   1.700   3.665
54067W        W25683   2.962  39.800   2.151
54068W        W25684  31.720  38.849  13.285
54069W        W25685  21.130  37.503   3.348
54070W        W25686  37.014  18.270   4.086
54071W        W25687   0.941  33.274  11.154
54072W        W25688  20.211  20.322   0.266
54073W        W25689  12.878  32.993  13.524
54074W        W25690  32.474  30.190   3.238
54075W        W25691  24.951  29.625   0.571
54076W        W25692  33.111  11.811  10.917
54077W        W25693   1.242  24.673  14.390
54078W        W25694  12.678  14.105  11.941
54079W        W25695  30.498   2.438   2.822
54080W        W25696  39.997  24.552  12.491
54081W        W25697   8.664  17.208  14.140
54082W        W25698   1.506  11.350  11.209
54083W        W25699  11.358  29.985   1.043
54084W        W25700  12.422  19.747   1.808
54085W        W25701  22.109  22.403   2.854
54086W        W25702  24.200  11.841  14.495
54087W        W25703  33.917  38.475  10.825
54088W        W25704  11.621   5.450   1.677
54089W        W25705  21.989  40.945  12.170
54090W        W25706  20.771  40.993  11.043
54091W        W25707   1.092  30.069   1.431
54092W        W25708   4.287  34.755  11.634
54093W        W25709  25.730  22.390  11.567
54094W        W25710  13.757  31.881  12.913
54095W        W25711   2.342  31.131   2.815
54096W        W25712   9.172  43.780   3.157
54097W        W25713  17.125  31.385  11.123
54098W        W25714  11.583  19.738  11.224
54099W        W25715  38.786  16.017  11.030
54100W        W25716  43.082  29.601   4.259
54101W        W25717  17.561  41.453  11.570
54102W        W25718  15.132  18.703   0.721
54103W        W25719   9.288   8.384  12.523
54104W        W25720  37.941  16.835   0.923
54105W        W25721  34.069   8.881  10.906
54106W        W25722  44.588  31.743   3.039
54107W        W25723  10.456  21.262  13.098
54108W        W25724   5.709  44.779  10.537
54109W        W25725  10.534  11.343   0.047
54110W        W25726  21.036   1.318   1.147
54111W        W25727   3.196  26.045  11.906
54112W        W25728  43.416  11.391   3.284
54113W        W25729  41.026  16.154   0.343
54114W        W25730  14.549   1.374  14.881
54115W        W25731  21.776  14.622   3.683
54116W        W25732  29.603  29.575   3.689
54117W        W25733  37.777  40.652  11.964
54118W        W25734  37.878   1.235   3.812
54119W        W25735  28.181  17.652   3.434
54120W        W25736  41.952   5.199  11.179
54121W        W25737   6.205  11.140  14.281
54122W        W25738  25.567  12.988  11.739
54123W        W25739  44.432   3.995   0.184
54124W        W25740   4.002  28.077   4.696
54125W        W25741  16.285  40.923   4.461
54126W        W25742  31.941  12.089   3.541
54127W        W25743  12.087  19.593  11.310
54128W        W25744  15.086  44.025   0.297
54129W        W25745   2.439  20.017  14.297
54130W        W25746  42.266  14.568   3.347
54131W        W25747   0.916  39.822  11.720
54132W        W25748  19.342  20.013  12.438
54133W        W25749  18.479  37.200   1.305
54134W        W25750  33.500   8.368  11.401
54135W        W25751  21.173  39.281  10.727
54136W        W25752  25.926  13.393  11.974
54137W        W25753  17.582  42.965   0.841
54138W        W25754   1.967  26.502  10.087
54139W        W25755  40.895  20.169   4.307
54140W        W25756  23.133  29.045   3.902
54141W        W25757  23.501  27.922   0.235
54142W        W25758  24.904   0.825  11.207
54143W        W25759  26.986  36.833   3.787
54144W        W25760   9.860  20.314  12.648
54145W        W25761  10.681  13.089   0.391
54146W        W25762  16.177  15.556   4.250
54147W        W25763  20.747  39.558  14.794
54148W        W25764  33.381   9.814  13.013
54149W        W25765  10.436  12.352  10.532
54150W        W25766  37.351  30.048  12.901
54151W        W25767  34.927   8.173  14.217
54152W        W25768  40.807  38.385   2.395
54153W        W25769  43.045  19.050  13.398
54154W        W25770  17.905   7.131  13.243
54155W        W25771  43.926   0.487   0.276
54156W        W25772  34.688   2.545  12.851
54157W        W25773  34.863  26.081  12.460
54158W        W25774  19.471  32.353   1.347
54159W        W25775  11.620   5.993   0.175
54160W        W25776  17.317  33.940  11.598
54161W        W25777  25.373  18.838   1.325
54162W        W25778  11.797  23.219   3.793
54163W        W25779  33.811  12.329  10.727
54164W        W25780  26.570  14.397  11.843
54165W        W25781   1.593  34.561   4.239
54166W        W25782  32.219  37.045  11.039
54167W        W25783  15.689  20.149   1.738
54168W        W25784   5.896  37.453   4.487
54169W        W25785  34.883  21.974  12.468
54170W        W25786   6.731  18.184   3.389
54171W        W25787  37.763  30.723   1.287
54172W        W25788  15.233   5.242  14.559
54173W        W25789  36.616  28.023  14.567
54174W        W25790   2.327  35.462   4.150
54175W        W25791  41.155  26.521   0.734
54176W        W25792  33.957  16.628   0.482
54177W        W25793   8.960  13.231   4.019
54178W        W25794   1.453  44.570  11.113
54179W        W25795   7.085  16.213  12.003
54180W        W25796   6.894   1.364   0.661
54181W        W25797   6.207  20.744   3.222
54182W        W25798  40.429  20.902   4.226
54183W        W25799  27.921  18.133   1.152
54184W        W25800  23.606   7.359   2.087
54185W        W25801  42.548  16.914  13.116
54186W        W25802  26.434  25.565  13.105
54187W        W25803  25.900   0.814  13.380
54188W        W25804  23.509  31.145  12.549
54189W        W25805  35.386  15.075   3.340
54190W        W25806  42.959  37.877  10.521
54191W        W25807  43.610  10.633   1.978
54192W        W25808  10.195  29.740  13.665
54193W        W25809  10.298  43.296   0.384
54194W        W25810  22.632  33.829   4.678
54195W        W25811  34.966  42.580  10.410
54196W        W25812  32.753  40.687  14.735
54197W        W25813  23.975  20.732   4.492
54198W        W25814  15.354  16.778  11.969
54199W        W25815  37.876  32.061   2.717
54200W        W25816  19.249   0.780   1.416
54201W        W25817  24.467  22.246  12.879
54202W        W25818  17.603  14.840   0.412
54203W        W25819  33.628   9.070   4.266
54204W        W25820  32.009  28.545  14.495
54205W        W25821  42.907   1.056  14.753
54206W        W25822  22.570  40.987  13.371
54207W        W25823  17.098   2.862  12.539
54208W        W25824  39.988  26.646  13.182
54209W        W25825   9.280  14.474  10.695
54210W        W25826  25.955  27.934   1.398
54211W        W25827   4.792  30.450  12.116
54212W        W25828  37.521  19.701  14.312
54213W        W25829  13.442  14.071  14.453
54214W        W25830  35.478  13.312  11.045
54215W        W25831  27.994  34.276   1.008
54216W        W25832  16.793   4.709   2.797
54217W        W25833   4.354  12.692  13.870
54218W        W25834   7.244  36.517  10.669
54219W        W25835   0.054  32.032  11.598
54220W        W25836   5.905  40.234  13.257
54221W        W25837   9.705  33.239  12.638
54222W        W25838   4.133   5.741   0.805
54223W        W25839  28.939   1.211   3.774
54224W        W25840  20.623   0.704  10.738
54225W        W25841  38.545  14.351  14.410
54226W        W25842   4.939  40.981   4.450
54227W        W25843  28.563  44.184  11.087
54228W        W25844   7.978  28.405   3.806
54229W        W25845  41.436  26.936   2.153
54230W        W25846  12.255   1.447   0.421
54231W        W25847  28.418  25.976  14.912
54232W        W25848  41.762  12.373   0.260
54233W        W25849  36.337  21.327   0.360
54234W        W25850  25.220  18.902   0.307
54235W        W25851  37.054  41.582   4.381
54236W        W25852  11.594  11.856  12.386
54237W        W25853  39.580  35.914   2.445
54238W        W25854   4.707  32.405   2.759
54239W        W25855   9.102  22.049  13.606
54240W        W25856  31.998  41.575   3.805
54241W        W25857  25.523  37.483  13.742
54242W        W25858   7.848  30.660  10.701
54243W        W25859  17.532  42.406  11.599
54244W        W25860  12.319  25.970   2.635
54245W        W25861   1.733  15.339   3.713
54246W        W25862  30.263  38.514  10.479
54247W        W25863   1.371  12.561  14.941
54248W        W25864  24.426  38.009   4.585
54249W        W25865  18.705  35.959   4.208
54250W        W25866   5.782  18.259  13.006
54251W        W25867  43.578  35.110   2.694
54252W        W25868  44.282  23.938  13.870
54253W        W25869  11.430  38.532  13.012
54254W        W25870   9.877   6.297  11.841
54255W        W25871   4.818  14.729  10.789
54256W        W25872  24.040   3.958  14.460
54257W        W25873  11.326  24.996  12.418
54258W        W25874   3.932   3.935   2.597
54259W        W25875  37.153   8.309  11.541
54260W        W25876  10.853  26.717  13.026
54261W        W25877  31.539  28.779  14.376
54262W        W25878  11.263  18.820  11.143
54263W        W25879  16.120  44.746   1.362
54264W        W25880  21.571  40.061  10.507
54265W        W25881  42.402  16.636  10.559
54266W        W25882  26.618   0.853   4.481
54267W        W25883  10.153  36.344  10.853
54268W        W25884  14.994  33.601   3.333
54269W        W25885   6.107   2.744   0.441
54270W        W25886  25.531  41.362  10.715
54271W        W25887  30.613   7.633   3.409
54272W        W25888  27.370   2.971  12.411
54273W        W25889  34.836  24.617  13.903
54274W        W25890  24.911  37.527  14.966
54275W        W25891   7.448  38.013   2.273
54276W        W25892  22.305  26.631  10.567
54277W        W25893  16.682   2.072  14.460
54278W        W25894  23.813  19.620   4.243
54279W        W25895  35.127  31.573   4.421
54280W        W25896  31.935  27.750   9.886
54281W        W25897  27.299   6.254   0.049
54282W        W25898  18.422   6.284  11.628
54283W        W25899   7.746  23.035   1.402
54284W        W25900  18.633  33.008   1.826
54285W        W25901  31.142  39.385   1.892
54286W        W25902   8.385  38.532   2.901
54287W        W25903  18.144  19.177   1.194
54288W        W25904  42.281  33.472  14.473
54289W        W25905  11.935  43.353  13.004
54290W        W25906   5.937  19.591   2.831
54291W        W25907  42.478   6.474   4.789
54292W        W25908  11.848  39.324  12.079
54293W        W25909  10.136   5.432  12.469
54294W        W25910   6.451  19.168  12.452
54295W        W25911  16.866  29.939   0.317
54296W        W25912  35.231  39.495   0.744
54297W        W25913  20.326  34.049   2.350
54298W        W25914  36.967  12.301   3.912
54299W        W25915   3.937   2.395  11.433
54300W        W25916  38.011   7.918  14.632
54301W        W25917   0.951   1.478  14.302
54302W        W25918  10.809   7.913  10.476
54303W        W25919  28.749  30.488   2.825
54304W        W25920   6.365  15.935   2.995
54305W        W25921  44.288  22.957  12.507
54306W        W25922  22.730  29.626  12.582
54307W        W25923   1.926  14.067   0.830
54308W        W25924   2.132  43.958   0.482
54309W        W25925   5.288  21.088  12.981
54310W        W25926  11.934  11.670  13.826
54311W        W25927  30.448  10.701  10.707
54312W        W25928  19.691   7.821   1.796
54313W        W25929   2.793   1.684  13.366
54314W        W25930  16.318   1.278   1.244
54315W        W25931  35.098  34.344   2.638
54316W        W25932  42.549  12.394  12.005
54317W        W25933  37.656  11.276   4.605
54318W        W25934   6.738  34.376  13.463
54319W        W25935  25.519  22.794   0.662
54320W        W25936  27.455  25.793   3.974
54321W        W25937  26.206  10.664  13.812
54322W        W25938  15.109   9.349  14.313
54323W        W25939  17.554  38.373   3.178
54324W        W25940  30.888  36.612   0.633
54325W        W25941  15.770  44.828  14.801
54326W        W25942  23.289  18.195   2.896
54327W        W25943  39.009   2.855   1.637
54328W        W25944  36.137  32.673  14.903
54329W        W25945  25.472  23.692   4.138
54330W        W25946  40.502   0.296   4.883
54331W        W25947  34.532  29.945   0.763
54332W        W25948   1.180  21.085  10.749
54333W        W25949  29.429   7.266   3.190
54334W        W25950  29.121  24.276  11.474
54335W        W25951  30.910  18.790   0.258
54336W        W25952  39.858  23.485  14.888
54337W        W25953  37.866   1.790  10.772
54338W        W25954  37.053  23.654   0.304
54339W        W25955  25.375  12.828   1.192
54340W        W25956  16.301  29.640  11.636
54341W        W25957  41.686  11.573   3.300
54342W        W25958  29.937  15.121   1.308
54343W        W25959  20.394   1.408  11.206
54344W        W25960  14.455  14.158   4.590
54345W        W25961   2.796  29.130   1.757
54346W        W25962   5.579  22.105   3.192
54347W        W25963  37.171  36.813  11.748
54348W        W25964  42.226   7.883  11.271
54349W        W25965   0.814   4.188   1.360
54350W        W25966  18.239  27.615   0.327
54351W        W25967  36.785  13.072  13.824
54352W        W25968  21.215  27.380   2.717
54353W        W25969   3.124   5.266   3.903
54354W        W25970   3.766  18.115  13.508
54355W        W25971   8.555   3.934  11.526
54356W        W25972   1.042  40.512   2.721
54357W        W25973  37.969  14.340   3.228
54358W        W25974  13.870  36.611   4.180
54359W        W25975  19.608  29.343   1.139
54360W        W25976  40.478  19.988   1.387
54361W        W25977   4.665  35.047   2.288
54362W        W25978   2.355  40.468  13.495
54363W        W25979  22.950   1.726   2.165
54364W        W25980  27.090   2.014  10.697
54365W        W25981   2.817  26.154   3.166
54366W        W25982  11.306   7.486   0.759
54367W        W25983  38.555  26.165  11.090
54368W        W25984  13.615   5.440  11.579
54369W        W25985  37.504   1.528   3.623
54370W        W25986  31.084   4.358  14.936
54371W        W25987  43.564  22.086   1.979
54372W        W25988  35.902   7.389  14.470
54373W        W25989   7.638  35.155   2.953
54374W        W25990  40.707  29.653  12.823
54375W        W25991  17.987  11.139   4.022
54376W        W25992  18.613  42.307   1.494
54377W        W25993   0.923  23.787   3.314
54378W        W25994  12.345   8.826  13.948
54379W        W25995  38.805  34.394  11.004
54380W        W25996  21.240  28.760  13.017
54381W        W25997  15.270  28.749   0.997
54382W        W25998  23.611  31.446  10.657
54383W        W25999  23.685  33.547  11.403
54384W        W26000  19.195  18.997   1.263
54385W        W26001  27.476  20.992  12.461
54386W        W26002  33.154  41.856  12.446
54387W        W26003  39.859   6.952  11.006
54388W        W26004   1.488  27.114  11.382
54389W        W26005  23.047  38.377   4.954
54390W        W26006  26.129  12.299   0.454
54391W        W26007  32.398  43.251   4.923
54392W        W26008  31.532  11.670  14.498
54393W        W26009   8.768  22.763   4.552
54394W        W26010  29.544  19.824  14.844
54395W        W26011  40.479   0.460   2.819
54396W        W26012  10.117  23.159   2.908
54397W        W26013   3.224  28.735   0.433
54398W        W26014  24.749  34.596   2.802
54399W        W26015  43.777  44.723  10.772
54400W        W26016  35.538  43.104  13.056
54401W        W26017   8.170  21.511   4.860
54402W        W26018  40.289  44.074   1.760
54403W        W26019  42.374   4.061  13.413
54404W        W26020  18.676  24.165   0.725
54405W        W26021  27.084  27.115  13.239
54406W        W26022   9.955   3.995   0.639
54407W        W26023  12.209  18.209  11.503
54408W        W26024  28.954  28.618   1.423
54409W        W26025  38.825  35.619  11.515
54410W        W26026  37.936  10.418  13.920
54411W        W26027  20.653  36.964   3.597
54412W        W26028  34.073  21.254   2.711
54413W        W26029  41.875  40.878   0.992
54414W        W26030  34.107  42.941   0.375
54415W        W26031   9.581  43.773  13.487
54416W        W26032   4.961  43.502  13.850
54417W        W26033  12.785  11.997   2.316
54418W        W26034  37.293  21.206  14.982
54419W        W26035  18.025  40.472  11.084
54420W        W26036  31.600  19.727   2.843
54421W        W26037  36.687  35.939   1.206
54422W        W26038  42.388   5.889   4.683
54423W        W26039  36.423  38.582  10.671
54424W        W26040  30.146  29.397  12.945
54425W        W26041  28.946  36.659   0.184
54426W        W26042  20.287  35.620   4.573
54427W        W26043   3.770   4.400  11.996
54428W        W26044  20.596  16.802   2.133
54429W        W26045  18.907   6.890  14.004
54430W        W26046   1.537   5.896   3.186
54431W        W26047   2.211  27.883  14.180
54432W        W26048  40.950   3.978  12.449
54433W        W26049  10.454  41.473   1.411
54434W        W26050  40.903   4.435  14.423
54435W        W26051  27.677   9.520  12.888
54436W        W26052  42.835  20.721  11.168
54437W        W26053   5.947   1.275  12.827
54438W        W26054  17.768   7.994   3.052
54439W        W26055   9.138   3.188   3.708
54440W        W26056  30.023   8.675   4.897
54441W        W26057  39.970  29.381  13.903
54442W        W26058  37.406   9.848  13.989
54443W        W26059  10.691  31.412   0.980
54444W        W26060   2.236  17.105  11.153
54445W        W26061  21.241  34.650  14.087
54446W        W26062  30.063  25.760   4.603
54447W        W26063  36.518  27.933   0.910
54448W        W26064   3.390  24.110   2.367
54449W        W26065  44.157  27.542  13.576
54450W        W26066  41.782  12.222  13.838
54451W        W26067  28.493  15.681   3.213
54452W        W26068  31.082  43.265  11.391
54453W        W26069  21.748  34.553   0.784
54454W        W26070  15.670  25.743   4.700
54455W        W26071   6.144   7.501   3.724
54456W        W26072   1.184  19.021   4.077
54457W        W26073  18.249  40.599  10.620
54458W        W26074  17.813  42.799  13.385
54459W        W26075  34.907   4.959   1.280
54460W        W26076  43.928  33.601   1.802
54461W        W26077  40.353   4.802   0.377
54462W        W26078  26.200   2.868   1.219
54463W        W26079  22.551  23.927  13.436
54464W        W26080  13.007  10.998  14.328
54465W        W26081  37.147  42.356  12.394
54466W        W26082  42.718  19.645  10.877
54467W        W26083  12.873  21.005  14.932
54468W        W26084  30.427  20.513  13.432
54469W        W26085  11.071  13.829  12.563
54470W        W26086  17.685  11.159   4.459
54471W        W26087  20.813   1.382   0.680
54472W        W26088  21.214  44.460  10.337
54473W        W26089  38.529   1.513   1.875
54474W        W26090  24.217  32.486  14.438
54475W        W26091   6.222  34.501   1.746
54476W        W26092   0.257  31.812   4.173
54477W        W26093  11.675  36.399  14.568
54478W        W26094  44.039  10.509  13.172
54479W        W26095  11.830  28.129   4.094
54480W        W26096  20.339  10.302  13.330
54481W        W26097  13.573  10.987  11.163
54482W        W26098  14.511  17.360  12.933
54483W        W26099  22.009   4.771  10.564
54484W        W26100  21.510  34.362   1.256
54485W        W26101  12.168  32.395   3.714
54486W        W26102  19.210  11.647   0.299
54487W        W26103  15.120  12.102   0.242
54488W        W26104  16.355  27.709  14.117
54489W        W26105   1.658  40.085   3.309
54490W        W26106  32.443  17.145   0.983
54491W        W26107  33.996  40.527   4.514
54492W        W26108  42.978  32.949   3.169
54493W        W26109  40.032   6.001   1.373
54494W        W26110  44.437  43.996  12.141
54495W        W26111  25.959  33.879   2.873
54496W        W26112   9.198  15.536  11.443
54497W        W26113  21.536   2.994   0.527
54498W        W26114  40.064  28.902  13.715
54499W        W26115   0.389  12.384   1.927
54500W        W26116   1.943  43.826   2.253
54501W        W26117  14.572  35.617  14.362
54502W        W26118  28.881   1.219  10.661
54503W        W26119  37.105  44.726  14.849
54504W        W26120  26.925   7.728   2.524
54505W        W26121  43.418  14.225  13.850
54506W        W26122  19.599  14.211   0.427
54507W        W26123   5.561  38.397   2.147
54508W        W26124  35.425  39.605  13.905
54509W        W26125  15.333   4.899  13.904
54510W        W26126  24.280  31.746  12.515
54511W        W26127  32.115  25.086   3.118
54512W        W26128  23.742  40.762  14.825
54513W        W26129   3.754  41.934   1.062
54514W        W26130  32.695  17.591   0.842
54515W        W26131   2.254  36.369  11.208
54516W        W26132  37.797  30.174  12.050
54517W        W26133  33.401  32.314  11.176
54518W        W26134  44.174  25.100   1.205
54519W        W26135  19.760  15.656  13.440
54520W        W26136  19.183  37.866  14.470
54521W        W26137   6.718  10.079  14.878
54522W        W26138  14.526   4.455  11.038
54523W        W26139   5.361  11.820  11.483
54524W        W26140  19.721  28.274   2.259
54525W        W26141  39.512  11.404  10.540
54526W        W26142  15.226   2.819  10.428
54527W        W26143  41.604  14.801   0.706
54528W        W26144  16.368  40.431  11.604
54529W        W26145  44.970  28.311  11.102
54530W        W26146   1.691  44.181   2.561
54531W        W26147  38.888  10.179  10.825
54532W        W26148  28.187  15.533  13.067
54533W        W26149  25.971  22.568  13.492
54534W        W26150   8.622  31.152   3.643
54535W        W26151  33.047  18.032   3.121
54536W        W26152  39.810  31.922   4.107
54537W        W26153   9.481  41.544   1.313
54538W        W26154   4.750   1.995  12.484
54539W        W26155   1.304  17.138  12.503
54540W        W26156   1.386  37.431  10.353
54541W        W26157  44.838  11.421  14.481
54542W        W26158  33.305  18.148  10.851
54543W        W26159  15.543  16.847   5.136
54544W        W26160  37.363  40.777   4.766
54545W        W26161   2.717   7.436   4.206
54546W        W26162  21.450   8.911  14.834
54547W        W26163   5.926  20.070  14.826
54548W        W26164   0.955  31.165   3.949
54549W        W26165  20.610  23.447   2.061
54550W        W26166  30.861  22.185  11.191
54551W        W26167  18.352  21.320   3.641
54552W        W26168   4.744   1.195  13.289
54553W        W26169   3.405  39.517   2.375
54554W        W26170  26.924  24.275   1.741
54555W        W26171   9.284   2.923  14.438
54556W        W26172  44.057  23.216  12.129
54557W        W26173   3.989  27.654  10.830
54558W        W26174   5.619  25.542  12.577
54559W        W26175  36.017  37.942   4.493
54560W        W26176   0.771  28.188  12.093
54561W        W26177  30.365  41.032  10.798
54562W        W26178  22.157  40.207   2.168
54563W        W26179  11.650  33.957  13.502
54564W        W26180  42.025   1.013   1.237
54565W        W26181  44.210  13.630   4.060
54566W        W26182  26.674  27.632  12.506
54567W        W26183  32.200  31.444   2.901
54568W        W26184  41.806  41.585   0.329
54569W        W26185  31.802  27.814   2.834
54570W        W26186  22.991  14.691   2.853
54571W        W26187  34.475  41.064   2.662
54572W        W26188  44.159  32.411   3.742
54573W        W26189  41.744  25.569   2.226
54574W        W26190  43.768  35.583   1.233
54575W        W26191  22.793  18.259  11.482
54576W        W26192   5.181  13.872   2.262
54577W        W26193  31.247  25.463  13.095
54578W        W26194   8.290   7.747   3.898
54579W        W26195  27.577  11.965   2.217
54580W        W26196   1.304  43.490   3.115
54581W        W26197  15.293   5.982  10.576
54582W        W26198   4.755   9.677   4.997
54583W        W26199  16.717  23.703  12.941
54584W        W26200  25.618  11.608  11.994
54585W        W26201  21.097  19.251  14.372
54586W        W26202  18.101   8.046  12.035
54587W        W26203  18.662  17.056   2.222
54588W        W26204  44.861   6.148  11.615
54589W        W26205  41.284  27.681  12.886
54590W        W26206  13.063  38.117   4.153
54591W        W26207  28.977  16.571  11.037
54592W        W26208   2.786  26.748   1.149
54593W        W26209  38.833   8.110  12.621
54594W        W26210  16.440  31.384   3.929
54595W        W26211   2.937  42.315   2.212
54596W        W26212  27.682  37.568  10.665
54597W        W26213   5.848  34.437   0.388
54598W        W26214  42.984  14.860   0.977
54599W        W26215  19.625  25.567   1.869
54600W        W26216  36.168   6.669  13.187
54601W        W26217  13.311  11.633  11.567
54602W        W26218   7.948  31.954  11.609
54603W        W26219  37.569  24.200   1.869
54604W        W26220   2.484   8.792   1.039
54605W        W26221  27.409  35.552  10.654
54606W        W26222  25.040  15.797   1.833
54607W        W26223  39.088  39.981   3.499
54608W        W26224  35.554  40.372  12.401
54609W        W26225   1.225  12.692  13.334
54610W        W26226  24.954  32.511   2.415
54611W        W26227  34.429  29.886   3.159
54612W        W26228  37.568  18.596  14.231
54613W        W26229  29.551  38.178   2.619
54614W        W26230  33.428  15.810   4.172
54615W        W26231  33.266  35.873  12.574
54616W        W26232  14.860  29.410  13.452
54617W        W26233  21.751  41.185   0.399
54618W        W26234  13.148  37.914   0.743
54619W        W26235  38.386  39.537   3.564
54620W        W26236  34.824  40.944  11.446
54621W        W26237   3.164   2.423   4.521
54622W        W26238  25.771  39.690   4.224
54623W        W26239  21.853  44.888  12.468
54624W        W26240  26.847   0.557  11.188
54625W        W26241   9.136  36.004  12.167
54626W        W26242  33.290  24.790   2.821
54627W        W26243   6.770  30.738  13.019
54628W        W26244  24.969  20.688   0.837
54629W        W26245  34.964  44.676   2.166
54630W        W26246  24.760  43.898   4.221
54631W        W26247   9.686  33.105   0.199
54632W        W26248  42.929  13.742   2.336
54633W        W26249  39.791  19.724   0.389
54634W        W26250  31.390   4.008   0.642
54635W        W26251  28.098  16.748  10.679
54636W        W26252  10.131  29.970  12.397
54637W        W26253  29.464  44.997  12.206
54638W        W26254  39.802  44.437  12.344
54639W        W26255  27.577  37.630  14.440
54640W        W26256   3.022   6.604  13.876
54641W        W26257  23.262  17.180  13.565
54642W        W26258   4.303  20.624  11.714
54643W        W26259  35.320  35.565  11.972
54644W        W26260  38.139  24.765   2.357
54645W        W26261  26.277  26.547   5.021
54646W        W26262  13.644  28.290   3.997
54647W        W26263   2.324  17.650   0.702
54648W        W26264  11.863  10.168  14.389
54649W        W26265  29.157  12.691   4.091
54650W        W26266  44.042  18.812  13.396
54651W        W26267  44.435   2.785   4.716
54652W        W26268  38.445   6.290  14.923
54653W        W26269   0.771  19.291  12.916
54654W        W26270  17.961  35.921   3.316
54655W        W26271   8.100  37.405  14.338
54656W        W26272  19.137  44.484  13.880
54657W        W26273  40.156   3.880  14.444
54658W        W26274   3.322  34.015   3.724
54659W        W26275   4.529   7.678   2.294
54660W        W26276  10.448  18.517  11.164
54661W        W26277  23.221  42.894  11.956
54662W        W26278  33.865  41.536   4.581
54663W        W26279  33.801  13.257  10.617
54664W        W26280  40.256  25.577  13.934
54665W        W26281  28.683  10.609  11.267
54666W        W26282  13.616  28.633   4.744
54667W        W26283  41.318  25.394   1.454
54668W        W26284   0.720   3.322  12.537
54669W        W26285  42.106   9.312  13.490
54670W        W26286   6.701  38.137   1.450
54671W        W26287  40.436   6.345  14.068
54672W        W26288  39.351  17.020   3.195
54673W        W26289   1.927  22.738  12.849
54674W        W26290  39.894  15.255  10.638
54675W        W26291   7.984   3.026   3.728
54676W        W26292  11.566   7.547  11.620
54677W        W26293  44.258   4.458  10.370
54678W        W26294  25.044  19.233  13.359
54679W        W26295  36.921  41.472   2.072
54680W        W26296  44.554  24.986   2.263
54681W        W26297  22.506   8.569   0.937
54682W        W26298  32.141  31.007   1.241
54683W        W26299  36.632  15.296  11.501
54684W        W26300   6.495  30.242  14.247
54685W        W26301  39.431   1.524   0.902
54686W        W26302  29.010  37.894   3.284
54687W        W26303  16.782  22.462   4.225
54688W        W26304  13.802  28.140   1.028
54689W        W26305  14.035  38.020   2.285
54690W        W26306  32.758  29.093   2.158
54691W        W26307   2.479   0.211   0.451
54692W        W26308  16.335  13.375  13.532
54693W        W26309  44.308   5.893   4.534
54694W        W26310   8.626   7.315   3.891
54695W        W26311  19.213  41.549  13.833
54696W        W26312  28.548  19.243  13.391
54697W        W26313   8.996   4.520   5.025
54698W        W26314   2.274   4.229  13.799
54699W        W26315   2.233  17.580  14.037
54700W        W26316  36.010   4.543  11.686
54701W        W26317   4.258  17.372  13.508
54702W        W26318   9.878  30.052   3.166
54703W        W26319   8.316   7.314   0.422
54704W        W26320  37.691  14.769  14.781
54705W        W26321   8.170  11.619  10.791
54706W        W26322  22.548   2.862  10.398
54707W        W26323  26.592   6.602   0.348
54708W        W26324  12.166  12.601  10.882
54709W        W26325  19.654  25.617   1.347
54710W        W26326   2.358  26.435   3.231
54711W        W26327  20.679  30.399  11.085
54712W        W26328   6.872  13.386  13.450
54713W        W26329  29.180   3.755   1.803
54714W        W26330  36.129  28.084  12.306
54715W        W26331  28.447  21.306  13.826
54716W        W26332  15.345  29.892  14.074
54717W        W26333  39.900  41.721  12.566
54718W        W26334  16.088  31.647   4.215
54719W        W26335  29.498  33.471  14.817
54720W        W26336  20.564  15.911   2.662
54721W        W26337  34.083  34.040   1.226
54722W        W26338  32.952  35.343  14.070
54723W        W26339  16.192  16.547  14.756
54724W        W26340  44.671  15.276   4.833
54725W        W26341   5.227  17.583  10.606
54726W        W26342  24.542  36.995  11.591
54727W        W26343  31.565   4.405   3.678
54728W        W26344  20.942  31.634  10.699
54729W        W26345  29.661  35.241   1.433
54730W        W26346  28.372  19.998  11.432
54731W        W26347  10.059  13.328  11.148
54732W        W26348  24.057  34.229  11.503
54733W        W26349  37.510  25.939   4.779
54734W        W26350   8.976  33.643   3.500
54735W        W26351  35.767  22.335   4.293
54736W        W26352  25.427  21.459  14.885
54737W        W26353  24.579   5.322  14.933
54738W        W26354  12.740   2.837   3.511
54739W        W26355  26.813  31.288  12.853
54740W        W26356  37.645  44.927  13.900
54741W        W26357  22.802  22.997   1.327
54742W        W26358  34.610  20.966  13.305
54743W        W26359  44.965  37.181   2.799
54744W        W26360  27.933  31.705   5.080
54745W        W26361   6.902  37.072   1.328
54746W        W26362  35.577   4.308   1.736
54747W        W26363  19.288  11.059   2.254
54748W        W26364  36.387   3.052   0.849
54749W        W26365   6.292  24.678   2.183
54750W        W26366  25.697   3.450   4.682
54751W        W26367  27.549  36.296  12.002
54752W        W26368  27.531   5.342  12.048
54753W        W26369  22.088  13.836   2.404
54754W        W26370  29.131   3.770   1.244
54755W        W26371   6.664  16.290  13.536
54756W        W26372  19.626  28.138  10.465
54757W        W26373   9.736  19.950  11.791
54758W        W26374  35.469  38.658   4.169
54759W        W26375   4.201  16.515  14.387
54760W        W26376   2.534  38.852   4.242
54761W        W26377  16.150  28.517   1.457
54762W        W26378  32.569   2.246   1.206
54763W        W26379  23.173   8.462  13.403
54764W        W26380  23.550  17.002  13.160
54765W        W26381  21.668  17.748   0.715
54766W        W26382   3.007  29.020  10.396
54767W        W26383  10.280  19.082  13.856
54768W        W26384  25.639  42.808  13.551
54769W        W26385   2.342  10.189   5.201
54770W        W26386  26.703   8.707   4.557
54771W        W26387  17.556  40.467   1.485
54772W        W26388  27.558  13.366  10.087
54773W        W26389  17.052  21.524   2.162
54774W        W26390  18.609  17.715  13.787
54775W        W26391  14.574   7.878   0.959
54776W        W26392  44.394  31.880   4.340
54777W        W26393  33.001   6.737   0.342
54778W        W26394  34.227  16.858   2.520
54779W        W26395  26.412  43.771   0.442
54780W        W26396  24.577  14.873  12.575
54781W        W26397   3.858  20.904  11.671
54782W        W26398  31.590  18.308   0.799
54783W        W26399  15.390   3.486  10.909
54784W        W26400  42.134   2.241   1.863
54785W        W26401  34.610  31.542   1.787
54786W        W26402  38.506  16.178   2.764
54787W        W26403  40.518  14.263  11.636
54788W        W26404   6.726  28.134  12.017
54789W        W26405  12.311   6.866  12.904
54790W        W26406  41.435  14.087  11.485
54791W        W26407  22.096  42.231  12.344
54792W        W26408  16.496  39.845   0.230
54793W        W26409  22.682  25.792   4.329
54794W        W26410  10.885  28.039   1.986
54795W        W26411  40.232  14.961   1.371
54796W        W26412   0.714  35.221   3.233
54797W        W26413  28.886   7.154   2.280
54798W        W26414  22.052  13.418  14.412
54799W        W26415  37.635  31.093  10.594
54800W        W26416   2.170  41.813  13.043
54801W        W26417  25.229  18.540   2.531
54802W        W26418  42.264   4.079  12.534
54803W        W26419  18.254  22.132  12.399
54804W        W26420   0.902   3.707  12.866
54805W        W26421   9.383   6.084  11.131
54806W        W26422  43.783  27.448  14.394
54807W        W26423  34.111  36.518   0.345
54808W        W26424  39.373  11.332  12.890
54809W        W26425  10.913  29.467   0.749
54810W        W26426  14.718  22.221  11.477
54811W        W26427   0.768  38.860  13.871
54812W        W26428   0.464  25.410   2.525
54813W        W26429  26.686  37.890  13.950
54814W        W26430  20.025  36.840   2.207
54815W        W26431  28.550  37.373  14.212
54816W        W26432  38.217   5.239  10.376
54817W        W26433  22.529  34.690   1.851
54818W        W26434  12.518  12.487  10.466
54819W        W26435  13.337  38.213   0.366
54820W        W26436  39.083  43.778  10.675
54821W        W26437  42.804  20.277   3.374
54822W        W26438  16.394  40.003  11.910
54823W        W26439  20.540  44.650   2.265
54824W        W26440  32.947   8.822   2.767
54825W        W26441  28.670   5.479  14.028
54826W        W26442  20.939   0.054   2.860
54827W        W26443   2.821  33.233  14.352
54828W        W26444  14.717  13.294   3.743
54829W        W26445  41.825  36.125  10.229
54830W        W26446  14.970  35.517   4.194
54831W        W26447  23.273  26.912   1.490
54832W        W26448   2.570  27.636   4.559
54833W        W26449  12.390  35.540   4.253
54834W        W26450  27.174   2.543  10.740
54835W        W26451  12.358   5.018   2.717
54836W        W26452  24.201  41.360   0.170
54837W        W26453  18.976  40.067   1.643
54838W        W26454  38.726  43.750  11.993
54839W        W26455  11.152  11.450  11.505
54840W        W26456  25.112  19.250   4.229
54841W        W26457  35.326  20.655  11.072
54842W        W26458  18.772  41.366  14.046
54843W        W26459   1.788  38.488  13.792
54844W        W26460  33.981  30.392   4.402
54845W        W26461   7.721  42.921  13.844
54846W        W26462  22.034  43.064  12.024
54847W        W26463  10.835  32.891   2.715
54848W        W26464  37.186   7.042   1.984
54849W        W26465  36.849  34.902   3.292
54850W        W26466  15.367  23.845   1.693
54851W        W26467  19.076  37.703   1.698
54852W        W26468  44.468  11.400  13.285
54853W        W26469   3.826   1.377  14.007
54854W        W26470  17.568  32.945  14.743
54855W        W26471   0.359   6.343   4.437
54856W        W26472   4.106  34.728  14.798
54857W        W26473  11.843  43.260  12.071
54858W        W26474  35.101   0.516  13.939
54859W        W26475   1.762   3.831   0.424
54860W        W26476  36.099  32.221   4.521
54861W        W26477  27.067  40.915   4.538
54862W        W26478  19.029  35.626  12.588
54863W        W26479   2.862  41.376   4.710
54864W        W26480  20.301  14.287   3.772
54865W        W26481   5.334  30.183   0.356
54866W        W26482  44.000   8.555   3.675
54867W        W26483  33.963  32.982  11.481
54868W        W26484  10.490  24.103  12.936
54869W        W26485  10.539   2.840  11.173
54870W        W26486  21.915  17.284   2.106
54871W        W26487  31.001   9.365   0.844
54872W        W26488  28.940  35.830  11.919
54873W        W26489  41.656  10.115  11.506
54874W        W26490  42.896  40.755   3.323
54875W        W26491   9.733  16.414   3.855
54876W        W26492  20.474  10.665  10.675
54877W        W26493   5.419  42.905  14.433
54878W        W26494  30.006  33.759   0.749
54879W        W26495   2.702  42.934   4.716
54880W        W26496  40.247   4.844   3.236
54881W        W26497  24.478   3.780  13.865
54882W        W26498   1.503  10.820  14.349
54883W        W26499   9.892  38.574  12.661
54884W        W26500  43.881  25.035  14.430
54885W        W26501  31.165  42.273  14.966
54886W        W26502  42.369  32.343  14.027
54887W        W26503  34.532  37.589   1.691
54888W        W26504   9.237  24.156   4.783
54889W        W26505  40.166  29.153  12.297
54890W        W26506  42.848  34.071  12.368
54891W        W26507  38.840  13.681  12.860
54892W        W26508   9.836   6.678   1.186
54893W        W26509  28.909  23.886   4.121
54894W        W26510  31.440  36.460  13.903
54895W        W26511  13.081   6.612   0.975
54896W        W26512  20.538  24.547  12.964
54897W        W26513   0.053  27.400  14.886
54898W        W26514  19.498   3.637   1.307
54899W        W26515  22.706  40.555  14.839
54900W        W26516  26.459  34.976   4.965
54901W        W26517   6.544  28.748  11.514
54902W        W26518  29.115  12.618   2.627
54903W        W26519  12.545  17.890   2.419
54904W        W26520  12.821  24.223   4.891
54905W        W26521  17.605  33.126   1.738
54906W        W26522  20.008  43.475  11.626
54907W        W26523   9.920  25.029   1.801
54908W        W26524   3.996  33.092   2.206
54909W        W26525  32.022  15.358  10.981
54910W        W26526   9.122  13.473  10.572
54911W        W26527  36.604  26.117   3.832
54912W        W26528  18.576  22.246  12.937
54913W        W26529  33.159  12.300  12.849
54914W        W26530  31.507  20.423   3.346
54915W        W26531  36.851  13.595  13.020
54916W        W26532  14.866  42.294   2.713
54917W        W26533   5.089  21.798  11.650
54918W        W26534  24.720  20.768   0.399
54919W        W26535  36.406  44.335  10.005
54920W        W26536  26.232   4.877   0.858
54921W        W26537  17.511  19.929   4.302
54922W        W26538  29.452  37.219  14.011
54923W        W26539  26.455  42.428  13.199
54924W        W26540  41.536   9.386   4.455
54925W        W26541  38.903  11.558   0.525
54926W        W26542  30.458  25.695  13.080
54927W        W26543  40.257  42.925  14.895
54928W        W26544  10.175  12.790   4.607
54929W        W26545   5.335  25.575  11.114
54930W        W26546  36.971  25.502  14.341
54931W        W26547   7.092  38.264   0.511
54932W        W26548   7.766  29.011   4.509
54933W        W26549  13.692  15.588  14.232
54934W        W26550   6.809  34.410  12.518
54935W        W26551   4.474  40.480   2.338
54936W        W26552  30.751  44.327   0.683
54937W        W26553  34.057  29.926   0.125
54938W        W26554  10.148  32.678   4.623
54939W        W26555  42.393  35.486   0.629
54940W        W26556  34.706  31.401   4.659
54941W        W26557  28.099  30.207  11.102
54942W        W26558  35.194  31.362  14.107
54943W        W26559   0.537  26.106   1.842
54944W        W26560  30.243  21.646   2.898
54945W        W26561  37.410  35.769   1.492
54946W        W26562  44.855  20.735   0.331
54947W        W26563  44.342  21.250  11.688
54948W        W26564   7.189  42.800   1.103
54949W        W26565  11.653  34.352   3.080
54950W        W26566   4.459  23.871  14.799
54951W        W26567  37.439   5.843   4.146
54952W        W26568  14.741  29.290  11.021
54953W        W26569   1.650  15.030  12.954
54954W        W26570  36.258  12.228  10.814
54955W        W26571   0.770  37.394  12.614
54956W        W26572  41.910  10.426   0.901
54957W        W26573  23.638  12.525   0.499
54958W        W26574  30.863   4.523  13.481
54959W        W26575  37.859  12.884   2.798
54960W        W26576  16.255  26.920  14.876
54961W        W26577  22.625  28.885   3.229
54962W        W26578  36.399  33.524  13.419
54963W        W26579  33.919  28.424   0.198
54964W        W26580   3.492  17.715   1.883
54965W        W26581  37.123  22.360  13.812
54966W        W26582   4.193   0.593   2.667
54967W        W26583  31.320  11.615   0.496
54968W        W26584  23.758  11.482  14.218
54969W        W26585  16.563   2.718  13.495
54970W        W26586  37.550   9.399   2.439
54971W        W26587   5.951  13.150   2.587
54972W        W26588  35.084  33.972   4.180
54973W        W26589  37.450   4.702   3.113
54974W        W26590  16.047  12.181  13.107
54975W        W26591  17.630  40.879  11.426
54976W        W26592  42.211   5.023   2.235
54977W        W26593  33.741  27.488   3.175
54978W        W26594  29.919  41.309   3.255
54979W        W26595  16.541  27.090   4.286
54980W        W26596  39.100  38.336   1.783
54981W        W26597  34.416  32.420  13.925
54982W        W26598   5.393   7.504  11.563
54983W        W26599  24.071  18.200  14.723
54984W        W26600  44.599  36.810   4.611
54985W        W26601  44.702  42.213   2.319
54986W        W26602  33.241   6.919   0.980
54987W        W26603  44.417  38.908  14.367
54988W        W26604  43.448  28.611  10.478
54989W        W26605  11.665   7.201   4.594
54990W        W26606  24.422  19.228  11.187
54991W        W26607  13.562  36.417   3.803
54992W        W26608  42.468  43.474  11.574
54993W        W26609  39.482  37.574   0.794
54994W        W26610   3.892  35.875   0.833
54995W        W26611   6.655   0.352  14.992
54996W        W26612  20.345   8.003   4.300
54997W        W26613  38.798  44.800  11.598
54998W        W26614   8.001  36.048  10.746
54999W        W26615  24.086   4.491   2.797
55000W        W26616  28.744  43.547  12.864
55001W        W26617  16.723  30.561   3.916
55002W        W26618   7.896  39.166  10.318
55003W        W26619  28.177  24.079  12.415
55004W        W26620   6.415  41.952  14.423
55005W        W26621  12.627  30.062   3.772
55006W        W26622  26.917  19.220  11.114
55007W        W26623  38.038   4.251  11.898
55008W        W26624  23.345  37.991  12.466
55009W        W26625  11.850   0.317   4.698
55010W        W26626  27.073  40.936  11.956
55011W        W26627  10.084  34.100   2.212
55012W        W26628  19.971  23.193  14.544
55013W        W26629   2.750  27.451  11.097
55014W        W26630  40.588  41.050  10.801
55015W        W26631  24.069   8.479  10.381
55016W        W26632  34.148  39.342  10.767
55017W        W26633  26.504   0.228   3.227
55018W        W26634  22.680  41.037  12.381
55019W        W26635  33.528  25.587   0.694
55020W        W26636  27.131  23.420   3.774
55021W        W26637  30.181  17.698   1.497
55022W        W26638  21.001  13.696   0.290
55023W        W26639  41.121  16.815   3.077
55024W        W26640   9.314  24.040   2.389
55025W        W26641  30.039  29.786   1.944
55026W        W26642  22.086  36.912   0.823
55027W        W26643  33.468  25.461   1.188
55028W        W26644  14.323  35.395  12.994
55029W        W26645  29.961  23.537   4.957
55030W        W26646  20.196  27.427  11.520
55031W        W26647  32.034  20.134  12.566
55032W        W26648  11.273  41.691   3.703
55033W        W26649   3.976   2.539   2.224
55034W        W26650  23.064  14.578  12.507
55035W        W26651   1.443  38.525  12.462
55036W        W26652  27.102  27.695   2.445
55037W        W26653  21.345  42.246   3.266
55038W        W26654  21.279  39.902  11.533
55039W        W26655   3.557  41.455  11.186
55040W        W26656   5.210  28.253  12.564
55041W        W26657   1.060  14.860   4.926
55042W        W26658   6.008  34.827   3.681
55043W        W26659  11.343  15.481   5.014
55044W        W26660  32.244  28.226   0.377
55045W        W26661  36.110  19.895  11.629
55046W        W26662  10.102  18.108  14.010
55047W        W26663   3.997  31.429  12.448
55048W        W26664  28.806   2.710  13.733
55049W        W26665   3.470  20.642  13.785
55050W        W26666  18.259  38.779  10.564
55051W        W26667  42.920   9.874  13.369
55052W        W26668  21.052  14.260   4.496
55053W        W26669  13.926  21.509   3.725
55054W        W26670  20.293  19.522   4.512
55055W        W26671  20.319  24.010   0.854
55056W        W26672  34.234  23.316  14.027
55057W        W26673  25.997   0.990   0.159
55058W        W26674   8.503  36.519   3.353
55059W        W26675  16.296  27.264  12.247
55060W        W26676  31.984  27.908   5.016
55061W        W26677   7.353  25.727   0.384
55062W        W26678  30.566  38.862   1.384
55063W        W26679  33.434  10.925   3.290
55064W        W26680  16.818  31.065   2.219
55065W        W26681  14.747   1.543   0.911
55066W        W26682  19.632  21.796   3.716
55067W        W26683  25.109  25.997  10.768
55068W        W26684   0.361  26.239  13.817
55069W        W26685  16.037  42.952   0.790
55070W        W26686  29.436   0.835  14.397
55071W        W26687  12.297  12.204  12.519
55072W        W26688  34.570  15.132  14.842
55073W        W26689   1.698  21.944   3.930
55074W        W26690  39.733  24.044   3.687
55075W        W26691   0.779  40.055  11.255
55076W        W26692  26.573  32.022  14.216
55077W        W26693  16.767  27.436  11.640
55078W        W26694   7.864  21.609  14.280
55079W        W26695  37.872   7.933  11.040
55080W        W26696  13.631  12.211   3.282
55081W        W26697  17.798  42.935   2.691
55082W        W26698  11.633  44.521   1.185
55083W        W26699  41.822  42.695   0.301
55084W        W26700  18.377   8.831   4.174
55085W        W26701   1.257  29.902   2.238
55086W        W26702   9.324  19.608  11.771
55087W        W26703  19.357  30.141  13.885
55088W        W26704  16.249   7.360   2.893
55089W        W26705  32.480   9.364   0.725
55090W        W26706   0.971  41.725  14.545
55091W        W26707   9.734  35.305   4.911
55092W        W26708   7.747  14.339  11.554
55093W        W26709  11.766  22.220   4.694
55094W        W26710   1.856   0.868   1.939
55095W        W26711  26.630  21.091   4.623
55096W        W26712   6.558  33.535   5.055
55097W        W26713  21.680  40.235  12.157
55098W        W26714  26.458  23.131  14.909
55099W        W26715   9.385   7.124  11.139
55100W        W26716  30.716  19.687   4.154
55101W        W26717  18.202  23.631  10.748
55102W        W26718   2.218   9.587  14.500
55103W        W26719  20.596   8.760   2.415
55104W        W26720  21.274  33.181  12.936
55105W        W26721  21.213  44.556  13.363
55106W        W26722  11.908  37.432  13.596
55107W        W26723  38.200  20.800   9.881
55108W        W26724  24.188  19.769  14.018
55109W        W26725  15.080  37.955  14.961
55110W        W26726  38.982  36.336  12.034
55111W        W26727  19.471  35.583  13.971
55112W        W26728   2.386  24.624   0.219
55113W        W26729  35.365  29.630   2.225
55114W        W26730  34.045  13.390   4.363
55115W        W26731  30.187  35.602   0.678
55116W        W26732  30.294   5.200   4.109
55117W        W26733  43.887  34.785  14.940
55118W        W26734   8.288   7.748  12.919
55119W        W26735   2.124   2.525   2.740
55120W        W26736  14.647   6.322  12.694
55121W        W26737  38.862  21.829  10.769
55122W        W26738  36.167  23.297  14.908
55123W        W26739  29.632  16.488   2.657
55124W        W26740  44.409  37.354  14.460
55125W        W26741   5.130  29.084  11.533
55126W        W26742  39.011  38.056  11.594
55127W        W26743  32.713  38.798  11.547
55128W        W26744  23.044  34.386  10.313
55129W        W26745  41.610  28.630   2.259
55130W        W26746  25.465  10.845  13.941
55131W        W26747  23.994  38.768   4.018
55132W        W26748  21.716  28.062  13.329
55133W        W26749   3.689   9.158  10.763
55134W        W26750   9.241  14.228  11.158
55135W        W26751  44.497  39.957  12.051
55136W        W26752  40.358  17.201  11.082
55137W        W26753   3.423  40.974   2.725
55138W        W26754  32.052   1.372   3.649
55139W        W26755  24.764   6.754   4.748
55140W        W26756  21.753  17.498   1.685
55141W        W26757  38.384  25.088   0.917
55142W        W26758  30.836   9.879   1.557
55143W        W26759  43.710  38.408   3.699
55144W        W26760  11.595  11.650   4.590
55145W        W26761  22.725  32.079   0.492
55146W        W26762  40.216   3.089   3.322
55147W        W26763  44.147  42.935  11.494
55148W        W26764  26.534   3.351  13.965
55149W        W26765   1.430  36.924  13.044
55150W        W26766  13.000   2.352  13.851
55151W        W26767   6.667  16.107  11.663
55152W        W26768  17.139  11.307   3.604
55153W        W26769  21.088  44.433   0.556
55154W        W26770  39.480   9.789  11.443
55155W        W26771  24.247  17.520   2.229
55156W        W26772  41.541  15.745  12.864
55157W        W26773  42.263  35.969   2.841
55158W        W26774  33.590   4.926  11.457
55159W        W26775  26.734  35.066   4.507
55160W        W26776   9.853   9.284   2.773
55161W        W26777  17.166  31.750   4.984
55162W        W26778  24.189  39.995   3.340
55163W        W26779   7.881  27.064  12.945
55164W        W26780  44.681  39.074   3.362
55165W        W26781  43.835  28.278  13.118
55166W        W26782  28.089  41.049  11.980
55167W        W26783  30.537   5.721  14.334
55168W        W26784   4.224  26.681   2.870
55169W        W26785  20.600  10.607   0.332
55170W        W26786  24.665  17.958  13.360
55171W        W26787  24.973  25.185  13.750
55172W        W26788   5.154  32.480  12.944
55173W        W26789  40.310  23.512   4.121
55174W        W26790  16.786  42.771   3.798
55175W        W26791   7.367  27.438  11.169
55176W        W26792   4.755  31.192   0.432
55177W        W26793  30.746  20.139   4.424
55178W        W26794   9.726   3.032   1.005
55179W        W26795  17.857  32.929   3.196
55180W        W26796  44.072  14.438  13.138
55181W        W26797   2.361  26.825  13.158
55182W        W26798   0.044  36.366   1.707
55183W        W26799  18.738  25.223  11.941
55184W        W26800  19.045  33.700   1.489
55185W        W26801  19.421  21.525  10.480
55186W        W26802  35.132  44.333   2.509
55187W        W26803   3.638  39.018  12.892
55188W        W26804   4.736  27.149  12.148
55189W        W26805  29.038  38.660  14.771
55190W        W26806  33.666  42.187  14.342
55191W        W26807   2.351  26.420  10.445
55192W        W26808  34.243  16.140   1.353
55193W        W26809  28.961  11.445  11.532
55194W        W26810  21.747  17.139  13.957
55195W        W26811   7.154  34.440   0.922
55196W        W26812  20.066   7.425   1.808
55197W        W26813  10.261  40.108  12.571
55198W        W26814  41.651  11.725   1.852
55199W        W26815  19.327   7.814  14.045
55200W        W26816  30.259   1.345  10.685
55201W        W26817  42.349  36.068  12.935
55202W        W26818   8.215  19.646  12.975
55203W        W26819   8.831  32.379  13.645
55204W        W26820  20.963  41.064   0.659
55205W        W26821  26.514  37.796   0.877
55206W        W26822  25.920  40.319  12.479
55207W        W26823  16.723  16.151   0.287
55208W        W26824   9.795  27.371  10.760
55209W        W26825   3.202  33.094   4.760
55210W        W26826  30.489  13.328   0.034
55211W        W26827  19.768  28.377  11.158
55212W        W26828  43.253   9.706   2.477
55213W        W26829  20.039  32.843  12.463
55214W        W26830   4.088  31.395  13.350
55215W        W26831  27.779  31.452  13.295
55216W        W26832  38.933  16.071  10.500
55217W        W26833  21.534  43.278  13.316
55218W        W26834  11.613  24.234   1.671
55219W        W26835  34.550  34.091  12.429
55220W        W26836  42.293  37.308  11.558
55221W        W26837   6.770  12.418  13.576
55222W        W26838   0.771  29.941  13.314
55223W        W26839  40.559   9.931  12.518
55224W        W26840  42.672  40.266   3.212
55225W        W26841  32.148  37.376  13.455
55226W        W26842  11.948  24.034   2.115
55227W        W26843  25.510  27.185  10.874
55228W        W26844   7.278  38.170   3.770
55229W        W26845  34.907   3.694  12.946
55230W        W26846   2.974  35.457   2.242
55231W        W26847   2.498  37.509  13.571
55232W        W26848  24.354   9.850   4.395
55233W        W26849  35.586  44.337  12.445
55234W        W26850  40.732  39.253   0.881
55235W        W26851  23.184  34.899   1.517
55236W        W26852  26.046  21.294  11.045
55237W        W26853  30.918  41.471  14.499
55238W        W26854  37.532  21.035   0.928
55239W        W26855  13.436   8.158  12.549
55240W        W26856  21.276  30.010   3.603
55241W        W26857   0.774  34.044   4.678
55242W        W26858  23.300   1.924   1.219
55243W        W26859  41.343  36.904   3.376
55244W        W26860  25.016   2.306   4.709
55245W        W26861  38.365  11.752   0.686
55246W        W26862  15.040  16.836  14.859
55247W        W26863  30.540  11.865   2.722
55248W        W26864  21.036  36.608   2.432
55249W        W26865   7.229  26.726   2.895
55250W        W26866  44.595  31.084   0.304
55251W        W26867   1.275  40.975  13.555
55252W        W26868  33.044  22.517  14.944
55253W        W26869  22.679  38.110   2.025
55254W        W26870  40.458  30.603  10.669
55255W        W26871  26.691  30.129   1.687
55256W        W26872  11.618  33.247  13.980
55257W        W26873   9.390  29.937   2.826
55258W        W26874  44.158  10.771   0.989
55259W        W26875  43.930   8.306   2.372
55260W        W26876   7.001  40.075  10.703
55261W        W26877   0.240  20.000  14.350
55262W        W26878  24.089  36.918  11.027
55263W        W26879  40.054   5.258  11.765
55264W        W26880  23.212  13.118  14.008
55265W        W26881   1.357  30.571  12.320
55266W        W26882  40.976  23.547  13.519
55267W        W26883  24.095  18.646  13.520
55268W        W26884  34.611  13.327   4.758
55269W        W26885  28.401  26.534   3.767
55270W        W26886   8.925  38.392  12.437
55271W        W26887  38.322  24.255   3.774
55272W        W26888   6.173  27.303   1.178
55273W        W26889   8.726   2.163  10.771
55274W        W26890  27.391   9.003   0.407
55275W        W26891   0.023  30.424  10.615
55276W        W26892  19.344  38.841   3.031
55277W        W26893   8.930   2.734   3.601
55278W        W26894   0.417  31.663   2.859
55279W        W26895  15.979  33.483  11.671
55280W        W26896   9.141   1.627   4.222
55281W        W26897  39.949  10.390   5.157
55282W        W26898  17.560  40.944   1.234
55283W        W26899  23.647  39.271  12.963
55284W        W26900  21.700  15.808   1.488
55285W        W26901  41.524  24.938   3.789
55286W        W26902  28.124  11.727  14.924
55287W        W26903  44.788  44.445  14.333
55288W        W26904  27.080   6.168  11.117
55289W        W26905  32.928   6.653  10.770
55290W        W26906   7.800  33.178  10.706
55291W        W26907  36.077  27.543  10.923
55292W        W26908  11.250  43.214  13.828
55293W        W26909   2.206  33.091   1.856
55294W        W26910  25.463  32.077  10.675
55295W        W26911  36.263   3.917   2.906
55296W        W26912   3.388   8.999  14.860
55297W        W26913  41.479  21.687   3.721
55298W        W26914  40.951  36.428  14.544
55299W        W26915  22.638  33.355  11.979
55300W        W26916  33.394  13.823  12.072
55301W        W26917   9.070  11.404   0.313
55302W        W26918  41.266  36.188   2.856
55303W        W26919  15.398   8.312  12.472
55304W        W26920  30.254   3.262   4.870
55305W        W26921   5.454  10.069   4.660
55306W        W26922  12.550  34.362   2.723
55307W        W26923  28.938   4.259   1.759
55308W        W26924  11.854   5.261  14.803
55309W        W26925  39.485  15.067   1.783
55310W        W26926   8.153   5.689  10.527
55311W        W26927  10.326  43.444   4.876
55312W        W26928  41.235  18.670   4.254
55313W        W26929  13.534  35.511  12.355
55314W        W26930  34.849  33.503  11.635
55315W        W26931   0.237   5.705  14.223
55316W        W26932  16.648  21.194  13.881
55317W        W26933  40.615  22.166   1.695
55318W        W26934  42.238  18.788  14.542
55319W        W26935  28.368  42.306  11.068
55320W        W26936  18.478  10.051   5.021
55321W        W26937   3.907  21.348   0.965
55322W        W26938  23.148  40.911   3.186
55323W        W26939   0.721  38.830   4.822
55324W        W26940  25.139  18.728  13.173
55325W        W26941  27.048  29.915   0.295
55326W        W26942  26.267  23.040   0.385
55327W        W26943  28.930   4.700  11.820
55328W        W26944  15.091  42.655  14.284
55329W        W26945   1.121  36.943  11.425
55330W        W26946  35.282  24.727   4.128
55331W        W26947  29.400  35.006   1.036
55332W        W26948  27.814  28.996   3.345
55333W        W26949  32.293  28.338   5.273
55334W        W26950  43.520  27.020   1.902
55335W        W26951  20.212  37.867   3.765
55336W        W26952   3.933   5.494   1.561
55337W        W26953   3.879  29.436   2.408
55338W        W26954   8.480  19.295   4.084
55339W        W26955  44.035  38.356   5.449
55340W        W26956  12.701   4.538  13.028
55341W        W26957  12.198  29.747  14.495
55342W        W26958  26.200  11.581   0.922
55343W        W26959   4.757  25.067  10.616
55344W        W26960  32.917   6.364  12.600
55345W        W26961  23.106   9.618  12.778
55346W        W26962  27.483   9.716   2.143
55347W        W26963   7.532   8.406  11.466
55348W        W26964  33.036  27.064  14.341
55349W        W26965  44.836  10.865  13.058
55350W        W26966  18.159  20.221  13.885
55351W        W26967  16.767   6.437  11.886
55352W        W26968   7.242  41.935   4.850
55353W        W26969   6.408  10.640   0.132
55354W        W26970  24.114   9.707   1.681
55355W        W26971  27.961  40.615  14.730
55356W        W26972  24.150  42.313   1.647
55357W        W26973  42.251  21.152   0.266
55358W        W26974  25.170   7.635  10.675
55359W        W26975  34.094  35.893  14.921
55360W        W26976  17.593   5.420  12.034
55361W        W26977  29.977  20.458  12.104
55362W        W26978   1.844  28.192  12.846
55363W        W26979  28.562   0.493  13.651
55364W        W26980   8.502   4.048   2.939
55365W        W26981  13.706   0.775  14.885
55366W        W26982  43.491  29.353   1.792
55367W        W26983  24.468  17.658   2.939
55368W        W26984   6.685   8.206   3.534
55369W        W26985  35.664  24.147  11.659
55370W        W26986  29.478  19.336   0.983
55371W        W26987  44.273  41.975   3.378
55372W        W26988  34.285  33.462   0.815
55373W        W26989   7.616   5.725   1.207
55374W        W26990  39.033  24.766   5.150
55375W        W26991  27.585  43.100  14.837
55376W        W26992  31.462  35.281   2.786
55377W        W26993  11.361  38.335  11.126
55378W        W26994  38.827   3.842   2.723
55379W        W26995   1.452  33.006   3.241
55380W        W26996  14.224  40.545   0.383
55381W        W26997  44.703  27.195  12.929
55382W        W26998  33.105  10.266  11.215
55383W        W26999  37.798  19.262   3.291
55384W        W27000  27.171   8.667   3.650
55385W        W27001  36.570  24.049   3.348
55386W        W27002   1.858  10.831  11.674
55387W        W27003  22.765  18.594  12.975
55388W        W27004   8.760  43.211   2.799
55389W        W27005  10.654   9.454   3.293
55390W        W27006  29.228  28.377  14.021
55391W        W27007  28.402  34.920   2.278
55392W        W27008  28.684   5.139  12.544
55393W        W27009  44.937   7.043  12.459
55394W        W27010  23.893  37.060  12.620
55395W        W27011  32.959  19.591   3.393
55396W        W27012  38.504  30.994   0.742
55397W        W27013  17.363  38.461   1.755
55398W        W27014   3.535  37.042   4.180
55399W        W27015  12.094  12.324  11.998
55400W        W27016  11.384  32.256  11.127
55401W        W27017  40.745  32.574  13.419
55402W        W27018  16.950  36.055   2.390
55403W        W27019  27.113  30.405   0.085
55404W        W27020  17.752   3.754   0.405
55405W        W27021  22.500  29.942  11.220
55406W        W27022   5.873   4.267  11.411
55407W        W27023  22.029   5.914   1.206
55408W        W27024  37.461  14.354   3.469
55409W        W27025  43.511  42.475  13.493
55410W        W27026  27.090  13.792   4.078
55411W        W27027  43.364  15.156   0.777
55412W        W27028  25.469   9.080  11.985
55413W        W27029  36.338   9.813   3.745
55414W        W27030   7.679   6.766  13.300
55415W        W27031  19.808  16.780   0.362
55416W        W27032   3.947  37.485   4.906
55417W        W27033   8.913  44.488  13.027
55418W        W27034  44.820  19.200   1.303
55419W        W27035  44.339   1.442  13.526
55420W        W27036  34.111   8.812  12.480
55421W        W27037  19.364  10.224   2.827
55422W        W27038   6.825  24.478   0.753
55423W        W27039   5.388  25.092   1.709
55424W        W27040  26.171  17.157  13.113
55425W        W27041  22.163  38.849   3.225
55426W        W27042  23.275   9.360  11.037
55427W        W27043  32.355  36.160   0.762
55428W        W27044  23.209  21.669  12.392
55429W        W27045  42.897  21.455  13.103
55430W        W27046  40.089  38.569   1.266
55431W        W27047  25.569  21.004  13.880
55432W        W27048   7.442   9.016   1.270
55433W        W27049  37.394   2.209  14.044
55434W        W27050  35.616  37.455  14.290
55435W        W27051   3.366  13.237   3.641
55436W        W27052  15.906  19.735   3.754
55437W        W27053  35.577   6.302  10.623
55438W        W27054   3.761  34.097   0.282
55439W        W27055  26.541   6.609   1.708
55440W        W27056   5.210  15.204   0.522
55441W        W27057  31.607  11.243  11.810
55442W        W27058   3.271  42.010  12.922
55443W        W27059   8.624   7.406  14.584
55444W        W27060   0.904  37.897   0.859
55445W        W27061  25.040  33.213  12.924
55446W        W27062  26.746  33.003   3.151
55447W        W27063   1.481  17.290  13.383
55448W        W27064  36.939  15.809  10.788
55449W        W27065  32.171   8.637  12.814
55450W        W27066  19.641  36.033   4.297
55451W        W27067  23.301  14.792  11.719
55452W        W27068  24.342  33.301  11.036
55453W        W27069   4.604  38.559  13.798
55454W        W27070  32.457   0.687   0.318
55455W        W27071  15.114   8.285  12.905
55456W        W27072  32.947  33.596  10.168
55457W        W27073  12.129   8.294  13.060
55458W        W27074  23.385  20.151  12.427
55459W        W27075  35.079  14.617   2.875
55460W        W27076  38.398   2.972  14.796
55461W        W27077  28.593  26.151  14.455
55462W        W27078  37.435  26.944   4.770
55463W        W27079  18.006  13.615  13.115
55464W        W27080  39.811   2.343  14.268
55465W        W27081  39.132  39.086  13.414
55466W        W27082   2.215   1.996   1.234
55467W        W27083  39.753  21.779  13.386
55468W        W27084  20.937  43.043  10.762
55469W        W27085  24.393  11.305  14.980
55470W        W27086  36.669  44.442  14.909
55471W        W27087  12.167  26.530   4.421
55472W        W27088  41.326  41.511  10.528
55473W        W27089   4.716  42.251   4.182
55474W        W27090  44.414  32.791  10.348
55475W        W27091   7.262  19.127  13.828
55476W        W27092  23.090  42.433  10.343
55477W        W27093  42.565  26.097   1.323
55478W        W27094  11.714  28.618   4.288
55479W        W27095  42.332   4.508   0.250
55480W        W27096  14.223   1.789  12.098
55481W        W27097  38.150  14.719   2.935
55482W        W27098  27.527   8.731   0.862
55483W        W27099  31.155  37.397   3.638
55484W        W27100   3.317  23.091  11.459
55485W        W27101  40.182  29.096  10.343
55486W        W27102  15.095  33.168   1.711
55487W        W27103  14.307  40.419  13.168
55488W        W27104  20.763  42.083   2.013
55489W        W27105   5.437  16.099   1.782
55490W        W27106   0.338   9.660   1.403
55491W        W27107  17.618   3.371  14.044
55492W        W27108  22.777  40.128   2.353
55493W        W27109  13.595  20.332   0.818
55494W        W27110  10.613  34.144  14.855
55495W        W27111  33.179  15.481   0.009
55496W        W27112   6.196  17.687   4.337
55497W        W27113  31.209   9.299  12.050
55498W        W27114  36.331  42.879  11.456
55499W        W27115  11.796   3.121   1.344
55500W        W27116  33.219   6.247   0.493
55501W        W27117  21.131  25.388   1.140
55502W        W27118   1.894  33.133   2.323
55503W        W27119  23.418   0.957  10.631
55504W        W27120  20.774  10.269  12.382
55505W        W27121  36.502  21.231   2.473
55506W        W27122  28.046  25.398  13.319
55507W        W27123  35.645  37.352   2.888
55508W        W27124  24.255  33.024  12.384
55509W        W27125   5.865   6.135   1.729
55510W        W27126  32.180  15.096   4.040
55511W        W27127  41.483   5.960   2.861
55512W        W27128   9.945  39.982  14.397
55513W        W27129  20.126  10.796  11.087
55514W        W27130  26.043  39.297   2.408
55515W        W27131  31.079  11.146   0.509
55516W        W27132   7.237   8.298  14.068
55517W        W27133  20.733  38.556   3.342
55518W        W27134  26.765   6.822  14.467
55519W        W27135   1.531  40.845  13.076
55520W        W27136   8.778  32.628   4.318
55521W        W27137  38.380  12.411  11.554
55522W        W27138  19.803  22.159   2.893
55523W        W27139  10.467  34.804  10.774
55524W        W27140  10.342  37.858  12.133
55525W        W27141  12.661   9.942   2.299
55526W        W27142   5.608   6.923   4.344
55527W        W27143  12.384  19.625  13.860
55528W        W27144   3.700  44.774   3.145
55529W        W27145  33.442  11.939  14.010
55530W        W27146  11.811  11.719  14.318
55531W        W27147  38.984  14.561  14.567
55532W        W27148   8.755  40.528  14.729
55533W        W27149  43.281  39.107   2.859
55534W        W27150  37.999  28.080  10.741
55535W        W27151  36.897   6.151  11.080
55536W        W27152   7.598  16.125   4.390
55537W        W27153  32.482   9.388  12.955
55538W        W27154  18.826   7.231  12.939
55539W        W27155  21.543  25.904  14.540
55540W        W27156  42.827  34.091   4.561
55541W        W27157  35.661  34.593   1.360
55542W        W27158  36.062  36.507  11.581
55543W        W27159  24.644  11.985   3.330
55544W        W27160  35.886   4.852  10.410
55545W        W27161  25.226  43.210   3.819
55546W        W27162  26.112   4.489   2.167
55547W        W27163  15.169   5.260  11.129
55548W        W27164  11.920  34.047  11.126
55549W        W27165  25.061  10.109  10.668
55550W        W27166  11.766  14.779  14.762
55551W        W27167   3.536   9.272   0.264
55552W        W27168  40.908  32.703   1.358
55553W        W27169   4.559  16.893  14.398
55554W        W27170  29.508  24.786  13.468
55555W        W27171   4.875  23.065   4.178
55556W        W27172  13.185  24.729   2.819
55557W        W27173  18.646  44.269  11.114
55558W        W27174  43.961   3.573   1.370
55559W        W27175  36.082  13.299   4.670
55560W        W27176  13.273  37.887  13.774
55561W        W27177  22.115  12.210  12.981
55562W        W27178  27.713  38.994   0.395
55563W        W27179  35.418  14.104  14.735
55564W        W27180  37.758   3.330   0.826
55565W        W27181  44.056  12.251   3.894
55566W        W27182  19.281   3.291   4.892
55567W        W27183  33.525   0.989   3.137
55568W        W27184  19.282  25.974   1.361
55569W        W27185  35.463  36.440   0.720
55570W        W27186   7.562  21.087  12.926
55571W        W27187   0.707  39.391  12.904
55572W        W27188  32.587  17.458   3.969
55573W        W27189  33.997  10.618   1.528
55574W        W27190  18.743   5.708   9.790
55575W        W27191   0.722  21.429  11.550
55576W        W27192   4.298  31.920  10.458
55577W        W27193  29.362   9.199  12.494
55578W        W27194  40.511   0.072   1.804
55579W        W27195  28.096  27.638   4.613
55580W        W27196  44.412  44.716  12.639
55581W        W27197  30.811  27.558  12.599
55582W        W27198  41.306   6.227  10.715
55583W        W27199  44.329   1.517   2.839
55584W        W27200   8.672  18.087  10.250
55585W        W27201  27.022  36.945   0.815
55586W        W27202  37.230  16.595   1.319
55587W        W27203  31.426  21.894   3.960
55588W        W27204  38.946  32.651   3.749
55589W        W27205  27.763  39.030  14.417
55590W        W27206   1.467  39.028   0.493
55591W        W27207   1.666  21.151  14.137
55592W        W27208   1.819  12.571  14.182
55593W        W27209  22.331   7.977  13.814
55594W        W27210   6.718  42.980  13.421
55595W        W27211  17.096  38.617   4.272
55596W        W27212  44.791  21.519  11.482
55597W        W27213  18.110  17.592  14.443
55598W        W27214  38.925   2.845   3.543
55599W        W27215  39.502   8.847   4.144
55600W        W27216  43.919  25.662  10.708
55601W        W27217  40.117  24.058  12.416
55602W        W27218  36.041  19.761   1.836
55603W        W27219  41.429  42.883   0.036
55604W        W27220  34.806   3.790   1.880
55605W        W27221   8.288  17.392  11.233
55606W        W27222  34.650  37.957  12.077
55607W        W27223  37.432  13.355   2.051
55608W        W27224  20.202   0.317   4.318
55609W        W27225   4.029  38.454   4.814
55610W        W27226  20.171   8.834  14.509
55611W        W27227  23.624  11.185   1.192
55612W        W27228  31.507   2.382   2.427
55613W        W27229  42.336  40.878  11.199
55614W        W27230   1.822   1.243   0.032
55615W        W27231  43.463   3.346  10.798
55616W        W27232   8.360  35.509   1.340
55617W        W27233  24.686   9.771  12.505
55618W        W27234  32.875  10.262  14.833
55619W        W27235  11.842  37.985  10.394
55620W        W27236  10.035  11.253  13.032
55621W        W27237  33.394   2.247  10.330
55622W        W27238  40.932   6.151   1.229
55623W        W27239   7.242  42.696   2.583
55624W        W27240   9.194  36.399  14.317
55625W        W27241  29.979  37.084   3.310
55626W        W27242   6.637  33.539   2.265
55627W        W27243  40.917  38.047   1.493
55628W        W27244  27.660  14.154  10.480
55629W        W27245  26.435  28.192   3.201
55630W        W27246   9.299  10.687  11.966
55631W        W27247  10.770  13.800  11.236
55632W        W27248  26.766   6.423   3.920
55633W        W27249   9.634  16.392   0.695
55634W        W27250   6.286  24.716  13.769
55635W        W27251  29.932  13.304   0.845
55636W        W27252  37.847  21.357   4.862
55637W        W27253  42.974  19.151   0.568
55638W        W27254   1.843  37.525  14.789
55639W        W27255  37.505  21.128  14.513
55640W        W27256  30.751  32.129   4.737
55641W        W27257  29.448  17.326  11.144
55642W        W27258  18.739  29.462   1.319
55643W        W27259  35.127  40.956  12.339
55644W        W27260  23.940   4.422   0.914
55645W        W27261  33.857  17.799   2.381
55646W        W27262  20.558  18.251   4.869
55647W        W27263  14.856  44.418  13.554
55648W        W27264   2.425  40.557  12.468
55649W        W27265   8.795  23.038  10.639
55650W        W27266  43.363  29.875  14.852
55651W        W27267  35.430  40.482   4.579
55652W        W27268  10.186  28.011  11.860
55653W        W27269  19.231  37.453  14.134
55654W        W27270  13.778  29.960   0.724
55655W        W27271  24.531  27.008  10.334
55656W        W27272   9.625   1.111   1.806
55657W        W27273  37.014  21.561  10.440
55658W        W27274   4.028  10.864   1.759
55659W        W27275  12.512  12.724   1.909
55660W        W27276   8.414  39.140   1.327
55661W        W27277  18.746  35.412   0.009
55662W        W27278   3.840  42.877  12.109
55663W        W27279  16.597  19.029  14.922
55664W        W27280  19.455  36.027   4.790
55665W        W27281   0.484  38.999  12.142
55666W        W27282  35.145  22.210  12.977
55667W        W27283  32.488  33.045  12.436
55668W        W27284  41.007  25.370  12.070
55669W        W27285  32.942  35.257   4.188
55670W        W27286   3.416  16.722  14.951
55671W        W27287  36.395  43.107  10.594
55672W        W27288  17.371  38.571  12.471
55673W        W27289  42.511  23.386   4.190
55674W        W27290  39.039  43.271  10.744
55675W        W27291  27.936  18.761   4.224
55676W        W27292  44.328   2.905  13.763
55677W        W27293  34.592  21.427   0.383
55678W        W27294  39.975   7.444  11.106
55679W        W27295  23.320   8.220  12.925
55680W        W27296  21.675  18.568   3.088
55681W        W27297  38.922  39.465   2.359
55682W        W27298  19.164   5.896  13.216
55683W        W27299  34.180  13.689   4.765
55684W        W27300  18.560  38.163  12.168
55685W        W27301  15.131  42.489   4.843
55686W        W27302  17.154   3.420   3.963
55687W        W27303   3.943  44.125   0.337
55688W        W27304  10.279  22.554  12.112
55689W        W27305  19.057   7.244   0.283
55690W        W27306  36.497  34.465   3.868
55691W        W27307  21.632  12.805  10.585
55692W        W27308   7.344   9.812  10.992
55693W        W27309  21.496  18.658  11.205
55694W        W27310  15.922   8.083   5.216
55695W        W27311  29.737  12.604   0.361
55696W        W27312   3.235  12.780  11.588
55697W        W27313   5.408  15.460   2.764
55698W        W27314  41.495  29.162   4.925
55699W        W27315  26.170   9.886   4.536
55700W        W27316  22.433   2.075   4.732
55701W        W27317  12.292  21.582   3.265
55702W        W27318   3.222  31.906  13.032
55703W        W27319  44.146  34.637  12.023
55704W        W27320  29.491  15.019   0.826
55705W        W27321  21.730  22.314  13.002
55706W        W27322  16.753  40.085  14.809
55707W        W27323  27.012  16.850   4.214
55708W        W27324  20.539  32.910  12.470
55709W        W27325  43.908  27.758  10.600
55710W        W27326  32.054  28.303   9.834
55711W        W27327  43.314  31.575   0.321
55712W        W27328  10.243  21.341   1.848
55713W        W27329   7.292  24.103  14.450
55714W        W27330  34.205   2.560  10.950
55715W        W27331   5.268  13.703   1.296
55716W        W27332  15.990  22.256  11.146
55717W        W27333  19.303  41.529  10.941
55718W        W27334  39.567  26.447  13.474
55719W        W27335  31.298  21.989  13.121
55720W        W27336   9.287   3.774  12.587
55721W        W27337   4.590   3.908   1.327
55722W        W27338   4.258  16.205   2.571
55723W        W27339   7.501  30.406  12.823
55724W        W27340  34.774  15.033   0.334
55725W        W27341  41.264  32.911  14.497
55726W        W27342  31.559  31.349  14.277
55727W        W27343  11.476  25.886  11.929
55728W        W27344  21.281  40.506  13.392
55729W        W27345  10.333   0.948   0.352
55730W        W27346   1.266  26.141  11.054
55731W        W27347   6.635  12.766  13.919
55732W        W27348  33.662  30.407  12.439
55733W        W27349  28.191  40.249   3.708
55734W        W27350  30.446   4.395   1.202
55735W        W27351  30.347  44.944   1.740
55736W        W27352   1.849  41.821  10.694
55737W        W27353  42.452  27.625  12.454
55738W        W27354   0.710  32.547   3.768
55739W        W27355  44.615  12.639  12.486
55740W        W27356  19.052  13.493  13.805
55741W        W27357  26.614   1.853  14.459
55742W        W27358  31.504  11.675   3.122
55743W        W27359  21.059  34.624   0.443
55744W        W27360   9.774  24.269   2.309
55745W        W27361  38.947  14.312   2.762
55746W        W27362  37.491  20.355  13.411
55747W        W27363  21.560  37.525   3.742
55748W        W27364   5.041  17.133   3.186
55749W        W27365  31.511   7.050   3.713
55750W        W27366  16.763  26.648   1.657
55751W        W27367  13.638  37.294   2.916
55752W        W27368  13.891  30.317   0.302
55753W        W27369  41.895  11.249   2.304
55754W        W27370  19.527  10.390   4.289
55755W        W27371  10.750  24.528  13.136
55756W        W27372  16.695  20.876  13.466
55757W        W27373  23.598  34.550   0.333
55758W        W27374  32.988  25.118   2.394
55759W        W27375  32.921  16.129   4.276
55760W        W27376   8.945  30.136   2.283
55761W        W27377  11.529  39.292  12.492
55762W        W27378  27.391   4.219   1.767
55763W        W27379  31.690  15.292  12.003
55764W        W27380  29.639  27.742  13.599
55765W        W27381  29.349  31.440   2.006
55766W        W27382  22.240  30.957   0.018
55767W        W27383  33.162  44.821   1.680
55768W        W27384  22.755  22.664   4.649
55769W        W27385  15.692  23.187  10.983
55770W        W27386  12.783  38.417   5.124
55771W        W27387  42.789  22.265   4.563
55772W        W27388   8.349  39.915  13.129
55773W        W27389  11.082   0.412   1.191
55774W        W27390  10.664  24.572   1.661
55775W        W27391  16.677  14.660  13.070
55776W        W27392  34.561  28.056   1.809
55777W        W27393   1.952  17.584   1.512
55778W        W27394  10.429   9.138   4.135
55779W        W27395  11.387  43.093   3.142
55780W        W27396  10.849  24.952  14.881
55781W        W27397  36.530  29.140   1.428
55782W        W27398  10.739  12.353  13.416
55783W        W27399  35.279  14.959   0.300
55784W        W27400  24.124   8.437  10.889
55785W        W27401  19.161  16.836  10.717
55786W        W27402   1.001   2.492   3.668
55787W        W27403   7.706  32.101   4.548
55788W        W27404   8.045  13.562  14.383
55789W        W27405  21.200  19.728   2.197
55790W        W27406  42.314  18.437  14.933
55791W        W27407   4.378  18.991   4.379
55792W        W27408  11.820  13.324   2.414
55793W        W27409  41.048   7.125   2.295
55794W        W27410  36.338  13.654   0.855
55795W        W27411   7.250  22.724   2.232
55796W        W27412  36.920  31.791  12.885
55797W        W27413  30.951  32.983   0.424
55798W        W27414   9.932  27.217   2.628
55799W        W27415   7.200   8.988   1.717
55800W        W27416  18.823   4.372  11.601
55801W        W27417   5.917   7.346   4.386
55802W        W27418   8.510  33.539   1.176
55803W        W27419  28.234  42.539   1.329
55804W        W27420  23.190  42.292  14.297
55805W        W27421   0.308  31.583  11.739
55806W        W27422   1.538   5.186  12.629
55807W        W27423  36.304  34.225  14.272
55808W        W27424  11.648  30.168  13.798
55809W        W27425   1.544   8.025   2.058
55810W        W27426   3.958  22.197   2.718
55811W        W27427  21.920  26.901   4.349
55812W        W27428  16.122   4.409  13.888
55813W        W27429   4.194   3.320  14.047
55814W        W27430  39.868  16.353   2.666
55815W        W27431  33.630  10.752  11.592
55816W        W27432  11.273  31.993  13.000
55817W        W27433  14.107  40.844  10.777
55818W        W27434  20.252  29.837   0.018
55819W        W27435   6.167  44.998  13.385
55820W        W27436  13.168  37.939  12.842
55821W        W27437  21.620  15.108   0.046
55822W        W27438   3.232  36.556   0.792
55823W        W27439  25.053  15.167  11.781
55824W        W27440  31.426  34.468  11.959
55825W        W27441  11.148  34.129   4.800
55826W        W27442  36.546  32.928   4.721
55827W        W27443   8.950   9.126  11.098
55828W        W27444  41.456  18.998  11.025
55829W        W27445  42.390   5.485  11.137
55830W        W27446  19.466  10.793  10.531
55831W        W27447  22.433  14.132   2.002
55832W        W27448  44.925  13.827   1.063
55833W        W27449  11.446  18.762  11.993
55834W        W27450  18.318  41.633  14.113
55835W        W27451  22.998   0.402  12.058
55836W        W27452  22.094  43.472   0.428
55837W        W27453  44.169   1.739   1.656
55838W        W27454  29.994  43.216   1.605
55839W        W27455   2.422  43.919   2.916
55840W        W27456  41.815  20.276  12.061
55841W        W27457  40.412  24.243  13.770
55842W        W27458  34.945  28.569  12.116
55843W        W27459  44.599  37.940  12.467
55844W        W27460   6.641  20.024  12.595
55845W        W27461  20.609   6.284  14.788
55846W        W27462  28.465  15.486   2.722
55847W        W27463  16.172  37.413   3.852
55848W        W27464  14.230  30.194   0.664
55849W        W27465  36.935  25.308   4.347
55850W        W27466  31.559  19.591  10.341
55851W        W27467  39.053  38.445   3.238
55852W        W27468  30.028  26.479  14.409
55853W        W27469  16.643   4.820  10.423
55854W        W27470  11.389  40.869   1.909
55855W        W27471  41.956  28.651  10.705
55856W        W27472   3.787  35.952   0.304
55857W        W27473  11.098  35.259  13.449
55858W        W27474  43.106  38.380  14.932
55859W        W27475  38.454  22.074  13.633
55860W        W27476  28.396  36.538  14.217
55861W        W27477  41.808   0.171  11.152
55862W        W27478  35.624  32.222   1.201
55863W        W27479  32.818  22.917  11.703
55864W        W27480  32.776  24.638   0.302
55865W        W27481  32.440  38.351  10.920
55866W        W27482  28.416   1.935  14.774
55867W        W27483  23.076  16.910   3.209
55868W        W27484   8.250   6.167   3.124
55869W        W27485  18.863  13.252   3.200
55870W        W27486   9.161  39.114   4.788
55871W        W27487  31.381  42.006  11.965
55872W        W27488   4.024  25.740  14.895
55873W        W27489  21.523   2.835  10.861
55874W        W27490  30.175  38.976  13.225
55875W        W27491  10.276  23.100  13.012
55876W        W27492  23.529   3.726   4.619
55877W        W27493  23.044  16.772   2.269
55878W        W27494   4.198  19.736   2.365
55879W        W27495   6.406  44.687  14.337
55880W        W27496  31.698  22.157  14.353
55881W        W27497   5.614  33.312  11.214
55882W        W27498  32.555  37.852  14.503
55883W        W27499  41.561  29.716  12.369
55884W        W27500  11.094   3.713  14.748
55885W        W27501  12.741  30.636  13.468
55886W        W27502  39.975   5.196  12.298
55887W        W27503  29.545  13.076   2.045
55888W        W27504   3.221  39.278   1.429
55889W        W27505   0.187  15.592   4.166
55890W        W27506  10.414  16.740   1.726
55891W        W27507  16.504  18.613  12.568
55892W        W27508   6.951  16.489   4.092
55893W        W27509   1.198  18.146   0.415
55894W        W27510  37.869  32.963  14.960
55895W        W27511  39.112  21.041  11.559
55896W        W27512  16.961  25.256  13.872
55897W        W27513  14.671  38.872  11.196
55898W        W27514  35.444   1.144   2.733
55899W        W27515  26.592  32.115   3.319
55900W        W27516   6.125  44.297  12.146
55901W        W27517  28.861  44.547  14.927
55902W        W27518  17.774  18.671  11.526
55903W        W27519  33.802   4.898   1.982
55904W        W27520  15.041   3.971   4.605
55905W        W27521   0.183  16.111  14.161
55906W        W27522   9.225  38.805  13.993
55907W        W27523  29.520  43.026   1.802
55908W        W27524  16.578  40.434   2.252
55909W        W27525  13.924   8.328   0.731
55910W        W27526  13.107  16.823  13.226
55911W        W27527  11.446  27.157  14.823
55912W        W27528  25.405  14.317  12.381
55913W        W27529  23.336  10.127  14.788
55914W        W27530  22.809   6.303   3.710
55915W        W27531  30.809  25.544   2.745
55916W        W27532  12.786  30.601  12.937
55917W        W27533  33.885  24.512  12.773
55918W        W27534  43.831   2.765  11.760
55919W        W27535  21.636  25.182  12.893
55920W        W27536  23.593  16.923   0.077
55921W        W27537  31.357   4.285   3.217
55922W        W27538  19.130  31.910   2.545
55923W        W27539  31.164  21.253   2.138
55924W        W27540  24.025   6.228   1.732
55925W        W27541  37.833  10.374  11.528
55926W        W27542  39.905  28.209   1.463
55927W        W27543  14.188   8.011   4.581
55928W        W27544  23.046  23.991  11.215
55929W        W27545  32.488  27.129  14.398
55930W        W27546  12.665  33.924  14.503
55931W        W27547  10.167  38.204   4.174
55932W        W27548   6.496  28.471  13.900
55933W        W27549  10.085  35.151   0.974
55934W        W27550  14.674  24.545   1.575
55935W        W27551   8.754  43.538   1.873
55936W        W27552  16.838  14.709   1.158
55937W        W27553  13.021  37.983  13.342
55938W        W27554  40.921   2.272   4.681
55939W        W27555  26.999  41.810  13.834
55940W        W27556  14.119   6.340  11.039
55941W        W27557  42.647  14.741   3.700
55942W        W27558   3.372   4.280   2.888
55943W        W27559  15.093  33.491  10.704
55944W        W27560  10.861   6.390   3.421
55945W        W27561   8.702  41.567   2.681
55946W        W27562  18.544  22.417   1.365
55947W        W27563  29.479  40.069   0.696
55948W        W27564  40.728   4.487  10.497
55949W        W27565  37.001  33.049   4.926
55950W        W27566  30.601  34.020  12.188
55951W        W27567   7.776  25.608   2.221
55952W        W27568  13.138  37.125   1.183
55953W        W27569  33.078  27.346   4.220
55954W        W27570  10.215  14.678  14.772
55955W        W27571   7.670  35.073   2.451
55956W        W27572  43.804  42.367   4.467
55957W        W27573  28.923   3.278   2.084
55958W        W27574  30.701  11.838   1.347
55959W        W27575   9.737  31.065  14.859
55960W        W27576  44.425  44.600   4.423
55961W        W27577  19.062  41.515  11.897
55962W        W27578  36.889   8.093  13.772
55963W        W27579  33.854  43.943   0.011
55964W        W27580  28.348  30.303   4.978
55965W        W27581  26.964  34.957  11.921
55966W        W27582   2.886  14.649  13.451
55967W        W27583   7.783  14.710  12.305
55968W        W27584  30.848   0.278  13.992
55969W        W27585   5.271  19.628  14.072
55970W        W27586  10.186  43.848  12.436
55971W        W27587  12.280   0.869  10.304
55972W        W27588  13.124   7.810   0.739
55973W        W27589  31.956  26.637   4.073
55974W        W27590  31.069  18.929   3.668
55975W        W27591  42.120  43.035   2.339
55976W        W27592   0.423  12.612   2.927
55977W        W27593  41.318  22.669   1.683
55978W        W27594  37.219  10.731  14.997
55979W        W27595  39.168   4.233   1.222
55980W        W27596  16.169  22.656  14.377
55981W        W27597   1.378  40.322   0.219
55982W        W27598  23.236  24.513   4.537
55983W        W27599  20.646  32.507   3.180
55984W        W27600  21.620   7.124   4.187
55985W        W27601  11.172   7.517   1.276
55986W        W27602  35.276  21.470  13.371
55987W        W27603  14.704  39.029  13.865
55988W        W27604  39.572  26.160   0.455
55989W        W27605   6.635   1.950   1.420
55990W        W27606  19.237  20.973   2.774
55991W        W27607  23.957  42.087  12.531
55992W        W27608  21.217  12.326  13.510
55993W        W27609  24.567  21.581   4.918
55994W        W27610  33.494  40.339  13.987
55995W        W27611  33.682  26.905  12.153
55996W        W27612  13.046  29.016   0.469
55997W        W27613   8.671  36.129  14.403
55998W        W27614  34.464   3.159  14.528
55999W        W27615  24.319   1.922  14.621
56000W        W27616  15.119  40.726  10.792
56001W        W27617  39.809  34.285  11.883
56002W        W27618   9.235  24.290  13.374
56003W        W27619  16.586  41.088  12.997
56004W        W27620   0.249  35.865  14.671
56005W        W27621  43.727  16.604   3.759
56006W        W27622   8.870  18.144  12.089
56007W        W27623  23.774  31.040   2.270
56008W        W27624   0.900  39.954   1.879
56009W        W27625   2.702  36.438  14.521
56010W        W27626  37.853   5.476   4.064
56011W        W27627  31.803  42.951   0.103
56012W        W27628  41.432  18.898   1.834
56013W        W27629  26.690  10.918  14.833
56014W        W27630  29.472  17.188  14.632
56015W        W27631  30.360  26.080  14.016
56016W        W27632  35.422  21.965  13.390
56017W        W27633  43.502  41.758   4.295
56018W        W27634   4.988  31.679  11.455
56019W        W27635  43.888  22.002   0.056
56020W        W27636   2.899  24.670   9.764
56021W        W27637  11.725  36.403  14.061
56022W        W27638  20.313  38.705  10.642
56023W        W27639  37.451  32.522   0.291
56024W        W27640  16.404  41.732  12.655
56025W        W27641   1.730  26.727  11.643
56026W        W27642  25.549   2.143  13.873
56027W        W27643  14.091  41.379   1.506
56028W        W27644   0.520  13.071   2.564
56029W        W27645  35.862  14.391   2.791
56030W        W27646  36.209  16.108  14.951
56031W        W27647  34.400   6.448   3.752
56032W        W27648  17.847  25.875  12.640
56033W        W27649  34.491  32.996   2.535
56034W        W27650   2.833  22.172   9.845
56035W        W27651   2.227  12.540   0.831
56036W        W27652  44.483  42.273  12.018
56037W        W27653  35.087  33.114   4.863
56038W        W27654  35.118   4.471  14.564
56039W        W27655  36.107   1.445  13.831
56040W        W27656   7.583  40.785  12.105
56041W        W27657  42.030   0.401  11.555
56042W        W27658  37.353  43.539   1.456
56043W        W27659  19.508  13.435   4.288
56044W        W27660  18.302  22.579   1.814
56045W        W27661   6.323  26.336   4.626
56046W        W27662  13.710  40.429  14.828
56047W        W27663  15.986  37.943   4.461
56048W        W27664  25.117  40.064  12.193
56049W        W27665  10.809  25.177   0.364
56050W        W27666   8.304   4.558   2.359
56051W        W27667  13.245  31.813   1.858
56052W        W27668  17.050  21.807   4.700
56053W        W27669  11.983  24.132  11.558
56054W        W27670  19.164  28.583   4.092
56055W        W27671   8.843   2.744  13.040
56056W        W27672   1.700  12.817  12.457
56057W        W27673  12.145  21.099   3.592
56058W        W27674   7.626   8.132   0.383
56059W        W27675  29.519  12.458  11.655
56060W        W27676  36.520  41.900   0.240
56061W        W27677  18.331  14.219  12.736
56062W        W27678  32.207  14.873  14.654
56063W        W27679  13.093  38.022   3.281
56064W        W27680  30.552  32.447   5.090
56065W        W27681  25.176  15.820   2.856
56066W        W27682   7.692  12.850  10.660
56067W        W27683  40.268  29.718   0.740
56068W        W27684  24.632  27.191  11.363
56069W        W27685  31.654   5.198   3.224
56070W        W27686  17.844  13.414  13.610
56071W        W27687  10.237  44.985  11.370
56072W        W27688  44.849  38.773   0.229
56073W        W27689  29.091  19.256  11.703
56074W        W27690  26.050  42.538   3.654
56075W        W27691   5.615   8.730  13.023
56076W        W27692  42.398   4.906   4.094
56077W        W27693  18.050   8.402   3.308
56078W        W27694  16.182  15.023  14.907
56079W        W27695  40.031  18.566  13.941
56080W        W27696  30.569   2.124   0.821
56081W        W27697  32.001  15.498  13.705
56082W        W27698   3.199  20.656  13.220
56083W        W27699   1.956  13.217   4.186
56084W        W27700  14.870   3.983  14.087
56085W        W27701  44.408   5.822  11.564
56086W        W27702   6.250   2.186  12.389
56087W        W27703   4.843  11.321   1.250
56088W        W27704   1.975  16.040  12.517
56089W        W27705   5.923   6.642  13.896
56090W        W27706  43.055  40.472  14.909
56091W        W27707  23.121   2.311  11.407
56092W        W27708  28.754  39.035  14.444
56093W        W27709  16.192  25.094   0.583
56094W        W27710  25.173  26.704  11.859
56095W        W27711  30.848   5.026  10.693
56096W        W27712   2.849  13.646   0.776
56097W        W27713   5.868  33.357   0.006
56098W        W27714  21.783  14.027   0.755
56099W        W27715   0.548  41.416   3.379
56100W        W27716  36.871   8.337  14.243
56101W        W27717  42.839  26.595  14.768
56102W        W27718  16.343  15.578   0.954
56103W        W27719   6.843  44.752   3.263
56104W        W27720  44.142   0.413  11.167
56105W        W27721  17.985   4.735  13.055
56106W        W27722  44.748  34.653  13.304
56107W        W27723  28.983  31.543   1.101
56108W        W27724  40.327  28.224  11.159
56109W        W27725  30.875  29.143  12.425
56110W        W27726   1.127  26.260   1.238
56111W        W27727  29.090  27.634  12.825
56112W        W27728  41.488  31.225   0.448
56113W        W27729  11.521  28.341  10.185
56114W        W27730  19.026  21.197  10.407
56115W        W27731  29.538  27.660  12.513
56116W        W27732   7.848   6.129   4.805
56117W        W27733  24.015   6.673  13.852
56118W        W27734  14.789  39.868   2.490
56119W        W27735  35.086  36.925   4.074
56120W        W27736  40.698  19.720   4.924
56121W        W27737  43.551  20.621   3.801
56122W        W27738  13.408  16.767  12.822
56123W        W27739   5.740   1.206   1.286
56124W        W27740   3.782  12.788  11.623
56125W        W27741  26.174  14.232   4.602
56126W        W27742   0.847  18.313   5.086
56127W        W27743   2.229  14.244  14.093
56128W        W27744  32.968  33.974  11.546
56129W        W27745  10.135  20.140   2.782
56130W        W27746  16.093  17.959  14.460
56131W        W27747   8.802   7.255   1.917
56132W        W27748  34.370  24.864  13.532
56133W        W27749  44.832   8.445   1.938
56134W        W27750  34.096  33.643   1.902
56135W        W27751  17.016   1.217   3.661
56136W        W27752  40.586  25.941   0.403
56137W        W27753  32.354  44.947   0.594
56138W        W27754   5.789   9.055  13.370
56139W        W27755   7.832  18.128  12.127
56140W        W27756  12.033   1.917  14.481
56141W        W27757  44.339  42.885  12.816
56142W        W27758  18.000  10.193   3.630
56143W        W27759   8.515  40.922   2.215
56144W        W27760   3.720  25.969  11.060
56145W        W27761  39.201  35.949  11.235
56146W        W27762  25.604  36.012  10.314
56147W        W27763  41.279  22.221   4.860
56148W        W27764  14.883  44.962   4.021
56149W        W27765  34.917  11.468  13.099
56150W        W27766   9.805  13.244   1.895
56151W        W27767  15.872   6.669   0.373
56152W        W27768  37.042  27.769  14.362
56153W        W27769  37.433  32.884   4.702
56154W        W27770  23.290  34.017   1.165
56155W        W27771   1.741   3.900   1.298
56156W        W27772  31.049  11.311   0.022
56157W        W27773  17.314  28.114   4.545
56158W        W27774  24.572  29.331  13.692
56159W        W27775   7.062  24.564  14.328
56160W        W27776  29.003  20.943   4.652
56161W        W27777   7.794   1.511  11.982
56162W        W27778  28.932   8.794   3.535
56163W        W27779  21.450   8.812   2.278
56164W        W27780  25.108  23.438  13.038
56165W        W27781   2.663  30.515   4.505
56166W        W27782  37.647  36.453   4.588
56167W        W27783  40.021  21.756  12.045
56168W        W27784  10.187  16.249  10.703
56169W        W27785   1.788  40.522   4.287
56170W        W27786  30.530  25.911   4.401
56171W        W27787  41.449  36.619  11.518
56172W        W27788  24.765   2.413   3.784
56173W        W27789   4.196  36.992   0.288
56174W        W27790  16.791  42.896  10.242
56175W        W27791  21.985   6.127  14.972
56176W        W27792  21.555  17.656  10.855
56177W        W27793  40.800   3.847   2.377
56178W        W27794  18.202  44.940  10.654
56179W        W27795  30.861   9.230   1.867
56180W        W27796  23.990  10.170   4.643
56181W        W27797  41.055  27.693  12.446
56182W        W27798  25.862  40.869  14.429
56183W        W27799  36.497   7.312   3.277
56184W        W27800   2.151  13.797   4.688
56185W        W27801  27.113  30.544   3.429
56186W        W27802   9.530   1.934  11.380
56187W        W27803  29.457  42.891   5.017
56188W        W27804  34.348  17.683  13.121
56189W        W27805   2.689  17.441   4.142
56190W        W27806   1.290  35.089  11.574
56191W        W27807  23.675  38.934   2.244
56192W        W27808  18.054   7.727  14.950
56193W        W27809  16.839  44.733  12.519
56194W        W27810   3.508  32.008   4.730
56195W        W27811   4.769  13.645   2.849
56196W        W27812   8.928  16.602  12.858
56197W        W27813  35.582  20.677   4.814
56198W        W27814  44.816  17.549  11.059
56199W        W27815  37.142   1.297  13.840
56200W        W27816  10.343  31.219   0.195
56201W        W27817   8.818  24.512   3.200
56202W        W27818  12.790  21.554  14.386
56203W        W27819  14.781  35.515   1.891
56204W        W27820  17.367   7.688   3.128
56205W        W27821  30.874  37.051   0.951
56206W        W27822  29.710  29.555  10.687
56207W        W27823  17.488  33.702   0.991
56208W        W27824  37.500  10.062  13.521
56209W        W27825  33.633  17.885   1.926
56210W        W27826  12.369  38.003  10.491
56211W        W27827  30.516  38.601   3.042
56212W        W27828   4.271  44.483   2.825
56213W        W27829  29.872  17.164  11.378
56214W        W27830  19.678  15.963   0.775
56215W        W27831  36.811  28.619  13.069
56216W        W27832  13.857  10.180   3.626
56217W        W27833   7.774  17.768   3.712
56218W        W27834  43.478  41.436  13.473
56219W        W27835  30.459  16.226  14.806
56220W        W27836  38.610  39.103   3.787
56221W        W27837  20.482  42.855  10.654
56222W        W27838   2.939  22.540   2.773
56223W        W27839  40.530  42.095  12.837
56224W        W27840  17.784  27.979   4.318
56225W        W27841   7.152  28.093  12.316
56226W        W27842  31.562  22.810   0.421
56227W        W27843  16.862  17.092   0.512
56228W        W27844  33.311  24.056  12.050
56229W        W27845  40.283  37.899  14.032
56230W        W27846   5.309  19.221  14.437
56231W        W27847   4.275  37.497   1.788
56232W        W27848  20.595   7.898  11.227
56233W        W27849  40.571  41.049  13.536
56234W        W27850   1.788  10.624  12.173
56235W        W27851   6.403   6.820   4.105
56236W        W27852  42.860  19.127  10.802
56237W        W27853  28.470   3.408  14.742
56238W        W27854   2.785  18.787  12.842
56239W        W27855   8.869  38.500   1.210
56240W        W27856  30.065  29.405  14.948
56241W        W27857  19.100  17.371  12.733
56242W        W27858  26.394   8.675  13.239
56243W        W27859  15.111  11.381  11.116
56244W        W27860  36.787  40.295   3.362
56245W        W27861  43.287  29.515  14.038
56246W        W27862  40.437  23.785   3.711
56247W        W27863  11.244  30.328  12.583
56248W        W27864   4.904  21.077  12.172
56249W        W27865   4.666  41.781   1.262
56250W        W27866  44.989  16.604  14.056
56251W        W27867  32.210  39.007  10.713
56252W        W27868  15.588   6.815  13.790
56253W        W27869  17.109  18.333   2.381
56254W        W27870  15.589  27.862  14.949
56255W        W27871   0.054  35.255  11.198
56256W        W27872  30.899  34.380   1.304
56257W        W27873  44.438  36.859   0.479
56258W        W27874  43.286  12.780   4.375
56259W        W27875  25.031  19.779   2.369
56260W        W27876  10.317  23.604   0.289
56261W        W27877  44.374   0.478  10.521
56262W        W27878  26.754  21.516  14.867
56263W        W27879   3.026  27.022  12.886
56264W        W27880  37.670  34.494   2.412
56265W        W27881  11.750  22.222   3.586
56266W        W27882  21.513  18.843   1.146
56267W        W27883  38.907  42.785   3.580
56268W        W27884  43.239  39.635  12.932
56269W        W27885   8.828  23.640  12.887
56270W        W27886  11.114  26.267  14.831
56271W        W27887  10.908   2.880   2.349
56272W        W27888   7.665  24.619   2.204
56273W        W27889   9.167  36.603  11.032
56274W        W27890  27.928   3.753  11.501
56275W        W27891  11.122  43.536  12.200
56276W        W27892  37.612  36.622   5.161
56277W        W27893  12.196  18.678  11.347
56278W        W27894  37.863  12.357  14.682
56279W        W27895   6.756  27.309   4.655
56280W        W27896   2.278   3.341  10.304
56281W        W27897  35.863  34.213   0.081
56282W        W27898  36.867  26.663  12.928
56283W        W27899  10.670  20.950  13.948
56284W        W27900   0.673  12.493  11.610
56285W        W27901   5.964  10.841   2.184
56286W        W27902  24.058  18.742   3.700
56287W        W27903  22.093  30.661   1.374
56288W        W27904  10.718  31.635  13.803
56289W        W27905  18.695  44.060   9.870
56290W        W27906  22.765   8.271   0.010
56291W        W27907  42.900  37.837   3.570
56292W        W27908   4.751  23.883   2.981
56293W        W27909  39.876  20.864   4.864
56294W        W27910   0.258  10.404  11.446
56295W        W27911  37.541   5.387   1.307
56296W        W27912   1.224  42.849  12.807
56297W        W27913  42.996  31.702   1.798
56298W        W27914  30.462   8.723  13.095
56299W        W27915  34.030  11.333  14.368
56300W        W27916   6.236  21.629   0.983
56301W        W27917  13.332  20.382   3.426
56302W        W27918  19.515  26.988  13.946
56303W        W27919  21.607  11.710  12.450
56304W        W27920   4.120  25.494   3.485
56305W        W27921   6.428  36.416  11.698
56306W        W27922   1.757   0.316  11.712
56307W        W27923  31.774   1.486  12.868
56308W        W27924  20.160  29.708  12.113
56309W        W27925   6.168   6.402   0.458
56310W        W27926  44.422  28.924   2.156
56311W        W27927  10.809  13.112  13.919
56312W        W27928   2.219  22.143  12.520
56313W        W27929  33.204   2.956   1.238
56314W        W27930  44.882   3.220  13.955
56315W        W27931  21.230  24.671   3.263
56316W        W27932   4.501  15.006  12.075
56317W        W27933  23.045  43.972  12.689
56318W        W27934   2.197  22.675  12.420
56319W        W27935   4.777  35.741   0.680
56320W        W27936  36.882  10.590  10.071
56321W        W27937  32.501  17.931   3.707
56322W        W27938  23.166  17.736   4.629
56323W        W27939  13.655  15.553  10.747
56324W        W27940  21.905  25.574   4.868
56325W        W27941   6.845  19.023  14.582
56326W        W27942   7.702  26.722   0.435
56327W        W27943  27.376  32.950  14.033
56328W        W27944   9.784  44.005  11.267
56329W        W27945   5.987  18.195   1.844
56330W        W27946  12.317  27.926  12.087
56331W        W27947  36.990  30.023  13.346
56332W        W27948  29.889  41.430   2.733
56333W        W27949  27.211  28.625   4.148
56334W        W27950  42.176   9.728   4.290
56335W        W27951  13.197  37.335  13.656
56336W        W27952   1.696  34.189   4.586
56337W        W27953   2.828   2.308  12.181
56338W        W27954  38.940  37.105   1.150
56339W        W27955   8.759   7.054   0.530
56340W        W27956  24.604  33.033  11.469
56341W        W27957  18.784  28.399   1.281
56342W        W27958  42.975  33.864   1.025
56343W        W27959  33.955   6.883  10.553
56344W        W27960  26.640  40.448   2.326
56345W        W27961  18.946   8.536  12.596
56346W        W27962   8.107  28.225  11.480
56347W        W27963  40.001  36.245  11.580
56348W        W27964  41.220   9.164  13.332
56349W        W27965  15.767  40.335   3.812
56350W        W27966  33.496   3.269   2.157
56351W        W27967  27.534  26.133   3.109
56352W        W27968  11.585  19.774  12.610
56353W        W27969  44.773  42.038   1.837
56354W        W27970   4.649  39.120   1.339
56355W        W27971  17.865  35.644  11.173
56356W        W27972  26.081  15.661  11.920
56357W        W27973  15.841  38.469  11.496
56358W        W27974  32.569   5.448  12.098
56359W        W27975  37.978   3.963  10.554
56360W        W27976  35.155  38.875  14.514
56361W        W27977  23.289  25.678   2.342
56362W        W27978  12.238   7.628  14.336
56363W        W27979  27.431  37.408   4.632
56364W        W27980  14.632  15.634   3.614
56365W        W27981  38.679  35.282   4.934
56366W        W27982  26.214  30.055  13.882
56367W        W27983  32.364  41.890  13.485
56368W        W27984  21.249   0.785   4.370
56369W        W27985  15.637  11.397  11.064
56370W        W27986  28.155  40.363   5.005
56371W        W27987  27.424  36.841   3.372
56372W        W27988  34.169  22.697  12.090
56373W        W27989  43.602  29.132  10.445
56374W        W27990  28.066  16.142  10.981
56375W        W27991  18.104  17.246  10.688
56376W        W27992  32.651  19.780   5.079
56377W        W27993   4.022   4.765  11.186
56378W        W27994   6.191  37.955  14.411
56379W        W27995  21.982   6.383  12.003
56380W        W27996   1.441  14.066   0.322
56381W        W27997  35.136  25.018  10.689
56382W        W27998  33.904  12.250  11.587
56383W        W27999  28.053  40.441  10.185
56384W        W28000  14.323  41.262  10.570
56385W        W28001  25.161  17.269   3.834
56386W        W28002  37.003   0.062   2.430
56387W        W28003  15.485   6.846  12.034
56388W        W28004  35.916   4.719   1.544
56389W        W28005  35.458  30.728   3.741
56390W        W28006  39.457  14.748  11.997
56391W        W28007   3.491  12.364  11.712
56392W        W28008  27.299  26.568  12.051
56393W        W28009   0.280  42.697   3.055
56394W        W28010   2.897   0.413   4.388
56395W        W28011  21.668  25.940   1.953
56396W        W28012  29.905   2.541   3.787
56397W        W28013  33.532   1.996   9.891
56398W        W28014  36.111  13.301  12.385
56399W        W28015  41.321  14.813   3.870
56400W        W28016   0.451  38.498  14.949
56401W        W28017  40.957  13.805  10.754
56402W        W28018  35.594  10.759   3.413
56403W        W28019  15.179  33.337   3.761
56404W        W28020   5.210  37.313   2.214
56405W        W28021  14.716  28.772  11.088
56406W        W28022  29.438  22.142  10.918
56407W        W28023  26.261  39.958   1.000
56408W        W28024  21.731  42.847  14.266
56409W        W28025  36.134  36.188   1.804
56410W        W28026   8.285   2.291  10.471
56411W        W28027  23.275  31.598  12.581
56412W        W28028  16.241  32.212  12.883
56413W        W28029  39.492  16.342  12.131
56414W        W28030  10.181  15.417  12.517
56415W        W28031   2.138  41.387   0.705
56416W        W28032  42.250  13.806  12.024
56417W        W28033  30.632   1.326  10.302
56418W        W28034  12.741  28.512   0.908
56419W        W28035  13.764  35.959   0.455
56420W        W28036  28.547   6.289   0.833
56421W        W28037  13.366  32.880   0.380
56422W        W28038  18.125  41.522  12.082
56423W        W28039  11.408  38.395   3.711
56424W        W28040  19.548  35.516  13.449
56425W        W28041  10.217  42.505   2.156
56426W        W28042  19.592   7.321   3.718
56427W        W28043   0.022  13.639  14.223
56428W        W28044  21.047  19.039   0.797
56429W        W28045  44.954  13.215  14.553
56430W        W28046   1.469  34.388  11.626
56431W        W28047  26.943  12.769   5.084
56432W        W28048   9.358  19.640   0.874
56433W        W28049  29.313   9.727   4.185
56434W        W28050  19.101   5.235   0.461
56435W        W28051  14.784  27.257   4.531
56436W        W28052  30.462  39.240   2.288
56437W        W28053  19.897   3.423   1.034
56438W        W28054  23.066   6.802  12.651
56439W        W28055  35.407  14.029  13.202
56440W        W28056   8.323  18.651  14.728
56441W        W28057  36.494  13.713   0.269
56442W        W28058   6.926  22.202   0.858
56443W        W28059   3.429  37.517  14.102
56444W        W28060  36.096  13.096   0.785
56445W        W28061  21.740  39.983  14.287
56446W        W28062  15.718   6.304   3.663
56447W        W28063  11.504  31.843   2.193
56448W        W28064  36.885  40.836  11.326
56449W        W28065   3.280  31.943   0.464
56450W        W28066  20.220   6.471   4.601
56451W        W28067   2.742  44.747  11.977
56452W        W28068   1.700  33.461   3.390
56453W        W28069  44.033  32.525  12.476
56454W        W28070   9.780  39.037   2.814
56455W        W28071  26.928  35.148   3.192
56456W        W28072  36.968  40.987   2.286
56457W        W28073  25.215  30.050   0.715
56458W        W28074  22.224   9.853   3.906
56459W        W28075  16.822  29.236   2.395
56460W        W28076   0.764   6.773   0.041
56461W        W28077   6.229  40.324   2.240
56462W        W28078  34.649   7.731  13.581
56463W        W28079   4.240  32.009   1.304
56464W        W28080  24.037  39.564   0.696
56465W        W28081   8.374  26.498  10.846
56466W        W28082  39.337  26.616   0.349
56467W        W28083   1.058  43.430   0.199
56468W        W28084  15.772  36.137  10.766
56469W        W28085  39.443  38.886  12.588
56470W        W28086  34.064  34.114   0.721
56471W        W28087  33.017  12.572  12.394
56472W        W28088  17.713   3.702  13.440
56473W        W28089   4.462  21.733  12.468
56474W        W28090  17.651  37.972  10.424
56475W        W28091  44.511   3.371   3.068
56476W        W28092  15.417  27.255   2.868
56477W        W28093  18.518   1.791   3.631
56478W        W28094  43.517  35.807   5.030
56479W        W28095  28.075  28.986   2.896
56480W        W28096  11.377   1.095   2.304
56481W        W28097  25.180   0.402  13.977
56482W        W28098  44.013   2.561   0.248
56483W        W28099  16.975  41.532  10.861
56484W        W28100  33.549   1.912   1.501
56485W        W28101  38.015  19.178  13.729
56486W        W28102  30.618  13.356   2.805
56487W        W28103  39.935  35.530   4.661
56488W        W28104  22.147  13.205   0.720
56489W        W28105  18.586  10.627   0.788
56490W        W28106   5.767   9.183   0.677
56491W        W28107   7.223  33.227   1.729
56492W        W28108  27.766  13.702  11.350
56493W        W28109  31.919  38.363   3.210
56494W        W28110  42.614  35.923  13.363
56495W        W28111   0.886  11.828  13.465
56496W        W28112  16.470   9.396   1.376
56497W        W28113  18.754  20.147   2.574
56498W        W28114  32.056   8.988  10.705
56499W        W28115  14.618  20.447   2.663
56500W        W28116  14.622  17.118   0.026
56501W        W28117  28.672  17.643   4.172
56502W        W28118   6.116  18.212   4.159
56503W        W28119  33.672  44.485  13.376
56504W        W28120  21.486   7.840  11.128
56505W        W28121   6.260   7.435  10.235
56506W        W28122  37.305  38.881  13.432
56507W        W28123  31.663  25.649  14.061
56508W        W28124  39.460  33.137  14.024
56509W        W28125  38.325  39.606  14.001
56510W        W28126   2.980   0.870   5.053
56511W        W28127  10.940  36.004  12.388
56512W        W28128  28.172  23.112   0.379
56513W        W28129   8.709   9.671   1.299
56514W        W28130  42.092  24.752  11.117
56515W        W28131  39.764   9.910  13.409
56516W        W28132  25.046   1.166   1.861
56517W        W28133  24.997  20.672   4.791
56518W        W28134   8.800  16.198   1.210
56519W        W28135  19.945  38.368  10.561
56520W        W28136  30.669  30.007  14.269
56521W        W28137  43.080   7.194   1.260
56522W        W28138   0.320   0.177  14.353
56523W        W28139   5.803  31.455  11.207
56524W        W28140  26.193  22.625  11.546
56525W        W28141  41.935  17.792  14.450
56526W        W28142  15.165  22.658  12.523
56527W        W28143   4.353  40.730  13.905
56528W        W28144  20.178  12.687   2.990
56529W        W28145  34.263   4.187   4.117
56530W        W28146  27.023  40.399  11.997
56531W        W28147  37.854  17.248  14.622
56532W        W28148  28.832   6.874   1.416
56533W        W28149  44.748  11.185  14.941
56534W        W28150  29.640  35.003   2.374
56535W        W28151  27.365  12.262   0.050
56536W        W28152  13.130  12.287  14.834
56537W        W28153  42.900  15.221  11.076
56538W        W28154  22.022   6.644   1.853
56539W        W28155  33.349   2.476   9.860
56540W        W28156  29.093  25.641  12.837
56541W        W28157  22.567  35.528   3.465
56542W        W28158  24.211  30.380   3.678
56543W        W28159  37.131   2.727  11.527
56544W        W28160  36.407   7.714   1.972
56545W        W28161  23.096  35.373   4.096
56546W        W28162  42.289  20.806  12.890
56547W        W28163  43.647  12.552  12.341
56548W        W28164  23.662  15.194   0.836
56549W        W28165  13.648  14.025   0.874
56550W        W28166  41.409  28.992   1.271
56551W        W28167  38.453  31.712  14.979
56552W        W28168   4.610  22.227   1.102
56553W        W28169  25.612   3.941  11.503
56554W        W28170  18.117   1.998  11.671
56555W        W28171   7.495   9.245   0.390
56556W        W28172  39.492  13.271   5.178
56557W        W28173  39.475  18.530  13.471
56558W        W28174  10.857  22.955   3.444
56559W        W28175  12.794   4.231  10.284
56560W        W28176  28.920  15.262  11.895
56561W        W28177  32.174  39.601   2.732
56562W        W28178   4.307   8.666  12.530
56563W        W28179  18.276  29.370  13.353
56564W        W28180  14.758  26.580   1.537
56565W        W28181  27.076  30.941   3.087
56566W        W28182  31.029   4.345  12.528
56567W        W28183  38.764   7.124  13.859
56568W        W28184  38.134   8.826  14.702
56569W        W28185   7.796  40.853   0.538
56570W        W28186  34.242  10.423   3.264
56571W        W28187  15.840  10.110  11.992
56572W        W28188  44.208   6.455  14.731
56573W        W28189   4.423   7.443  14.342
56574W        W28190  21.802   7.909   2.679
56575W        W28191  38.658   8.816  14.610
56576W        W28192  26.505  28.030   3.690
56577W        W28193  15.220   9.395   0.264
56578W        W28194  23.973  16.140   1.450
56579W        W28195  34.692  16.933  14.284
56580W        W28196   8.319  27.574  14.072
56581W        W28197  30.409  44.392  12.546
56582W        W28198  28.563  17.590   0.716
56583W        W28199   1.753  35.821  12.935
56584W        W28200  34.917  16.076  14.571
56585W        W28201   2.093  33.929  11.532
56586W        W28202   3.512   9.952  14.515
56587W        W28203  23.436  21.588  14.786
56588W        W28204  30.609  35.838  13.945
56589W        W28205  36.432  42.307   0.539
56590W        W28206  28.042  10.868  13.339
56591W        W28207   7.928  29.958  12.197
56592W        W28208  40.119  33.362   2.174
56593W        W28209   3.960   2.524  14.795
56594W        W28210  15.596  33.014   4.251
56595W        W28211  41.811  37.529  12.395
56596W        W28212  10.462  35.033   0.041
56597W        W28213  13.424  23.009   2.874
56598W        W28214  29.108  25.706   2.209
56599W        W28215  25.484  35.301  14.412
56600W        W28216   7.092   0.876   0.301
56601W        W28217  42.472  41.247  13.528
56602W        W28218  17.442  14.977  11.428
56603W        W28219  23.175  33.090  14.965
56604W        W28220  26.159  13.824  12.084
56605W        W28221  17.740  14.576  13.259
56606W        W28222   0.910  13.987   4.616
56607W        W28223  43.342   8.406  10.745
56608W        W28224  43.980   8.377  12.395
56609W        W28225  22.964  23.122   0.853
56610W        W28226  29.090   4.224  11.804
56611W        W28227  44.818  25.449   2.783
56612W        W28228  25.039  20.014  12.508
56613W        W28229  37.895  16.984   2.408
56614W        W28230  11.723  43.299  14.533
56615W        W28231  43.690  24.969   1.333
56616W        W28232  38.966  16.222   1.928
56617W        W28233  17.823  40.881  10.406
56618W        W28234  37.792  26.020   1.703
56619W        W28235  42.344  20.027   0.292
56620W        W28236  32.009   7.688   3.141
56621W        W28237  21.145  33.058   3.783
56622W        W28238  40.582  39.722  10.829
56623W        W28239  28.713  10.187  12.090
56624W        W28240   3.277  44.527   3.778
56625W        W28241  35.152  17.364  13.434
56626W        W28242  28.576  21.793   2.255
56627W        W28243  44.503  23.746   0.001
56628W        W28244   5.816   1.824  11.209
56629W        W28245  37.952  39.423  11.048
56630W        W28246  25.050  30.984   1.670
56631W        W28247  27.977  18.005  13.974
56632W        W28248  31.090  12.052   0.278
56633W        W28249   4.846  27.898  11.108
56634W        W28250  18.270  13.849  12.174
56635W        W28251  43.529  28.589  12.836
56636W        W28252  10.906  18.561  13.843
56637W        W28253  34.289  15.089  13.469
56638W        W28254  29.447  36.298   2.882
56639W        W28255  44.868   8.333   0.458
56640W        W28256  30.026   2.905  13.565
56641W        W28257  36.194   0.523  12.130
56642W        W28258  43.715   7.258  12.522
56643W        W28259  34.382  14.141  13.480
56644W        W28260   3.252   5.124  14.933
56645W        W28261   5.107   9.888  11.434
56646W        W28262  30.946  44.867   3.535
56647W        W28263  29.479  28.217  11.511
56648W        W28264  21.380  30.778   5.045
56649W        W28265   3.780  43.634   0.386
56650W        W28266   9.107  22.516  11.596
56651W        W28267  27.189  35.382   0.892
56652W        W28268  15.378   0.635   0.342
56653W        W28269  17.523  29.641  14.416
56654W        W28270  16.129  11.137   4.691
56655W        W28271  40.867  13.726   0.934
56656W        W28272  18.265   0.917  13.594
56657W        W28273  40.962   0.323  13.211
56658W        W28274   1.311  27.028  13.575
56659W        W28275   5.724  11.072  14.093
56660W        W28276   6.485   9.759  14.526
56661W        W28277  22.983  18.613   4.631
56662W        W28278  12.856   3.808   5.013
56663W        W28279   6.993  32.697   2.368
56664W        W28280  31.126  21.579  12.860
56665W        W28281  44.353  26.228  12.358
56666W        W28282  28.949  27.259  13.327
56667W        W28283  19.729  24.114  11.724
56668W        W28284   8.627  42.214  14.907
56669W        W28285  33.575  15.311  11.167
56670W        W28286  22.003   0.262  10.981
56671W        W28287  31.708   2.065   2.800
56672W        W28288   6.143  35.603  11.540
56673W        W28289  44.537  35.010  12.064
56674W        W28290  17.811  42.343  14.768
56675W        W28291  38.516  17.195  12.429
56676W        W28292   9.205  17.447   4.940
56677W        W28293  19.312  25.977   1.882
56678W        W28294  25.752  35.472   4.618
56679W        W28295  11.086  18.735   0.329
56680W        W28296  14.857  16.207  11.503
56681W        W28297  37.345   0.023  10.861
56682W        W28298   9.395  19.687   5.037
56683W        W28299  21.636  16.856   0.339
56684W        W28300  41.521   7.684  12.132
56685W        W28301   4.294  44.214   1.374
56686W        W28302  19.475  38.515  10.748
56687W        W28303  21.843   1.721  11.400
56688W        W28304  23.547  37.882  14.413
56689W        W28305  43.342  27.636  10.571
56690W        W28306  22.001  15.527   3.273
56691W        W28307  38.362  12.173   1.797
56692W        W28308  40.259   6.816   0.342
56693W        W28309   0.808  17.024   4.177
56694W        W28310   0.741  33.234   4.611
56695W        W28311  24.110   5.927   0.777
56696W        W28312  19.090  13.659   1.412
56697W        W28313  44.677  35.649   4.479
56698W        W28314  26.023  12.397  12.088
56699W        W28315   8.330  11.736   2.246
56700W        W28316  21.661  32.600  14.500
56701W        W28317  15.766  26.116   3.830
56702W        W28318  40.322  27.555   2.376
56703W        W28319  31.616   9.901   4.675
56704W        W28320  27.031  35.776   0.125
56705W        W28321   8.858  26.399  14.536
56706W        W28322  42.133  34.042  11.621
56707W        W28323  28.916   1.695   0.244
56708W        W28324  21.129  32.164   3.211
56709W        W28325  31.442  24.250  11.930
56710W        W28326  38.600  40.007   3.650
56711W        W28327   8.839  39.700  13.880
56712W        W28328  37.520  38.663   0.681
56713W        W28329  22.320  30.601   3.392
56714W        W28330   5.897  43.819   4.099
56715W        W28331   5.305  17.658   4.344
56716W        W28332  23.020   8.938  13.346
56717W        W28333   1.603  32.669   0.984
56718W        W28334  27.039  40.614  14.803
56719W        W28335  17.770  40.847   1.805
56720W        W28336  35.595  10.209  13.423
56721W        W28337  25.803  44.328  10.703
56722W        W28338   0.670  23.217   5.470
56723W        W28339  35.416  26.225   0.824
56724W        W28340  34.463  31.375   2.267
56725W        W28341   2.202  32.481  13.421
56726W        W28342  41.282  29.628  13.425
56727W        W28343   6.583  30.152   4.593
56728W        W28344  14.618   8.426   3.395
56729W        W28345  31.127  30.914   5.350
56730W        W28346  22.160  20.999  11.578
56731W        W28347  36.476  32.436   4.877
56732W        W28348  12.220  43.231  13.873
56733W        W28349  18.181  36.462   4.696
56734W        W28350   8.851  26.301  10.779
56735W        W28351  20.723  41.626   0.010
56736W        W28352  19.664  19.219  12.879
56737W        W28353  12.250  32.046   1.834
56738W        W28354  21.148  32.279   4.276
56739W        W28355   2.935  13.097  11.301
56740W        W28356  16.775  21.294   2.834
56741W        W28357   6.687  28.975  13.261
56742W        W28358  23.137  13.389   1.338
56743W        W28359  18.582   4.071   4.913
56744W        W28360   3.007  44.852  13.948
56745W        W28361  16.823  26.900   3.308
56746W        W28362  21.170  42.229   4.090
56747W        W28363  30.124  19.943  13.845
56748W        W28364  26.033  33.160  12.880
56749W        W28365   4.416  40.949   1.195
56750W        W28366  36.922  28.573   2.185
56751W        W28367   0.394  42.636  11.479
56752W        W28368  38.003  18.433   5.026
56753W        W28369  31.397  34.428   0.278
56754W        W28370   2.759   1.510   0.027
56755W        W28371  33.666  18.606   4.298
56756W        W28372  23.191  20.674  12.458
56757W        W28373   0.877  22.946   3.690
56758W        W28374  16.104  10.322   0.781
56759W        W28375  12.141  44.620   1.363
56760W        W28376  38.783   5.923   4.675
56761W        W28377   0.262  34.037   2.187
56762W        W28378  13.783  29.503   1.892
56763W        W28379  32.151  13.593   1.645
56764W        W28380   3.770  30.367   4.594
56765W        W28381   0.559  21.549   2.125
56766W        W28382  41.417  23.716   1.773
56767W        W28383  43.713  14.862  14.477
56768W        W28384  26.090  32.481  12.402
56769W        W28385  22.757  18.832   4.208
56770W        W28386  36.261   4.768  11.290
56771W        W28387   8.900  44.960  11.589
56772W        W28388  37.518  32.541   1.226
56773W        W28389  22.784  29.802   4.151
56774W        W28390  28.424  31.632   2.859
56775W        W28391  28.904  21.644  14.374
56776W        W28392  20.694  25.758   3.586
56777W        W28393  35.073   3.399   1.658
56778W        W28394   0.025  34.954   2.803
56779W        W28395  43.707  10.409   2.710
56780W        W28396   5.549   9.454   4.627
56781W        W28397   3.491  20.997   3.921
56782W        W28398  22.721  26.144   1.906
56783W        W28399  31.645  10.016  13.602
56784W        W28400  20.501   8.659   4.156
56785W        W28401  15.730  23.781  10.369
56786W        W28402   4.373  37.992   4.479
56787W        W28403  16.096  39.865  12.781
56788W        W28404  41.774  22.037  14.417
56789W        W28405   8.656  41.055  13.396
56790W        W28406   5.617  24.138  11.790
56791W        W28407  26.638  22.581  14.813
56792W        W28408  23.243  44.874  12.208
56793W        W28409  19.285  12.682   1.438
56794W        W28410  33.840  33.495  11.453
56795W        W28411  32.508  29.248   9.838
56796W        W28412   7.682   3.235  14.752
56797W        W28413   4.951  24.551  10.719
56798W        W28414  18.537  30.274  14.954
56799W        W28415  38.809   6.787  14.263
56800W        W28416   1.817  34.467   3.210
56801W        W28417  11.694  40.847  13.830
56802W        W28418  17.106  42.053  10.720
56803W        W28419  30.524  31.176  12.064
56804W        W28420   8.702  29.630   2.279
56805W        W28421  32.055  43.564  14.657
56806W        W28422  42.976  23.313   0.623
56807W        W28423   5.309  30.363  11.493
56808W        W28424   3.291  28.806   4.848
56809W        W28425   1.399  12.362   4.265
56810W        W28426  28.951  10.000  14.305
56811W        W28427  36.085  30.552   3.011
56812W        W28428  12.187  33.580   3.781
56813W        W28429  42.838   5.794  11.150
56814W        W28430  35.938  29.285   4.124
56815W        W28431  12.142  44.183  14.908
56816W        W28432  41.466  28.378  11.939
56817W        W28433  16.707  33.164  10.647
56818W        W28434  37.335   5.825  11.110
56819W        W28435   7.514  24.985  13.204
56820W        W28436   4.983  36.545   0.281
56821W        W28437  38.812   9.360   0.367
56822W        W28438  15.819  21.353  12.555
56823W        W28439   7.710  11.400   4.185
56824W        W28440  20.117  27.586  12.919
56825W        W28441  27.465  16.326   2.656
56826W        W28442   1.527  17.105   3.103
56827W        W28443  13.379  38.903   0.859
56828W        W28444  22.542   1.660   0.337
56829W        W28445  13.330  34.365  13.376
56830W        W28446  10.899   7.559  11.065
56831W        W28447  40.293  32.838  12.822
56832W        W28448  16.264  40.570   0.448
56833W        W28449  27.440   1.440  11.074
56834W        W28450   7.600  13.546   0.478
56835W        W28451  36.879  13.659   3.060
56836W        W28452  40.842   8.846   4.946
56837W        W28453  32.680  25.024   1.836
56838W        W28454  28.555  14.135  14.905
56839W        W28455  26.031   7.412  11.594
56840W        W28456  22.223  42.023  12.792
56841W        W28457  21.806  32.853  13.738
56842W        W28458  24.872  35.100  12.840
56843W        W28459  43.474  31.684  12.349
56844W        W28460   3.482  28.873  14.760
56845W        W28461  38.760  19.084   2.435
56846W        W28462  14.523   9.352   2.499
56847W        W28463  31.228  11.572  11.641
56848W        W28464  15.069  43.968  13.690
56849W        W28465  41.884  44.297   4.153
56850W        W28466  10.125  29.492   1.919
56851W        W28467  34.316  29.142  10.717
56852W        W28468  43.241  42.775   0.738
56853W        W28469  18.881  44.395  11.571
56854W        W28470  44.058  36.920  10.344
56855W        W28471  40.859  38.984   2.846
56856W        W28472  38.551  12.822  14.500
56857W        W28473  28.728  41.487  11.485
56858W        W28474  30.248  30.543   3.898
56859W        W28475  24.470  27.468   2.141
56860W        W28476  16.294  29.637   3.267
56861W        W28477  16.212  16.132   9.934
56862W        W28478  18.281   4.344  12.372
56863W        W28479  12.644  21.121   4.451
56864W        W28480  19.984  33.159  10.738
56865W        W28481   6.757  42.304  12.690
56866W        W28482   4.663   0.833  10.602
56867W        W28483  31.585  27.875   0.888
56868W        W28484  40.602  32.444  12.953
56869W        W28485  26.623  16.610  13.600
56870W        W28486  28.534  18.134   0.452
56871W        W28487  27.122  31.026  11.628
56872W        W28488   8.697  10.589  14.444
56873W        W28489  40.383  39.507   3.706
56874W        W28490   5.729   3.750   1.856
56875W        W28491  30.013  31.351  12.167
56876W        W28492  15.159  27.531  12.441
56877W        W28493  38.545  10.257  14.914
56878W        W28494   7.070  40.338   1.165
56879W        W28495  26.529   2.755  11.246
56880W        W28496  39.548  10.164  10.557
56881W        W28497  29.069  24.687   3.399
56882W        W28498  21.894  34.934   3.907
56883W        W28499   4.209  32.538  12.630
56884W        W28500  15.779  16.405   4.262
56885W        W28501  38.370  25.659  11.633
56886W        W28502  40.115   8.860  10.616
56887W        W28503  43.698  18.604  13.714
56888W        W28504  30.602  14.374   0.442
56889W        W28505  38.054  40.098  12.614
56890W        W28506  31.020  26.516  10.228
56891W        W28507  15.334  12.827  12.879
56892W        W28508  18.377  15.439   0.268
56893W        W28509   6.633  24.691  13.080
56894W        W28510  38.497  34.363  10.549
56895W        W28511   7.926  15.211   3.627
56896W        W28512  12.691  14.083   1.518
56897W        W28513  35.116   8.735  10.948
56898W        W28514  14.847  44.679   3.100
56899W        W28515  30.700  44.376   3.550
56900W        W28516  20.071  23.817  14.014
56901W        W28517  22.685  20.182  11.188
56902W        W28518   0.026  16.817   0.756
56903W        W28519   5.925  33.859  14.798
56904W        W28520  24.904   0.996   2.845
56905W        W28521  13.494  23.677   3.699
56906W        W28522  43.285  20.339  12.046
56907W        W28523  39.789   8.906   1.852
56908W        W28524  17.984  26.154  10.587
56909W        W28525   6.786  10.751  12.486
56910W        W28526   5.477   0.033   5.495
56911W        W28527   7.431  40.040   3.134
56912W        W28528  29.505   7.654  11.082
56913W        W28529  22.538  43.828  12.757
56914W        W28530  42.200  32.988   3.650
56915W        W28531  12.303  24.231  11.960
56916W        W28532  44.323  39.570  13.341
56917W        W28533  32.030  11.277  11.542
56918W        W28534  41.406  32.551   4.073
56919W        W28535  31.569  37.124   4.146
56920W        W28536   1.570  44.870   1.656
56921W        W28537  22.052   3.419  13.841
56922W        W28538  19.032  20.957   4.187
56923W        W28539  19.664  35.439   3.703
56924W        W28540  37.933  13.564  12.880
56925W        W28541  35.845   1.317   3.008
56926W        W28542   4.399  33.580   1.839
56927W        W28543  18.164  26.039   1.031
56928W        W28544   5.435  36.891  11.425
56929W        W28545  11.745   7.883   2.175
56930W        W28546  23.909  14.731  14.338
56931W        W28547  20.507  27.393   2.285
56932W        W28548   1.255  33.886   2.375
56933W        W28549  27.558  31.961  14.005
56934W        W28550  11.929  25.049  12.080
56935W        W28551  32.141   2.003   2.228
56936W        W28552  26.475   6.790  12.106
56937W        W28553  30.413  30.039  11.021
56938W        W28554   7.647  30.782  12.486
56939W        W28555  27.715  44.527  13.398
56940W        W28556  10.154  23.766   9.825
56941W        W28557   1.417  25.021  11.994
56942W        W28558   4.467  34.880   4.559
56943W        W28559  35.128  23.429  11.443
56944W        W28560  19.175  15.832   0.722
56945W        W28561  14.626   5.256  11.516
56946W        W28562  35.877  20.138  13.097
56947W        W28563  19.521   5.465   3.674
56948W        W28564  44.228  16.047  10.409
56949W        W28565   9.397  31.570  13.355
56950W        W28566   7.227  39.509   1.395
56951W        W28567  27.445  11.202  14.774
56952W        W28568   9.747  41.834   1.679
56953W        W28569   3.770  38.808  13.383
56954W        W28570  42.025  23.560  12.069
56955W        W28571  10.603  30.000   1.346
56956W        W28572  35.401   1.285   1.812
56957W        W28573   1.732  28.541   0.535
56958W        W28574   8.816  19.029  10.670
56959W        W28575  32.981  35.346  14.937
56960W        W28576  17.124   7.398   2.773
56961W        W28577  18.689   3.628   0.176
56962W        W28578  24.176  25.478  11.581
56963W        W28579   2.360  20.275  12.530
56964W        W28580  17.813  33.916   2.906
56965W        W28581  25.210   3.832  11.188
56966W        W28582  24.745  29.439   3.440
56967W        W28583  43.695  27.413   3.895
56968W        W28584  17.964  11.171  11.653
56969W        W28585   5.600   0.355   0.856
56970W        W28586  42.137   3.770  14.199
56971W        W28587  30.593   1.914   2.664
56972W        W28588  19.722   0.567   2.713
56973W        W28589  19.045   1.937   2.353
56974W        W28590  26.056  36.453   4.600
56975W        W28591  22.755  15.238  11.768
56976W        W28592  38.930  41.870   2.060
56977W        W28593  25.337  18.748   4.088
56978W        W28594  34.592   9.903  14.835
56979W        W28595  37.929  35.821  14.175
56980W        W28596  20.603  23.210   1.599
56981W        W28597  18.161  11.401  12.089
56982W        W28598  23.641  17.268  10.817
56983W        W28599  35.112  25.470   4.650
56984W        W28600   6.810   7.283  14.246
56985W        W28601  30.673   2.222   3.798
56986W        W28602  30.648  41.824   4.231
56987W        W28603   8.914  29.219  12.566
56988W        W28604  13.137   1.351   4.161
56989W        W28605  14.501   8.089   4.167
56990W        W28606  41.363   6.077  14.295
56991W        W28607  29.828  30.241   5.231
56992W        W28608  43.348  39.458  11.606
56993W        W28609  30.791   8.762   0.307
56994W        W28610   8.790  14.765   0.687
56995W        W28611   0.217  35.064   3.338
56996W        W28612  27.474  37.367   3.175
56997W        W28613   7.719   3.345  12.887
56998W        W28614  43.853   4.178   1.227
56999W        W28615  14.223  30.984  14.652
57000W        W28616   0.183  38.789  13.946
57001W        W28617  16.256  10.326   4.272
57002W        W28618  20.697  36.048   0.606
57003W        W28619   4.889  30.634   2.976
57004W        W28620  32.588  17.812  14.927
57005W        W28621   1.093   0.294   0.014
57006W        W28622  29.842  20.714   4.833
57007W        W28623  16.594  36.830  12.371
57008W        W28624   1.760  39.041   0.071
57009W        W28625  21.167  14.942  11.524
57010W        W28626  36.267  29.711   4.140
57011W        W28627  43.324  26.451  13.775
57012W        W28628  35.177  42.939   2.765
57013W        W28629  37.384  26.514  13.117
57014W        W28630  42.362  33.936  11.169
57015W        W28631   6.396  11.627  14.352
57016W        W28632   8.892  40.014  14.313
57017W        W28633   4.522  43.962   0.925
57018W        W28634  35.339  15.609  11.586
57019W        W28635  43.303  44.482  12.374
57020W        W28636   0.049  38.633  10.048
57021W        W28637  12.483  22.128   3.271
57022W        W28638  44.733  24.474   2.273
57023W        W28639   9.818   2.768  14.466
57024W        W28640  34.113   2.770   0.878
57025W        W28641   8.362   0.885   4.873
57026W        W28642   3.923  22.121   5.560
57027W        W28643  44.376   1.679  12.558
57028W        W28644  26.266  20.205   4.837
57029W        W28645  34.637  38.868   4.497
57030W        W28646   6.953  35.805   3.695
57031W        W28647   9.375   1.160  11.615
57032W        W28648  43.256   1.714   0.763
57033W        W28649  24.201   3.652  12.882
57034W        W28650  44.259   2.233  14.944
57035W        W28651   1.717  25.112   3.118
57036W        W28652  44.817  32.942  13.969
57037W        W28653  18.143  15.130   4.535
57038W        W28654  44.397  29.979  11.501
57039W        W28655  28.864   4.809  12.966
57040W        W28656   9.291   1.477  14.945
57041W        W28657  25.827  28.855  12.686
57042W        W28658   0.686  38.513  12.043
57043W        W28659   9.219  10.837   3.795
57044W        W28660  42.036  35.848   0.873
57045W        W28661  42.960   2.520  13.078
57046W        W28662  26.232  43.884  14.965
57047W        W28663  21.280  26.267   1.247
57048W        W28664  26.126  10.043   2.137
57049W        W28665  28.634  43.092  13.128
57050W        W28666   6.168   6.267  12.622
57051W        W28667  21.068  34.880  14.990
57052W        W28668  42.946   5.852  12.445
57053W        W28669  38.961  19.059  12.426
57054W        W28670  28.998   1.939   2.264
57055W        W28671   3.435  33.976  12.548
57056W        W28672  21.552  42.684   4.766
57057W        W28673  10.335  39.942   2.849
57058W        W28674  17.476  42.380   4.633
57059W        W28675  27.749   6.263  13.948
57060W        W28676   7.712  19.237  11.542
57061W        W28677  19.751  19.064  12.401
57062W        W28678  18.096  18.578  10.570
57063W        W28679  29.344  37.777  13.145
57064W        W28680  30.094  18.547  10.680
57065W        W28681   9.154  38.795  10.668
57066W        W28682  25.015  17.238  12.450
57067W        W28683  29.929  31.217   1.927
57068W        W28684  16.286  28.379   2.348
57069W        W28685  25.311   5.601  10.693
57070W        W28686  29.864  36.833   1.838
57071W        W28687  38.580   3.812   3.810
57072W        W28688  38.760  24.372  13.027
57073W        W28689  34.955  24.004   1.009
57074W        W28690  40.974   6.956  10.717
57075W        W28691  19.597  24.061  14.198
57076W        W28692  23.169   0.283  12.531
57077W        W28693  20.744  31.857  12.333
57078W        W28694  43.281  37.531  14.857
57079W        W28695  38.089  22.444   4.115
57080W        W28696  26.008   6.338  14.999
57081W        W28697  31.594  27.704   5.549
57082W        W28698   7.819   8.895  14.315
57083W        W28699  12.415  25.224  13.419
57084W        W28700  13.661  18.409  14.389
57085W        W28701  44.533   4.160   2.003
57086W        W28702  33.224  43.538   2.407
57087W        W28703   6.674   2.524  10.716
57088W        W28704  14.822   0.943   2.119
57089W        W28705  19.257  13.801  12.068
57090W        W28706  38.012  10.225   0.432
57091W        W28707  42.584  25.583   1.805
57092W        W28708  16.184  11.777  12.153
57093W        W28709  41.614  34.131  11.700
57094W        W28710  37.280  26.118   1.770
57095W        W28711   8.391  36.410   3.852
57096W        W28712   8.657  30.521  11.538
57097W        W28713  30.614   3.382  13.045
57098W        W28714  44.153  37.785   4.642
57099W        W28715   4.742  33.188  12.563
57100W        W28716   5.134  26.138   1.035
57101W        W28717  31.277  40.738   1.779
57102W        W28718   6.738  38.470   1.872
57103W        W28719  26.473  10.800   0.318
57104W        W28720   6.239  13.072  11.531
57105W        W28721  35.834   4.519  12.527
57106W        W28722  12.369  22.098   1.973
57107W        W28723  22.754   1.453  13.721
57108W        W28724  22.607  25.192   2.087
57109W        W28725   1.917  11.259   4.719
57110W        W28726  42.795  20.790   2.720
57111W        W28727   9.218   8.093  12.954
57112W        W28728   9.375  12.549  11.741
57113W        W28729  31.941  19.542   0.734
57114W        W28730  25.585  16.766  11.703
57115W        W28731  27.067  19.590  14.751
57116W        W28732  16.648   8.820  13.607
57117W        W28733   3.857  34.506  14.396
57118W        W28734  40.587   2.957  14.981
57119W        W28735  26.069  11.862  12.145
57120W        W28736   8.944  23.719  10.976
57121W        W28737  32.678   2.802   1.203
57122W        W28738   5.173   5.657  14.573
57123W        W28739  33.488   7.796   0.003
57124W        W28740  33.634  26.956  13.506
57125W        W28741  39.779  18.034   0.927
57126W        W28742  11.596   5.697  14.758
57127W        W28743   8.812  42.643   4.766
57128W        W28744  36.453  13.324  11.114
57129W        W28745  38.069  22.668   3.265
57130W        W28746  30.232  33.192  12.371
57131W        W28747   3.864  44.708   1.264
57132W        W28748  39.467  30.661  12.595
57133W        W28749  27.150  13.363  12.495
57134W        W28750   1.307  23.886  13.046
57135W        W28751   4.749  10.186  13.914
57136W        W28752  39.761  38.833   1.555
57137W        W28753  13.021  36.507  11.988
57138W        W28754  23.520  26.548   2.209
57139W        W28755   6.015  33.905  10.919
57140W        W28756  18.803   5.924  14.898
57141W        W28757  18.148  34.604   4.776
57142W        W28758  35.542  39.897   1.695
57143W        W28759  31.580  17.443   1.358
57144W        W28760  31.559  13.274   0.205
57145W        W28761  11.560  34.951  11.616
57146W        W28762  26.592   1.204  10.475
57147W        W28763  32.669  17.112   3.052
57148W        W28764  42.502  40.765  12.229
57149W        W28765   9.954   3.923   0.125
57150W        W28766  14.580  41.001  12.488
57151W        W28767  32.884  28.371   1.005
57152W        W28768  27.720  42.467  11.962
57153W        W28769  35.950  25.112   5.123
57154W        W28770  35.427  27.044   1.987
57155W        W28771  25.470  20.281   2.890
57156W        W28772  37.484  34.366   1.675
57157W        W28773  37.151  30.875  10.598
57158W        W28774  14.786  33.382   2.900
57159W        W28775  44.244  35.055   3.458
57160W        W28776   1.295   1.075   4.747
57161W        W28777  21.501  37.838   3.260
57162W        W28778  40.910   7.882  13.581
57163W        W28779  43.281  36.748   3.338
57164W        W28780  22.991  17.578  10.647
57165W        W28781  20.959  15.426  10.319
57166W        W28782   8.250   2.983   0.866
57167W        W28783  35.844  28.747   0.368
57168W        W28784  23.734  22.980   1.432
57169W        W28785  20.211   2.811   2.859
57170W        W28786  30.230  34.045   4.609
57171W        W28787  38.445  21.414   3.689
57172W        W28788  34.437  12.640  13.047
57173W        W28789  12.603  31.053  11.592
57174W        W28790  12.291  43.754  11.752
57175W        W28791  44.722   8.902   4.211
57176W        W28792  13.267  10.412  11.999
57177W        W28793  18.967  32.204   4.603
57178W        W28794   7.691  22.185  12.205
57179W        W28795  27.539  30.693   0.246
57180W        W28796   2.790  18.378  10.690
57181W        W28797   7.128  22.582  13.967
57182W        W28798  39.176  26.993  13.962
57183W        W28799   2.378  30.087   1.810
57184W        W28800  26.699  36.793  12.010
57185W        W28801  21.098  40.483  13.866
57186W        W28802  33.148  15.260   2.782
57187W        W28803  22.645   0.954   1.227
57188W        W28804  12.146   2.368   1.949
57189W        W28805  11.648  16.729   2.665
57190W        W28806  22.569  43.445   4.646
57191W        W28807   9.683  34.059  11.649
57192W        W28808  40.901  43.317  11.487
57193W        W28809  15.852  32.984  13.912
57194W        W28810  37.880  17.327  10.699
57195W        W28811   0.595  42.604   4.690
57196W        W28812   2.989  18.711   0.956
57197W        W28813   3.547   0.742   4.298
57198W        W28814  30.198  23.014  14.450
57199W        W28815   9.935  12.696   0.227
57200W        W28816  38.889  38.643   3.684
57201W        W28817  12.313  18.505  13.428
57202W        W28818   3.883  20.060  13.729
57203W        W28819  24.104  18.546  11.993
57204W        W28820  10.357  41.985   0.302
57205W        W28821  36.883  15.264  10.745
57206W        W28822  28.824  25.156   0.588
57207W        W28823  18.022  35.882   0.392
57208W        W28824  28.669  42.576   4.689
57209W        W28825  21.628  36.023   1.908
57210W        W28826   4.309  41.085  10.725
57211W        W28827  41.295   7.330   0.873
57212W        W28828   1.919   2.572   3.620
57213W        W28829   1.883  30.464  12.394
57214W        W28830   8.793  33.214   4.299
57215W        W28831  24.684  19.510   0.500
57216W        W28832  37.566  41.240  14.565
57217W        W28833  39.907  26.217   1.388
57218W        W28834  41.807  12.992   2.170
57219W        W28835  21.121  34.098   3.024
57220W        W28836   3.668  42.830   3.082
57221W        W28837  29.422   2.696  12.416
57222W        W28838  28.735  28.560  13.428
57223W        W28839  35.842  16.273   3.796
57224W        W28840   2.898  30.145   1.686
57225W        W28841  40.678  17.535  11.612
57226W        W28842  18.958  28.526  11.461
57227W        W28843  39.362   4.881   4.242
57228W        W28844   8.707  44.477  13.940
57229W        W28845  10.446   5.475  11.168
57230W        W28846   4.866  25.668  14.925
57231W        W28847  28.516  12.846   1.420
57232W        W28848  30.173   2.331   1.777
57233W        W28849  22.486  32.913   2.172
57234W        W28850  26.951  15.674   4.568
57235W        W28851  27.194  31.210  13.536
57236W        W28852  24.421  40.908  13.031
57237W        W28853  21.994  34.898  14.543
57238W        W28854  22.602   4.942   2.685
57239W        W28855  10.858  42.525  14.563
57240W        W28856  23.520  39.560  12.074
57241W        W28857  25.506  43.903  10.651
57242W        W28858  44.767   1.182   1.463
57243W        W28859  11.199   9.825   4.132
57244W        W28860  11.403   6.184  10.606
57245W        W28861  10.319  36.908   3.918
57246W        W28862   2.554  11.791   2.320
57247W        W28863  39.544  44.780  13.217
57248W        W28864  31.106  20.079  14.698
57249W        W28865   2.279  21.103   9.972
57250W        W28866  33.225  32.274   1.897
57251W        W28867   3.693  10.285  12.941
57252W        W28868  39.699  17.864   0.431
57253W        W28869   5.386  41.865   4.274
57254W        W28870  44.833   6.171   1.469
57255W        W28871  12.787  21.279   4.977
57256W        W28872   6.753   5.374  11.681
57257W        W28873  32.672  10.765   0.912
57258W        W28874  42.825   4.195  11.200
57259W        W28875   0.800   8.312  14.976
57260W        W28876  31.176  10.657  12.534
57261W        W28877  11.788  44.370  13.968
57262W        W28878  20.053  44.003  13.910
57263W        W28879   3.722   9.263   3.305
57264W        W28880  43.928  40.154   2.470
57265W        W28881  37.071   9.379  12.563
57266W        W28882  16.762  25.317   5.008
57267W        W28883   4.176  18.094   4.303
57268W        W28884  43.547  23.759  12.081
57269W        W28885  18.074  28.225  11.619
57270W        W28886   7.211  17.525  11.557
57271W        W28887  15.826  29.996  13.914
57272W        W28888  34.472  20.572  13.655
57273W        W28889  30.695  41.873   3.728
57274W        W28890  11.326   1.884  13.627
57275W        W28891  39.790  30.801  14.890
57276W        W28892  19.144   4.387   2.367
57277W        W28893   2.857  24.447  10.253
57278W        W28894   8.789  38.800   4.187
57279W        W28895  14.616  25.968   0.439
57280W        W28896  13.555   1.166   9.938
57281W        W28897  34.960  40.541   4.982
57282W        W28898  25.899   1.899  11.319
57283W        W28899  36.423  17.158  11.696
57284W        W28900  42.008   6.459   4.569
57285W        W28901  44.255  15.104   0.869
57286W        W28902  25.533  28.770   1.445
57287W        W28903  21.606  28.561   1.243
57288W        W28904  22.543  25.684   3.839
57289W        W28905  38.415  44.937  11.256
57290W        W28906  44.925  32.685   3.304
57291W        W28907  38.417  11.042   5.019
57292W        W28908  34.529  16.594  12.776
57293W        W28909   0.472  37.174  10.646
57294W        W28910   3.298  24.125  13.554
57295W        W28911   4.422  26.257  14.376
57296W        W28912  24.418  13.753   1.298
57297W        W28913  27.947  16.723   3.777
57298W        W28914  15.720  39.408   1.734
57299W        W28915  30.970  29.605   0.959
57300W        W28916  16.757  30.021   0.838
57301W        W28917  24.139  37.334  10.701
57302W        W28918  42.128  34.815   2.285
57303W        W28919  15.842  28.850  14.837
57304W        W28920  18.436  21.144   2.307
57305W        W28921  26.543  18.452  13.437
57306W        W28922  19.973  27.406   2.312
57307W        W28923  20.261  41.272   1.856
57308W        W28924  22.218  33.939  13.451
57309W        W28925  42.629   5.324   3.329
57310W        W28926  33.032   5.942   3.153
57311W        W28927  12.374  37.460  12.749
57312W        W28928  27.530  44.498  12.897
57313W        W28929  24.469   3.911  11.619
57314W        W28930   8.607  22.547  11.687
57315W        W28931  39.463  43.988   1.310
57316W        W28932  33.534  32.512   0.487
57317W        W28933  28.129  28.105  11.968
57318W        W28934  15.161  20.139   3.716
57319W        W28935  40.359  27.147  10.628
57320W        W28936  28.405   9.862   4.099
57321W        W28937  11.449   9.145  11.086
57322W        W28938  26.273  21.887   4.070
57323W        W28939   8.661   7.973   0.933
57324W        W28940  26.918   0.744   3.671
57325W        W28941  11.555  19.088   1.320
57326W        W28942  32.469  38.786  12.786
57327W        W28943  43.290  28.987  14.097
57328W        W28944  34.328  33.881  11.957
57329W        W28945  44.028  30.287   2.250
57330W        W28946  10.289   3.154   4.819
57331W        W28947   0.463  16.089   4.158
57332W        W28948   7.309  21.589  11.597
57333W        W28949  12.586  42.048  11.989
57334W        W28950   8.211  23.581   0.957
57335W        W28951  38.862  43.494   2.230
57336W        W28952   3.774  26.393   0.352
57337W        W28953  31.125  24.957  12.888
57338W        W28954  25.887   8.258  14.845
57339W        W28955   4.490   1.979   4.557
57340W        W28956  26.009  35.601   3.228
57341W        W28957   2.123  43.914  14.293
57342W        W28958  11.385  12.808   0.125
57343W        W28959   0.847  27.775  12.494
57344W        W28960  36.671  40.850  14.368
57345W        W28961  28.059   8.458  11.640
57346W        W28962  31.964  35.112   4.109
57347W        W28963   2.847  31.994   3.243
57348W        W28964  36.523  23.036   3.294
57349W        W28965   0.548   2.621   4.952
57350W        W28966  42.896  17.626  12.027
57351W        W28967  32.526  21.244  10.729
57352W        W28968   6.624  39.397  11.641
57353W        W28969  35.939   9.990   1.483
57354W        W28970  26.873  11.373   3.299
57355W        W28971  28.153  31.900   1.148
57356W        W28972  30.450  19.013  11.412
57357W        W28973  14.101  28.212  12.467
57358W        W28974  44.503   6.499  13.894
57359W        W28975  31.503  44.011   2.915
57360W        W28976  20.191  24.922   2.889
57361W        W28977  19.549  37.960  12.411
57362W        W28978   5.783  16.698   0.309
57363W        W28979  35.284   2.933   3.978
57364W        W28980  35.374  22.832  13.699
57365W        W28981  27.199  41.614   0.775
57366W        W28982  10.258  29.568  11.199
57367W        W28983  15.363  33.182   1.279
57368W        W28984   4.094  39.004   1.731
57369W        W28985   2.525  36.155   4.959
57370W        W28986  26.934   3.358   3.309
57371W        W28987   3.929  24.725  13.423
57372W        W28988  35.892  15.610   1.528
57373W        W28989  25.589  27.588   1.697
57374W        W28990  36.910  27.157  14.880
57375W        W28991  44.463   8.216   0.163
57376W        W28992  20.220  27.261  13.567
57377W        W28993   4.297  30.941   3.603
57378W        W28994  34.234  22.121   3.279
57379W        W28995  44.646   2.025   0.244
57380W        W28996  20.760  12.388  14.343
57381W        W28997  24.521   4.227  10.810
57382W        W28998  36.419  12.860  12.076
57383W        W28999   2.960   6.597  10.700
57384W        W29000   7.864  18.440   2.391
57385W        W29001  33.017  44.302  12.424
57386W        W29002  19.515  36.011   3.174
57387W        W29003   1.838  44.235  14.599
57388W        W29004  34.133  40.494  14.991
57389W        W29005  41.396  21.770   1.821
57390W        W29006   1.804  19.329  14.798
57391W        W29007  44.935  38.502   1.418
57392W        W29008   4.456  34.541   1.989
57393W        W29009  34.060  39.802  11.483
57394W        W29010  41.329  22.147   4.339
57395W        W29011  34.600  38.542   0.352
57396W        W29012  41.473  24.191  10.690
57397W        W29013  38.735   7.704   4.099
57398W        W29014  34.144   7.946  10.576
57399W        W29015   6.997  21.085   1.904
57400W        W29016  30.118  44.476   2.252
57401W        W29017   7.810  21.637  11.337
57402W        W29018  11.680  42.726  12.073
57403W        W29019  35.676  38.175   1.262
57404W        W29020  24.202  21.175   1.720
57405W        W29021  24.140  20.531  14.386
57406W        W29022   2.850  41.269  10.722
57407W        W29023  38.972  41.275   3.267
57408W        W29024  23.075  33.889   0.370
57409W        W29025  42.828  16.244   1.356
57410W        W29026  10.005  30.557   3.179
57411W        W29027   6.795  24.702  11.669
57412W        W29028  36.402  15.709   0.224
57413W        W29029  37.764  44.201   3.735
57414W        W29030  39.488  17.023  11.527
57415W        W29031  12.678  29.121  12.006
57416W        W29032  38.075  14.786  10.568
57417W        W29033   2.722  14.211  10.500
57418W        W29034  23.763   0.926   2.203
57419W        W29035  25.011  23.740   3.317
57420W        W29036  35.714  13.272  11.486
57421W        W29037   0.224  30.981  12.982
57422W        W29038  16.520  32.665  11.532
57423W        W29039  18.021  16.149  14.392
57424W        W29040  32.665  34.115   1.149
57425W        W29041  28.478  41.480   4.118
57426W        W29042  31.170   9.262  10.385
57427W        W29043  34.040  33.030  10.541
57428W        W29044   4.550  15.072   4.634
57429W        W29045  37.712  29.339   4.995
57430W        W29046  18.699  38.573  13.554
57431W        W29047  42.316  20.748  13.398
57432W        W29048  18.159  21.525  14.369
57433W        W29049  26.502   2.386   3.328
57434W        W29050  40.564  44.450  10.218
57435W        W29051  19.721  40.794   3.549
57436W        W29052  33.524  33.977   4.474
57437W        W29053  28.229  15.269  11.209
57438W        W29054   9.335  20.068  13.916
57439W        W29055   6.960  10.104  12.492
57440W        W29056   9.351  28.507  13.923
57441W        W29057  33.566   8.772   1.040
57442W        W29058  25.329  39.276   0.179
57443W        W29059   5.447  11.340  12.332
57444W        W29060  38.196  42.850   4.155
57445W        W29061  14.379  20.835   2.422
57446W        W29062  11.274   3.365  13.157
57447W        W29063  15.113  15.860   1.846
57448W        W29064  13.221  29.692  11.481
57449W        W29065   2.112  13.527  11.949
57450W        W29066  41.518  29.094   3.648
57451W        W29067  17.577  40.557  14.898
57452W        W29068   0.257   3.412  12.337
57453W        W29069  11.652  19.609   1.297
57454W        W29070  22.062  15.732   2.718
57455W        W29071  25.605  24.719  12.468
57456W        W29072   3.720  29.032   4.640
57457W        W29073   8.243  25.837   2.883
57458W        W29074  14.605   1.711  13.002
57459W        W29075  39.748  28.683   3.745
57460W        W29076  42.340  21.201  10.470
57461W        W29077  24.124  30.537  10.777
57462W        W29078   6.022   1.178   2.261
57463W        W29079  15.668  20.215  12.058
57464W        W29080  31.576   5.373  12.971
57465W        W29081  14.032  14.851   0.525
57466W        W29082  40.088  39.328  11.450
57467W        W29083  21.824  11.646  13.421
57468W        W29084  19.755  16.199   4.637
57469W        W29085  42.200   5.568   2.421
57470W        W29086  42.082  30.219  12.612
57471W        W29087  40.908  18.283   4.298
57472W        W29088   5.373  36.989  13.574
57473W        W29089  25.430  26.786  10.528
57474W        W29090  30.010   2.055   0.227
57475W        W29091  33.923  33.646   0.486
57476W        W29092  37.170   7.759  12.084
57477W        W29093  14.329   8.678  13.890
57478W        W29094  21.355   2.185  13.896
57479W        W29095  38.316   0.932   3.988
57480W        W29096  21.528   4.941   2.694
57481W        W29097  35.232  42.682   4.105
57482W        W29098   8.151  39.663   4.255
57483W        W29099  33.565   0.484   3.056
57484W        W29100  23.981  23.048   0.974
57485W        W29101  10.257   1.433  10.713
57486W        W29102  22.097  18.542  10.428
57487W        W29103   0.512   3.318   0.580
57488W        W29104  28.831  36.487   1.519
57489W        W29105  37.279  15.672   3.348
57490W        W29106  13.209  23.505  14.232
57491W        W29107  21.590  31.013  13.559
57492W        W29108  42.698  25.898   2.230
57493W        W29109  13.762  21.944  14.332
57494W        W29110   4.977  35.697  13.542
57495W        W29111  32.993  36.185  12.197
57496W        W29112  14.616  13.855  14.306
57497W        W29113   0.297   3.265  14.740
57498W        W29114  40.530  30.824   5.036
57499W        W29115  44.763  33.120   2.137
57500W        W29116  41.869   1.715  13.407
57501W        W29117   7.826  17.648   2.663
57502W        W29118  13.281  28.958   2.428
57503W        W29119   5.195  41.048  14.505
57504W        W29120  36.923  25.081  13.138
57505W        W29121  15.819  11.146  12.402
57506W        W29122  14.207   3.399  12.857
57507W        W29123  19.010  15.814   1.829
57508W        W29124   9.555  23.706   3.290
57509W        W29125   3.236  26.413  13.609
57510W        W29126  13.077   8.589   2.359
57511W        W29127  14.242   7.454  12.052
57512W        W29128  33.041   2.532   4.986
57513W        W29129  28.491  20.487  11.572
57514W        W29130  16.208   9.781  13.033
57515W        W29131  22.994  17.682   0.273
57516W        W29132  41.724  10.619   3.109
57517W        W29133  24.982  21.218   0.347
57518W        W29134  26.449  30.453   1.333
57519W        W29135   6.809  44.924   2.765
57520W        W29136  35.322   2.456  14.345
57521W        W29137  32.393  23.003  14.349
57522W        W29138   7.627  17.276   2.984
57523W        W29139  36.519  36.786  12.382
57524W        W29140  15.009  33.842   2.864
57525W        W29141  15.535  32.246  10.610
57526W        W29142  22.143  24.590   2.285
57527W        W29143  35.315  17.849   3.325
57528W        W29144  30.712  30.121   4.880
57529W        W29145   9.920  12.250  10.647
57530W        W29146  37.934  42.921   4.596
57531W        W29147  14.157   9.686   2.373
57532W        W29148  43.788   7.778   2.354
57533W        W29149  30.157   4.688  11.180
57534W        W29150  18.219  10.143   4.108
57535W        W29151  37.205  14.548   2.949
57536W        W29152   8.758  26.728   2.987
57537W        W29153  35.597  26.210   4.483
57538W        W29154  19.769  31.503  13.793
57539W        W29155  21.489  11.941  10.825
57540W        W29156  27.763  29.493  14.301
57541W        W29157  41.454  41.578  12.955
57542W        W29158  37.861  35.984  12.826
57543W        W29159   7.295  10.217  12.855
57544W        W29160  38.342  13.981   3.277
57545W        W29161  25.978  18.769   0.200
57546W        W29162  14.262  32.488  10.610
57547W        W29163  31.470  39.947   0.351
57548W        W29164   0.986  23.185   1.924
57549W        W29165   3.670  27.138   1.320
57550W        W29166  34.437  27.611  14.488
57551W        W29167  21.222   4.699   4.099
57552W        W29168   9.414  13.570  13.916
57553W        W29169  24.952   3.170   3.190
57554W        W29170  28.007  26.219   2.880
57555W        W29171   1.967  27.152   3.273
57556W        W29172  20.728  27.670   4.196
57557W        W29173  22.154  34.532  11.704
57558W        W29174  12.623  11.363  12.708
57559W        W29175   4.893  41.383   0.265
57560W        W29176   6.015  19.162   2.191
57561W        W29177  17.772  13.252  11.153
57562W        W29178   1.841  17.698   0.501
57563W        W29179   0.527  25.767  14.898
57564W        W29180  30.151  44.890  14.293
57565W        W29181  16.803  24.573  12.849
57566W        W29182  29.734   8.897   4.031
57567W        W29183  37.762  31.795   4.130
57568W        W29184  31.535   6.216  13.661
57569W        W29185  31.368   2.894  10.991
57570W        W29186  17.344  14.680   2.445
57571W        W29187   6.706   4.845   4.819
57572W        W29188  10.666   3.163   3.623
57573W        W29189  33.525  29.931  14.402
57574W        W29190   5.705   0.363   4.717
57575W        W29191  28.590   1.818   1.347
57576W        W29192  17.596   6.232   1.231
57577W        W29193  20.135  11.456  12.022
57578W        W29194   5.021  37.891  11.178
57579W        W29195  20.166  22.976   4.788
57580W        W29196  10.607   1.764   0.858
57581W        W29197  39.280  12.837  13.830
57582W        W29198   6.885   0.731  11.145
57583W        W29199   6.495  15.737   1.427
57584W        W29200  25.724  34.173   1.950
57585W        W29201  31.895  10.920  13.044
57586W        W29202  41.367  42.590  13.161
57587W        W29203  11.476  21.298  12.252
57588W        W29204   1.259   2.572  14.989
57589W        W29205  34.851  25.018   0.993
57590W        W29206  41.553   7.653  10.568
57591W        W29207  19.722  32.604   4.106
57592W        W29208   7.780  38.018  12.165
57593W        W29209  10.866   7.481   4.258
57594W        W29210   9.788  39.441  14.905
57595W        W29211   8.360  14.330  11.204
57596W        W29212   7.756  41.124   5.151
57597W        W29213  41.586  28.377   3.065
57598W        W29214  38.472  33.992   1.865
57599W        W29215  22.304  40.049  11.575
57600W        W29216  31.666  29.757  12.470
57601W        W29217  27.594  39.345   1.381
57602W        W29218  44.725  30.846  13.080
57603W        W29219  12.619  20.668  10.700
57604W        W29220  25.837   1.296  12.904
57605W        W29221   2.855  26.753  13.323
57606W        W29222  19.759  11.466  13.839
57607W        W29223  10.753  22.174  11.137
57608W        W29224   2.826  43.633  10.695
57609W        W29225  35.572  19.830  14.296
57610W        W29226   9.597  10.618   4.690
57611W        W29227  19.345  27.989   3.186
57612W        W29228  11.349  37.542   4.721
57613W        W29229   0.377  21.290  14.942
57614W        W29230  22.581  23.083   1.788
57615W        W29231  24.087  35.524   4.353
57616W        W29232  22.025  10.281   4.640
57617W        W29233  35.130  10.162   3.269
57618W        W29234  24.745  37.550   2.425
57619W        W29235  12.418  41.989  12.472
57620W        W29236  36.414  43.792   0.371
57621W        W29237  26.107  22.164  13.829
57622W        W29238   4.791  17.690  12.369
57623W        W29239  37.096  38.953   3.671
57624W        W29240   4.651   2.791   4.766
57625W        W29241  43.566   1.692  10.311
57626W        W29242   4.932  27.558  13.983
57627W        W29243  43.576  10.151  14.424
57628W        W29244  14.761  18.768   1.851
57629W        W29245  22.714  38.578   2.281
57630W        W29246  39.879  15.033  12.055
57631W        W29247  17.219  29.233  11.345
57632W        W29248  38.356   4.748   4.231
57633W        W29249  40.798  20.598   4.036
57634W        W29250   8.393  37.303   3.687
57635W        W29251  34.119  26.485  12.875
57636W        W29252   3.754  17.817  11.496
57637W        W29253  35.972  38.860   4.097
57638W        W29254  25.201  12.188  11.622
57639W        W29255   3.652  36.862  11.204
57640W        W29256  19.753  32.473  13.400
57641W        W29257  12.742  33.459  14.271
57642W        W29258   7.826  34.581   2.777
57643W        W29259  36.338  33.034  13.540
57644W        W29260  15.319  24.150   1.247
57645W        W29261  41.985  24.877   2.037
57646W        W29262  27.372  17.865   4.218
57647W        W29263  22.514  44.317   0.958
57648W        W29264  32.697   0.355   4.550
57649W        W29265  30.877  44.608   4.360
57650W        W29266  15.078  17.228  12.061
57651W        W29267   7.255  30.059   2.691
57652W        W29268   2.750  13.974  11.425
57653W        W29269  34.593   8.227  11.463
57654W        W29270  12.850  43.303   3.245
57655W        W29271  18.579  38.858   3.904
57656W        W29272  39.767   7.493   1.779
57657W        W29273   1.915  42.819  11.894
57658W        W29274  10.656  43.482  12.572
57659W        W29275  11.553   4.906   2.253
57660W        W29276  35.604  17.267  12.345
57661W        W29277  28.079  38.073   2.929
57662W        W29278   5.833   5.673  10.653
57663W        W29279   3.971  23.429   5.038
57664W        W29280   9.643  28.928   0.824
57665W        W29281  23.652  38.638   0.918
57666W        W29282  20.404  21.921   1.422
57667W        W29283  31.955  44.417  10.054
57668W        W29284  30.985  33.429   1.306
57669W        W29285  43.074  16.229  12.619
57670W        W29286  44.941  32.618   4.203
57671W        W29287  15.016  10.934   3.784
57672W        W29288  14.550  35.519   3.199
57673W        W29289  11.178  21.157  10.391
57674W        W29290  20.888  24.869  14.792
57675W        W29291  29.436  43.376  10.639
57676W        W29292  11.634  37.990  12.842
57677W        W29293  21.171  41.063   4.660
57678W        W29294  35.833  17.712   0.438
57679W        W29295  28.073  24.652   4.433
57680W        W29296  14.767  26.254  14.103
57681W        W29297   6.475  18.926   2.291
57682W        W29298  10.849   1.928   4.285
57683W        W29299  41.595  22.482  12.815
57684W        W29300  33.781  43.526  11.664
57685W        W29301  42.532  24.952  10.633
57686W        W29302  43.770  41.214   3.643
57687W        W29303  23.620  38.167  10.760
57688W        W29304   1.260  12.130   0.882
57689W        W29305  37.831  34.427   4.128
57690W        W29306  28.146  41.048  12.981
57691W        W29307  28.204   8.280  13.391
57692W        W29308  24.426  35.112  13.054
57693W        W29309  42.935  23.377  13.753
57694W        W29310  26.456  38.967  13.382
57695W        W29311  23.246   5.269  13.065
57696W        W29312  32.560  42.913   3.965
57697W        W29313  37.303  25.995  13.163
57698W        W29314  34.592  25.800   3.949
57699W        W29315  11.570   9.308   3.204
57700W        W29316  24.129  22.708   4.860
57701W        W29317  43.724  42.731   1.657
57702W        W29318  29.172   4.507   0.396
57703W        W29319  13.208   1.990  11.389
57704W        W29320   0.368   8.868  14.375
57705W        W29321  30.933  17.505  12.040
57706W        W29322   1.235  38.940   4.860
57707W        W29323   7.466  15.219  13.398
57708W        W29324  44.413  19.063  11.651
57709W        W29325   8.683  11.664   1.835
57710W        W29326  18.843  18.366   1.799
57711W        W29327   1.454  14.705   1.351
57712W        W29328  15.658  36.017   2.676
57713W        W29329  34.575   5.946   0.323
57714W        W29330   5.668  38.374  12.072
57715W        W29331  16.416   0.678   0.407
57716W        W29332  39.137  26.946   0.795
57717W        W29333  40.295  13.159   2.600
57718W        W29334  32.679   2.912  11.993
57719W        W29335  23.927  36.797   1.825
57720W        W29336  40.166  14.730   3.721
57721W        W29337  10.791  12.207   4.573
57722W        W29338   1.681  42.856  11.451
57723W        W29339   8.133  15.336  14.002
57724W        W29340   2.164  18.681  14.904
57725W        W29341  43.924   0.958  12.885
57726W        W29342  40.521  12.394   4.512
57727W        W29343  22.800  31.898  13.493
57728W        W29344  23.625  44.925  14.619
57729W        W29345  23.962  43.221   4.236
57730W        W29346   1.356  23.538  12.130
57731W        W29347   1.825  11.548   2.856
57732W        W29348  37.835   3.786   3.126
57733W        W29349   5.970  17.118   4.608
57734W        W29350   6.905  42.001   1.650
57735W        W29351  42.437  30.341   0.997
57736W        W29352   5.477  18.518  11.505
57737W        W29353  41.011  38.194   1.013
57738W        W29354  32.470  21.516  12.956
57739W        W29355  14.447   3.699   0.854
57740W        W29356  27.651  41.834   3.728
57741W        W29357   7.101  29.455  11.311
57742W        W29358   7.535   3.310  12.111
57743W        W29359  13.861  39.539  13.966
57744W        W29360  42.032  44.114  13.298
57745W        W29361  20.610  25.717   0.365
57746W        W29362  29.876  19.041  10.641
57747W        W29363  12.283   8.883   4.172
57748W        W29364  25.240  43.664  14.905
57749W        W29365   7.869   2.727  13.835
57750W        W29366  24.019  29.874   1.839
57751W        W29367  12.736   4.396   4.000
57752W        W29368   0.803   9.900  13.311
57753W        W29369  40.814   3.796   4.699
57754W        W29370  24.130   8.861  11.165
57755W        W29371  10.298  30.340   4.067
57756W        W29372  30.086   4.168  11.197
57757W        W29373  32.390  18.968   3.686
57758W        W29374  34.608  40.498  11.265
57759W        W29375   7.207  25.226   2.124
57760W        W29376  11.173  33.635   0.266
57761W        W29377  42.567  14.116  13.570
57762W        W29378  13.607  42.961   1.485
57763W        W29379   7.583  13.830  12.199
57764W        W29380  28.080  23.474   3.157
57765W        W29381  31.887   0.645   1.858
57766W        W29382  28.901  38.363  11.582
57767W        W29383   3.764  31.007   3.795
57768W        W29384  14.201  14.502  12.945
57769W        W29385  40.635   9.608   1.400
57770W        W29386   1.699   1.290  10.699
57771W        W29387  27.387   1.808   1.435
57772W        W29388  15.613  19.633   0.209
57773W        W29389  38.064  19.762   4.167
57774W        W29390  27.874  33.216   3.759
57775W        W29391  16.231  22.003   2.856
57776W        W29392  26.182  18.794  10.671
57777W        W29393   3.267  14.634  13.811
57778W        W29394  13.325  39.553   4.127
57779W        W29395  22.443  20.035  12.943
57780W        W29396   8.016   8.719  12.943
57781W        W29397   2.935   1.468  12.912
57782W        W29398  28.418  11.075  12.971
57783W        W29399  14.092  29.454  11.562
57784W        W29400  15.772  12.224  13.568
57785W        W29401   0.253  22.536   3.297
57786W        W29402  15.107   7.844  12.438
57787W        W29403  12.496   6.193   5.002
57788W        W29404  32.427  39.614  12.461
57789W        W29405  38.760  16.182  14.824
57790W        W29406  33.703  41.730   3.659
57791W        W29407   4.509  35.915  13.399
57792W        W29408  39.069  10.595   1.339
57793W        W29409  13.234   1.120  11.687
57794W        W29410  32.918  31.660   3.757
57795W        W29411   9.327  38.619   2.735
57796W        W29412  29.024   7.665  10.884
57797W        W29413  43.324  26.751  14.605
57798W        W29414  24.205  31.940  11.055
57799W        W29415  15.682  25.317  14.073
57800W        W29416  20.273  27.771   4.524
57801W        W29417  18.800  11.956   0.337
57802W        W29418  12.115  39.423   2.844
57803W        W29419  15.500  44.351   4.896
57804W        W29420   7.852   2.203   2.090
57805W        W29421  40.555   1.261  10.230
57806W        W29422  39.583  28.666  13.734
57807W        W29423  38.574  36.923  12.871
57808W        W29424  43.004  37.573   0.313
57809W        W29425   8.913  44.878   1.730
57810W        W29426   1.240  41.980  13.903
57811W        W29427   0.307   1.172  11.027
57812W        W29428  30.006  29.344  11.168
57813W        W29429  41.314  32.450  14.818
57814W        W29430  43.646  29.508   0.075
57815W        W29431  12.847  26.248  11.849
57816W        W29432  14.835  19.125   0.765
57817W        W29433  31.101  28.420  14.271
57818W        W29434  24.441  11.479  13.088
57819W        W29435  31.667  10.883   2.727
57820W        W29436  25.914   9.931   5.025
57821W        W29437  34.662  14.171   2.207
57822W        W29438  20.748  21.548  10.819
57823W        W29439  35.349  14.797  12.896
57824W        W29440  37.470  28.052  12.938
57825W        W29441   0.515  28.917   2.337
57826W        W29442  19.074  16.592  11.643
57827W        W29443  23.721  38.366   1.360
57828W        W29444  28.574  10.769  13.489
57829W        W29445   3.228   7.194   4.558
57830W        W29446  32.637   6.165  14.507
57831W        W29447   4.725  29.573   1.779
57832W        W29448   9.526   7.095  10.250
57833W        W29449  43.482   3.813   1.249
57834W        W29450  20.777   2.252   4.997
57835W        W29451  21.682   8.441   1.327
57836W        W29452   5.260   2.475  13.082
57837W        W29453  11.055  29.997   3.684
57838W        W29454  42.074  31.183   1.874
57839W        W29455  30.891  34.444  11.944
57840W        W29456   2.035  36.755   3.613
57841W        W29457  28.070  41.476  13.764
57842W        W29458  28.725  11.886   4.064
57843W        W29459   7.600  28.317  11.520
57844W        W29460  41.415  38.464  11.140
57845W        W29461   1.855   9.358   3.733
57846W        W29462  33.551   6.457  13.761
57847W        W29463   6.405  16.839  14.603
57848W        W29464  43.949  31.693  12.147
57849W        W29465  43.947  36.540  12.865
57850W        W29466  38.482  12.786  11.214
57851W        W29467  41.767  21.279   3.652
57852W        W29468  14.202  16.844   2.163
57853W        W29469  34.056   6.734   2.752
57854W        W29470   3.797  31.271  10.814
57855W        W29471  34.351  14.799   0.215
57856W        W29472  14.293  43.916  11.721
57857W        W29473   8.497  18.307   0.074
57858W        W29474  38.524  26.247   0.442
57859W        W29475  27.014   7.156   0.685
57860W        W29476   5.998  26.129   4.229
57861W        W29477   6.006  10.767  13.752
57862W        W29478  29.916  26.077   2.117
57863W        W29479  12.391   0.906  14.292
57864W        W29480  43.764  11.273  12.531
57865W        W29481  38.485   6.920  13.414
57866W        W29482  23.307   9.217  13.009
57867W        W29483  22.081  21.068   3.287
57868W        W29484  37.998  14.138   0.303
57869W        W29485  19.323   4.415  12.517
57870W        W29486  15.083  34.400  10.453
57871W        W29487  16.801  36.294   0.854
57872W        W29488  39.420  10.960  10.756
57873W        W29489   6.125  17.438   2.260
57874W        W29490  42.869  19.748  11.365
57875W        W29491  40.769  42.355  13.855
57876W        W29492  30.475   9.538  11.117
57877W        W29493  14.147   0.189  14.390
57878W        W29494  12.318  42.258   0.843
57879W        W29495   5.083   3.413   0.777
57880W        W29496  36.106  21.827   3.522
57881W        W29497  27.655   2.365  11.928
57882W        W29498  39.607   1.218  12.999
57883W        W29499  39.028  34.561  12.385
57884W        W29500  33.001   6.182   3.601
57885W        W29501  44.170  10.027   4.965
57886W        W29502  26.423  32.489   1.371
57887W        W29503  35.930  30.867  11.900
57888W        W29504  40.789  30.881  12.593
57889W        W29505  34.932  30.184  12.991
57890W        W29506  38.039   3.464   1.363
57891W        W29507  31.021  12.979  11.177
57892W        W29508   2.214  39.284  13.903
57893W        W29509  30.950  20.819   0.358
57894W        W29510  43.121  15.726  11.170
57895W        W29511  37.059   7.724  13.439
57896W        W29512  32.374   1.807   1.372
57897W        W29513  20.018  25.252   1.755
57898W        W29514   5.561  10.168  12.555
57899W        W29515   2.423  29.932   3.731
57900W        W29516   7.699  23.102  12.486
57901W        W29517  19.208  37.318   3.330
57902W        W29518  19.770   6.585  12.380
57903W        W29519  12.339   0.722  14.788
57904W        W29520  17.248  37.846   0.787
57905W        W29521   0.700  23.948   0.289
57906W        W29522  26.783  41.004  13.911
57907W        W29523   5.708  19.714   1.428
57908W        W29524   0.302   7.751  13.551
57909W        W29525   6.874  26.028   2.511
57910W        W29526  35.363  27.122  11.495
57911W        W29527  18.616  41.016  14.869
57912W        W29528  14.791  42.397   3.254
57913W        W29529  12.283  29.836   3.144
57914W        W29530  10.127  42.867  10.092
57915W        W29531  33.684  37.336   3.800
57916W        W29532  12.382  33.973  13.331
57917W        W29533  23.132  36.511   2.697
57918W        W29534  37.825   8.644  10.542
57919W        W29535  25.005   9.350  11.138
57920W        W29536  14.334  37.873  13.108
57921W        W29537   0.328  23.517   0.757
57922W        W29538   0.451  26.926   3.305
57923W        W29539  19.835  33.959   3.266
57924W        W29540  16.580   2.196   2.299
57925W        W29541  12.218  20.834  14.341
57926W        W29542  16.682  29.907  12.902
57927W        W29543   7.801  14.340   3.076
57928W        W29544  39.068  21.946  11.230
57929W        W29545  29.653   5.439   2.313
57930W        W29546  24.142  42.667   4.683
57931W        W29547  19.273  24.584  10.679
57932W        W29548   4.790  35.103  14.429
57933W        W29549  25.530   9.062  13.396
57934W        W29550  39.003   5.963  14.252
57935W        W29551  12.126   5.890   0.744
57936W        W29552  42.941   1.311  14.291
57937W        W29553  37.050  24.945   0.615
57938W        W29554  29.814  10.520  12.807
57939W        W29555  37.959  40.479  12.945
57940W        W29556  12.126  26.039  10.752
57941W        W29557   7.644  28.155  12.140
57942W        W29558  43.992  24.993  13.520
57943W        W29559  33.214  27.610  12.102
57944W        W29560  22.687  31.925  11.195
57945W        W29561  11.786  14.684  13.340
57946W        W29562  18.612  27.117   4.215
57947W        W29563   1.420  34.988   1.554
57948W        W29564  33.089  22.669   0.436
57949W        W29565  40.356   9.851   0.627
57950W        W29566  31.953  10.270   2.700
57951W        W29567  17.750  41.290  10.714
57952W        W29568  33.199   9.586   1.301
57953W        W29569  31.141   3.047   2.265
57954W        W29570  14.016  23.985   1.678
57955W        W29571   7.039  19.665   1.183
57956W        W29572  41.537  18.177   0.350
57957W        W29573   1.317  41.982   4.382
57958W        W29574   3.688   8.198  13.748
57959W        W29575  18.511  19.520  12.140
57960W        W29576   6.437  43.282  13.792
57961W        W29577  31.685  23.622  13.413
57962W        W29578  29.014  36.541  14.702
57963W        W29579  44.340  37.535   3.237
57964W        W29580  12.394  23.486  12.574
57965W        W29581  22.304  37.495  10.801
57966W        W29582   9.443  32.294  14.447
57967W        W29583   9.534   9.939  12.359
57968W        W29584  15.267  18.910  14.830
57969W        W29585  12.245  20.580  12.104
57970W        W29586   4.675  39.542  13.856
57971W        W29587  36.442  36.152  11.617
57972W        W29588  30.850  11.622  11.287
57973W        W29589   5.444  33.129   2.711
57974W        W29590   4.232  19.673   3.282
57975W        W29591   9.432  42.496  12.870
57976W        W29592  26.696  35.088  11.068
57977W        W29593   2.818  12.208  11.167
57978W        W29594  43.317  44.922   0.744
57979W        W29595  32.932   8.666   0.404
57980W        W29596  40.000  33.586  14.395
57981W        W29597   0.977  26.797   3.639
57982W        W29598   9.906  21.971  14.785
57983W        W29599  32.879  19.273  12.150
57984W        W29600  20.135  14.180  14.179
57985W        W29601  42.383   0.430  13.026
57986W        W29602  29.707   0.878   4.089
57987W        W29603  28.215   5.759   1.445
57988W        W29604  14.781  22.010  10.648
57989W        W29605   5.579  14.187  11.726
57990W        W29606  44.271   1.247   2.394
57991W        W29607  29.959   7.925  11.172
57992W        W29608  31.232   1.847   2.012
57993W        W29609   2.986  33.948  11.044
57994W        W29610   1.195   1.364   2.109
57995W        W29611  22.192  43.018   1.430
57996W        W29612   0.406  16.229   0.782
57997W        W29613  35.850  15.090  12.347
57998W        W29614  12.775  33.180  11.546
57999W        W29615   1.844  37.062   0.070
58000W        W29616  43.417   0.299   2.419
58001W        W29617  18.747  42.383  13.823
58002W        W29618  37.905  33.918  12.981
58003W        W29619  24.385   4.339   1.807
58004W        W29620  36.322   4.389   1.152
58005W        W29621  39.511  18.673  14.886
58006W        W29622  35.581   6.768  11.895
58007W        W29623  19.666  39.373  11.911
58008W        W29624  23.277  42.139   4.202
58009W        W29625  32.110  11.076  13.510
58010W        W29626  21.985  25.046   1.577
58011W        W29627  21.009   6.397   3.218
58012W        W29628  43.419   2.729   4.549
58013W        W29629   9.292  30.170  13.112
58014W        W29630  41.359   1.357   0.882
58015W        W29631  34.054  40.523  13.709
58016W        W29632  37.551  43.442  13.921
58017W        W29633   7.893   8.432   4.308
58018W        W29634  40.992  25.458  12.912
58019W        W29635  39.079  17.328  13.773
58020W        W29636   5.332  10.692  14.330
58021W        W29637  39.274  22.171  14.832
58022W        W29638  33.551  27.469  13.400
58023W        W29639  36.034  38.273  13.775
58024W        W29640  12.781  35.478  10.576
58025W        W29641   0.049  11.052  10.987
58026W        W29642  42.851  35.821  12.900
58027W        W29643  22.908  39.656  13.284
58028W        W29644  16.008  15.785  10.653
58029W        W29645  10.147  15.676   4.247
58030W        W29646   6.419  15.604  11.998
58031W        W29647  31.735  11.662   4.027
58032W        W29648  23.678  41.687  13.955
58033W        W29649  22.438  36.919   2.240
58034W        W29650  34.026   0.358  14.958
58035W        W29651  16.567  33.051   1.791
58036W        W29652   9.854  20.957  10.689
58037W        W29653  34.551  39.844  11.652
58038W        W29654   7.471  42.143   0.216
58039W        W29655  42.093   4.497  12.869
58040W        W29656  42.292  29.006  14.834
58041W        W29657  44.173  38.699   5.099
58042W        W29658  42.139  25.703  10.703
58043W        W29659  16.328  33.399   2.150
58044W        W29660   0.972  35.620  14.977
58045W        W29661  38.477  27.491   3.095
58046W        W29662   3.470  20.687  10.495
58047W        W29663   0.051  13.245   2.319
58048W        W29664  41.296  21.446  14.620
58049W        W29665  14.310  34.245  10.332
58050W        W29666   8.113  15.593  14.471
58051W        W29667  31.054  42.745   4.250
58052W        W29668  21.512   1.877  10.491
58053W        W29669   3.874   9.791  13.834
58054W        W29670  32.656  22.225  13.038
58055W        W29671  23.936  24.691   1.796
58056W        W29672  11.294  13.360  13.392
58057W        W29673  14.492  36.035  13.374
58058W        W29674  14.641   1.308  13.877
58059W        W29675  23.174  27.683   4.572
58060W        W29676  15.228  22.004   2.755
58061W        W29677  23.915  32.614   3.137
58062W        W29678  27.211  30.251  13.839
58063W        W29679  33.687  42.959  13.915
58064W        W29680  21.732  26.897  12.789
58065W        W29681   2.440  37.842  13.996
58066W        W29682   9.258  15.635  12.870
58067W        W29683  32.416   8.297  11.077
58068W        W29684  42.015  16.958   3.705
58069W        W29685  18.489  25.488   0.445
58070W        W29686  20.688   4.963   4.606
58071W        W29687  24.043  40.398   3.881
58072W        W29688  34.352  20.022  14.906
58073W        W29689   8.443  26.649  14.372
58074W        W29690  36.047   5.337  12.826
58075W        W29691  41.603  30.509  11.667
58076W        W29692  25.739  37.501   2.198
58077W        W29693  37.186  40.883  14.426
58078W        W29694  42.016  27.688   4.142
58079W        W29695  10.157  30.036  12.898
58080W        W29696  23.115  28.736   0.200
58081W        W29697  34.647   0.035   1.674
58082W        W29698  42.883  42.249   2.568
58083W        W29699  11.708   8.423  10.704
58084W        W29700  27.590   3.318  14.796
58085W        W29701  14.939   1.884  11.578
58086W        W29702  18.188   4.330   4.665
58087W        W29703  12.803  30.575  11.567
58088W        W29704  26.546   0.535  11.640
58089W        W29705  39.309  43.000   4.373
58090W        W29706   9.580  13.934  12.107
58091W        W29707  10.310   0.062  11.946
58092W        W29708  21.723  24.705   4.666
58093W        W29709  25.140  16.267  14.779
58094W        W29710  24.944  28.960  14.379
58095W        W29711  31.852   8.312   0.301
58096W        W29712  16.028  12.684   3.170
58097W        W29713  31.334  18.192   1.777
58098W        W29714   8.093  41.556   3.122
58099W        W29715  12.085  16.235   2.088
58100W        W29716   1.382   9.841   4.129
58101W        W29717   7.834   1.010   3.631
58102W        W29718  21.778  19.739   5.059
58103W        W29719  22.423   8.347   1.920
58104W        W29720   2.250  33.825  14.895
58105W        W29721  31.173   9.037  10.849
58106W        W29722  25.648  32.291   2.867
58107W        W29723  37.816   5.726  14.495
58108W        W29724  44.296  24.159   4.427
58109W        W29725  18.034  39.023  13.574
58110W        W29726  43.430  19.486   5.168
58111W        W29727  28.244  26.826  10.848
58112W        W29728  43.228  21.822  10.516
58113W        W29729  39.103  20.767   2.837
58114W        W29730  16.223  17.616  13.527
58115W        W29731  13.869  18.409  13.911
58116W        W29732  12.041  37.164   4.213
58117W        W29733   4.184  36.518  13.056
58118W        W29734   1.200  17.798  11.546
58119W        W29735  21.735  44.376  11.576
58120W        W29736  36.749  38.266  14.939
58121W        W29737   8.399  28.540  14.990
58122W        W29738  12.138  28.866  12.886
58123W        W29739   5.836   9.229  11.489
58124W        W29740  20.583  26.505   2.160
58125W        W29741  38.938  34.694   1.925
58126W        W29742   2.646   1.716   1.327
58127W        W29743  27.619  22.082  14.988
58128W        W29744  15.545  22.514  13.521
58129W        W29745   4.723   0.947  12.573
58130W        W29746  31.490  28.043  12.684
58131W        W29747  38.955  31.872  14.854
58132W        W29748  18.934  41.967   0.779
58133W        W29749  41.324  24.972  11.302
58134W        W29750  43.964  35.819  14.855
58135W        W29751   8.524  28.216   1.397
58136W        W29752   1.795  26.226  11.085
58137W        W29753   3.034   5.594  14.867
58138W        W29754  18.147   2.810  10.774
58139W        W29755   7.979   9.133  13.312
58140W        W29756  36.790   7.310  13.262
58141W        W29757  25.370  36.741   1.751
58142W        W29758   3.429  17.064  14.028
58143W        W29759  30.910  19.633   1.744
58144W        W29760   1.680  33.524  10.708
58145W        W29761   3.466  34.324   4.185
58146W        W29762  36.207  39.571  13.618
58147W        W29763  16.138  36.169   3.160
58148W        W29764  20.991  33.873  12.501
58149W        W29765  38.500  18.619   3.320
58150W        W29766   5.767   9.200   0.162
58151W        W29767  16.169  44.841  11.994
58152W        W29768  34.951  36.248  14.895
58153W        W29769  13.734  22.034   4.530
58154W        W29770  39.921  36.829  13.273
58155W        W29771  27.503  17.079  12.458
58156W        W29772   7.403  42.396   2.197
58157W        W29773  24.211  24.472  11.460
58158W        W29774  10.678  29.981  13.457
58159W        W29775  12.211   8.587  10.740
58160W        W29776  23.542  44.881   1.709
58161W        W29777  28.464  42.041   4.070
58162W        W29778  42.395  16.568   1.390
58163W        W29779  11.233  20.942   1.871
58164W        W29780   5.945  28.073   0.500
58165W        W29781  43.401  27.519   1.778
58166W        W29782  41.205  30.163  13.474
58167W        W29783  13.751   8.280  12.122
58168W        W29784  40.059  27.639  12.560
58169W        W29785  44.901  24.086  10.329
58170W        W29786  28.718  34.783  11.120
58171W        W29787  15.442  35.871  12.915
58172W        W29788  42.439  12.307  13.020
58173W        W29789  36.917  39.476   0.039
58174W        W29790  38.948  23.606   4.636
58175W        W29791  44.003  11.562  13.492
58176W        W29792  37.405  26.373  13.614
58177W        W29793  32.845  43.169   3.313
58178W        W29794   7.537  10.348  13.258
58179W        W29795  41.271  11.265  11.640
58180W        W29796   1.216  30.905  13.986
58181W        W29797  31.216  15.586   4.580
58182W        W29798  42.091  11.651  14.445
58183W        W29799  19.218  11.106  12.075
58184W        W29800  36.332  30.292   3.405
58185W        W29801  24.983  44.429   4.272
58186W        W29802  42.488  37.818  11.548
58187W        W29803   6.236   2.497  12.838
58188W        W29804  10.909  39.822  11.360
58189W        W29805   6.149  33.010  11.105
58190W        W29806   1.881  42.276  13.956
58191W        W29807  33.541  10.561  12.065
58192W        W29808  26.735   8.465  14.003
58193W        W29809  16.712  14.098  10.459
58194W        W29810   8.620  17.562  10.896
58195W        W29811  17.646  34.907  14.475
58196W        W29812  12.103  39.811   1.700
58197W        W29813  24.457  36.593  13.972
58198W        W29814   9.636  41.000  10.360
58199W        W29815   3.860  20.546   1.359
58200W        W29816  36.766   5.254   2.905
58201W        W29817  12.851   0.290  11.038
58202W        W29818  32.142  15.728   2.325
58203W        W29819  42.940  34.636  10.031
58204W        W29820  35.837   7.807   3.641
58205W        W29821  32.036  38.100   4.089
58206W        W29822  23.157  40.478   0.453
58207W        W29823   9.660  25.554   4.760
58208W        W29824  15.352   5.812   1.392
58209W        W29825  25.474   0.189   4.818
58210W        W29826  21.603  44.209  12.902
58211W        W29827  11.209  18.627   0.824
58212W        W29828   5.866  38.603  11.639
58213W        W29829   3.467  22.452  14.412
58214W        W29830  11.714  28.035  12.150
58215W        W29831  17.649  31.234  13.570
58216W        W29832  35.142   0.865  12.526
58217W        W29833  32.074  21.803  14.401
58218W        W29834   3.761  23.813   1.016
58219W        W29835  43.461  28.911   3.114
58220W        W29836   3.518  11.280   4.753
58221W        W29837  38.831  30.560  12.946
58222W        W29838  18.318  32.163   2.424
58223W        W29839   5.330   7.196   3.666
58224W        W29840  18.591  20.289   1.774
58225W        W29841   3.836   6.696   4.598
58226W        W29842  10.420  33.195   0.887
58227W        W29843   1.544  14.772   2.739
58228W        W29844   5.356   4.883   0.874
58229W        W29845   6.890  44.911   4.135
58230W        W29846   8.755  22.806   3.592
58231W        W29847  36.102  41.967   1.270
58232W        W29848  21.625   9.571  12.602
58233W        W29849  37.936  23.569   0.110
58234W        W29850  29.886   1.433   2.286
58235W        W29851  38.952  31.941  12.594
58236W        W29852  33.018  20.174  12.108
58237W        W29853  36.082  41.965  12.075
58238W        W29854   9.669  42.587  11.554
58239W        W29855  14.226  30.967  14.155
58240W        W29856  31.445  12.466  11.487
58241W        W29857   7.894  25.411   2.706
58242W        W29858  38.397   6.736  14.605
58243W        W29859   7.940  26.617   1.262
58244W        W29860  21.004   6.320  13.630
58245W        W29861  31.181  24.717  10.529
58246W        W29862  44.055  35.188  13.054
58247W        W29863   2.260   9.430   2.794
58248W        W29864  10.058   2.658   0.794
58249W        W29865  14.800  32.020   0.059
58250W        W29866  37.406   8.104  13.506
58251W        W29867  32.103  16.512   1.455
58252W        W29868  37.045  13.259   3.336
58253W        W29869  31.624   8.845   4.783
58254W        W29870  41.274  40.304   4.356
58255W        W29871   3.625  34.456   3.678
58256W        W29872  35.582  24.649   3.602
58257W        W29873  12.101   5.212   4.320
58258W        W29874  43.502  29.876  14.346
58259W        W29875  15.862   3.879   0.019
58260W        W29876  38.073  12.775  10.234
58261W        W29877  34.455  40.184   0.922
58262W        W29878  44.809  31.058  11.303
58263W        W29879   8.227  31.495   3.716
58264W        W29880  40.454  32.398   0.217
58265W        W29881  14.325  25.122  11.721
58266W        W29882  11.299  25.601   3.339
58267W        W29883  39.019  28.961  14.907
58268W        W29884  20.773  16.643  12.622
58269W        W29885   2.676  25.036  12.415
58270W        W29886   1.182   0.007  11.967
58271W        W29887   2.778  24.784  14.862
58272W        W29888  27.880  12.142  13.973
58273W        W29889   1.681  16.785   3.800
58274W        W29890   2.600   6.948  11.570
58275W        W29891  17.782  19.524   4.167
58276W        W29892  12.272  17.159  13.813
58277W        W29893  10.158  25.216   2.250
58278W        W29894  34.172  39.465   0.051
58279W        W29895  33.366  32.600   4.382
58280W        W29896   4.323  42.479   4.560
58281W        W29897  24.269   1.948  14.100
58282W        W29898   7.757  36.541   1.747
58283W        W29899  28.254  26.658   9.786
58284W        W29900  23.081   3.365  11.725
58285W        W29901  14.716  32.021   2.790
58286W        W29902  17.099  31.516  13.719
58287W        W29903  29.169  38.837  10.763
58288W        W29904  43.368  29.531  12.438
58289W        W29905  16.484  43.782  12.572
58290W        W29906  13.165   3.247   0.319
58291W        W29907  13.848  43.539  11.496
58292W        W29908   7.715  12.698   2.661
58293W        W29909   4.531  37.881  10.971
58294W        W29910  21.770  10.586  12.052
58295W        W29911  16.258  17.876   0.834
58296W        W29912  43.739   8.789   2.337
58297W        W29913   0.711  33.036  12.877
58298W        W29914  40.120  17.616   2.127
58299W        W29915  17.865  35.064  14.916
58300W        W29916  16.238  26.590   5.006
58301W        W29917   0.784  41.512  11.975
58302W        W29918  26.422  28.493  14.819
58303W        W29919  29.589   2.311   0.637
58304W        W29920  34.859   5.155   3.630
58305W        W29921  27.693  27.500   4.921
58306W        W29922  17.113   6.641  14.252
58307W        W29923  25.300  31.665  10.382
58308W        W29924  25.336  16.039  13.214
58309W        W29925   2.988  39.987  12.009
58310W        W29926  43.829  30.544   2.717
58311W        W29927  16.744  30.103  10.935
58312W        W29928  40.895  26.486  10.140
58313W        W29929   6.882  24.168  12.204
58314W        W29930  10.238  26.152   4.375
58315W        W29931  37.939   0.339  14.034
58316W        W29932  15.237   8.825   4.190
58317W        W29933   8.188  14.353   4.707
58318W        W29934  13.236  21.267   4.103
58319W        W29935  41.068  11.642  13.498
58320W        W29936  14.298  26.796  11.119
58321W        W29937  44.250  24.247   3.905
58322W        W29938  43.899  13.038   4.152
58323W        W29939   4.794  30.599  13.627
58324W        W29940   5.017   3.037  12.021
58325W        W29941  20.263  34.623   4.312
58326W        W29942  36.533  30.055   4.741
58327W        W29943  38.579  31.869  10.123
58328W        W29944   7.336  20.515   4.620
58329W        W29945  39.560  26.630   1.868
58330W        W29946   3.653  12.679   0.076
58331W        W29947  44.335   9.219   4.562
58332W        W29948   9.273  17.760  13.449
58333W        W29949  27.221  28.577  10.989
58334W        W29950  39.461   2.906   0.223
58335W        W29951  27.117  25.275   4.699
58336W        W29952  18.756  26.730  13.918
58337W        W29953  41.525  25.223  12.079
58338W        W29954  23.064  19.227   4.057
58339W        W29955  39.578   4.465  12.479
58340W        W29956   4.349  27.075   2.332
58341W        W29957  31.145  38.656  13.995
58342W        W29958  27.172  37.973  11.704
58343W        W29959   1.886  23.264  11.467
58344W        W29960  41.661  21.085   1.003
58345W        W29961  28.404   4.975   4.182
58346W        W29962   2.856   0.630  13.351
58347W        W29963  22.853  35.545  12.844
58348W        W29964  30.979  17.298   3.205
58349W        W29965   5.841  17.933  13.410
58350W        W29966  14.313  12.027  14.471
58351W        W29967  22.543   7.291   0.225
58352W        W29968   5.659  41.325  14.523
58353W        W29969  41.309  28.102   3.793
58354W        W29970  32.548  13.764   0.264
58355W        W29971  39.601  15.605   3.646
58356W        W29972  35.989   2.280   1.363
58357W        W29973  41.932  10.148   3.159
58358W        W29974   4.994  28.612  11.662
58359W        W29975  38.278  30.856   2.722
58360W        W29976  14.757  41.529  10.498
58361W        W29977  23.243   7.482  13.853
58362W        W29978  30.049  34.498   2.589
58363W        W29979  35.830  11.644   4.981
58364W        W29980  34.133   4.022  13.937
58365W        W29981   3.283  11.104  11.489
58366W        W29982   4.519  26.610  13.773
58367W        W29983  31.638  10.269   3.171
58368W        W29984  42.901   8.780   4.380
58369W        W29985   5.617  26.487   2.874
58370W        W29986  42.568  31.953   0.560
58371W        W29987  40.018  27.382   3.315
58372W        W29988  35.815   6.819   2.872
58373W        W29989  11.291   2.685  14.479
58374W        W29990  37.020  41.283  13.536
58375W        W29991  15.213   8.152  12.012
58376W        W29992  39.925  43.608   2.632
58377W        W29993  33.301  22.683   2.397
58378W        W29994   2.684   3.817   3.878
58379W        W29995  41.566  42.965   1.432
58380W        W29996  23.825   1.291   0.571
58381W        W29997  23.040  21.263   4.212
58382W        W29998  16.922   4.270  14.245
58383W        W29999   1.976  26.163   0.874
58384W        W30000   1.347   4.244   1.316
58385W        W30001   8.806  38.071  11.892
58386W        W30002  13.096  22.107  14.872
58387W        W30003   2.739   4.637  12.381
58388W        W30004   2.462  27.587   1.438
58389W        W30005  36.100   1.432  11.423
58390W        W30006  11.147  26.371   4.106
58391W        W30007  25.821   7.860   0.706
58392W        W30008  20.620   2.331  14.276
58393W        W30009  30.193  26.977  10.277
58394W        W30010   2.953  28.465  12.539
58395W        W30011  15.576  14.380  12.030
58396W        W30012  17.190   1.272  11.885
58397W        W30013  32.887  24.290  11.892
58398W        W30014  31.569  37.536   2.338
58399W        W30015  43.821  12.998  13.447
58400W        W30016  18.289  41.483   3.897
58401W        W30017  28.101   5.620  13.435
58402W        W30018  38.977  29.171   3.098
58403W        W30019  11.197  33.988  12.450
58404W        W30020  23.687   5.785   0.477
58405W        W30021  16.646   9.872   1.460
58406W        W30022  15.849  44.965  12.419
58407W        W30023   5.792  43.459   4.437
58408W        W30024   5.051  24.140   4.516
58409W        W30025  36.223  12.820  14.790
58410W        W30026  44.149  26.530  13.508
58411W        W30027  31.862  16.246  11.226
58412W        W30028  12.991  38.969  13.537
58413W        W30029  17.175  38.731  12.941
58414W        W30030   8.403   5.333   2.761
58415W        W30031  35.106  35.281  14.919
58416W        W30032  22.528  17.419  11.442
58417W        W30033   3.500  17.087  14.561
58418W        W30034   9.249  33.345   1.772
58419W        W30035  23.032   3.271  12.410
58420W        W30036   9.307  17.210  14.555
58421W        W30037  12.902  42.284   3.219
58422W        W30038   8.356  12.695   0.736
58423W        W30039   0.672  28.857  11.306
58424W        W30040  42.541  11.830  13.946
58425W        W30041  43.272  28.196   0.522
58426W        W30042  40.378  22.437   0.815
58427W        W30043   8.635  39.550   4.416
58428W        W30044   8.674  39.874   0.940
58429W        W30045  24.208  20.749   0.388
58430W        W30046  36.344  31.130  14.992
58431W        W30047  20.367  28.573   0.456
58432W        W30048  31.402  25.049  12.354
58433W        W30049  20.080  40.781  11.968
58434W        W30050  40.321  41.842   3.238
58435W        W30051   7.248  31.979  12.852
58436W        W30052  16.586  42.301  14.460
58437W        W30053  11.257  42.369   2.437
58438W        W30054  40.858  16.018  11.099
58439W        W30055  34.647   0.978  12.313
58440W        W30056  14.199  26.096   4.572
58441W        W30057  15.841  13.734  14.537
58442W        W30058  14.142  44.575   4.124
58443W        W30059  10.583   0.449   0.319
58444W        W30060  15.045  28.169  12.131
58445W        W30061  12.770   2.337   0.241
58446W        W30062  17.714  33.940  12.449
58447W        W30063  24.316  35.930   1.361
58448W        W30064  39.852   7.150   4.659
58449W        W30065  16.987  24.724  14.939
58450W        W30066  27.383   0.516  11.186
58451W        W30067  40.532  27.137   2.139
58452W        W30068  12.700  28.840  13.708
58453W        W30069  18.097  31.561   0.933
58454W        W30070  42.881  23.267   4.557
58455W        W30071  29.958  27.626   0.341
58456W        W30072  13.684  39.450   3.721
58457W        W30073   2.402  38.795  13.987
58458W        W30074  19.174  27.999   4.482
58459W        W30075  39.535  17.052  13.549
58460W        W30076   5.932  43.393  12.494
58461W        W30077   0.700  18.644   0.296
58462W        W30078   1.994  14.745  12.124
58463W        W30079  35.862  33.076   1.658
58464W        W30080  12.274   7.819   1.154
58465W        W30081  23.530  26.453   1.704
58466W        W30082  37.122  18.515   3.632
58467W        W30083  11.795  18.103   0.351
58468W        W30084  35.117  43.888  11.412
58469W        W30085  20.404   0.783   4.248
58470W        W30086  38.667  30.184   0.338
58471W        W30087   4.269   2.744   0.792
58472W        W30088   0.368  41.006   1.456
58473W        W30089   5.812   7.325   2.327
58474W        W30090  27.116  12.356   4.576
58475W        W30091  28.276  32.145  11.443
58476W        W30092  16.281   7.735  11.815
58477W        W30093  12.641   4.888   1.374
58478W        W30094  31.450  17.763  12.007
58479W        W30095  29.035  23.583   2.808
58480W        W30096  31.979   3.243   0.804
58481W        W30097  19.539  12.188   3.252
58482W        W30098  27.741  28.669   1.809
58483W        W30099  40.199  40.931  14.989
58484W        W30100  24.807  18.679  11.331
58485W        W30101   5.498  37.816  11.371
58486W        W30102  32.129  16.447  11.633
58487W        W30103  14.498  34.825  13.894
58488W        W30104  37.944   9.150   2.697
58489W        W30105  40.934  33.146  10.653
58490W        W30106  29.069  15.403  12.844
58491W        W30107  24.492  25.033  10.703
58492W        W30108  28.766  33.361  10.710
58493W        W30109  17.342   9.163  10.601
58494W        W30110  17.813   0.577   4.559
58495W        W30111  23.185  23.911  12.200
58496W        W30112   4.989   5.847   3.585
58497W        W30113  32.942  23.702   1.536
58498W        W30114  16.115  14.392   0.313
58499W        W30115  21.530  24.918  12.013
58500W        W30116  20.633   8.652  10.747
58501W        W30117  32.419  18.923   4.739
58502W        W30118  44.181  43.462   2.834
58503W        W30119  36.890  11.730  10.904
58504W        W30120   3.513   0.320  12.402
58505W        W30121   0.008  27.704  13.929
58506W        W30122  35.515  42.252   0.362
58507W        W30123  15.198   4.493   9.851
58508W        W30124  27.794  35.496   3.141
58509W        W30125  16.714  26.903  11.630
58510W        W30126   9.454  43.534   3.526
58511W        W30127   5.625  40.488  14.795
58512W        W30128  36.593  29.666  13.424
58513W        W30129  44.488  12.710  10.582
58514W        W30130  41.654  25.567  10.728
58515W        W30131   1.119  24.034   5.244
58516W        W30132  24.097  39.813   2.662
58517W        W30133  11.032  17.327   2.882
58518W        W30134  24.567   4.377   3.528
58519W        W30135  44.458  27.622   2.749
58520W        W30136  37.592  18.451   3.837
58521W        W30137  29.955  28.131   0.738
58522W        W30138  37.376  25.163  14.439
58523W        W30139  23.350  29.304   1.571
58524W        W30140  11.913  26.072  14.384
58525W        W30141   1.527  10.301  14.343
58526W        W30142   1.920  25.454  12.290
58527W        W30143  37.991  21.693   0.828
58528W        W30144  40.086  10.173  10.604
58529W        W30145  42.429  20.757   1.502
58530W        W30146   5.288  41.080   4.827
58531W        W30147  29.395  32.562   4.039
58532W        W30148  44.921  29.229  11.913
58533W        W30149  23.004  25.970   2.726
58534W        W30150  31.513  25.698  10.993
58535W        W30151  14.044  42.304  13.971
58536W        W30152  19.282   5.808  14.662
58537W        W30153   1.894  12.206   0.016
58538W        W30154   6.107   5.158  14.227
58539W        W30155  12.708   7.829  13.767
58540W        W30156  41.138   1.649  14.437
58541W        W30157  33.355  43.893   9.847
58542W        W30158   6.786  10.395  12.913
58543W        W30159  28.469  42.914   3.801
58544W        W30160  41.882  26.004   2.000
58545W        W30161   5.845   3.981  13.091
58546W        W30162  41.389  42.000  11.278
58547W        W30163  16.550  18.062   4.234
58548W        W30164  25.602   9.867  10.665
58549W        W30165  32.707  16.985   2.030
58550W        W30166   8.123  12.771   0.257
58551W        W30167  29.445  10.277  11.586
58552W        W30168  36.081  22.065   3.987
58553W        W30169  11.818   6.000  10.869
58554W        W30170   4.951  24.420   0.409
58555W        W30171  22.603  19.278   5.023
58556W        W30172  31.679   2.190  14.335
58557W        W30173  32.988  44.899  11.759
58558W        W30174  12.350   8.636  11.991
58559W        W30175  14.811   7.428  11.643
58560W        W30176  15.144  24.019  11.225
58561W        W30177   9.101  43.264   3.185
58562W        W30178  29.975  44.017   1.083
58563W        W30179  32.675  37.868  12.033
58564W        W30180  34.052  10.332  14.325
58565W        W30181  34.041  25.244   3.343
58566W        W30182  15.105  30.145  14.453
58567W        W30183  26.521  22.035  12.525
58568W        W30184  13.908  12.561  12.881
58569W        W30185  43.808  35.039  13.526
58570W        W30186  34.645   4.024  13.929
58571W        W30187  31.778  42.372  10.683
58572W        W30188  33.952  43.569  12.687
58573W        W30189  26.566  15.205   3.904
58574W        W30190  44.895  28.718  14.283
58575W        W30191  35.947  40.306   4.590
58576W        W30192  18.763  23.433   2.259
58577W        W30193  19.730  21.822  14.296
58578W        W30194  29.732  23.139  14.315
58579W        W30195  20.489  16.697  13.104
58580W        W30196   7.996  26.457  14.215
58581W        W30197  11.182  36.937  14.789
58582W        W30198   3.862  42.379   0.800
58583W        W30199  11.207  19.242  14.896
58584W        W30200  21.611  20.191  12.178
58585W        W30201  23.513   4.642   1.732
58586W        W30202   6.899  18.008  10.687
58587W        W30203   0.618   9.822   0.910
58588W        W30204  29.589  35.329  14.593
58589W        W30205   4.929  17.173  11.159
58590W        W30206  19.799  29.565   0.284
58591W        W30207  16.976  31.212   0.309
58592W        W30208   3.922  44.373   4.962
58593W        W30209  12.729  22.010   3.753
58594W        W30210  29.013  39.432  12.785
58595W        W30211  31.028  13.641   2.860
58596W        W30212  15.629  17.794   1.497
58597W        W30213  34.485  43.031   0.915
58598W        W30214  16.540  38.279   0.371
58599W        W30215   9.583   2.015  13.086
58600W        W30216  11.223   5.814  12.115
58601W        W30217  40.425  26.306   9.980
58602W        W30218  11.859  31.021   0.505
58603W        W30219  42.464   8.097   3.742
58604W        W30220  17.767  17.680   5.179
58605W        W30221  25.584  24.477  13.775
58606W        W30222  36.099   9.019   1.253
58607W        W30223  32.889  27.744  11.267
58608W        W30224   2.207  37.372  12.483
58609W        W30225   6.102   0.332   0.934
58610W        W30226  27.206  25.046  13.836
58611W        W30227  18.002  35.213   4.066
58612W        W30228   3.863  23.487  12.906
58613W        W30229  38.182  20.432   2.681
58614W        W30230  14.117  43.462   2.780
58615W        W30231  35.909   1.950  13.888
58616W        W30232  17.175  36.182   2.836
58617W        W30233  20.721  37.556   2.202
58618W        W30234  40.291  31.008  12.499
58619W        W30235  12.742  42.350  12.666
58620W        W30236  26.988  16.864   0.442
58621W        W30237  15.186  13.595  13.939
58622W        W30238  18.146  14.784  10.614
58623W        W30239  18.275  37.495  10.782
58624W        W30240   9.315  36.333  10.588
58625W        W30241  13.677  40.351   3.706
58626W        W30242  42.763  36.320  13.062
58627W        W30243   2.219  28.698  14.834
58628W        W30244   9.895   3.410   3.882
58629W        W30245  12.926   9.245  14.547
58630W        W30246  30.051  31.109  11.296
58631W        W30247  14.372  21.987  14.991
58632W        W30248   9.307   4.868   2.916
58633W        W30249   7.683  29.481   0.570
58634W        W30250   1.310  17.459  12.926
58635W        W30251  44.377  22.731   0.004
58636W        W30252  17.286  18.160   1.953
58637W        W30253   3.210  28.476   0.002
58638W        W30254  22.642  10.757   4.165
58639W        W30255   7.728  25.053  13.664
58640W        W30256  31.611  18.761   4.170
58641W        W30257  11.714  18.775   0.948
58642W        W30258   6.747   8.716   5.041
58643W        W30259  18.222  14.814  12.899
58644W        W30260  40.112  22.505  11.568
58645W        W30261   1.678   1.731  11.021
58646W        W30262  43.965  12.729   4.592
58647W        W30263  27.414  11.560  11.909
58648W        W30264  28.405  44.065   0.427
58649W        W30265  38.971   6.115   0.582
58650W        W30266  20.141  41.409  12.295
58651W        W30267  44.904   8.116   0.945
58652W        W30268  31.148  29.389   4.594
58653W        W30269   9.826  28.544   4.555
58654W        W30270  44.375  26.714   1.654
58655W        W30271  31.110  33.993  12.053
58656W        W30272  32.365  15.659  12.052
58657W        W30273  38.022  10.113  12.468
58658W        W30274  14.748  39.213   3.714
58659W        W30275  21.909  23.989   0.072
58660W        W30276  23.082  32.641   0.910
58661W        W30277  35.316   0.908   2.186
58662W        W30278   1.283  32.795  14.754
58663W        W30279  30.835  17.274  11.158
58664W        W30280  42.007  36.234  14.057
58665W        W30281  40.877  23.978   4.577
58666W        W30282  24.894  19.098  11.038
58667W        W30283  16.627  18.587   1.380
58668W        W30284  40.159  35.766  11.515
58669W        W30285  12.771  39.032   0.317
58670W        W30286   0.963  43.379  13.463
58671W        W30287  43.858  42.994  13.010
58672W        W30288  14.202  33.689   3.739
58673W        W30289  44.446  20.192  12.090
58674W        W30290  38.470  25.779  10.750
58675W        W30291  30.590  26.249  11.646
58676W        W30292  32.683   7.718  14.690
58677W        W30293  20.209  35.663  13.803
58678W        W30294   2.150   2.004  10.177
58679W        W30295  37.518  44.437   1.853
58680W        W30296  14.175  31.622   0.281
58681W        W30297   2.389  12.079  14.095
58682W        W30298  17.856  11.487   0.331
58683W        W30299  32.805  10.859  10.567
58684W        W30300  25.669  35.014  10.980
58685W        W30301  40.998  31.458   3.785
58686W        W30302   5.168   8.148  14.292
58687W        W30303   9.338  25.136   4.744
58688W        W30304  27.608  16.772  13.835
58689W        W30305  37.059  18.911  11.518
58690W        W30306  32.861  38.191   2.215
58691W        W30307   4.720  18.129  11.460
58692W        W30308  22.208  14.779   0.718
58693W        W30309  32.140  19.842   4.926
58694W        W30310  29.458  36.387  14.372
58695W        W30311   9.093  32.199   2.242
58696W        W30312   9.343  34.171   1.182
58697W        W30313  15.479  37.148   4.659
58698W        W30314   1.280   3.451  14.440
58699W        W30315  41.142   1.909   3.422
58700W        W30316  34.074  13.931   4.309
58701W        W30317  33.926  19.198  12.095
58702W        W30318  31.766  14.560  14.766
58703W        W30319   5.006  18.557  12.473
58704W        W30320  39.695   9.103  11.411
58705W        W30321  39.746   0.927   2.809
58706W        W30322   5.011  37.982  10.691
58707W        W30323   0.613  20.071   2.308
58708W        W30324  28.720  23.946  14.257
58709W        W30325  37.319   7.553  14.401
58710W        W30326  41.822  32.486   1.336
58711W        W30327  15.301  21.991  10.659
58712W        W30328  30.477   7.876  13.437
58713W        W30329  31.234  43.257  12.398
58714W        W30330  18.676  23.247   1.773
58715W        W30331  25.152  32.823  13.879
58716W        W30332  21.278  36.730  14.852
58717W        W30333  15.324  19.731   4.641
58718W        W30334  11.505   7.852  12.371
58719W        W30335   2.428  12.617  13.494
58720W        W30336  25.750  20.249   0.784
58721W        W30337   4.841   0.452  12.382
58722W        W30338  33.481  17.830   3.285
58723W        W30339  35.376   2.908  11.091
58724W        W30340   1.720  44.450  11.564
58725W        W30341  32.210  29.751  11.098
58726W        W30342  15.297  39.319   3.279
58727W        W30343  35.773  11.793  13.473
58728W        W30344  17.173  36.546  14.226
58729W        W30345  42.879   1.884   0.282
58730W        W30346   2.079  37.156  13.371
58731W        W30347  37.885  13.550   5.614
58732W        W30348   1.217  15.363  10.383
58733W        W30349   8.159  32.653  12.107
58734W        W30350  12.543   1.530  12.436
58735W        W30351  38.789  18.702   1.113
58736W        W30352  19.283   4.502   1.041
58737W        W30353  25.131  40.008   2.255
58738W        W30354   2.826  38.939   1.473
58739W        W30355  23.931  42.994   5.052
58740W        W30356  38.692  41.393  14.941
58741W        W30357  33.403  17.201   4.140
58742W        W30358   2.779   7.962  11.111
58743W        W30359  15.335  18.606   1.187
58744W        W30360  20.830  16.112  14.034
58745W        W30361  15.450  44.524  11.451
58746W        W30362  23.069  18.583  11.183
58747W        W30363  44.075  42.609   2.055
58748W        W30364  33.907  29.992   4.098
58749W        W30365  26.243  19.835  13.055
58750W        W30366  17.503  26.530   4.481
58751W        W30367  20.004  11.161  11.498
58752W        W30368   0.067  23.223  10.690
58753W        W30369  33.464   0.851  14.570
58754W        W30370  30.901  28.176   1.436
58755W        W30371  12.554  38.070  10.979
58756W        W30372  22.593  12.102   1.376
58757W        W30373  14.067  23.450   4.261
58758W        W30374  20.694   6.251  13.034
58759W        W30375  26.457   0.187  13.438
58760W        W30376  13.097  27.772   3.686
58761W        W30377  40.463  33.520   0.767
58762W        W30378  24.416  24.450  14.902
58763W        W30379  37.651  35.330   2.890
58764W        W30380  21.438  11.371  11.578
58765W        W30381  35.107  25.995  10.658
58766W        W30382   4.635  29.037   2.669
58767W        W30383  18.117  40.968   4.613
58768W        W30384   8.940  19.324   1.735
58769W        W30385  32.941  26.452  10.718
58770W        W30386  16.330  19.610   0.529
58771W        W30387  10.690  10.173  14.805
58772W        W30388   1.229  15.295   3.681
58773W        W30389  17.812  18.697   4.129
58774W        W30390   6.699  29.045   1.004
58775W        W30391   8.664  20.051  14.443
58776W        W30392  35.805  41.797   3.408
58777W        W30393  20.346   7.766   3.847
58778W        W30394  20.222  17.825  10.876
58779W        W30395  41.298  12.725   0.337
58780W        W30396  33.479  34.585  11.180
58781W        W30397  27.701  40.833  12.382
58782W        W30398  18.482  31.357  10.837
58783W        W30399  44.416  28.622   3.730
58784W        W30400  26.550  37.451  11.693
58785W        W30401  23.062   4.766   0.453
58786W        W30402  27.553   8.962  13.765
58787W        W30403  32.642  11.324  12.912
58788W        W30404  44.679   4.883   0.391
58789W        W30405  44.926  30.158  14.782
58790W        W30406  30.186  43.815   3.128
58791W        W30407   7.735   8.475  14.016
58792W        W30408  10.782   6.539  12.985
58793W        W30409  13.800  25.802   3.795
58794W        W30410  36.841  32.785  12.839
58795W        W30411  32.987  33.523  13.567
58796W        W30412  22.257  36.039   2.789
58797W        W30413  19.169  26.425   3.134
58798W        W30414  22.014   4.215  13.365
58799W        W30415  20.593  27.177   0.034
58800W        W30416  26.012  17.197   2.154
58801W        W30417  16.126  41.348  11.148
58802W        W30418  15.878  15.819  12.073
58803W        W30419  31.451  39.050  11.082
58804W        W30420  28.973   4.634  14.579
58805W        W30421  35.049  27.090   2.586
58806W        W30422  24.737  32.968   2.316
58807W        W30423  14.297   2.867   2.669
58808W        W30424   9.939  12.822  11.147
58809W        W30425  11.208  15.904  14.030
58810W        W30426  43.797  31.872  14.783
58811W        W30427   2.343  37.148   3.447
58812W        W30428   2.999  18.333   4.561
58813W        W30429   4.346  25.636   4.359
58814W        W30430   8.972  35.094  10.763
58815W        W30431  26.670   9.056   2.917
58816W        W30432   6.595  42.488  13.549
58817W        W30433  33.309   5.317  14.006
58818W        W30434  41.721  19.330   0.042
58819W        W30435   1.858  18.816  11.194
58820W        W30436  10.856  27.176   3.671
58821W        W30437  16.928  36.121   1.326
58822W        W30438  42.847  22.930  10.423
58823W        W30439  39.454  43.378   4.699
58824W        W30440   7.069  20.077   2.801
58825W        W30441  14.364  43.564  12.128
58826W        W30442   3.433   4.414  12.848
58827W        W30443  13.567  39.858   1.894
58828W        W30444  22.973  40.325   4.857
58829W        W30445  19.456  43.259  14.032
58830W        W30446  23.177  43.931  12.117
58831W        W30447   7.914  38.328   4.863
58832W        W30448  29.865  42.410  13.991
58833W        W30449   5.582  42.787  13.909
58834W        W30450  43.756  41.055  13.255
58835W        W30451  20.700   3.280  13.952
58836W        W30452  17.182  13.616   0.574
58837W        W30453  10.035   6.321   4.051
58838W        W30454  15.561  35.359   3.273
58839W        W30455  13.545  10.766   2.466
58840W        W30456  23.204  10.705   0.945
58841W        W30457  15.537  36.874   2.094
58842W        W30458  33.952   5.484  14.827
58843W        W30459  13.511  22.496  13.431
58844W        W30460   4.404   6.780   2.211
58845W        W30461  22.099  21.538  13.305
58846W        W30462  18.522  32.224   3.658
58847W        W30463   5.424  18.739  13.691
58848W        W30464  37.542  33.855  10.753
58849W        W30465  21.173  41.794  10.638
58850W        W30466   9.283  25.768  12.462
58851W        W30467   4.354  22.962   4.190
58852W        W30468  12.104  14.625   3.716
58853W        W30469  13.087  26.859   1.423
58854W        W30470  38.798  31.405   0.740
58855W        W30471  20.028  24.501  12.845
58856W        W30472  39.109  42.622   4.091
58857W        W30473  26.494  31.699  12.469
58858W        W30474  28.513  18.253  11.376
58859W        W30475  27.505  28.762   0.531
58860W        W30476  12.189  11.830   0.759
58861W        W30477  13.628  32.836   1.230
58862W        W30478  35.532  43.384   2.350
58863W        W30479  42.248  18.516   4.154
58864W        W30480   8.900  34.014  14.413
58865W        W30481  32.108  30.467  13.034
58866W        W30482  42.776   4.766  14.372
58867W        W30483  14.251  13.217   1.064
58868W        W30484  37.498   6.905   4.203
58869W        W30485  10.999  11.317   1.791
58870W        W30486  28.185  43.378   2.940
58871W        W30487  25.130  40.295   2.704
58872W        W30488  23.904  20.999   4.041
58873W        W30489  13.560  39.333   0.674
58874W        W30490  37.833   1.212  11.242
58875W        W30491  17.178   4.727   5.367
58876W        W30492  39.297  11.848   0.261
58877W        W30493  21.552   9.408   4.246
58878W        W30494  26.581  43.040  11.605
58879W        W30495  23.175   3.977   2.465
58880W        W30496  35.115  14.127   0.766
58881W        W30497  29.918  34.133   0.390
58882W        W30498   9.243  23.309  10.815
58883W        W30499  34.247  16.589  11.072
58884W        W30500  30.382  24.950  10.648
58885W        W30501  25.308  34.470  12.476
58886W        W30502  24.097  35.697  12.838
58887W        W30503   7.271   4.931  14.455
58888W        W30504  14.043  42.277  12.917
58889W        W30505  11.628  31.788  14.840
58890W        W30506   7.184  19.031   3.648
58891W        W30507   2.991  35.389   4.503
58892W        W30508  33.427  41.536  10.099
58893W        W30509   8.371  32.932   4.179
58894W        W30510  10.255   5.372   4.128
58895W        W30511   0.267  29.941  14.471
58896W        W30512  18.488  42.727   1.795
58897W        W30513   3.608   5.159   1.849
58898W        W30514  12.111  31.577  12.571
58899W        W30515  16.458   1.810   5.107
58900W        W30516  26.775   5.688   3.310
58901W        W30517  26.759  30.513  13.355
58902W        W30518  36.232  33.067   2.035
58903W        W30519  30.998  11.813  10.833
58904W        W30520  44.950  22.746   3.850
58905W        W30521   6.835  26.191   3.824
58906W        W30522  24.518  37.896   3.787
58907W        W30523  32.808  34.559  14.502
58908W        W30524  39.580   7.493  12.086
58909W        W30525  20.093  37.872  14.575
58910W        W30526  18.476  17.681  14.809
58911W        W30527  17.999  22.643  12.459
58912W        W30528  43.040  38.601  12.070
58913W        W30529  27.578  33.720   4.539
58914W        W30530   3.889  31.651   3.182
58915W        W30531   7.202  42.508   3.055
58916W        W30532  17.479  27.568   4.527
58917W        W30533  11.700  19.506   3.186
58918W        W30534   6.878  32.988   1.137
58919W        W30535  20.333   1.849   4.986
58920W        W30536  37.916  14.198  11.446
58921W        W30537  23.033  40.351  12.454
58922W        W30538  21.541  44.282   0.740
58923W        W30539  43.257  23.262   3.129
58924W        W30540  36.160  43.196   3.436
58925W        W30541  25.187   9.852   1.724
58926W        W30542  33.511  34.662  13.445
58927W        W30543  22.045   7.128   0.411
58928W        W30544  36.330  11.080  10.685
58929W        W30545  26.010   8.691   0.956
58930W        W30546  11.232  21.505   4.737
58931W        W30547  24.216  23.532  14.494
58932W        W30548  19.772  20.089  13.310
58933W        W30549   4.337  37.427   2.303
58934W        W30550  25.525  25.131  10.629
58935W        W30551  34.841  38.621   0.817
58936W        W30552  13.518  25.830  10.843
58937W        W30553  12.467  19.858  11.546
58938W        W30554  16.094   9.077   5.136
58939W        W30555  28.191  12.369   0.408
58940W        W30556  28.422  26.468  12.246
58941W        W30557  19.856  43.590  14.131
58942W        W30558  27.886  38.476  14.357
58943W        W30559  12.472  40.038  14.025
58944W        W30560   0.195  29.966   3.259
58945W        W30561  21.514  32.597   0.945
58946W        W30562  33.854  41.837  13.982
58947W        W30563  42.267  20.123   1.756
58948W        W30564  19.953  44.335  10.100
58949W        W30565  20.451  37.116   2.291
58950W        W30566  33.991  28.913   0.239
58951W        W30567  30.669  18.817   0.803
58952W        W30568  44.039  33.075   3.265
58953W        W30569  18.993  25.996  10.661
58954W        W30570  41.313  42.962   4.606
58955W        W30571  39.676  29.421   1.661
58956W        W30572   8.710  38.303   4.291
58957W        W30573  34.057  20.480   3.096
58958W        W30574  24.335   7.045  10.512
58959W        W30575  13.695  21.547   4.197
58960W        W30576  27.621  23.177   3.789
58961W        W30577   1.427   5.816   4.309
58962W        W30578  36.407  44.787   2.138
58963W        W30579   1.682   5.191  14.792
58964W        W30580  19.178  40.194  11.554
58965W        W30581  42.400  39.297  12.430
58966W        W30582  26.685  35.902   3.442
58967W        W30583   6.854  14.703  10.729
58968W        W30584  20.480  37.420   3.745
58969W        W30585  14.424   6.421  13.566
58970W        W30586  11.648   6.225   2.837
58971W        W30587   9.948  28.810  11.188
58972W        W30588   5.747  36.106   0.697
58973W        W30589  29.642   5.941   4.347
58974W        W30590  37.359  16.384  14.492
58975W        W30591  21.888  17.131  10.353
58976W        W30592  38.952   1.497   2.260
58977W        W30593  11.604  26.241   0.749
58978W        W30594   4.977  23.665  13.166
58979W        W30595  10.432  44.479  11.434
58980W        W30596  33.325   1.797   4.081
58981W        W30597  20.366  35.946  11.161
58982W        W30598   1.838   4.369   4.633
58983W        W30599  34.645  34.994  11.658
58984W        W30600  19.633  33.224   1.007
58985W        W30601  12.234  11.738  13.419
58986W        W30602  24.796  43.109  11.150
58987W        W30603  19.266  22.038  12.377
58988W        W30604  14.973  35.082   0.177
58989W        W30605  26.658  24.476  14.024
58990W        W30606  37.967   5.538  13.265
58991W        W30607   5.539  44.380   4.776
58992W        W30608   3.847   5.632  11.628
58993W        W30609   2.611  44.944  10.580
58994W        W30610  10.864   2.872   3.241
58995W        W30611  26.604  36.031   1.474
58996W        W30612   1.497   7.169   3.763
58997W        W30613  35.475  33.145  13.527
58998W        W30614  29.447  15.286   1.283
58999W        W30615  14.644  37.401  12.079
59000W        W30616  13.188  41.752  14.277
59001W        W30617  11.745  42.649   1.330
59002W        W30618   0.424  33.626   4.612
59003W        W30619  38.494  40.324   1.712
59004W        W30620   7.797  22.400  13.058
59005W        W30621  40.762  14.585  12.021
59006W        W30622   8.820  29.588  10.808
59007W        W30623  28.604   0.645  13.139
59008W        W30624  17.162  34.304   2.177
59009W        W30625   4.836  42.304  13.508
59010W        W30626  14.197  15.863  10.029
59011W        W30627  35.125  12.218   4.335
59012W        W30628   7.324  23.234   2.253
59013W        W30629   1.901   8.523   1.743
59014W        W30630  16.358   3.313  11.385
59015W        W30631   9.650  44.792   0.887
59016W        W30632  15.029  14.159  14.436
59017W        W30633  21.719  29.689  14.890
59018W        W30634  44.297  29.508   3.305
59019W        W30635  18.758  19.120  13.528
59020W        W30636  40.021  12.838  11.110
59021W        W30637  26.293  38.884  12.884
59022W        W30638  16.053  12.945   2.276
59023W        W30639  10.328  26.570  14.328
59024W        W30640  42.196  36.923   5.306
59025W        W30641  23.680   7.749  14.961
59026W        W30642  29.190  22.592  14.949
59027W        W30643  17.339  10.827   0.396
59028W        W30644  31.441   8.868   3.758
59029W        W30645  35.822  42.031  11.152
59030W        W30646  33.008   5.212   4.966
59031W        W30647  34.618   3.847   1.397
59032W        W30648  16.792  23.480   4.111
59033W        W30649  30.897  39.279   1.378
59034W        W30650  30.944  26.852  14.090
59035W        W30651  17.731  15.090  10.624
59036W        W30652  12.393  12.677  13.084
59037W        W30653  38.401  43.892   0.702
59038W        W30654  11.198  31.910   1.778
59039W        W30655   8.939  38.578   4.647
59040W        W30656  19.111  31.469   2.288
59041W        W30657  20.572  24.546  10.774
59042W        W30658  17.716   5.945   0.798
59043W        W30659  15.795   7.592  11.510
59044W        W30660  24.629   8.405  14.820
59045W        W30661  33.938   8.437   3.124
59046W        W30662  31.189  43.388   2.203
59047W        W30663  18.744  30.942   9.860
59048W        W30664  37.487  33.330   2.775
59049W        W30665   0.023   1.819  13.536
59050W        W30666   5.710   9.778   3.360
59051W        W30667  33.341   4.819   4.951
59052W        W30668  27.912  39.752   0.791
59053W        W30669  23.736   4.592  14.711
59054W        W30670   2.412  19.175  14.315
59055W        W30671   9.757   0.535  11.159
59056W        W30672   1.449  23.340   2.722
59057W        W30673   1.469  27.220   1.233
59058W        W30674  43.471  25.400  14.376
59059W        W30675  24.338  44.963  10.870
59060W        W30676  21.765  24.649   3.241
59061W        W30677   1.728   4.837  11.377
59062W        W30678  32.622   3.420   2.420
59063W        W30679   9.454  40.843   3.301
59064W        W30680  36.384  11.414  11.607
59065W        W30681  15.351  18.538  13.825
59066W        W30682  32.269  30.305  11.162
59067W        W30683  18.120  29.987  13.437
59068W        W30684  18.611  43.045  12.024
59069W        W30685  35.773  35.977   0.337
59070W        W30686  21.220  14.827  13.647
59071W        W30687   5.190  41.371   4.235
59072W        W30688  24.248  40.891   4.330
59073W        W30689  36.148   5.842  12.663
59074W        W30690  18.152  40.578  12.010
59075W        W30691  17.541  24.020  12.951
59076W        W30692  13.679  24.990  11.423
59077W        W30693  10.233  20.260  11.502
59078W        W30694  28.116   3.904   3.734
59079W        W30695  20.340  31.134  12.945
59080W        W30696  12.848  16.793   3.249
59081W        W30697  29.002  44.275   4.861
59082W        W30698  33.633  21.017  11.618
59083W        W30699  17.564  38.073  12.461
59084W        W30700  18.660  10.542   4.925
59085W        W30701  39.267  18.291  11.877
59086W        W30702  24.087  13.510  13.387
59087W        W30703  18.534  16.634  12.349
59088W        W30704  28.571  22.219  10.590
59089W        W30705  14.341  17.698   1.306
59090W        W30706  13.847  15.996  10.423
59091W        W30707  30.133  36.591   3.061
59092W        W30708  32.152   6.273   2.700
59093W        W30709   7.676  25.680  11.571
59094W        W30710   9.291   1.462  11.186
59095W        W30711  11.602  22.190  12.627
59096W        W30712  38.056  13.622  11.833
59097W        W30713   8.070  21.797  13.836
59098W        W30714  43.748  42.491   3.978
59099W        W30715  41.933  20.978  10.722
59100W        W30716  29.447  36.301  14.874
59101W        W30717  38.514  20.625  14.607
59102W        W30718  41.444  36.060  13.372
59103W        W30719  16.875  12.793   0.402
59104W        W30720  13.069   2.936   1.814
59105W        W30721  37.212  29.902   2.799
59106W        W30722  14.322   2.920  13.010
59107W        W30723  39.139  41.893   0.782
59108W        W30724   9.208  22.201  13.123
59109W        W30725  29.968   7.855  14.946
59110W        W30726  24.642  19.149  14.634
59111W        W30727  24.787  28.052   2.269
59112W        W30728   0.484  44.199  11.118
59113W        W30729  39.393  14.146   0.136
59114W        W30730  35.985  27.508   2.260
59115W        W30731  38.236  10.709   1.810
59116W        W30732  36.401  22.665   0.960
59117W        W30733  34.865   0.231  11.455
59118W        W30734  22.174  34.958   0.933
59119W        W30735  28.598  19.161   3.681
59120W        W30736  15.658  29.463  13.945
59121W        W30737   4.456  38.552  12.431
59122W        W30738  36.419  30.331  11.166
59123W        W30739  34.946  23.899   2.690
59124W        W30740   6.263   8.961  12.570
59125W        W30741  23.171   8.225   1.400
59126W        W30742   2.463  40.171   4.751
59127W        W30743   1.558  22.258   0.305
59128W        W30744   6.806  10.952  10.769
59129W        W30745   0.659  21.594  12.026
59130W        W30746  36.584  16.052  10.476
59131W        W30747  10.402  44.913   1.860
59132W        W30748  24.542  20.552   4.523
59133W        W30749  43.317  28.683  12.130
59134W        W30750  21.743  12.810  11.120
59135W        W30751  41.561  19.062   4.280
59136W        W30752   4.257   6.402   4.676
59137W        W30753   3.203  14.742  12.327
59138W        W30754  21.009  18.972  13.951
59139W        W30755   2.955  27.569  11.652
59140W        W30756  43.389  14.105   5.184
59141W        W30757  21.665  16.207   0.631
59142W        W30758   5.183  11.783   4.687
59143W        W30759  24.502  42.394   1.138
59144W        W30760   6.229  20.749   1.542
59145W        W30761  19.772  10.677  11.452
59146W        W30762   3.192  32.943  14.568
59147W        W30763   7.985   1.472   4.456
59148W        W30764  32.586  43.077   5.366
59149W        W30765  27.039  28.672  13.853
59150W        W30766  10.652  21.573  14.913
59151W        W30767  11.310  32.393   1.951
59152W        W30768  19.189  30.598   1.706
59153W        W30769  14.088   9.781  13.420
59154W        W30770  16.496   4.358   0.758
59155W        W30771  14.208  22.674  12.059
59156W        W30772  15.097   1.225   2.778
59157W        W30773  14.239   8.856  14.383
59158W        W30774  13.424  37.278  14.909
59159W        W30775  16.853  27.986  12.455
59160W        W30776   4.383  37.883   0.267
59161W        W30777  16.004   1.431   3.826
59162W        W30778  31.046  37.510   0.739
59163W        W30779  35.909  13.782   3.754
59164W        W30780  25.600   5.130  12.503
59165W        W30781  39.915  27.191   2.841
59166W        W30782   8.424  44.831   4.183
59167W        W30783  41.737  12.031  14.323
59168W        W30784  21.166   4.909   4.812
59169W        W30785  29.910  37.962  14.428
59170W        W30786   1.059  37.824  10.402
59171W        W30787  35.532  21.507  11.056
59172W        W30788   1.460   2.660  11.097
59173W        W30789  38.033  28.097   1.905
59174W        W30790  15.326  38.927  10.746
59175W        W30791  16.006  33.182  13.098
59176W        W30792   9.347  38.423  11.642
59177W        W30793  35.178  30.729   1.826
59178W        W30794  42.914  41.835  13.300
59179W        W30795  24.063  30.396   1.936
59180W        W30796  42.195  33.383   0.945
59181W        W30797  30.142   8.759   1.771
59182W        W30798  27.595  24.729   1.686
59183W        W30799  32.389  10.955  13.959
59184W        W30800  18.362  44.815  14.266
59185W        W30801  34.542   3.183   3.393
59186W        W30802  18.820  29.183  11.856
59187W        W30803   1.349  44.291  14.375
59188W        W30804  28.607   5.328  13.530
59189W        W30805  12.415  44.806   1.763
59190W        W30806  17.446  19.215  10.556
59191W        W30807  25.118  13.618  14.794
59192W        W30808  30.535  10.634   1.050
59193W        W30809   0.525  36.134  14.309
59194W        W30810  24.875  37.583   3.591
59195W        W30811  21.227  30.673   9.969
59196W        W30812   1.464  33.957  10.949
59197W        W30813   6.123  32.481  13.168
59198W        W30814  42.302  23.481   3.144
59199W        W30815  15.446  28.747   3.770
59200W        W30816  26.853   8.408   2.810
59201W        W30817   7.776  34.365  11.376
59202W        W30818  15.501  26.236   1.284
59203W        W30819   3.248  33.553   3.337
59204W        W30820  35.356  16.005  10.653
59205W        W30821  11.829   0.577  14.881
59206W        W30822  31.560   1.290   2.400
59207W        W30823  40.224  13.084  13.981
59208W        W30824  11.620   5.864  12.426
59209W        W30825  20.509  25.465   4.038
59210W        W30826   0.760  33.060   2.439
59211W        W30827  31.187  24.438   5.274
59212W        W30828   5.806   8.230   2.472
59213W        W30829  25.663  36.979   3.102
59214W        W30830  22.072  10.301   4.138
59215W        W30831  44.958   1.577  11.537
59216W        W30832  35.103  11.196  12.071
59217W        W30833  14.447  43.255   4.663
59218W        W30834  38.923  31.053   1.100
59219W        W30835  10.137   6.803  13.378
59220W        W30836  44.387  32.594   0.786
59221W        W30837  18.636  22.582  11.145
59222W        W30838  32.128   3.274  12.531
59223W        W30839  38.295  12.103   3.672
59224W        W30840  43.287  23.316   4.118
59225W        W30841  14.972  26.491  12.673
59226W        W30842  28.411  43.999   1.826
59227W        W30843  13.759   0.162  12.489
59228W        W30844  30.599  19.105   4.836
59229W        W30845  27.718  42.135  14.241
59230W        W30846  40.507  41.587  12.947
59231W        W30847  10.190  17.757   3.644
59232W        W30848  10.269   5.915  13.475
59233W        W30849  26.037  30.548   2.131
59234W        W30850  26.876  25.481   1.362
59235W        W30851  12.251  21.074   3.077
59236W        W30852   9.719   0.278   2.782
59237W        W30853  31.995  20.197   4.573
59238W        W30854  37.059  32.395   1.955
59239W        W30855  12.408  25.527   3.358
59240W        W30856  10.638  24.557  14.513
59241W        W30857  21.607  15.220   4.870
59242W        W30858  17.628   3.189  13.556
59243W        W30859  34.312  44.485   9.758
59244W        W30860  30.257  11.819   4.146
59245W        W30861  33.978  22.845   1.188
59246W        W30862  40.934  36.504  11.274
59247W        W30863  42.448  31.208   4.747
59248W        W30864  35.815  20.614  12.832
59249W        W30865  19.323  24.698  14.437
59250W        W30866  13.031  35.869  10.855
59251W        W30867   1.878  14.291   2.090
59252W        W30868  43.856  41.179  14.487
59253W        W30869  43.563  19.983   4.448
59254W        W30870  13.681  25.782  14.953
59255W        W30871  18.876  27.997  12.114
59256W        W30872   1.370  31.550  12.481
59257W        W30873  17.982   7.306   4.028
59258W        W30874  17.047  31.510   1.663
59259W        W30875   2.215   2.056  11.588
59260W        W30876  35.489  31.223   0.396
59261W        W30877  20.597  44.020   2.180
59262W        W30878  36.555   7.657   5.056
59263W        W30879   2.606   9.301  12.078
59264W        W30880  23.402  40.782   2.363
59265W        W30881  32.543   0.336  13.938
59266W        W30882  31.296  41.905   2.205
59267W        W30883  41.750  43.964   3.714
59268W        W30884  33.456   8.620   1.837
59269W        W30885  38.358  42.672   3.553
59270W        W30886  13.989   8.979  10.789
59271W        W30887  40.804  21.892   1.293
59272W        W30888   2.071   9.588  13.060
59273W        W30889  15.700  34.519  14.246
59274W        W30890  33.162  37.600   4.593
59275W        W30891  20.569   0.260  11.917
59276W        W30892   7.826  15.389   1.811
59277W        W30893  12.571   7.509   4.500
59278W        W30894  40.384  17.916  11.991
59279W        W30895  21.811  32.482   2.856
59280W        W30896  24.474  34.579  10.748
59281W        W30897   1.247  27.528   2.575
59282W        W30898   1.991  33.598  12.093
59283W        W30899  26.216   4.940   3.691
59284W        W30900  14.695  29.488   4.553
59285W        W30901  23.075  12.020  13.510
59286W        W30902  37.583  16.845  14.471
59287W        W30903  32.866  18.814  12.464
59288W        W30904  21.037  35.119   0.840
59289W        W30905  18.171  32.944  12.996
59290W        W30906   5.794  35.108   3.236
59291W        W30907  10.659   7.381   1.243
59292W        W30908  26.494  24.122   4.500
59293W        W30909  20.334  44.729  12.769
59294W        W30910  29.062  15.096  10.916
59295W        W30911   1.795  20.609   4.689
59296W        W30912  25.750   3.719   3.736
59297W        W30913   2.071  32.494   0.867
59298W        W30914  35.990   8.185  10.925
59299W        W30915  31.952  15.942   2.772
59300W        W30916  40.827   9.833   1.819
59301W        W30917  24.073   2.163   3.234
59302W        W30918  10.671   9.969   3.340
59303W        W30919  23.943  40.897  12.881
59304W        W30920  17.135  36.970  12.200
59305W        W30921  14.778  24.360  13.798
59306W        W30922  40.351  19.321  14.231
59307W        W30923  24.549   1.472  13.407
59308W        W30924  43.737   5.095   4.038
59309W        W30925  37.943   9.697   1.284
59310W        W30926   5.838  33.621  12.580
59311W        W30927  21.552  21.812   4.569
59312W        W30928  17.067  37.604   3.652
59313W        W30929   4.431   9.518   0.445
59314W        W30930  36.843   6.463  10.647
59315W        W30931  41.836   1.365   3.182
59316W        W30932  10.463  30.213   2.526
59317W        W30933  13.141  18.542   1.955
59318W        W30934  23.978  28.979   3.359
59319W        W30935  22.257  43.856  10.448
59320W        W30936  15.868   9.426   4.768
59321W        W30937  35.709  36.846   0.507
59322W        W30938  44.939  33.025  11.802
59323W        W30939   3.771  28.019  13.641
59324W        W30940  44.807   4.590   4.643
59325W        W30941  40.869  15.511  11.128
59326W        W30942   4.165   0.139   1.479
59327W        W30943  37.919   2.326  14.836
59328W        W30944  24.713  33.345   4.749
59329W        W30945  14.247  24.463  13.627
59330W        W30946  22.539  29.664  11.659
59331W        W30947  20.399  12.681  14.591
59332W        W30948  33.718  14.174  10.748
59333W        W30949  41.076  26.538   3.630
59334W        W30950  21.084  25.573  14.572
59335W        W30951  33.528  14.202  14.023
59336W        W30952   3.955   7.167   0.866
59337W        W30953  32.640  31.063   0.284
59338W        W30954  19.093  36.345  11.196
59339W        W30955  27.883  32.995   0.189
59340W        W30956   3.083  15.137  13.464
59341W        W30957   3.751   0.296   3.821
59342W        W30958  13.811   4.351  14.092
59343W        W30959  37.539  43.970   1.221
59344W        W30960  11.659  26.191  14.835
59345W        W30961  44.755  21.715   1.079
59346W        W30962  15.992  43.064  13.874
59347W        W30963  26.018  10.402   2.978
59348W        W30964  29.093  39.812  10.456
59349W        W30965  41.318  15.269  11.111
59350W        W30966   6.001  44.290   4.985
59351W        W30967  43.033  27.400  11.630
59352W        W30968  18.870  21.809  14.353
59353W        W30969  21.201  33.395  12.481
59354W        W30970  25.858  27.142  14.998
59355W        W30971  29.726  27.817   3.732
59356W        W30972  31.872  21.398  11.342
59357W        W30973  28.100  34.135   0.124
59358W        W30974  25.160  11.463  11.113
59359W        W30975   8.634  18.667   3.742
59360W        W30976  12.859  16.742  13.954
59361W        W30977  42.343  25.028  12.258
59362W        W30978  13.350  15.522   0.139
59363W        W30979  23.702   8.339  13.310
59364W        W30980  22.790  15.387   2.674
59365W        W30981  13.704  17.159   2.331
59366W        W30982   6.583  27.036  11.287
59367W        W30983  16.120  33.901  14.872
59368W        W30984   7.641  36.075   0.889
59369W        W30985  11.146  39.371  10.918
59370W        W30986   9.245  26.696  11.542
59371W        W30987  39.700  25.531  13.826
59372W        W30988  32.136  41.573  13.054
59373W        W30989   2.909  31.534  11.656
59374W        W30990  44.815  25.659   3.236
59375W        W30991  24.121  22.692  10.088
59376W        W30992  13.291  40.243   4.841
59377W        W30993  39.783  44.860  11.492
59378W        W30994  22.336  36.820   3.661
59379W        W30995  31.554   5.460  14.373
59380W        W30996  38.087  25.444  14.956
59381W        W30997  35.808  37.449  11.554
59382W        W30998  19.514  40.048  14.386
59383W        W30999  34.882  20.695  12.351
59384W        W31000  21.014  32.160  11.295
59385W        W31001  30.562  10.240  10.868
59386W        W31002  33.335  22.212   0.312
59387W        W31003   0.480  14.207  11.007
59388W        W31004   7.328  30.964   3.404
59389W        W31005   3.704  42.721  11.592
59390W        W31006  35.052   7.742   4.346
59391W        W31007  36.922  11.064   2.191
59392W        W31008  17.189  15.515   4.759
59393W        W31009   9.876  21.737   0.843
59394W        W31010  19.112   0.239  14.798
59395W        W31011  16.621   0.426  10.463
59396W        W31012  20.754  19.491   4.270
59397W        W31013  39.174  28.551   1.755
59398W        W31014  33.204  37.550   2.770
59399W        W31015   5.095  28.332   3.161
59400W        W31016  33.579  23.006   3.810
59401W        W31017  17.415   1.833   1.740
59402W        W31018  27.443   0.599   1.669
59403W        W31019  15.634  13.699   4.170
59404W        W31020  11.690   3.000  14.525
59405W        W31021  15.712  13.085   1.918
59406W        W31022   6.797  32.989  11.995
59407W        W31023  27.666  12.229  11.161
59408W        W31024  22.751   2.402   1.943
59409W        W31025  38.330  11.359  11.558
59410W        W31026  37.284  31.092   3.849
59411W        W31027  42.494   9.906  14.852
59412W        W31028  18.116  29.689   2.737
59413W        W31029   8.247  19.131  10.977
59414W        W31030   8.346   9.209  12.309
59415W        W31031  32.167   7.255   3.371
59416W        W31032  42.848  13.589   3.328
59417W        W31033  17.840   7.327  14.589
59418W        W31034  42.212  38.263   5.136
59419W        W31035  26.693   5.961  13.553
59420W        W31036  14.012  42.036  12.445
59421W        W31037  20.789  14.163  13.533
59422W        W31038   0.739  25.853   2.598
59423W        W31039  40.793   5.690   0.960
59424W        W31040  27.464  30.658  13.113
59425W        W31041  39.112   5.002  11.276
59426W        W31042  19.820   4.866   0.255
59427W        W31043  20.040  30.207   4.100
59428W        W31044  17.844  44.719   5.028
59429W        W31045  18.158   9.576  14.314
59430W        W31046  18.079  17.806  12.146
59431W        W31047   5.730  23.170   1.829
59432W        W31048  36.594  42.002   3.787
59433W        W31049  11.020  38.232   3.174
59434W        W31050  42.281  28.164  11.530
59435W        W31051  42.554  35.940   0.897
59436W        W31052  21.332  32.308   2.735
59437W        W31053  17.530  20.960  12.109
59438W        W31054  15.075  31.741  10.256
59439W        W31055  23.349  21.882   1.280
59440W        W31056  39.466  11.231  14.413
59441W        W31057  21.062  38.889  11.053
59442W        W31058  35.604  25.775  11.534
59443W        W31059  33.292  40.249   0.281
59444W        W31060  17.169  17.151  12.140
59445W        W31061  34.251  42.823  10.847
59446W        W31062  35.182   9.499  12.748
59447W        W31063  31.925  18.484   1.230
59448W        W31064   4.229  32.653   2.811
59449W        W31065  26.209   8.843   2.958
59450W        W31066  14.702  18.732  12.665
59451W        W31067  27.632  38.852  11.646
59452W        W31068  24.487  22.198  12.015
59453W        W31069  25.970  36.484  11.638
59454W        W31070  33.400  42.982   4.019
59455W        W31071  10.209   6.577   4.937
59456W        W31072  19.791  26.877   4.686
59457W        W31073  30.912  21.870   3.291
59458W        W31074   9.819  23.296   2.206
59459W        W31075  43.808  21.080   2.784
59460W        W31076   7.243  37.449  12.631
59461W        W31077  32.801  16.127   4.795
59462W        W31078  14.231   9.862   4.143
59463W        W31079  13.602  16.735   0.827
59464W        W31080   0.295  16.936  12.648
59465W        W31081  21.818  39.401  12.541
59466W        W31082  43.452  13.814   0.277
59467W        W31083  38.070   4.033  11.049
59468W        W31084  29.425   5.398  11.977
59469W        W31085  16.529  42.030   0.802
59470W        W31086  18.888  39.812  11.368
59471W        W31087   7.087  15.338  12.325
59472W        W31088  14.451  26.023   2.771
59473W        W31089  19.778  19.098   0.559
59474W        W31090  27.991   8.730   2.458
59475W        W31091   1.674  41.790   4.073
59476W        W31092  39.654  42.889   1.304
59477W        W31093  31.469  30.198  14.311
59478W        W31094  43.554  31.100   0.376
59479W        W31095  17.150  20.126  10.531
59480W        W31096  20.104  43.235   1.858
59481W        W31097  42.081  21.059   1.762
59482W        W31098  27.097   6.921  11.587
59483W        W31099   3.278   5.255  13.811
59484W        W31100   8.226  42.480   1.953
59485W        W31101  16.641  22.147  13.798
59486W        W31102  22.884  11.683  14.819
59487W        W31103  22.266  10.679  14.212
59488W        W31104   3.477   0.789  11.569
59489W        W31105  13.171  30.133   0.056
59490W        W31106  17.528  36.019  11.122
59491W        W31107  12.333  19.602  10.831
59492W        W31108  34.945  30.630  14.860
59493W        W31109  42.864  20.017   3.927
59494W        W31110  34.198   6.241  13.039
59495W        W31111  30.376  10.270   3.734
59496W        W31112   4.820  44.248   4.633
59497W        W31113  22.280  36.962   4.589
59498W        W31114  29.206  26.931   3.887
59499W        W31115  31.624  24.045  13.099
59500W        W31116  12.116  34.056  12.419
59501W        W31117   9.005  26.536  13.380
59502W        W31118  44.050  18.296   4.707
59503W        W31119  26.006  22.360  11.130
59504W        W31120  41.407   4.030   1.738
59505W        W31121   4.810  16.721  11.435
59506W        W31122   8.755  12.871   1.032
59507W        W31123  29.642   3.882  11.947
59508W        W31124  10.259  40.576  12.339
59509W        W31125  20.328  40.481  12.408
59510W        W31126  17.236  31.836  12.091
59511W        W31127  31.026  28.125   0.933
59512W        W31128   4.172   6.943  14.410
59513W        W31129  10.306  29.060   3.788
59514W        W31130  17.213  25.676  10.646
59515W        W31131  12.158   9.283   1.967
59516W        W31132  24.131  10.147  12.084
59517W        W31133   8.226  11.806  11.666
59518W        W31134   6.911   6.910  12.685
59519W        W31135   5.863   2.711   2.617
59520W        W31136  27.753   6.680  12.996
59521W        W31137  28.283  40.414  12.762
59522W        W31138  13.677   5.347   3.908
59523W        W31139  33.500  29.195   4.542
59524W        W31140  34.464  23.839   3.675
59525W        W31141  42.457  19.883  11.656
59526W        W31142  27.467  38.370   3.401
59527W        W31143   1.221   1.333  10.839
59528W        W31144  33.532   6.686   2.124
59529W        W31145  11.614  24.950  12.952
59530W        W31146  34.643   9.183   4.239
59531W        W31147  39.572   7.391   4.197
59532W        W31148  18.009   2.564   1.766
59533W        W31149  37.932  37.033  14.529
59534W        W31150  14.588  22.581   1.209
59535W        W31151  30.012   2.602  11.149
59536W        W31152  36.472   3.472   1.577
59537W        W31153   3.792  24.256   9.775
59538W        W31154   4.466  29.784  14.403
59539W        W31155  20.520  33.888  11.114
59540W        W31156  27.608  43.130   1.770
59541W        W31157  41.040  10.329   2.621
59542W        W31158  32.466  40.285   4.189
59543W        W31159  31.155  32.799  12.866
59544W        W31160  21.171  24.261  10.817
59545W        W31161  34.519  40.410  11.997
59546W        W31162   5.860  11.067   1.312
59547W        W31163  34.781  33.075   2.101
59548W        W31164  26.333  14.026  10.306
59549W        W31165  39.757  17.278   1.044
59550W        W31166   8.970   1.035  12.925
59551W        W31167  20.042  41.983   2.315
59552W        W31168   7.821  36.582  14.034
59553W        W31169  39.730  15.696   3.141
59554W        W31170  18.585  41.011   3.816
59555W        W31171  40.325   3.527   0.998
59556W        W31172  23.935  13.309   2.682
59557W        W31173  26.923  37.512  14.849
59558W        W31174  15.282  25.104   3.166
59559W        W31175  14.138  40.520   1.383
59560W        W31176  33.128  31.638   4.234
59561W        W31177  24.473   0.995   0.913
59562W        W31178   1.017  27.492   1.357
59563W        W31179  35.335  40.015   0.820
59564W        W31180  43.636  30.459  13.869
59565W        W31181  38.585   7.439  10.619
59566W        W31182  13.239  20.918   2.227
59567W        W31183  31.258  40.246  13.062
59568W        W31184  14.020  30.217   3.846
59569W        W31185  30.895   9.947  11.954
59570W        W31186   4.103  23.930  11.995
59571W        W31187  42.538   1.967  11.447
59572W        W31188  17.744  22.194  12.439
59573W        W31189  18.408   0.728  14.074
59574W        W31190   0.977  27.812  13.988
59575W        W31191   9.799   3.802  14.577
59576W        W31192   6.115  11.870   2.645
59577W        W31193  35.518  16.906  11.610
59578W        W31194  38.918  26.473   0.869
59579W        W31195  20.212  28.454  14.495
59580W        W31196  20.545  13.869  14.295
59581W        W31197  10.287  22.099   3.667
59582W        W31198  24.477  15.527  11.204
59583W        W31199  22.533  32.647   0.880
59584W        W31200  18.659  22.453  13.449
59585W        W31201  39.967   2.648   3.242
59586W        W31202  22.563  16.226   3.255
59587W        W31203  13.214  43.514   0.403
59588W        W31204  13.204  20.544  11.905
59589W        W31205   7.741   5.430   3.391
59590W        W31206   9.782  20.581   4.234
59591W        W31207   7.369  17.587   1.930
59592W        W31208  25.129  26.149   3.494
59593W        W31209   1.450   9.353   3.241
59594W        W31210  26.536  34.261   0.451
59595W        W31211  27.991  34.537   4.478
59596W        W31212  30.231  31.507   3.103
59597W        W31213  11.169  17.295  12.318
59598W        W31214   4.141  36.166   4.350
59599W        W31215  33.792  24.074  14.479
59600W        W31216  21.018   6.891   4.452
59601W        W31217  16.778   3.391   4.327
59602W        W31218  20.072  44.937   0.229
59603W        W31219  29.165  38.348  10.567
59604W        W31220  31.160  14.851   4.219
59605W        W31221  11.565   8.122  11.092
59606W        W31222   6.906  16.659   1.293
59607W        W31223  39.483   4.274   1.806
59608W        W31224  14.771  21.763  14.745
59609W        W31225  14.138  41.289   4.464
59610W        W31226  21.148  31.234  14.409
59611W        W31227  22.696  29.126   3.662
59612W        W31228  20.509  36.561  14.745
59613W        W31229  25.215   0.990  11.583
59614W        W31230  19.798  25.945  11.972
59615W        W31231  24.455  23.177  14.926
59616W        W31232  34.988   3.166   3.629
59617W        W31233  28.271  40.999   2.171
59618W        W31234  31.524   3.769   2.607
59619W        W31235  33.455  35.920   0.716
59620W        W31236   6.881  40.458   2.617
59621W        W31237  29.545   8.705  12.643
59622W        W31238  13.294  34.461  11.119
59623W        W31239  20.597  40.482  13.966
59624W        W31240  30.511   0.063  13.486
59625W        W31241  11.124   7.233   3.825
59626W        W31242   9.006  18.246   0.020
59627W        W31243  23.766   2.824   2.760
59628W        W31244  15.212   5.179   3.191
59629W        W31245  23.746  39.460   0.282
59630W        W31246   2.635   0.466  12.931
59631W        W31247  13.687  34.993   4.129
59632W        W31248  34.453  44.318   1.408
59633W        W31249  43.376  26.370   0.549
59634W        W31250  19.981  28.712   3.396
59635W        W31251  38.465   6.423  10.669
59636W        W31252  34.997  41.125  10.608
59637W        W31253   1.467   5.106   2.699
59638W        W31254  25.547   9.401   3.867
59639W        W31255  13.909  42.493  10.784
59640W        W31256  34.537   0.282   4.534
59641W        W31257  19.299  18.260  10.788
59642W        W31258  32.422   0.836  13.021
59643W        W31259  40.308  38.312   2.599
59644W        W31260  12.019   8.413   2.948
59645W        W31261   1.681  38.824  11.575
59646W        W31262  23.889  39.098  12.536
59647W        W31263  39.210  13.337   1.367
59648W        W31264  19.812  44.125   3.868
59649W        W31265  18.798  26.705   0.837
59650W        W31266  31.616  14.793   0.744
59651W        W31267   1.997   7.912   3.820
59652W        W31268  34.965  10.356   2.812
59653W        W31269   0.906  30.531   1.633
59654W        W31270   5.204   8.951  10.577
59655W        W31271  30.192  37.558   4.706
59656W        W31272  19.507  26.612  12.603
59657W        W31273   7.210   6.742   4.847
59658W        W31274   2.666  21.245   1.237
59659W        W31275  12.225   7.126  14.274
59660W        W31276  43.292  33.463   1.735
59661W        W31277  25.451   4.406   0.851
59662W        W31278  40.226  14.581   2.301
59663W        W31279  20.165   4.313  12.362
59664W        W31280  43.403  13.292  13.482
59665W        W31281   2.458  14.968  12.018
59666W        W31282  44.965  15.118  12.526
59667W        W31283  26.047  24.677  14.435
59668W        W31284  16.136  17.556  11.591
59669W        W31285  41.721  18.214  12.152
59670W        W31286  19.163  30.719  12.514
59671W        W31287  31.768   1.920  11.970
59672W        W31288  22.092  30.917   0.873
59673W        W31289  13.630  18.074   1.377
59674W        W31290  17.666  20.749  10.357
59675W        W31291  12.975  23.314  10.732
59676W        W31292  28.402   4.521  12.944
59677W        W31293  13.888  18.803   3.957
59678W        W31294  19.626   6.805   1.519
59679W        W31295  16.079   8.418   0.716
59680W        W31296  25.671  18.525   2.217
59681W        W31297  11.665  38.837   3.739
59682W        W31298   8.321  14.777  12.696
59683W        W31299   3.706  22.109   0.167
59684W        W31300  17.325  30.491  13.426
59685W        W31301   9.238  30.463   4.644
59686W        W31302  17.103  13.904  12.617
59687W        W31303  12.270  31.101   0.882
59688W        W31304  23.319  18.771  13.110
59689W        W31305   8.094  35.020   3.715
59690W        W31306  39.229  31.682   2.250
59691W        W31307   5.266   5.543  13.558
59692W        W31308  41.869  41.167  12.399
59693W        W31309   7.997  21.751  12.259
59694W        W31310  34.420  24.890   2.491
59695W        W31311  34.681  40.622   0.733
59696W        W31312  23.587  43.715  14.023
59697W        W31313   2.901   8.614  10.670
59698W        W31314  20.568  14.836  12.875
59699W        W31315  33.020  44.190   4.032
59700W        W31316   1.658   0.906   5.664
59701W        W31317  24.198  20.362   3.202
59702W        W31318  31.899  18.686  12.973
59703W        W31319  25.631  43.991   3.131
59704W        W31320  10.158  17.876   3.153
59705W        W31321   5.440   5.341   2.818
59706W        W31322   0.889  12.718   2.693
59707W        W31323  35.105   9.322   4.621
59708W        W31324  20.831   0.961  12.028
59709W        W31325  35.477  14.560   0.556
59710W        W31326  43.238  37.288   3.380
59711W        W31327  20.487  40.547  11.640
59712W        W31328  11.353  20.604  13.967
59713W        W31329   8.794  14.332   4.998
59714W        W31330  27.080  31.028   3.609
59715W        W31331  14.600  19.193  12.411
59716W        W31332  32.510  19.475  13.909
59717W        W31333  29.624  18.285  14.486
59718W        W31334  37.156  23.320  12.599
59719W        W31335   9.423  35.808   0.724
59720W        W31336  25.354  38.677   2.979
59721W        W31337  32.401  16.215   4.495
59722W        W31338  35.909  30.303  11.151
59723W        W31339  38.558   4.249   2.239
59724W        W31340  29.009   0.118  13.818
59725W        W31341  21.540   7.088  10.612
59726W        W31342  11.349  16.851  14.984
59727W        W31343  10.245  30.808  12.278
59728W        W31344  44.650   3.829   4.576
59729W        W31345  41.921  38.749  14.457
59730W        W31346  27.566   5.146   4.241
59731W        W31347  40.050  17.592   3.296
59732W        W31348   7.404  20.162  14.756
59733W        W31349  21.041  12.555   1.791
59734W        W31350  38.828  37.121   3.295
59735W        W31351   9.905  44.427  14.757
59736W        W31352  17.260  18.276  12.153
59737W        W31353  38.009  34.683   2.854
59738W        W31354   0.990   5.420   3.718
59739W        W31355   1.190  19.843   4.478
59740W        W31356  41.999  43.335   1.478
59741W        W31357   2.245  29.416  12.103
59742W        W31358  18.235  42.474  12.500
59743W        W31359  16.865   6.563   0.579
59744W        W31360  19.496  28.687   0.363
59745W        W31361  39.083  32.625  10.781
59746W        W31362  14.425  40.342   2.939
59747W        W31363  25.140  32.107  14.370
59748W        W31364  42.049  42.001  10.677
59749W        W31365  33.388  26.013  11.227
59750W        W31366   3.314  33.399  13.403
59751W        W31367   5.885   4.213  10.439
59752W        W31368   8.412  12.083   4.465
59753W        W31369  28.488   5.341   1.642
59754W        W31370  37.125  26.468   2.819
59755W        W31371  30.137   3.633  11.106
59756W        W31372  43.942  17.178   2.490
59757W        W31373   3.825  15.411  12.762
59758W        W31374  13.264   9.937   4.541
59759W        W31375  31.007  10.153  11.454
59760W        W31376   9.620  26.418   2.778
59761W        W31377   7.378  40.260   2.678
59762W        W31378  30.773  44.462   4.849
59763W        W31379  22.689  28.497   4.535
59764W        W31380  38.033  28.632  11.738
59765W        W31381  13.072  13.880  11.001
59766W        W31382  24.248  29.669  11.567
59767W        W31383  38.369  14.294   1.263
59768W        W31384   3.280  35.871   2.182
59769W        W31385   7.240  35.574  14.392
59770W        W31386   9.662  15.047  14.070
59771W        W31387  44.062  37.251  10.745
59772W        W31388  15.148  30.028   0.978
59773W        W31389  34.808  44.358  10.155
59774W        W31390  18.619  17.306   4.510
59775W        W31391  34.617  18.129   2.733
59776W        W31392   7.721  17.628  14.162
59777W        W31393  18.801   2.271   2.925
59778W        W31394  11.114   1.518   4.528
59779W        W31395  42.401  24.053   1.906
59780W        W31396  33.519  41.501  11.698
59781W        W31397  41.993  28.689  14.510
59782W        W31398  42.881   7.250  14.311
59783W        W31399  40.842  43.794  11.948
59784W        W31400  10.194  36.486   0.641
59785W        W31401  41.759  32.978  14.277
59786W        W31402   9.576  25.783  10.550
59787W        W31403  34.905  22.033   1.009
59788W        W31404  27.355  10.922   1.881
59789W        W31405  35.375  33.568   1.364
59790W        W31406  21.554   2.514   4.330
59791W        W31407  28.619  15.166  14.675
59792W        W31408  37.600  33.937  14.004
59793W        W31409   6.854   4.652  14.296
59794W        W31410  26.016  24.549   3.945
59795W        W31411  37.390   1.845  10.590
59796W        W31412  11.319  43.299  10.688
59797W        W31413   9.177   5.597   1.736
59798W        W31414  36.438  27.224   4.124
59799W        W31415  36.134   8.349   0.392
59800W        W31416   8.826  16.188  12.545
59801W        W31417  21.900  41.393  12.956
59802W        W31418  14.306  17.352  12.443
59803W        W31419  27.720   2.877  11.933
59804W        W31420   9.271  38.864  14.510
59805W        W31421  43.283   2.838  12.818
59806W        W31422  23.912   5.379  13.328
59807W        W31423  27.686  33.370  13.933
59808W        W31424  27.661   0.224  10.847
59809W        W31425  28.945  13.791   1.941
59810W        W31426  12.794  20.090  14.942
59811W        W31427  19.526  28.509  12.553
59812W        W31428  25.207  16.757  14.943
59813W        W31429   0.756  14.611   3.247
59814W        W31430  29.402  26.945   0.833
59815W        W31431  42.433   2.649   1.872
59816W        W31432  38.850  43.734  13.618
59817W        W31433  37.745  34.182   4.581
59818W        W31434  18.218  33.231   4.092
59819W        W31435  36.396  28.252   4.123
59820W        W31436  29.554  33.436   4.570
59821W        W31437  10.423  18.762   3.731
59822W        W31438  23.494  32.389   2.389
59823W        W31439  27.043  34.262   2.046
59824W        W31440  11.365  29.049   2.906
59825W        W31441  42.752   7.150  13.510
59826W        W31442  14.307   7.657   1.382
59827W        W31443  23.138  32.177  13.791
59828W        W31444  32.065  19.577   3.090
59829W        W31445  14.301  25.001   2.480
59830W        W31446   9.129  18.604   3.629
59831W        W31447   7.320  29.181  14.462
59832W        W31448   7.880  44.305  13.338
59833W        W31449  21.869  36.614   3.486
59834W        W31450   0.434  14.675   1.330
59835W        W31451   2.192  24.772   0.967
59836W        W31452  35.627   1.722   3.646
59837W        W31453  35.416  30.221  11.200
59838W        W31454  19.674  33.968  11.199
59839W        W31455  35.315  44.013   1.447
59840W        W31456  27.231   5.752   0.265
59841W        W31457   2.493  41.271   3.101
59842W        W31458  38.791  12.755  13.690
59843W        W31459   2.785   9.220   3.469
59844W        W31460  34.910  40.581  13.624
59845W        W31461  35.626  12.293   1.390
59846W        W31462  39.490   9.877  13.848
59847W        W31463  24.150  10.622  12.294
59848W        W31464   5.207   5.664   1.399
59849W        W31465  41.275  12.813   3.669
59850W        W31466  16.758  31.048   3.682
59851W        W31467   0.263   2.200  14.345
59852W        W31468  29.646  34.283   3.392
59853W        W31469   7.928  24.599  10.928
59854W        W31470   3.886  19.830   0.816
59855W        W31471  13.308  38.046  14.255
59856W        W31472  32.916  40.289  11.514
59857W        W31473  22.177  18.812   3.674
59858W        W31474  38.846   5.437  12.052
59859W        W31475  14.823  19.038   2.735
59860W        W31476  22.970  26.455  11.119
59861W        W31477  13.900   6.730   2.424
59862W        W31478  20.211  11.617   2.374
59863W        W31479  42.537  31.701  14.887
59864W        W31480  11.094  41.981  12.021
59865W        W31481  40.259  40.951   1.442
59866W        W31482  36.769  20.054  12.796
59867W        W31483  36.703  17.355  12.099
59868W        W31484  41.108   9.268  14.900
59869W        W31485  15.136  14.538   0.468
59870W        W31486  42.847  35.442  13.282
59871W        W31487  29.754  20.947  13.150
59872W        W31488  42.188  30.361  14.283
59873W        W31489  21.531  21.034  14.476
59874W        W31490   1.280  39.025  12.447
59875W        W31491  23.500  25.171  12.917
59876W        W31492   1.975   0.198  13.664
59877W        W31493   9.602  38.956  12.849
59878W        W31494  23.179   6.172  11.520
59879W        W31495   2.349  26.715   1.491
59880W        W31496  36.200  25.467   2.319
59881W        W31497  28.980  20.519   0.537
59882W        W31498   5.938  24.732  12.257
59883W        W31499  12.937   5.996  14.490
59884W        W31500  33.568  19.942  12.865
59885W        W31501  43.796   4.739   3.319
59886W        W31502   0.754  23.752   4.013
59887W        W31503  39.994  10.274   1.924
59888W        W31504   6.420  38.892  11.568
59889W        W31505  38.525  15.117  13.434
59890W        W31506  23.164   7.818  10.551
59891W        W31507  35.311   1.201  12.906
59892W        W31508  20.320  22.833  13.964
59893W        W31509  23.048   7.358  10.804
59894W        W31510  25.795  28.408   4.112
59895W        W31511  13.667   7.886   0.532
59896W        W31512  20.156  15.917   3.820
59897W        W31513  42.766  31.305  11.255
59898W        W31514  15.122   5.735  14.429
59899W        W31515  11.194   5.756   0.426
59900W        W31516  39.476  20.393   2.334
59901W        W31517  39.794  32.007  10.368
59902W        W31518  14.288   8.396   1.738
59903W        W31519  24.701  20.435  12.459
59904W        W31520  14.566  16.583   0.029
59905W        W31521  32.955   8.108  12.913
59906W        W31522  35.554   0.725  12.921
59907W        W31523  39.997   2.208  10.757
59908W        W31524   4.383  14.901  11.066
59909W        W31525  34.161  42.580  11.934
59910W        W31526  20.927   4.174  13.846
59911W        W31527  32.122  33.581  11.577
59912W        W31528  23.753  30.690  11.109
59913W        W31529  32.593  11.262  13.434
59914W        W31530  11.711   5.614   1.151
59915W        W31531  12.166   0.254  13.096
59916W        W31532   1.722  17.610   1.956
59917W        W31533  28.407  13.627   3.730
59918W        W31534  15.033  31.438  13.020
59919W        W31535  21.216  25.226   2.238
59920W        W31536  15.744  14.657  14.922
59921W        W31537  26.437  17.162  12.256
59922W        W31538  13.181   8.417   3.642
59923W        W31539  37.806  41.067  12.304
59924W        W31540  33.192  26.116   3.617
59925W        W31541  26.937  30.570   1.516
59926W        W31542  22.138  26.334   2.700
59927W        W31543  15.286   8.603   3.291
59928W        W31544  17.361  32.440  14.084
59929W        W31545  43.999  16.769   1.441
59930W        W31546  40.288  33.075   3.525
59931W        W31547  19.548  20.409   1.110
59932W        W31548  24.507  18.963  13.467
59933W        W31549   9.937  15.082  11.852
59934W        W31550  33.531  28.450   2.435
59935W        W31551  43.349  23.687  11.620
59936W        W31552   8.677  22.385   4.151
59937W        W31553  20.135  43.826  10.007
59938W        W31554  28.111  40.910  11.135
59939W        W31555   9.502  12.691   3.255
59940W        W31556   9.876   0.787   2.770
59941W        W31557  43.376  41.969   3.337
59942W        W31558   6.016   5.994   2.757
59943W        W31559  12.071  12.167  14.241
59944W        W31560  43.241  38.446  11.540
59945W        W31561  31.327  19.292   2.846
59946W        W31562  16.695  22.768   3.218
59947W        W31563  43.313  42.231   4.323
59948W        W31564  15.703  36.865  12.907
59949W        W31565  22.278  32.413  13.835
59950W        W31566  23.120  14.073   4.579
59951W        W31567  38.706  11.567  13.920
59952W        W31568  32.393  22.143   4.647
59953W        W31569  15.788  20.280  14.388
59954W        W31570  23.045   0.810   3.549
59955W        W31571  23.117   4.258   3.701
59956W        W31572   7.496   4.000  13.123
59957W        W31573  24.131  43.602  14.777
59958W        W31574  27.873  12.900  10.785
59959W        W31575  15.306  29.524   3.170
59960W        W31576  22.493   7.851   1.435
59961W        W31577  35.078  44.450  14.726
59962W        W31578   7.347   4.980   2.256
59963W        W31579  11.295  18.545   4.680
59964W        W31580  34.607  20.061   3.219
59965W        W31581  36.900  31.411   3.765
59966W        W31582  11.637  36.432  10.409
59967W        W31583  38.313   5.282  10.884
59968W        W31584  21.281  23.462   4.238
59969W        W31585   9.741  25.012  14.444
59970W        W31586  32.898  13.647  14.884
59971W        W31587  27.470   8.724   4.075
59972W        W31588  11.202  17.630  13.457
59973W        W31589  15.059  18.195  11.895
59974W        W31590  40.866   3.624  12.832
59975W        W31591  22.771  44.373   4.571
59976W        W31592  24.435  32.031  10.600
59977W        W31593  28.077  41.477  14.850
59978W        W31594  20.247  17.687   0.381
59979W        W31595  11.150  25.257  13.001
59980W        W31596  22.536  31.637   2.741
59981W        W31597  39.798  37.414   1.837
59982W        W31598  26.919  18.609  14.852
59983W        W31599  30.446   3.757   2.327
59984W        W31600   3.966  23.311  12.047
59985W        W31601  31.654  15.809  14.838
59986W        W31602  24.235  23.758  13.940
59987W        W31603  27.743  25.207  14.054
59988W        W31604   4.969  23.395   1.413
59989W        W31605   9.237  43.471   2.740
59990W        W31606  37.420  32.595  12.545
59991W        W31607  33.186  34.077   1.229
59992W        W31608  27.883  11.210   1.836
59993W        W31609  39.487  18.635   4.618
59994W        W31610  11.616  21.661  13.816
59995W        W31611  29.247  23.271  14.359
59996W        W31612  18.136   4.667   2.354
59997W        W31613  36.506  37.532  10.704
59998W        W31614  40.306   3.348  14.777
59999W        W31615   5.739  27.581  13.486
60000W        W31616   5.494  22.650   1.334
60001W        W31617   4.341   0.366  10.606
60002W        W31618   7.334  33.956  12.895
60003W        W31619  20.797  32.175  11.933
60004W        W31620  35.035  32.401   0.420
60005W        W31621  26.464  23.233   4.258
60006W        W31622  31.877  29.122  11.387
60007W        W31623  16.270  42.844   3.474
60008W        W31624  30.266  19.661   3.163
60009W        W31625  23.301   5.873  12.400
60010W        W31626  32.476  37.036   2.633
60011W        W31627  19.744   6.276   3.278
60012W        W31628  21.305  31.386  11.581
60013W        W31629  13.720  30.558  13.065
60014W        W31630  41.545  42.475   2.289
60015W        W31631  26.629   2.356  14.588
60016W        W31632   7.458  12.838   3.627
60017W        W31633  34.508   7.016  12.953
60018W        W31634   3.439  41.996   5.207
60019W        W31635  14.810  23.071   4.592
60020W        W31636  26.787  12.971   1.751
60021W        W31637  39.063  21.232  13.854
60022W        W31638  23.294  11.549  12.906
60023W        W31639  19.270   9.548  14.371
60024W        W31640  44.759  36.872   0.066
60025W        W31641   7.391  20.191   3.255
60026W        W31642  19.808  28.909  12.739
60027W        W31643  14.356  36.710  10.718
60028W        W31644   0.760   8.554  12.418
60029W        W31645  10.078  43.069   1.818
60030W        W31646   7.182   1.773   2.439
60031W        W31647  16.067   2.201   2.213
60032W        W31648  37.948   8.608   1.218
60033W        W31649  16.441  34.903   4.743
60034W        W31650  32.450   3.743  11.155
60035W        W31651   8.817  44.233   5.199
60036W        W31652   5.504  38.069   0.970
60037W        W31653  12.223  11.416   4.233
60038W        W31654  40.465   0.525   3.764
60039W        W31655  24.550  12.911  13.173
60040W        W31656  38.337   5.390  11.908
60041W        W31657  13.656  36.286   2.806
60042W        W31658  10.849   5.587  11.855
60043W        W31659   7.168  18.011   0.400
60044W        W31660  14.286   6.578   5.511
60045W        W31661   7.413  32.872   3.192
60046W        W31662  44.518  41.988  11.583
60047W        W31663  39.918  22.722  12.321
60048W        W31664  41.304  22.692  13.246
60049W        W31665  27.039  42.817  10.521
60050W        W31666   6.959  13.167  13.927
60051W        W31667  42.108   7.072   0.485
60052W        W31668  15.744  12.130  12.687
60053W        W31669  33.974   7.417  10.657
60054W        W31670  37.950   2.336   3.299
60055W        W31671  12.532  23.762  13.006
60056W        W31672  23.910   2.808  14.344
60057W        W31673  23.493  15.635  11.627
60058W        W31674  15.617   8.832   1.443
60059W        W31675  35.314  25.395   0.491
60060W        W31676  15.596   9.849   4.670
60061W        W31677  42.684  24.948   2.430
60062W        W31678  39.931  22.497   1.503
60063W        W31679  31.221  21.484   4.256
60064W        W31680  37.573  29.540  10.879
60065W        W31681  38.799  38.033  11.066
60066W        W31682  12.205  44.247   1.743
60067W        W31683  34.460   5.009  11.387
60068W        W31684  34.864  21.297   5.106
60069W        W31685  32.882  11.866   3.159
60070W        W31686   6.951  12.368  14.569
60071W        W31687  43.738  18.987   1.302
60072W        W31688  43.115   0.922  11.204
60073W        W31689   4.479  15.148   4.074
60074W        W31690  37.075  22.610  11.111
60075W        W31691  30.105  39.907  12.512
60076W        W31692  33.518  44.792  12.959
60077W        W31693  12.803   8.859  14.202
60078W        W31694   8.943  35.898  13.471
60079W        W31695   7.210  37.713   3.986
60080W        W31696   4.393  35.855   1.019
60081W        W31697  43.822   6.461   1.772
60082W        W31698  37.546  41.372  12.625
60083W        W31699  17.255  28.966   2.263
60084W        W31700  12.266  17.908   0.371
60085W        W31701  18.803  24.147   1.708
60086W        W31702  40.988  34.321  12.511
60087W        W31703  23.086  36.116   4.563
60088W        W31704  36.351  38.874  11.135
60089W        W31705   4.657  10.094   2.417
60090W        W31706  20.033  10.419  10.734
60091W        W31707  35.957  38.494  13.312
60092W        W31708  44.348  32.424  10.724
60093W        W31709  11.895  43.468   4.243
60094W        W31710   6.242   8.435   3.688
60095W        W31711  24.173  30.989  14.010
60096W        W31712  22.466  14.639  14.340
60097W        W31713   9.682  12.384  14.315
60098W        W31714  32.425  39.816  12.002
60099W        W31715   6.493   5.885  13.809
60100W        W31716  23.760  35.624   3.726
60101W        W31717  42.344  42.468  11.482
60102W        W31718  29.923  22.606   2.853
60103W        W31719  41.924   7.165  12.153
60104W        W31720  26.622  39.503   2.407
60105W        W31721  37.548   0.321   1.754
60106W        W31722  31.609  13.039  12.006
60107W        W31723  33.383  40.530  11.503
60108W        W31724  22.660  35.441   4.473
60109W        W31725  21.981   2.513   2.183
60110W        W31726  36.042  29.104   1.223
60111W        W31727  22.632  42.956  14.723
60112W        W31728  28.018  16.714  12.073
60113W        W31729  14.694  35.788  12.953
60114W        W31730   5.956   5.255  12.019
60115W        W31731  20.167  38.845   4.835
60116W        W31732  37.980   9.690  10.767
60117W        W31733  27.784  35.730   4.723
60118W        W31734  42.732  34.589  11.851
60119W        W31735  12.070  40.548  14.903
60120W        W31736  29.368  29.552   4.170
60121W        W31737  20.838  42.597   2.291
60122W        W31738  17.761   8.748  10.617
60123W        W31739  19.841  10.062   3.408
60124W        W31740   0.435   8.715  13.402
60125W        W31741  32.610  30.948   2.710
60126W        W31742  15.033  40.603   2.279
60127W        W31743  22.229  16.095   4.015
60128W        W31744  42.457   4.509   2.163
60129W        W31745  18.322  42.111  13.946
60130W        W31746  26.616  35.548  13.031
60131W        W31747  17.155  36.351  12.869
60132W        W31748  42.335   6.360  14.319
60133W        W31749  18.335  39.113  10.931
60134W        W31750  26.421  33.171  10.691
60135W        W31751  14.113   1.970   0.691
60136W        W31752  38.992  34.938  11.012
60137W        W31753  35.745  14.456  14.477
60138W        W31754  40.990  35.305  13.399
60139W        W31755  20.334  38.823   0.862
60140W        W31756  36.961   9.139   3.230
60141W        W31757  19.626  16.504  11.637
60142W        W31758  21.644  30.133  13.934
60143W        W31759  13.664  39.971   3.232
60144W        W31760  40.953   8.508  10.550
60145W        W31761  13.074  36.868  11.171
60146W        W31762   0.986  14.522  13.103
60147W        W31763  25.467   7.318  14.750
60148W        W31764  18.606   6.913  10.531
60149W        W31765  19.207  30.088   3.890
60150W        W31766  34.631  36.387  14.505
60151W        W31767   7.603  25.027   4.196
60152W        W31768   8.486  18.263   4.082
60153W        W31769  43.357   3.482   2.157
60154W        W31770  40.976   5.843   3.720
60155W        W31771  16.592   9.858   4.996
60156W        W31772  15.808  34.161  13.348
60157W        W31773  44.004  40.919  10.582
60158W        W31774  35.140  24.424   3.719
60159W        W31775  34.952  34.900   1.810
60160W        W31776  21.266  28.904   2.641
60161W        W31777  24.413  23.029   0.680
60162W        W31778  15.232  19.078   1.886
60163W        W31779  34.284   7.120  12.045
60164W        W31780  14.686  10.158  12.973
60165W        W31781  22.261  32.954  11.041
60166W        W31782  34.818  20.755   0.297
60167W        W31783  34.678   1.972   2.768
60168W        W31784  44.719  12.624   1.319
60169W        W31785  29.659   4.266   2.432
60170W        W31786  20.539  14.674   4.048
60171W        W31787  16.619   8.110   2.766
60172W        W31788  15.173   5.660  10.198
60173W        W31789  26.638  31.534   3.295
60174W        W31790   2.779  35.994   0.123
60175W        W31791  38.890  14.141   4.496
60176W        W31792  42.940   0.785  14.283
60177W        W31793   4.617  32.666   3.197
60178W        W31794  40.062   2.367  12.757
60179W        W31795  21.970  30.146   4.308
60180W        W31796  10.916   9.772   4.605
60181W        W31797   1.695  11.058  13.023
60182W        W31798  40.906  12.167   3.245
60183W        W31799   3.872   5.051   3.665
60184W        W31800  41.812  19.466   4.574
60185W        W31801  23.456  39.167  11.742
60186W        W31802  27.335   5.242  10.753
60187W        W31803   8.090  17.078  11.604
60188W        W31804  19.309  38.155   3.694
60189W        W31805  13.410  41.808   0.278
60190W        W31806  17.468   9.773  11.066
60191W        W31807   0.824  19.254  11.976
60192W        W31808  31.116   9.804   1.978
60193W        W31809  13.883  18.043   5.089
60194W        W31810  28.669  20.331  13.887
60195W        W31811  23.027  34.832  14.504
60196W        W31812  44.190  33.184   0.751
60197W        W31813  25.352   3.439  14.894
60198W        W31814   1.208  17.595   1.753
60199W        W31815  13.187  23.063   4.926
60200W        W31816  25.543   3.392  13.535
60201W        W31817  32.557  29.878  12.533
60202W        W31818   9.168  14.512  11.565
60203W        W31819  27.679  24.604   3.145
60204W        W31820  26.157  24.182   4.871
60205W        W31821  36.337   7.103  13.948
60206W        W31822  28.418  12.269   4.196
60207W        W31823   1.538  38.386   2.291
60208W        W31824  43.775  33.165  13.052
60209W        W31825   1.285   0.154  10.500
60210W        W31826  41.355   5.427   2.675
60211W        W31827  39.719  13.862   3.346
60212W        W31828   1.311  28.139   4.616
60213W        W31829   7.506  21.111   1.014
60214W        W31830  11.048  28.901  13.071
60215W        W31831  32.412  11.963  14.003
60216W        W31832  32.513  29.640   4.653
60217W        W31833  34.932  18.249   3.155
60218W        W31834  25.592  17.594   4.620
60219W        W31835   3.466  11.546   1.409
60220W        W31836   8.110   7.115  10.752
60221W        W31837  20.255   7.451   4.305
60222W        W31838   6.385  30.668   1.948
60223W        W31839   0.349  12.377  13.504
60224W        W31840  44.745  18.386   2.918
60225W        W31841  38.605  13.304   5.353
60226W        W31842  36.137  39.367  10.448
60227W        W31843  34.339  23.280  14.971
60228W        W31844  37.986  21.626  12.620
60229W        W31845   4.776  40.391   1.802
60230W        W31846   5.195  34.975   2.263
60231W        W31847   3.980  19.305   3.613
60232W        W31848   8.530  42.773   2.647
60233W        W31849  44.226  25.365  11.996
60234W        W31850  29.970  25.241   4.530
60235W        W31851  41.969  24.688  11.990
60236W        W31852  15.067  30.140   3.198
60237W        W31853  25.066   9.404  12.510
60238W        W31854  42.958  14.250   2.391
60239W        W31855  18.802   8.676  12.123
60240W        W31856  11.765  23.243  14.927
60241W        W31857  44.307   3.496  11.978
60242W        W31858  10.288  15.139  14.543
60243W        W31859   6.229  22.787   2.223
60244W        W31860  11.302   6.426  13.029
60245W        W31861  41.208  28.359  11.101
60246W        W31862   8.124  20.420  12.587
60247W        W31863  22.264   4.313   4.902
60248W        W31864   6.122  35.931   1.015
60249W        W31865  41.939   1.269  14.932
60250W        W31866  34.560  22.373   4.683
60251W        W31867  25.121  23.998  14.330
60252W        W31868  19.381   7.672   0.353
60253W        W31869  14.575  14.811   3.003
60254W        W31870  26.675   5.867  11.041
60255W        W31871   3.201  21.257   1.291
60256W        W31872  12.305  33.312  13.935
60257W        W31873  39.338   3.412   2.012
60258W        W31874   1.933  11.593   1.378
60259W        W31875   3.407   7.354   3.577
60260W        W31876  19.927   3.889   2.677
60261W        W31877  41.979  17.585   4.173
60262W        W31878  36.612  24.727   0.864
60263W        W31879  26.191  18.262  10.708
60264W        W31880   6.996  17.156   2.172
60265W        W31881   1.761  23.610  11.122
60266W        W31882  11.801  18.566   4.639
60267W        W31883   3.232  20.490  14.258
60268W        W31884  13.845  31.986   4.440
60269W        W31885  35.405  23.239  12.196
60270W        W31886  28.058   2.636  13.328
60271W        W31887   7.937  34.540   0.849
60272W        W31888   0.860  16.805  14.398
60273W        W31889  32.494  40.064   1.050
60274W        W31890  36.393  17.190  13.994
60275W        W31891  17.271   2.342  10.263
60276W        W31892   5.733   3.827   1.346
60277W        W31893  42.610  19.691  13.925
60278W        W31894  30.861  12.741   0.786
60279W        W31895   1.252  21.436  11.644
60280W        W31896  16.652   1.469   4.068
60281W        W31897   0.667  13.309  12.019
60282W        W31898  41.936  15.227   2.199
60283W        W31899  23.419  35.066   2.725
60284W        W31900  25.675   2.342  12.509
60285W        W31901  19.868  37.320   5.127
60286W        W31902   2.950  15.156   2.705
60287W        W31903  14.682   9.848   2.317
60288W        W31904  36.715  39.991  12.310
60289W        W31905  16.557  42.337   1.251
60290W        W31906  12.033  21.205   1.623
60291W        W31907  42.419  10.288   0.253
60292W        W31908   6.093   3.290  13.512
60293W        W31909  38.318  18.564  12.971
60294W        W31910  36.129  12.316  13.572
60295W        W31911   6.225  28.013  13.813
60296W        W31912  29.046  32.618  11.311
60297W        W31913  37.321  36.055  11.377
60298W        W31914  24.144  40.282   2.889
60299W        W31915  27.657  21.825  12.001
60300W        W31916   3.504  29.595  11.505
60301W        W31917  38.748  14.203   5.328
60302W        W31918   2.330  36.874  12.447
60303W        W31919  21.133   7.218   0.453
60304W        W31920  19.497  13.965   4.223
60305W        W31921  24.734   7.407  11.558
60306W        W31922  17.736  17.066   0.085
60307W        W31923  27.591  15.325   2.071
60308W        W31924  31.510  19.471  11.404
60309W        W31925  19.195  17.216   2.910
60310W        W31926  21.086  16.223  12.485
60311W        W31927   3.362  25.058   4.981
60312W        W31928  27.545  28.049  12.364
60313W        W31929   0.839   1.035   2.866
60314W        W31930  10.758  21.452  10.484
60315W        W31931   0.136  20.473  11.049
60316W        W31932  38.319  29.797   0.438
60317W        W31933  38.131   1.495   0.415
60318W        W31934  16.821  19.254  12.942
60319W        W31935  42.967   9.572  14.336
60320W        W31936  26.161  25.563  12.655
60321W        W31937  31.511  23.884  13.841
60322W        W31938  22.660  32.578   2.887
60323W        W31939  24.246  10.342   5.168
60324W        W31940   8.290   3.481  11.689
60325W        W31941   4.463   9.418  12.169
60326W        W31942  28.094  43.640   0.490
60327W        W31943  42.240  11.168   4.179
60328W        W31944  15.372  27.504   0.320
60329W        W31945  35.426  19.319  14.402
60330W        W31946  36.111  17.677  14.879
60331W        W31947  14.155  13.681   4.042
60332W        W31948  29.983  24.015  11.454
60333W        W31949  30.513   7.747   4.880
60334W        W31950  32.007  26.959   3.110
60335W        W31951  30.632   7.326  10.933
60336W        W31952  42.330  40.148   2.820
60337W        W31953  26.843  25.999  11.479
60338W        W31954  40.510  27.872  14.860
60339W        W31955  38.422  29.949   3.470
60340W        W31956  42.896  42.955  14.810
60341W        W31957   5.217  19.932   1.523
60342W        W31958   6.945  39.925   2.392
60343W        W31959  22.675  41.799  12.029
60344W        W31960  33.064   8.840  14.450
60345W        W31961  17.809  23.530   4.960
60346W        W31962  31.162   6.624  11.199
60347W        W31963  34.977  15.776  13.651
60348W        W31964   0.931  22.039   3.222
60349W        W31965  26.876  37.126   3.364
60350W        W31966  24.599  24.169   5.067
60351W        W31967   2.213  33.219  13.845
60352W        W31968  23.007  17.805   1.639
60353W        W31969  44.384  36.337   0.477
60354W        W31970  22.621  39.076   3.206
60355W        W31971  35.942  30.090  13.796
60356W        W31972   2.194   4.038   1.691
60357W        W31973  26.460  38.377  14.060
60358W        W31974  12.274  40.485   2.886
60359W        W31975  10.190  40.958  13.617
60360W        W31976  10.324  20.573  11.975
60361W        W31977  27.357  16.260  14.817
60362W        W31978  38.318  12.146  12.840
60363W        W31979  25.901  13.160   0.869
60364W        W31980  30.054   3.314  12.600
60365W        W31981  33.071   4.193  12.408
60366W        W31982  44.755   2.817   3.343
60367W        W31983  37.377   3.769  14.717
60368W        W31984  44.587  19.130   3.406
60369W        W31985   6.089  34.015  11.416
60370W        W31986  32.097  42.260  11.110
60371W        W31987  28.609  35.573  14.098
60372W        W31988   4.666  15.682   0.767
60373W        W31989  44.391   4.207  10.797
60374W        W31990  23.578  37.814  12.906
60375W        W31991  40.964  11.911  13.055
60376W        W31992  28.883  10.157   3.727
60377W        W31993  37.025  33.443   4.558
60378W        W31994  35.045   3.891   2.335
60379W        W31995  20.223  36.618   1.609
60380W        W31996  34.118   9.599   1.487
60381W        W31997  21.588   9.187  14.402
60382W        W31998  27.349  36.529   4.641
60383W        W31999   7.037  10.232  13.365
60384W        W32000  20.698  44.697   3.200
60385W        W32001  30.840  21.470  11.644
60386W        W32002   5.347  12.645   1.395
60387W        W32003   7.819  11.813   2.358
60388W        W32004  30.222  22.918   1.070
60389W        W32005   7.453  36.882  10.979
60390W        W32006   7.262  23.032  13.722
60391W        W32007  13.254  27.222   4.593
60392W        W32008  25.254  20.246   4.620
60393W        W32009  30.463  30.429   1.152
60394W        W32010  14.751  26.626  13.723
60395W        W32011  34.643  11.884  10.724
60396W        W32012   3.181  32.997   0.425
60397W        W32013   3.870   6.390  11.209
60398W        W32014   3.284  42.952  13.006
60399W        W32015  22.484  11.209   2.230
60400W        W32016  38.914  39.315  12.074
60401W        W32017  21.268  21.170   3.635
60402W        W32018  31.342   0.428   0.838
60403W        W32019  32.023  32.009   3.271
60404W        W32020  23.080   0.292   3.764
60405W        W32021  43.839  14.611   0.471
60406W        W32022   7.252   8.679   2.984
60407W        W32023  30.589  35.597  14.950
60408W        W32024   7.296  13.425   4.316
60409W        W32025   9.819  11.903  14.403
60410W        W32026  26.222  33.075   4.226
60411W        W32027   5.410  18.315  14.960
60412W        W32028  30.418  38.847  12.029
60413W        W32029  29.949  37.968  12.995
60414W        W32030  33.940   5.813  11.896
60415W        W32031   9.188  26.606   0.526
60416W        W32032  44.794  29.134  13.076
60417W        W32033  26.173   2.085   4.555
60418W        W32034  29.855  16.646  10.702
60419W        W32035  17.679   1.264   0.836
60420W        W32036  20.598   1.038  12.501
60421W        W32037  31.836  24.491   4.688
60422W        W32038  37.296  35.934  14.580
60423W        W32039  38.892   4.625   2.648
60424W        W32040  23.954  12.127  12.551
60425W        W32041  17.848  33.945   0.693
60426W        W32042  23.001  43.329   1.884
60427W        W32043  29.080  40.853   4.090
60428W        W32044  41.710  40.029   0.371
60429W        W32045  23.146  25.973  12.045
60430W        W32046  31.169   3.400   1.469
60431W        W32047  13.178  14.559  13.413
60432W        W32048  30.103  40.377  12.308
60433W        W32049  14.199  42.528   4.146
60434W        W32050  11.787  41.049   0.333
60435W        W32051  11.594  21.927   2.287
60436W        W32052   8.284   2.852  12.353
60437W        W32053   2.519  10.342  14.280
60438W        W32054  11.181   4.692  11.983
60439W        W32055  39.499  18.177  12.861
60440W        W32056  17.052  22.508  14.525
60441W        W32057  31.222  17.243  10.308
60442W        W32058   2.900  22.622   0.461
60443W        W32059   4.815  37.031   0.338
60444W        W32060  22.203   1.307  10.917
60445W        W32061  16.591  33.138   4.150
60446W        W32062  15.711   4.710   1.281
60447W        W32063   7.486  15.206  11.053
60448W        W32064   1.094  31.237  14.374
60449W        W32065  33.216  14.853  13.459
60450W        W32066  41.014  18.261   1.423
60451W        W32067   1.863   8.689   2.430
60452W        W32068   3.098   0.796   4.065
60453W        W32069  43.392  20.350   0.383
60454W        W32070  30.103  32.908   3.354
60455W        W32071  39.639  12.577   2.315
60456W        W32072  29.665   5.741  11.656
60457W        W32073  11.825   9.828  13.975
60458W        W32074  16.595  36.908   2.823
60459W        W32075  35.588  24.561  14.916
60460W        W32076  39.474  24.531  13.094
60461W        W32077  37.585  22.744   4.180
60462W        W32078   6.213   8.789  10.918
60463W        W32079  36.647  27.371   2.829
60464W        W32080   3.284  30.373   1.391
60465W        W32081  36.965   6.312  11.994
60466W        W32082  28.595  41.346   2.381
60467W        W32083  20.503  39.692   4.532
60468W        W32084  25.123  29.978   0.223
60469W        W32085  40.249  22.199   4.684
60470W        W32086  10.562  11.389   1.075
60471W        W32087  28.016  34.658  12.159
60472W        W32088  37.333  35.318   1.238
60473W        W32089  10.649   9.229  13.908
60474W        W32090  10.829  23.518   4.538
60475W        W32091  38.375  12.152  11.102
60476W        W32092   4.650  17.370   2.759
60477W        W32093  43.805   2.248  11.928
60478W        W32094  16.487  13.113   4.149
60479W        W32095  24.108   8.710   2.705
60480W        W32096  42.810  39.193  11.334
60481W        W32097  24.616  39.077   2.420
60482W        W32098  11.726   6.318  13.316
60483W        W32099  43.909  20.082  14.691
60484W        W32100  13.996  35.583  12.556
60485W        W32101  38.938  30.955  10.397
60486W        W32102   0.523   4.243   3.127
60487W        W32103  40.970  42.344  12.926
60488W        W32104   3.632  23.721  12.050
60489W        W32105  25.970  35.982   4.835
60490W        W32106  14.238  44.611   0.348
60491W        W32107  27.599  17.942  11.099
60492W        W32108  16.310  26.788  10.482
60493W        W32109  22.441   4.227   4.254
60494W        W32110  25.854   6.250  13.580
60495W        W32111  25.525   7.661   3.442
60496W        W32112  21.344  41.729  12.368
60497W        W32113  31.601  20.772  14.918
60498W        W32114   9.879  18.245   2.826
60499W        W32115   8.925  13.353  14.071
60500W        W32116  41.441  10.587   0.777
60501W        W32117   5.387  32.075  13.361
60502W        W32118  25.344  28.179  10.636
60503W        W32119  11.004  13.192   1.273
60504W        W32120  23.901   4.264  12.084
60505W        W32121  16.294  18.805   3.711
60506W        W32122  26.892  33.330  12.891
60507W        W32123   7.964  39.406  12.136
60508W        W32124   2.847  24.870  13.087
60509W        W32125   9.291  15.251   3.636
60510W        W32126  28.560  38.503   2.746
60511W        W32127   5.919  35.300  10.728
60512W        W32128   9.620  39.330   0.380
60513W        W32129  14.218   1.821   2.722
60514W        W32130   8.223  33.547  14.699
60515W        W32131  17.526  44.762  10.167
60516W        W32132  38.538  36.854   0.330
60517W        W32133  36.487   9.093   3.795
60518W        W32134  27.673   9.466   0.425
60519W        W32135  27.721   5.925   2.975
60520W        W32136   8.911  44.237  14.834
60521W        W32137  28.495  35.823   4.010
60522W        W32138  38.339  42.455   4.467
60523W        W32139  20.135  17.915  13.870
60524W        W32140  28.495  43.002  12.631
60525W        W32141  37.175  42.109   4.308
60526W        W32142   5.902   9.800   1.265
60527W        W32143  19.032  38.203   4.542
60528W        W32144  26.586   0.738   3.237
60529W        W32145  31.572  32.121  12.501
60530W        W32146  11.103  31.826   2.733
60531W        W32147  42.611   4.810   2.580
60532W        W32148   0.191   3.965   2.852
60533W        W32149  17.817  36.090   0.889
60534W        W32150  29.302  21.419   5.079
60535W        W32151   4.257  15.441  11.935
60536W        W32152  40.227   5.384   4.079
60537W        W32153  42.500  13.161  14.455
60538W        W32154  43.351  16.340  13.036
60539W        W32155  40.277  15.650  10.632
60540W        W32156  15.812  36.412  14.905
60541W        W32157   7.902  32.380  13.374
60542W        W32158  39.843  40.811  14.590
60543W        W32159   9.351  31.043   2.753
60544W        W32160  33.461  28.139  14.974
60545W        W32161  40.441  37.043   4.139
60546W        W32162  44.689  30.149  12.040
60547W        W32163   4.256  11.298  12.054
60548W        W32164  40.411   0.854   0.481
60549W        W32165   0.114   1.193  11.867
60550W        W32166   6.652  29.629  12.630
60551W        W32167  33.490  27.098  13.025
60552W        W32168   4.738  26.631   3.084
60553W        W32169  20.492  28.601  11.665
60554W        W32170  17.326   2.540   3.504
60555W        W32171  23.569  13.834  14.694
60556W        W32172  21.297  18.251   2.181
60557W        W32173  20.408  42.367   0.329
60558W        W32174  43.410   9.274   4.505
60559W        W32175  43.426   6.848  13.051
60560W        W32176  28.003   8.335   3.206
60561W        W32177  27.876  25.980  11.525
60562W        W32178  36.626  26.215  10.617
60563W        W32179  43.988  37.382  12.032
60564W        W32180  16.571  20.313   0.478
60565W        W32181  10.318  26.698  12.367
60566W        W32182  25.577  12.453  10.576
60567W        W32183  43.731  33.997   0.110
60568W        W32184  23.630  28.017   3.690
60569W        W32185  14.739  17.516   0.429
60570W        W32186   1.124  39.181   1.423
60571W        W32187   2.426   8.696   1.557
60572W        W32188  33.788  30.108   4.798
60573W        W32189  14.631   2.305  13.845
60574W        W32190  34.156  26.177   3.249
60575W        W32191  13.987  28.402  11.644
60576W        W32192  13.492   8.667   5.024
60577W        W32193  11.602  19.018   2.755
60578W        W32194   4.975  37.072  11.596
60579W        W32195  41.517  26.558  12.009
60580W        W32196  20.034  42.639  14.461
60581W        W32197  40.745  33.859  11.883
60582W        W32198  37.467  13.181   2.534
60583W        W32199  25.869   6.758  12.875
60584W        W32200   8.199  35.344  13.353
60585W        W32201   9.084  20.215  13.487
60586W        W32202  44.757  33.465  12.525
60587W        W32203  42.968  40.843  10.464
60588W        W32204  19.348  43.704   2.469
60589W        W32205   7.485  22.837   4.140
60590W        W32206  20.168  21.619   1.041
60591W        W32207  18.125   6.511   2.370
60592W        W32208  27.056  38.529   0.708
60593W        W32209  25.881   3.419   3.339
60594W        W32210  10.597  41.894  14.824
60595W        W32211   4.330   5.665  11.078
60596W        W32212  41.157  21.924  12.025
60597W        W32213  14.578  31.674  13.788
60598W        W32214   8.360  20.689  11.916
60599W        W32215  12.657  15.838  14.403
60600W        W32216   2.427  36.514  10.360
60601W        W32217  23.532   9.641  13.647
60602W        W32218  24.491  19.018   3.605
60603W        W32219  19.062  27.615   2.411
60604W        W32220  11.156   1.766   0.898
60605W        W32221  40.494  26.968  13.608
60606W        W32222   7.282   5.336   1.217
60607W        W32223   4.906  27.851   3.193
60608W        W32224   4.862  14.803   1.495
60609W        W32225  27.084  34.363   1.541
60610W        W32226  29.464  36.811  14.865
60611W        W32227  37.353   2.154   1.405
60612W        W32228  15.830  26.020  14.034
60613W        W32229  30.804  12.709   4.959
60614W        W32230  35.377   1.449  12.420
60615W        W32231  13.319  37.675  14.615
60616W        W32232  22.481  14.339  11.668
60617W        W32233  29.414  32.505   1.386
60618W        W32234  41.522  11.008  13.066
60619W        W32235  15.842  39.013  12.060
60620W        W32236  32.722  42.148  11.561
60621W        W32237   5.211  35.472   3.658
60622W        W32238   4.524  20.845   5.047
60623W        W32239  32.801  12.202  14.254
60624W        W32240   3.821  29.887   4.784
60625W        W32241  19.202  42.015  11.156
60626W        W32242   0.925  28.441   3.719
60627W        W32243   8.619  36.692  14.337
60628W        W32244  39.592   5.441   1.271
60629W        W32245  35.270  11.123   2.473
60630W        W32246   8.797   0.725  14.924
60631W        W32247  28.772  11.092  11.133
60632W        W32248  41.532   3.251   3.397
60633W        W32249  35.958  12.527  10.045
60634W        W32250  26.536   5.090  11.416
60635W        W32251  30.704   9.969  14.003
60636W        W32252  34.144  12.548   5.005
60637W        W32253   6.368  23.542  14.881
60638W        W32254  27.703  26.661   3.190
60639W        W32255   2.541  15.077   4.210
60640W        W32256  40.883  18.093  14.129
60641W        W32257  18.562  38.982  14.363
60642W        W32258  17.762  16.881   3.741
60643W        W32259  14.659  34.644  12.074
60644W        W32260  40.260   5.261   2.822
60645W        W32261   2.609   5.881  12.024
60646W        W32262   1.254  13.547  13.336
60647W        W32263  35.028  18.781  13.638
60648W        W32264   6.292  38.410  10.923
60649W        W32265   9.158   6.157  14.275
60650W        W32266  14.475  39.385  14.672
60651W        W32267   3.914   3.432  10.486
60652W        W32268  18.257   9.262   1.794
60653W        W32269  36.621  17.767  13.369
60654W        W32270  14.514  33.987  14.506
60655W        W32271  28.131   1.207  14.723
60656W        W32272  19.552   9.072  13.002
60657W        W32273  37.529  16.671   2.641
60658W        W32274  42.914  21.612  14.386
60659W        W32275  21.622  29.059   1.743
60660W        W32276  27.100  28.180  12.632
60661W        W32277  34.492   5.189   1.529
60662W        W32278  35.295  28.145  14.677
60663W        W32279  39.440  36.920   4.394
60664W        W32280  11.082  22.587   4.596
60665W        W32281  26.609  23.052   2.768
60666W        W32282  28.916   7.377   3.321
60667W        W32283   7.506  36.820   0.584
60668W        W32284  12.020  33.724  13.004
60669W        W32285   2.407  31.666   0.445
60670W        W32286  13.226  21.660  11.907
60671W        W32287  29.680  17.292   1.838
60672W        W32288   8.987  12.662   3.359
60673W        W32289  16.656   9.447  11.944
60674W        W32290  35.960  38.827   4.636
60675W        W32291  17.966  35.979   4.602
60676W        W32292  14.701  20.481   4.119
60677W        W32293   1.932  34.864  14.400
60678W        W32294   2.049   9.160  10.478
60679W        W32295  20.275   1.383   3.497
60680W        W32296   5.796  44.067  11.406
60681W        W32297  40.077  20.025   1.721
60682W        W32298  24.218  20.567   1.323
60683W        W32299  21.988  36.066  11.981
60684W        W32300  44.406   0.700   0.474
60685W        W32301  42.798  23.911  13.874
60686W        W32302  29.657   0.353  14.522
60687W        W32303  33.677   1.223  10.389
60688W        W32304  18.964   9.750   4.146
60689W        W32305  36.380  18.646  12.025
60690W        W32306  41.029  41.162  14.791
60691W        W32307  17.559  26.962   0.695
60692W        W32308  32.081  23.114   2.423
60693W        W32309  39.753  37.326   3.178
60694W        W32310  17.149  16.635  14.445
60695W        W32311  14.811  41.238  12.044
60696W        W32312   0.556   9.238  10.621
60697W        W32313   8.327   8.637   3.354
60698W        W32314  11.365  39.422  11.921
60699W        W32315  29.007  25.111  14.580
60700W        W32316  33.631  13.164   1.807
60701W        W32317   9.911  18.674  11.887
60702W        W32318   7.678  31.007   4.908
60703W        W32319  19.100  16.684   4.024
60704W        W32320   6.763  39.411   1.608
60705W        W32321  24.931   7.730   3.686
60706W        W32322  35.039  15.095   0.782
60707W        W32323  35.686  39.290  10.704
60708W        W32324  26.113  35.072  11.587
60709W        W32325  38.155  44.699   2.915
60710W        W32326  36.479  30.135  13.604
60711W        W32327  24.456  29.593   1.806
60712W        W32328  33.935  44.916   4.175
60713W        W32329   9.569  32.989  13.851
60714W        W32330   4.429  40.116   1.526
60715W        W32331   7.780  27.636   0.496
60716W        W32332  33.454  10.627   4.111
60717W        W32333  25.001   6.903  14.030
60718W        W32334   6.034  29.875   1.954
60719W        W32335  30.454  27.713  12.966
60720W        W32336  40.974  39.770  11.158
60721W        W32337  26.891   5.715  13.955
60722W        W32338  22.870  23.653   1.964
60723W        W32339  22.452  35.909  10.676
60724W        W32340  39.399  24.241   1.359
60725W        W32341   6.134  41.249   4.731
60726W        W32342  37.983  28.175  13.057
60727W        W32343  14.151  15.126   0.971
60728W        W32344  11.360  29.583   3.765
60729W        W32345  22.122  16.542   3.146
60730W        W32346   0.909  37.595   3.749
60731W        W32347   5.637  37.639  13.937
60732W        W32348  24.520  31.490   2.789
60733W        W32349  33.947  11.131  11.703
60734W        W32350  26.113  32.629  11.617
60735W        W32351  24.227  41.732   4.149
60736W        W32352   6.977  30.160  14.866
60737W        W32353  11.435  10.126  10.962
60738W        W32354  41.061  39.804   2.201
60739W        W32355   8.101  11.322  13.070
60740W        W32356  18.975   3.929   4.193
60741W        W32357   6.810  27.403  12.600
60742W        W32358   4.021   7.704   2.165
60743W        W32359  19.345  36.631  12.595
60744W        W32360   0.634  10.347  11.105
60745W        W32361   9.477  38.361  13.877
60746W        W32362   7.544  24.590  14.483
60747W        W32363   6.473  35.492   3.489
60748W        W32364  36.756   7.850   1.005
60749W        W32365  28.449   5.739  14.442
60750W        W32366  20.223   7.875  12.969
60751W        W32367  21.594   2.949  13.163
60752W        W32368  20.055  11.245  12.949
60753W        W32369  23.305  20.511  11.123
60754W        W32370  19.164  14.691   4.458
60755W        W32371   3.700  10.784  14.968
60756W        W32372  13.591   4.714   0.781
60757W        W32373  11.655  23.069   2.402
60758W        W32374  35.314   3.867   1.891
60759W        W32375  13.187  33.044  12.020
60760W        W32376   2.127   5.429   1.819
60761W        W32377  18.655  22.221   1.908
60762W        W32378  20.255   1.634   4.030
60763W        W32379  38.750   0.759  13.380
60764W        W32380  13.887   9.695  12.026
60765W        W32381   7.838   3.680   1.420
60766W        W32382  14.200  30.699   0.567
60767W        W32383   5.883   4.693  13.361
60768W        W32384   4.475   0.314   1.877
60769W        W32385  30.415  27.633  12.061
60770W        W32386  29.777   6.550  10.028
60771W        W32387  15.326  37.743   1.009
60772W        W32388  40.752  23.283   0.793
60773W        W32389  34.411  14.131  11.543
60774W        W32390  26.919  35.240  10.106
60775W        W32391  41.882  12.355  11.465
60776W        W32392  32.068  13.681  12.544
60777W        W32393  44.580  14.214  11.617
60778W        W32394   1.894  42.280  14.830
60779W        W32395  19.792  21.550  10.835
60780W        W32396  10.228  34.023   3.215
60781W        W32397   0.738  25.812  13.968
60782W        W32398  30.463   0.173  14.887
60783W        W32399   8.866  33.852  14.894
60784W        W32400  15.108  34.292   4.711
60785W        W32401  37.960  42.516  11.963
60786W        W32402  14.711  33.540  12.870
60787W        W32403   0.512  26.370  13.183
60788W        W32404  11.585  31.052  11.510
60789W        W32405  37.120   3.698  12.540
60790W        W32406   6.900  43.876  12.850
60791W        W32407  24.220  22.533  11.602
60792W        W32408  24.157  21.713  12.411
60793W        W32409  32.554  27.633  14.273
60794W        W32410  25.660  26.631  13.585
60795W        W32411  13.102  18.078  11.224
60796W        W32412  33.471  13.240   3.612
60797W        W32413  34.147  34.082  10.884
60798W        W32414  36.435  40.862  11.100
60799W        W32415  20.205  14.753  11.616
60800W        W32416  32.494  10.438  13.992
60801W        W32417  13.664   4.959   1.197
60802W        W32418  10.782  31.814  13.285
60803W        W32419  27.352  31.367   4.602
60804W        W32420  17.476  15.556  14.032
60805W        W32421  11.931  14.335  14.519
60806W        W32422  17.618  17.625  14.222
60807W        W32423  26.705  28.959   0.689
60808W        W32424  44.514   4.088   4.152
60809W        W32425   5.889  25.432  12.996
60810W        W32426  21.161  26.995  13.331
60811W        W32427  10.086   3.229  11.978
60812W        W32428  14.284  24.909   1.520
60813W        W32429  11.054  13.058  11.987
60814W        W32430  32.653  18.123  14.386
60815W        W32431  34.706  23.516   0.295
60816W        W32432  31.123  27.391  10.733
60817W        W32433  42.675  38.479  10.278
60818W        W32434  27.946  35.334   4.038
60819W        W32435  43.942  28.368  11.938
60820W        W32436  11.214   9.326   4.538
60821W        W32437   5.335  44.540   9.836
60822W        W32438  28.882   8.487  13.079
60823W        W32439   6.313  37.601  10.455
60824W        W32440   3.352   1.286   3.136
60825W        W32441  34.020  34.495  13.520
60826W        W32442  26.992  25.735   2.314
60827W        W32443  21.726   5.736  14.701
60828W        W32444   6.940  13.667  12.757
60829W        W32445  22.077  42.124   4.597
60830W        W32446  38.853  34.708  13.449
60831W        W32447  15.121  20.995  13.880
60832W        W32448   8.675  13.305   0.753
60833W        W32449  22.796  39.344   0.398
60834W        W32450  28.542   8.117   4.829
60835W        W32451   5.080  12.751  13.332
60836W        W32452  28.545  23.115   3.232
60837W        W32453  23.751  35.652   4.740
60838W        W32454  24.192   0.488   0.350
60839W        W32455   5.629  26.175  14.844
60840W        W32456  19.627  36.988   3.201
60841W        W32457  43.569  43.862  14.327
60842W        W32458  13.795   7.577  10.439
60843W        W32459   3.522  16.274  12.615
60844W        W32460   9.859   5.873  10.696
60845W        W32461  32.556  42.539   4.359
60846W        W32462  12.542   6.628  13.333
60847W        W32463  15.354  18.637  10.795
60848W        W32464  23.132  19.218   3.553
60849W        W32465   8.328  33.080  14.507
60850W        W32466   2.963   4.962  12.069
60851W        W32467  28.174  35.105   3.636
60852W        W32468  25.733  30.645  14.748
60853W        W32469  13.596  13.231   3.181
60854W        W32470  37.765  43.486  10.489
60855W        W32471  30.396   6.114  11.256
60856W        W32472  10.134  38.925   4.500
60857W        W32473  18.433  12.068   4.140
60858W        W32474  35.623  15.361   4.252
60859W        W32475   9.709  33.551  13.059
60860W        W32476  34.905  34.582  14.365
60861W        W32477  18.536  16.667  14.892
60862W        W32478  32.882  29.864   3.376
60863W        W32479  16.747  44.093   5.057
60864W        W32480  22.569  26.667  13.575
60865W        W32481  14.307  15.136   4.342
60866W        W32482  44.780  35.148  12.516
60867W        W32483  26.412  10.039   4.966
60868W        W32484  38.942  40.349  13.112
60869W        W32485  36.374  25.941  14.884
60870W        W32486  20.569  44.827  11.049
60871W        W32487  16.075  37.023   0.914
60872W        W32488  23.945  25.916   2.789
60873W        W32489  20.673  19.158   1.809
60874W        W32490  19.601  40.961   4.029
60875W        W32491  12.360  32.717  12.913
60876W        W32492   1.210  24.577   1.713
60877W        W32493  23.749  27.156  12.016
60878W        W32494   1.389  17.180   3.591
60879W        W32495  18.813  42.999   2.815
60880W        W32496  32.920  42.773   4.730
60881W        W32497   1.411  40.987  10.671
60882W        W32498  18.065  18.121   4.137
60883W        W32499   9.213  30.136   1.384
60884W        W32500  44.389   0.711   3.814
60885W        W32501  10.471  30.850   1.860
60886W        W32502  25.824   3.944   4.567
60887W        W32503  16.300  32.123   4.102
60888W        W32504  35.453  20.856  13.954
60889W        W32505  12.613  26.762  11.397
60890W        W32506  29.421  42.101   4.178
60891W        W32507  38.305  17.802  11.193
60892W        W32508  22.033  17.475   9.948
60893W        W32509  40.033  19.199   1.257
60894W        W32510  19.580  35.905  12.967
60895W        W32511  18.126  16.330  13.067
60896W        W32512   4.369  25.925   0.941
60897W        W32513  31.668  43.441  10.559
60898W        W32514   2.767  29.443   2.195
60899W        W32515  21.719  18.076  10.601
60900W        W32516   0.235  34.450   1.856
60901W        W32517  42.360   3.866   4.724
60902W        W32518  24.377  30.900   3.663
60903W        W32519  33.591   5.191   4.108
60904W        W32520  16.782  27.638  13.013
60905W        W32521  38.424   9.324   4.201
60906W        W32522  22.150  17.848   0.935
60907W        W32523  20.850  17.115   4.394
60908W        W32524  17.694  29.559  12.012
60909W        W32525  36.902  40.784  12.841
60910W        W32526  18.726   4.906  12.379
60911W        W32527  43.779  35.580   0.306
60912W        W32528  30.622  27.945   2.746
60913W        W32529  33.686  33.161   1.269
60914W        W32530  32.605  22.603   0.274
60915W        W32531  34.787  21.669   3.727
60916W        W32532  17.120   6.242   3.265
60917W        W32533   5.165   5.762   4.046
60918W        W32534   9.414  19.565   3.748
60919W        W32535  13.578   1.731  11.133
60920W        W32536  38.419  23.414  12.911
60921W        W32537  29.085  13.306  12.876
60922W        W32538  26.056  30.411  12.487
60923W        W32539  10.990  41.560   1.533
60924W        W32540  24.925  30.030   4.622
60925W        W32541  22.899  43.417   4.239
60926W        W32542   6.339   0.369   1.397
60927W        W32543  16.304  39.027   1.353
60928W        W32544   0.870  20.762   2.175
60929W        W32545  28.790  21.628   4.140
60930W        W32546  14.350  15.628   0.823
60931W        W32547  30.138  35.443   2.224
60932W        W32548  37.201  41.729  13.051
60933W        W32549  42.971   3.556   4.717
60934W        W32550  36.433  17.036  14.959
60935W        W32551  13.536   6.850   0.966
60936W        W32552  40.417  24.850   2.259
60937W        W32553  24.909  21.396  14.869
60938W        W32554  18.272   2.390   2.196
60939W        W32555  36.334  30.121  12.084
60940W        W32556  15.368  43.320   4.100
60941W        W32557  38.042  13.152   3.739
60942W        W32558  44.499  10.587  14.375
60943W        W32559  10.783  21.066   1.633
60944W        W32560  38.994   4.577   3.653
60945W        W32561  23.713  33.332   1.499
60946W        W32562  19.619   7.732  10.431
60947W        W32563  27.535  39.996   4.739
60948W        W32564  17.960  19.512  13.535
60949W        W32565  41.888  17.124  12.946
60950W        W32566  26.115  39.383  14.539
60951W        W32567  16.633  11.365   3.930
60952W        W32568  10.081  43.990   1.025
60953W        W32569  22.601  37.960  13.952
60954W        W32570  30.584   7.198  12.829
60955W        W32571  41.281  27.871  13.723
60956W        W32572   7.982  11.092  11.127
60957W        W32573  40.563  12.662   1.751
60958W        W32574   0.979  42.899  14.486
60959W        W32575  23.640  18.026   4.630
60960W        W32576  26.729  24.062  12.909
60961W        W32577  31.159   0.434   4.570
60962W        W32578  14.797  10.671  10.692
60963W        W32579  20.363   8.274   3.834
60964W        W32580  15.852   4.311  13.452
60965W        W32581  26.052  11.611  11.661
60966W        W32582  13.252   7.636   0.258
60967W        W32583  24.343  18.829   1.386
60968W        W32584  30.902  10.900  12.070
60969W        W32585  26.728  13.710  11.255
60970W        W32586  28.583  34.096  13.290
60971W        W32587   3.392   5.269  10.723
60972W        W32588  12.037  22.053   1.021
60973W        W32589   8.594  31.867  12.434
60974W        W32590  43.355   5.789   3.751
60975W        W32591  40.693  33.180   3.815
60976W        W32592  36.633  11.191   4.535
60977W        W32593  28.699  33.616  13.976
60978W        W32594  43.409  42.718  13.050
60979W        W32595  22.601  28.661   2.780
60980W        W32596   8.869  40.610  14.223
60981W        W32597   5.427   8.011   4.969
60982W        W32598  34.937  12.286  10.575
60983W        W32599  33.548  44.755   0.433
60984W        W32600  37.282   6.763  11.348
60985W        W32601  12.273  16.175   3.625
60986W        W32602  11.231  38.735  13.436
60987W        W32603   6.321  23.044  12.333
60988W        W32604  22.945  25.264  14.254
60989W        W32605  26.525  17.089   3.882
60990W        W32606  13.496  44.471  14.953
60991W        W32607   1.754   5.121   4.150
60992W        W32608  12.262  11.086   0.154
60993W        W32609   3.324  43.058  11.434
60994W        W32610  44.742  25.097  12.846
60995W        W32611  25.203  39.973   3.700
60996W        W32612  22.662  43.309   1.467
60997W        W32613  44.944  14.177   4.058
60998W        W32614  35.048  42.420   3.308
60999W        W32615  14.167  39.799  12.036
61000W        W32616   6.394   8.068   0.974
61001W        W32617  44.891  31.788   2.212
61002W        W32618  34.565  30.403   0.998
61003W        W32619  27.173  18.181   1.059
61004W        W32620   0.418   8.035  11.223
61005W        W32621  44.845  18.244   1.422
61006W        W32622  10.366  30.109   4.512
61007W        W32623  40.061  18.104  11.569
61008W        W32624   0.173  30.993  12.133
61009W        W32625  13.080  31.610  14.932
61010W        W32626   9.855   6.895   1.944
61011W        W32627  18.009  36.641   0.886
61012W        W32628  22.522   3.443   2.806
61013W        W32629  22.933  40.283   3.668
61014W        W32630  36.010  17.037  11.000
61015W        W32631   6.300   6.004   3.202
61016W        W32632   3.540  28.683  14.138
61017W        W32633   9.515  11.156   3.510
61018W        W32634  24.893  44.403  13.848
61019W        W32635  13.184  26.478   4.124
61020W        W32636  22.772  13.756   2.820
61021W        W32637  29.630  42.316  14.445
61022W        W32638  40.235  19.134  14.696
61023W        W32639  40.318   1.327   2.380
61024W        W32640   9.958  34.841  10.783
61025W        W32641  20.036  41.765  11.932
61026W        W32642  30.883  14.146  10.796
61027W        W32643  21.600  16.309  12.414
61028W        W32644  38.309  10.714  11.140
61029W        W32645   0.779  16.323  11.574
61030W        W32646  28.625  38.547   4.768
61031W        W32647   8.871  18.264  11.177
61032W        W32648  19.277  27.652  13.882
61033W        W32649  35.059  23.784  12.912
61034W        W32650  28.084  11.362   1.322
61035W        W32651   3.284   1.112   5.685
61036W        W32652   5.249  35.570  11.130
61037W        W32653  19.921  12.698  14.361
61038W        W32654  12.093  23.069   1.641
61039W        W32655  42.463   7.725   3.358
61040W        W32656   2.762   4.375  13.910
61041W        W32657  21.355  34.533   3.685
61042W        W32658   6.234  38.521   2.801
61043W        W32659   8.803  38.265   5.018
61044W        W32660   4.785  22.347   0.622
61045W        W32661   7.838   7.809   1.028
61046W        W32662  29.495  17.109  12.621
61047W        W32663   7.153  19.732   3.182
61048W        W32664  27.132  14.533   1.014
61049W        W32665  44.042   7.495  13.985
61050W        W32666  25.817  17.751  12.411
61051W        W32667  32.477  43.809  14.458
61052W        W32668  14.363  20.057  14.906
61053W        W32669  12.086  15.151  11.215
61054W        W32670  16.164  29.943  12.467
61055W        W32671  32.052  20.995  14.851
61056W        W32672  35.088  19.798   4.422
61057W        W32673  21.748  16.640  14.745
61058W        W32674  25.626  16.565   1.196
61059W        W32675  34.001  32.688  10.920
61060W        W32676  14.179  15.809  12.468
61061W        W32677  19.519   6.878  14.581
61062W        W32678  13.700  41.268  13.806
61063W        W32679  30.654  12.745   3.120
61064W        W32680  15.115   4.768  14.383
61065W        W32681  17.739  22.275  10.672
61066W        W32682  21.628  40.055   2.329
61067W        W32683   1.390  44.356   3.898
61068W        W32684   2.310   5.737   2.639
61069W        W32685  18.372  17.519   3.345
61070W        W32686  37.339  20.670   3.898
61071W        W32687  19.232  27.765  12.858
61072W        W32688  27.170   6.193  13.560
61073W        W32689   5.379   4.192   1.116
61074W        W32690  33.439  17.224  13.834
61075W        W32691  31.141  31.004   4.833
61076W        W32692   2.960  44.338  12.189
61077W        W32693  17.221  42.526   1.750
61078W        W32694   0.066  37.067   4.478
61079W        W32695  26.617  20.730   2.936
61080W        W32696  33.534  24.502   4.401
61081W        W32697  40.097  27.025   4.103
61082W        W32698  31.463  20.067  10.532
61083W        W32699  22.108  24.749  10.802
61084W        W32700  35.154  18.096   2.732
61085W        W32701  11.195  12.094  11.139
61086W        W32702  33.928   0.277   5.150
61087W        W32703   7.571  42.000  11.798
61088W        W32704  10.407   5.259   1.362
61089W        W32705  26.316   6.261  13.387
61090W        W32706   5.762  12.173  11.491
61091W        W32707  41.468  44.396   4.443
61092W        W32708  10.526  32.965   2.299
61093W        W32709  42.032  27.179   1.404
61094W        W32710  23.634  22.227   0.962
61095W        W32711  14.358  20.117  11.487
61096W        W32712  41.779  44.957   3.675
61097W        W32713   9.412  40.542   4.065
61098W        W32714   1.423  37.498  12.145
61099W        W32715  33.043  38.651   4.551
61100W        W32716   4.802  28.383  11.231
61101W        W32717   4.537   2.089  14.269
61102W        W32718  26.555  10.888  13.476
61103W        W32719  21.461  11.955  13.782
61104W        W32720  19.665  44.181  12.666
61105W        W32721  39.615  11.582   3.238
61106W        W32722  17.393  15.171  13.574
61107W        W32723   0.342  42.768   0.432
61108W        W32724  21.533  26.953  11.054
61109W        W32725  21.051  30.413   4.876
61110W        W32726  33.036  36.066  12.989
61111W        W32727  10.714  31.805  10.905
61112W        W32728  14.177   8.597   0.318
61113W        W32729   6.873  40.769   1.916
61114W        W32730  40.640  41.083   4.569
61115W        W32731  16.636  18.191  12.813
61116W        W32732  31.709  27.329  13.307
61117W        W32733  20.680  39.619   1.435
61118W        W32734  22.752  32.863  12.010
61119W        W32735   9.934  22.022   2.731
61120W        W32736  29.055  32.352   0.456
61121W        W32737  35.857  40.962   1.379
61122W        W32738  15.754  11.756  13.067
61123W        W32739  14.377  28.581  14.190
61124W        W32740  35.135  15.468   4.563
61125W        W32741  37.275  20.463  13.897
61126W        W32742   5.894  11.833   3.370
61127W        W32743   0.705  44.967   1.797
61128W        W32744  15.245  26.524  10.706
61129W        W32745   2.465  31.651  12.590
61130W        W32746  13.172   3.994  14.147
61131W        W32747  21.581  16.329   1.623
61132W        W32748  12.608  26.239   3.745
61133W        W32749  41.146  29.173  10.686
61134W        W32750  40.311  23.508   0.971
61135W        W32751  21.999   0.693   1.904
61136W        W32752   7.873  39.446   0.737
61137W        W32753   6.974  27.018   1.056
61138W        W32754   9.540  17.145  10.714
61139W        W32755  43.930  26.810   2.842
61140W        W32756  31.875   0.957  13.739
61141W        W32757  13.091  17.570   1.889
61142W        W32758  36.225  30.492  13.919
61143W        W32759  15.352  14.237  12.935
61144W        W32760  33.235  20.765   4.133
61145W        W32761  17.678  40.496   0.974
61146W        W32762  19.647   1.237  11.587
61147W        W32763  10.554   7.710  14.818
61148W        W32764  28.521   6.741  12.054
61149W        W32765  23.681   4.272   0.414
61150W        W32766   1.777  35.088   1.166
61151W        W32767  31.855   0.651  14.858
61152W        W32768   1.415  37.084  12.492
61153W        W32769  34.514  18.812  11.015
61154W        W32770   0.615  21.800   5.634
61155W        W32771  43.541  15.196   3.359
61156W        W32772  28.155  17.074  10.231
61157W        W32773  25.543  26.379  14.004
61158W        W32774   5.491   1.483  12.963
61159W        W32775  29.457  25.933  14.869
61160W        W32776   8.903  14.138  12.382
61161W        W32777  21.475  38.370   1.388
61162W        W32778  23.540   2.277  11.094
61163W        W32779  42.861  38.581   0.389
61164W        W32780   7.663  44.018   3.667
61165W        W32781  16.364   4.205  13.376
61166W        W32782  17.846  25.212  14.157
61167W        W32783   1.899  29.419  12.632
61168W        W32784  18.157  16.297  12.216
61169W        W32785  30.945   5.953   0.793
61170W        W32786  32.042   4.882  13.607
61171W        W32787  39.561  18.741  13.935
61172W        W32788   4.891  44.873   1.398
61173W        W32789  41.407  17.810   1.717
61174W        W32790  21.588  19.140   4.324
61175W        W32791  19.221  36.556  11.658
61176W        W32792  29.843  40.241   4.326
61177W        W32793  41.572  44.030  13.522
61178W        W32794  36.257  12.820   1.831
61179W        W32795  15.828  39.743   0.056
61180W        W32796  14.016  37.106   4.161
61181W        W32797  12.560  34.344  10.515
61182W        W32798  17.195  17.775   3.665
61183W        W32799  43.408  29.859   1.795
61184W        W32800  27.703   3.399  12.316
61185W        W32801  12.466  14.667  14.056
61186W        W32802  13.245  33.473  13.995
61187W        W32803   6.243  42.391  12.547
61188W        W32804   8.292  34.467  14.755
61189W        W32805  44.264  30.605  12.710
61190W        W32806   7.574  11.745  13.963
61191W        W32807   5.264  24.177  11.441
61192W        W32808   7.247  27.828   3.333
61193W        W32809   4.505  28.479  11.657
61194W        W32810  19.500   8.815   1.703
61195W        W32811  24.970   2.491   0.040
61196W        W32812  26.447   3.559  11.507
61197W        W32813  10.910  24.382  14.944
61198W        W32814   8.777  31.023  11.884
61199W        W32815  24.113  13.879   1.712
61200W        W32816  31.890  24.212  14.053
61201W        W32817   7.413  29.919  12.013
61202W        W32818  26.381  11.895   1.297
61203W        W32819  29.966  30.881  13.484
61204W        W32820  32.673  21.337   3.585
61205W        W32821  36.604  18.318   3.169
61206W        W32822  19.287  41.772   3.624
61207W        W32823  14.191  11.683  11.278
61208W        W32824  20.171  40.706  10.540
61209W        W32825  38.222  22.010   4.366
61210W        W32826   3.312   0.907  13.284
61211W        W32827  30.875  26.759   2.396
61212W        W32828  35.529  26.137  14.296
61213W        W32829   7.829  39.485  14.839
61214W        W32830  41.864   0.666  14.953
61215W        W32831   1.310   4.679  12.595
61216W        W32832   8.370  39.043   2.246
61217W        W32833  32.230  16.320   0.377
61218W        W32834  17.722  15.554   2.688
61219W        W32835  41.092  43.588  12.380
61220W        W32836   1.077  29.146  10.566
61221W        W32837  17.711   9.382  14.536
61222W        W32838  37.830  25.897  14.801
61223W        W32839  21.014  10.427  11.353
61224W        W32840   4.245  29.051   4.485
61225W        W32841  31.510   4.926   3.657
61226W        W32842  43.568  41.927   0.497
61227W        W32843  19.570  24.515   0.362
61228W        W32844  28.131  12.583  12.465
61229W        W32845  36.499  42.998   2.901
61230W        W32846  27.011  38.022   0.858
61231W        W32847  18.881  28.109  13.012
61232W        W32848  37.970  43.002  12.313
61233W        W32849  21.585   5.681  11.472
61234W        W32850   4.494  40.938   0.281
61235W        W32851  13.693   8.761   4.112
61236W        W32852  12.871  34.417   1.211
61237W        W32853   5.392  19.502   2.822
61238W        W32854   0.789  16.963  10.285
61239W        W32855  23.468  14.018   3.303
61240W        W32856  23.003  41.403  12.123
61241W        W32857  18.572  33.616  14.266
61242W        W32858  31.460  32.071   4.460
61243W        W32859  37.237  42.485  13.941
61244W        W32860  22.277  25.462   4.444
61245W        W32861  26.117   8.860  12.771
61246W        W32862  14.301   5.797   0.335
61247W        W32863  42.410  38.742   2.650
61248W        W32864  23.313  18.221   1.470
61249W        W32865  26.662  16.634   3.648
61250W        W32866  28.114  10.366  13.472
61251W        W32867  25.094   8.937   1.915
61252W        W32868  36.896  33.383  13.913
61253W        W32869  22.000  16.248   2.711
61254W        W32870  10.036  34.916   2.655
61255W        W32871  10.776  35.802   4.312
61256W        W32872  13.552  16.928   3.666
61257W        W32873  35.196  26.909  12.844
61258W        W32874   8.850  17.164   2.270
61259W        W32875  33.690  32.629   2.859
61260W        W32876  19.445  24.530  11.985
61261W        W32877  23.957  20.906  12.115
61262W        W32878  39.352  40.040   0.756
61263W        W32879   5.805  26.592   4.379
61264W        W32880  24.687  33.879   3.382
61265W        W32881   2.210   8.733  10.918
61266W        W32882  28.418  12.366  14.508
61267W        W32883  23.482  34.902  13.918
61268W        W32884  17.742  12.908  13.492
61269W        W32885  10.847  24.632   3.182
61270W        W32886  13.151  34.395  14.014
61271W        W32887  40.866  16.828  12.427
61272W        W32888  36.085   1.983   2.757
61273W        W32889  23.294   0.897   3.104
61274W        W32890  21.119  39.786  10.623
61275W        W32891   6.769   1.191  13.037
61276W        W32892  20.547  18.686  14.789
61277W        W32893  29.265  35.764  12.303
61278W        W32894  25.481  20.131   0.295
61279W        W32895  33.499   3.812   3.745
61280W        W32896  35.511  11.296   1.649
61281W        W32897  22.735  42.349   1.444
61282W        W32898   5.759  10.895  10.673
61283W        W32899  30.641  42.747   3.180
61284W        W32900   2.960  37.295   2.200
61285W        W32901  33.044   8.216  11.927
61286W        W32902  36.641  24.164  12.539
61287W        W32903  33.890  14.096   2.796
61288W        W32904  25.742  40.462   2.102
61289W        W32905  36.496  21.026  11.005
61290W        W32906   3.749  31.673   0.303
61291W        W32907   6.247   4.097   3.822
61292W        W32908  37.000  24.143   3.586
61293W        W32909   6.132  29.642  12.534
61294W        W32910  41.956   6.103  11.679
61295W        W32911  36.513  29.389   5.080
61296W        W32912  35.923  21.009   0.519
61297W        W32913  25.714  39.413   1.298
61298W        W32914  39.941  14.051   1.430
61299W        W32915  39.348  29.523   3.177
61300W        W32916  44.499  14.244   4.635
61301W        W32917   2.826  20.758   3.508
61302W        W32918  15.274  44.714   2.728
61303W        W32919   1.411   6.934   0.455
61304W        W32920  35.164  30.688  11.252
61305W        W32921  11.179  38.951  11.236
61306W        W32922  27.508  21.778   4.283
61307W        W32923  30.046  36.499  13.733
61308W        W32924  31.932  30.993  10.684
61309W        W32925  37.806  23.423  13.642
61310W        W32926  23.524  30.817   1.863
61311W        W32927  20.044   9.847  12.686
61312W        W32928   6.260  32.666  14.768
61313W        W32929   0.421  10.414   2.942
61314W        W32930  35.846  16.202   2.393
61315W        W32931  24.156  32.718   1.870
61316W        W32932  37.174   3.443   2.139
61317W        W32933  39.368  13.293  14.036
61318W        W32934  22.795  28.031  12.032
61319W        W32935  23.074  44.972   2.002
61320W        W32936  20.289  33.177   4.116
61321W        W32937   3.330  24.876   1.738
61322W        W32938  20.235  36.948   4.393
61323W        W32939  29.898  38.105  10.416
61324W        W32940  32.908  19.962   0.998
61325W        W32941  22.419  28.506  13.555
61326W        W32942  16.325  37.962  14.314
61327W        W32943  17.644  37.507   0.720
61328W        W32944  18.059  13.623  10.774
61329W        W32945  38.807  38.806   1.768
61330W        W32946  40.906  13.622   4.580
61331W        W32947  15.035  39.824   4.702
61332W        W32948  16.849  14.631  14.287
61333W        W32949  31.917  22.578   1.724
61334W        W32950  13.856  20.217  12.541
61335W        W32951  15.406   7.926  11.565
61336W        W32952   1.708  42.171   2.671
61337W        W32953  27.065  19.365  14.254
61338W        W32954  17.230  18.135  10.104
61339W        W32955  26.371  23.649   2.843
61340W        W32956  43.788  15.684   0.495
61341W        W32957  19.958  34.401   4.665
61342W        W32958   8.652  22.215  12.487
61343W        W32959  17.837   5.775  11.167
61344W        W32960   5.504  13.083   2.306
61345W        W32961  20.053  36.514   3.047
61346W        W32962   1.798  21.074   4.059
61347W        W32963  10.181  19.758   1.400
61348W        W32964   5.350  13.167   1.357
61349W        W32965  20.130   8.927  10.713
61350W        W32966   1.276  28.667  12.567
61351W        W32967  15.339  17.395   3.684
61352W        W32968  12.931   7.216  11.324
61353W        W32969  11.701  25.682   2.777
61354W        W32970  28.239  28.568  13.350
61355W        W32971  20.938   0.297  14.783
61356W        W32972  39.128   6.326  12.886
61357W        W32973  22.534  32.351   1.529
61358W        W32974   5.818  31.819  14.943
61359W        W32975  43.674  37.544   4.589
61360W        W32976  17.219   2.871   1.887
61361W        W32977  30.597   3.479   2.742
61362W        W32978  11.744  41.684   1.933
61363W        W32979   7.334  14.174   3.302
61364W        W32980  26.072  17.376   3.726
61365W        W32981  29.188  10.032   0.754
61366W        W32982  27.467  17.349  14.844
61367W        W32983  39.362  44.396   4.703
61368W        W32984  23.801   3.966  13.453
61369W        W32985  36.807  28.624   0.389
61370W        W32986   0.643  24.916   5.527
61371W        W32987  24.046  44.466   3.200
61372W        W32988  30.188  37.369   2.829
61373W        W32989  18.005  42.900   1.812
61374W        W32990   6.668  24.064  10.711
61375W        W32991   9.161  27.094   3.236
61376W        W32992  33.434   8.659   2.656
61377W        W32993  41.242   9.452   0.385
61378W        W32994   6.451  39.624   0.362
61379W        W32995  29.671   7.207   2.630
61380W        W32996  20.288   0.431   0.384
61381W        W32997  13.931   4.483   1.183
61382W        W32998  13.677  17.569   4.925
61383W        W32999  31.266  22.952   2.573
61384W        W33000   9.239  31.209  14.999
61385W        W33001   8.801  42.326   1.249
61386W        W33002  11.162  21.690  12.302
61387W        W33003   7.766  19.982  11.208
61388W        W33004  36.405  27.242  13.466
61389W        W33005  34.862  10.658   0.330
61390W        W33006   4.427  39.540  13.372
61391W        W33007  17.190  39.973   4.627
61392W        W33008  35.439  27.160   0.448
61393W        W33009  35.319  18.775   1.433
61394W        W33010  41.764   5.738  10.410
61395W        W33011   0.797  43.789   4.908
61396W        W33012   6.391  20.264   1.562
61397W        W33013  39.182  35.637   0.437
61398W        W33014  38.278  28.933  14.443
61399W        W33015  43.821   6.055   3.647
61400W        W33016  11.583  40.268  14.865
61401W        W33017  26.256  20.506   1.212
61402W        W33018  17.815   1.987   4.614
61403W        W33019  16.268   9.888   2.748
61404W        W33020  33.512   2.253  14.321
61405W        W33021   8.833  32.913  11.111
61406W        W33022  33.338  26.095  14.537
61407W        W33023  36.034  30.114   4.442
61408W        W33024  44.294  31.464  12.453
61409W        W33025  10.791   7.574  14.346
61410W        W33026   3.800  28.993   1.684
61411W        W33027  10.872  13.601  12.993
61412W        W33028  43.726   7.660   0.387
61413W        W33029  18.326  34.077  11.573
61414W        W33030   0.870  29.710  12.352
61415W        W33031   5.990  19.600  11.076
61416W        W33032  13.477  35.662  11.080
61417W        W33033  13.732   8.870  14.410
61418W        W33034  44.411   3.340   1.174
61419W        W33035  41.989   9.701   0.730
61420W        W33036   4.429   1.784  14.669
61421W        W33037  25.039  16.162   5.151
61422W        W33038  34.434  15.722   0.704
61423W        W33039  14.847   8.867   0.888
61424W        W33040  41.051  17.883  11.594
61425W        W33041  23.442  35.120  14.390
61426W        W33042  12.814  14.582  12.418
61427W        W33043   9.132   6.189   3.571
61428W        W33044  42.025  38.815  13.368
61429W        W33045  15.120   6.684   1.791
61430W        W33046  36.288  19.353  12.392
61431W        W33047  35.065  10.223   2.264
61432W        W33048  40.105  15.332   3.079
61433W        W33049  31.687  23.718   3.562
61434W        W33050  31.147  33.610   2.843
61435W        W33051  32.247  34.697   3.276
61436W        W33052  41.423  41.121  12.032
61437W        W33053  19.727  44.362   3.137
61438W        W33054   0.914   6.308  13.642
61439W        W33055  31.037  34.369   4.629
61440W        W33056  26.702  22.801  11.506
61441W        W33057  31.198  12.193  12.837
61442W        W33058  37.969  43.218   2.709
61443W        W33059  15.687  15.571   2.648
61444W        W33060  19.580  35.543   2.359
61445W        W33061  35.063  37.929   0.184
61446W        W33062  10.962  29.948   1.702
61447W        W33063  37.300  11.655  14.873
61448W        W33064   0.533  36.610  10.632
61449W        W33065  34.559  31.613  12.452
61450W        W33066  34.029   0.351  10.214
61451W        W33067  39.882   1.777  14.928
61452W        W33068  41.782  15.674  12.408
61453W        W33069  43.678  27.331   2.691
61454W        W33070  10.847  12.626   1.338
61455W        W33071  10.720  16.387   2.701
61456W        W33072  26.104  11.438  12.603
61457W        W33073  16.556   2.800   4.668
61458W        W33074  34.879  12.831  13.968
61459W        W33075   7.455  27.486   3.669
61460W        W33076   8.287   1.867   4.234
61461W        W33077  36.601  35.917   1.724
61462W        W33078  15.674   3.980   1.728
61463W        W33079  37.579  25.901  13.591
61464W        W33080  13.721  34.194   3.917
61465W        W33081  12.294  25.601  12.422
61466W        W33082  10.899  43.813   2.792
61467W        W33083  39.438  20.186  14.581
61468W        W33084   7.212  12.549   1.765
61469W        W33085  12.632  16.496  12.384
61470W        W33086  27.275  30.460   2.945
61471W        W33087  42.122  42.391  11.002
61472W        W33088  12.433  19.660  14.830
61473W        W33089  33.225  19.091  13.437
61474W        W33090  15.739   8.263  13.762
61475W        W33091  22.202  12.858   1.476
61476W        W33092  36.160  30.677   4.738
61477W        W33093   8.752  10.500  13.542
61478W        W33094  11.164  34.151  11.585
61479W        W33095  34.132   4.755  12.064
61480W        W33096  26.566  29.399  12.090
61481W        W33097  35.378   8.785   3.710
61482W        W33098   7.361  14.609   0.913
61483W        W33099  25.062   2.005  13.854
61484W        W33100   2.961  19.632   1.456
61485W        W33101  37.495  24.290  10.761
61486W        W33102  26.655  33.581   3.666
61487W        W33103  29.564  33.586   4.086
61488W        W33104  14.154  32.931   2.300
61489W        W33105   0.170  13.279  13.775
61490W        W33106  20.069  40.498   9.867
61491W        W33107   5.846  14.899  13.833
61492W        W33108  43.915  34.627  10.405
61493W        W33109  31.807   6.038  11.866
61494W        W33110  42.157  41.331   1.405
61495W        W33111  24.567  15.108  10.532
61496W        W33112  14.491  27.201  14.350
61497W        W33113  33.536  18.074  12.604
61498W        W33114  30.067  17.477   1.031
61499W        W33115  20.944  41.186   4.194
61500W        W33116  33.035  35.092   3.646
61501W        W33117   5.196  16.158   3.924
61502W        W33118  20.534  13.261  10.664
61503W        W33119  14.342  26.924  12.007
61504W        W33120  21.075   4.669   0.870
61505W        W33121   9.650  41.604   4.584
61506W        W33122  17.642  22.543  11.609
61507W        W33123   2.216   9.121  14.307
61508W        W33124   4.791  40.473   2.744
61509W        W33125  18.698  32.033  13.917
61510W        W33126  44.535  41.220   2.063
61511W        W33127  42.540  30.497  11.532
61512W        W33128  21.179  17.013  13.944
61513W        W33129  33.411   2.198  14.827
61514W        W33130  33.622   8.199   3.615
61515W        W33131  29.098  10.162   0.195
61516W        W33132   9.825  18.741  12.401
61517W        W33133  23.793  20.545   2.303
61518W        W33134   7.745  17.641  12.960
61519W        W33135  40.386   1.102  11.996
61520W        W33136  17.765  36.792   3.446
61521W        W33137  28.137  43.517  14.966
61522W        W33138  33.357  23.067  10.485
61523W        W33139  19.698  20.131   0.229
61524W        W33140   7.304  12.531   0.762
61525W        W33141   8.598  40.744  11.190
61526W        W33142  20.215   4.378  13.812
61527W        W33143  19.849  10.852   3.607
61528W        W33144  22.836  20.002  11.640
61529W        W33145  11.673   1.857   0.888
61530W        W33146  39.848   0.188  14.468
61531W        W33147  18.124  41.585   0.342
61532W        W33148  21.368  41.910   2.697
61533W        W33149  22.154  33.052   3.953
61534W        W33150   9.157  12.229   3.140
61535W        W33151  11.056  18.328  14.806
61536W        W33152  32.379  38.269  11.862
61537W        W33153  10.398  30.340  12.060
61538W        W33154   2.036  14.162   4.231
61539W        W33155  13.045   0.082   3.541
61540W        W33156  24.126  14.188   0.774
61541W        W33157  16.829   3.386  12.342
61542W        W33158  24.908   7.317   4.632
61543W        W33159  43.929  12.299   3.373
61544W        W33160   3.437  12.239  14.892
61545W        W33161  22.246  33.973   1.729
61546W        W33162  41.259  22.998  11.978
61547W        W33163  44.930  37.818  11.085
61548W        W33164  26.623  41.021   3.275
61549W        W33165  29.573   9.411   0.316
61550W        W33166  38.327  21.374  14.059
61551W        W33167  31.014  39.270  14.696
61552W        W33168  19.058  30.407  11.376
61553W        W33169   1.565  22.246  10.286
61554W        W33170   8.128  18.665  11.178
61555W        W33171  36.557  13.521  13.476
61556W        W33172  20.093  37.846  12.058
61557W        W33173  40.989  18.035   1.917
61558W        W33174  18.532  15.267   0.717
61559W        W33175  39.056  42.823  13.323
61560W        W33176  23.356  17.050  11.166
61561W        W33177   5.003  41.413   3.224
61562W        W33178  12.241   2.849   2.754
61563W        W33179  11.603  43.873   0.879
61564W        W33180  39.304  23.153   2.136
61565W        W33181  25.937  40.800   0.387
61566W        W33182  25.576   1.537   9.797
61567W        W33183  24.264  23.154  12.168
61568W        W33184  26.098   9.090  13.955
61569W        W33185  38.944  14.852  13.614
61570W        W33186  12.611  35.342   2.946
61571W        W33187   6.872  24.648   4.929
61572W        W33188   0.263  12.674   1.234
61573W        W33189  19.212  28.417  12.111
61574W        W33190  32.386  25.999   0.479
61575W        W33191   9.476  34.386  12.015
61576W        W33192  19.339  16.120  11.797
61577W        W33193  23.246   5.598   0.706
61578W        W33194   5.253   7.143   1.243
61579W        W33195   2.734   9.208  13.519
61580W        W33196  42.361   8.837  14.687
61581W        W33197  23.787   9.797  14.072
61582W        W33198  22.322  11.630   4.345
61583W        W33199  43.879  17.542  11.101
61584W        W33200  32.909  15.696   1.875
61585W        W33201  16.608  17.702  10.197
61586W        W33202  30.168  32.669  13.345
61587W        W33203  37.658   7.868  11.943
61588W        W33204  26.033  22.016   4.536
61589W        W33205   2.739   0.305  11.563
61590W        W33206  38.546  22.561  14.043
61591W        W33207   8.909  34.388   1.012
61592W        W33208  14.016   2.929   0.732
61593W        W33209   1.696  22.173  12.571
61594W        W33210  11.159  12.828  10.685
61595W        W33211   4.751   7.938   3.788
61596W        W33212  18.293  25.079  12.128
61597W        W33213  22.562   1.792  14.432
61598W        W33214  12.689  43.802  11.096
61599W        W33215  20.573  18.481  12.448
61600W        W33216   5.315  42.469  10.812
61601W        W33217   0.992  33.457   2.208
61602W        W33218  42.057  34.590  14.812
61603W        W33219  10.757  17.565  11.983
61604W        W33220  40.839  20.819  12.563
61605W        W33221  44.696   8.364  13.115
61606W        W33222   0.894  43.657  14.775
61607W        W33223  43.295   5.013  11.128
61608W        W33224  42.340  34.847  11.514
61609W        W33225  31.098  22.923  11.854
61610W        W33226  16.977  23.557  10.237
61611W        W33227  29.069   1.968   1.193
61612W        W33228  24.239  42.013  11.104
61613W        W33229  44.072  16.145  12.661
61614W        W33230   7.363  32.903   2.679
61615W        W33231  27.884  43.171   3.317
61616W        W33232  34.863  30.955  14.129
61617W        W33233  10.833  44.901  12.235
61618W        W33234  22.523  28.120  10.721
61619W        W33235  22.388  36.539   3.208
61620W        W33236  14.815  12.900   1.352
61621W        W33237  20.106  32.303  10.751
61622W        W33238  11.262  25.385   1.835
61623W        W33239  40.569   2.706   3.298
61624W        W33240  17.778  10.433   0.188
61625W        W33241  40.345  19.251  12.841
61626W        W33242  29.632  37.951  13.541
61627W        W33243  20.542  11.154  10.798
61628W        W33244  22.685  14.583  10.583
61629W        W33245  44.888   5.699  12.446
61630W        W33246  39.596  42.877  13.394
61631W        W33247   4.778   9.415  14.371
61632W        W33248  16.350  29.832   1.934
61633W        W33249  18.415  22.227   3.745
61634W        W33250  34.601  30.411   3.144
61635W        W33251   3.419  33.691   1.939
61636W        W33252   1.491  31.812  12.041
61637W        W33253  27.946  10.334  12.672
61638W        W33254  44.102  37.165   2.191
61639W        W33255  11.594  20.762  13.440
61640W        W33256  15.684   9.128   0.209
61641W        W33257  35.791  36.452  12.062
61642W        W33258   5.890  14.368  13.725
61643W        W33259  35.389  40.912   4.863
61644W        W33260  16.757  11.160  11.069
61645W        W33261  33.972  36.874   1.709
61646W        W33262  43.028   5.799  10.116
61647W        W33263  11.186  39.233  10.420
61648W        W33264  31.640  18.197  11.690
61649W        W33265  43.361  17.165   3.121
61650W        W33266  39.437  19.049   3.609
61651W        W33267  15.630  23.750  12.073
61652W        W33268   4.328  21.005   0.966
61653W        W33269   5.733  36.775   3.963
61654W        W33270  29.551  34.188   4.133
61655W        W33271  28.727  39.375  11.963
61656W        W33272   5.070   6.599  12.890
61657W        W33273  20.144  27.096  13.059
61658W        W33274  26.480  43.624  10.763
61659W        W33275  14.034   8.420   2.815
61660W        W33276  10.142   5.169   2.609
61661W        W33277  41.743  44.849  11.615
61662W        W33278  22.979   8.371   0.916
61663W        W33279   4.341   7.455  10.600
61664W        W33280  19.120  25.243  13.816
61665W        W33281  11.357  18.513  12.988
61666W        W33282   7.775   2.319   4.040
61667W        W33283  27.046  41.119   0.728
61668W        W33284  21.885  19.822   1.628
61669W        W33285   8.902   3.482   2.149
61670W        W33286  44.017  41.459   3.273
61671W        W33287  20.669  20.276  12.944
61672W        W33288   0.205  26.635   3.671
61673W        W33289   7.887  24.978   0.903
61674W        W33290  23.477  29.853  11.641
61675W        W33291  39.738  18.693   1.287
61676W        W33292  34.639   6.366  13.349
61677W        W33293  32.443  25.501  11.419
61678W        W33294  12.117  19.105  11.617
61679W        W33295  39.234  18.264  11.165
61680W        W33296  30.977   0.500  12.643
61681W        W33297  26.583  26.951  14.010
61682W        W33298  36.322   5.873  14.528
61683W        W33299   0.660  30.793  14.303
61684W        W33300  17.287  32.933  14.281
61685W        W33301  26.723  26.240   2.736
61686W        W33302   3.716   0.951   3.357
61687W        W33303  19.219  19.612  14.725
61688W        W33304   0.378   9.244   4.653
61689W        W33305  28.591  26.526  12.929
61690W        W33306  31.060   7.780   5.044
61691W        W33307  14.513  15.816  14.499
61692W        W33308  31.146  32.191  14.831
61693W        W33309  42.413  28.928   4.536
61694W        W33310  34.923  40.790   2.731
61695W        W33311   3.276   8.382   0.673
61696W        W33312  40.593  10.071  13.384
61697W        W33313   3.718  25.882   0.302
61698W        W33314   8.633  23.111  14.334
61699W        W33315  33.106   1.430   0.459
61700W        W33316  43.226  32.652  13.321
61701W        W33317  32.235  26.014   2.745
61702W        W33318  14.489  31.736   3.738
61703W        W33319  17.853  14.216  12.912
61704W        W33320  17.635   7.199   1.781
61705W        W33321   9.466  37.454  12.373
61706W        W33322  23.050  41.207   4.524
61707W        W33323  35.969  20.644  13.327
61708W        W33324  25.562  20.216  14.432
61709W        W33325   1.837  28.781   3.369
61710W        W33326   9.975  39.317   4.161
61711W        W33327  37.968  24.011  10.804
61712W        W33328  15.932  34.428   4.176
61713W        W33329  15.301  36.187  12.494
61714W        W33330  40.802  12.670  10.668
61715W        W33331  14.845  15.241   2.818
61716W        W33332  14.175  13.666   3.120
61717W        W33333  19.701  25.396   4.451
61718W        W33334   1.540  30.401   3.111
61719W        W33335  40.762  20.512  12.136
61720W        W33336  18.188  22.740   3.660
61721W        W33337  11.909  38.334  13.128
61722W        W33338  10.374  23.664  10.671
61723W        W33339  19.105  33.498   0.079
61724W        W33340   2.476  25.208   0.805
61725W        W33341  23.650  14.283   0.508
61726W        W33342  13.637  37.614   2.515
61727W        W33343  24.956   7.108   2.785
61728W        W33344  43.368   4.000  12.163
61729W        W33345  22.493  21.263  13.512
61730W        W33346  41.991   8.305  13.776
61731W        W33347  15.059  18.802   5.438
61732W        W33348  42.005  37.586   4.599
61733W        W33349  33.474  35.531  14.981
61734W        W33350   8.231  34.222   1.803
61735W        W33351  14.638  30.709   0.169
61736W        W33352  32.138  14.380   3.574
61737W        W33353  33.140  23.830   3.816
61738W        W33354  13.118  42.106   1.920
61739W        W33355  27.231  32.920   1.283
61740W        W33356  17.224  10.202  14.392
61741W        W33357   0.271  15.293  11.624
61742W        W33358  27.641  13.760  11.988
61743W        W33359  17.200  39.025  10.357
61744W        W33360  35.576  21.149   4.603
61745W        W33361  25.996  25.388   2.415
61746W        W33362  21.489  13.315   4.248
61747W        W33363  40.039  22.755   0.537
61748W        W33364  19.560  30.089  13.287
61749W        W33365  19.315  40.130  10.715
61750W        W33366  13.996   9.858   0.482
61751W        W33367   2.539  33.973  12.452
61752W        W33368  43.765  14.196  12.275
61753W        W33369  25.091  40.103   3.216
61754W        W33370  32.118  23.990   1.421
61755W        W33371   4.516   4.677   1.528
61756W        W33372   8.441  30.096   2.384
61757W        W33373  43.730  26.686   0.832
61758W        W33374  39.676  35.552   0.421
61759W        W33375   1.892  21.797  12.264
61760W        W33376  28.987   9.878  13.497
61761W        W33377   2.751  22.615   5.056
61762W        W33378  17.495   0.277  11.483
61763W        W33379  10.303   5.500  14.214
61764W        W33380  27.079  16.306  10.712
61765W        W33381  15.356   8.573  11.116
61766W        W33382  21.578  15.122   2.393
61767W        W33383  34.603  19.038   2.806
61768W        W33384  36.606  24.799  12.418
61769W        W33385  19.582  42.331   3.746
61770W        W33386  28.542  13.671   3.230
61771W        W33387   3.478  23.698  12.575
61772W        W33388  30.381  36.511   0.506
61773W        W33389  31.465  38.054   2.308
61774W        W33390   0.862  10.223   3.167
61775W        W33391  25.630  23.785  11.418
61776W        W33392  41.471  32.075   1.207
61777W        W33393  40.322  35.990  11.964
61778W        W33394  38.277  25.541   3.656
61779W        W33395  19.893  17.458   0.964
61780W        W33396   5.763   0.534  14.929
61781W        W33397   3.492  40.863   4.041
61782W        W33398  11.259  40.391   1.751
61783W        W33399  26.128  22.734   2.780
61784W        W33400   2.461  34.465  14.437
61785W        W33401  40.982  15.181   0.710
61786W        W33402  10.239  31.980  11.619
61787W        W33403  13.969  21.072   1.889
61788W        W33404  36.025  21.392   4.548
61789W        W33405  43.001   9.900  14.721
61790W        W33406  10.081  31.150   2.296
61791W        W33407  30.435  39.268   4.164
61792W        W33408  40.434  26.050  14.071
61793W        W33409  11.611  34.718  12.085
61794W        W33410   9.204  32.862   3.247
61795W        W33411  24.674  16.592   4.497
61796W        W33412  38.272  10.786   9.957
61797W        W33413  16.755  13.217  13.276
61798W        W33414  35.924  29.028  14.784
61799W        W33415  11.515  32.137   3.117
61800W        W33416  29.535  40.624   3.074
61801W        W33417  14.125   7.197  10.534
61802W        W33418  40.393  44.057  13.020
61803W        W33419   3.483  28.752  11.577
61804W        W33420  25.577   4.776   1.781
61805W        W33421  19.604  32.042   2.335
61806W        W33422  11.687  21.711  11.449
61807W        W33423  21.074   8.237   1.788
61808W        W33424  41.052  36.720   2.028
61809W        W33425  27.686  23.040  13.528
61810W        W33426  43.998  11.387  13.004
61811W        W33427  12.947  33.479   3.277
61812W        W33428  34.592  19.923   4.560
61813W        W33429   0.097  21.142  13.186
61814W        W33430  18.809  44.993   3.287
61815W        W33431  25.136  10.933  14.708
61816W        W33432  44.486  25.957   0.952
61817W        W33433  29.928  24.985  11.385
61818W        W33434   2.872  36.505   0.015
61819W        W33435  27.028  39.972  13.420
61820W        W33436  36.821  22.017  10.721
61821W        W33437   8.036  41.333  14.858
61822W        W33438  11.264   1.469  11.424
61823W        W33439  10.183  31.867  12.458
61824W        W33440  39.990  27.891   3.365
61825W        W33441  24.110  34.377   0.216
61826W        W33442   0.487  28.583  11.914
61827W        W33443   2.434  29.886   0.821
61828W        W33444   2.498   2.485  12.578
61829W        W33445  18.686  32.345   4.137
61830W        W33446   1.335   2.692   1.941
61831W        W33447  36.158  28.988  12.417
61832W        W33448  12.145  34.863  11.120
61833W        W33449   0.460  39.388   1.227
61834W        W33450  12.103  22.005  11.382
61835W        W33451   6.413   8.307  10.707
61836W        W33452  39.563  11.699   0.915
61837W        W33453   2.815  40.760  10.754
61838W        W33454   0.352   0.375  13.360
61839W        W33455  42.449  34.185   4.196
61840W        W33456  33.929  16.885  13.588
61841W        W33457  34.565  31.905   4.528
61842W        W33458  19.706   4.838  12.539
61843W        W33459   8.394   6.853   0.856
61844W        W33460  27.704   0.785  13.147
61845W        W33461  23.679   5.322  10.732
61846W        W33462  28.380  13.056  13.111
61847W        W33463  36.994  38.900   4.186
61848W        W33464  26.814  17.365  10.100
61849W        W33465  15.754  41.098  12.875
61850W        W33466  32.528  22.114   3.234
61851W        W33467  32.066   5.203   2.757
61852W        W33468   5.938  32.009   0.410
61853W        W33469  38.870   8.637   0.377
61854W        W33470  40.471  24.152  12.081
61855W        W33471  39.892  17.119  14.463
61856W        W33472   9.220  31.058  12.651
61857W        W33473  39.932  34.761   4.268
61858W        W33474  25.463   2.895  11.235
61859W        W33475  39.418  33.945   2.170
61860W        W33476   7.265  20.003   4.666
61861W        W33477  11.232   4.394   0.898
61862W        W33478   4.375   6.437  11.450
61863W        W33479  31.307  27.015  12.058
61864W        W33480   8.168  35.585  12.490
61865W        W33481  26.249  41.651   5.058
61866W        W33482  44.733   5.796  14.299
61867W        W33483  15.709  25.212   0.412
61868W        W33484  31.700  26.394   0.777
61869W        W33485  27.017  11.899  11.769
61870W        W33486  38.242  21.756   2.739
61871W        W33487  35.340  44.902  13.498
61872W        W33488  44.842  20.670  12.975
61873W        W33489  13.241   1.521  13.741
61874W        W33490  44.643   5.853   0.329
61875W        W33491  13.112  22.263   1.350
61876W        W33492  41.528  35.285   0.680
61877W        W33493  13.643  25.568  14.013
61878W        W33494  12.729  22.340  13.064
61879W        W33495  13.613  43.460   1.945
61880W        W33496  43.699  26.660   4.179
61881W        W33497  36.317  21.094   3.461
61882W        W33498  34.937  23.489   0.816
61883W        W33499  31.400  13.890   3.134
61884W        W33500   1.487  15.103   4.125
61885W        W33501  39.765   6.852   3.447
61886W        W33502  30.527   1.477  11.998
61887W        W33503   5.471   4.360  14.337
61888W        W33504  17.813  22.519   4.258
61889W        W33505  12.704   3.877   3.261
61890W        W33506  13.048  36.445   3.892
61891W        W33507  38.304  10.192   3.638
61892W        W33508   2.170  27.873   4.142
61893W        W33509  35.040  36.817   1.726
61894W        W33510  36.819  13.076  12.875
61895W        W33511  31.914  41.789  14.270
61896W        W33512  37.907  29.512  13.893
61897W        W33513  22.489  28.900   1.365
61898W        W33514  37.444   9.087   1.514
61899W        W33515  10.560  36.962  13.817
61900W        W33516  15.307  39.879  12.061
61901W        W33517   4.264  11.345   1.844
61902W        W33518  40.882  24.768   0.774
61903W        W33519  16.624  11.826  11.810
61904W        W33520   3.474  30.472   4.993
61905W        W33521  41.412  14.370   4.636
61906W        W33522   2.559  23.620   3.569
61907W        W33523  10.250  13.379   0.531
61908W        W33524   7.395  18.977   1.694
61909W        W33525  29.537   7.951  11.505
61910W        W33526  36.961  25.708  12.892
61911W        W33527  31.572  34.633  11.097
61912W        W33528  35.247  17.231  10.327
61913W        W33529  32.451  23.499   2.335
61914W        W33530  26.380  41.941  14.523
61915W        W33531   3.304  29.036   1.857
61916W        W33532   2.476   5.252   2.841
61917W        W33533  41.235  29.960   0.042
61918W        W33534  21.089  16.361  10.962
61919W        W33535  43.747  31.597   2.995
61920W        W33536  31.189  20.107   2.743
61921W        W33537  10.871  32.385   1.158
61922W        W33538  31.015  19.030   3.145
61923W        W33539   1.135  22.624  10.168
61924W        W33540  38.793  11.593  11.509
61925W        W33541  24.257  35.917   2.687
61926W        W33542  37.044  35.669   0.888
61927W        W33543  25.798  42.600   0.706
61928W        W33544   8.836   4.895   3.682
61929W        W33545  21.246  17.489   1.559
61930W        W33546  10.601   8.917   0.344
61931W        W33547  34.512   8.796   1.088
61932W        W33548  21.220  13.901  10.686
61933W        W33549  10.278  34.629  11.368
61934W        W33550   0.881  21.191   1.242
61935W        W33551  23.422  31.887   2.320
61936W        W33552  24.083  36.787  14.916
61937W        W33553  20.058  25.218  13.936
61938W        W33554  14.125  12.707   4.145
61939W        W33555  43.462  27.035   3.421
61940W        W33556  38.444  28.284  10.918
61941W        W33557  16.635   0.764  13.115
61942W        W33558  23.970  29.039   5.073
61943W        W33559  44.462   9.471   2.708
61944W        W33560  33.926  34.659   1.889
61945W        W33561  44.309  35.519   2.548
61946W        W33562  31.439  16.762  10.525
61947W        W33563  35.456  15.584   3.318
61948W        W33564   5.949  41.202   3.127
61949W        W33565  22.038  21.636   4.480
61950W        W33566  28.654  40.274   1.533
61951W        W33567  33.992  38.615  14.453
61952W        W33568  31.465  12.710  14.505
61953W        W33569  34.139  30.148  13.367
61954W        W33570   0.724   7.613   0.425
61955W        W33571   0.860  23.126   0.916
61956W        W33572  11.784  33.837   3.399
61957W        W33573  16.053  25.935  11.000
61958W        W33574  12.262  22.763   4.079
61959W        W33575  23.342   6.222   3.748
61960W        W33576  34.208   5.729  12.842
61961W        W33577  15.453  19.551  10.961
61962W        W33578  18.758  11.683  12.015
61963W        W33579  39.256  36.006  14.169
61964W        W33580  27.420  24.246   1.662
61965W        W33581  18.423  35.782   2.160
61966W        W33582  44.222   9.430   1.716
61967W        W33583  31.918   0.685  11.901
61968W        W33584   8.903  41.998  11.725
61969W        W33585  22.191  28.039  11.419
61970W        W33586  34.840   9.238   1.794
61971W        W33587   9.589  42.050   1.231
61972W        W33588  23.316  21.669  10.663
61973W        W33589  20.584  17.640  13.939
61974W        W33590  35.430  44.808  12.989
61975W        W33591  29.587  14.429  10.700
61976W        W33592  41.960   2.858   0.235
61977W        W33593  43.136  26.572  11.006
61978W        W33594  14.799  35.409  11.029
61979W        W33595  15.561  11.989  14.519
61980W        W33596  31.645  41.534  13.898
61981W        W33597  35.066   5.193  13.906
61982W        W33598   3.723   1.402   9.705
61983W        W33599   8.139  13.248  12.475
61984W        W33600  42.854  10.321  14.963
61985W        W33601  33.183  43.934   0.378
61986W        W33602  38.503   1.929   4.660
61987W        W33603  24.101  21.696   1.741
61988W        W33604   1.383  39.520  11.582
61989W        W33605   7.411  16.635   1.433
61990W        W33606  14.183  23.377  14.762
61991W        W33607   3.416  24.709  14.410
61992W        W33608   4.498  43.080  14.882
61993W        W33609   5.929  37.553  12.516
61994W        W33610   9.380  17.279   0.085
61995W        W33611  16.425  24.112   0.220
61996W        W33612  28.195  10.774  12.582
61997W        W33613   4.156  37.201  11.870
61998W        W33614  31.022  25.217   0.888
61999W        W33615  18.033  24.184  12.522
62000W        W33616   6.948  15.582   4.186
62001W        W33617   2.813   7.939  14.116
62002W        W33618  44.728  38.245   3.654
62003W        W33619  11.830  26.267   1.842
62004W        W33620  33.053  10.857   2.787
62005W        W33621  11.583   0.699  13.491
62006W        W33622  27.041  18.333  13.560
62007W        W33623  36.105  39.295  11.966
62008W        W33624  25.764  20.053  12.141
62009W        W33625  12.011  29.354  10.694
62010W        W33626   5.193  37.950  14.650
62011W        W33627  30.648  28.181  12.945
62012W        W33628  15.261  35.404  10.744
62013W        W33629  10.447  18.014  11.231
62014W        W33630  29.412  41.352  12.613
62015W        W33631  40.479  23.526   1.832
62016W        W33632   9.361  13.656   0.238
62017W        W33633   4.858  36.467   1.225
62018W        W33634  19.573  11.856  13.142
62019W        W33635  21.547  22.317   0.541
62020W        W33636  32.762  10.754   1.432
62021W        W33637  22.229  35.503  13.556
62022W        W33638  19.792  43.015  11.689
62023W        W33639  22.581  14.343   2.919
62024W        W33640  39.445  42.679   3.165
62025W        W33641  23.451  30.066  12.110
62026W        W33642   0.584  35.625  14.367
62027W        W33643   7.315  34.387  11.151
62028W        W33644  38.059  24.555   4.137
62029W        W33645  13.199  21.110   3.625
62030W        W33646   8.161   7.298   3.667
62031W        W33647   8.069   6.641   1.200
62032W        W33648  26.200   3.481   3.748
62033W        W33649  43.824  23.499  11.740
62034W        W33650  38.377  41.104   2.405
62035W        W33651   4.308  16.624  12.724
62036W        W33652  39.152  20.090  12.358
62037W        W33653  26.094   6.331   4.798
62038W        W33654  25.780  11.803   1.118
62039W        W33655  18.538  18.831  14.811
62040W        W33656  11.491  21.724  13.302
62041W        W33657  41.609  42.393  11.015
62042W        W33658  10.490  42.027  12.500
62043W        W33659   9.165  42.810  14.254
62044W        W33660  33.471  22.288   1.766
62045W        W33661  15.146  11.343  11.978
62046W        W33662  27.422   7.249   2.273
62047W        W33663  28.326   1.801  13.804
62048W        W33664  21.145  31.835   2.779
62049W        W33665   6.069  40.198  12.719
62050W        W33666   9.880  35.586  10.720
62051W        W33667  13.302   2.717  13.974
62052W        W33668  41.440   4.796   1.438
62053W        W33669  37.223  26.488  10.951
62054W        W33670  17.676  33.048  12.848
62055W        W33671   7.330  26.377   3.284
62056W        W33672  14.178   6.167  12.529
62057W        W33673  13.221  40.497  14.978
62058W        W33674  28.763  35.300   3.188
62059W        W33675  20.194  26.124   4.843
62060W        W33676  24.108  28.782  11.426
62061W        W33677  33.773  10.270  10.689
62062W        W33678   7.807  20.010  14.049
62063W        W33679  38.954   3.070   4.855
62064W        W33680   2.991  27.572   1.561
62065W        W33681  32.261  29.273   2.151
62066W        W33682   0.057   9.840   3.397
62067W        W33683  25.096   0.214   3.377
62068W        W33684   1.814   0.376   9.784
62069W        W33685  35.689  25.512   2.250
62070W        W33686  12.259  15.339   1.726
62071W        W33687  14.154  18.539  13.483
62072W        W33688  44.785  18.610   0.663
62073W        W33689   3.657  31.016  11.223
62074W        W33690  32.899  21.758  13.089
62075W        W33691  33.271  13.550   3.176
62076W        W33692  35.513   3.604  12.584
62077W        W33693  42.326  15.744  11.562
62078W        W33694  25.760  19.105  13.997
62079W        W33695  39.812  14.560  14.020
62080W        W33696  20.724  44.688  13.115
62081W        W33697  10.160  15.421  11.551
62082W        W33698  34.453  15.160   3.455
62083W        W33699   1.395  26.668   1.906
62084W        W33700  29.140  11.827   3.279
62085W        W33701   0.916  16.351  10.586
62086W        W33702  21.668  34.982  13.948
62087W        W33703  34.981  30.939   3.633
62088W        W33704  43.061  44.115   3.196
62089W        W33705   0.480  17.745   2.807
62090W        W33706   1.231  20.700  11.991
62091W        W33707  41.437  40.930  14.603
62092W        W33708  20.674  12.889   3.099
62093W        W33709  15.638  13.740   3.334
62094W        W33710  32.055  40.529  11.883
62095W        W33711  30.586  27.205  14.249
62096W        W33712   6.559  15.382   1.791
62097W        W33713  41.416  21.531   1.111
62098W        W33714  26.387  32.340   4.277
62099W        W33715   1.812  42.323  10.681
62100W        W33716   2.949  34.196  13.460
62101W        W33717  23.211  14.709  12.983
62102W        W33718  12.236  11.188   2.355
62103W        W33719  13.864  37.268  12.871
62104W        W33720  34.038   4.818   1.024
62105W        W33721  22.934  19.573   0.836
62106W        W33722  32.120   4.016   2.345
62107W        W33723   7.004  26.484  14.379
62108W        W33724  18.536  38.556   2.389
62109W        W33725  42.535  21.011  14.781
62110W        W33726  42.614   1.387  10.650
62111W        W33727  16.206  24.742   3.863
62112W        W33728  19.497   6.463   0.237
62113W        W33729  11.889  21.208  12.574
62114W        W33730  33.564  37.715  11.939
62115W        W33731   1.237   2.645   3.001
62116W        W33732  24.088   8.124  13.974
62117W        W33733   9.652  11.792  10.603
62118W        W33734  29.300   0.353  11.137
62119W        W33735  15.217  43.386   0.493
62120W        W33736  32.191  44.897  11.433
62121W        W33737  25.252  34.602   2.915
62122W        W33738   9.123  42.440  10.602
62123W        W33739  32.005  19.296   4.076
62124W        W33740  40.133  22.251  12.049
62125W        W33741  38.695   1.471  11.324
62126W        W33742   5.886  18.452  13.481
62127W        W33743  21.106  16.789   2.208
62128W        W33744  35.947  21.796  11.166
62129W        W33745   1.338   2.493   4.656
62130W        W33746   9.294  29.363  10.636
62131W        W33747  17.630  43.283  10.288
62132W        W33748  12.175  36.838  11.023
62133W        W33749  24.419  18.991  11.656
62134W        W33750  11.502  23.431  13.195
62135W        W33751   1.608   1.673  14.831
62136W        W33752   8.705  36.736   2.913
62137W        W33753   5.143  42.865   4.592
62138W        W33754  37.498   6.235   2.378
62139W        W33755   0.520  12.847   1.675
62140W        W33756  43.457   4.693  10.751
62141W        W33757  37.912  16.910   1.889
62142W        W33758  13.693  23.687  13.131
62143W        W33759   8.877  16.326  14.387
62144W        W33760  33.827  30.368   2.778
62145W        W33761  30.975   6.447   0.963
62146W        W33762  23.688   3.972  11.223
62147W        W33763  18.790  42.791   1.355
62148W        W33764   1.804  20.681  12.873
62149W        W33765  28.026  14.640   2.602
62150W        W33766  29.421  13.263  14.753
62151W        W33767  13.070  10.857   4.377
62152W        W33768  31.930   9.640   1.364
62153W        W33769  31.449   8.904  12.872
62154W        W33770   3.746  17.948  14.461
62155W        W33771  40.838   1.671   3.852
62156W        W33772   4.721  21.219   0.045
62157W        W33773  13.690  19.910  14.882
62158W        W33774  10.224  43.412   3.869
62159W        W33775  39.930  27.842   0.670
62160W        W33776  30.150  32.435  10.694
62161W        W33777  39.660  32.431   4.132
62162W        W33778  18.083  16.695   1.764
62163W        W33779  33.211  42.335  13.557
62164W        W33780  34.834  42.085   4.813
62165W        W33781  15.650  38.965  14.695
62166W        W33782  31.506   1.744   1.010
62167W        W33783  21.162  25.865   0.906
62168W        W33784  36.324  44.705   4.498
62169W        W33785   9.412   9.427  12.484
62170W        W33786  22.545  14.694  12.454
62171W        W33787  42.590  27.703   0.895
62172W        W33788  15.845  30.029   4.762
62173W        W33789  19.703  24.157  10.711
62174W        W33790  43.387  25.004   2.961
62175W        W33791  34.919  28.547  14.107
62176W        W33792  34.091   1.805  13.422
62177W        W33793  26.665   0.507  10.416
62178W        W33794  26.506  36.753   0.811
62179W        W33795  27.279  15.615   1.405
62180W        W33796  12.313  36.295  11.487
62181W        W33797  16.048  18.172   4.248
62182W        W33798  38.591  41.530  11.580
62183W        W33799   7.621   7.840  14.262
62184W        W33800  41.936   5.865   3.908
62185W        W33801  15.298  40.788   0.735
62186W        W33802  18.691  36.147  13.844
62187W        W33803  22.081   9.409   4.301
62188W        W33804  34.057   0.789   5.049
62189W        W33805   1.964  28.550  14.387
62190W        W33806  14.247  37.067   1.211
62191W        W33807   8.873   4.026  13.582
62192W        W33808  38.730  31.527   1.276
62193W        W33809  21.782   2.504  12.932
62194W        W33810   4.004  17.100  11.550
62195W        W33811  36.878  22.581  10.628
62196W        W33812  15.654  13.776  14.063
62197W        W33813  14.244  14.357   2.082
62198W        W33814  22.810   6.752  10.717
62199W        W33815  15.518  24.589  14.803
62200W        W33816  18.693  22.726   3.729
62201W        W33817  27.999  33.495   4.300
62202W        W33818  35.472  33.086  12.041
62203W        W33819   7.689   7.178  14.225
62204W        W33820  23.276  36.875  13.380
62205W        W33821  32.453  43.069   1.834
62206W        W33822  10.661  36.918  12.476
62207W        W33823  14.978  33.887   0.999
62208W        W33824  17.547  27.394   0.966
62209W        W33825  20.525   5.716   1.489
62210W        W33826  25.250  20.782   2.367
62211W        W33827  30.074   7.925   4.129
62212W        W33828  13.742  34.974  12.162
62213W        W33829  13.570   4.411   2.305
62214W        W33830  12.022  31.964   2.314
62215W        W33831   1.615  40.715  11.074
62216W        W33832  40.780  42.012   4.086
62217W        W33833   5.697  14.203  10.933
62218W        W33834  44.103  33.157  14.508
62219W        W33835  30.720   5.499  10.489
62220W        W33836  10.964   5.198  12.574
62221W        W33837  26.502  39.075  14.360
62222W        W33838   1.277  23.041   1.448
62223W        W33839  10.190  12.536   2.853
62224W        W33840  41.925  21.173  12.917
62225W        W33841  41.278  34.977   1.946
62226W        W33842   8.183  42.419   4.419
62227W        W33843   4.390  36.959  14.763
62228W        W33844   5.341  14.534   4.595
62229W        W33845  33.545  36.359   1.027
62230W        W33846  13.032   0.343   2.138
62231W        W33847  41.408   0.463  13.421
62232W        W33848   7.542  14.767  11.325
62233W        W33849  38.238  38.809  12.564
62234W        W33850  17.424  25.151  12.198
62235W        W33851  36.601   4.372   1.597
62236W        W33852  16.940  31.421   4.025
62237W        W33853  25.135  29.795  14.761
62238W        W33854  31.655  23.540  11.151
62239W        W33855  16.301  36.796  14.928
62240W        W33856  29.988  33.330   4.229
62241W        W33857   2.890  37.054  12.973
62242W        W33858   5.362  14.843  12.361
62243W        W33859  39.802  42.466  13.892
62244W        W33860  36.156  43.788   4.129
62245W        W33861  29.004   2.360   4.122
62246W        W33862  13.455  25.268   3.680
62247W        W33863   7.298  17.794  14.966
62248W        W33864  34.994  21.214   0.079
62249W        W33865  32.457   7.463  12.077
62250W        W33866  28.653   0.399   2.379
62251W        W33867   2.845  28.778  12.110
62252W        W33868  20.622   7.629  10.783
62253W        W33869  29.352  17.700   1.945
62254W        W33870  24.024   7.352  11.263
62255W        W33871  39.325  20.998   3.386
62256W        W33872  19.725  29.571  14.262
62257W        W33873  12.575  33.123   3.281
62258W        W33874  34.679  19.605  14.934
62259W        W33875  16.864  31.760   0.226
62260W        W33876  39.981  33.147   3.122
62261W        W33877   4.950  38.458   3.361
62262W        W33878  18.001  30.228  12.978
62263W        W33879  39.834   3.184  14.510
62264W        W33880  12.659  38.819  13.144
62265W        W33881   8.198  33.592   2.958
62266W        W33882  27.658  24.817   3.639
62267W        W33883  19.311  35.884   0.650
62268W        W33884   5.608  22.980  12.374
62269W        W33885  30.057  20.761  11.683
62270W        W33886  12.329  26.591   1.868
62271W        W33887  35.867  22.475   3.787
62272W        W33888  38.405  13.375   2.033
62273W        W33889  41.731  37.552   1.401
62274W        W33890   6.002   7.684   0.808
62275W        W33891  41.895   0.309  12.848
62276W        W33892  12.111  12.440   0.250
62277W        W33893  39.886  23.249  12.219
62278W        W33894  35.570  32.208  13.090
62279W        W33895  18.882  43.529  10.679
62280W        W33896   3.212  15.646  14.032
62281W        W33897  10.445  23.220   3.298
62282W        W33898   7.812  25.940   0.829
62283W        W33899  40.953  33.826  12.337
62284W        W33900   2.010  35.164  14.812
62285W        W33901   6.782   8.561   3.182
62286W        W33902  44.545  44.621  11.048
62287W        W33903  35.562   7.277   1.773
62288W        W33904  36.502  35.773   4.088
62289W        W33905   2.764  30.229  12.237
62290W        W33906  23.999  17.268  12.909
62291W        W33907  20.470  44.959   0.555
62292W        W33908   4.823  44.363   1.601
62293W        W33909  22.059  24.550   1.380
62294W        W33910  24.465  34.895  12.556
62295W        W33911  44.502  15.596   1.259
62296W        W33912   8.853  30.633   0.569
62297W        W33913   6.427  20.755   0.016
62298W        W33914  23.233  41.433  13.521
62299W        W33915  10.072   0.625  14.308
62300W        W33916  19.805  12.227  12.460
62301W        W33917   4.001  26.091  13.491
62302W        W33918  14.591  34.645   0.855
62303W        W33919   6.186   6.785   1.332
62304W        W33920  36.885  14.130  14.753
62305W        W33921  42.438  38.558  12.942
62306W        W33922  26.765  25.474  14.453
62307W        W33923  10.322  43.417  10.639
62308W        W33924  33.962  25.636   0.962
62309W        W33925   1.940  41.330   2.151
62310W        W33926  22.761  40.863   4.224
62311W        W33927  25.527  24.022  13.527
62312W        W33928  32.994  32.522   1.147
62313W        W33929  41.893  19.767  12.949
62314W        W33930  23.680  16.230  10.772
62315W        W33931  23.493  12.786   2.737
62316W        W33932   0.947   5.168   1.391
62317W        W33933  16.854  42.814   0.379
62318W        W33934   2.569  24.217  14.304
62319W        W33935  24.213  27.947   0.917
62320W        W33936  23.055   6.547  11.855
62321W        W33937  27.484   2.835   3.787
62322W        W33938   4.141  22.490   2.342
62323W        W33939  22.470  30.204   4.253
62324W        W33940  38.499  39.813   4.116
62325W        W33941   6.713   5.415  13.916
62326W        W33942  40.903  11.133   3.101
62327W        W33943  10.048   2.798  11.313
62328W        W33944  14.254  14.868  11.981
62329W        W33945  16.322  31.566  12.568
62330W        W33946  27.601  40.436  10.919
62331W        W33947  19.888  26.528  12.969
62332W        W33948  37.346  10.352  11.733
62333W        W33949  21.298  44.378   4.891
62334W        W33950  14.684  11.521   2.848
62335W        W33951  28.644   3.177   4.442
62336W        W33952  39.007  14.408  12.576
62337W        W33953  25.273  12.102   1.726
62338W        W33954   6.350  35.327  12.720
62339W        W33955  25.827  17.267  11.637
62340W        W33956  10.874  27.988  14.884
62341W        W33957  42.171  35.985   1.902
62342W        W33958  12.313  33.446  14.766
62343W        W33959  36.977  14.646  14.783
62344W        W33960  13.557  42.949  14.272
62345W        W33961  24.120  28.652   4.349
62346W        W33962   6.929  44.237   2.424
62347W        W33963  23.600  15.729   0.404
62348W        W33964  19.678   9.593  14.040
62349W        W33965   4.254  41.292   1.813
62350W        W33966  30.903  25.980  13.193
62351W        W33967   8.721  40.425   2.229
62352W        W33968  23.084  22.624   2.925
62353W        W33969   8.302  25.467  12.373
62354W        W33970  16.961  16.833   2.353
62355W        W33971   3.358   0.272   0.369
62356W        W33972  18.838  32.913  12.135
62357W        W33973  11.846  27.457  14.391
62358W        W33974  37.917  33.524  13.787
62359W        W33975   3.219  33.420  10.753
62360W        W33976   5.354  34.665   1.821
62361W        W33977  42.891  29.173   2.112
62362W        W33978  36.406   4.862  14.501
62363W        W33979  11.882   1.746   4.703
62364W        W33980  34.885  11.120   4.139
62365W        W33981  43.328  14.100  14.852
62366W        W33982   0.105  40.074  13.917
62367W        W33983  16.558  10.005   3.777
62368W        W33984  15.678   2.809   2.695
62369W        W33985  39.278  11.964   1.263
62370W        W33986   8.175  17.307   2.873
62371W        W33987   2.681  14.386  13.858
62372W        W33988  38.397  10.362  13.675
62373W        W33989  26.041  21.811  11.024
62374W        W33990   2.055  42.658  13.171
62375W        W33991  20.007   2.693   3.335
62376W        W33992  26.396  39.128   4.611
62377W        W33993  13.747  13.347   0.392
62378W        W33994   3.378  44.022   1.400
62379W        W33995  12.206  25.404  11.153
62380W        W33996  30.883   8.224   4.127
62381W        W33997  11.782  26.749  14.861
62382W        W33998  34.890  25.573   0.895
62383W        W33999   9.339  35.065  13.874
62384W        W34000   8.897  32.044  12.844
62385W        W34001  25.474   8.710   2.222
62386W        W34002   7.501   4.192   0.433
62387W        W34003  21.433  43.243   0.642
62388W        W34004  39.829  38.331   0.495
62389W        W34005  34.536  25.188   0.146
62390W        W34006  44.873  20.192  12.657
62391W        W34007  25.875  37.070  12.928
62392W        W34008  25.963  13.616   2.860
62393W        W34009  25.958  26.257   1.591
62394W        W34010  22.574  35.414  10.829
62395W        W34011  28.834  15.860   1.890
62396W        W34012   6.829   4.089   2.348
62397W        W34013   1.816  41.332   3.814
62398W        W34014  12.828  37.643  12.549
62399W        W34015  31.200   9.594  10.773
62400W        W34016  12.599  14.174   2.906
62401W        W34017  33.077  28.158  13.287
62402W        W34018   2.704  33.557  10.840
62403W        W34019   3.766  35.382   0.924
62404W        W34020  22.605  24.132  11.451
62405W        W34021  24.685  23.296  12.808
62406W        W34022  14.083   3.520  10.102
62407W        W34023  25.580   9.987  14.879
62408W        W34024  25.596  25.582   4.630
62409W        W34025   5.469  10.675  11.049
62410W        W34026  36.459  27.204   2.328
62411W        W34027  32.696  39.996  13.370
62412W        W34028  37.238  27.017  14.493
62413W        W34029  18.612  18.781   0.711
62414W        W34030   5.692   5.310  14.976
62415W        W34031  11.875  11.338   3.684
62416W        W34032  33.528  41.776  14.984
62417W        W34033  42.541  26.537   0.528
62418W        W34034   0.509  22.761  13.868
62419W        W34035   9.902   9.705   3.788
62420W        W34036  24.183   1.732   2.917
62421W        W34037   6.916   8.459  13.380
62422W        W34038  13.642  42.272  12.082
62423W        W34039  33.090  13.589   1.751
62424W        W34040   5.396   9.874   2.311
62425W        W34041  40.278  36.919   4.599
62426W        W34042  10.060  40.642   2.246
62427W        W34043  17.941  18.736   4.610
62428W        W34044  22.453   3.672  12.514
62429W        W34045  15.286  42.179  10.643
62430W        W34046  21.987  38.911   4.182
62431W        W34047  20.511   6.838   4.343
62432W        W34048  33.913   1.109   4.049
62433W        W34049  22.548  31.457  13.738
62434W        W34050   3.438   2.039   1.535
62435W        W34051  20.073  28.971   1.253
62436W        W34052  21.730  35.515   0.675
62437W        W34053   3.836   6.385  12.088
62438W        W34054  18.092  20.582   0.907
62439W        W34055  38.039  17.017  13.326
62440W        W34056   6.977  30.648   0.393
62441W        W34057  38.407   5.715   0.008
62442W        W34058  15.937  11.114   2.730
62443W        W34059  13.315   7.677  13.872
62444W        W34060   8.434   3.666  14.948
62445W        W34061  43.278  19.234   1.441
62446W        W34062   3.029  38.922   0.510
62447W        W34063  15.732  41.894  10.638
62448W        W34064  44.716  18.727  13.847
62449W        W34065  40.579  41.996   2.310
62450W        W34066  36.918  11.633  10.407
62451W        W34067  20.163  11.394  10.473
62452W        W34068   6.229  17.570   0.460
62453W        W34069  41.967  32.061  10.244
62454W        W34070  14.546   7.402   3.289
62455W        W34071  23.556  35.071   0.216
62456W        W34072  10.952  27.825   0.399
62457W        W34073  26.502  19.085   1.384
62458W        W34074   7.520  39.978  10.781
62459W        W34075   6.783  30.883   1.697
62460W        W34076   0.284  36.198   0.672
62461W        W34077  23.604  25.489   2.761
62462W        W34078  25.353   0.351  12.088
62463W        W34079  38.967  15.206  10.405
62464W        W34080   9.945   1.755   4.625
62465W        W34081  29.002   9.753   4.853
62466W        W34082  26.154  20.160   4.337
62467W        W34083  34.433  30.970  13.821
62468W        W34084  28.299  40.011  13.103
62469W        W34085  40.568  21.858  12.105
62470W        W34086   3.198  22.648   0.931
62471W        W34087  44.526  20.235   4.203
62472W        W34088  39.910  12.857   4.077
62473W        W34089   8.923  23.119  12.938
62474W        W34090  16.746   2.851  14.898
62475W        W34091  14.256  24.436   0.066
62476W        W34092  43.690   1.258  12.017
62477W        W34093   5.649  20.235   0.260
62478W        W34094  36.128  42.983   3.911
62479W        W34095  18.793   9.755   4.650
62480W        W34096   8.940  28.880   2.758
62481W        W34097  35.443  30.999  13.832
62482W        W34098  19.132   3.940  12.391
62483W        W34099   0.080  28.966  10.632
62484W        W34100  24.248  15.501  10.749
62485W        W34101  44.031  44.545  11.779
62486W        W34102  26.071   5.648  11.304
62487W        W34103  25.966  21.419   4.074
62488W        W34104  29.799   1.691  12.514
62489W        W34105  10.376  35.958  10.587
62490W        W34106  38.104  44.429  14.550
62491W        W34107  25.734  21.176   0.804
62492W        W34108  18.013  19.194   3.829
62493W        W34109  23.384  39.706  12.976
62494W        W34110  23.733   6.667   4.439
62495W        W34111  23.036  38.354  11.587
62496W        W34112   3.028   2.326  12.652
62497W        W34113   8.880  20.794   2.731
62498W        W34114  23.688  21.018   1.733
62499W        W34115   4.815  41.810   2.394
62500W        W34116   8.146  21.594   4.323
62501W        W34117  37.985  17.381   0.116
62502W        W34118   6.841  11.816  10.876
62503W        W34119   9.091   9.696   2.709
62504W        W34120  30.503   0.345  10.915
62505W        W34121  41.823  22.926  12.638
62506W        W34122   5.800  35.582  11.141
62507W        W34123   4.175  33.286   3.592
62508W        W34124  37.615  17.541  11.713
62509W        W34125  44.592  17.067   4.980
62510W        W34126  43.397  13.877  10.906
62511W        W34127   5.875   9.455  13.673
62512W        W34128  37.983   6.528   0.766
62513W        W34129  22.443  17.898  11.534
62514W        W34130  38.020  33.533   2.314
62515W        W34131  25.100  42.717   2.262
62516W        W34132   5.846  15.409  14.618
62517W        W34133  30.661  34.990  14.020
62518W        W34134   5.036  23.675   3.358
62519W        W34135  26.087  15.520   0.832
62520W        W34136  23.519  22.534   1.915
62521W        W34137  18.547  12.177  12.054
62522W        W34138  16.106  13.683  11.522
62523W        W34139  35.588   8.908  11.175
62524W        W34140  16.585  36.403  11.606
62525W        W34141  34.855  27.883   4.177
62526W        W34142   6.601  38.852   2.733
62527W        W34143  15.217   3.190   4.208
62528W        W34144  39.818  17.238   2.997
62529W        W34145  42.879   5.984   4.991
62530W        W34146  13.080  19.223   1.289
62531W        W34147  12.610  28.461  14.131
62532W        W34148  41.406   2.515  13.416
62533W        W34149  35.479  38.127  13.511
62534W        W34150  38.309  11.345   2.272
62535W        W34151  25.412  31.991  11.607
62536W        W34152   9.461   6.962  13.834
62537W        W34153  13.297  21.931  12.566
62538W        W34154   9.160  39.582   3.160
62539W        W34155  34.850  29.082  12.405
62540W        W34156  28.051  37.475  13.437
62541W        W34157  38.028   0.685   2.905
62542W        W34158  29.529  24.977   3.253
62543W        W34159  44.211  18.703  13.866
62544W        W34160  14.845  19.818  10.622
62545W        W34161  44.330  25.491   1.960
62546W        W34162  12.749   4.824   4.294
62547W        W34163  30.332  36.053   1.808
62548W        W34164   8.210  30.876   4.882
62549W        W34165   2.044  17.197  14.741
62550W        W34166   3.845   6.432   0.384
62551W        W34167  32.463  27.437  11.292
62552W        W34168   0.722  20.941  14.735
62553W        W34169   8.287  41.244  12.419
62554W        W34170   5.392  25.683  13.793
62555W        W34171  31.095  38.071  11.979
62556W        W34172  21.296  37.498  13.680
62557W        W34173  16.573  11.367   4.876
62558W        W34174  19.509   1.519  11.158
62559W        W34175  35.192  10.770  14.912
62560W        W34176  15.566   1.517  14.773
62561W        W34177  40.989  18.774  11.690
62562W        W34178  24.714  36.473  11.520
62563W        W34179  17.262  22.866   1.822
62564W        W34180   2.365  18.704  13.293
62565W        W34181  34.184  43.959  12.426
62566W        W34182  18.076   4.295  11.155
62567W        W34183  33.638  41.075  13.439
62568W        W34184   5.966  26.147  13.390
62569W        W34185  13.010  30.089  13.375
62570W        W34186  16.213  23.548   2.960
62571W        W34187  20.519  38.785  13.453
62572W        W34188   8.339   6.331   2.620
62573W        W34189  26.149   7.925  12.536
62574W        W34190  30.076  40.397  10.818
62575W        W34191  18.759  19.108   0.312
62576W        W34192   2.937  37.002   4.249
62577W        W34193  13.551  44.789   1.178
62578W        W34194   3.860   9.966  11.818
62579W        W34195  21.672  42.786   0.688
62580W        W34196   1.480  18.076   1.772
62581W        W34197  39.375   1.246  13.521
62582W        W34198  31.843  27.095  14.825
62583W        W34199   0.966  14.155  13.464
62584W        W34200   2.391  22.563  10.539
62585W        W34201   6.741   7.330   2.482
62586W        W34202   5.414  24.977  13.390
62587W        W34203   1.748  16.035   3.373
62588W        W34204  14.138   0.790   3.641
62589W        W34205  18.144  41.872   4.539
62590W        W34206   0.226  10.046  11.024
62591W        W34207  38.867  11.783  12.540
62592W        W34208  11.656  35.698  11.224
62593W        W34209  38.947  30.180   4.681
62594W        W34210  15.812  14.715  13.369
62595W        W34211   7.811  10.762   0.706
62596W        W34212   6.294  25.039   4.537
62597W        W34213   4.742   0.283  13.388
62598W        W34214   2.479  20.377   2.405
62599W        W34215  43.342  27.222  14.391
62600W        W34216  30.155  16.523   2.779
62601W        W34217  30.031  41.302   4.616
62602W        W34218   7.383  37.086   3.200
62603W        W34219   0.902  13.593  10.588
62604W        W34220  42.743   8.656   2.291
62605W        W34221  27.967   0.169   2.049
62606W        W34222  27.228  17.608   2.919
62607W        W34223   7.249   4.241  12.433
62608W        W34224   0.218  31.260  14.944
62609W        W34225   5.784  33.439   0.525
62610W        W34226   9.424  40.822   4.539
62611W        W34227  43.576  21.164  13.256
62612W        W34228   1.591  23.827  14.396
62613W        W34229  15.149  23.196   3.323
62614W        W34230  40.462  34.733  11.612
62615W        W34231   4.981  15.326  13.883
62616W        W34232  36.138  11.410   3.561
62617W        W34233  11.105  27.959  13.979
62618W        W34234  13.340  26.354   1.601
62619W        W34235   3.237  30.062   0.951
62620W        W34236  18.668  16.094  10.964
62621W        W34237  26.337  40.870  14.578
62622W        W34238  10.773  22.929  12.874
62623W        W34239  42.867  19.152   4.603
62624W        W34240  38.020  36.384  12.111
62625W        W34241  14.782  14.639   4.901
62626W        W34242   6.445  42.781  12.987
62627W        W34243  41.234  21.004   0.286
62628W        W34244  33.426   3.956   1.974
62629W        W34245  39.399  17.764  13.808
62630W        W34246  35.876  41.257   0.251
62631W        W34247  27.461  21.873  11.126
62632W        W34248   7.815  42.897   0.462
62633W        W34249  26.637  40.872   0.927
62634W        W34250  15.106  20.669  14.524
62635W        W34251  36.272  10.153   1.885
62636W        W34252  23.177   6.827   2.602
62637W        W34253  12.252  41.472   4.147
62638W        W34254   8.620  13.226  13.028
62639W        W34255  38.911  33.481  10.706
62640W        W34256  20.641  22.931   2.090
62641W        W34257  25.257  24.534  12.115
62642W        W34258  30.461  20.487   2.183
62643W        W34259  35.973   4.350  13.872
62644W        W34260  29.166  35.547   0.046
62645W        W34261  42.064  14.759  14.924
62646W        W34262  22.020   5.174   4.037
62647W        W34263  44.192  34.166  14.357
62648W        W34264  42.347  18.714  13.656
62649W        W34265   7.915  44.942  11.968
62650W        W34266  40.436   9.057  14.319
62651W        W34267  38.835   8.638  11.128
62652W        W34268  25.286  27.477  12.597
62653W        W34269  25.674   6.423  11.656
62654W        W34270  18.104  41.075   3.078
62655W        W34271  37.262   2.662  12.283
62656W        W34272  13.340  12.527   0.266
62657W        W34273  33.877  11.748   4.706
62658W        W34274  24.513  40.518   4.600
62659W        W34275  42.838   4.246  14.351
62660W        W34276  14.778  11.113  14.934
62661W        W34277  36.618  22.232  13.835
62662W        W34278  11.293  15.079   0.030
62663W        W34279  38.045  39.507   2.248
62664W        W34280  31.886   4.820  10.729
62665W        W34281  22.047   8.362   3.378
62666W        W34282  11.169  14.414   1.655
62667W        W34283  40.029  18.689   4.628
62668W        W34284   8.679  31.118  10.891
62669W        W34285  37.517   9.946  10.908
62670W        W34286  12.451  25.647  10.724
62671W        W34287   7.937  13.722  12.561
62672W        W34288  15.671   9.549   3.203
62673W        W34289  31.639  21.747   0.055
62674W        W34290   2.907  34.269  14.267
62675W        W34291   0.546   1.489   1.930
62676W        W34292   2.901  27.561  14.599
62677W        W34293  40.543   8.388  11.791
62678W        W34294  23.694   6.933  13.066
62679W        W34295  21.145  22.067  12.147
62680W        W34296  38.906  40.475   3.698
62681W        W34297  28.933  29.133   3.340
62682W        W34298  34.645  35.684   4.846
62683W        W34299   2.353  13.805  14.893
62684W        W34300  38.713  34.377   1.566
62685W        W34301   0.913  36.452  11.562
62686W        W34302  12.667  18.632   0.524
62687W        W34303   6.816  17.626  14.865
62688W        W34304  18.044   4.740  14.441
62689W        W34305  43.516  14.717  13.965
62690W        W34306  43.030  34.455  10.517
62691W        W34307  13.509  43.986   2.038
62692W        W34308   2.320   9.672   0.003
62693W        W34309  36.214  18.059  14.504
62694W        W34310  24.331   9.934   0.655
62695W        W34311  43.178  19.247   1.951
62696W        W34312   9.765  14.428  10.499
62697W        W34313  17.996  10.781   2.375
62698W        W34314  16.516  33.859   2.609
62699W        W34315   9.748  16.813  12.472
62700W        W34316  23.719  43.281   3.786
62701W        W34317  35.307  32.437   0.843
62702W        W34318  17.200  32.093   0.441
62703W        W34319  26.595  41.017  13.033
62704W        W34320  16.156  33.916   2.193
62705W        W34321  20.596  20.308  13.859
62706W        W34322  24.682  22.491  12.457
62707W        W34323  20.550   1.002  13.439
62708W        W34324  24.007  44.029  10.467
62709W        W34325  40.511  41.804   1.808
62710W        W34326  12.652  23.732  10.668
62711W        W34327  21.098  14.810  12.999
62712W        W34328  22.225   5.467  12.929
62713W        W34329   4.435  27.605  14.129
62714W        W34330  20.160  13.425  14.818
62715W        W34331  16.323  37.322   4.877
62716W        W34332  25.299  31.140   0.236
62717W        W34333  39.741  44.035   0.094
62718W        W34334   0.540  23.410   1.215
62719W        W34335  35.537  26.700   0.641
62720W        W34336   9.224  29.691   2.257
62721W        W34337   9.697  16.058   0.252
62722W        W34338  13.304  22.384  10.557
62723W        W34339   2.411  44.564   1.910
62724W        W34340  11.574  35.995   2.816
62725W        W34341  16.050  26.581   0.214
62726W        W34342   8.874  27.548   0.881
62727W        W34343  16.229   6.039   0.942
62728W        W34344  13.421   6.635   3.905
62729W        W34345  24.891   4.428   1.879
62730W        W34346   2.493   5.485  12.596
62731W        W34347  44.246  44.985   4.137
62732W        W34348  10.250   0.894   5.079
62733W        W34349  10.881   8.707  11.774
62734W        W34350  42.917  21.582   1.247
62735W        W34351  42.155   9.593  13.939
62736W        W34352  10.717   6.374   2.918
62737W        W34353  13.410  15.990  10.133
62738W        W34354  18.153  36.412   0.451
62739W        W34355  32.163   7.307   4.694
62740W        W34356  26.463  11.873  13.452
62741W        W34357  21.657  20.184   4.595
62742W        W34358   4.196  39.093   3.944
62743W        W34359  25.217  21.486   1.216
62744W        W34360  29.996  28.175  13.419
62745W        W34361  15.660  36.485  11.516
62746W        W34362  42.199  39.832  13.301
62747W        W34363   1.884  19.623  13.292
62748W        W34364  15.907  16.204  11.462
62749W        W34365  15.229   8.800   1.827
62750W        W34366  44.404  37.871   0.336
62751W        W34367  43.782  17.760  14.486
62752W        W34368  26.514  24.570   2.753
62753W        W34369  30.443  25.599   1.444
62754W        W34370  38.840   4.796   1.861
62755W        W34371  20.318  15.253  13.142
62756W        W34372  40.268  28.096  11.663
62757W        W34373  23.931  29.068   1.317
62758W        W34374  35.486  27.815  13.858
62759W        W34375  13.794   3.995  10.137
62760W        W34376  33.355  17.193  12.430
62761W        W34377  26.138   4.182   4.208
62762W        W34378  39.761  12.556   3.628
62763W        W34379  28.372  38.315  14.466
62764W        W34380  10.399  18.285   2.926
62765W        W34381  28.196  19.622  12.791
62766W        W34382  35.981  42.294   3.173
62767W        W34383  21.384  37.066   3.590
62768W        W34384  20.426   3.762   2.757
62769W        W34385  11.190   4.896  12.923
62770W        W34386  32.501  35.170  14.865
62771W        W34387   0.487  22.499   3.747
62772W        W34388  20.278  25.725  11.924
62773W        W34389  39.537  16.176  12.602
62774W        W34390  31.438  18.982  12.522
62775W        W34391  40.572  37.884  11.102
62776W        W34392  28.130  22.229   1.307
62777W        W34393  13.741  26.044   4.833
62778W        W34394  29.158  10.327   4.141
62779W        W34395   5.646  17.221   0.302
62780W        W34396  18.005   1.162   1.754
62781W        W34397  26.475  22.445   1.366
62782W        W34398   9.639  37.396   3.343
62783W        W34399  16.568  14.234  14.481
62784W        W34400  31.611  31.493   0.012
62785W        W34401  42.708   7.892  14.516
62786W        W34402  28.705  40.195   3.668
62787W        W34403  36.085  42.133   3.680
62788W        W34404  22.537  26.268   4.398
62789W        W34405  38.158  39.894  14.955
62790W        W34406   6.102  41.010  14.258
62791W        W34407  10.246  14.641  10.903
62792W        W34408  15.039  12.678   3.148
62793W        W34409   5.011  25.104  13.667
62794W        W34410  24.484  13.168   2.734
62795W        W34411  26.040   7.600  13.006
62796W        W34412  42.874  41.361  11.941
62797W        W34413  39.585  11.049  12.500
62798W        W34414  18.188  17.652  13.011
62799W        W34415  32.140  41.893   2.609
62800W        W34416  43.662  40.691   0.951
62801W        W34417   0.738  36.128  13.078
62802W        W34418  36.031  39.927  14.907
62803W        W34419  35.344  39.117   1.340
62804W        W34420   2.029  22.955  10.508
62805W        W34421  13.669  32.549   1.769
62806W        W34422  44.947  33.591   2.274
62807W        W34423  19.766   7.862  12.077
62808W        W34424  41.888  10.137   0.431
62809W        W34425  12.998   2.894  10.499
62810W        W34426  44.315  11.190   0.193
62811W        W34427   0.206  24.872  12.497
62812W        W34428  24.148  40.343  11.964
62813W        W34429   9.228  42.322   4.755
62814W        W34430   2.005   5.278   0.210
62815W        W34431  41.900  39.593   4.621
62816W        W34432  13.207  31.086   2.424
62817W        W34433  16.103   4.321   1.626
62818W        W34434  26.117  39.834  12.433
62819W        W34435  22.015  34.302   1.310
62820W        W34436  32.192  14.289  14.598
62821W        W34437  12.580   6.017  11.540
62822W        W34438  23.017   9.995   2.008
62823W        W34439   5.787  28.751   1.352
62824W        W34440  11.951  22.615  11.098
62825W        W34441  17.783  20.312   2.333
62826W        W34442   3.004  35.129   2.705
62827W        W34443  35.438   4.853   9.886
62828W        W34444  39.524   4.760   3.745
62829W        W34445  15.134  12.141   3.847
62830W        W34446  42.885  40.616   4.547
62831W        W34447  24.496  13.878   0.151
62832W        W34448  42.860  32.329  11.542
62833W        W34449   9.624  27.108  13.883
62834W        W34450  35.986  35.538  14.417
62835W        W34451  37.799  36.112  11.181
62836W        W34452  16.036  11.092   3.274
62837W        W34453  31.834  34.531  10.247
62838W        W34454  43.595   4.566  14.857
62839W        W34455  37.817  24.575  14.036
62840W        W34456  34.730  16.696  13.245
62841W        W34457   4.917   4.739   4.999
62842W        W34458  38.505   0.283   1.198
62843W        W34459  32.173  13.257   0.798
62844W        W34460  37.458   4.868  10.673
62845W        W34461  40.357  15.212   0.001
62846W        W34462  35.196  42.780  13.843
62847W        W34463  15.977  13.237   5.005
62848W        W34464  23.915   8.869  10.697
62849W        W34465  34.556  26.513   1.745
62850W        W34466  27.974   4.323   2.731
62851W        W34467  44.321  29.520  14.491
62852W        W34468   1.508   8.728   0.506
62853W        W34469  30.688  34.362   3.176
62854W        W34470   5.634  35.058   2.003
62855W        W34471   0.233   3.869   1.321
62856W        W34472   4.288  13.471   2.677
62857W        W34473  19.533  15.763   0.316
62858W        W34474  33.271  37.268  12.676
62859W        W34475   0.050  30.267   5.251
62860W        W34476  30.126  43.296  11.658
62861W        W34477  19.613  20.633   4.096
62862W        W34478  23.190   3.818  12.957
62863W        W34479  43.964  17.168   0.621
62864W        W34480  15.853  13.108  12.408
62865W        W34481  31.030   7.694  14.539
62866W        W34482   9.784  11.612  13.932
62867W        W34483   8.489   7.220   2.709
62868W        W34484  19.994   8.292   0.661
62869W        W34485  11.362  21.279   4.219
62870W        W34486  24.777  41.913  13.024
62871W        W34487  20.381  15.623   1.428
62872W        W34488  29.181   3.145   5.351
62873W        W34489  26.386  32.929   0.981
62874W        W34490  34.966  20.785   3.550
62875W        W34491  34.221  44.483   2.170
62876W        W34492  12.614  40.487  14.252
62877W        W34493   4.173  38.272  13.856
62878W        W34494  31.080   7.114   1.164
62879W        W34495  44.848   4.798  14.853
62880W        W34496   2.323  28.109   4.578
62881W        W34497  11.015  42.098  12.714
62882W        W34498  35.135  27.247  11.067
62883W        W34499   2.033  12.049   3.667
62884W        W34500  37.588  31.193  11.426
62885W        W34501  34.122   7.667   2.496
62886W        W34502   9.694   4.664  11.166
62887W        W34503  35.759   4.251   2.685
62888W        W34504   7.945  39.015  10.813
62889W        W34505   5.926  26.135   0.856
62890W        W34506  25.879  25.028   1.999
62891W        W34507   5.061  38.357   2.164
62892W        W34508   1.942  22.655   1.395
62893W        W34509  26.711  24.233  10.730
62894W        W34510  17.556  18.165   0.025
62895W        W34511  38.919   2.067  10.799
62896W        W34512  19.558  11.814  12.622
62897W        W34513  27.081  37.412   5.008
62898W        W34514  20.995  18.760   1.937
62899W        W34515  14.769  26.633  11.385
62900W        W34516  40.858  16.134   3.665
62901W        W34517  24.052  44.332  10.002
62902W        W34518  23.134  16.456  12.102
62903W        W34519  32.721  40.521   1.004
62904W        W34520  18.254  29.097  14.338
62905W        W34521   3.586   0.419  11.196
62906W        W34522   1.012  11.316  14.975
62907W        W34523  34.516  25.007   2.002
62908W        W34524  18.234   5.163   2.248
62909W        W34525  16.760  24.770  13.812
62910W        W34526   1.206  41.206   0.963
62911W        W34527  28.641  15.740  12.885
62912W        W34528  31.372  26.881  14.920
62913W        W34529  17.291  10.268   0.443
62914W        W34530  37.072   8.847   2.763
62915W        W34531   8.948  16.021   4.185
62916W        W34532  40.721  33.961   0.816
62917W        W34533   1.035  11.676   0.793
62918W        W34534   2.893   4.285   2.662
62919W        W34535  36.215  22.092  12.972
62920W        W34536  40.493  36.116   2.452
62921W        W34537  10.264  35.236   4.959
62922W        W34538  41.955  31.487  13.772
62923W        W34539  25.447  15.831   2.156
62924W        W34540  43.305   6.302  12.445
62925W        W34541  28.535  14.283  14.344
62926W        W34542  37.050  17.867   2.754
62927W        W34543   3.399   5.797  11.465
62928W        W34544  17.731  18.106  12.335
62929W        W34545  36.682  12.066   1.361
62930W        W34546  31.848  37.290  10.053
62931W        W34547  10.299  15.334   3.022
62932W        W34548   8.956  34.590  10.736
62933W        W34549  34.316   5.434  13.852
62934W        W34550   8.668  21.593  14.750
62935W        W34551  30.381   7.639  11.303
62936W        W34552  34.971  16.472   2.371
62937W        W34553  31.394   9.546  14.373
62938W        W34554  27.629  12.566  14.740
62939W        W34555   5.443   9.847   2.863
62940W        W34556   6.786  13.211  12.919
62941W        W34557  29.828   9.882   2.345
62942W        W34558  20.393   7.991   0.458
62943W        W34559  33.152  42.332  14.390
62944W        W34560  35.285   0.521   3.133
62945W        W34561  41.229   2.146   2.268
62946W        W34562  10.620  11.616  11.554
62947W        W34563  22.373  24.454  14.745
62948W        W34564  36.461  44.749   5.011
62949W        W34565  38.620  20.737  10.731
62950W        W34566  24.468  37.983  11.926
62951W        W34567   5.841  36.495   4.862
62952W        W34568  24.990   6.443  14.935
62953W        W34569  14.224  10.507  11.435
62954W        W34570  28.571  10.412  13.910
62955W        W34571  27.418  36.585  13.337
62956W        W34572  32.039  27.949   3.311
62957W        W34573  42.496  20.261  13.418
62958W        W34574   9.303   2.460   1.857
62959W        W34575   7.182  16.698  14.775
62960W        W34576  12.777  13.792   1.957
62961W        W34577   7.305   1.085   0.740
62962W        W34578  31.386  33.432   4.210
62963W        W34579  27.127  24.725   4.792
62964W        W34580  16.218  29.422  12.647
62965W        W34581   4.503  35.605   0.228
62966W        W34582  31.411   5.821  12.176
62967W        W34583   0.211  19.496  12.676
62968W        W34584  34.642  22.842  12.250
62969W        W34585  38.394  43.181  13.028
62970W        W34586  41.498  32.853   1.925
62971W        W34587  24.492  15.581   4.123
62972W        W34588  37.281  37.135   0.876
62973W        W34589  37.057   4.600   1.456
62974W        W34590   1.684  31.044  11.651
62975W        W34591   8.739  26.791  11.644
62976W        W34592   6.907  15.736  12.018
62977W        W34593  13.293  14.379  12.511
62978W        W34594  44.839  36.447   3.403
62979W        W34595  38.805  31.858   4.976
62980W        W34596  11.691   5.925   5.138
62981W        W34597   7.228   6.811  13.068
62982W        W34598  17.118   5.656  11.320
62983W        W34599  34.727  13.113  11.847
62984W        W34600  23.465  38.284   3.163
62985W        W34601  29.731  31.497   3.226
62986W        W34602  42.463  27.997  14.258
62987W        W34603  12.018  30.627  14.896
62988W        W34604  18.501  36.853  12.526
62989W        W34605  28.518  27.121  13.025
62990W        W34606  12.150  12.400  14.722
62991W        W34607  14.657   0.383   1.523
62992W        W34608  36.572  16.078  11.533
62993W        W34609  14.075  40.436  11.123
62994W        W34610  29.683  38.560  11.271
62995W        W34611  26.660  11.811   0.859
62996W        W34612  12.712   9.865  12.466
62997W        W34613  32.242  31.542   3.397
62998W        W34614  28.251  26.658   1.833
62999W        W34615   5.204  23.015  14.451
63000W        W34616  10.090   1.572   2.362
63001W        W34617  34.676  18.331   3.672
63002W        W34618  43.399  39.974  11.211
63003W        W34619  43.197   8.787  13.813
63004W        W34620  29.606  14.559   1.838
63005W        W34621   9.307  31.660  13.848
63006W        W34622  38.809  21.500  14.214
63007W        W34623   6.415  41.591   1.997
63008W        W34624  24.389  10.319  14.617
63009W        W34625   7.952  37.032   5.000
63010W        W34626  30.496  14.165  13.081
63011W        W34627  33.007  40.572  13.067
63012W        W34628   3.912  19.508   0.418
63013W        W34629  15.397  41.542   5.202
63014W        W34630  18.863   2.123  13.739
63015W        W34631  14.983   6.611  10.105
63016W        W34632  43.484  42.708   2.142
63017W        W34633  30.724   4.051  11.807
63018W        W34634  32.861  26.969   1.641
63019W        W34635  19.655  33.115   0.507
63020W        W34636  43.004  34.536   5.301
63021W        W34637  27.971  19.257  14.497
63022W        W34638  27.795  33.945   2.402
63023W        W34639  14.701  23.114  10.863
63024W        W34640  19.172   0.424  13.432
63025W        W34641  20.504  10.236  14.020
63026W        W34642   6.316  23.606   1.854
63027W        W34643  20.973  22.202  12.613
63028W        W34644  44.195   8.318  13.231
63029W        W34645   7.952  10.597  11.942
63030W        W34646   0.412  39.435  10.649
63031W        W34647   5.632  18.209  11.117
63032W        W34648  29.604   5.652   1.831
63033W        W34649  20.585  14.332   3.141
63034W        W34650  11.329   7.398  14.849
63035W        W34651  41.931   2.440   3.220
63036W        W34652  28.363  13.859  13.525
63037W        W34653  30.874  43.037  10.982
63038W        W34654   6.877  15.844   1.775
63039W        W34655  17.239  30.099   2.771
63040W        W34656  35.841  32.960   4.171
63041W        W34657  10.153   2.880  13.276
63042W        W34658  44.267  36.364  12.503
63043W        W34659  34.883  32.785   1.679
63044W        W34660  40.294  31.901  14.501
63045W        W34661  40.400   4.400  12.239
63046W        W34662  20.596   3.212  12.052
63047W        W34663  12.248  17.613  11.216
63048W        W34664  14.150  43.249  13.417
63049W        W34665   2.097  35.021   0.308
63050W        W34666  38.844   1.267   3.645
63051W        W34667   0.755  17.279   2.833
63052W        W34668  17.009  30.475  11.179
63053W        W34669   7.446  34.567  12.131
63054W        W34670  34.345  33.532  11.555
63055W        W34671   1.198   8.367   4.130
63056W        W34672  32.084  22.156   2.414
63057W        W34673  19.845  38.272  11.065
63058W        W34674   3.509   3.380   3.398
63059W        W34675  12.854  42.511   4.572
63060W        W34676   5.391   0.263  11.446
63061W        W34677  32.605   2.514   1.636
63062W        W34678  36.987  26.975   2.723
63063W        W34679  12.580  14.867  12.826
63064W        W34680   3.900  14.843  10.725
63065W        W34681  36.904  22.589  14.738
63066W        W34682  41.735  37.463   0.402
63067W        W34683   3.744  22.566  13.404
63068W        W34684   6.329   7.615   2.327
63069W        W34685   8.314  31.013   0.700
63070W        W34686  44.831  44.943   4.410
63071W        W34687  15.516  37.676   5.176
63072W        W34688   9.615  18.918  10.640
63073W        W34689  42.734   5.816   3.189
63074W        W34690  15.511  12.700   4.146
63075W        W34691  28.721  30.075   3.680
63076W        W34692  30.917  27.495   9.872
63077W        W34693  17.774  31.214   1.206
63078W        W34694  28.410   1.421  10.447
63079W        W34695  37.902  42.076   4.632
63080W        W34696  24.423  25.772  12.958
63081W        W34697  11.735   2.092  11.141
63082W        W34698   6.770  17.140  12.914
63083W        W34699  32.152   9.047  14.892
63084W        W34700  27.195  32.618   0.820
63085W        W34701   4.691  15.725  10.730
63086W        W34702   0.880  21.110   0.728
63087W        W34703  33.618   4.026  13.959
63088W        W34704  41.172  31.206  12.454
63089W        W34705  36.346  28.316  11.693
63090W        W34706  40.639  43.894   2.398
63091W        W34707   8.738   2.612  10.529
63092W        W34708  25.870   3.734  14.408
63093W        W34709   0.746  28.525   0.222
63094W        W34710  35.038  33.823   2.745
63095W        W34711   9.736  24.100   0.977
63096W        W34712  33.535   9.593  13.489
63097W        W34713   7.263  40.178   0.375
63098W        W34714   3.890  34.420  11.510
63099W        W34715  25.937  13.785   5.519
63100W        W34716  36.449  25.719  10.665
63101W        W34717  41.424  27.217   1.716
63102W        W34718  21.421  37.603  14.823
63103W        W34719  10.163  39.091   0.931
63104W        W34720  33.397  39.830  14.968
63105W        W34721  14.717  14.087  12.374
63106W        W34722  13.213  19.999   0.714
63107W        W34723   1.745   2.447   0.292
63108W        W34724  14.293   8.524   4.609
63109W        W34725  14.566  26.371   0.111
63110W        W34726  38.883  14.743   1.774
63111W        W34727  41.166  14.330   2.719
63112W        W34728  38.583  17.575   2.702
63113W        W34729   8.653  20.498   0.345
63114W        W34730   0.223  42.940  13.451
63115W        W34731  22.965  44.976   1.499
63116W        W34732   4.524  20.359  11.091
63117W        W34733  23.243  41.319  12.580
63118W        W34734   8.674   5.724  13.402
63119W        W34735   6.714  32.141  13.694
63120W        W34736   0.785   5.217   2.296
63121W        W34737  43.795   1.688   0.581
63122W        W34738  35.431  39.542   4.147
63123W        W34739  27.167   4.104  11.973
63124W        W34740  26.703  29.091  12.514
63125W        W34741   4.407  29.809  11.504
63126W        W34742  14.703  24.109  12.375
63127W        W34743  25.732  23.639   0.770
63128W        W34744   3.505  22.187  12.931
63129W        W34745  24.674  15.858  10.853
63130W        W34746  25.679  22.480  13.911
63131W        W34747   9.266  30.683  14.846
63132W        W34748  15.342  40.312  12.349
63133W        W34749   5.355  17.638   2.352
63134W        W34750  34.130  43.877   3.139
63135W        W34751   1.692  13.239  12.069
63136W        W34752  13.056   6.757   4.513
63137W        W34753  17.110   4.410   3.766
63138W        W34754  19.521   0.468  13.886
63139W        W34755  31.385   9.885  12.055
63140W        W34756  40.237   9.717   3.598
63141W        W34757   5.250   0.871  14.165
63142W        W34758   0.571  43.339  10.785
63143W        W34759  42.719   0.819   4.670
63144W        W34760   5.838   1.336  14.344
63145W        W34761  28.479  25.648  14.053
63146W        W34762  16.331   2.809  13.033
63147W        W34763  21.666   2.651  14.595
63148W        W34764  23.591   4.896   3.807
63149W        W34765  31.003  24.701  12.474
63150W        W34766  37.497  27.311  10.216
63151W        W34767  16.869  22.032  14.255
63152W        W34768   2.543  41.779   4.526
63153W        W34769  33.752  18.382  11.080
63154W        W34770  20.150  16.993  10.238
63155W        W34771  28.125  12.682  11.633
63156W        W34772  27.473  34.927  11.984
63157W        W34773  27.805  13.664  10.472
63158W        W34774  15.236  33.940  11.188
63159W        W34775  30.963  33.056  10.606
63160W        W34776   6.693  24.037   0.434
63161W        W34777  21.223   5.714  14.922
63162W        W34778   0.018  24.990   1.433
63163W        W34779   7.216  41.445   4.670
63164W        W34780  30.607   9.269   0.169
63165W        W34781   6.900  41.721   3.603
63166W        W34782  37.733  26.014   0.832
63167W        W34783  33.371  25.240  14.364
63168W        W34784  32.152  14.603  12.486
63169W        W34785   7.235  21.277   2.355
63170W        W34786  19.693  23.282   1.717
63171W        W34787  41.369   3.518   1.733
63172W        W34788   8.354   6.516  13.446
63173W        W34789  34.286  17.597  12.613
63174W        W34790  24.445  29.899  11.981
63175W        W34791   6.641  25.225   1.252
63176W        W34792  44.786  26.148  11.295
63177W        W34793  11.661   3.466   4.519
63178W        W34794   3.284   0.034   3.729
63179W        W34795  36.916  20.101  13.281
63180W        W34796   9.397  30.561   4.113
63181W        W34797  32.041   6.444   4.500
63182W        W34798  36.957  26.087  12.255
63183W        W34799  18.181  40.510   3.214
63184W        W34800   7.153   2.727  10.818
63185W        W34801   4.391  11.585  10.676
63186W        W34802  44.890   2.152   1.195
63187W        W34803  14.147   8.711  11.606
63188W        W34804  37.007  16.104   3.292
63189W        W34805  16.280  12.660  10.639
63190W        W34806  11.351  16.768  13.997
63191W        W34807   0.533  24.466   2.867
63192W        W34808  38.052  31.183   3.369
63193W        W34809  30.229  43.797   0.194
63194W        W34810  23.481  33.483  10.903
63195W        W34811  13.825  35.100   2.298
63196W        W34812  37.453  31.874  11.254
63197W        W34813   9.815   7.609  11.617
63198W        W34814  28.554  22.871  12.158
63199W        W34815  14.296  23.988  11.140
63200W        W34816  33.245   4.384  14.058
63201W        W34817   7.257  38.250  13.881
63202W        W34818  15.596   1.167  13.842
63203W        W34819   0.529  39.766  13.786
63204W        W34820  28.521  16.089  10.715
63205W        W34821  42.836  40.853  13.572
63206W        W34822  34.336  41.757  11.969
63207W        W34823  42.282   8.355   2.314
63208W        W34824   3.784  32.599  10.386
63209W        W34825   8.155  27.057   2.299
63210W        W34826  40.295  30.579  12.843
63211W        W34827  43.268  22.506  13.831
63212W        W34828   3.396  31.486   0.644
63213W        W34829  28.003  26.966   4.054
63214W        W34830  21.775  29.693  10.246
63215W        W34831   0.801  17.338  14.391
63216W        W34832  20.368  44.441  13.948
63217W        W34833  33.647  43.179   0.429
63218W        W34834  18.359   1.728  12.958
63219W        W34835  38.441  28.502  12.065
63220W        W34836  29.655  16.022   2.886
63221W        W34837  36.093  18.632   1.951
63222W        W34838  15.804  32.934  11.648
63223W        W34839   7.311  24.734  11.515
63224W        W34840  42.358  34.615   4.487
63225W        W34841  13.241  37.019  13.027
63226W        W34842  43.959  41.645   0.733
63227W        W34843  16.300  41.886   0.296
63228W        W34844  11.866  35.217  12.927
63229W        W34845  15.783   7.389   0.963
63230W        W34846   9.611  40.931   0.830
63231W        W34847  39.362  36.131   2.873
63232W        W34848  10.397  32.188  12.103
63233W        W34849  36.585  44.390  11.029
63234W        W34850  14.647  36.525   0.782
63235W        W34851  30.481  38.831   0.006
63236W        W34852   4.903  19.632  10.222
63237W        W34853   6.146  32.155  14.773
63238W        W34854  16.125  26.166  11.465
63239W        W34855  39.694  19.446  12.684
63240W        W34856  40.275  18.657  13.040
63241W        W34857  40.010   1.367   2.975
63242W        W34858  29.438  14.163  11.123
63243W        W34859  18.032  22.523   1.379
63244W        W34860  18.192  35.941  14.041
63245W        W34861  22.581  44.835   4.223
63246W        W34862  10.921  22.747  11.003
63247W        W34863   2.156  10.378   3.510
63248W        W34864  24.948  21.036  14.470
63249W        W34865   0.954  41.247  10.631
63250W        W34866  15.108  43.394   3.061
63251W        W34867  13.694  11.724  10.691
63252W        W34868  21.303  26.721  13.832
63253W        W34869   4.709  23.975   3.611
63254W        W34870  15.122  19.703  13.075
63255W        W34871   0.930  36.955  12.325
63256W        W34872  26.452  12.275   2.267
63257W        W34873  30.652   3.253   2.284
63258W        W34874  40.491  30.530  12.352
63259W        W34875   4.893  10.865   4.781
63260W        W34876   3.660  11.869  11.633
63261W        W34877  29.627  16.671   4.222
63262W        W34878  17.110   1.451  13.918
63263W        W34879   9.769   6.858   3.237
63264W        W34880  25.604   6.100   0.215
63265W        W34881  39.336  19.018   1.846
63266W        W34882  35.041   0.776  14.388
63267W        W34883   3.963  29.537  13.394
63268W        W34884  40.418  43.180  12.254
63269W        W34885   2.532  10.192  10.646
63270W        W34886  36.435   0.506   0.297
63271W        W34887   0.363  23.497  13.504
63272W        W34888  26.671  23.012  13.599
63273W        W34889  18.800  37.623   0.552
63274W        W34890  11.503  37.329   4.254
63275W        W34891   0.752  36.436  11.080
63276W        W34892  21.264  15.200  14.012
63277W        W34893  41.505   1.229   2.808
63278W        W34894  13.453  38.278   3.775
63279W        W34895  36.548  43.441   2.675
63280W        W34896  15.393   1.781  11.369
63281W        W34897   3.206  32.689   1.724
63282W        W34898   4.407   7.720   4.594
63283W        W34899   7.931  11.661   0.337
63284W        W34900   8.179  16.101   1.133
63285W        W34901  39.402   2.286  13.465
63286W        W34902  29.383  34.530   1.262
63287W        W34903  27.037  11.240   0.818
63288W        W34904  34.515   2.171  11.651
63289W        W34905  38.591  27.716   0.289
63290W        W34906   7.739  26.509  11.642
63291W        W34907   6.155  13.404   1.664
63292W        W34908  12.294  10.993   2.875
63293W        W34909  18.731   6.250  12.038
63294W        W34910   4.897   4.419  12.944
63295W        W34911  43.279  33.581  11.979
63296W        W34912  14.758  17.101  12.484
63297W        W34913   6.297  26.733  14.210
63298W        W34914   5.074  43.493   2.172
63299W        W34915  15.258  40.567   3.766
63300W        W34916  14.538  15.081   1.374
63301W        W34917   3.304  30.488  10.651
63302W        W34918   8.947  43.619   4.566
63303W        W34919  26.608  20.592  10.618
63304W        W34920  30.980  12.751   2.692
63305W        W34921   9.136  27.997  13.920
63306W        W34922   8.263  40.547   3.155
63307W        W34923  17.240  21.618  14.329
63308W        W34924  43.502   7.341   4.567
63309W        W34925  34.466   8.185   4.738
63310W        W34926  25.773  31.165   3.626
63311W        W34927  13.568  43.563   3.759
63312W        W34928  35.251  23.639  14.800
63313W        W34929  23.073  18.573  13.546
63314W        W34930   8.399  44.419   1.481
63315W        W34931  39.732   7.117  11.474
63316W        W34932  12.633  13.708  14.456
63317W        W34933  33.720  18.558  10.388
63318W        W34934  41.009  23.511  14.054
63319W        W34935  30.339  30.044   4.023
63320W        W34936  35.536   3.328   0.691
63321W        W34937   9.837  15.546  13.968
63322W        W34938  37.526   5.275  14.709
63323W        W34939   0.280  31.012  11.122
63324W        W34940  16.197  21.585   1.212
63325W        W34941  28.551   3.954   1.031
63326W        W34942  23.752  10.806  14.522
63327W        W34943   7.535  26.330  12.300
63328W        W34944   3.488  20.678  12.774
63329W        W34945  44.951   4.417  12.818
63330W        W34946  15.269  21.477   2.742
63331W        W34947  36.008   1.733   1.277
63332W        W34948  18.062  22.088   4.097
63333W        W34949  28.805  18.776   3.068
63334W        W34950  26.503  12.567  12.015
63335W        W34951  39.890  40.073   0.071
63336W        W34952  11.811  10.402   1.175
63337W        W34953  15.650  39.401   1.189
63338W        W34954   5.039   0.347   2.510
63339W        W34955  11.588   9.298   0.406
63340W        W34956  27.160  13.795  12.228
63341W        W34957  23.715  42.067   1.859
63342W        W34958  38.276  18.038  13.018
63343W        W34959  30.372   2.144  13.959
63344W        W34960  23.213  16.167   4.535
63345W        W34961   8.160  26.293   0.936
63346W        W34962  36.914  24.826   1.696
63347W        W34963  42.220  25.672   4.818
63348W        W34964  34.052  14.929  14.808
63349W        W34965  29.478  20.816   0.748
63350W        W34966   7.415  33.949  11.398
63351W        W34967  43.946   0.564  11.615
63352W        W34968  37.607  10.305   4.163
63353W        W34969   5.839   7.361   2.907
63354W        W34970  42.738  14.263   3.883
63355W        W34971  29.592  40.619   4.658
63356W        W34972   6.852   8.858   3.621
63357W        W34973  25.248  34.109   1.667
63358W        W34974  25.539  34.431   4.592
63359W        W34975  21.440  34.438   2.138
63360W        W34976  37.827  33.376  12.756
63361W        W34977   0.449  19.513  11.674
63362W        W34978  18.611   6.854   0.770
63363W        W34979  15.023  30.653   3.241
63364W        W34980  42.830   4.314  13.452
63365W        W34981   0.418   0.425   1.784
63366W        W34982  40.843  38.428   3.291
63367W        W34983  18.007  33.954   1.343
63368W        W34984  40.206  21.186   4.608
63369W        W34985  10.959  37.281   1.796
63370W        W34986  25.009  14.701  10.950
63371W        W34987   5.007  32.534   4.435
63372W        W34988  44.410  13.388  12.005
63373W        W34989  17.192   1.310  11.376
63374W        W34990  17.349  44.296   0.562
63375W        W34991  20.639  44.178  13.133
63376W        W34992  15.012  27.138   1.901
63377W        W34993  26.566  41.536   3.304
63378W        W34994  32.016   3.478  14.396
63379W        W34995  10.938   4.616  11.540
63380W        W34996  12.789  27.497  13.725
63381W        W34997   0.302  22.046  10.980
63382W        W34998   8.930  35.968   4.478
63383W        W34999  37.942   4.655  13.053
63384W        W35000  11.240  17.143   2.426
63385W        W35001  32.544  20.216  14.729
63386W        W35002  42.504  28.095   2.924
63387W        W35003  38.391  42.239  12.051
63388W        W35004   9.526   7.065   4.598
63389W        W35005  21.559  40.323   3.888
63390W        W35006   3.316  15.350  14.430
63391W        W35007  13.876  17.618  12.495
63392W        W35008  14.426   4.067  14.859
63393W        W35009  26.064  23.538  12.027
63394W        W35010  36.018  21.904  10.367
63395W        W35011  18.168  22.152   2.191
63396W        W35012  39.041  22.781   2.396
63397W        W35013  21.697  30.602   4.317
63398W        W35014  44.860   0.020   0.228
63399W        W35015  19.717  25.245   3.309
63400W        W35016  20.095  40.336   1.424
63401W        W35017  13.148  20.012  10.986
63402W        W35018  21.431  16.220  10.609
63403W        W35019  29.600  40.200  11.657
63404W        W35020  10.064  32.132   2.221
63405W        W35021  17.683  20.187   3.446
63406W        W35022  19.756   2.250   3.368
63407W        W35023  20.041  10.773  12.590
63408W        W35024  32.978   0.702   1.160
63409W        W35025   7.199  19.033   4.542
63410W        W35026   6.784  43.207  12.925
63411W        W35027  33.682  30.644  14.789
63412W        W35028  22.242   5.648  14.836
63413W        W35029  28.495  14.612  10.615
63414W        W35030   5.008   6.294  12.474
63415W        W35031  12.723  39.840   2.291
63416W        W35032  15.711  41.797   2.355
63417W        W35033  25.605  36.459   3.249
63418W        W35034  10.568   6.216   4.959
63419W        W35035  21.569  17.661  13.813
63420W        W35036   5.259  31.457   4.660
63421W        W35037  34.453   7.686   2.100
63422W        W35038  31.219   8.200  14.504
63423W        W35039  13.105  13.164  12.870
63424W        W35040  44.886  25.994   2.664
63425W        W35041   9.665  29.075  13.352
63426W        W35042  41.508  29.160  13.012
63427W        W35043   5.792   6.839  11.298
63428W        W35044  11.123  15.061   0.502
63429W        W35045   2.912  29.748   3.672
63430W        W35046  37.796  24.572   2.711
63431W        W35047  14.281  39.556   0.128
63432W        W35048   4.483  10.241  12.446
63433W        W35049  23.080  18.116  10.637
63434W        W35050  14.259  28.804   0.347
63435W        W35051  38.519   7.242  11.091
63436W        W35052  20.242  16.798   0.806
63437W        W35053   2.566  31.128  13.436
63438W        W35054  14.502  26.072   3.297
63439W        W35055  43.159  40.268   3.404
63440W        W35056   8.701  36.831   1.774
63441W        W35057  14.359  26.887   0.844
63442W        W35058  29.886  20.224   1.199
63443W        W35059  36.043  32.098  10.317
63444W        W35060  38.615  38.518  11.118
63445W        W35061  33.051  34.807  14.068
63446W        W35062   1.705  19.672   4.168
63447W        W35063  12.016   6.765  13.375
63448W        W35064  31.624  18.172  12.961
63449W        W35065  11.816  40.196  12.329
63450W        W35066  16.489   0.996   0.821
63451W        W35067   0.242   5.782  11.923
63452W        W35068  36.117  10.233   0.101
63453W        W35069  25.004  30.032   1.716
63454W        W35070  30.907  12.301  10.674
63455W        W35071  26.585   8.740  11.432
63456W        W35072  23.194  29.835  12.476
63457W        W35073  43.931  22.524  14.845
63458W        W35074  21.438  34.117   0.810
63459W        W35075  15.124   3.877  10.671
63460W        W35076  35.358  28.720   1.678
63461W        W35077   3.195  25.690  13.278
63462W        W35078  19.762  36.840   3.693
63463W        W35079  21.842   1.309  13.347
63464W        W35080  23.201   5.228   3.896
63465W        W35081  39.129  28.964  13.478
63466W        W35082  33.427  31.727  12.069
63467W        W35083  25.453  19.379   2.410
63468W        W35084  27.175  11.628  12.557
63469W        W35085  18.628  28.335   3.441
63470W        W35086  35.544  11.350   0.226
63471W        W35087  42.547  34.450   1.022
63472W        W35088  27.469  31.219   2.899
63473W        W35089  16.655   2.243   4.857
63474W        W35090  27.205  12.273   1.924
63475W        W35091  21.812  22.676  12.532
63476W        W35092  27.142  33.968   1.218
63477W        W35093  32.366  24.085   3.981
63478W        W35094  33.694   5.967  12.640
63479W        W35095   6.042  34.620   4.168
63480W        W35096  40.761  20.148  13.820
63481W        W35097   0.470   7.449  11.849
63482W        W35098  24.280   7.094  11.629
63483W        W35099  20.737   1.758   4.141
63484W        W35100   3.201   9.965   2.309
63485W        W35101  27.434  32.976  14.897
63486W        W35102  28.997  16.158  11.927
63487W        W35103  24.037  13.609   2.164
63488W        W35104   6.861   3.179   2.312
63489W        W35105  19.173  38.063  13.133
63490W        W35106  24.403   5.420  10.585
63491W        W35107   7.445   1.262  12.620
63492W        W35108  22.795  12.884  11.776
63493W        W35109  10.906  35.888  14.602
63494W        W35110  15.351  25.928  12.401
63495W        W35111  42.440  30.932  14.368
63496W        W35112  29.402   9.638  13.315
63497W        W35113   3.817  36.908  12.985
63498W        W35114  24.135  35.513  13.767
63499W        W35115  22.005   0.918  11.711
63500W        W35116  35.410  28.483  11.889
63501W        W35117  30.362  12.275  12.561
63502W        W35118  43.495   6.349  13.871
63503W        W35119  14.986   7.257   4.698
63504W        W35120  41.828   6.948   0.028
63505W        W35121   1.877  21.622   2.245
63506W        W35122   9.065  17.304  11.723
63507W        W35123  26.992  30.486  12.387
63508W        W35124  34.119   6.493   4.179
63509W        W35125  16.059  39.238  11.101
63510W        W35126  38.546  25.068   2.527
63511W        W35127  10.279  36.974  12.821
63512W        W35128  23.975  38.372   1.806
63513W        W35129  21.314  31.942   1.315
63514W        W35130  21.739   3.885   4.823
63515W        W35131  32.826  36.537   3.882
63516W        W35132   5.371  23.160  11.954
63517W        W35133  27.388   0.442  14.399
63518W        W35134   2.805  16.631  11.616
63519W        W35135  31.128   2.824   4.088
63520W        W35136  35.114  40.485  12.609
63521W        W35137  26.471  26.272   1.739
63522W        W35138  32.224  39.337  11.111
63523W        W35139  15.197  23.403   1.939
63524W        W35140  24.431  17.783   4.262
63525W        W35141  12.952   1.872   3.869
63526W        W35142   7.258  10.541  12.451
63527W        W35143  44.379  32.073   1.058
63528W        W35144   2.871  26.209  10.666
63529W        W35145  17.024  16.592  14.966
63530W        W35146  36.476  38.493   1.874
63531W        W35147  17.674  40.206   2.446
63532W        W35148  20.687  11.920   3.238
63533W        W35149  25.987  44.621  11.699
63534W        W35150  28.074  31.864  13.913
63535W        W35151  34.005  27.519  12.806
63536W        W35152  34.589   3.391   4.865
63537W        W35153  38.906  12.099   3.266
63538W        W35154  18.637  37.502  13.861
63539W        W35155  26.964  44.899   0.498
63540W        W35156   8.711  15.575  11.254
63541W        W35157  20.371  34.366   3.873
63542W        W35158  19.702  23.085  12.205
63543W        W35159  29.197  32.577  14.926
63544W        W35160   8.148  33.291   5.087
63545W        W35161   8.179  15.277   0.220
63546W        W35162  13.663  35.789  14.157
63547W        W35163   5.355  39.446  12.432
63548W        W35164  37.340  26.395  14.959
63549W        W35165  11.857  31.991  12.383
63550W        W35166  15.513  15.160   4.665
63551W        W35167  17.348  36.511  12.412
63552W        W35168  11.957   6.441  10.035
63553W        W35169  27.193  11.744   0.891
63554W        W35170   1.905  34.637   2.178
63555W        W35171  44.844   0.513   3.577
63556W        W35172  28.706  14.175  11.551
63557W        W35173  21.291  20.773  11.042
63558W        W35174  39.871  29.269   4.682
63559W        W35175   4.279  37.377   0.696
63560W        W35176  21.241  18.212  14.439
63561W        W35177  12.316  35.228  14.533
63562W        W35178  17.491  37.478  11.998
63563W        W35179  35.042  26.582  12.432
63564W        W35180  32.037   9.119  12.924
63565W        W35181  24.603   3.347  11.593
63566W        W35182  13.631  41.413   3.686
63567W        W35183  11.653  25.640  10.833
63568W        W35184   4.315  13.343  12.448
63569W        W35185  34.425  32.077   4.013
63570W        W35186  11.806  19.773   4.983
63571W        W35187  27.013  39.322  14.390
63572W        W35188  13.965   5.848   1.776
63573W        W35189   7.830  35.591  11.533
63574W        W35190  38.864   2.270  11.563
63575W        W35191   0.415  13.291  14.226
63576W        W35192  11.317  28.061   1.677
63577W        W35193  29.654  25.722   0.297
63578W        W35194  35.051   7.337   1.558
63579W        W35195  41.416  17.617   3.403
63580W        W35196  12.747   6.734   2.205
63581W        W35197  28.002  28.954  13.595
63582W        W35198  40.449  10.793  14.278
63583W        W35199  24.868  34.651  14.805
63584W        W35200  41.486  29.758   1.804
63585W        W35201  22.201  44.800  11.130
63586W        W35202   1.798   9.215  11.868
63587W        W35203  20.626  18.727  11.995
63588W        W35204  21.050  35.408  13.548
63589W        W35205  32.133   3.842  10.708
63590W        W35206   8.091   2.774   0.394
63591W        W35207  26.102  25.476   1.929
63592W        W35208  22.719  17.104  13.264
63593W        W35209   2.945  30.394  14.232
63594W        W35210  14.681  31.137  11.993
63595W        W35211   0.927  31.035   2.409
63596W        W35212  11.580  25.665   4.567
63597W        W35213  25.787  28.078  14.346
63598W        W35214  20.524  23.209  13.552
63599W        W35215  38.271  15.817   1.854
63600W        W35216  33.922  31.677   3.236
63601W        W35217   5.276  32.938   3.629
63602W        W35218  19.731  16.738  10.031
63603W        W35219   6.839  29.468  14.034
63604W        W35220   5.815   5.847   3.243
63605W        W35221  11.392  22.100   0.118
63606W        W35222  28.601  24.221  11.470
63607W        W35223   2.913   1.981   4.698
63608W        W35224  26.220  21.651  13.096
63609W        W35225  19.531  43.831  14.978
63610W        W35226  20.969   8.597  11.993
63611W        W35227  14.721   8.255   4.614
63612W        W35228   8.228  17.486  14.258
63613W        W35229  22.028   2.863  14.307
63614W        W35230   4.299   8.741  11.453
63615W        W35231  27.652   2.908   1.616
63616W        W35232   8.461  27.725   3.200
63617W        W35233  14.493  44.438  12.399
63618W        W35234  42.960  44.783  12.597
63619W        W35235  42.910   2.018  12.989
63620W        W35236   9.238  36.115  11.196
63621W        W35237  37.126  29.057  13.044
63622W        W35238   1.868  31.483  12.853
63623W        W35239  36.892  30.355  12.074
63624W        W35240  14.968  22.555  14.409
63625W        W35241  28.975  24.661   2.904
63626W        W35242  31.863  18.094   4.327
63627W        W35243  25.409  11.381  12.928
63628W        W35244  10.314   3.757   0.901
63629W        W35245  37.338   8.961   0.623
63630W        W35246  23.191   1.184   2.152
63631W        W35247   0.286   3.307  13.348
63632W        W35248  44.807  41.173  11.213
63633W        W35249  38.587  22.507   3.260
63634W        W35250  26.614  17.118   3.388
63635W        W35251  10.259  26.180   2.322
63636W        W35252   1.620  44.533   1.250
63637W        W35253  11.918   4.999   0.240
63638W        W35254   8.162  34.320   4.536
63639W        W35255  43.949   6.966   1.764
63640W        W35256  15.800  36.585  11.040
63641W        W35257  20.611  35.498  14.437
63642W        W35258  12.701  33.392   3.752
63643W        W35259  24.710  22.121   1.204
63644W        W35260  17.334   9.331   4.641
63645W        W35261  24.383  24.600   0.857
63646W        W35262  39.970  37.584   1.390
63647W        W35263  41.876  44.640   0.833
63648W        W35264   5.911  23.478   1.424
63649W        W35265  32.962  32.084   3.249
63650W        W35266   5.697  44.588  12.250
63651W        W35267  18.277   4.569  11.533
63652W        W35268  27.841   3.754   4.169
63653W        W35269  12.288  35.647   1.506
63654W        W35270  18.037  40.791   2.676
63655W        W35271  20.788  10.766   4.288
63656W        W35272  41.826  41.105   4.815
63657W        W35273   1.007  42.367   3.221
63658W        W35274  30.215  42.244  11.502
63659W        W35275   7.089  39.758  11.091
63660W        W35276  40.449  38.209  12.523
63661W        W35277  43.003  43.254  12.428
63662W        W35278  14.685  24.251  14.829
63663W        W35279   8.976   0.428   4.904
63664W        W35280  28.976  37.446  13.889
63665W        W35281  36.155  42.190  14.403
63666W        W35282  11.238  33.070   4.573
63667W        W35283   1.194  35.358   3.158
63668W        W35284  38.579  23.070   2.789
63669W        W35285  23.086  35.626  11.474
63670W        W35286  10.962   7.972  12.873
63671W        W35287  33.397   2.843  11.403
63672W        W35288  41.810  14.786  14.457
63673W        W35289  34.721   9.661  12.556
63674W        W35290  30.342  41.303  13.358
63675W        W35291   8.414  43.285  13.115
63676W        W35292  38.261  11.525   4.967
63677W        W35293  25.745  29.879   4.301
63678W        W35294  17.248  11.284  14.098
63679W        W35295  39.846  20.517  11.442
63680W        W35296   2.486  24.692   3.351
63681W        W35297  36.547   6.701   0.783
63682W        W35298  16.767   0.919   1.255
63683W        W35299  11.606  14.258  14.917
63684W        W35300   2.100  29.059   1.165
63685W        W35301  17.324  29.930   1.734
63686W        W35302  27.185  35.867   2.651
63687W        W35303  41.748  41.702  12.492
63688W        W35304   9.372  37.478   5.089
63689W        W35305   7.314  36.797   1.541
63690W        W35306   5.705   0.915   4.495
63691W        W35307   2.138  19.073  13.828
63692W        W35308  24.021  42.171   1.158
63693W        W35309   6.190  40.328   3.230
63694W        W35310  37.858  27.552   0.703
63695W        W35311  26.053  17.148  12.593
63696W        W35312  10.400  23.754   4.388
63697W        W35313  35.879  43.945  12.914
63698W        W35314  11.210   4.201  11.119
63699W        W35315   0.380  43.426   4.370
63700W        W35316  11.331   1.384   1.479
63701W        W35317  42.336   5.023  14.431
63702W        W35318  33.158  44.454  13.681
63703W        W35319   1.952  19.692   2.252
63704W        W35320  14.018  24.126   2.684
63705W        W35321  34.159  38.952   4.233
63706W        W35322   0.419  22.184   0.910
63707W        W35323  32.874  11.162  13.874
63708W        W35324  35.382  33.100   3.224
63709W        W35325  16.203  29.431   1.258
63710W        W35326  32.030   0.841  12.394
63711W        W35327  42.404  31.046  13.485
63712W        W35328  44.017  35.958   5.048
63713W        W35329  40.745   9.551  13.555
63714W        W35330  38.409  26.673  11.003
63715W        W35331   4.206  10.360  12.909
63716W        W35332  23.300  23.534   4.467
63717W        W35333  35.147   8.106  11.603
63718W        W35334  26.242  39.546   0.017
63719W        W35335   3.691   8.458   1.837
63720W        W35336   1.742   5.345  11.627
63721W        W35337   4.690   2.157  11.612
63722W        W35338  27.715  31.931   3.322
63723W        W35339   7.260   1.445  11.184
63724W        W35340  32.179  36.755   2.308
63725W        W35341  29.111  33.047  14.156
63726W        W35342  24.781  12.868   3.637
63727W        W35343  11.774  18.232  10.739
63728W        W35344   6.294  13.910   2.851
63729W        W35345  25.701  16.085   4.559
63730W        W35346  20.710   0.231   1.848
63731W        W35347  27.169  25.213   0.665
63732W        W35348  37.051   5.085  12.570
63733W        W35349  37.475  19.112   3.859
63734W        W35350   4.860  24.834   3.213
63735W        W35351  36.867   7.517  11.500
63736W        W35352   1.129  39.887  14.618
63737W        W35353   8.837  15.157   3.405
63738W        W35354  37.527  32.925  10.562
63739W        W35355  11.924  25.750  13.913
63740W        W35356  40.376  40.605  12.037
63741W        W35357  28.446  13.357   1.281
63742W        W35358   5.896   4.657   1.777
63743W        W35359  33.110  30.380   1.685
63744W        W35360  33.565  20.083  10.299
63745W        W35361  23.007   1.336   1.205
63746W        W35362  11.388   5.052  10.766
63747W        W35363  22.278   5.239   2.339
63748W        W35364  21.132  39.495   3.682
63749W        W35365  13.235  42.618  12.889
63750W        W35366  31.464  20.989  14.431
63751W        W35367  10.463  34.399   1.977
63752W        W35368   2.892  13.435  12.590
63753W        W35369  30.860   8.585   2.924
63754W        W35370  19.742   7.708  14.390
63755W        W35371  13.563  41.826  14.719
63756W        W35372  35.808  32.509   0.804
63757W        W35373   6.677  43.200  11.167
63758W        W35374  39.818  39.278   0.771
63759W        W35375  11.376  42.037   4.164
63760W        W35376   2.938  30.186  13.201
63761W        W35377  37.927  22.213   0.804
63762W        W35378  13.369  36.666   1.268
63763W        W35379  33.857  32.694   4.199
63764W        W35380  27.216   0.804  12.945
63765W        W35381  10.554  19.239  14.898
63766W        W35382  33.748   4.789  12.902
63767W        W35383  19.847   3.394   0.012
63768W        W35384  14.338  35.784  11.596
63769W        W35385  31.984  32.866   1.859
63770W        W35386  43.263  24.582   4.695
63771W        W35387  33.121   6.990   3.230
63772W        W35388  36.653  32.395  11.570
63773W        W35389  14.240  25.711   4.906
63774W        W35390   3.675   7.456   2.771
63775W        W35391   4.091  14.196  14.419
63776W        W35392   9.177  35.855  14.367
63777W        W35393  29.992  29.507  13.874
63778W        W35394  30.481  28.492   0.048
63779W        W35395  29.963   6.159   0.220
63780W        W35396   8.742  33.009   2.344
63781W        W35397  14.172  13.016  10.753
63782W        W35398  12.370  13.731   3.476
63783W        W35399  43.416   6.366  11.476
63784W        W35400  42.018  28.522  13.080
63785W        W35401   3.879  14.049   0.867
63786W        W35402  28.557  12.805   1.980
63787W        W35403  37.035   8.905  10.869
63788W        W35404  11.680  29.606   0.217
63789W        W35405  30.372  24.593   4.112
63790W        W35406  18.313  38.880   2.022
63791W        W35407  17.123  34.346  11.357
63792W        W35408  13.511  20.708  13.381
63793W        W35409  16.640   1.603   0.330
63794W        W35410   8.818  22.726  11.224
63795W        W35411  25.519  31.529  10.819
63796W        W35412  17.910   2.909  11.936
63797W        W35413  13.494  12.280   2.762
63798W        W35414   1.315  22.985   2.278
63799W        W35415   3.369  13.287   4.198
63800W        W35416  38.114   5.007   2.350
63801W        W35417  36.478   8.335  11.069
63802W        W35418  10.143  27.564  14.433
63803W        W35419  34.020  29.415   0.227
63804W        W35420  14.070  36.572   3.677
63805W        W35421  19.239  26.920   4.231
63806W        W35422  19.439  22.209  10.928
63807W        W35423  27.518   2.912  14.472
63808W        W35424  17.059   5.440   3.891
63809W        W35425  44.003  42.023  12.001
63810W        W35426  12.635   6.484  13.998
63811W        W35427  19.115  21.560  12.459
63812W        W35428  13.578  16.764  14.455
63813W        W35429   8.456  13.291  13.871
63814W        W35430  30.523  22.378  12.484
63815W        W35431  39.425   0.007  11.157
63816W        W35432  19.101  20.507  10.983
63817W        W35433  10.958  37.346  12.530
63818W        W35434  40.889  22.595  13.532
63819W        W35435   9.569  19.094  14.592
63820W        W35436   6.246  14.058   2.338
63821W        W35437  34.010   9.702   0.964
63822W        W35438  42.349  24.660   3.682
63823W        W35439  29.345  18.160  10.752
63824W        W35440  40.327  17.581  10.689
63825W        W35441   2.739  40.884  13.481
63826W        W35442  16.488   3.817   3.231
63827W        W35443  39.553   5.245   3.547
63828W        W35444  26.517  43.259  14.288
63829W        W35445  44.430  36.092  13.836
63830W        W35446  10.735  14.149  14.018
63831W        W35447  10.620  40.015  10.564
63832W        W35448  23.532  16.138   4.094
63833W        W35449  23.078   7.948   0.499
63834W        W35450  42.793  31.523   0.416
63835W        W35451   3.162  31.098  12.586
63836W        W35452  21.537  10.325   3.912
63837W        W35453   6.844  22.565   0.448
63838W        W35454   1.750  35.749   1.964
63839W        W35455  21.626  16.175  13.363
63840W        W35456  41.996  37.879   4.192
63841W        W35457  21.073   8.912  10.726
63842W        W35458   4.022  24.056   4.208
63843W        W35459  19.442   1.029  11.045
63844W        W35460  23.069  25.487  12.945
63845W        W35461  15.567  22.972  14.861
63846W        W35462   8.338   1.429  11.031
63847W        W35463  31.592   9.406  12.954
63848W        W35464  13.644  42.643  13.856
63849W        W35465  19.662  21.527  11.587
63850W        W35466  27.490  41.823  11.176
63851W        W35467  22.140  43.877  14.120
63852W        W35468  30.228  10.605  11.487
63853W        W35469  24.462  22.277  11.206
63854W        W35470   9.218  39.606   2.635
63855W        W35471  44.409  39.426  14.288
63856W        W35472  16.776  26.978   4.765
63857W        W35473  33.319  20.016   4.252
63858W        W35474  12.768  14.233   4.679
63859W        W35475  40.406  27.746  11.305
63860W        W35476  44.369  15.349   3.590
63861W        W35477  39.559   2.854  11.727
63862W        W35478  22.554  34.367  14.908
63863W        W35479  44.849  39.993  12.451
63864W        W35480  19.186  34.608   4.158
63865W        W35481  26.579  41.194   4.190
63866W        W35482   2.464  43.985  12.858
63867W        W35483  44.746  37.708  10.197
63868W        W35484   0.043   1.547  13.106
63869W        W35485  26.114  40.056  14.859
63870W        W35486  16.578  36.487  13.354
63871W        W35487   5.836  28.221   1.437
63872W        W35488  30.677  10.392  10.362
63873W        W35489  26.513  44.074  12.500
63874W        W35490  15.041  38.965  13.396
63875W        W35491  11.138  25.204  13.873
63876W        W35492  32.898  31.223  10.902
63877W        W35493   9.167   7.815   0.794
63878W        W35494   7.111   6.749   3.303
63879W        W35495  31.133  31.300   2.399
63880W        W35496   7.739  11.064  12.788
63881W        W35497  32.068  42.460  11.989
63882W        W35498  36.197  14.798   2.903
63883W        W35499  18.321  16.926  11.070
63884W        W35500  42.510  16.469  14.403
63885W        W35501  27.917  11.822  11.956
63886W        W35502   7.704  41.235   4.670
63887W        W35503  32.368  32.176  14.446
63888W        W35504  39.458  34.156  14.062
63889W        W35505  44.319  20.063   0.906
63890W        W35506   8.682   4.263  12.763
63891W        W35507  24.098  11.824  13.985
63892W        W35508   9.598  14.148   4.517
63893W        W35509  10.590  35.043   0.999
63894W        W35510   8.230   0.700   3.207
63895W        W35511   0.327  42.027   1.188
63896W        W35512   3.910  34.418  12.541
63897W        W35513  13.715  33.937   3.244
63898W        W35514  40.469   6.223   2.761
63899W        W35515  40.691  21.951   3.560
63900W        W35516  35.915  23.423  13.299
63901W        W35517  38.577  18.531  11.650
63902W        W35518  16.053  39.820   1.818
63903W        W35519  41.475  42.108   5.027
63904W        W35520  33.524   8.860  10.705
63905W        W35521  11.163   9.897  14.708
63906W        W35522   6.609  12.257   0.390
63907W        W35523  17.255  35.955  12.547
63908W        W35524  35.579  31.900  14.858
63909W        W35525  20.203  25.805   5.281
63910W        W35526  25.608  30.084  12.578
63911W        W35527  26.413  32.496  14.035
63912W        W35528   4.334  43.359   0.915
63913W        W35529  42.402  15.393   4.730
63914W        W35530   0.281  36.246   3.257
63915W        W35531   1.356  22.561  10.647
63916W        W35532  29.037  23.461  13.414
63917W        W35533  13.736  12.328   1.427
63918W        W35534   6.295  33.571   3.148
63919W        W35535   4.188  10.181   3.331
63920W        W35536  43.756  19.604  12.151
63921W        W35537  40.845   8.899   1.754
63922W        W35538  23.211  29.249   0.230
63923W        W35539  32.452  12.190  12.394
63924W        W35540  29.553  27.679  11.015
63925W        W35541  12.903  12.696  13.037
63926W        W35542  23.458   7.326   3.139
63927W        W35543  19.589   1.286  12.641
63928W        W35544  10.350  28.161  10.884
63929W        W35545  30.628  41.930   0.499
63930W        W35546  29.522  37.069   4.651
63931W        W35547  26.514  26.925  11.851
63932W        W35548   6.919  17.875   1.823
63933W        W35549   3.487  41.254   2.270
63934W        W35550  33.520  15.594  11.608
63935W        W35551  41.605   1.193  12.971
63936W        W35552  33.593  22.039  10.705
63937W        W35553  13.622   5.773   4.594
63938W        W35554  16.700   0.308  13.931
63939W        W35555  34.082   6.694  11.477
63940W        W35556  41.102  43.810   0.448
63941W        W35557   0.876  41.606  14.056
63942W        W35558  22.175  31.960  10.555
63943W        W35559   6.298  28.099  14.881
63944W        W35560  20.127  17.980  12.163
63945W        W35561   4.672  37.368   1.463
63946W        W35562   6.205  24.792   0.307
63947W        W35563  29.200  17.333   1.607
63948W        W35564  36.606  27.725   1.418
63949W        W35565   8.233  41.597   0.272
63950W        W35566  14.747  42.790   1.457
63951W        W35567  19.799  22.480   2.134
63952W        W35568  12.390  17.810  14.865
63953W        W35569  36.905   7.204  14.289
63954W        W35570  18.794  18.726   3.784
63955W        W35571   0.038  25.114  13.840
63956W        W35572  14.538  41.422   1.245
63957W        W35573  26.633   6.156  11.476
63958W        W35574  37.597   3.803  12.783
63959W        W35575  31.897   5.505   2.312
63960W        W35576  13.178  27.054  12.384
63961W        W35577  22.544  15.217   0.309
63962W        W35578  17.224  40.882  10.084
63963W        W35579  10.788  32.612   3.165
63964W        W35580  29.124   6.861  11.499
63965W        W35581  33.963   0.006  11.645
63966W        W35582  37.349  37.443   1.828
63967W        W35583  12.599  20.197   1.977
63968W        W35584   0.543  20.488  12.419
63969W        W35585  43.525  36.653   4.638
63970W        W35586  34.946  26.208   0.011
63971W        W35587  30.388  17.837   2.933
63972W        W35588  20.547  28.313   2.210
63973W        W35589  30.433   8.485  14.057
63974W        W35590   4.761  15.735   1.733
63975W        W35591   7.941   6.693  13.745
63976W        W35592  13.649  26.698   4.203
63977W        W35593  16.557  32.825   3.677
63978W        W35594   7.703  20.080  12.527
63979W        W35595  38.340   3.366  13.982
63980W        W35596   0.916  15.643   1.125
63981W        W35597   8.770  18.011   0.456
63982W        W35598   7.889  11.421  14.868
63983W        W35599   5.129  44.645   4.628
63984W        W35600  40.688  43.899  13.414
63985W        W35601   5.398  31.039  12.893
63986W        W35602  28.963   9.642   2.470
63987W        W35603  11.139  31.218   1.183
63988W        W35604  22.549  29.181   2.809
63989W        W35605  21.064  12.215  10.082
63990W        W35606  24.936  12.391  11.227
63991W        W35607  38.890   0.287  14.306
63992W        W35608   7.600  24.674   0.407
63993W        W35609  15.259  38.471  14.306
63994W        W35610  13.358  27.194  11.883
63995W        W35611  21.682   2.192  11.603
63996W        W35612   6.366  28.520   3.647
63997W        W35613  17.627  14.674  11.786
63998W        W35614  20.193  29.127   3.689
63999W        W35615  28.913  18.301   1.267
64000W        W35616  24.725   2.214   1.004
64001W        W35617  24.631  13.821  12.360
64002W        W35618  41.279  18.672   1.329
64003W        W35619  44.436  11.642   2.347
64004W        W35620  30.039   0.476  14.973
64005W        W35621  27.179  12.849  12.569
64006W        W35622  24.636  18.030   3.864
64007W        W35623  11.267  27.948  10.997
64008W        W35624  26.393  34.943   4.089
64009W        W35625   3.221  34.059   4.608
64010W        W35626  12.296  22.665  13.924
64011W        W35627  26.811  17.189  11.896
64012W        W35628   4.733  15.598   4.089
64013W        W35629  37.330  32.488   5.012
64014W        W35630  23.923  37.284  14.923
64015W        W35631  16.224  23.928  13.017
64016W        W35632  13.651   4.864  14.387
64017W        W35633  12.777   0.052   3.988
64018W        W35634   5.111  22.298   3.169
64019W        W35635   5.676  11.880   0.888
64020W        W35636  18.379  41.988   0.810
64021W        W35637  19.239  36.125  12.597
64022W        W35638  26.422   6.398  11.068
64023W        W35639  33.139  28.111  11.574
64024W        W35640   5.647  29.144  13.500
64025W        W35641  42.443  10.317   2.453
64026W        W35642  18.079   3.920  12.034
64027W        W35643  35.017   8.313  10.639
64028W        W35644  13.647  36.490   0.498
64029W        W35645  10.818   6.303  12.365
64030W        W35646  24.375  41.098   2.486
64031W        W35647  14.176  32.105   1.958
64032W        W35648   3.824  31.622   1.365
64033W        W35649  14.676  30.821  13.478
64034W        W35650   3.520  14.936   5.063
64035W        W35651   3.732  44.947   2.188
64036W        W35652  13.748   3.870  13.897
64037W        W35653  30.000   4.372  11.657
64038W        W35654  37.502  13.129   4.075
64039W        W35655   7.201  36.804   1.008
64040W        W35656  44.954  44.341   4.660
64041W        W35657  28.166  20.483  13.985
64042W        W35658   5.246   1.311   2.590
64043W        W35659  43.934   6.899  12.849
64044W        W35660  24.491  33.537   0.637
64045W        W35661  32.480   4.177  11.500
64046W        W35662  39.506   2.523   0.985
64047W        W35663   6.668  25.221  11.070
64048W        W35664  42.951  36.729   0.943
64049W        W35665  21.591  37.152  14.036
64050W        W35666  44.954  12.273   2.875
64051W        W35667   1.886   8.267  12.654
64052W        W35668   0.380  32.819  10.493
64053W        W35669  22.038  37.877  12.407
64054W        W35670  16.044   2.724   4.575
64055W        W35671  10.887   8.815  12.430
64056W        W35672  40.894   9.173   4.143
64057W        W35673  29.065  17.929   3.932
64058W        W35674  34.650  37.365  10.533
64059W        W35675  38.379  28.566   2.160
64060W        W35676  31.938  10.346  11.406
64061W        W35677  36.971   8.234  12.825
64062W        W35678   4.930  22.000   3.888
64063W        W35679   9.808  41.122  14.898
64064W        W35680   6.259  15.686  10.668
64065W        W35681   6.106   5.759  14.275
64066W        W35682  32.845  37.334  10.391
64067W        W35683   1.819  37.905  11.484
64068W        W35684  38.809  27.969  11.143
64069W        W35685  32.080   9.508  10.630
64070W        W35686  18.850  34.910   2.418
64071W        W35687  13.643  41.252   4.216
64072W        W35688   8.864  10.826  13.946
64073W        W35689  40.404  32.116   3.600
64074W        W35690  33.969   4.605  11.595
64075W        W35691  16.551   3.951   0.419
64076W        W35692  12.882   7.337  12.530
64077W        W35693   2.149  22.599   0.923
64078W        W35694  41.592  27.991  11.109
64079W        W35695  43.531   6.777  12.538
64080W        W35696   8.462  29.550   0.041
64081W        W35697   3.342  19.022  14.531
64082W        W35698   3.825  27.433   0.937
64083W        W35699  15.884  28.009   2.418
64084W        W35700  32.536   0.432   5.059
64085W        W35701  14.453  30.246  11.912
64086W        W35702   7.678  13.401   2.885
64087W        W35703  39.331  42.450  13.612
64088W        W35704  16.042   8.161   1.182
64089W        W35705  11.262  44.444   3.623
64090W        W35706   9.397   7.901   2.374
64091W        W35707  36.891  40.746   3.763
64092W        W35708  23.095  12.295   1.337
64093W        W35709  35.168  11.094   3.712
64094W        W35710  10.163   7.735  13.110
64095W        W35711  26.201  38.798   3.615
64096W        W35712  22.178  22.399  13.375
64097W        W35713  32.398   8.773   1.229
64098W        W35714  27.953  40.041  12.163
64099W        W35715  16.435   0.562   2.786
64100W        W35716  44.541   1.506  13.041
64101W        W35717   1.072  44.008  10.419
64102W        W35718  33.431  13.801   0.485
64103W        W35719  28.171  20.427   0.072
64104W        W35720  25.480   4.628   2.735
64105W        W35721  24.095  26.129   2.351
64106W        W35722  30.730  30.602   4.103
64107W        W35723   2.881   7.161   1.429
64108W        W35724   3.790  27.170  11.585
64109W        W35725  26.168   0.794   1.060
64110W        W35726  44.342  40.546  13.530
64111W        W35727  34.547  16.065  13.537
64112W        W35728  33.091  29.493   1.963
64113W        W35729  36.861  21.838  12.452
64114W        W35730  21.791  24.194  11.620
64115W        W35731  33.689   6.752   4.101
64116W        W35732  25.222  43.978  11.210
64117W        W35733  41.861   6.274   3.069
64118W        W35734  14.293  38.486   2.185
64119W        W35735  23.770  22.783  11.532
64120W        W35736  36.982   9.657   3.263
64121W        W35737   7.249  12.146  10.731
64122W        W35738   6.646  19.194  12.982
64123W        W35739  12.767  31.104   0.408
64124W        W35740  17.092  25.110  10.768
64125W        W35741  40.996  12.728   4.093
64126W        W35742   9.063  34.725   3.631
64127W        W35743  10.252  43.822   0.581
64128W        W35744  33.401  29.592  13.015
64129W        W35745  13.767  10.614   4.791
64130W        W35746   1.445  33.608  14.398
64131W        W35747  34.598  39.542  12.090
64132W        W35748  30.976  35.475   2.811
64133W        W35749  35.855  21.193  10.351
64134W        W35750  25.800  25.023   3.825
64135W        W35751  43.698  41.213   0.860
64136W        W35752  41.989  37.429   2.841
64137W        W35753  24.144  37.045   1.391
64138W        W35754  32.316  43.356   4.140
64139W        W35755  19.980  28.386  11.637
64140W        W35756  12.904  23.123   1.418
64141W        W35757  21.891  23.606   1.883
64142W        W35758  29.450   3.783   2.464
64143W        W35759  13.590  13.635  12.635
64144W        W35760  20.494   9.360   1.242
64145W        W35761  43.532  14.211   4.672
64146W        W35762  24.827   3.005   4.313
64147W        W35763  34.536  16.597   3.768
64148W        W35764  18.288  38.446  12.855
64149W        W35765  42.615   3.350   0.893
64150W        W35766  30.527  18.256   0.114
64151W        W35767  27.937   4.772   4.128
64152W        W35768  22.812  31.532  12.886
64153W        W35769  11.899  38.748   0.928
64154W        W35770   4.906  43.317   4.723
64155W        W35771  13.859  38.696   0.902
64156W        W35772  41.055  14.006   4.231
64157W        W35773  23.021  32.237   2.290
64158W        W35774  10.160  40.005  10.777
64159W        W35775  44.719   7.326  12.909
64160W        W35776  32.132  38.867  12.356
64161W        W35777  11.736   9.274   3.688
64162W        W35778  26.331  12.061   1.799
64163W        W35779  30.137  38.619   4.231
64164W        W35780  16.569  40.541  13.005
64165W        W35781  39.584  17.764   1.325
64166W        W35782  31.527  38.328  14.061
64167W        W35783  40.537  16.307  12.334
64168W        W35784  23.323  24.880  13.319
64169W        W35785  26.495  31.144   0.382
64170W        W35786  24.680   7.924   0.037
64171W        W35787  13.335  36.396  10.673
64172W        W35788  27.038  13.727  11.735
64173W        W35789   3.001  25.183   0.774
64174W        W35790  26.876  32.915  10.568
64175W        W35791   7.674  21.691   0.913
64176W        W35792  31.349  30.902  11.476
64177W        W35793   2.780   9.445   4.814
64178W        W35794  17.891   6.648   1.306
64179W        W35795  40.633  14.913  11.642
64180W        W35796   4.198  43.941   3.745
64181W        W35797  10.437  36.505  12.740
64182W        W35798   3.287  22.150  14.835
64183W        W35799  43.998  20.621  12.584
64184W        W35800  24.119  26.225  10.381
64185W        W35801  25.755  14.701  13.063
64186W        W35802  23.621  43.500   1.744
64187W        W35803   2.537   7.827   3.908
64188W        W35804  44.559  38.754  10.165
64189W        W35805  38.046  44.179  13.557
64190W        W35806  34.579  10.322   3.653
64191W        W35807  12.575  27.146   3.604
64192W        W35808  35.928  38.333   4.846
64193W        W35809  41.064   5.403   4.534
64194W        W35810  43.525  27.038   4.882
64195W        W35811  25.939   6.721   4.113
64196W        W35812  13.344  25.347   2.411
64197W        W35813   0.924  25.177  11.942
64198W        W35814  14.316  14.096  10.710
64199W        W35815   4.903  14.656  13.653
64200W        W35816  43.890  32.360  10.515
64201W        W35817  14.729  12.808   0.405
64202W        W35818  41.463   7.015  11.898
64203W        W35819   2.269  18.169   1.433
64204W        W35820  43.557  39.773  12.554
64205W        W35821  39.249  28.566   3.696
64206W        W35822  24.688  16.789   0.744
64207W        W35823  44.427  34.442   4.211
64208W        W35824  31.605  43.146   0.540
64209W        W35825  28.923  29.115  11.145
64210W        W35826   0.332  22.653   2.789
64211W        W35827  13.151   0.891   4.569
64212W        W35828  14.572  30.325  13.522
64213W        W35829  12.734  20.604   4.287
64214W        W35830  38.861  42.639   0.367
64215W        W35831  26.140  31.502   0.564
64216W        W35832  39.702  44.762  12.730
64217W        W35833  20.762  37.548   0.158
64218W        W35834  30.573  20.216  13.859
64219W        W35835   0.878  35.797  12.171
64220W        W35836  32.093  14.602   0.579
64221W        W35837  24.514  33.221   2.690
64222W        W35838   4.497  23.808   2.385
64223W        W35839  27.061  16.910   1.331
64224W        W35840  18.560   3.703   1.506
64225W        W35841  30.329  36.421   0.004
64226W        W35842  12.767  44.559  10.571
64227W        W35843  32.925   2.519   3.156
64228W        W35844  28.444  34.596  13.340
64229W        W35845   4.255  43.956  14.909
64230W        W35846  16.731  19.582  13.867
64231W        W35847  33.932  20.630  11.384
64232W        W35848  20.561  43.340  10.972
64233W        W35849  43.177  19.467  11.024
64234W        W35850  31.672  39.247   3.598
64235W        W35851  31.086   9.860   1.059
64236W        W35852  23.107  43.300  10.465
64237W        W35853  33.705  26.205   3.616
64238W        W35854  25.509   2.536  14.960
64239W        W35855  17.751  17.855  13.272
64240W        W35856  28.121   7.646   2.027
64241W        W35857  13.676  37.067  13.694
64242W        W35858  28.945  30.893   2.493
64243W        W35859  21.994  41.368  14.404
64244W        W35860   0.022  26.021  13.471
64245W        W35861  34.985   7.234  13.032
64246W        W35862  11.785  40.569  14.455
64247W        W35863  23.450  29.265  14.772
64248W        W35864  31.074  15.605  10.260
64249W        W35865  38.202  11.086   4.530
64250W        W35866  11.853  39.003   0.493
64251W        W35867  19.185   4.897  12.583
64252W        W35868  10.683   3.401   2.379
64253W        W35869   1.402  42.389   4.713
64254W        W35870  44.311  30.849  13.977
64255W        W35871  21.721  19.052   3.798
64256W        W35872  11.499  16.193   1.339
64257W        W35873  34.500  17.601  10.369
64258W        W35874  13.707   2.883  14.752
64259W        W35875  34.052  33.572  13.940
64260W        W35876   7.955   3.680  14.765
64261W        W35877  20.153   4.300   3.605
64262W        W35878  30.131  16.664  14.902
64263W        W35879  17.971  21.206  12.091
64264W        W35880  35.162  17.092  10.816
64265W        W35881  22.152  27.365   2.794
64266W        W35882  32.887  24.491   1.234
64267W        W35883  12.344  22.125   0.601
64268W        W35884   8.796   0.558   3.160
64269W        W35885  28.503  33.819   3.196
64270W        W35886   8.493  35.973  10.617
64271W        W35887  18.554  23.123  12.978
64272W        W35888  15.852  16.769  12.085
64273W        W35889  43.036  16.000  11.610
64274W        W35890  30.199  10.230  10.508
64275W        W35891  23.130  40.766  11.507
64276W        W35892   9.689  43.839   1.951
64277W        W35893  19.281   1.972  10.706
64278W        W35894  27.287   4.931  11.159
64279W        W35895  36.440  12.307  11.429
64280W        W35896   7.594  24.004   0.811
64281W        W35897  13.405  43.403  10.801
64282W        W35898  24.910  32.591   4.425
64283W        W35899  13.898  34.562   3.572
64284W        W35900  10.853  42.845  13.698
64285W        W35901  26.567  39.026   3.324
64286W        W35902   2.969   2.514  14.959
64287W        W35903  37.524  35.995   0.055
64288W        W35904   6.320  23.233   3.159
64289W        W35905  13.237  22.662  12.051
64290W        W35906  33.777  18.454   0.033
64291W        W35907  10.614  18.744   2.718
64292W        W35908  21.213   9.476   2.461
64293W        W35909  17.641  40.747   4.763
64294W        W35910  12.914  34.347   3.760
64295W        W35911   3.981   4.324  12.876
64296W        W35912  38.396  12.164   3.182
64297W        W35913  34.051  30.889   4.510
64298W        W35914  42.379  38.807   4.260
64299W        W35915   8.940  43.422   3.646
64300W        W35916  16.980  19.728   2.904
64301W        W35917  24.522  16.142  13.491
64302W        W35918  34.639  27.180  11.108
64303W        W35919  25.190   5.694   2.604
64304W        W35920  15.702  36.955   3.090
64305W        W35921   0.439  15.131   4.122
64306W        W35922  13.662   1.333  14.017
64307W        W35923  23.090  15.704  11.253
64308W        W35924   0.550   5.241  12.387
64309W        W35925  24.924  16.186   4.268
64310W        W35926   3.304  25.681  10.968
64311W        W35927  36.539  32.084  12.101
64312W        W35928   6.252  42.034   0.319
64313W        W35929  17.630  36.538  13.408
64314W        W35930  21.347  35.510  12.972
64315W        W35931  24.391  12.436  14.658
64316W        W35932  12.446   3.692  12.897
64317W        W35933   2.589  21.496   4.592
64318W        W35934  44.457  25.644   0.443
64319W        W35935  18.856  34.367  13.024
64320W        W35936  32.599  34.834   3.761
64321W        W35937  11.532  16.761   3.199
64322W        W35938  34.210  35.362  13.568
64323W        W35939  10.644  12.842  10.591
64324W        W35940  38.777  18.874  12.972
64325W        W35941  29.521  42.207   1.274
64326W        W35942  16.815  29.119   1.344
64327W        W35943  30.405  36.537   2.401
64328W        W35944   2.533  29.425  13.461
64329W        W35945  38.539  15.526   2.263
64330W        W35946  31.044   8.894   2.239
64331W        W35947  18.368  43.520   2.337
64332W        W35948  21.574   5.796   4.554
64333W        W35949   8.596  34.491   1.524
64334W        W35950   9.669  32.160  10.877
64335W        W35951  33.723  24.698   0.508
64336W        W35952   0.312   8.444  11.615
64337W        W35953  23.937  31.866  10.622
64338W        W35954   1.982  40.693  12.874
64339W        W35955   3.814  31.235  12.900
64340W        W35956  28.237   5.402  12.560
64341W        W35957   5.487  37.465  14.831
64342W        W35958   6.984   8.428   4.452
64343W        W35959  17.391   1.843   0.880
64344W        W35960  19.257  40.842   2.615
64345W        W35961  34.019  37.607   0.953
64346W        W35962  17.535  21.468  12.173
64347W        W35963   0.258  27.016  11.861
64348W        W35964  29.946   5.404  14.574
64349W        W35965  27.220  28.595  14.316
64350W        W35966  44.511  35.469   1.741
64351W        W35967  38.326  32.683  14.841
64352W        W35968  18.677  41.364  11.573
64353W        W35969  19.823  18.340  13.362
64354W        W35970  14.186  43.906   4.591
64355W        W35971  21.519  32.985  12.448
64356W        W35972  22.462  38.406  14.182
64357W        W35973  19.238  10.143   3.958
64358W        W35974  29.782  24.512  14.408
64359W        W35975   6.768  32.175   2.942
64360W        W35976  31.079   1.558   9.866
64361W        W35977  23.474   5.184   0.949
64362W        W35978   5.627  19.802  11.661
64363W        W35979  14.221  24.582  10.474
64364W        W35980   5.110  37.521  12.095
64365W        W35981  19.545  33.481  11.103
64366W        W35982  11.344   2.821   4.176
64367W        W35983  18.571  25.699   0.912
64368W        W35984   8.860   8.086   0.463
64369W        W35985  14.655  20.159   3.173
64370W        W35986   3.392   3.325   2.919
64371W        W35987  22.141   9.673  11.197
64372W        W35988  26.122   8.937  11.370
64373W        W35989  21.809  26.667   0.463
64374W        W35990  32.065  28.610   2.499
64375W        W35991  27.093  40.335  14.373
64376W        W35992  42.933  37.097  14.408
64377W        W35993  23.413   8.398   3.316
64378W        W35994  33.215  41.488  12.100
64379W        W35995  36.722  37.759  13.985
64380W        W35996  29.118  38.042   2.279
64381W        W35997  28.664  19.756   1.360
64382W        W35998  24.151  12.259   3.330
64383W        W35999  33.897  25.176   1.218
64384W        W36000  14.953   7.159  10.238
64385W        W36001   4.256   9.632   0.939
64386W        W36002  18.383  30.615   3.733
64387W        W36003  22.052   7.876   3.145
64388W        W36004  16.819   0.303   1.945
64389W        W36005   6.792  19.000  10.578
64390W        W36006  33.316  19.640  11.063
64391W        W36007  22.437  27.101   4.260
64392W        W36008  12.146  10.860  13.361
64393W        W36009  23.546  15.947  11.217
64394W        W36010  27.506  21.349   1.309
64395W        W36011   4.382  18.493   4.580
64396W        W36012  10.154  16.092   1.965
64397W        W36013  10.233  24.289  10.964
64398W        W36014  32.650  29.174  13.134
64399W        W36015  39.559  32.137   1.185
64400W        W36016  18.308   8.848   3.232
64401W        W36017  11.039   7.244   0.273
64402W        W36018  14.603  16.637  13.425
64403W        W36019  21.089   3.707   3.064
64404W        W36020  37.383  37.704  10.525
64405W        W36021  32.539   1.822  10.277
64406W        W36022  24.966  39.273  13.071
64407W        W36023   2.990  13.542   1.734
64408W        W36024   5.766  44.132   2.348
64409W        W36025   3.935   5.242  14.393
64410W        W36026  13.650   7.797  14.271
64411W        W36027  32.953   2.152   4.140
64412W        W36028  16.284  23.522  11.495
64413W        W36029   3.934  16.670   4.173
64414W        W36030   5.535  12.074  11.022
64415W        W36031   9.810   1.057  13.423
64416W        W36032  11.059  28.574   4.624
64417W        W36033   0.678  13.008  11.607
64418W        W36034  25.048  12.328   1.282
64419W        W36035   1.315  27.048  10.370
64420W        W36036  19.336  27.325  10.736
64421W        W36037   6.855  28.030   0.702
64422W        W36038  11.820  17.512   4.201
64423W        W36039   7.556  33.928  12.435
64424W        W36040  41.539   4.344   0.202
64425W        W36041  21.627   4.250  14.717
64426W        W36042  10.507  42.985   3.135
64427W        W36043  44.970  38.476   2.325
64428W        W36044  16.750   1.298  10.357
64429W        W36045  37.377  35.962   4.495
64430W        W36046   6.384   6.764  12.032
64431W        W36047  37.608   6.374  12.611
64432W        W36048  37.416  25.001  11.931
64433W        W36049  43.420  29.421   3.236
64434W        W36050  32.054   8.205   4.803
64435W        W36051  40.264  29.904   3.242
64436W        W36052  17.043  10.429   4.964
64437W        W36053  17.207  22.365   2.633
64438W        W36054   8.587  10.289   2.245
64439W        W36055  37.934  24.634   0.552
64440W        W36056  26.406  10.429   3.744
64441W        W36057  37.428  20.880  13.501
64442W        W36058   6.431  17.542  12.016
64443W        W36059  41.846  33.131   3.239
64444W        W36060   1.729  20.686   2.768
64445W        W36061  12.558  12.207  13.877
64446W        W36062  11.832   7.280   4.098
64447W        W36063  20.056  38.915  11.109
64448W        W36064   1.727  21.985  10.697
64449W        W36065  19.769  16.046  11.513
64450W        W36066  34.585  23.608  12.905
64451W        W36067  22.109  23.306  13.617
64452W        W36068  17.494  39.391   1.667
64453W        W36069   3.788   8.228  14.267
64454W        W36070  36.117  38.780   2.754
64455W        W36071  12.826  29.915   4.299
64456W        W36072  44.512  27.460  14.861
64457W        W36073   6.361  22.965  14.197
64458W        W36074   8.017   5.548   4.115
64459W        W36075  14.999  34.941  13.985
64460W        W36076   4.319  33.477   0.975
64461W        W36077  18.134  36.427   3.296
64462W        W36078  13.867  43.915   2.826
64463W        W36079  37.966  29.487  11.202
64464W        W36080   4.987  15.267   3.160
64465W        W36081  44.527  20.274  13.922
64466W        W36082  16.066   6.371   2.376
64467W        W36083  35.976  15.228   4.641
64468W        W36084  26.791  18.577   3.740
64469W        W36085   9.176  15.378   2.161
64470W        W36086  22.169  30.015  10.467
64471W        W36087  37.962   2.995   0.505
64472W        W36088  33.229  14.267   2.222
64473W        W36089  20.643  40.514  10.727
64474W        W36090  15.117  18.723   2.245
64475W        W36091  11.130  24.745  12.841
64476W        W36092   8.110  27.932   1.394
64477W        W36093   5.266  44.770  12.474
64478W        W36094   3.304   3.790  11.521
64479W        W36095  32.425  39.814  12.953
64480W        W36096   0.118  31.471   1.871
64481W        W36097  39.987   4.602  13.428
64482W        W36098  14.352  44.506   2.299
64483W        W36099  14.315  22.810  10.973
64484W        W36100  37.639  41.991   4.158
64485W        W36101  43.395  21.506   3.668
64486W        W36102   1.585   9.849   3.149
64487W        W36103  26.162  11.888  14.560
64488W        W36104  35.368   9.424  14.963
64489W        W36105   3.311  28.092   2.018
64490W        W36106   6.076  18.066  12.255
64491W        W36107  28.445   3.449   1.641
64492W        W36108   2.904  18.723   0.430
64493W        W36109  43.307  18.817   2.201
64494W        W36110  25.710  20.492  11.075
64495W        W36111  25.519  17.686   1.912
64496W        W36112   3.659  32.127   4.216
64497W        W36113  40.338   4.129   3.735
64498W        W36114  37.031   4.202   3.343
64499W        W36115  29.977  24.716  12.551
64500W        W36116  15.359  10.818   4.149
64501W        W36117  43.948  33.383   4.804
64502W        W36118  28.438  19.596   2.774
64503W        W36119  33.958  14.122  14.358
64504W        W36120  38.970  42.541  12.870
64505W        W36121  37.644  43.335   4.700
64506W        W36122  19.943  42.501  12.848
64507W        W36123  43.987  19.593   0.057
64508W        W36124  33.763  22.326   3.232
64509W        W36125  34.985  37.854   1.818
64510W        W36126   9.525  24.711   0.275
64511W        W36127  17.561  29.912   0.290
64512W        W36128  32.176  23.690  11.886
64513W        W36129  25.526  34.053  14.964
64514W        W36130  41.829  42.461  10.552
64515W        W36131  21.531  10.775   2.182
64516W        W36132  22.535  20.388  12.547
64517W        W36133   8.857  43.446  11.988
64518W        W36134  14.919   6.158  13.556
64519W        W36135  20.694  44.031   3.919
64520W        W36136  44.124   3.384   3.629
64521W        W36137  13.635   1.903  12.008
64522W        W36138  11.083  13.386  11.264
64523W        W36139  18.815  32.274   2.386
64524W        W36140  24.763  16.154   2.865
64525W        W36141  35.860   6.423   1.934
64526W        W36142  17.149  31.035  13.472
64527W        W36143   6.384  33.468   0.839
64528W        W36144   8.005   4.200   0.555
64529W        W36145  10.507  10.669  12.232
64530W        W36146  33.488  23.053   1.275
64531W        W36147  19.012  26.934  10.791
64532W        W36148  40.174  30.406  13.315
64533W        W36149  41.743  28.658  13.506
64534W        W36150   0.642  14.972  14.679
64535W        W36151  30.467  21.188   2.913
64536W        W36152  15.630  44.668  13.781
64537W        W36153   9.137  18.156  10.657
64538W        W36154  26.256   2.889   4.497
64539W        W36155  41.565   1.243   1.339
64540W        W36156   6.257  28.183  12.534
64541W        W36157  29.381  18.804   4.606
64542W        W36158  39.502   5.826  11.385
64543W        W36159   5.606  42.695   1.216
64544W        W36160   3.808  43.286   2.855
64545W        W36161  36.723  16.706   1.241
64546W        W36162  28.961  14.704   1.199
64547W        W36163  20.626  28.148   0.291
64548W        W36164   4.993  21.129   5.035
64549W        W36165   4.352   9.753   1.438
64550W        W36166  32.454  35.396   2.469
64551W        W36167   1.364  25.310   3.459
64552W        W36168   2.014   9.930  13.449
64553W        W36169  25.977  15.880  12.972
64554W        W36170   5.856   0.751   2.999
64555W        W36171  36.942  29.100   3.845
64556W        W36172  42.669   6.637  12.158
64557W        W36173  28.113  35.836   2.752
64558W        W36174  41.833   4.757   0.245
64559W        W36175   5.635   7.621   3.714
64560W        W36176   9.775   1.888   2.831
64561W        W36177  37.343  38.839  14.338
64562W        W36178  13.239   8.179   0.404
64563W        W36179  33.714  17.561  12.490
64564W        W36180  26.881  39.569   3.632
64565W        W36181  26.891  14.069   2.244
64566W        W36182   9.619   6.261   3.738
64567W        W36183   3.218  11.784  12.459
64568W        W36184  40.015   4.224  14.832
64569W        W36185  36.583  28.373  14.977
64570W        W36186   1.768   2.978  11.907
64571W        W36187  35.171  30.241   1.585
64572W        W36188   0.285  44.214   0.371
64573W        W36189   5.534  15.646   0.406
64574W        W36190   7.663  41.949   2.346
64575W        W36191  15.580  27.448   3.773
64576W        W36192  33.299  19.286   0.378
64577W        W36193  24.615  32.719   2.751
64578W        W36194  16.817  21.245   1.314
64579W        W36195   3.342  38.061   0.896
64580W        W36196  39.102   2.949  12.864
64581W        W36197   7.875  31.425  11.866
64582W        W36198  15.230  24.139  14.467
64583W        W36199  16.995   2.499   2.206
64584W        W36200  44.840  17.747   1.197
64585W        W36201  23.478  28.667   3.756
64586W        W36202  43.000   0.301  13.354
64587W        W36203   8.348  37.743  13.385
64588W        W36204   8.704  44.999   4.597
64589W        W36205   0.725  17.645   1.996
64590W        W36206  36.997   0.947  11.616
64591W        W36207  29.555  31.020  12.843
64592W        W36208   7.422  11.231  14.854
64593W        W36209  11.774   8.385   2.209
64594W        W36210  14.172  12.821   2.720
64595W        W36211  37.077  16.448   2.777
64596W        W36212  17.714  43.837  13.527
64597W        W36213  34.729  36.400   1.721
64598W        W36214  44.542  32.242  11.569
64599W        W36215  42.121  30.386  14.879
64600W        W36216  33.514  19.477  13.126
64601W        W36217  27.853  44.849  12.102
64602W        W36218  13.159  11.049   1.436
64603W        W36219  41.846   5.582   0.050
64604W        W36220  29.380  18.358  11.233
64605W        W36221  16.286  28.234  11.599
64606W        W36222  20.853   8.744   0.276
64607W        W36223  36.049  12.394   3.458
64608W        W36224  25.925  14.067  14.848
64609W        W36225  20.370  42.061  12.551
64610W        W36226  30.420  18.821  12.672
64611W        W36227  26.071   7.972   2.650
64612W        W36228   2.373  44.990   2.785
64613W        W36229  38.286  15.576  13.524
64614W        W36230  35.416  11.817   1.249
64615W        W36231  15.178   5.684   3.197
64616W        W36232   3.510   6.915   2.739
64617W        W36233   7.766   5.264   2.246
64618W        W36234  21.660  44.932  14.923
64619W        W36235  37.818  34.183  14.893
64620W        W36236   6.376  32.359  14.380
64621W        W36237   0.920  29.234  11.060
64622W        W36238   1.353  20.945   1.429
64623W        W36239   2.595   2.867  14.922
64624W        W36240  30.762   2.812  12.117
64625W        W36241  14.066  29.710  13.936
64626W        W36242   2.726  35.954   2.918
64627W        W36243   7.515   2.978  13.534
64628W        W36244  22.998  33.517  11.128
64629W        W36245  20.558  11.658  10.693
64630W        W36246  25.466  35.108  10.512
64631W        W36247  42.739  42.998   0.519
64632W        W36248  39.452  23.965   2.798
64633W        W36249  43.406  20.701  13.402
64634W        W36250  19.189   8.732  14.850
64635W        W36251   1.804   5.886   3.710
64636W        W36252   0.424  29.659  11.097
64637W        W36253  34.553  14.287  11.049
64638W        W36254  21.802  18.219  11.117
64639W        W36255  28.385  44.817  12.159
64640W        W36256  38.741  33.377  11.740
64641W        W36257  36.872   5.513  11.665
64642W        W36258  16.596  18.516  11.683
64643W        W36259  31.672  22.549   4.677
64644W        W36260  12.206   2.180   4.497
64645W        W36261  20.135  31.490   2.727
64646W        W36262  19.207  26.052   0.350
64647W        W36263  29.075  13.809  11.412
64648W        W36264   6.950   9.114  12.135
64649W        W36265  23.150   6.975   4.094
64650W        W36266   4.631  43.589  14.818
64651W        W36267  36.580  42.467  11.622
64652W        W36268  24.063  17.682  13.499
64653W        W36269  43.725  19.786  11.605
64654W        W36270   0.895  37.391   3.261
64655W        W36271  29.687  36.369   1.721
64656W        W36272  19.207  19.180  11.159
64657W        W36273  33.349  10.962  13.790
64658W        W36274  24.614  11.464  13.575
64659W        W36275  12.057  41.238  12.007
64660W        W36276  33.345  41.364  12.594
64661W        W36277  26.066   2.459  12.876
64662W        W36278  33.532   0.230  11.091
64663W        W36279  12.327  41.360   2.638
64664W        W36280  21.812  23.650  11.475
64665W        W36281  42.758  31.009  10.758
64666W        W36282  21.651  31.248   0.857
64667W        W36283  37.765  22.510  10.563
64668W        W36284  21.738   0.893   3.668
64669W        W36285   2.899  41.998   1.350
64670W        W36286  27.138   4.438   3.549
64671W        W36287  25.204   1.770   1.742
64672W        W36288   1.264  23.654  13.541
64673W        W36289  12.047  27.597  12.404
64674W        W36290  27.175  23.585  11.413
64675W        W36291  18.756  29.178   1.754
64676W        W36292  11.242  39.370  14.496
64677W        W36293   3.155   1.707   0.339
64678W        W36294  30.048  22.000   1.246
64679W        W36295  25.672  40.754   1.217
64680W        W36296  29.181  22.543   3.882
64681W        W36297  20.346  12.135   1.145
64682W        W36298  40.790   7.708   3.827
64683W        W36299   9.671  44.352   9.760
64684W        W36300  31.842  41.956   1.298
64685W        W36301  29.623   2.415  13.504
64686W        W36302  25.351  24.571   0.677
64687W        W36303   8.923  35.073  12.969
64688W        W36304  26.625   6.736   2.197
64689W        W36305  36.872  11.233  14.017
64690W        W36306  15.867  27.115   0.206
64691W        W36307  32.026  33.474   0.676
64692W        W36308  23.303  41.828   3.245
64693W        W36309  32.987  41.887   4.194
64694W        W36310  21.709   5.464  12.872
64695W        W36311  36.715  19.696  11.064
64696W        W36312   4.303  23.579  10.626
64697W        W36313  18.970   0.861   1.859
64698W        W36314   2.731  22.749   3.202
64699W        W36315  12.614  32.558  14.312
64700W        W36316  42.829  39.530  11.726
64701W        W36317  15.551  30.921   5.110
64702W        W36318  18.468  29.627   3.609
64703W        W36319  43.279  38.832  13.828
64704W        W36320  17.111  22.709   5.053
64705W        W36321  10.399  33.125  12.711
64706W        W36322  23.746  43.482  12.502
64707W        W36323  28.006  37.216  12.110
64708W        W36324  17.960  19.180   2.088
64709W        W36325   8.022  32.146  14.077
64710W        W36326  32.868   1.217   2.470
64711W        W36327  15.190  39.265  11.180
64712W        W36328   8.322  15.368  10.990
64713W        W36329  10.139  22.514  11.590
64714W        W36330  38.690  19.092   4.701
64715W        W36331  29.115   3.558  11.063
64716W        W36332  38.365  31.619   3.195
64717W        W36333  11.828   3.458  10.968
64718W        W36334  30.544   7.861   3.884
64719W        W36335  44.902  41.556   0.874
64720W        W36336  44.392   8.878   0.961
64721W        W36337  14.789  29.473  12.157
64722W        W36338  20.967   8.526   0.895
64723W        W36339   9.715  16.164  11.388
64724W        W36340  22.791  22.197  14.773
64725W        W36341  10.030  15.729   2.779
64726W        W36342  39.114  11.049  13.228
64727W        W36343  15.187  34.619   0.367
64728W        W36344  10.192  43.899   4.684
64729W        W36345   9.124  36.930  11.435
64730W        W36346  19.228  43.705  11.961
64731W        W36347  20.238  24.311   1.643
64732W        W36348  41.342  15.303  13.021
64733W        W36349  12.610  44.329  12.337
64734W        W36350  37.139  36.384   4.661
64735W        W36351   4.005  36.029  13.354
64736W        W36352  17.033  33.590  12.416
64737W        W36353  23.276   6.419   1.450
64738W        W36354  17.129  30.554   1.182
64739W        W36355  18.222  13.122  11.453
64740W        W36356  11.927  37.389  14.990
64741W        W36357  41.385  42.479  14.552
64742W        W36358  18.944  40.448   4.946
64743W        W36359  20.056  11.245   4.036
64744W        W36360  31.906  24.084  13.551
64745W        W36361  11.637   5.212  12.864
64746W        W36362  31.987  15.804   5.282
64747W        W36363  35.088  13.557   1.663
64748W        W36364  28.871   0.237  13.319
64749W        W36365  36.688   0.043   0.061
64750W        W36366  12.699  22.745  11.511
64751W        W36367  26.787  35.939  10.961
64752W        W36368  40.867  33.947  13.440
64753W        W36369   2.269  29.888  14.456
64754W        W36370  16.160  21.263   3.393
64755W        W36371  17.797  43.385   1.755
64756W        W36372  16.184  23.224   1.951
64757W        W36373   5.225  23.197  13.122
64758W        W36374   0.491   4.883   2.815
64759W        W36375  19.061  18.258  12.977
64760W        W36376  43.234  22.091   2.371
64761W        W36377   3.303  13.680   4.868
64762W        W36378  33.638   3.844  12.164
64763W        W36379  38.863  29.131  13.069
64764W        W36380  14.334  11.359   1.974
64765W        W36381  10.797  42.312  13.626
64766W        W36382   6.357   6.256  13.456
64767W        W36383  31.516  44.879  14.637
64768W        W36384   1.009  10.734   3.039
64769W        W36385  41.045  35.484   1.945
64770W        W36386  10.256   4.491  13.847
64771W        W36387   5.246  17.532   0.857
64772W        W36388  27.091  42.488   1.473
64773W        W36389  13.869   6.375  13.515
64774W        W36390  33.091  18.257  13.369
64775W        W36391  18.126  22.719  11.634
64776W        W36392   5.262  12.821  11.520
64777W        W36393  18.259   2.223   2.725
64778W        W36394  40.923  20.735  13.064
64779W        W36395  35.921  38.351  11.913
64780W        W36396  26.105  17.534  14.764
64781W        W36397  20.721   8.239   2.373
64782W        W36398  12.145  39.007   3.175
64783W        W36399  13.086   1.439  14.841
64784W        W36400  44.922  44.534   1.622
64785W        W36401  41.075   5.257  14.317
64786W        W36402  40.915  36.454   2.492
64787W        W36403   4.196   1.477  11.774
64788W        W36404   3.825  42.384   1.324
64789W        W36405  20.112  36.013   2.874
64790W        W36406   6.316  22.521  13.087
64791W        W36407  28.435  41.911   3.242
64792W        W36408  25.899  25.641  13.086
64793W        W36409  31.438  27.184  14.471
64794W        W36410  14.279  38.439  13.377
64795W        W36411   5.794  32.625  12.478
64796W        W36412  17.294  10.410  14.891
64797W        W36413  11.556  15.852   2.729
64798W        W36414   1.805   8.381   3.696
64799W        W36415  36.816   8.104  11.865
64800W        W36416   8.490  21.691  12.150
64801W        W36417   6.503  27.014  10.375
64802W        W36418  30.472   9.226   3.691
64803W        W36419  15.921   5.067  12.576
64804W        W36420  22.623  37.627   0.824
64805W        W36421  29.907  29.387   3.303
64806W        W36422  15.956  19.987   4.214
64807W        W36423  26.580  18.232   3.429
64808W        W36424   8.948  40.823   1.922
64809W        W36425  38.019  17.542   2.786
64810W        W36426  29.466  21.871   0.497
64811W        W36427   9.371   4.613   0.182
64812W        W36428   8.219  30.841  13.883
64813W        W36429  25.167  33.606   4.643
64814W        W36430   6.572  21.006  12.926
64815W        W36431  29.148  14.216  10.591
64816W        W36432   8.757  22.002   3.272
64817W        W36433  15.842  34.530  12.381
64818W        W36434   8.473  23.359   2.315
64819W        W36435  28.040   1.454   0.743
64820W        W36436  23.222  34.001   1.663
64821W        W36437  18.867   6.402   0.806
64822W        W36438  44.334  24.058  12.483
64823W        W36439  35.137  42.808  12.017
64824W        W36440  34.221  32.152  11.630
64825W        W36441  19.747   6.866   0.024
64826W        W36442   8.874  26.034   1.758
64827W        W36443  20.587  41.590  11.652
64828W        W36444  16.904  27.899  10.751
64829W        W36445  27.920  42.695  11.540
64830W        W36446  17.539   8.296  10.746
64831W        W36447  36.439  27.800  11.618
64832W        W36448   1.062  21.946  11.477
64833W        W36449  13.004  19.079  11.551
64834W        W36450  11.387  12.629  12.081
64835W        W36451  34.139  34.954   2.325
64836W        W36452  35.791  19.486  11.497
64837W        W36453   0.936  27.955  14.531
64838W        W36454  23.107  11.320   4.123
64839W        W36455   9.105  38.425   0.320
64840W        W36456  32.349  10.595  12.082
64841W        W36457  16.554   8.903   4.750
64842W        W36458  21.090  44.477   3.921
64843W        W36459   1.475  31.063  12.579
64844W        W36460  15.436  38.338  14.781
64845W        W36461  44.399  11.946  10.452
64846W        W36462  31.095  24.473   0.404
64847W        W36463  20.262  22.385  11.300
64848W        W36464  43.048  22.217   1.844
64849W        W36465  42.382  18.148  11.236
64850W        W36466  18.028  13.888   0.400
64851W        W36467  44.063  38.533  14.554
64852W        W36468   2.351   1.249  14.428
64853W        W36469  26.560   0.060   2.302
64854W        W36470  41.130  34.983   3.741
64855W        W36471  34.356  42.436   2.625
64856W        W36472  35.639  41.892  12.345
64857W        W36473  43.335   1.155   1.328
64858W        W36474   3.076   1.754   3.123
64859W        W36475  25.653   1.997   1.530
64860W        W36476  11.738   6.209  12.797
64861W        W36477  26.794   0.774   0.724
64862W        W36478  34.700  31.427  13.925
64863W        W36479   7.285  40.235  11.152
64864W        W36480  27.422  36.398   2.786
64865W        W36481  33.882   4.285  12.860
64866W        W36482  39.271  37.824   1.725
64867W        W36483   3.574  37.871  10.636
64868W        W36484  44.596  21.449  12.573
64869W        W36485  22.011  12.246  11.650
64870W        W36486  37.982  29.116  14.874
64871W        W36487  38.031  38.328  12.593
64872W        W36488  18.134  28.035   0.665
64873W        W36489  35.943  22.088  13.429
64874W        W36490  35.598  18.534  12.500
64875W        W36491  39.279  29.642   0.673
64876W        W36492  27.865  24.085   0.345
64877W        W36493   6.004  10.495  12.501
64878W        W36494  23.247  17.209   4.650
64879W        W36495  29.537  20.478   4.034
64880W        W36496  29.984  16.154  14.999
64881W        W36497  38.803  30.663   2.274
64882W        W36498  34.406  26.396   0.923
64883W        W36499  16.234  40.499   4.755
64884W        W36500   5.256  34.442  13.426
64885W        W36501  38.111  21.108  11.988
64886W        W36502   3.246   5.656   1.861
64887W        W36503  41.850   1.657  10.299
64888W        W36504  38.738  39.834  12.070
64889W        W36505  31.019  16.401  13.329
64890W        W36506  41.017  30.394  12.573
64891W        W36507  30.548   2.702  14.854
64892W        W36508  25.069  15.537  11.009
64893W        W36509  40.323   5.596  14.930
64894W        W36510  44.264  34.618   2.795
64895W        W36511  10.841  19.112  13.889
64896W        W36512   1.220  38.554   0.393
64897W        W36513  44.175  27.621   1.702
64898W        W36514  41.763   8.313  14.771
64899W        W36515  13.181  23.035  14.018
64900W        W36516  16.545  39.456   1.202
64901W        W36517  32.582   9.804  12.496
64902W        W36518   9.381  30.585  12.825
64903W        W36519  18.278  10.815   2.824
64904W        W36520  22.974  14.680   1.945
64905W        W36521   5.175  19.525   1.182
64906W        W36522  30.635  35.581  13.153
64907W        W36523   7.460  16.564   4.143
64908W        W36524  31.880  41.293   4.220
64909W        W36525  39.842   0.776   1.877
64910W        W36526  14.295  11.074  13.663
64911W        W36527   3.441  25.554   2.927
64912W        W36528  14.154  22.009   1.263
64913W        W36529  31.145  12.589  12.449
64914W        W36530  26.072  11.961  12.708
64915W        W36531  35.047  24.400  14.777
64916W        W36532  37.285  22.936  12.952
64917W        W36533   7.166   0.889  12.325
64918W        W36534  43.053  25.241  12.627
64919W        W36535   7.299   7.252  12.428
64920W        W36536  10.299  44.062  11.992
64921W        W36537  10.753   7.347  10.636
64922W        W36538  23.617   5.232   4.214
64923W        W36539  30.445  31.054   4.127
64924W        W36540  41.851  38.472  10.622
64925W        W36541  42.536  17.106   2.223
64926W        W36542  31.723  28.138   4.634
64927W        W36543  17.534   8.196   0.533
64928W        W36544  34.408   6.841  12.453
64929W        W36545  34.059  11.876   4.221
64930W        W36546  27.863  18.476   1.612
64931W        W36547  16.316  21.216  13.416
64932W        W36548  42.218  28.036   0.802
64933W        W36549  33.172   9.211  12.004
64934W        W36550  43.448  19.452  13.855
64935W        W36551  32.648  40.869  11.135
64936W        W36552  18.161  22.416   2.693
64937W        W36553  18.606  24.585  13.902
64938W        W36554  12.183   4.760  12.924
64939W        W36555   5.807   9.188  12.855
64940W        W36556  28.525  37.552   4.494
64941W        W36557  44.726  27.148   2.672
64942W        W36558  25.935  43.001   0.406
64943W        W36559   1.920  20.041  14.095
64944W        W36560  18.842   4.771   2.837
64945W        W36561  28.533  44.383   4.333
64946W        W36562  27.480  41.695  13.525
64947W        W36563  15.120  19.769   0.279
64948W        W36564  35.561   3.463   1.730
64949W        W36565   8.854   0.204  14.753
64950W        W36566  37.794  20.578   3.660
64951W        W36567  23.898   2.451   1.296
64952W        W36568  40.786  14.386   3.134
64953W        W36569   3.229  24.030   4.679
64954W        W36570  44.763  10.291  11.530
64955W        W36571  20.522  22.051   2.313
64956W        W36572  20.342   4.781   2.673
64957W        W36573  26.062  17.267   2.660
64958W        W36574  42.963  11.368  13.448
64959W        W36575  33.922  19.230   1.370
64960W        W36576  21.061  34.374  13.516
64961W        W36577  19.736   3.356   4.590
64962W        W36578  27.682  28.380  11.993
64963W        W36579  30.832  35.414   3.802
64964W        W36580  38.675  21.600  13.730
64965W        W36581  16.653   8.242   3.264
64966W        W36582  13.234  27.501   4.107
64967W        W36583   6.925   5.782  11.117
64968W        W36584  30.674  23.115   0.902
64969W        W36585  32.534  32.903  11.945
64970W        W36586  44.041  41.416  13.033
64971W        W36587  43.551  18.294   3.812
64972W        W36588   8.880  38.971   1.450
64973W        W36589  14.301  39.377  11.465
64974W        W36590  19.377  26.038   3.706
64975W        W36591  23.106   9.930   0.244
64976W        W36592  20.640  36.175  12.712
64977W        W36593   1.809   7.336   4.560
64978W        W36594  23.063  24.509   2.725
64979W        W36595  16.261  36.823  11.135
64980W        W36596   5.039   7.120  14.816
64981W        W36597  30.649  38.300   2.642
64982W        W36598  27.017  13.142  14.365
64983W        W36599  32.113  41.971   0.393
64984W        W36600  28.724  20.966   1.769
64985W        W36601   1.288  39.520   1.868
64986W        W36602  30.012   4.184  12.141
64987W        W36603  30.269  41.596   0.351
64988W        W36604  19.328  27.220  11.708
64989W        W36605  16.654  43.297   4.649
64990W        W36606  12.133  22.546   1.249
64991W        W36607  24.549  24.812  12.871
64992W        W36608  19.506  18.729   2.322
64993W        W36609  20.479  37.383  13.373
64994W        W36610  28.528   2.093  10.422
64995W        W36611  14.084   4.458   2.210
64996W        W36612  28.412  33.854  12.002
64997W        W36613  13.820  19.232  14.911
64998W        W36614  17.055  32.414  13.199
64999W        W36615   7.445  28.058   0.447
65000W        W36616  36.835  30.165   2.587
65001W        W36617  30.030   7.630   0.420
65002W        W36618  43.566  35.067  11.108
65003W        W36619  15.350  39.941  14.888
65004W        W36620   3.525  18.238  11.068
65005W        W36621  27.586   6.887  10.696
65006W        W36622  23.514   7.413   2.632
65007W        W36623  29.390  21.109  12.378
65008W        W36624  30.711  13.341   0.502
65009W        W36625   5.061   1.368   9.932
65010W        W36626   7.777  29.539  12.475
65011W        W36627  16.189  16.692  10.689
65012W        W36628  44.518   6.260  11.976
65013W        W36629   1.427  43.960  10.800
65014W        W36630  30.592  16.093  12.040
65015W        W36631  21.673  11.818   3.216
65016W        W36632  38.131   2.760   3.086
65017W        W36633   2.306  25.967  14.605
65018W        W36634  22.019   1.562   3.098
65019W        W36635   2.895  23.063   2.806
65020W        W36636  13.322  22.158  12.038
65021W        W36637  37.849  38.504   2.377
65022W        W36638  13.533  16.581  11.562
65023W        W36639  18.127   6.550  13.989
65024W        W36640  19.040   0.998   0.993
65025W        W36641  42.705  10.368   0.963
65026W        W36642  38.102  14.580  14.527
65027W        W36643  37.915  37.063   4.974
65028W        W36644  10.176  30.913  11.146
65029W        W36645  23.594  19.700   1.115
65030W        W36646  15.890   0.409   2.677
65031W        W36647  41.472  21.618   2.327
65032W        W36648  40.891  33.372  11.927
65033W        W36649   5.656  32.808  14.049
65034W        W36650   7.700  43.386   4.166
65035W        W36651  29.450  24.472   3.098
65036W        W36652   7.402  39.858  14.977
65037W        W36653  40.589   7.953  10.841
65038W        W36654   8.643  32.626  14.432
65039W        W36655  16.351  25.080  13.701
65040W        W36656  18.117   2.276  12.136
65041W        W36657  39.617   7.640  10.749
65042W        W36658  35.494  20.537   1.769
65043W        W36659  38.591  34.317  12.607
65044W        W36660  29.018  14.233  14.577
65045W        W36661  26.752  36.469   2.264
65046W        W36662   1.561  31.038  10.653
65047W        W36663  26.036  42.311   4.104
65048W        W36664  23.256  31.245  11.664
65049W        W36665  44.542  25.433  11.501
65050W        W36666   4.860  39.563   0.204
65051W        W36667  31.352  32.611  11.984
65052W        W36668  19.105   8.913   4.555
65053W        W36669   6.868  33.508  12.611
65054W        W36670  19.120   2.577  12.469
65055W        W36671  25.055  35.488   4.078
65056W        W36672  26.724  26.190   0.352
65057W        W36673  32.105  24.990   4.785
65058W        W36674  33.774  22.219   4.757
65059W        W36675  11.791  44.850   3.141
65060W        W36676  44.206  33.403  12.375
65061W        W36677   8.180  36.823   1.836
65062W        W36678  27.504  29.705  11.584
65063W        W36679  43.416  25.184   3.529
65064W        W36680   5.669  32.383   2.557
65065W        W36681   6.806  35.370   1.686
65066W        W36682   4.850  30.840  14.996
65067W        W36683  38.263  35.139   1.228
65068W        W36684  41.532   7.154   3.648
65069W        W36685  21.207  13.420  13.505
65070W        W36686  34.177   8.229   0.847
65071W        W36687   6.869  25.504   1.799
65072W        W36688  38.779   7.799  11.483
65073W        W36689   9.967  15.615   0.318
65074W        W36690  42.997  36.891   0.063
65075W        W36691  41.293  17.749   1.210
65076W        W36692  28.718  13.634   0.943
65077W        W36693  35.178  43.685   3.327
65078W        W36694   8.705  43.349  10.942
65079W        W36695  27.614   5.224   4.792
65080W        W36696   5.874  24.655  14.479
65081W        W36697   3.642   1.560   1.389
65082W        W36698   2.693  29.675   1.714
65083W        W36699  43.795  21.977  14.028
65084W        W36700  10.809  14.974   3.860
65085W        W36701  34.001  39.139   4.700
65086W        W36702   4.381  18.693  13.866
65087W        W36703  27.148  32.990  11.008
65088W        W36704   9.799   4.423  12.467
65089W        W36705  42.544  40.575  12.801
65090W        W36706   9.358  21.636   1.643
65091W        W36707  17.269  13.595  11.225
65092W        W36708   2.933  31.688  11.149
65093W        W36709  30.497  16.962   1.696
65094W        W36710   8.263  39.404   3.595
65095W        W36711  26.647  12.157   0.464
65096W        W36712  26.645  24.734  12.187
65097W        W36713  22.263  13.418  11.138
65098W        W36714  27.505  17.274   1.631
65099W        W36715  21.684  38.334   3.233
65100W        W36716   3.953  14.769   0.497
65101W        W36717  37.405  10.892   2.300
65102W        W36718  28.928  30.187   4.152
65103W        W36719  26.097  30.846   0.149
65104W        W36720  10.835  40.457  11.512
65105W        W36721  26.537  23.601  10.770
65106W        W36722  24.269   6.711   4.507
65107W        W36723  38.873  21.586  12.373
65108W        W36724  16.657  24.264  13.672
65109W        W36725  41.006  24.235   0.919
65110W        W36726  41.248   6.858  11.139
65111W        W36727  11.614  12.152  13.958
65112W        W36728  40.302  39.801   4.147
65113W        W36729  41.542  11.763  13.754
65114W        W36730  18.492  27.222  13.905
65115W        W36731   7.328  43.321  12.066
65116W        W36732   0.920  32.425   4.273
65117W        W36733   5.121  27.587   2.793
65118W        W36734   5.651  35.804  11.592
65119W        W36735  31.085  30.582   2.746
65120W        W36736  13.019  40.212  14.066
65121W        W36737  18.441  40.768   0.293
65122W        W36738  19.837  42.260  12.010
65123W        W36739   5.938  16.299   1.781
65124W        W36740  30.490   4.326  10.968
65125W        W36741  33.629  14.722   0.814
65126W        W36742   7.635  26.461  14.989
65127W        W36743   7.772   7.699   3.729
65128W        W36744  16.896  15.729  11.966
65129W        W36745   4.468  30.115  11.911
65130W        W36746   7.171  17.808   0.862
65131W        W36747  17.588  38.947   2.932
65132W        W36748  10.836  29.180   4.605
65133W        W36749  35.853  38.756  13.891
65134W        W36750   1.587   2.213  11.635
65135W        W36751  19.451   2.708   1.251
65136W        W36752  36.704  20.468   2.598
65137W        W36753  20.297  23.610  14.459
65138W        W36754  35.657  40.754   1.831
65139W        W36755  31.036  31.449  10.649
65140W        W36756  17.538   7.741   0.856
65141W        W36757  37.461  32.328  13.434
65142W        W36758   8.584  17.189  11.594
65143W        W36759  13.312   4.515  14.209
65144W        W36760  13.331  41.413  13.324
65145W        W36761  37.033  29.331  13.911
65146W        W36762  30.133  26.986  11.689
65147W        W36763  15.593   0.013  11.376
65148W        W36764  35.511  44.811  14.402
65149W        W36765  11.888   5.835  13.359
65150W        W36766  33.608  31.459   0.755
65151W        W36767  37.730  29.069  14.420
65152W        W36768  30.467   7.880   0.244
65153W        W36769  26.226   8.592  13.961
65154W        W36770  34.937  17.074   4.599
65155W        W36771  33.814   6.328   4.611
65156W        W36772  10.859  15.021  12.062
65157W        W36773  33.993  15.551  13.394
65158W        W36774   7.871  30.441   0.290
65159W        W36775  34.671  26.722   0.634
65160W        W36776  24.241  33.937   3.106
65161W        W36777   3.197  44.285  13.283
65162W        W36778  43.324  23.071  13.583
65163W        W36779  35.683  33.345   2.616
65164W        W36780  42.940   1.836   1.721
65165W        W36781  40.803  26.463  10.701
65166W        W36782  35.027  43.021   0.372
65167W        W36783  25.177  28.727  12.107
65168W        W36784   4.238  41.322   2.712
65169W        W36785  29.434   4.399  14.476
65170W        W36786   5.093   3.197  10.316
65171W        W36787  36.878   3.214   1.780
65172W        W36788  24.808   2.272   5.169
65173W        W36789  21.313   5.429  13.237
65174W        W36790  13.833  17.604   1.295
65175W        W36791  33.552  27.964  14.473
65176W        W36792  21.784  42.804   2.900
65177W        W36793  18.078   7.491   2.614
65178W        W36794  31.783  12.209  11.985
65179W        W36795   4.420  22.438   2.797
65180W        W36796  21.468  39.878   0.228
65181W        W36797  37.581  40.818  14.053
65182W        W36798  12.238  22.570  14.829
65183W        W36799  35.625  12.557  10.441
65184W        W36800  12.663   9.997   1.059
65185W        W36801  30.142  28.372  11.161
65186W        W36802  34.996  43.220  14.873
65187W        W36803   2.396  32.144   4.905
65188W        W36804  41.351  26.620   0.246
65189W        W36805  18.173  15.821   1.223
65190W        W36806  34.947  21.706  10.425
65191W        W36807  37.612  31.801  14.865
65192W        W36808  26.966  28.028   1.881
65193W        W36809   3.514  24.588   4.785
65194W        W36810   3.550  40.580   2.230
65195W        W36811   9.384  20.646   2.841
65196W        W36812  19.644  39.983   4.964
65197W        W36813  42.560   8.185   1.879
65198W        W36814   1.353   3.369   3.274
65199W        W36815  42.708  26.757   1.868
65200W        W36816  14.036  31.033   1.846
65201W        W36817  30.929   3.631  11.060
65202W        W36818  39.859  41.770   1.513
65203W        W36819  29.640  14.659   3.292
65204W        W36820  38.961  41.635  10.973
65205W        W36821   7.001   3.176  12.066
65206W        W36822   2.698  25.799  14.917
65207W        W36823  37.359  29.371   4.007
65208W        W36824  17.563   5.855  11.587
65209W        W36825  29.955  23.026  11.676
65210W        W36826  41.015  29.173  13.409
65211W        W36827  38.743  17.696   2.184
65212W        W36828  31.954  11.314  13.953
65213W        W36829  37.820  26.341  13.930
65214W        W36830   2.351  44.800  10.167
65215W        W36831  22.654  18.675   1.236
65216W        W36832  31.023  43.990   3.753
65217W        W36833   4.557  38.840   4.220
65218W        W36834  35.442   8.800  13.228
65219W        W36835   1.772  25.393  13.309
65220W        W36836  18.694  29.309   3.253
65221W        W36837  20.041  38.387   2.377
65222W        W36838  29.596   9.623   1.933
65223W        W36839  36.139  30.139  10.708
65224W        W36840  17.860  24.284  12.063
65225W        W36841  44.481   9.380   2.190
65226W        W36842  29.853  29.753   5.027
65227W        W36843  41.481  35.469  11.493
65228W        W36844   9.372   9.546  14.762
65229W        W36845  13.240  23.070  14.522
65230W        W36846  33.971  43.036  12.592
65231W        W36847  30.415   6.672   3.231
65232W        W36848  25.892   0.248  11.092
65233W        W36849  10.618   9.788  13.280
65234W        W36850  32.361  33.053  12.958
65235W        W36851  10.265  31.316   1.760
65236W        W36852   1.203  39.318  14.776
65237W        W36853  10.331   3.322   9.940
65238W        W36854   2.484  10.752   2.776
65239W        W36855  41.526  20.579   0.257
65240W        W36856  21.178  13.338   4.731
65241W        W36857  23.011  16.753  14.471
65242W        W36858  13.859  12.747   4.602
65243W        W36859  32.528  30.084  13.012
65244W        W36860  10.878  26.639  13.887
65245W        W36861  32.192   3.271  11.181
65246W        W36862  20.912  20.932  11.997
65247W        W36863  13.395  37.422   4.679
65248W        W36864  16.651  25.024   0.235
65249W        W36865  20.843  15.689   1.694
65250W        W36866  22.492   6.162  14.867
65251W        W36867  19.178  11.933   0.721
65252W        W36868  32.336  21.601   0.886
65253W        W36869  15.919  13.794   3.758
65254W        W36870   0.952  44.087  13.813
65255W        W36871   3.850  41.434  13.475
65256W        W36872  22.280  29.789   4.019
65257W        W36873  37.070  34.380  11.533
65258W        W36874  33.551  17.583   1.225
65259W        W36875   6.775  25.940  12.572
65260W        W36876  30.129   9.884   1.065
65261W        W36877  26.137  36.024  11.408
65262W        W36878  29.096  12.857   4.574
65263W        W36879   2.850  43.471  14.511
65264W        W36880  26.945   5.249   0.709
65265W        W36881  36.747  25.691  11.091
65266W        W36882  43.831   7.236   2.237
65267W        W36883  42.967  43.624   3.134
65268W        W36884  16.323  31.498   2.858
65269W        W36885  36.259   4.846  12.662
65270W        W36886   9.705   5.063  14.778
65271W        W36887  35.847  25.009  14.913
65272W        W36888  39.435  42.783   2.653
65273W        W36889   3.757  41.953   0.553
65274W        W36890  33.489  35.528  11.846
65275W        W36891  33.542  39.952   1.948
65276W        W36892  33.029  35.847   2.768
65277W        W36893  41.911   5.460   2.017
65278W        W36894  33.177   4.797   0.208
65279W        W36895  20.471  40.770   2.159
65280W        W36896  35.019  33.633  13.038
65281W        W36897  42.983  35.721   0.713
65282W        W36898   6.323  29.638  13.035
65283W        W36899  16.176  26.729  11.553
65284W        W36900  39.608  35.472  13.398
65285W        W36901  11.400  29.259   0.475
65286W        W36902  26.033   7.706  12.070
65287W        W36903  24.255  24.056   3.605
65288W        W36904  16.132  16.295  12.043
65289W        W36905  37.854  39.406  11.558
65290W        W36906  32.194  44.500   0.412
65291W        W36907  44.932  23.544  12.797
65292W        W36908  42.907  34.271   0.687
65293W        W36909  34.183  11.038  14.772
65294W        W36910   9.831  22.536   1.504
65295W        W36911  33.010  28.610   2.883
65296W        W36912  36.991  35.035   4.312
65297W        W36913  16.377  13.702  12.034
65298W        W36914  16.934  37.114   3.764
65299W        W36915  36.180  29.133   3.226
65300W        W36916  27.561  36.013   3.948
65301W        W36917  32.593  24.924   1.263
65302W        W36918  39.558  20.408  12.654
65303W        W36919  13.153  36.485   1.711
65304W        W36920  28.250  29.410  13.534
65305W        W36921  34.058  42.499   4.250
65306W        W36922  33.636  19.348   3.645
65307W        W36923  16.812  35.331   1.190
65308W        W36924  31.446  21.251  11.108
65309W        W36925  18.856  29.126  14.981
65310W        W36926   3.438  40.521  11.656
65311W        W36927  17.203  12.868   3.733
65312W        W36928  24.014   6.948   4.119
65313W        W36929   9.031  24.537   0.223
65314W        W36930  30.171  19.055   0.701
65315W        W36931   1.586   8.227   0.341
65316W        W36932  17.576   8.455   3.143
65317W        W36933   4.992   8.446  12.583
65318W        W36934  17.615  37.212   0.288
65319W        W36935  11.886  30.631   3.651
65320W        W36936  31.510   8.361  14.919
65321W        W36937  36.992  13.670   2.567
65322W        W36938  13.872  18.659   1.299
65323W        W36939  22.284   6.279   1.482
65324W        W36940  26.855  33.871   4.091
65325W        W36941  22.879  24.367  14.796
65326W        W36942  36.215  19.588  11.215
65327W        W36943  19.145  13.609   3.943
65328W        W36944  35.685  31.625   2.385
65329W        W36945   7.687  42.892  10.719
65330W        W36946   2.711  35.364  12.859
65331W        W36947  25.127  14.103  13.808
65332W        W36948   1.815   8.349  11.707
65333W        W36949  12.237  16.480  13.390
65334W        W36950   9.191  16.128   1.720
65335W        W36951   5.455  25.257   5.000
65336W        W36952  18.673  11.998   4.973
65337W        W36953   4.193  13.731   2.235
65338W        W36954  18.814  35.230   4.894
65339W        W36955  27.266  35.567   4.699
65340W        W36956  32.648   3.910   2.218
65341W        W36957  36.144  25.416   1.400
65342W        W36958  11.830  15.871   3.180
65343W        W36959  22.192  15.996   4.527
65344W        W36960   7.702   2.915  10.429
65345W        W36961   2.363  16.811  12.574
65346W        W36962  31.168  12.610   3.157
65347W        W36963  12.366   7.275  12.536
65348W        W36964  29.611  43.878  10.850
65349W        W36965  13.166  10.654  10.614
65350W        W36966  30.235  26.604  13.441
65351W        W36967  14.848  18.531   2.797
65352W        W36968  21.046  20.434   0.472
65353W        W36969   5.652  33.380  12.996
65354W        W36970   8.363  32.148  14.517
65355W        W36971  23.436  14.624   0.023
65356W        W36972  23.533  17.461   3.533
65357W        W36973   4.174  27.213   3.649
65358W        W36974   7.937  21.144  11.151
65359W        W36975   9.755  42.447   2.409
65360W        W36976  30.520  19.976  14.804
65361W        W36977  40.190  11.156  13.957
65362W        W36978   2.454   8.450   2.320
65363W        W36979   1.078  34.090   1.826
65364W        W36980   6.095  28.418  12.972
65365W        W36981  32.370  35.863  12.307
65366W        W36982   1.394   4.593   2.700
65367W        W36983  14.995   9.393  12.495
65368W        W36984   2.770  25.647   0.793
65369W        W36985  14.542  18.513  11.020
65370W        W36986  19.664   1.928  12.868
65371W        W36987   2.520  21.827   0.086
65372W        W36988   4.903   8.249   4.154
65373W        W36989  33.260  29.741  14.814
65374W        W36990  39.907  40.571   1.486
65375W        W36991   3.847  20.837   0.848
65376W        W36992  38.449  32.780  12.520
65377W        W36993  39.379  39.627  12.903
65378W        W36994  34.885  15.511   0.469
65379W        W36995   5.439  15.310  10.829
65380W        W36996  35.529  32.936  14.993
65381W        W36997  36.420   7.385   1.362
65382W        W36998  35.492  26.482   3.156
65383W        W36999  35.100  42.547   4.871
65384W        W37000  34.004  14.859  12.339
65385W        W37001  27.689  40.352   1.480
65386W        W37002  36.310  23.019   0.343
65387W        W37003  18.756   9.657  10.570
65388W        W37004   0.631  31.882   3.324
65389W        W37005  40.925   9.811  13.080
65390W        W37006  14.590  24.045   4.374
65391W        W37007  40.352  40.882   0.513
65392W        W37008  37.155  27.066  12.620
65393W        W37009  32.552   9.361  10.532
65394W        W37010   9.865  40.924  14.418
65395W        W37011   7.224  12.078  11.617
65396W        W37012  38.743   5.496   4.374
65397W        W37013   6.451   5.255   4.634
65398W        W37014  16.231  38.792   0.895
65399W        W37015  20.105  13.888   1.748
65400W        W37016  13.952  30.555   2.089
65401W        W37017  27.176  23.977   3.721
65402W        W37018   5.322  41.313  12.836
65403W        W37019  22.795  30.381  11.254
65404W        W37020   8.184  32.964   3.696
65405W        W37021  15.856  37.545   4.795
65406W        W37022  16.190  23.963  14.757
65407W        W37023  15.193  25.763   4.414
65408W        W37024  39.408  40.476  13.319
65409W        W37025  28.448  13.224   2.269
65410W        W37026  18.094   3.384   5.081
65411W        W37027  15.184   4.812   5.047
65412W        W37028   5.324   7.705  14.529
65413W        W37029   7.699  39.914   0.477
65414W        W37030  31.455  44.966  13.602
65415W        W37031  29.467  40.608   3.618
65416W        W37032  13.519  16.355   3.740
65417W        W37033   8.772  43.732   2.780
65418W        W37034   9.383   5.317  10.686
65419W        W37035  43.734   2.334  14.806
65420W        W37036  35.582  36.611   3.639
65421W        W37037  11.698  41.954  10.393
65422W        W37038   5.366  36.898  14.552
65423W        W37039  39.891  38.428   3.886
65424W        W37040  27.145  34.567  12.502
65425W        W37041   2.808  33.321  13.471
65426W        W37042  17.347   7.149  12.025
65427W        W37043  30.701  14.884  12.654
65428W        W37044  40.289  29.920  13.459
65429W        W37045   3.753  34.570   4.551
65430W        W37046   6.762  15.286   4.558
65431W        W37047   9.490  36.841  13.431
65432W        W37048  43.465  22.007  13.271
65433W        W37049  19.353   4.609   2.769
65434W        W37050   3.402  13.048  12.004
65435W        W37051  10.874  31.842   9.818
65436W        W37052  15.683  24.412  14.313
65437W        W37053  41.590  10.029   0.886
65438W        W37054  14.387  32.820  12.170
65439W        W37055   6.758  14.650  11.662
65440W        W37056  42.819  20.781  12.620
65441W        W37057  36.066  36.481   4.866
65442W        W37058  42.997  37.567   3.024
65443W        W37059  37.372  13.246  12.103
65444W        W37060   6.850  32.372  14.557
65445W        W37061   6.894  15.408   2.209
65446W        W37062  27.483   1.187  12.523
65447W        W37063   3.123  10.727   2.146
65448W        W37064  32.427  10.290  12.618
65449W        W37065  20.523  29.024   2.013
65450W        W37066  43.417  14.690   1.732
65451W        W37067   6.919  29.339   0.347
65452W        W37068   9.135  38.882   5.511
65453W        W37069   2.759  30.101   3.271
65454W        W37070  28.471  39.971   4.857
65455W        W37071  26.469  22.654  11.987
65456W        W37072  28.298  31.281   5.119
65457W        W37073  39.051  20.765  12.025
65458W        W37074   3.175  36.649  14.339
65459W        W37075   8.713  18.649   1.471
65460W        W37076  15.552   0.927   1.769
65461W        W37077  41.912  36.965  10.507
65462W        W37078  17.668  26.609   2.146
65463W        W37079  43.712  40.849  11.519
65464W        W37080  10.595  14.378   3.890
65465W        W37081   0.038  43.461   2.519
65466W        W37082  14.596  30.067  14.356
65467W        W37083   3.333  11.086   0.768
65468W        W37084  28.881  37.568  11.157
65469W        W37085  21.584  39.493  11.530
65470W        W37086  29.383  29.490   9.702
65471W        W37087  42.129  12.950  10.418
65472W        W37088  27.414  10.742   4.275
65473W        W37089  33.012  15.762  13.365
65474W        W37090  13.144  17.611  11.025
65475W        W37091   5.349  29.127   1.329
65476W        W37092  38.238  37.452   1.718
65477W        W37093  42.480  38.083   1.073
65478W        W37094  37.748  43.416   1.802
65479W        W37095   9.611   0.076  13.181
65480W        W37096   1.412  24.978   1.991
65481W        W37097  15.644  17.263   4.070
65482W        W37098  36.925  13.601  14.753
65483W        W37099  23.736  30.676  12.583
65484W        W37100  10.642  34.397   1.182
65485W        W37101  27.230  17.597   3.804
65486W        W37102  20.732  41.490   1.959
65487W        W37103  42.933  19.283  13.879
65488W        W37104  13.198  10.795   3.853
65489W        W37105  32.446  44.262  12.137
65490W        W37106   3.747  43.183  10.699
65491W        W37107  26.564   8.897  13.699
65492W        W37108  28.748  28.436   1.865
65493W        W37109  42.190   2.954   4.456
65494W        W37110  29.056   6.874  14.848
65495W        W37111  35.185  32.673   1.273
65496W        W37112  41.385  27.748   1.781
65497W        W37113  24.777   9.269   2.162
65498W        W37114  11.116  27.385  12.109
65499W        W37115  30.991  28.118  12.461
65500W        W37116  41.897  18.739   0.002
65501W        W37117   4.764  20.830   9.827
65502W        W37118  36.436  18.068   0.010
65503W        W37119   4.647  40.286  10.762
65504W        W37120   3.187  11.955   0.327
65505W        W37121  10.099  26.070  15.000
65506W        W37122  21.973  36.848  13.807
65507W        W37123  40.302  26.010   4.686
65508W        W37124  17.823   3.191  10.620
65509W        W37125  21.664  16.332   3.201
65510W        W37126  24.089  16.185   4.735
65511W        W37127  42.038  31.431  10.520
65512W        W37128   8.551  27.141  13.849
65513W        W37129  35.983  20.704  13.844
65514W        W37130  34.039   1.925   4.670
65515W        W37131  16.813  20.206  13.060
65516W        W37132  27.930   0.914   4.979
65517W        W37133  23.660  37.090  10.725
65518W        W37134   4.912   4.299  12.367
65519W        W37135  19.532   3.439   3.657
65520W        W37136   0.571  43.362   3.892
65521W        W37137   8.142  41.883  11.894
65522W        W37138   3.522  23.499   0.370
65523W        W37139  35.171  21.454   4.721
65524W        W37140  30.036  18.166   3.206
65525W        W37141  16.317  14.045  11.230
65526W        W37142   8.774  32.925  11.619
65527W        W37143  27.448  44.919  14.347
65528W        W37144  39.180  35.168  14.055
65529W        W37145  37.288  18.683   2.184
65530W        W37146  43.057  34.868  12.976
65531W        W37147  37.527   7.694   1.319
65532W        W37148  15.893   6.804   1.273
65533W        W37149  21.701   6.893   2.797
65534W        W37150  40.534  13.107  10.639
65535W        W37151   5.365   5.240   0.495
65536W        W37152   8.279  24.703   4.810
65537W        W37153  44.012  31.028   3.370
65538W        W37154  37.816  31.012   0.054
65539W        W37155  37.139  21.473   0.874
65540W        W37156  18.579  22.579  13.942
65541W        W37157  12.402  26.149   4.692
65542W        W37158  29.974  22.089  11.672
65543W        W37159   8.864  24.598   4.091
65544W        W37160   6.234   9.133  10.101
65545W        W37161  27.935  38.528  12.851
65546W        W37162  36.621  28.190  10.643
65547W        W37163  13.226  21.190   2.677
65548W        W37164  25.141  38.416   1.304
65549W        W37165   1.511  37.886   0.207
65550W        W37166  33.236  28.159   1.793
65551W        W37167  12.365   9.304  12.956
65552W        W37168  22.483  36.599   1.002
65553W        W37169  13.102  32.361   2.691
65554W        W37170   5.724  38.370   1.648
65555W        W37171  29.377  17.642   0.406
65556W        W37172  22.551  32.262  10.283
65557W        W37173  35.512  22.076   4.667
65558W        W37174  21.353  24.657  14.851
65559W        W37175   4.946  22.935   2.228
65560W        W37176  30.396  43.026  13.314
65561W        W37177  35.665  19.594   0.951
65562W        W37178  32.123  12.532   0.496
65563W        W37179  32.687  10.244   2.156
65564W        W37180  17.167  30.121   4.566
65565W        W37181  28.664   7.858   3.684
65566W        W37182  39.685  38.148   4.545
65567W        W37183   1.199  17.075  11.119
65568W        W37184   1.253   7.478   1.233
65569W        W37185  25.148   3.964   3.333
65570W        W37186   2.464  22.974  14.977
65571W        W37187  12.899  12.773  14.493
65572W        W37188  24.785  18.365  13.027
65573W        W37189  36.599  39.001  11.555
65574W        W37190  40.804  25.174  11.576
65575W        W37191   0.800   4.796  12.478
65576W        W37192  17.506  32.512  13.574
65577W        W37193  17.322  27.799   1.217
65578W        W37194   1.482  43.271   0.452
65579W        W37195  20.040  10.364   4.278
65580W        W37196  31.048  38.126  13.926
65581W        W37197  11.162  15.204  12.855
65582W        W37198   5.542   0.254   4.212
65583W        W37199   3.926  13.840   2.756
65584W        W37200  37.764  26.744   3.375
65585W        W37201  36.189  22.701   4.112
65586W        W37202   6.475  10.878  13.892
65587W        W37203  26.039   7.174  12.034
65588W        W37204   5.955  38.990   3.883
65589W        W37205  31.964  16.860  10.682
65590W        W37206  29.965  30.987  14.468
65591W        W37207  42.581  11.208   1.112
65592W        W37208  23.990  20.677  14.883
65593W        W37209  35.593  31.027   1.762
65594W        W37210  36.573  28.004   3.706
65595W        W37211  42.046   8.408   2.816
65596W        W37212  17.315   3.383   0.312
65597W        W37213  36.475  27.231   1.442
65598W        W37214  24.770  41.988  12.156
65599W        W37215  11.766  19.478  13.000
65600W        W37216  25.601  44.823  13.661
65601W        W37217  37.887  44.516  10.305
65602W        W37218  19.196  44.664  13.061
65603W        W37219  15.338   7.358  11.574
65604W        W37220  23.008   5.855   2.133
65605W        W37221  24.618  39.624  12.900
65606W        W37222  20.712  16.214  12.888
65607W        W37223  41.336  43.924   3.201
65608W        W37224  28.667  19.651   2.311
65609W        W37225  29.738  25.614   4.222
65610W        W37226   9.777  13.138  12.439
65611W        W37227   6.477  30.104  14.755
65612W        W37228   0.527   4.219   2.201
65613W        W37229  33.627  10.046  11.160
65614W        W37230  16.783  29.033   1.917
65615W        W37231  25.587   8.936   1.186
65616W        W37232  29.024  21.490   4.607
65617W        W37233  30.958  36.342  11.039
65618W        W37234  38.689  24.687  13.451
65619W        W37235  27.601   6.904  13.448
65620W        W37236  42.346   7.422  11.122
65621W        W37237  17.174  14.215   4.642
65622W        W37238  43.207  38.495   3.743
65623W        W37239  34.403   5.498   3.665
65624W        W37240  29.847  23.997  14.387
65625W        W37241  12.767  36.260   0.256
65626W        W37242  19.578  36.521   2.323
65627W        W37243  33.959   1.553  10.055
65628W        W37244   6.715   3.289  14.854
65629W        W37245  16.086  42.942  14.918
65630W        W37246  17.241  39.978   4.114
65631W        W37247  32.738  16.716  14.802
65632W        W37248   4.427  13.993   2.608
65633W        W37249  41.899   4.474   1.028
65634W        W37250  14.545  21.621  11.985
65635W        W37251  16.341  26.513   1.904
65636W        W37252   6.141  34.182   0.860
65637W        W37253  34.071  24.132  14.900
65638W        W37254  13.637  35.439   1.627
65639W        W37255  16.195  34.125  12.987
65640W        W37256  24.132  32.963  10.672
65641W        W37257  39.763  31.871   2.881
65642W        W37258  32.876   4.395   0.026
65643W        W37259  44.451  23.239   1.430
65644W        W37260   4.260  41.450   1.329
65645W        W37261  39.973   1.397   1.043
65646W        W37262   4.731  41.769  14.389
65647W        W37263  28.702  19.391   4.551
65648W        W37264  19.484   2.786   3.287
65649W        W37265  14.719  18.035  14.056
65650W        W37266  14.834  26.929  11.821
65651W        W37267  31.961  34.075  11.775
65652W        W37268  32.680  30.436  14.912
65653W        W37269  29.264  27.542  11.456
65654W        W37270  40.332  23.840  11.092
65655W        W37271  10.441  42.974   2.236
65656W        W37272  43.552  15.308   2.298
65657W        W37273   4.933  15.738   1.239
65658W        W37274   0.799  28.245   2.488
65659W        W37275  40.384  30.088  14.404
65660W        W37276  44.533  38.721  13.068
65661W        W37277  18.734  19.643   0.503
65662W        W37278  10.982  10.676  13.043
65663W        W37279  44.146  10.702   3.259
65664W        W37280   4.771  39.234  14.810
65665W        W37281  38.744  33.220   2.389
65666W        W37282  25.047  33.913   1.233
65667W        W37283  24.776  25.042   2.605
65668W        W37284  25.858   5.483  13.131
65669W        W37285   8.186  36.358  14.328
65670W        W37286  28.662   5.728   3.828
65671W        W37287  37.546  35.506  12.815
65672W        W37288  44.496  19.204   3.907
65673W        W37289  13.690   9.699   4.332
65674W        W37290   4.408  42.019  11.493
65675W        W37291  24.053   1.897  11.242
65676W        W37292  14.485   2.871  10.253
65677W        W37293  18.269  39.386  13.030
65678W        W37294  29.937  35.272   4.210
65679W        W37295   8.607   6.305  13.044
65680W        W37296  25.712  22.732   2.455
65681W        W37297  17.829  42.796   3.739
65682W        W37298   6.308  43.561   2.803
65683W        W37299  34.140  25.119   1.664
65684W        W37300  13.233   9.398   2.753
65685W        W37301  39.430  17.122   2.670
65686W        W37302  29.635  23.047  12.327
65687W        W37303  36.029  22.757   1.396
65688W        W37304  28.952  27.338  11.866
65689W        W37305  32.162   8.720   0.402
65690W        W37306  41.468  12.646   2.321
65691W        W37307  28.710  30.233   1.798
65692W        W37308  25.105  15.291   0.746
65693W        W37309  35.574  12.202   3.267
65694W        W37310  31.915  26.699  13.939
65695W        W37311   8.132  35.811   1.707
65696W        W37312  43.273  27.491   3.629
65697W        W37313  17.065  32.391   2.206
65698W        W37314  23.889   3.749   3.190
65699W        W37315  16.510  28.372  13.642
65700W        W37316   9.660  22.530   3.246
65701W        W37317  32.455  41.048  10.657
65702W        W37318   6.616   5.984  14.321
65703W        W37319  29.986  32.967   0.757
65704W        W37320  25.543  41.219  13.478
65705W        W37321  43.213  31.194  12.412
65706W        W37322   8.609  11.853   0.937
65707W        W37323   5.256  31.375  11.055
65708W        W37324  17.015  33.596   2.699
65709W        W37325  32.895  25.176  14.090
65710W        W37326   4.771  41.105  12.050
65711W        W37327  11.774  35.501   2.911
65712W        W37328  21.833  18.055  13.560
65713W        W37329  37.551  35.849   0.988
65714W        W37330  39.359  15.568  11.050
65715W        W37331   9.500   1.983   1.858
65716W        W37332   0.747  42.006   1.994
65717W        W37333  30.153  13.037   4.289
65718W        W37334  35.014  22.371  11.669
65719W        W37335  40.850  32.918   3.377
65720W        W37336  33.504  40.378   1.654
65721W        W37337  22.590  23.752   2.430
65722W        W37338  13.798  43.757   3.320
65723W        W37339  17.807  32.975   4.290
65724W        W37340  13.029   1.356  12.417
65725W        W37341  41.906  13.228   4.090
65726W        W37342  36.095  44.004   1.716
65727W        W37343  29.454   5.410   1.407
65728W        W37344  31.305  40.215   1.711
65729W        W37345  25.645  13.256   1.430
65730W        W37346   0.274  25.294  14.862
65731W        W37347  43.670  41.356  11.452
65732W        W37348   7.484   8.211   4.568
65733W        W37349  25.504  25.828  13.928
65734W        W37350   7.843  37.794  13.561
65735W        W37351  22.204  11.608   3.306
65736W        W37352  42.462  17.065   3.122
65737W        W37353  41.188  21.048   1.226
65738W        W37354  35.909   1.320   2.111
65739W        W37355  14.130  18.627  14.380
65740W        W37356  35.549   5.187   2.251
65741W        W37357  28.980  28.949  13.155
65742W        W37358  40.046   4.408   2.529
65743W        W37359  38.065  17.815  13.441
65744W        W37360  18.040   1.329  14.747
65745W        W37361  40.702  24.603  13.535
65746W        W37362  29.485  31.195   3.614
65747W        W37363   6.436  32.712   1.063
65748W        W37364   0.390   8.949   2.750
65749W        W37365  29.003  34.417  11.571
65750W        W37366  34.974  44.799  11.842
65751W        W37367  22.692  30.896   2.334
65752W        W37368  36.022   8.443  14.019
65753W        W37369  28.956   0.970  12.032
65754W        W37370  20.402  40.782  12.949
65755W        W37371  41.445  41.971   0.351
65756W        W37372  26.938  10.373   2.698
65757W        W37373  17.153   6.689  13.027
65758W        W37374  20.091   4.392   0.818
65759W        W37375  10.398  24.212   0.850
65760W        W37376  21.594  31.533   2.768
65761W        W37377   7.056  17.273   3.609
65762W        W37378  27.839  16.476  14.743
65763W        W37379  23.231  42.476  13.782
65764W        W37380  12.276  25.978   3.139
65765W        W37381   2.355   6.863   0.316
65766W        W37382  17.558  30.945  12.603
65767W        W37383  27.578  41.342  14.995
65768W        W37384  12.654   7.909  14.262
65769W        W37385  42.401  11.770  14.860
65770W        W37386  39.044  32.398  13.882
65771W        W37387  13.342   7.842  12.982
65772W        W37388   7.252  36.965   3.738
65773W        W37389  42.034  13.135   3.045
65774W        W37390  33.591  38.385  14.192
65775W        W37391  42.067  16.853  13.388
65776W        W37392  42.035  24.658   2.531
65777W        W37393  35.010  28.168  13.346
65778W        W37394  32.989  24.594  14.820
65779W        W37395  24.399  19.470   1.643
65780W        W37396  13.098  26.381   0.820
65781W        W37397  36.094  18.174   0.440
65782W        W37398  18.452  12.403   2.287
65783W        W37399  38.373  32.097  10.591
65784W        W37400   0.379  21.445  14.055
65785W        W37401  39.165  22.723  12.651
65786W        W37402  21.934   4.906  12.868
65787W        W37403  16.331  20.134   0.032
65788W        W37404   3.295  29.305  10.062
65789W        W37405  33.803  27.158  14.856
65790W        W37406  34.422  39.352   4.481
65791W        W37407  41.005  14.001  13.795
65792W        W37408  32.538  24.845  14.877
65793W        W37409  35.124  34.901  11.524
65794W        W37410  17.557  28.923   2.781
65795W        W37411  43.402  21.606  12.929
65796W        W37412   0.468  26.656   1.798
65797W        W37413  37.630  40.241  11.210
65798W        W37414  39.283  43.950  13.788
65799W        W37415  23.178  11.786   4.915
65800W        W37416  20.672  37.499  14.220
65801W        W37417   2.818  20.177   0.194
65802W        W37418  34.042  15.045  11.258
65803W        W37419  26.246  42.213  12.751
65804W        W37420   4.256  37.177  12.965
65805W        W37421  43.577  31.462  11.362
65806W        W37422  37.086  14.726  10.757
65807W        W37423  25.594   2.595  11.986
65808W        W37424  43.221  18.618  11.504
65809W        W37425  29.510  13.728   3.076
65810W        W37426  26.394   2.309  10.594
65811W        W37427  19.239  15.525  12.561
65812W        W37428  39.350  36.708  12.439
65813W        W37429  40.292  43.830   3.393
65814W        W37430   7.103  16.277  13.878
65815W        W37431  33.401  40.111  14.467
65816W        W37432   5.607   6.862   3.091
65817W        W37433   2.838  14.730  10.665
65818W        W37434  29.038   0.286  11.583
65819W        W37435  10.510  28.101   0.241
65820W        W37436  19.769  40.769  11.155
65821W        W37437  20.274   8.724  13.481
65822W        W37438  37.989  40.348   0.903
65823W        W37439  14.511   9.700  13.948
65824W        W37440  10.069  26.637   2.121
65825W        W37441  13.439  30.149   4.874
65826W        W37442   9.571  13.187  11.228
65827W        W37443  32.453  33.659   1.001
65828W        W37444  14.533  18.177  11.891
65829W        W37445  14.117  43.056   4.290
65830W        W37446   7.916  22.941   2.769
65831W        W37447  37.409  29.394  12.090
65832W        W37448  36.520  39.794  13.982
65833W        W37449  31.066  39.863  13.338
65834W        W37450  26.069   4.751   1.348
65835W        W37451  33.951  38.292  14.875
65836W        W37452  29.042  34.456   2.743
65837W        W37453   8.347  33.065  11.869
65838W        W37454  29.970  41.766  13.331
65839W        W37455  36.373  22.169   2.651
65840W        W37456   8.255  44.999  13.751
65841W        W37457  26.133  20.301  13.257
65842W        W37458   1.243  38.407  10.687
65843W        W37459  16.147  32.587   0.418
65844W        W37460  35.901  30.555   3.513
65845W        W37461  17.829   0.468  11.078
65846W        W37462  29.219   3.363   3.963
65847W        W37463  33.402  44.876   2.172
65848W        W37464  16.721  36.836  11.392
65849W        W37465  42.743  17.328   0.878
65850W        W37466  12.411  42.603  14.406
65851W        W37467  43.379  34.448   4.092
65852W        W37468  17.269  21.606  10.073
65853W        W37469  44.155  41.246  14.056
65854W        W37470  21.281  40.464   2.254
65855W        W37471  22.122  20.191   4.296
65856W        W37472  10.796  31.121   4.099
65857W        W37473  32.135  19.048   2.344
65858W        W37474  15.096   9.065  13.521
65859W        W37475   0.692  40.158  12.524
65860W        W37476  34.945  14.580   1.773
65861W        W37477  40.293   6.227  11.550
65862W        W37478  29.111  27.539   2.885
65863W        W37479  30.660  15.072  14.408
65864W        W37480  27.970  42.452   2.261
65865W        W37481  41.707   6.393   0.906
65866W        W37482  27.607  42.969  11.234
65867W        W37483   1.457  10.658  13.478
65868W        W37484  41.388  17.460  12.756
65869W        W37485  30.381  28.971  12.438
65870W        W37486  24.668  18.622  14.560
65871W        W37487   5.759  28.449  14.547
65872W        W37488  25.677  21.676  12.214
65873W        W37489  10.068  12.740  14.358
65874W        W37490  27.709  40.541  11.419
65875W        W37491  24.171  15.592   3.668
65876W        W37492  37.574  26.194   2.565
65877W        W37493  43.565  38.820   2.179
65878W        W37494  19.317  17.722   2.902
65879W        W37495  15.988  26.894  12.448
65880W        W37496  21.424  34.570  13.210
65881W        W37497  44.744  16.766   4.576
65882W        W37498  17.735   9.632  14.989
65883W        W37499  32.603  44.753   3.366
65884W        W37500  13.107  34.486  10.434
65885W        W37501  39.485   3.040   2.424
65886W        W37502   5.324  24.981   0.676
65887W        W37503  21.798  17.372  11.209
65888W        W37504  40.740  12.858   1.280
65889W        W37505  44.362  26.765   2.545
65890W        W37506  15.688  34.378  12.878
65891W        W37507  30.064  21.580   0.262
65892W        W37508  36.657  26.625  11.882
65893W        W37509  13.073  15.766   1.021
65894W        W37510  32.941  37.044  11.604
65895W        W37511  17.246   5.909   4.810
65896W        W37512  25.815  27.467  12.700
65897W        W37513  44.662  42.470   3.665
65898W        W37514   6.770  12.347  10.687
65899W        W37515   4.287  22.070  14.541
65900W        W37516  11.731  20.662  12.042
65901W        W37517  24.933  36.618  10.751
65902W        W37518   0.062  21.547   2.259
65903W        W37519  15.177  38.423   4.774
65904W        W37520  41.375  32.640   4.590
65905W        W37521   8.869  37.875   0.349
65906W        W37522  12.823  38.689  13.974
65907W        W37523  40.409  25.193   1.665
65908W        W37524  18.135   2.445   4.697
65909W        W37525  41.526   2.338   0.900
65910W        W37526   7.480  25.145   2.867
65911W        W37527  19.874   9.161  13.854
65912W        W37528  17.554  39.894  14.350
65913W        W37529  11.388  41.778   0.299
65914W        W37530  25.708  43.013  10.187
65915W        W37531   8.879  27.003   1.708
65916W        W37532  33.509   1.497   3.206
65917W        W37533  35.077  10.229  14.383
65918W        W37534  32.592  19.739   3.056
65919W        W37535   6.390  35.634   0.274
65920W        W37536  18.567  26.500   3.852
65921W        W37537  29.650  25.733  13.521
65922W        W37538  43.329  11.588  14.309
65923W        W37539  10.296  40.453   2.701
65924W        W37540   1.496  42.880  10.982
65925W        W37541  11.977  44.779  10.620
65926W        W37542  38.053  42.866   0.165
65927W        W37543  39.382  24.215  14.763
65928W        W37544   8.817  32.050  11.982
65929W        W37545  22.714   8.752   0.217
65930W        W37546  29.053  25.591  14.338
65931W        W37547  16.160  25.631   4.475
65932W        W37548  18.738   8.356  13.792
65933W        W37549  27.716   8.240   0.782
65934W        W37550  35.025  24.880   1.468
65935W        W37551  28.630  13.833   4.549
65936W        W37552   7.148  20.625   4.165
65937W        W37553  33.982  44.493  11.572
65938W        W37554   8.687  21.602  11.591
65939W        W37555  24.635  19.229  12.491
65940W        W37556  42.041  33.409   0.271
65941W        W37557   4.067  19.082   2.079
65942W        W37558  14.110  20.601  14.231
65943W        W37559  30.643  24.328  14.177
65944W        W37560  37.914  25.013   4.316
65945W        W37561   1.704  34.614   1.345
65946W        W37562  18.760   5.633  13.008
65947W        W37563  10.558  31.159  10.567
65948W        W37564   2.665   9.002   5.040
65949W        W37565  23.993  32.690  14.885
65950W        W37566   0.724  31.007  11.386
65951W        W37567  15.223  38.823   3.206
65952W        W37568  21.984   7.834  11.150
65953W        W37569  17.814  40.457  14.432
65954W        W37570   6.314   0.680   2.260
65955W        W37571   6.319  44.734   3.297
65956W        W37572  42.567  34.763  12.892
65957W        W37573  14.593  19.283   1.191
65958W        W37574   4.263  10.270   1.586
65959W        W37575   0.074   2.857  11.479
65960W        W37576   1.413  22.249  14.095
65961W        W37577  39.759  16.457   0.016
65962W        W37578   0.180  30.482  12.348
65963W        W37579  30.233  13.874  11.531
65964W        W37580   7.100  20.067  11.493
65965W        W37581  44.245  26.177  10.514
65966W        W37582  22.917  12.605   0.065
65967W        W37583  42.516  43.365   3.130
65968W        W37584  28.675  30.616   3.323
65969W        W37585   8.300  23.123  10.482
65970W        W37586  20.518  12.845   0.095
65971W        W37587  27.985   2.343   2.386
65972W        W37588  17.107   3.879   3.713
65973W        W37589  28.410   7.843  14.409
65974W        W37590   2.297   2.759  11.217
65975W        W37591   9.152  34.629   1.426
65976W        W37592  10.358   6.328   3.634
65977W        W37593  40.346   4.411  13.740
65978W        W37594  12.109  22.320  13.427
65979W        W37595  36.555  18.886  12.463
65980W        W37596  19.758  15.883   4.206
65981W        W37597  42.906  27.480   4.579
65982W        W37598  13.689   2.225   4.918
65983W        W37599  10.095  13.647   4.162
65984W        W37600  17.254   2.681   2.790
65985W        W37601  22.556  32.690   3.814
65986W        W37602  44.108  39.077  11.848
65987W        W37603  17.861  44.339   0.620
65988W        W37604  27.567  18.291  13.804
65989W        W37605  10.186  38.972  13.510
65990W        W37606  15.389  23.671  14.789
65991W        W37607  24.890  25.103  14.376
65992W        W37608  26.455   8.254   4.650
65993W        W37609  31.190  27.264   1.467
65994W        W37610  41.299  37.647  10.607
65995W        W37611  16.500  31.471  14.940
65996W        W37612  34.978  35.417  10.628
65997W        W37613  27.067   0.092  11.188
65998W        W37614  24.964  39.799   2.715
65999W        W37615  30.434  40.087  11.174
66000W        W37616  22.776  20.262   0.659
66001W        W37617  44.308   0.845   1.401
66002W        W37618   7.816  18.717  14.975
66003W        W37619  22.711  12.323  10.538
66004W        W37620  34.643  13.727   1.423
66005W        W37621  28.220  19.557  11.763
66006W        W37622  42.817  23.551  14.260
66007W        W37623   3.721  28.998  11.985
66008W        W37624  18.062  34.513  11.731
66009W        W37625  31.340   6.734  13.349
66010W        W37626  28.069  44.125   1.458
66011W        W37627  43.082  29.759  11.099
66012W        W37628  36.515  40.301   4.212
66013W        W37629  13.808  26.646  13.579
66014W        W37630  22.086   9.330   0.596
66015W        W37631  10.162  12.825  12.418
66016W        W37632  43.307  25.029   0.386
66017W        W37633   8.053  36.950  12.943
66018W        W37634  21.740  12.884   4.090
66019W        W37635  13.871  10.190   1.706
66020W        W37636   7.240   7.323  13.939
66021W        W37637  27.117  17.289  13.561
66022W        W37638  42.020  42.809   1.213
66023W        W37639  37.980  32.500   0.959
66024W        W37640   8.904  29.817   2.705
66025W        W37641  17.160  36.441   0.497
66026W        W37642  19.075  26.285  11.539
66027W        W37643  31.737  43.667  12.472
66028W        W37644  43.465  31.459   4.299
66029W        W37645  40.120  18.608  11.716
66030W        W37646  43.367  37.956  14.108
66031W        W37647  24.000  25.733   1.638
66032W        W37648  29.132  19.573   0.052
66033W        W37649  14.030  26.674   3.768
66034W        W37650  39.522  28.857   0.362
66035W        W37651   7.712  16.585   4.644
66036W        W37652  37.617  22.544  12.987
66037W        W37653  19.563  29.626   4.547
66038W        W37654  27.919   2.934   1.182
66039W        W37655  41.289   7.819   4.716
66040W        W37656   0.001  44.847   2.313
66041W        W37657  18.855   3.162  13.879
66042W        W37658  18.823  34.374  13.954
66043W        W37659  42.587   3.990  11.626
66044W        W37660  27.101  23.755   4.622
66045W        W37661  15.580  38.566   1.412
66046W        W37662  23.064  14.032  10.482
66047W        W37663  12.516  43.819  14.853
66048W        W37664  29.124   4.669  13.574
66049W        W37665   7.626  31.644  12.544
66050W        W37666  12.794   4.181  14.432
66051W        W37667   1.941  12.842  13.750
66052W        W37668  20.345  10.658   4.594
66053W        W37669  10.411  27.468   4.883
66054W        W37670  25.544  32.166   1.779
66055W        W37671  44.977   3.687  13.510
66056W        W37672  31.020  35.259  12.420
66057W        W37673  13.410  43.885   2.550
66058W        W37674  29.505   8.104  14.863
66059W        W37675  31.874  40.491   1.367
66060W        W37676  20.472   6.523   2.573
66061W        W37677  38.954  20.421  11.073
66062W        W37678   5.221  18.140   2.295
66063W        W37679  42.268  31.588   0.319
66064W        W37680  31.217  27.484   5.094
66065W        W37681  29.709  24.918  13.002
66066W        W37682  40.395  15.784  11.124
66067W        W37683   8.749  29.105  10.614
66068W        W37684  21.343   3.660  13.019
66069W        W37685   2.089   2.647  14.928
66070W        W37686  37.496  40.333  13.219
66071W        W37687  22.421  27.535   3.218
66072W        W37688  15.085  32.262  10.120
66073W        W37689  13.794  19.507  10.733
66074W        W37690   4.884  18.488   4.696
66075W        W37691  32.008  18.937  14.784
66076W        W37692   5.352  38.013   1.885
66077W        W37693  18.846  26.614   4.270
66078W        W37694   6.116   6.965   3.103
66079W        W37695  41.742  25.464  11.604
66080W        W37696  15.163   6.453   2.727
66081W        W37697   2.252  37.402   4.395
66082W        W37698  14.343   5.186  11.082
66083W        W37699  43.446  26.520  10.074
66084W        W37700  20.811   7.616  11.653
66085W        W37701   7.694  12.671   4.555
66086W        W37702  26.632   2.234  12.647
66087W        W37703   1.780  11.065   2.615
66088W        W37704  33.364   3.550   4.924
66089W        W37705   4.966  35.454   2.333
66090W        W37706  30.547   9.041  11.153
66091W        W37707  13.614  22.285  13.942
66092W        W37708  23.123  19.079  10.377
66093W        W37709   8.893  32.951   0.825
66094W        W37710  24.874  36.157  10.530
66095W        W37711  42.761  41.464   2.230
66096W        W37712   6.355  19.611  10.228
66097W        W37713  32.451  20.229   4.308
66098W        W37714  39.849  36.638   4.536
66099W        W37715  13.073  39.853  10.668
66100W        W37716  32.551  24.327  14.966
66101W        W37717  30.559  18.348   4.448
66102W        W37718   8.305  18.275   3.149
66103W        W37719  19.770   5.961  14.535
66104W        W37720  43.455  37.905   1.435
66105W        W37721   4.895  12.116  14.893
66106W        W37722  31.235  15.198  13.437
66107W        W37723   6.342  33.461  14.401
66108W        W37724  18.273  16.184  10.592
66109W        W37725  13.324   5.233  14.834
66110W        W37726  29.190  10.604  11.265
66111W        W37727  15.526  39.866   1.838
66112W        W37728  10.687  25.442   4.697
66113W        W37729  24.156  33.595   1.376
66114W        W37730  29.222  27.872   3.856
66115W        W37731  28.562  17.396  12.112
66116W        W37732  11.218  31.472  13.102
66117W        W37733  12.561  23.487  14.924
66118W        W37734  35.597   2.042  10.782
66119W        W37735   1.729  12.016   3.259
66120W        W37736   6.376   2.910  12.537
66121W        W37737  33.495  20.114  11.946
66122W        W37738   2.762  10.322   4.883
66123W        W37739  37.157   5.069  13.928
66124W        W37740   2.896   8.325   3.432
66125W        W37741  28.826  28.187   3.671
66126W        W37742  34.783  34.205  12.895
66127W        W37743   9.396   8.899  12.446
66128W        W37744  28.622  17.050  11.496
66129W        W37745  20.253  30.424  10.778
66130W        W37746   7.099   2.205  12.285
66131W        W37747   0.502  34.841   2.945
66132W        W37748  13.469  11.230   3.120
66133W        W37749  28.723  39.877  13.900
66134W        W37750  11.991  39.294  14.987
66135W        W37751  33.437  10.359   4.535
66136W        W37752  21.749  17.311   3.351
66137W        W37753  23.008  33.989  12.354
66138W        W37754  26.099  17.228   3.215
66139W        W37755  13.063  23.977  14.367
66140W        W37756  30.017  27.796  12.355
66141W        W37757   1.279  13.839  14.337
66142W        W37758   1.343  29.018  11.863
66143W        W37759  28.175  38.378  10.407
66144W        W37760  25.868  34.557  14.010
66145W        W37761   3.898   9.218  12.891
66146W        W37762  25.047  20.713  10.497
66147W        W37763  27.113  20.280  11.221
66148W        W37764  24.997  39.114   1.688
66149W        W37765  10.305  41.756  14.375
66150W        W37766  27.706   0.730  12.644
66151W        W37767  19.793  17.370   4.105
66152W        W37768   4.254  39.286  14.963
66153W        W37769  37.033  14.270   0.746
66154W        W37770  16.394  11.320   2.921
66155W        W37771  43.934  20.237   4.693
66156W        W37772   1.000  17.063   3.240
66157W        W37773  12.189  33.456  10.889
66158W        W37774  25.977   4.884   4.588
66159W        W37775  29.742  31.393  11.016
66160W        W37776  25.587  33.008   1.400
66161W        W37777  24.265  27.385  12.416
66162W        W37778  44.327   1.290  14.929
66163W        W37779  14.217  27.204   4.650
66164W        W37780  43.041  27.970  10.982
66165W        W37781  31.979  38.294  12.191
66166W        W37782  37.435  33.050   0.342
66167W        W37783  42.215  21.762  14.297
66168W        W37784  16.154  33.354   1.673
66169W        W37785  10.117   7.641   0.509
66170W        W37786  11.985  25.610  12.000
66171W        W37787  18.141  10.399  12.100
66172W        W37788  14.933  15.182  11.531
66173W        W37789  11.512   8.172   4.189
66174W        W37790  15.048   4.850   2.245
66175W        W37791  17.697   3.470   2.662
66176W        W37792   5.418  15.835   4.738
66177W        W37793  31.147  15.793  14.741
66178W        W37794  13.816  38.328   1.307
66179W        W37795  23.171   0.855   1.158
66180W        W37796  18.326   1.827  10.734
66181W        W37797  37.765  15.211  10.585
66182W        W37798  17.309  22.602  10.641
66183W        W37799  29.337  12.822  14.217
66184W        W37800  42.799   4.285   2.550
66185W        W37801  38.882  30.571   5.343
66186W        W37802  11.805  16.746  11.114
66187W        W37803  41.132  36.685   2.918
66188W        W37804  27.048   5.405  14.334
66189W        W37805  34.658  14.727   0.815
66190W        W37806  20.959  24.462   0.156
66191W        W37807  43.834  30.636  12.991
66192W        W37808  39.441  38.528   4.781
66193W        W37809  11.381  36.336  12.463
66194W        W37810  10.110  10.360   0.481
66195W        W37811   8.555  21.208   4.163
66196W        W37812   5.946  20.587   0.013
66197W        W37813  20.727  30.942   4.147
66198W        W37814  44.706  17.607   3.360
66199W        W37815  23.169  21.420   2.424
66200W        W37816  23.397  37.009  12.525
66201W        W37817  23.107  37.560  10.202
66202W        W37818  41.856  23.967   1.199
66203W        W37819  30.328   2.488   0.536
66204W        W37820  17.130  24.102  13.826
66205W        W37821  40.854  40.592  10.728
66206W        W37822  20.517   3.644   1.306
66207W        W37823  34.647  31.961   1.447
66208W        W37824  12.869  28.091   2.189
66209W        W37825  16.641  20.937   3.348
66210W        W37826  14.634  44.933   0.407
66211W        W37827  10.321  14.257   5.147
66212W        W37828   1.479  33.546  13.001
66213W        W37829   0.309  31.457   1.219
66214W        W37830   9.112  33.950   0.766
66215W        W37831  25.660  11.712   3.558
66216W        W37832   9.358  15.090  14.578
66217W        W37833   4.666   7.274  13.034
66218W        W37834  38.904  36.552   4.424
66219W        W37835  15.094   1.863   1.206
66220W        W37836  34.642   3.332   0.405
66221W        W37837  29.914   0.348  12.583
66222W        W37838   9.074  20.819  12.583
66223W        W37839  18.537   0.814   0.914
66224W        W37840  14.229  38.973   2.347
66225W        W37841  18.702  11.382  12.548
66226W        W37842  25.568  36.426   4.402
66227W        W37843   5.173  12.912  12.033
66228W        W37844  11.224   3.641  10.754
66229W        W37845   5.993  15.035  12.982
66230W        W37846   5.571  21.792  11.811
66231W        W37847  41.829   7.338  13.631
66232W        W37848  37.961   3.295  14.787
66233W        W37849   2.232  44.058   0.974
66234W        W37850  10.296   5.665   2.363
66235W        W37851   9.028  10.310   1.276
66236W        W37852  26.510  43.782  13.333
66237W        W37853   0.408   7.072   3.163
66238W        W37854  35.875  37.946   3.968
66239W        W37855  23.179  23.226  10.707
66240W        W37856   4.775  14.777   0.976
66241W        W37857   1.884  37.049   0.611
66242W        W37858  28.703  43.365   2.919
66243W        W37859   4.237  40.586  14.429
66244W        W37860   1.598  36.946  11.588
66245W        W37861  43.110  11.740  11.489
66246W        W37862   1.339  10.357   3.953
66247W        W37863   2.963  28.616  11.631
66248W        W37864   0.562  20.380   4.039
66249W        W37865   4.302   0.497   4.664
66250W        W37866  10.151  22.431  14.748
66251W        W37867  31.181  24.712  11.992
66252W        W37868   1.598   6.840  11.702
66253W        W37869  44.129  12.377  14.776
66254W        W37870  36.425  18.675   3.819
66255W        W37871  39.996   5.765  11.545
66256W        W37872  16.634  32.551  12.922
66257W        W37873  28.838  11.621   3.640
66258W        W37874  11.779  17.062  13.983
66259W        W37875  20.103  14.109   4.224
66260W        W37876  29.855   1.535   0.290
66261W        W37877   0.155  21.845  13.778
66262W        W37878  38.739  12.290  11.897
66263W        W37879   1.919  26.953  10.360
66264W        W37880  22.859   4.098  12.033
66265W        W37881  16.309   9.989  11.788
66266W        W37882   9.071  27.467  11.129
66267W        W37883   1.140  33.606  11.551
66268W        W37884  11.539  21.685   2.790
66269W        W37885  43.451  35.510  10.200
66270W        W37886  16.074  25.443  11.175
66271W        W37887   6.646  44.841  12.507
66272W        W37888  18.040  28.033   1.690
66273W        W37889  34.623   1.808   3.648
66274W        W37890  10.677  18.805  14.293
66275W        W37891  25.799  24.863  14.022
66276W        W37892  10.568  29.955  11.024
66277W        W37893  13.319  14.598  13.948
66278W        W37894  38.633  26.913   0.919
66279W        W37895  19.162  17.328   3.423
66280W        W37896  13.371  40.930  11.222
66281W        W37897  16.677   9.612   2.931
66282W        W37898   9.711  33.456   4.477
66283W        W37899   4.123  31.403   3.761
66284W        W37900  28.157   7.366   2.883
66285W        W37901   1.021   1.762  14.976
66286W        W37902  38.556  26.401   1.768
66287W        W37903  32.569  20.678  13.682
66288W        W37904  40.417  30.829   2.303
66289W        W37905  18.107  28.756  11.594
66290W        W37906  11.781  24.202   3.495
66291W        W37907   8.209  14.073  11.612
66292W        W37908  27.497  41.252   4.139
66293W        W37909  31.086   5.232   3.745
66294W        W37910  35.935  17.857  13.893
66295W        W37911  28.501  23.534   3.527
66296W        W37912  15.637   7.997   1.902
66297W        W37913   6.919   7.883   3.890
66298W        W37914  37.535  44.610  13.298
66299W        W37915  41.525  44.911   3.229
66300W        W37916   2.308  33.419  14.326
66301W        W37917   4.786  40.814  12.481
66302W        W37918   5.833  19.159  14.358
66303W        W37919  39.266  14.901  14.275
66304W        W37920   9.193  22.621   2.260
66305W        W37921   0.287  12.830   2.162
66306W        W37922  28.383  21.176  12.433
66307W        W37923  11.677  35.521  14.917
66308W        W37924  11.790  25.231  12.543
66309W        W37925   9.184  23.162  14.396
66310W        W37926  22.047  10.148  11.915
66311W        W37927  13.763  17.115  12.638
66312W        W37928  10.609  27.078  13.884
66313W        W37929  19.663  22.994   0.417
66314W        W37930  21.176  33.678  14.036
66315W        W37931  20.645  29.675   2.807
66316W        W37932   6.655  26.156   1.534
66317W        W37933  17.903  17.724   3.339
66318W        W37934  16.206  29.657  13.869
66319W        W37935  11.883  24.555  11.911
66320W        W37936   2.954  13.525  11.567
66321W        W37937   9.331   6.612  10.238
66322W        W37938   7.751   0.808   3.006
66323W        W37939  21.208  32.850   4.342
66324W        W37940  16.601  25.072  14.725
66325W        W37941   5.995  35.366   3.659
66326W        W37942   9.716  26.496  11.139
66327W        W37943  11.190  23.035  12.549
66328W        W37944   7.418  32.420   2.488
66329W        W37945   0.985  10.406  13.458
66330W        W37946  17.594  16.373   3.712
66331W        W37947  25.946   3.544   2.447
66332W        W37948   7.708  19.790   5.079
66333W        W37949  10.793  20.270   4.391
66334W        W37950  33.405  28.680   4.540
66335W        W37951  35.385   6.206   3.349
66336W        W37952  32.844   8.314   1.848
66337W        W37953  31.355  14.711  13.467
66338W        W37954  39.916  24.080   4.673
66339W        W37955   9.590   1.403   1.345
66340W        W37956  19.583  10.668  11.916
66341W        W37957  14.839  18.773  10.679
66342W        W37958   7.396  13.653  14.204
66343W        W37959  34.995   0.689  12.051
66344W        W37960  34.620  40.672   2.335
66345W        W37961  20.109  42.396  13.999
66346W        W37962  32.470  14.118   2.652
66347W        W37963   4.486  28.994   0.002
66348W        W37964  25.865  15.799   2.480
66349W        W37965  39.045  20.066   2.329
66350W        W37966  12.688  15.665   4.703
66351W        W37967  42.526   0.372   2.825
66352W        W37968  31.220  38.974  11.518
66353W        W37969  39.460   1.282  14.964
66354W        W37970  31.390  21.333   2.654
66355W        W37971   0.762   8.780  10.753
66356W        W37972  43.870  17.063  14.179
66357W        W37973   3.051  16.703  12.043
66358W        W37974  41.393  37.459  12.061
66359W        W37975  11.402   1.492   2.624
66360W        W37976   3.318  26.188   0.466
66361W        W37977  21.195   9.677   1.532
66362W        W37978  30.601  30.643  10.544
66363W        W37979  38.385  31.293   1.757
66364W        W37980  31.376  21.737   2.317
66365W        W37981  32.687  39.366   0.329
66366W        W37982  44.111  26.762  11.120
66367W        W37983  18.086  27.730  12.514
66368W        W37984   4.042  30.042  13.518
66369W        W37985  15.724  41.527  11.899
66370W        W37986  43.869  38.909  14.232
66371W        W37987  24.170  30.194  11.557
66372W        W37988  23.308   7.866   2.812
66373W        W37989   3.278   5.622   3.107
66374W        W37990  35.152  33.485  14.476
66375W        W37991   6.906  23.943  11.157
66376W        W37992  30.488  10.732   0.045
66377W        W37993  34.937  34.007   2.271
66378W        W37994  14.717  16.285  10.552
66379W        W37995  20.618   7.482   2.280
66380W        W37996   7.704   1.971  13.336
66381W        W37997   4.009  22.487  12.962
66382W        W37998  29.715  26.154   1.119
66383W        W37999   2.482  29.116  13.867
66384W        W38000   3.839  24.754   9.960
66385W        W38001  19.750  35.947  14.774
66386W        W38002  25.099  29.071   3.601
66387W        W38003  22.451  32.834  10.101
66388W        W38004  27.191  19.192  12.590
66389W        W38005  44.689  44.302  12.496
66390W        W38006  29.470  44.510   3.210
66391W        W38007  13.737  37.931   0.468
66392W        W38008  14.839  24.052   2.844
66393W        W38009   1.732  19.782  11.064
66394W        W38010  16.637  30.083   4.085
66395W        W38011  44.452  17.228  14.849
66396W        W38012  13.342   2.498   1.774
66397W        W38013  43.704   5.655   3.358
66398W        W38014  19.216  34.872   0.828
66399W        W38015  29.934  36.956   3.850
66400W        W38016  27.045   1.804  13.787
66401W        W38017  38.879  37.554   4.535
66402W        W38018  42.037   2.312   0.979
66403W        W38019  12.270  17.319   1.520
66404W        W38020  34.242  21.823  12.017
66405W        W38021   8.321  26.733   0.697
66406W        W38022   3.983  16.558   0.792
66407W        W38023  30.864  13.719   0.812
66408W        W38024   5.029   4.746   2.204
66409W        W38025  21.285  10.688  10.991
66410W        W38026  43.950  12.390   0.768
66411W        W38027  25.096  12.822   2.649
66412W        W38028  42.600   9.855   3.744
66413W        W38029  21.484  26.970   4.761
66414W        W38030   4.730  27.000  12.649
66415W        W38031  37.153   0.373  10.550
66416W        W38032   6.476  25.614  14.318
66417W        W38033  13.125  44.106   1.658
66418W        W38034  36.541  40.997   2.788
66419W        W38035  29.031  27.724   3.385
66420W        W38036  24.024  42.806   0.245
66421W        W38037  37.525  18.751   4.606
66422W        W38038  35.914  39.802   2.881
66423W        W38039   0.966  35.523   0.852
66424W        W38040  12.746  28.637  13.170
66425W        W38041  44.644  11.830   2.782
66426W        W38042  17.063   5.208   4.346
66427W        W38043   2.904  42.754  11.021
66428W        W38044  38.766  11.168  14.733
66429W        W38045  37.105  36.890  11.104
66430W        W38046  23.422  18.087  12.144
66431W        W38047  38.624  20.047  12.036
66432W        W38048  40.258  40.864   3.380
66433W        W38049   3.486  24.661   5.290
66434W        W38050   6.948   4.318  11.604
66435W        W38051   7.725  35.629  14.223
66436W        W38052  26.134  40.867   3.971
66437W        W38053  34.774  38.382  12.785
66438W        W38054  12.752  37.542  13.453
66439W        W38055   8.878   0.238   2.650
66440W        W38056  22.378   4.341   0.869
66441W        W38057  28.390  26.005   3.166
66442W        W38058  30.597  29.932  10.005
66443W        W38059   1.500  26.528  13.605
66444W        W38060   2.046   7.155   0.692
66445W        W38061  25.410  13.110   1.866
66446W        W38062  36.732   9.965   1.699
66447W        W38063  13.872  14.181  10.400
66448W        W38064  31.385  10.357   4.736
66449W        W38065   9.173   3.291   1.229
66450W        W38066  16.662  15.778  14.561
66451W        W38067  39.048  19.944  10.916
66452W        W38068  33.456   6.750   0.012
66453W        W38069  37.638  25.694   1.257
66454W        W38070  38.346  39.212   3.080
66455W        W38071  27.052  28.233  13.543
66456W        W38072  12.696  39.862   4.393
66457W        W38073  18.702  12.658  11.994
66458W        W38074  16.251  42.003   2.638
66459W        W38075  11.685  39.032   4.494
66460W        W38076  22.458  27.599   4.087
66461W        W38077  23.662  22.704   0.743
66462W        W38078   9.859   5.710   4.188
66463W        W38079  28.691  31.998  12.467
66464W        W38080  18.826  42.408  14.957
66465W        W38081  41.450  20.585   1.219
66466W        W38082  25.240  18.344   1.399
66467W        W38083  32.446  25.080  14.376
66468W        W38084  15.326  26.568   0.266
66469W        W38085   6.757  13.668  11.919
66470W        W38086  19.528  10.583  14.336
66471W        W38087  15.726  18.554  11.151
66472W        W38088  15.913   1.922   1.798
66473W        W38089  36.955   1.432   0.218
66474W        W38090   3.264  12.713   4.464
66475W        W38091  23.784  34.875  11.069
66476W        W38092  17.017   5.401   3.380
66477W        W38093  41.813  10.592  13.142
66478W        W38094   6.767  31.294  13.849
66479W        W38095   7.708   5.998  12.143
66480W        W38096  43.794  14.228   1.461
66481W        W38097  16.217  10.754  10.681
66482W        W38098  19.414   0.675   4.060
66483W        W38099  36.085  44.760   3.174
66484W        W38100  39.561  40.841   4.579
66485W        W38101  11.415  31.542  11.575
66486W        W38102  10.773  21.264   4.843
66487W        W38103  28.393  29.220   0.299
66488W        W38104   3.300  29.337   2.296
66489W        W38105  29.931   9.223   1.639
66490W        W38106   4.868  16.197  12.599
66491W        W38107  19.636   9.141   4.646
66492W        W38108   9.661  25.453   1.684
66493W        W38109  17.660  35.589   1.491
66494W        W38110  20.051  36.254   0.080
66495W        W38111   4.262   4.814  12.501
66496W        W38112  14.512   5.771  11.556
66497W        W38113  25.663  32.127   3.850
66498W        W38114  44.227   7.813   0.397
66499W        W38115  40.785  12.568  12.442
66500W        W38116  34.118  18.272   3.666
66501W        W38117  23.789  41.270   1.470
66502W        W38118  25.692  14.190   0.689
66503W        W38119  30.818   6.158  14.449
66504W        W38120   0.339  19.058   4.470
66505W        W38121  10.252  31.024  14.729
66506W        W38122   6.703  14.546   1.395
66507W        W38123   8.267  44.496  13.619
66508W        W38124  38.357  10.731   0.871
66509W        W38125  24.229   3.304  12.509
66510W        W38126  12.014   2.769  13.278
66511W        W38127   2.913  36.851   1.906
66512W        W38128  37.414   5.537   1.804
66513W        W38129  43.700  21.602  10.602
66514W        W38130   8.209  18.717   0.781
66515W        W38131   0.754  40.655  14.296
66516W        W38132  10.101  28.088   1.232
66517W        W38133  22.158  34.240  14.067
66518W        W38134  18.603   3.481  11.001
66519W        W38135   2.055  21.841   1.835
66520W        W38136  11.216  26.884  12.010
66521W        W38137  22.001  44.321  11.118
66522W        W38138  28.750   8.354   0.844
66523W        W38139  39.899  26.025  10.465
66524W        W38140  21.023  27.728  11.972
66525W        W38141  26.766  33.009  12.379
66526W        W38142  40.073  18.112   1.389
66527W        W38143  12.870  38.361   0.867
66528W        W38144  20.623   5.718  13.063
66529W        W38145  19.656   4.607  12.988
66530W        W38146  37.171  17.252   0.449
66531W        W38147  40.843  26.785  13.285
66532W        W38148  40.734   1.019  12.360
66533W        W38149  35.935   5.845   2.648
66534W        W38150  18.491   3.920   1.044
66535W        W38151  40.873  19.568   1.071
66536W        W38152  26.141  13.243   1.308
66537W        W38153  31.266  11.206   4.677
66538W        W38154  18.038  28.116   2.783
66539W        W38155  24.891  13.292  11.138
66540W        W38156  25.597  13.718  14.364
66541W        W38157   6.977  37.810   1.779
66542W        W38158  18.217   9.503  11.427
66543W        W38159  22.597  24.021  14.516
66544W        W38160  24.928   3.269   0.690
66545W        W38161   0.952  13.618  12.913
66546W        W38162  39.512  20.948  13.866
66547W        W38163  14.759   5.398   2.987
66548W        W38164   7.730  27.208  12.381
66549W        W38165  33.668  42.537   1.236
66550W        W38166  15.798  40.035  11.046
66551W        W38167  20.958  40.294  11.574
66552W        W38168  19.060   1.854  13.361
66553W        W38169  38.309   0.632  14.829
66554W        W38170  17.770  13.766   3.864
66555W        W38171   4.517  20.579  14.892
66556W        W38172  25.522   5.796  12.877
66557W        W38173  40.878   0.860   0.242
66558W        W38174  37.150  12.197   1.215
66559W        W38175   3.269  40.553  10.658
66560W        W38176  40.160  18.070  13.801
66561W        W38177   1.883   0.560   2.887
66562W        W38178  31.904  23.008   4.587
66563W        W38179  29.082  34.838   3.474
66564W        W38180  32.155  13.096  11.519
66565W        W38181   3.947  33.891  12.554
66566W        W38182  16.649   0.310  14.459
66567W        W38183  36.502  25.714  11.561
66568W        W38184  31.992  33.505   1.191
66569W        W38185  44.358  35.239   2.979
66570W        W38186  16.301  27.404   0.079
66571W        W38187  22.678  23.497   1.244
66572W        W38188   1.747   6.766  12.618
66573W        W38189  20.005  37.905  14.077
66574W        W38190  42.615   2.230   1.605
66575W        W38191  10.635  26.460   4.170
66576W        W38192  14.158   8.150   3.236
66577W        W38193   6.756  15.518  14.772
66578W        W38194  20.819  40.366  14.417
66579W        W38195  17.593  19.660   5.205
66580W        W38196  37.114  27.104   0.839
66581W        W38197  18.404  19.048  12.344
66582W        W38198   9.327  28.693   0.458
66583W        W38199  27.251  11.805  10.279
66584W        W38200  38.830  13.274  13.838
66585W        W38201   7.796  20.519   3.396
66586W        W38202  34.344   2.032   4.092
66587W        W38203  21.965  41.993   0.446
66588W        W38204  21.762  28.442   0.751
66589W        W38205  10.380  11.085  12.526
66590W        W38206  36.955  24.977   1.158
66591W        W38207  38.434  30.107   4.062
66592W        W38208  35.939  34.769   2.667
66593W        W38209  25.320   2.398   0.434
66594W        W38210  23.889  13.861  13.759
66595W        W38211  27.989  25.652  13.883
66596W        W38212  25.557  28.121   1.695
66597W        W38213  34.984  37.980  10.719
66598W        W38214  27.630  15.886   3.306
66599W        W38215  10.679   0.795  11.263
66600W        W38216  15.153  27.705  11.937
66601W        W38217   9.865  40.469  11.474
66602W        W38218  23.199  31.572   3.375
66603W        W38219  13.305  19.683  11.962
66604W        W38220  29.012  17.766  12.942
66605W        W38221  40.933  14.140   4.712
66606W        W38222   9.631  10.862   1.797
66607W        W38223  41.845  44.254  12.418
66608W        W38224   6.433  35.089   3.808
66609W        W38225  19.688  18.032  12.430
66610W        W38226  20.222   5.952  14.774
66611W        W38227  34.655   9.172   3.154
66612W        W38228   0.075  40.091  12.906
66613W        W38229  28.178  41.314   1.794
66614W        W38230   0.233  44.252   1.311
66615W        W38231   5.243   6.310   3.452
66616W        W38232  10.639  25.712   1.655
66617W        W38233  33.060   6.739   2.745
66618W        W38234   4.704  17.841   3.564
66619W        W38235   2.276  34.612  13.582
66620W        W38236   0.266  18.125  11.541
66621W        W38237  40.265  29.194   0.774
66622W        W38238  44.945  13.147  11.142
66623W        W38239   2.893  12.166  12.647
66624W        W38240  25.164  18.808   0.843
66625W        W38241  14.778  10.868  13.079
66626W        W38242  26.508   6.741  12.643
66627W        W38243  37.574  13.454   5.163
66628W        W38244  29.897  12.361   3.347
66629W        W38245  23.484  34.862  12.123
66630W        W38246  26.152  33.351  13.557
66631W        W38247  37.568   3.209   4.572
66632W        W38248   5.304  44.010   1.319
66633W        W38249  43.872  42.814   3.585
66634W        W38250  41.418  19.805   1.838
66635W        W38251  13.902  37.286   4.633
66636W        W38252  17.243  24.089   4.708
66637W        W38253  33.494   6.638  10.564
66638W        W38254   5.395  12.057  11.930
66639W        W38255  27.237  28.064   0.551
66640W        W38256  33.396  42.717  11.718
66641W        W38257   6.674  19.523  14.691
66642W        W38258   6.315  13.615   3.273
66643W        W38259  27.909  13.387  10.923
66644W        W38260  37.369  24.482  11.914
66645W        W38261   6.878  35.309   2.199
66646W        W38262  33.874   8.029  13.030
66647W        W38263   1.631  37.460   2.314
66648W        W38264  32.345  36.305  13.125
66649W        W38265  13.739  19.163   3.564
66650W        W38266  24.960   1.918  12.152
66651W        W38267   7.235  24.101   4.333
66652W        W38268  40.491  17.734   2.926
66653W        W38269  37.969  11.683  10.999
66654W        W38270  18.782  17.567   1.216
66655W        W38271   3.598  25.433   3.403
66656W        W38272  43.592  26.387   1.443
66657W        W38273  14.157   0.539  14.008
66658W        W38274  34.387  25.348   1.040
66659W        W38275  23.663  38.459   4.745
66660W        W38276   8.417  33.106  13.562
66661W        W38277  29.149  16.845   1.801
66662W        W38278  43.674   7.839  11.444
66663W        W38279   1.684  24.422   0.980
66664W        W38280  23.155  22.243  14.154
66665W        W38281  15.687   9.747   2.156
66666W        W38282   3.941  23.895   2.374
66667W        W38283  17.371  28.741  12.099
66668W        W38284  30.823  22.513  11.565
66669W        W38285  30.100  12.995   0.444
66670W        W38286  35.273  41.301  12.927
66671W        W38287  34.088   7.896   3.826
66672W        W38288   1.424   5.273   1.215
66673W        W38289   7.968  32.430   4.833
66674W        W38290  37.571   6.961   0.771
66675W        W38291  19.093   8.495   1.713
66676W        W38292  22.928  14.867  12.095
66677W        W38293  23.659  14.323   3.704
66678W        W38294   5.631  14.116   2.235
66679W        W38295   6.379  31.806   0.673
66680W        W38296  10.307  12.329   4.421
66681W        W38297  13.594  28.256   1.479
66682W        W38298  35.716  25.528  11.102
66683W        W38299  13.113  17.012  10.997
66684W        W38300  41.846   5.944  13.152
66685W        W38301  31.870  43.223  14.272
66686W        W38302   1.308  12.782   0.422
66687W        W38303  32.020  37.721   2.119
66688W        W38304  13.519  12.212  10.747
66689W        W38305  41.943   4.927   1.291
66690W        W38306  19.738  39.064   2.209
66691W        W38307  20.332  42.045  11.597
66692W        W38308   3.090  38.984   1.906
66693W        W38309  39.604  32.075  13.911
66694W        W38310   5.306  35.909   0.911
66695W        W38311   0.940   7.810  14.844
66696W        W38312  36.664  21.175  11.840
66697W        W38313  22.162   4.709   0.230
66698W        W38314   3.815   7.091  12.571
66699W        W38315  34.900  29.551   2.422
66700W        W38316  42.847   0.554  14.759
66701W        W38317  34.990  21.301  10.094
66702W        W38318   8.215  12.087  12.447
66703W        W38319  41.051  11.303  12.216
66704W        W38320  43.032   1.805  14.422
66705W        W38321  21.913  10.871   0.554
66706W        W38322  35.008  16.617   3.979
66707W        W38323   7.813   5.233   1.336
66708W        W38324   8.877  34.662  12.495
66709W        W38325  28.796  35.200  10.797
66710W        W38326  13.611   7.129   3.905
66711W        W38327  43.549  33.173  10.643
66712W        W38328  36.941  33.107   2.757
66713W        W38329   4.949  18.275   2.731
66714W        W38330  43.388   7.650  12.585
66715W        W38331  19.703   7.786  10.938
66716W        W38332  34.528  25.566   0.504
66717W        W38333  16.655   4.128   3.708
66718W        W38334   9.079  40.333   1.236
66719W        W38335  10.777  26.659  12.133
66720W        W38336   1.777  28.347  14.844
66721W        W38337  30.728   6.242   3.317
66722W        W38338  26.565  15.590  12.483
66723W        W38339  24.028  22.672  13.545
66724W        W38340   4.878  29.992   4.145
66725W        W38341  15.236   5.475  10.677
66726W        W38342  37.847   7.337   1.023
66727W        W38343  37.163  26.919  11.200
66728W        W38344  27.561  41.087  11.973
66729W        W38345  16.201  43.043   4.450
66730W        W38346  43.923  44.030  12.868
66731W        W38347  33.824   1.917   4.152
66732W        W38348  42.996  19.063   2.705
66733W        W38349  39.005  30.359  14.834
66734W        W38350  11.273  30.380  11.229
66735W        W38351  44.940  25.064   1.922
66736W        W38352  35.390   3.370  12.154
66737W        W38353  38.932  23.099   4.348
66738W        W38354  33.373  34.927  14.897
66739W        W38355   6.765  19.944   1.497
66740W        W38356   8.510  42.442  10.597
66741W        W38357  16.768  26.632   2.209
66742W        W38358  35.473  11.806  13.001
66743W        W38359  41.904  40.845   3.454
66744W        W38360  13.230  29.625  14.981
66745W        W38361   1.979  26.022   0.001
66746W        W38362   0.441   5.921  13.786
66747W        W38363  36.715  32.946   2.308
66748W        W38364  19.091  23.118  10.629
66749W        W38365  36.838  29.999  12.851
66750W        W38366   3.482  27.073   0.823
66751W        W38367  17.206  26.126  14.077
66752W        W38368  22.078  35.097  13.054
66753W        W38369   9.333  29.442  13.899
66754W        W38370  34.430  39.310  12.512
66755W        W38371  24.954  13.579   0.986
66756W        W38372   7.182  27.535  11.640
66757W        W38373  22.774  28.609  10.759
66758W        W38374   2.436  11.900  11.999
66759W        W38375  22.887  20.061   1.478
66760W        W38376  27.751  15.787  13.091
66761W        W38377  35.295   1.618  10.801
66762W        W38378  30.895   7.615   4.573
66763W        W38379  28.010  24.743  10.029
66764W        W38380   9.481   6.122   1.826
66765W        W38381   6.388  27.536  12.065
66766W        W38382  11.726   4.580   1.366
66767W        W38383  38.052   6.695   3.816
66768W        W38384   3.242  44.864  12.533
66769W        W38385  41.986  29.612  10.728
66770W        W38386  32.891  20.689  11.921
66771W        W38387   2.882  31.507   3.437
66772W        W38388  41.464  30.190   0.442
66773W        W38389  39.989  11.311  10.311
66774W        W38390   4.622  22.751   0.949
66775W        W38391  39.922   5.139  10.884
66776W        W38392  26.250  26.986   1.283
66777W        W38393  24.366  35.068  12.060
66778W        W38394   4.301  10.023   0.584
66779W        W38395  33.635  35.831  10.591
66780W        W38396   3.186  44.043  11.297
66781W        W38397  18.649   8.351  12.989
66782W        W38398   5.750  28.938   3.170
66783W        W38399  22.740   1.738   2.655
66784W        W38400  11.230   6.834   4.645
66785W        W38401  24.896  13.060   1.813
66786W        W38402  26.139  14.077  13.527
66787W        W38403  23.471   2.711  12.156
66788W        W38404  17.805   9.604  13.920
66789W        W38405  40.545  16.250  11.444
66790W        W38406  35.559  11.612  11.520
66791W        W38407  33.522  41.360  11.194
66792W        W38408  18.690  11.154   0.848
66793W        W38409   7.746  26.671   3.081
66794W        W38410  31.460  38.079   3.234
66795W        W38411  24.974   2.766  11.172
66796W        W38412  27.644   2.444  14.306
66797W        W38413   6.396  31.576   3.737
66798W        W38414   0.028  28.680   1.608
66799W        W38415  42.330  25.638  13.474
66800W        W38416   1.680   4.789  10.548
66801W        W38417   0.933  20.249  12.636
66802W        W38418   0.295  28.199  10.706
66803W        W38419  10.841  20.648  14.761
66804W        W38420  44.244   2.657  12.480
66805W        W38421   1.247   6.766  13.774
66806W        W38422   6.424  11.973  10.626
66807W        W38423  40.532  37.954  12.956
66808W        W38424  43.843  38.025   3.030
66809W        W38425  43.383  16.198  14.872
66810W        W38426  44.991  15.379  13.437
66811W        W38427  34.003  28.542  10.734
66812W        W38428  17.413   3.891  11.314
66813W        W38429  28.574  15.609   4.137
66814W        W38430  41.193  14.842  11.852
66815W        W38431  41.114   6.350  11.188
66816W        W38432  15.485  34.093   2.767
66817W        W38433  33.623   9.733  14.992
66818W        W38434  14.763   2.808   1.920
66819W        W38435  36.407  19.705   3.752
66820W        W38436  44.804  24.473  11.743
66821W        W38437  21.993  31.010   3.243
66822W        W38438   2.161  33.956   3.684
66823W        W38439  21.216   9.430  10.072
66824W        W38440   0.768  26.974  12.797
66825W        W38441  34.950  31.166   4.116
66826W        W38442  12.129  17.504  13.422
66827W        W38443   6.450  22.029   3.779
66828W        W38444  43.396  24.750   3.802
66829W        W38445  20.636  23.934   2.265
66830W        W38446  31.687  34.829  10.653
66831W        W38447  22.773  15.119   1.779
66832W        W38448  12.799  44.450   1.927
66833W        W38449  27.957   5.465   0.247
66834W        W38450  19.969   1.820  10.306
66835W        W38451  42.837  17.187   2.751
66836W        W38452  37.968  36.224  11.636
66837W        W38453  20.157  13.366   4.664
66838W        W38454   8.711   3.173  14.285
66839W        W38455  10.075  26.517  10.786
66840W        W38456  18.723   5.401  14.852
66841W        W38457  32.335  34.145  13.800
66842W        W38458  35.558   0.603  13.718
66843W        W38459  16.370   9.397   4.855
66844W        W38460  12.117   9.371  12.081
66845W        W38461  27.517  27.478  14.950
66846W        W38462  16.772  21.055  14.844
66847W        W38463  44.820  10.720  10.623
66848W        W38464  17.244   4.837  11.638
66849W        W38465  31.933  25.484   3.440
66850W        W38466  44.266  29.188   4.195
66851W        W38467  44.252  36.103  10.898
66852W        W38468  40.927  42.598  12.482
66853W        W38469  14.076  22.093   0.403
66854W        W38470   4.152  22.544  10.951
66855W        W38471  28.163  26.002   0.359
66856W        W38472   8.742  42.382   3.793
66857W        W38473  18.526  22.966   3.320
66858W        W38474  20.170  39.691  10.714
66859W        W38475  14.252  43.593   1.346
66860W        W38476  39.951   2.280   0.858
66861W        W38477   0.255  36.568   0.287
66862W        W38478  44.418  11.112  14.307
66863W        W38479  30.887  42.416  14.051
66864W        W38480   5.886  10.089   2.922
66865W        W38481  36.818  13.599  10.237
66866W        W38482  31.211  23.045   0.822
66867W        W38483  40.621  14.735   0.470
66868W        W38484  24.558  19.835  11.619
66869W        W38485  38.238  41.824   3.443
66870W        W38486  14.608  28.978  10.615
66871W        W38487  24.210  43.481   2.903
66872W        W38488  32.108   9.195  11.992
66873W        W38489  38.774  33.901  14.750
66874W        W38490  10.882  14.826   2.828
66875W        W38491  43.137   8.761   3.337
66876W        W38492  40.423   7.645  13.507
66877W        W38493   6.799  14.887  13.986
66878W        W38494   6.899   2.674   2.346
66879W        W38495  36.006  38.892  10.667
66880W        W38496  26.691  31.818  11.912
66881W        W38497  34.103  32.143   3.150
66882W        W38498  40.430  12.931  12.397
66883W        W38499   8.689   9.910  12.686
66884W        W38500  26.483  27.281   0.343
66885W        W38501  30.882  18.027   4.216
66886W        W38502  11.394  14.693   0.698
66887W        W38503  34.140  41.409  14.097
66888W        W38504  15.640   7.039  12.878
66889W        W38505   2.226  19.969   3.281
66890W        W38506  39.242  16.871  13.992
66891W        W38507  30.048  19.106   3.297
66892W        W38508   8.917  36.008   4.995
66893W        W38509  23.887  34.297   0.685
66894W        W38510  26.616  12.954  10.248
66895W        W38511  15.805   0.016   4.772
66896W        W38512  16.987  36.508  11.975
66897W        W38513  39.771  42.538  10.740
66898W        W38514  33.128  32.886  13.315
66899W        W38515  35.300  39.364  11.629
66900W        W38516  35.403  35.557   0.716
66901W        W38517  39.039  34.372  13.804
66902W        W38518  19.604  41.239  13.999
66903W        W38519  17.228  31.323  12.392
66904W        W38520  36.005   5.457   2.294
66905W        W38521  21.182   4.722  11.075
66906W        W38522  29.544  24.261   1.841
66907W        W38523   4.653  12.921   0.825
66908W        W38524  20.951  21.256  12.410
66909W        W38525  40.635   2.752  13.275
66910W        W38526  28.881  24.717   0.889
66911W        W38527   7.262  36.312   1.129
66912W        W38528  31.218   0.456   3.139
66913W        W38529  17.976   4.402   1.754
66914W        W38530  28.692  10.923  14.588
66915W        W38531  25.074  17.775   3.789
66916W        W38532   4.882  14.673  10.280
66917W        W38533  18.600   7.116   5.091
66918W        W38534  13.631  23.714   1.468
66919W        W38535  30.666  33.521  13.427
66920W        W38536  17.531  23.117   2.671
66921W        W38537  15.530  31.978  10.181
66922W        W38538   1.913  33.007  10.702
66923W        W38539  38.986  40.318   1.872
66924W        W38540  27.487  18.684   2.407
66925W        W38541  19.887  16.724  11.222
66926W        W38542  25.278  42.079   0.877
66927W        W38543  24.969   8.727   2.368
66928W        W38544  32.477   5.545   0.850
66929W        W38545  24.146   1.983   5.222
66930W        W38546  19.286   4.984   4.337
66931W        W38547  15.627  28.523  12.814
66932W        W38548  10.717  41.456  10.614
66933W        W38549  11.942  13.736   3.839
66934W        W38550  37.928   9.719   0.318
66935W        W38551  26.060  25.649  11.602
66936W        W38552  29.450  29.909   2.321
66937W        W38553  42.986  16.094   0.504
66938W        W38554  19.167  30.331   4.772
66939W        W38555  19.043  11.924  13.957
66940W        W38556  30.502   6.875   2.761
66941W        W38557  34.839  36.584  13.369
66942W        W38558  21.721  39.359   4.095
66943W        W38559  41.289   1.230  12.043
66944W        W38560  41.092   5.045  11.650
66945W        W38561   2.028  31.328  14.383
66946W        W38562  41.297  41.983  14.776
66947W        W38563  21.725  32.002  14.353
66948W        W38564  24.810  29.655  10.694
66949W        W38565  44.409  26.313   3.570
66950W        W38566  44.769  31.697  12.473
66951W        W38567  30.103   1.901   4.477
66952W        W38568  24.696   1.576   1.866
66953W        W38569  42.050  17.174   4.581
66954W        W38570  10.202   9.187   3.288
66955W        W38571  15.177  26.105  11.529
66956W        W38572  37.077  17.648  11.139
66957W        W38573  26.187  27.416   2.234
66958W        W38574  13.385   9.388   4.608
66959W        W38575  32.952  44.494  14.161
66960W        W38576   1.411  12.866   1.378
66961W        W38577  26.511  31.971   0.800
66962W        W38578  26.447  15.692   4.706
66963W        W38579  29.226  27.206   0.252
66964W        W38580  40.062  15.271  12.494
66965W        W38581  37.033  26.513   1.451
66966W        W38582  32.589  11.441   3.269
66967W        W38583   9.636  12.374   0.947
66968W        W38584  40.594  43.650  12.376
66969W        W38585  15.618   5.399   4.603
66970W        W38586  28.576   8.653  14.096
66971W        W38587  44.212  13.695   2.173
66972W        W38588  16.229  44.448   5.563
66973W        W38589  38.039  14.487  10.997
66974W        W38590  11.867  12.211  11.515
66975W        W38591  33.589  25.253  10.106
66976W        W38592   8.322  44.721   3.240
66977W        W38593  38.775   5.929  13.351
66978W        W38594   7.326  17.045  12.075
66979W        W38595   5.421  26.906   4.175
66980W        W38596  14.174  38.644  12.898
66981W        W38597  43.752  33.973  14.593
66982W        W38598   6.830  35.840   0.426
66983W        W38599  32.157   4.655  11.132
66984W        W38600  32.884   5.647   1.163
66985W        W38601   2.927   4.362  10.791
66986W        W38602  14.209  27.314  11.144
66987W        W38603  31.079  18.802   1.178
66988W        W38604  39.513  28.199  12.131
66989W        W38605   8.647  20.584   1.299
66990W        W38606  31.372  35.787   2.651
66991W        W38607  16.177  24.257  14.312
66992W        W38608   1.165  15.760   2.888
66993W        W38609  15.338   9.208  12.104
66994W        W38610  35.596  31.994   4.557
66995W        W38611   4.851  22.598   4.496
66996W        W38612  25.538  32.136  13.569
66997W        W38613  34.370   1.255   9.893
66998W        W38614  33.012  28.950   0.267
66999W        W38615   5.091  19.301   0.430
67000W        W38616  31.058  24.214   1.417
67001W        W38617  10.699  15.202  14.235
67002W        W38618  38.687  18.304  13.906
67003W        W38619  24.618   2.919  14.852
67004W        W38620   8.396  24.582   4.331
67005W        W38621   2.301  34.451   3.720
67006W        W38622   7.261  42.266  14.298
67007W        W38623  29.825  38.487  14.316
67008W        W38624  28.028  22.953   3.130
67009W        W38625   9.405  31.847  11.967
67010W        W38626   5.266   0.023  13.874
67011W        W38627  40.986  41.895   1.618
67012W        W38628  43.059  30.409   3.886
67013W        W38629  27.206  37.739  12.150
67014W        W38630  23.204  10.265  10.966
67015W        W38631   5.489   2.335   0.836
67016W        W38632   9.461   3.425   4.633
67017W        W38633  33.857  21.725   3.383
67018W        W38634   4.332  17.505  12.177
67019W        W38635  13.225  25.275  12.010
67020W        W38636  21.891   4.189   0.987
67021W        W38637  20.236   3.988   2.266
67022W        W38638  10.489  42.865  12.739
67023W        W38639  11.523  27.167   1.586
67024W        W38640  15.338  30.663  14.314
67025W        W38641   8.409  44.475   4.663
67026W        W38642  38.063  18.214   4.151
67027W        W38643   9.968  13.609   4.715
67028W        W38644  32.379   8.531   1.888
67029W        W38645  29.242  38.838   3.677
67030W        W38646  29.664   9.134  10.718
67031W        W38647  32.558   1.027  10.692
67032W        W38648  33.827  23.761  13.337
67033W        W38649  30.915   6.202  13.072
67034W        W38650   9.832  10.808   3.215
67035W        W38651   4.441  12.187  14.042
67036W        W38652  41.259  39.073  12.947
67037W        W38653  24.735   6.860  11.588
67038W        W38654  34.603  36.120  13.011
67039W        W38655   0.761  22.572   4.976
67040W        W38656  36.416  43.387  13.581
67041W        W38657  16.067  33.561  12.166
67042W        W38658  31.158  42.950  14.333
67043W        W38659  12.081  13.165  12.796
67044W        W38660   6.667   6.468   0.650
67045W        W38661  31.473   6.927   1.484
67046W        W38662   4.817  28.064  11.653
67047W        W38663  20.634   2.432   2.774
67048W        W38664  14.629  44.813  11.685
67049W        W38665  44.383  15.843   4.517
67050W        W38666  23.046  28.039   1.414
67051W        W38667  33.071  44.369   4.538
67052W        W38668  13.508  12.731   3.334
67053W        W38669  31.666  37.979  13.456
67054W        W38670  20.629  17.115  10.613
67055W        W38671  13.724  42.018  10.741
67056W        W38672  29.232  31.475   3.268
67057W        W38673  27.188   9.190   2.197
67058W        W38674   9.421  37.650   4.059
67059W        W38675  23.980   4.631  12.896
67060W        W38676  44.236  25.061  12.795
67061W        W38677  12.324   3.303  10.845
67062W        W38678  37.468   5.192   2.198
67063W        W38679  43.393   5.827  13.865
67064W        W38680   8.938  28.707  11.328
67065W        W38681  32.877  33.007   2.673
67066W        W38682   0.551  41.212   4.887
67067W        W38683   1.395  30.715   0.402
67068W        W38684  24.970  13.880  11.901
67069W        W38685  23.534  31.945   3.224
67070W        W38686  37.574  24.161  14.210
67071W        W38687   9.622   6.449   4.886
67072W        W38688   9.397  42.348  14.473
67073W        W38689  41.094   6.884   3.584
67074W        W38690  26.955  38.298  12.937
67075W        W38691   9.823  15.720   2.242
67076W        W38692  19.218  28.894  11.982
67077W        W38693  13.681  44.709   2.179
67078W        W38694  12.196   5.283  12.871
67079W        W38695  32.471  26.160   3.173
67080W        W38696  31.086  29.663   3.779
67081W        W38697  17.747   2.199   3.467
67082W        W38698  34.699  33.482  10.225
67083W        W38699   4.479  24.882   0.719
67084W        W38700  42.416  19.264  12.300
67085W        W38701   4.333  21.284   4.259
67086W        W38702  19.644  15.141  14.755
67087W        W38703  16.753  40.599  13.915
67088W        W38704   3.236  26.588  10.789
67089W        W38705   8.815  15.509   4.149
67090W        W38706   9.549  29.539   4.647
67091W        W38707  32.107  17.463   1.359
67092W        W38708   9.876  17.597   1.338
67093W        W38709  25.244  37.950   3.235
67094W        W38710   5.749  25.674   4.833
67095W        W38711  24.842   8.361  12.763
67096W        W38712   2.322  31.395   4.274
67097W        W38713   9.960  10.219   4.676
67098W        W38714   8.187  27.585   3.615
67099W        W38715  43.474  41.578  12.166
67100W        W38716  25.224  30.976   2.155
67101W        W38717  33.121  33.905  12.424
67102W        W38718  37.440   8.379   3.260
67103W        W38719   0.483   0.736   1.349
67104W        W38720   1.730  29.034  14.347
67105W        W38721  40.867  15.672   1.389
67106W        W38722  10.838  44.724   3.688
67107W        W38723  23.094  43.829  13.989
67108W        W38724  36.020  22.467  14.391
67109W        W38725  19.522  34.142   1.855
67110W        W38726  42.282  41.208  12.087
67111W        W38727  17.652  33.392  13.695
67112W        W38728  24.663  15.823   0.351
67113W        W38729   9.074  44.380  13.588
67114W        W38730   2.281   6.041   3.527
67115W        W38731  29.346  15.162   2.806
67116W        W38732  26.160   1.449  10.655
67117W        W38733  35.015  40.805  14.318
67118W        W38734  29.958  15.409  11.351
67119W        W38735  20.010  26.577   3.484
67120W        W38736  41.786   6.268   2.551
67121W        W38737  26.691  21.738   3.247
67122W        W38738  29.481  16.111  14.258
67123W        W38739  14.501  35.592  12.518
67124W        W38740  15.562  29.302   2.779
67125W        W38741  12.880  42.861   0.652
67126W        W38742  40.910  30.492   3.257
67127W        W38743  24.045  25.659   0.734
67128W        W38744  17.109  30.208  13.035
67129W        W38745   2.694  24.090   3.285
67130W        W38746  37.865  30.603  11.140
67131W        W38747  31.150   6.198  14.049
67132W        W38748  35.174   8.461   4.106
67133W        W38749  30.628  25.231  12.882
67134W        W38750  23.560   9.762  10.900
67135W        W38751  30.187  10.259  11.864
67136W        W38752  42.341  36.766  10.705
67137W        W38753  19.181   4.701   1.948
67138W        W38754  13.831  20.230  11.361
67139W        W38755  36.451  13.825  14.778
67140W        W38756  44.357  15.704  14.839
67141W        W38757  15.075  12.158   4.376
67142W        W38758  12.198  32.393   1.306
67143W        W38759  21.104   8.359  10.719
67144W        W38760  13.264   3.152   2.278
67145W        W38761  29.481   0.891  12.889
67146W        W38762   4.637   5.279   1.923
67147W        W38763  27.302  37.240   3.655
67148W        W38764  36.780   1.700   3.211
67149W        W38765   4.194  36.110   1.429
67150W        W38766  10.621  17.269  11.576
67151W        W38767   0.002   1.719   0.908
67152W        W38768  40.454  14.629   0.950
67153W        W38769  14.333  11.725  10.783
67154W        W38770  40.486  36.417   3.760
67155W        W38771  44.898  39.417  14.460
67156W        W38772  40.940  38.041   0.015
67157W        W38773  23.751  38.881   1.363
67158W        W38774   4.580   4.231   4.560
67159W        W38775  21.018  16.698   0.325
67160W        W38776  13.001  36.344  12.825
67161W        W38777   1.979  42.459   1.685
67162W        W38778  27.996  31.224  11.157
67163W        W38779   8.419  10.408  11.945
67164W        W38780  15.825  29.493  12.987
67165W        W38781  42.582  30.455   4.584
67166W        W38782   0.243  21.142   3.579
67167W        W38783   7.661  26.213   1.833
67168W        W38784  12.784  10.439   0.704
67169W        W38785  26.397   4.468   1.735
67170W        W38786  39.894  13.739   4.963
67171W        W38787  28.993  13.543  13.860
67172W        W38788   3.922  42.837  14.790
67173W        W38789  35.995  33.466   4.169
67174W        W38790  17.077  19.185   2.315
67175W        W38791   5.800  29.341   3.494
67176W        W38792  24.126   2.875  13.871
67177W        W38793  16.292  33.481  10.639
67178W        W38794  19.393  21.589   0.222
67179W        W38795  24.452  27.308   2.934
67180W        W38796  18.336  35.040   0.238
67181W        W38797  12.924  19.505  12.353
67182W        W38798  21.624   8.166  13.091
67183W        W38799  17.296  32.104   9.982
67184W        W38800  42.019  15.732   5.151
67185W        W38801  28.510  42.581   4.202
67186W        W38802  15.227  11.393   1.749
67187W        W38803  44.124   1.772  10.230
67188W        W38804  44.751  13.688  11.211
67189W        W38805  35.558  37.361   0.438
67190W        W38806  23.458   6.665   0.954
67191W        W38807  28.014  39.100  13.932
67192W        W38808   6.895  21.724  12.931
67193W        W38809  36.411  42.250   2.372
67194W        W38810  38.038   6.267  14.404
67195W        W38811   7.243  37.724  13.821
67196W        W38812  30.710   0.689   0.773
67197W        W38813   2.944  35.029   1.775
67198W        W38814  30.417   4.812   4.604
67199W        W38815  34.507  27.986  13.310
67200W        W38816  21.304  27.188  12.867
67201W        W38817  42.416  28.495  14.073
67202W        W38818  34.334  11.108  10.954
67203W        W38819  44.242  28.924  13.943
67204W        W38820  32.900   9.348  14.619
67205W        W38821  36.189  29.099  13.801
67206W        W38822  26.820   2.418   0.119
67207W        W38823   5.518  35.720   0.409
67208W        W38824  12.427  30.896  14.488
67209W        W38825  34.486  20.333   1.726
67210W        W38826  12.096   8.280   1.819
67211W        W38827  35.511   6.900  14.950
67212W        W38828  15.515  31.503  14.726
67213W        W38829  14.570   2.475   4.499
67214W        W38830  36.537  31.947   4.580
67215W        W38831  42.361  35.547  13.585
67216W        W38832  26.777  37.054   2.220
67217W        W38833  42.335  38.971  14.233
67218W        W38834   6.341  22.742   0.506
67219W        W38835  42.574  16.171  10.760
67220W        W38836   1.319  40.562   4.066
67221W        W38837  37.315  22.316  10.740
67222W        W38838  29.980   9.715   0.575
67223W        W38839  27.378  42.903   0.303
67224W        W38840   2.261   1.490  10.170
67225W        W38841  16.686  13.159   1.950
67226W        W38842   8.875  30.185  13.444
67227W        W38843  12.492  15.329   2.208
67228W        W38844  20.190  16.460   0.346
67229W        W38845   6.930   3.256   0.850
67230W        W38846  23.568  15.653  13.071
67231W        W38847  15.089   0.435   1.259
67232W        W38848   6.340   7.302   2.798
67233W        W38849  23.066   7.618   3.249
67234W        W38850  20.641  40.596  14.855
67235W        W38851  24.515  31.331   4.417
67236W        W38852   5.017   5.271  10.814
67237W        W38853  41.671   1.289   2.310
67238W        W38854  13.650  12.177  12.615
67239W        W38855  17.281  43.484   0.850
67240W        W38856  10.445  37.305  11.486
67241W        W38857  41.272   2.474  14.323
67242W        W38858   2.462  42.471  11.071
67243W        W38859  35.642  28.130  14.274
67244W        W38860   2.799  18.812   4.648
67245W        W38861  42.071  44.435  12.903
67246W        W38862  19.063  29.466   4.510
67247W        W38863  20.801  11.619  11.149
67248W        W38864  17.527   4.770   2.242
67249W        W38865  12.374   0.366   4.657
67250W        W38866  11.220  30.540   4.340
67251W        W38867   8.250  11.987   1.804
67252W        W38868   0.956   4.620  13.012
67253W        W38869  17.792  24.597  10.768
67254W        W38870  39.532  44.334  14.000
67255W        W38871  40.877  44.209   0.111
67256W        W38872   5.451  31.883  11.580
67257W        W38873  39.327  39.521  14.303
67258W        W38874  25.833  16.928  10.359
67259W        W38875  22.772  26.084   0.914
67260W        W38876  38.964   7.818   4.565
67261W        W38877  16.237  32.597  11.120
67262W        W38878  15.841  28.658  10.521
67263W        W38879   1.238  12.147  13.192
67264W        W38880  20.128   3.366  11.818
67265W        W38881  29.067  11.933   2.370
67266W        W38882  21.993  26.550   1.357
67267W        W38883  44.351  39.038   0.251
67268W        W38884   4.984  21.490   4.081
67269W        W38885  15.168  43.842  10.661
67270W        W38886  32.321  21.638   3.154
67271W        W38887  18.040  23.938  14.080
67272W        W38888  11.334  26.386   3.418
67273W        W38889  38.511  31.625  12.560
67274W        W38890   9.815   1.409  10.429
67275W        W38891  39.066  16.152  12.348
67276W        W38892   8.849  10.207  13.100
67277W        W38893  12.741   1.124  13.018
67278W        W38894  34.397  13.864   1.855
67279W        W38895   1.729  11.777  13.745
67280W        W38896  26.097   4.025   2.357
67281W        W38897  33.878   5.748  14.295
67282W        W38898  10.941  17.638  10.678
67283W        W38899  18.705   5.291  10.861
67284W        W38900   0.407  18.502   1.433
67285W        W38901  19.302   9.167   0.357
67286W        W38902  20.021  19.257   3.342
67287W        W38903  38.427  33.847   1.378
67288W        W38904  42.154   6.415   1.173
67289W        W38905   1.487  11.171  13.491
67290W        W38906  17.062   5.504  13.383
67291W        W38907  23.810   5.795  12.513
67292W        W38908  27.022  38.839   1.423
67293W        W38909  24.042  12.922   1.219
67294W        W38910  16.097  38.567  12.075
67295W        W38911  42.132   3.399  10.678
67296W        W38912   3.294  18.195  12.881
67297W        W38913  39.378   5.703  14.516
67298W        W38914  38.751  10.171  11.717
67299W        W38915  11.079   5.185   4.116
67300W        W38916  43.647  31.065  13.188
67301W        W38917  36.151  30.616  11.507
67302W        W38918  38.606  29.115   4.388
67303W        W38919  43.236  41.457  11.194
67304W        W38920  39.045  19.736  11.987
67305W        W38921  20.970  28.024   0.757
67306W        W38922  42.514  27.571  11.603
67307W        W38923  11.387  37.132  12.095
67308W        W38924  44.722   7.502  12.415
67309W        W38925  25.117   9.120   1.301
67310W        W38926  17.571  13.672   2.653
67311W        W38927  20.446  29.143  13.831
67312W        W38928   0.717  10.363  13.011
67313W        W38929  24.208  22.132   0.001
67314W        W38930  20.791  13.775   3.808
67315W        W38931   9.787  37.367   4.300
67316W        W38932   7.676  22.355  11.739
67317W        W38933  34.938  21.518  11.427
67318W        W38934  23.468  43.894  13.083
67319W        W38935  18.748  21.582   0.242
67320W        W38936   4.461  19.080   1.225
67321W        W38937  29.421   8.270  11.892
67322W        W38938  16.063  14.285   3.681
67323W        W38939  42.312  10.122   0.731
67324W        W38940  22.452  21.209   0.530
67325W        W38941  14.726  33.392   0.283
67326W        W38942  41.927  43.276  11.516
67327W        W38943   1.267  13.341  14.550
67328W        W38944  24.264   5.467   2.841
67329W        W38945  10.383  19.264  11.581
67330W        W38946  34.424  39.345   0.468
67331W        W38947  34.141  11.609  11.686
67332W        W38948  17.243  43.221   0.413
67333W        W38949   2.760   6.949  14.151
67334W        W38950  25.183  25.535  11.698
67335W        W38951   4.176  13.162   1.663
67336W        W38952  40.869  28.363   3.636
67337W        W38953  32.417  26.255  14.607
67338W        W38954  20.653   4.626  13.763
67339W        W38955  41.493  41.906  13.896
67340W        W38956  21.221  31.576   3.222
67341W        W38957  26.919  37.354  13.013
67342W        W38958  36.808   1.866  14.988
67343W        W38959  10.017  38.963   3.330
67344W        W38960  34.321  32.670   3.851
67345W        W38961   7.445  20.729   3.717
67346W        W38962  18.732  24.925   3.299
67347W        W38963  21.549  35.299   2.484
67348W        W38964  43.754  13.519   4.265
67349W        W38965   2.788  43.508  13.575
67350W        W38966  37.322  20.143   1.469
67351W        W38967  35.165  15.198   1.570
67352W        W38968  28.771  29.459  13.311
67353W        W38969   6.888  20.314  13.860
67354W        W38970  24.767  10.716   0.787
67355W        W38971  39.773   3.224  10.657
67356W        W38972  19.604   2.556  11.148
67357W        W38973  22.606   3.923   4.957
67358W        W38974  16.172  25.727  13.009
67359W        W38975  30.979  12.319  12.028
67360W        W38976  12.827   5.647   4.185
67361W        W38977  16.844  38.892  10.735
67362W        W38978  32.089  30.630   3.880
67363W        W38979  16.474  15.743   0.043
67364W        W38980   9.843  27.568  13.822
67365W        W38981  31.218  28.620  14.760
67366W        W38982  12.830   9.601  12.050
67367W        W38983   2.367  32.127  11.707
67368W        W38984  18.448   1.354   1.513
67369W        W38985  25.515  39.537  14.723
67370W        W38986  19.651   2.204   1.037
67371W        W38987   3.885  36.997   3.777
67372W        W38988  41.539  44.445   3.777
67373W        W38989  14.330  28.682   0.877
67374W        W38990   5.565  30.024   1.754
67375W        W38991  38.444  14.555  12.920
67376W        W38992  15.705  13.388  10.747
67377W        W38993  32.084  17.395  14.498
67378W        W38994  41.870  11.845   0.996
67379W        W38995   8.380  14.547   2.273
67380W        W38996  35.759  19.701  11.013
67381W        W38997   1.159  44.523  12.872
67382W        W38998  33.040  21.470  14.909
67383W        W38999  11.095  27.379   4.244
67384W        W39000  28.162  25.553  11.613
67385W        W39001  20.030  13.957  11.032
67386W        W39002  23.331   8.726   1.082
67387W        W39003  43.483  15.241   3.879
67388W        W39004  40.630   1.334   0.346
67389W        W39005  13.721  42.626  13.111
67390W        W39006  17.652  17.684  10.962
67391W        W39007  18.565  39.572   0.873
67392W        W39008  34.402  15.555  12.582
67393W        W39009  43.261   6.925  10.597
67394W        W39010  26.623  10.823  10.698
67395W        W39011  31.016  18.091  14.842
67396W        W39012   0.610  21.246   4.023
67397W        W39013  15.559  28.203  13.503
67398W        W39014   6.050  15.269   1.824
67399W        W39015  12.073  43.394   1.673
67400W        W39016  33.854  20.151  11.567
67401W        W39017  30.415  38.012  10.481
67402W        W39018   8.212  21.666   0.314
67403W        W39019  41.442  32.036  13.454
67404W        W39020  17.924  18.823   1.486
67405W        W39021  37.936  24.263   3.186
67406W        W39022  16.163  34.413  14.920
67407W        W39023  41.493  11.017  10.764
67408W        W39024   8.092   0.065  11.109
67409W        W39025  29.032   0.302   2.731
67410W        W39026   3.829  17.864  12.914
67411W        W39027   4.915   4.824  13.316
67412W        W39028  21.033  37.901  14.552
67413W        W39029  19.149  44.788   4.595
67414W        W39030  33.908  12.617   4.541
67415W        W39031   9.840  16.288  12.446
67416W        W39032  19.664   7.058   2.337
67417W        W39033  15.836  30.739   3.730
67418W        W39034  24.506  16.365   2.463
67419W        W39035  27.498  31.066  11.187
67420W        W39036  22.591  20.684  11.194
67421W        W39037  29.835  21.328   4.178
67422W        W39038  12.137  25.217  12.926
67423W        W39039  18.334  44.284   0.396
67424W        W39040   2.465  17.284  12.447
67425W        W39041   5.290  21.627   1.265
67426W        W39042  17.641  42.418   1.463
67427W        W39043  36.595   9.965   4.184
67428W        W39044  38.478  25.233  10.683
67429W        W39045  26.588   9.155   4.321
67430W        W39046  38.977  34.947   4.658
67431W        W39047  25.567   8.848  10.573
67432W        W39048  25.709   0.577   1.139
67433W        W39049   0.901  42.527  11.970
67434W        W39050  34.142  34.028  14.383
67435W        W39051  28.714  14.733   2.272
67436W        W39052  39.030   3.658  11.501
67437W        W39053  31.020  16.508   3.770
67438W        W39054   2.427  24.350   2.950
67439W        W39055  36.326  37.011   1.184
67440W        W39056  24.524   7.947  12.773
67441W        W39057   3.405  21.125   1.763
67442W        W39058  24.490  38.659   4.000
67443W        W39059  38.989  22.205   2.573
67444W        W39060  38.868  12.103   2.340
67445W        W39061  11.130  25.550  13.472
67446W        W39062  23.227  14.337  13.366
67447W        W39063  17.279  12.955   4.488
67448W        W39064   1.303  33.895   1.418
67449W        W39065  37.222  23.934   9.950
67450W        W39066  35.936  13.871   2.745
67451W        W39067   1.111  42.949   1.358
67452W        W39068   7.636  28.184   3.406
67453W        W39069  27.303   1.857   1.995
67454W        W39070  10.367  21.640  11.665
67455W        W39071  26.193   8.857   3.471
67456W        W39072  14.646  38.583   4.928
67457W        W39073  17.757  44.225  10.608
67458W        W39074   1.360  34.570   3.434
67459W        W39075  37.415  26.790   0.552
67460W        W39076  34.449  13.122  13.748
67461W        W39077  35.604  16.608   1.736
67462W        W39078  21.987  43.999   3.614
67463W        W39079  44.157  16.332   3.629
67464W        W39080  44.296  41.567   4.211
67465W        W39081  26.576  24.836  14.984
67466W        W39082  40.303  38.574   0.350
67467W        W39083  25.929   4.745   0.376
67468W        W39084  18.768  16.227  14.789
67469W        W39085  39.610  38.952  13.496
67470W        W39086  30.564   6.369   1.341
67471W        W39087   8.896  22.306   2.845
67472W        W39088  10.832  17.036   1.600
67473W        W39089  10.896   1.305   0.741
67474W        W39090  22.484  34.028   4.210
67475W        W39091  35.604  11.585  14.376
67476W        W39092  38.926  22.162   4.504
67477W        W39093  40.453   0.808   2.373
67478W        W39094  32.532  28.745   4.928
67479W        W39095  12.873   0.804  11.080
67480W        W39096  30.561  25.510   3.225
67481W        W39097  32.562  21.742  12.120
67482W        W39098  19.767  12.954  13.296
67483W        W39099  17.691   0.266  10.625
67484W        W39100  11.927   1.670  10.281
67485W        W39101   6.841   3.045   4.095
67486W        W39102  34.520  17.745  13.606
67487W        W39103  34.412  22.220   0.909
67488W        W39104  21.625  27.466   4.585
67489W        W39105  28.554  18.331  11.870
67490W        W39106   3.926  27.602  11.341
67491W        W39107   9.763  26.155  13.539
67492W        W39108   7.370   2.837  11.804
67493W        W39109  38.306  38.085  11.178
67494W        W39110  37.678   5.002  13.856
67495W        W39111   4.929  34.158  11.639
67496W        W39112  26.047  16.133  14.724
67497W        W39113  15.189  44.253   3.614
67498W        W39114  38.575   3.396   2.727
67499W        W39115  43.580  22.560  11.537
67500W        W39116   8.519   7.353   4.404
67501W        W39117   0.303  35.521   2.273
67502W        W39118  17.507  33.359   0.071
67503W        W39119  44.796  27.663   0.274
67504W        W39120  32.931  17.584  13.114
67505W        W39121   6.242  28.692  12.528
67506W        W39122  12.188  36.369   0.893
67507W        W39123   6.319  30.022   2.353
67508W        W39124  33.108   6.815  12.744
67509W        W39125  44.704  36.667  12.488
67510W        W39126  39.375   3.736   1.286
67511W        W39127  43.920   9.031   1.850
67512W        W39128   7.555  24.211  13.995
67513W        W39129  13.655  42.304  11.199
67514W        W39130  36.517  32.176  13.441
67515W        W39131  34.590  27.252   1.255
67516W        W39132  27.085  40.897   1.208
67517W        W39133  40.186   1.773   2.629
67518W        W39134   7.500  32.622   4.286
67519W        W39135  24.663   1.722   2.401
67520W        W39136  33.038  31.953   0.424
67521W        W39137  17.376  44.689  13.900
67522W        W39138   2.220  35.866   4.536
67523W        W39139  38.937   2.919  11.099
67524W        W39140  39.471   3.484   0.845
67525W        W39141  12.171  44.288   2.610
67526W        W39142  17.207  36.970   0.489
67527W        W39143  41.817  29.961   0.017
67528W        W39144  12.193  17.302  11.624
67529W        W39145   8.843  37.285   2.039
67530W        W39146  41.458   3.056   0.442
67531W        W39147  41.803  35.121   3.725
67532W        W39148  35.226  12.674  13.465
67533W        W39149  42.079  22.216  12.957
67534W        W39150   5.865  23.438  14.765
67535W        W39151  28.597  30.136   5.434
67536W        W39152  42.090  12.448  14.404
67537W        W39153  36.312  29.017  11.906
67538W        W39154  22.511  41.500   0.695
67539W        W39155  41.028  41.872   3.645
67540W        W39156  35.869  14.304  13.980
67541W        W39157   4.030  22.577  14.738
67542W        W39158  32.954   3.360   1.472
67543W        W39159  15.888  42.632   1.677
67544W        W39160  34.622  29.924  13.367
67545W        W39161  14.315  40.343  12.646
67546W        W39162  18.651   3.396   1.912
67547W        W39163  41.849  29.132   4.137
67548W        W39164   5.673  44.220   1.654
67549W        W39165  13.542  33.895   1.140
67550W        W39166  12.205   9.706   2.270
67551W        W39167  25.673  14.099  13.850
67552W        W39168   8.312  10.933  14.502
67553W        W39169  32.985  30.885   3.292
67554W        W39170  27.154   1.508  12.807
67555W        W39171  44.045  12.288  13.013
67556W        W39172   5.368  30.514   3.684
67557W        W39173   9.328  31.793   4.995
67558W        W39174  14.852  21.065  12.510
67559W        W39175  27.657   4.735  14.692
67560W        W39176   6.229  11.365  14.772
67561W        W39177  22.068  44.504   0.496
67562W        W39178  43.830   5.594   3.896
67563W        W39179  29.506  28.151   4.602
67564W        W39180  11.036  14.784  13.470
67565W        W39181  44.258   2.305   4.938
67566W        W39182  30.952  41.309  10.777
67567W        W39183  38.433  15.323   0.466
67568W        W39184  42.552   1.742   3.342
67569W        W39185   4.527  26.891   0.072
67570W        W39186  15.652   4.505   1.744
67571W        W39187  22.870  23.588  11.950
67572W        W39188   9.604  12.651  10.764
67573W        W39189  39.952  37.940   4.168
67574W        W39190  22.152   2.942  12.926
67575W        W39191  43.492   9.250  13.955
67576W        W39192   6.700  11.799  11.857
67577W        W39193  13.134  33.041   0.867
67578W        W39194  10.895   7.353   1.871
67579W        W39195   9.883  25.709   1.287
67580W        W39196  24.972  41.079   3.262
67581W        W39197  13.809   9.704   2.752
67582W        W39198  16.003  22.745  13.564
67583W        W39199   2.758  44.007  13.423
67584W        W39200  43.009   2.754   2.383
67585W        W39201  22.953  24.774   0.440
67586W        W39202  32.770  21.687   2.744
67587W        W39203   6.817  22.147  10.748
67588W        W39204  42.089   7.835   1.895
67589W        W39205   8.441  32.915   0.560
67590W        W39206  34.307  31.863   0.493
67591W        W39207   5.890   9.656   2.407
67592W        W39208  14.085  13.499  12.012
67593W        W39209  27.113  39.309   4.525
67594W        W39210  29.898  43.253   4.500
67595W        W39211  42.742  32.003  14.115
67596W        W39212  42.312   2.495  13.431
67597W        W39213  44.126  36.889  11.910
67598W        W39214  14.613  41.222   0.225
67599W        W39215  23.549  18.569   4.605
67600W        W39216  27.738  27.678  13.495
67601W        W39217   4.245  28.576  12.087
67602W        W39218  29.018  37.885  10.377
67603W        W39219   9.613  42.436   1.901
67604W        W39220  12.711  10.376  12.442
67605W        W39221  41.241  13.088  11.128
67606W        W39222  28.496  16.628   4.142
67607W        W39223  44.516  39.444  13.789
67608W        W39224   9.144  12.382  14.327
67609W        W39225  20.559  37.524   4.959
67610W        W39226  29.513   1.788   5.012
67611W        W39227  15.720  14.818   4.354
67612W        W39228  28.596  29.188   4.666
67613W        W39229  28.993  10.671   3.774
67614W        W39230  11.269   6.810  11.186
67615W        W39231   8.309  38.414   0.960
67616W        W39232  38.095  28.978   0.421
67617W        W39233  29.558   4.387  11.979
67618W        W39234  26.188   5.398  11.739
67619W        W39235  31.867  39.501   4.104
67620W        W39236   7.818  14.600   4.421
67621W        W39237  24.549  26.142   4.183
67622W        W39238  29.695  32.579   2.320
67623W        W39239  16.533  28.525   2.798
67624W        W39240  11.324  22.547  13.715
67625W        W39241  30.166  19.125   1.218
67626W        W39242  43.821  15.531  12.987
67627W        W39243  14.537  33.025  12.615
67628W        W39244   1.889  22.820   3.563
67629W        W39245  27.502   6.436   1.214
67630W        W39246  25.730   6.378   3.772
67631W        W39247  39.936   2.261  14.753
67632W        W39248  13.165  26.325  11.086
67633W        W39249  42.952   4.940   3.622
67634W        W39250  25.548  30.418  11.721
67635W        W39251  27.786   3.871  11.973
67636W        W39252  29.890  15.039   2.715
67637W        W39253   8.659   1.521   4.092
67638W        W39254  39.990  35.540   1.337
67639W        W39255  31.679   3.772   2.128
67640W        W39256  44.514  10.896   2.850
67641W        W39257  42.286  12.266  13.959
67642W        W39258  39.663  10.693   5.480
67643W        W39259  17.498   1.455  12.920
67644W        W39260   2.886   4.992   4.265
67645W        W39261  37.391  28.094  11.595
67646W        W39262   1.332  22.441  11.450
67647W        W39263  35.502  38.575   4.684
67648W        W39264   2.273   4.497  12.509
67649W        W39265   9.728  23.410   4.770
67650W        W39266  22.240  15.474  10.903
67651W        W39267  39.602  13.602   4.567
67652W        W39268  33.124  32.395   0.112
67653W        W39269  28.852  21.396  10.145
67654W        W39270  28.198  30.098   3.678
67655W        W39271  26.481  41.540  13.261
67656W        W39272  38.532   2.035   1.885
67657W        W39273  38.136  38.980  13.045
67658W        W39274  44.327  16.172   3.155
67659W        W39275  24.610  26.416   0.746
67660W        W39276  38.023  25.648   1.993
67661W        W39277  28.228  32.849   3.654
67662W        W39278  26.551  27.977  14.817
67663W        W39279  21.540  19.543  13.037
67664W        W39280  34.004   7.120  13.100
67665W        W39281  44.346  33.606   4.596
67666W        W39282   1.955  42.451  12.711
67667W        W39283  40.201  43.354   2.997
67668W        W39284  42.357   6.350  10.600
67669W        W39285  11.669  40.618  12.569
67670W        W39286  29.402   9.219   1.614
67671W        W39287  36.450  39.018   4.653
67672W        W39288  27.171   2.572  14.788
67673W        W39289  10.626  29.664   4.529
67674W        W39290   3.034  19.299   2.815
67675W        W39291  13.594  33.528  13.122
67676W        W39292  20.517  14.309  14.559
67677W        W39293  42.384  38.415   5.680
67678W        W39294  12.237  18.744  14.415
67679W        W39295  41.277  43.528  11.903
67680W        W39296  25.612   7.977   1.453
67681W        W39297  24.634  35.610   2.357
67682W        W39298   6.661   7.182  10.501
67683W        W39299   8.959  41.461   4.117
67684W        W39300   3.866  11.207  13.311
67685W        W39301  15.583  21.362  11.315
67686W        W39302  24.103  21.746   4.667
67687W        W39303  27.017   9.656   3.697
67688W        W39304  10.824  33.380  12.555
67689W        W39305  34.392  34.952  11.112
67690W        W39306  26.973  38.497  11.237
67691W        W39307   4.739  38.049   3.119
67692W        W39308  39.735   2.108  13.051
67693W        W39309  43.646  41.871  11.643
67694W        W39310  23.436  33.054  14.235
67695W        W39311   5.793   9.952   3.875
67696W        W39312  33.236  12.285   4.677
67697W        W39313  32.969  27.088   0.666
67698W        W39314   6.471  40.845  13.917
67699W        W39315  24.864  18.754   1.299
67700W        W39316  20.924  43.986   1.341
67701W        W39317  34.911  19.695   4.906
67702W        W39318  43.468  22.301  14.241
67703W        W39319   6.439  38.411  14.541
67704W        W39320  29.057  17.211   2.685
67705W        W39321  24.541  11.803  14.929
67706W        W39322   7.797  19.275   1.893
67707W        W39323  38.725  41.939  11.296
67708W        W39324  27.089  21.441  12.966
67709W        W39325   8.720  12.081  14.286
67710W        W39326  19.161  36.939  13.363
67711W        W39327  29.023  34.211  10.697
67712W        W39328   1.955  30.169   2.833
67713W        W39329  13.790  13.107   0.879
67714W        W39330  28.595  43.758   0.839
67715W        W39331   4.653  44.940  10.768
67716W        W39332  32.993  19.589  10.511
67717W        W39333   6.615   9.647  11.192
67718W        W39334   9.207  12.275   4.129
67719W        W39335   5.575  38.009  13.206
67720W        W39336  36.561  44.255   4.786
67721W        W39337  41.787   8.196   4.093
67722W        W39338  37.558   4.943  11.176
67723W        W39339  30.695  28.706  12.946
67724W        W39340  34.943  35.755   0.815
67725W        W39341  22.267  27.692  11.039
67726W        W39342   1.810  44.283  14.069
67727W        W39343  43.504   1.430   3.206
67728W        W39344  26.993  11.422  11.580
67729W        W39345  36.988  39.607   1.543
67730W        W39346  12.626   7.759   4.965
67731W        W39347  16.127   2.408   1.726
67732W        W39348  22.262  12.315   1.759
67733W        W39349   0.411   8.000  14.582
67734W        W39350  33.626  38.015  13.421
67735W        W39351  23.300  37.000  14.304
67736W        W39352  11.201  31.999  11.550
67737W        W39353  21.094  30.184  14.480
67738W        W39354   5.835   1.765   3.591
67739W        W39355   9.825  25.104  11.088
67740W        W39356  34.445  29.614   1.754
67741W        W39357  34.519  23.171  11.316
67742W        W39358   2.859  34.662   2.530
67743W        W39359  44.189  16.023   1.243
67744W        W39360   2.091  37.066   4.760
67745W        W39361  11.722   4.753   0.877
67746W        W39362  15.630  17.079   2.134
67747W        W39363  27.529  21.902   2.522
67748W        W39364  27.038  15.261  10.745
67749W        W39365  44.083  22.922  14.060
67750W        W39366  26.048  34.810   3.639
67751W        W39367  10.107  11.050  11.596
67752W        W39368  23.842  11.689   2.785
67753W        W39369   1.532  32.021   1.650
67754W        W39370   0.338   5.894   0.746
67755W        W39371  31.244   0.990   3.894
67756W        W39372  17.145  25.589  12.283
67757W        W39373   9.360  21.116  11.156
67758W        W39374  40.981  31.974  14.055
67759W        W39375  36.984  17.815   0.935
67760W        W39376  34.436   7.539   0.342
67761W        W39377  23.057   9.609   2.402
67762W        W39378  33.356  22.814   1.748
67763W        W39379  39.133  26.045  10.104
67764W        W39380  34.823  35.208  13.476
67765W        W39381  12.251  32.797  13.915
67766W        W39382   3.796  36.424  12.710
67767W        W39383  44.922  11.572  13.481
67768W        W39384   8.797  24.421  11.706
67769W        W39385  19.733  44.321   0.703
67770W        W39386   9.452  12.656   1.373
67771W        W39387   4.321  43.681   4.175
67772W        W39388  41.933  10.800  12.109
67773W        W39389  27.619  34.455  11.887
67774W        W39390  19.580   7.231  11.725
67775W        W39391   3.420  38.932   2.306
67776W        W39392  17.691  42.518   1.975
67777W        W39393  28.725  30.640   4.223
67778W        W39394  18.303  16.817   2.588
67779W        W39395  31.619  19.080   1.459
67780W        W39396   1.769  27.211  11.832
67781W        W39397  40.333  25.993  13.581
67782W        W39398  27.134  42.302  10.528
67783W        W39399  32.001  19.304   3.561
67784W        W39400  40.887  14.164   2.306
67785W        W39401  32.920   5.115  10.950
67786W        W39402   9.426  24.520   2.624
67787W        W39403  36.525  32.525   4.376
67788W        W39404  37.330  25.892  14.912
67789W        W39405   5.214  31.320  12.452
67790W        W39406  13.662  30.819   3.238
67791W        W39407  38.463  30.631   4.034
67792W        W39408  40.633   6.813  13.895
67793W        W39409  20.951  33.746   1.721
67794W        W39410  39.857  33.903   1.200
67795W        W39411   2.358  43.761   5.430
67796W        W39412  44.751  26.646   3.348
67797W        W39413  17.630  40.235   4.812
67798W        W39414  12.163  13.689   2.318
67799W        W39415  26.025   5.424  12.623
67800W        W39416   9.727  19.767  14.028
67801W        W39417  43.948  23.476   4.493
67802W        W39418  25.154  25.774   2.261
67803W        W39419  35.813  41.803   0.899
67804W        W39420   8.422  34.005  14.608
67805W        W39421  33.382  37.009   3.343
67806W        W39422  15.645  26.721  13.413
67807W        W39423  18.799  38.600   0.569
67808W        W39424  39.377  31.082  13.445
67809W        W39425  20.838  11.335   4.487
67810W        W39426  23.701  25.365  12.478
67811W        W39427  39.261  44.706   2.414
67812W        W39428   9.948  27.512   4.594
67813W        W39429  15.035  19.439  12.637
67814W        W39430  23.696  19.180   0.935
67815W        W39431  41.517  42.803  12.336
67816W        W39432  10.098  11.336   0.355
67817W        W39433  29.924  44.303   3.397
67818W        W39434   7.660  35.756   2.322
67819W        W39435  17.300  31.592  11.563
67820W        W39436   9.682  27.450  12.360
67821W        W39437  31.578  14.196   2.735
67822W        W39438   4.896  15.961  12.078
67823W        W39439  35.159  27.293  11.971
67824W        W39440   7.273  18.602  13.730
67825W        W39441  44.415   5.450   2.235
67826W        W39442  12.408   4.324   5.457
67827W        W39443  43.709  38.775   1.332
67828W        W39444  17.178  17.867   1.092
67829W        W39445   2.110  10.835   2.251
67830W        W39446  18.193  28.992   4.821
67831W        W39447  27.936   1.737  14.867
67832W        W39448  40.017  32.068  14.920
67833W        W39449  44.851  37.844  11.990
67834W        W39450  44.255  16.811  13.922
67835W        W39451  13.269  21.935  11.489
67836W        W39452  21.415  37.856   1.421
67837W        W39453  31.629  24.697   4.237
67838W        W39454  17.271  29.496   2.412
67839W        W39455  19.614   0.071   2.817
67840W        W39456  28.062  29.004  13.096
67841W        W39457  43.748  38.966  12.779
67842W        W39458  15.540  31.454  12.911
67843W        W39459  21.975   8.736   0.938
67844W        W39460  14.542  42.902  13.440
67845W        W39461  39.494   1.729  12.786
67846W        W39462  31.327  30.029   2.667
67847W        W39463   6.931  12.821  14.310
67848W        W39464  14.769  32.522   3.330
67849W        W39465  12.604   4.270   4.979
67850W        W39466  26.688  13.131  12.481
67851W        W39467  44.052   6.248   2.192
67852W        W39468  22.246  32.720  12.048
67853W        W39469  31.184  35.067  14.834
67854W        W39470   8.144  33.592  14.176
67855W        W39471  12.411  15.284   3.422
67856W        W39472  35.063   1.414  14.854
67857W        W39473  39.328  27.504   2.837
67858W        W39474  36.780  10.867   4.180
67859W        W39475  12.591  15.815  10.647
67860W        W39476  44.401  14.708   1.291
67861W        W39477  44.736   1.041  12.960
67862W        W39478  42.809  23.995   3.699
67863W        W39479  38.347  27.262   1.255
67864W        W39480  35.968  36.054  14.374
67865W        W39481  17.582  29.956  12.334
67866W        W39482   0.452   2.147   1.241
67867W        W39483  18.094  42.531  13.768
67868W        W39484  29.995  36.438   3.751
67869W        W39485  31.768  28.369   5.131
67870W        W39486   1.704  41.769   2.327
67871W        W39487  23.105  43.055   1.434
67872W        W39488  15.396   6.907   3.560
67873W        W39489  34.203  10.693   3.719
67874W        W39490   0.824  26.120   3.580
67875W        W39491  35.560  19.665  14.801
67876W        W39492   6.894  20.643  10.655
67877W        W39493  19.877  11.385   3.566
67878W        W39494   0.028  23.058   2.651
67879W        W39495  15.847  44.905   3.065
67880W        W39496  14.844  14.849  11.122
67881W        W39497  42.491   9.073   2.413
67882W        W39498   6.780  30.882   0.814
67883W        W39499  35.453  33.958   0.937
67884W        W39500  41.911  23.413  12.581
67885W        W39501  36.105  18.019  12.644
67886W        W39502  42.350  35.522   2.606
67887W        W39503  20.750  20.049  13.424
67888W        W39504  38.120  23.504   2.154
67889W        W39505  24.390  16.151   4.322
67890W        W39506  24.526  41.732   3.245
67891W        W39507   8.832  31.856   2.875
67892W        W39508  26.243   2.348  11.103
67893W        W39509  34.616  35.798   0.010
67894W        W39510  15.306  21.583  11.678
67895W        W39511   1.877  37.046  12.730
67896W        W39512  26.260   0.902   4.118
67897W        W39513  41.947  27.637   2.315
67898W        W39514  40.698  36.576   4.262
67899W        W39515  43.762  44.275  13.548
67900W        W39516  34.302   3.736   1.863
67901W        W39517  16.754  28.873  10.594
67902W        W39518  18.768  26.844   1.421
67903W        W39519  39.415   5.594   1.727
67904W        W39520  38.923  38.371   2.727
67905W        W39521  31.198   2.240   1.684
67906W        W39522  36.882  12.897   0.399
67907W        W39523  11.716  16.679   1.346
67908W        W39524  28.322  21.469   2.676
67909W        W39525   1.371  22.174   4.643
67910W        W39526  10.234   5.264  13.000
67911W        W39527  40.795  19.575   1.572
67912W        W39528   3.683  41.473   1.836
67913W        W39529  20.736  43.042   1.898
67914W        W39530  27.459  14.718  11.603
67915W        W39531  27.629  34.443   3.196
67916W        W39532  21.256  13.728   0.751
67917W        W39533  41.805  14.794  11.951
67918W        W39534  21.671  20.477   4.159
67919W        W39535   2.700  40.870   1.977
67920W        W39536   0.715   6.953   3.831
67921W        W39537   7.161   2.358  11.251
67922W        W39538  19.650  42.740  12.084
67923W        W39539  17.734   9.176  12.677
67924W        W39540  10.404   4.703  10.721
67925W        W39541  12.071  28.906   0.468
67926W        W39542  21.754  11.347  12.003
67927W        W39543  27.649  40.319   2.883
67928W        W39544  44.961  20.189  12.124
67929W        W39545   2.230  28.290   9.897
67930W        W39546  21.482  18.788   0.645
67931W        W39547  42.262   9.847  13.004
67932W        W39548   0.750  41.922   3.188
67933W        W39549   7.389  28.772  11.610
67934W        W39550   4.864  24.637   2.313
67935W        W39551  10.406   2.537  14.554
67936W        W39552  11.759  44.740   0.269
67937W        W39553  41.070  39.577  13.873
67938W        W39554  13.577  10.103   4.047
67939W        W39555  11.170  30.325   2.396
67940W        W39556   4.652   3.317  13.779
67941W        W39557  21.686  22.930  11.238
67942W        W39558  23.615  27.775  10.899
67943W        W39559   8.333  36.402   2.815
67944W        W39560  33.428  12.631   4.298
67945W        W39561  38.120   4.463   2.456
67946W        W39562  27.908   4.183   1.815
67947W        W39563   4.277  24.828   3.749
67948W        W39564   0.513   6.461  12.841
67949W        W39565  20.150  16.714  11.658
67950W        W39566   7.600  34.815   3.729
67951W        W39567  33.888  17.188   3.748
67952W        W39568  13.369  42.505   3.251
67953W        W39569  27.119   3.074  14.776
67954W        W39570  29.523   8.698  14.014
67955W        W39571  16.326  13.768  14.346
67956W        W39572  22.545  14.087   2.491
67957W        W39573  32.155  29.893  14.751
67958W        W39574  21.550   4.968   0.942
67959W        W39575  25.861  25.009  14.991
67960W        W39576  42.735  32.432   2.311
67961W        W39577  30.934  11.637   2.393
67962W        W39578   0.559  29.511  13.133
67963W        W39579  23.749  11.832   3.343
67964W        W39580  14.340  27.471  13.047
67965W        W39581   1.005  20.583   3.707
67966W        W39582  23.192  26.979   3.367
67967W        W39583   3.873  36.602   2.873
67968W        W39584  38.908  12.628  10.535
67969W        W39585  25.212  37.211   3.588
67970W        W39586  39.330  41.267   0.381
67971W        W39587   1.294   1.327  13.355
67972W        W39588  30.466   3.969   1.465
67973W        W39589  27.962  23.087   1.368
67974W        W39590  37.622  35.586   0.363
67975W        W39591  16.969  16.700  10.045
67976W        W39592  27.040  43.278   4.734
67977W        W39593  21.555   5.835   3.720
67978W        W39594  30.458  12.313  11.641
67979W        W39595  13.862  22.613  12.605
67980W        W39596   9.784  17.059   0.345
67981W        W39597  24.295  20.702  11.191
67982W        W39598   5.252   0.364   3.801
67983W        W39599  24.129  39.068   3.196
67984W        W39600  10.260  17.554  13.593
67985W        W39601  39.952  43.030   0.373
67986W        W39602  23.245   6.676  13.144
67987W        W39603  19.566   2.422  12.158
67988W        W39604   7.712  13.753   3.757
67989W        W39605  14.839  21.565   0.251
67990W        W39606  24.221  14.339   0.258
67991W        W39607  11.644  40.054   4.135
67992W        W39608   1.348  28.989   3.300
67993W        W39609  23.781  28.669  13.840
67994W        W39610  43.010   9.406  14.842
67995W        W39611   6.443  35.447  11.939
67996W        W39612  10.934  26.079  11.736
67997W        W39613  17.866  43.979   4.592
67998W        W39614   2.478  30.225   2.767
67999W        W39615  16.491  40.381   4.173
68000W        W39616  41.826  27.033  14.882
68001W        W39617  23.692  20.704   0.411
68002W        W39618   5.900  41.984  12.539
68003W        W39619   2.124   6.730   3.244
68004W        W39620  37.024   0.472   4.855
68005W        W39621  24.772  44.336  14.874
68006W        W39622  37.024  24.510  12.335
68007W        W39623  21.098  37.978  12.337
68008W        W39624  23.185  18.057  11.144
68009W        W39625   2.663   2.758  11.975
68010W        W39626   6.417  31.036  14.441
68011W        W39627  43.785  34.110   4.129
68012W        W39628  41.598  30.882  13.056
68013W        W39629  10.283  23.785  13.543
68014W        W39630  20.619  21.595   0.749
68015W        W39631  35.391  16.661  12.510
68016W        W39632  13.121  16.286   4.165
68017W        W39633  18.987  16.056   1.136
68018W        W39634  31.573  22.729  10.576
68019W        W39635  36.649  11.347   3.599
68020W        W39636  33.939  15.978   4.087
68021W        W39637   1.810  23.827  12.110
68022W        W39638   9.620  32.424  11.959
68023W        W39639  10.376  21.928  13.922
68024W        W39640   3.952  19.234   4.169
68025W        W39641  41.717  14.194  10.660
68026W        W39642  15.481   0.812   0.815
68027W        W39643  24.988  18.062  11.161
68028W        W39644  27.708  17.672   2.698
68029W        W39645  22.257   7.320   1.385
68030W        W39646  30.459  18.644   1.740
68031W        W39647  12.262  42.011   4.165
68032W        W39648  17.874   1.933  13.864
68033W        W39649  28.985  16.409   4.201
68034W        W39650   2.795   6.441  12.011
68035W        W39651  41.465  28.014  12.403
68036W        W39652  38.432  24.839   4.435
68037W        W39653  13.755  22.050  13.510
68038W        W39654  43.972  27.410   4.789
68039W        W39655   8.782  19.226  11.150
68040W        W39656  37.806   4.924  14.987
68041W        W39657   9.075  10.407   3.549
68042W        W39658  15.157  38.695  10.314
68043W        W39659  26.741  11.594  11.126
68044W        W39660  44.354  28.561  10.310
68045W        W39661  21.742   3.919   2.276
68046W        W39662  44.545  30.965   2.164
68047W        W39663  15.379  18.786   3.724
68048W        W39664   8.123  41.127   4.012
68049W        W39665   6.375  14.652   0.438
68050W        W39666  12.396  31.970   2.826
68051W        W39667   5.778   7.564  14.281
68052W        W39668  32.221  29.124  12.883
68053W        W39669  22.493  38.079  12.534
68054W        W39670  14.112  13.019  12.838
68055W        W39671  26.510  32.977  12.909
68056W        W39672  37.571  25.177   2.756
68057W        W39673   4.329   4.715  14.992
68058W        W39674  23.749  41.952   2.705
68059W        W39675  17.134  14.624   0.259
68060W        W39676  22.891   2.340  12.266
68061W        W39677  25.570  38.734  12.119
68062W        W39678  14.393  28.918   1.345
68063W        W39679   9.856   3.711  13.563
68064W        W39680   4.155  23.165   0.379
68065W        W39681   2.262   2.991  10.742
68066W        W39682  12.403  39.603  14.862
68067W        W39683  27.466  33.266   0.333
68068W        W39684  24.949  31.972  10.621
68069W        W39685  30.931   0.387  14.854
68070W        W39686  32.392   9.281  11.490
68071W        W39687  37.299  40.091  12.201
68072W        W39688   8.784  43.048   1.662
68073W        W39689   5.172  26.214  12.593
68074W        W39690  26.623  42.342   2.876
68075W        W39691   6.465   0.189   2.401
68076W        W39692  12.929  19.728   1.920
68077W        W39693   7.384  21.443   1.873
68078W        W39694   9.698  27.707   0.348
68079W        W39695  39.940  35.222  14.977
68080W        W39696  11.595   7.226   1.212
68081W        W39697  42.314  20.033  12.979
68082W        W39698  21.093  26.378   0.794
68083W        W39699  26.770  15.114  14.279
68084W        W39700  38.363   8.591  13.778
68085W        W39701  38.925   8.184   4.193
68086W        W39702  27.132  14.149  14.237
68087W        W39703  42.665  17.518  13.829
68088W        W39704  42.811  14.117   1.368
68089W        W39705  12.436   4.645  12.489
68090W        W39706   0.015  25.227  10.670
68091W        W39707  38.580  35.321  11.164
68092W        W39708  41.514  39.854  11.591
68093W        W39709  11.284  42.775  10.789
68094W        W39710  40.495  32.443   4.510
68095W        W39711  27.663  32.053  12.630
68096W        W39712  42.001  38.973   3.465
68097W        W39713   3.828  39.273   3.214
68098W        W39714   6.968   2.268   1.168
68099W        W39715  16.658  39.314   3.132
68100W        W39716   8.328  19.291  14.312
68101W        W39717  13.366   4.919  11.650
68102W        W39718   5.282  21.639  13.763
68103W        W39719  22.293  11.711  13.168
68104W        W39720   4.292  22.724   3.702
68105W        W39721  12.080   7.355   1.232
68106W        W39722  26.970   2.840   0.728
68107W        W39723   1.399  21.989   1.339
68108W        W39724  42.701   8.665  11.266
68109W        W39725  29.186  34.931  12.505
68110W        W39726  34.109  25.068  11.910
68111W        W39727  11.347   2.679   3.306
68112W        W39728  38.318  13.609   3.999
68113W        W39729   1.744  27.115  12.357
68114W        W39730  27.082  13.770   0.214
68115W        W39731  16.386  42.759  14.533
68116W        W39732  41.218  34.847  14.946
68117W        W39733   8.801   2.035   2.462
68118W        W39734  16.178  10.708  14.940
68119W        W39735  14.336  13.620   2.618
68120W        W39736  12.661  41.018  14.007
68121W        W39737  22.569  43.113   3.213
68122W        W39738  13.042  24.063   0.629
68123W        W39739  33.921  27.856   4.261
68124W        W39740   0.184  18.594   0.296
68125W        W39741  21.944   6.131  13.503
68126W        W39742   4.169  38.789  14.792
68127W        W39743  19.124   0.755   4.474
68128W        W39744   0.456  16.108   2.260
68129W        W39745  13.108  44.486   2.851
68130W        W39746  17.759  17.127  14.019
68131W        W39747  27.451   1.189  10.628
68132W        W39748  20.639  22.378  13.863
68133W        W39749  19.079   2.253   4.314
68134W        W39750   3.902  25.398   1.240
68135W        W39751   1.838  20.681   3.316
68136W        W39752  35.912  23.932  13.309
68137W        W39753  37.491   4.312   1.356
68138W        W39754   5.665  44.798   0.159
68139W        W39755  41.470  44.809  14.794
68140W        W39756  13.726  12.385   4.219
68141W        W39757   6.157   0.937   1.839
68142W        W39758  31.904   1.197  14.942
68143W        W39759  34.727  43.904   3.139
68144W        W39760   4.212  33.380  10.532
68145W        W39761  41.560  30.570  13.471
68146W        W39762  37.409  19.337  13.434
68147W        W39763   0.001  35.975  13.436
68148W        W39764  35.789   8.043   4.926
68149W        W39765  27.701  19.738  14.892
68150W        W39766  20.106   2.511  12.909
68151W        W39767  17.777  40.077  14.807
68152W        W39768   6.838  20.997   0.453
68153W        W39769  44.372  30.138   1.818
68154W        W39770  11.587   3.834   2.831
68155W        W39771  35.054  31.243   1.776
68156W        W39772  10.648  11.102  11.504
68157W        W39773   6.376   3.238   2.533
68158W        W39774  38.547  37.057   1.720
68159W        W39775  15.298  39.985   2.293
68160W        W39776  43.213  41.013  11.519
68161W        W39777  38.225   1.881  13.161
68162W        W39778   5.669   1.538  12.484
68163W        W39779   2.236  22.139  14.761
68164W        W39780   1.671   4.754   5.136
68165W        W39781  10.652  41.408   0.043
68166W        W39782  29.883  36.093  14.457
68167W        W39783  13.060  29.405   2.597
68168W        W39784   2.569  15.071  13.415
68169W        W39785   2.988  23.688   3.155
68170W        W39786  10.481   8.104  12.917
68171W        W39787  15.382  12.314  11.143
68172W        W39788  36.495   5.288   2.300
68173W        W39789  29.653  41.514   3.673
68174W        W39790   1.470  20.305  13.820
68175W        W39791   6.718   4.662   0.763
68176W        W39792   8.454   9.359   1.642
68177W        W39793   0.302  23.478   5.127
68178W        W39794   6.733  37.288  13.217
68179W        W39795  29.130   9.703   2.938
68180W        W39796  28.856   0.380  12.428
68181W        W39797   5.751  32.852  12.000
68182W        W39798  20.525  19.200   3.333
68183W        W39799   0.220  37.042  13.973
68184W        W39800  25.640  24.556  14.797
68185W        W39801  26.530  30.390   4.129
68186W        W39802  25.829  16.576   5.469
68187W        W39803   6.277  27.894   2.260
68188W        W39804  33.053   7.078  13.171
68189W        W39805  33.181  14.060  11.032
68190W        W39806  16.756  24.321   4.685
68191W        W39807  35.404  23.105  11.716
68192W        W39808   4.268   5.898   4.490
68193W        W39809   4.799  28.219  10.706
68194W        W39810  32.079   9.787   2.863
68195W        W39811  21.279   6.850   3.149
68196W        W39812   9.604  40.854  10.865
68197W        W39813  11.658   6.338   3.782
68198W        W39814  13.478  29.436   1.371
68199W        W39815  31.981  38.076  13.029
68200W        W39816  26.881  38.883   4.724
68201W        W39817  41.940  24.546   3.987
68202W        W39818  41.033  12.395  12.869
68203W        W39819  28.953  35.983   2.771
68204W        W39820  22.245  44.024   1.333
68205W        W39821  22.069  39.950  12.015
68206W        W39822  21.655  31.292  11.156
68207W        W39823   0.435   5.491  11.511
68208W        W39824  26.927  35.038   2.348
68209W        W39825   7.579   6.338  10.813
68210W        W39826   9.319  44.942  10.445
68211W        W39827   7.080   0.314  12.931
68212W        W39828   5.058  35.518   1.364
68213W        W39829   3.928  13.634  13.489
68214W        W39830  37.449   3.532   3.532
68215W        W39831  26.593   2.151   0.507
68216W        W39832  40.634  25.017  12.079
68217W        W39833  26.105  40.332   2.424
68218W        W39834  30.184  10.903  11.086
68219W        W39835  33.918  30.923  11.412
68220W        W39836  25.689  39.529  11.591
68221W        W39837  22.051   6.175  10.667
68222W        W39838   3.387  43.054   1.720
68223W        W39839   1.664  37.312  13.650
68224W        W39840  14.169  14.181   3.742
68225W        W39841  29.265  31.731  14.333
68226W        W39842  38.997  11.456  11.939
68227W        W39843  14.822  16.343   4.099
68228W        W39844  36.666  23.944  13.839
68229W        W39845  42.196  19.350   1.674
68230W        W39846   3.012  38.381   0.644
68231W        W39847  37.136  35.497   2.827
68232W        W39848  40.193  16.587   0.312
68233W        W39849  31.237  12.010  11.272
68234W        W39850   8.410  26.057   1.449
68235W        W39851   4.796   3.984   2.848
68236W        W39852  11.047  13.502   3.634
68237W        W39853  34.632  44.944   9.715
68238W        W39854  24.405  34.100   0.881
68239W        W39855  15.700   4.950  12.021
68240W        W39856  32.646  19.764  14.348
68241W        W39857  22.759   9.327  10.207
68242W        W39858  20.527   8.701  11.618
68243W        W39859  42.213  19.281   4.831
68244W        W39860  16.021  44.331   4.040
68245W        W39861  28.558  25.801   4.841
68246W        W39862  14.382  34.145   1.576
68247W        W39863  20.323  35.091   1.359
68248W        W39864   7.885  15.546  11.222
68249W        W39865  40.276  36.474   0.975
68250W        W39866  39.154  28.364  11.155
68251W        W39867  13.993  24.614  12.902
68252W        W39868  33.135   9.286   4.174
68253W        W39869  27.997   5.501   2.776
68254W        W39870   0.429  33.724  14.821
68255W        W39871  22.390  19.554   0.812
68256W        W39872  15.427  11.150   0.063
68257W        W39873  32.667  19.737  11.875
68258W        W39874  25.722   1.301   3.470
68259W        W39875  17.491  19.046  11.049
68260W        W39876   5.839  43.352   1.101
68261W        W39877  24.179   2.384   2.275
68262W        W39878   6.388  27.374   2.315
68263W        W39879   9.157   1.021  14.204
68264W        W39880   2.973  43.942  12.955
68265W        W39881   9.685  32.383   2.496
68266W        W39882  36.545   4.232  13.846
68267W        W39883  42.812  10.933   3.681
68268W        W39884  30.821  28.989   2.003
68269W        W39885   7.147  30.039   3.759
68270W        W39886  14.484  19.614  14.537
68271W        W39887  12.621   4.242   9.776
68272W        W39888  25.401   3.275   1.351
68273W        W39889  25.667  14.030   4.709
68274W        W39890  40.876  24.293   3.252
68275W        W39891  26.060  40.592  14.921
68276W        W39892  41.323   5.710  10.666
68277W        W39893  11.743  13.637  10.817
68278W        W39894  27.577  21.141   3.625
68279W        W39895  18.049   3.188  14.290
68280W        W39896  27.882  17.876   4.341
68281W        W39897   6.785  26.522  14.894
68282W        W39898  24.453  18.149  14.371
68283W        W39899  28.049  14.532  14.018
68284W        W39900   5.734  15.203  13.415
68285W        W39901  15.520   0.009  13.407
68286W        W39902  24.310  14.404   1.764
68287W        W39903  37.776  42.952   5.104
68288W        W39904  39.092  13.819   1.218
68289W        W39905  28.549  34.635   1.837
68290W        W39906  19.018  32.096   1.531
68291W        W39907  44.940  28.972   0.445
68292W        W39908  22.503  42.895   3.685
68293W        W39909  13.186   5.024   5.073
68294W        W39910  37.609  22.446  11.564
68295W        W39911   7.897   4.227   2.342
68296W        W39912  21.181  36.359  11.829
68297W        W39913  32.146  12.195  11.028
68298W        W39914  42.132  28.430   3.209
68299W        W39915   0.888  12.088   2.621
68300W        W39916  11.094   5.247  14.392
68301W        W39917  23.177  34.399  11.114
68302W        W39918   1.089  19.998  14.057
68303W        W39919  11.587  31.067   2.971
68304W        W39920  23.611  30.360  11.667
68305W        W39921  33.425   2.175   4.957
68306W        W39922  41.459  15.723   3.648
68307W        W39923  23.693   1.963   2.878
68308W        W39924  24.065   9.655  11.945
68309W        W39925  31.516  16.151   2.992
68310W        W39926  30.603  41.378   1.354
68311W        W39927   8.720  24.804  14.489
68312W        W39928  30.965  18.918  12.810
68313W        W39929   4.330   7.339   3.077
68314W        W39930   1.889  26.371   4.980
68315W        W39931  26.866  29.444   3.919
68316W        W39932  37.518  34.842   2.812
68317W        W39933  23.922   6.769   3.185
68318W        W39934  26.124  43.978   4.433
68319W        W39935  23.415  17.805   4.183
68320W        W39936  17.159  41.464  13.416
68321W        W39937  39.506  31.510   1.395
68322W        W39938   9.010  24.027   3.351
68323W        W39939  12.309  28.200  14.956
68324W        W39940  38.857  12.271   1.843
68325W        W39941  17.665  25.525   4.952
68326W        W39942  13.382   8.228  14.431
68327W        W39943  44.443  36.604  13.586
68328W        W39944  10.359  18.805  12.459
68329W        W39945   5.426   8.946   3.730
68330W        W39946  44.866  21.210   1.205
68331W        W39947  40.042  22.667   4.792
68332W        W39948  44.629  42.329  14.692
68333W        W39949   6.744   2.846  14.594
68334W        W39950   5.895  24.567  11.773
68335W        W39951  42.924  32.952   1.175
68336W        W39952  20.472   8.408   3.331
68337W        W39953   6.247   5.162   4.167
68338W        W39954  44.280  43.082  10.308
68339W        W39955   1.635  40.511  14.278
68340W        W39956  27.992  23.410  13.101
68341W        W39957  10.375  19.991  11.090
68342W        W39958  22.566  18.724  11.143
68343W        W39959  30.172   3.705   2.904
68344W        W39960  34.966  44.850  14.426
68345W        W39961  12.051  31.987   4.893
68346W        W39962   2.480  41.872  12.597
68347W        W39963  11.295  37.664   1.923
68348W        W39964  34.501  43.771   0.463
68349W        W39965  13.903  44.554  11.455
68350W        W39966  44.880  34.937   1.318
68351W        W39967  14.921  26.347   3.391
68352W        W39968  35.641  12.768  14.287
68353W        W39969   7.516  36.014  11.622
68354W        W39970  13.221  12.135  11.495
68355W        W39971  30.354   7.744  14.635
68356W        W39972   2.811  14.655   2.339
68357W        W39973  40.090  39.866  14.602
68358W        W39974   1.123  33.878   0.942
68359W        W39975  11.299   8.298  12.576
68360W        W39976  27.982   4.254  11.616
68361W        W39977   5.773  10.863   3.712
68362W        W39978  42.673  40.544  14.379
68363W        W39979  44.083  15.398   0.185
68364W        W39980   6.868  34.319   4.411
68365W        W39981  23.549  37.576   4.760
68366W        W39982  21.938  23.447  11.944
68367W        W39983  28.022  23.032   4.095
68368W        W39984  41.876   9.672  11.405
68369W        W39985  37.026  35.146  13.874
68370W        W39986  35.562  33.780   4.131
68371W        W39987  43.000  29.482   2.918
68372W        W39988  36.016   1.571   0.746
68373W        W39989  39.247  12.259   4.994
68374W        W39990  12.750   1.653  12.904
68375W        W39991  35.648  43.116  11.222
68376W        W39992  27.177   2.065  13.236
68377W        W39993  15.873  30.571   1.731
68378W        W39994  34.659  18.782  12.391
68379W        W39995  17.588  24.284   1.897
68380W        W39996  40.878  17.556   0.964
68381W        W39997  13.320  30.799  12.277
68382W        W39998  11.908  29.791  11.962
68383W        W39999  26.887  35.117  13.083
68384W        W40000  30.700  36.046  12.554
68385W        W40001   5.418  23.465  12.377
68386W        W40002  40.749  33.990   3.625
68387W        W40003  44.648  28.098   2.819
68388W        W40004   3.003  25.095  14.472
68389W        W40005   0.378  11.850  13.539
68390W        W40006  43.890  38.264  10.747
68391W        W40007   0.796  20.705  14.274
68392W        W40008  20.719  31.511  14.345
68393W        W40009  43.032   5.228  13.243
68394W        W40010  13.320   0.913   3.231
68395W        W40011   6.562  27.006   1.385
68396W        W40012   4.668  17.259   4.117
68397W        W40013  42.468  36.894  14.982
68398W        W40014  23.024  25.915  11.190
68399W        W40015  12.815  17.869   1.034
68400W        W40016  42.948  34.806   1.436
68401W        W40017  32.450  15.168   3.537
68402W        W40018  43.059  13.480   0.260
68403W        W40019  35.555  44.446   3.159
68404W        W40020   6.143  39.062   2.620
68405W        W40021  23.719  11.494  12.584
68406W        W40022   9.369   0.147  11.492
68407W        W40023  16.777   2.854   2.892
68408W        W40024   2.078   3.916   2.700
68409W        W40025  42.795  17.859   3.129
68410W        W40026  20.823  26.587   1.673
68411W        W40027   7.826   8.823   3.187
68412W        W40028  40.369  42.368   3.234
68413W        W40029  15.218  20.329  12.939
68414W        W40030  22.147   6.183   2.057
68415W        W40031  29.844  40.564   2.492
68416W        W40032  33.241  26.043   0.673
68417W        W40033  27.558  24.137  11.586
68418W        W40034   6.871  24.986  12.686
68419W        W40035  29.132  37.849   1.813
68420W        W40036   3.183  29.063  11.843
68421W        W40037  42.006  36.529   0.022
68422W        W40038  31.034  19.424  13.827
68423W        W40039  25.006  10.260   0.701
68424W        W40040   2.756  24.732  11.939
68425W        W40041  23.621  42.734  13.996
68426W        W40042  38.728   9.667   2.620
68427W        W40043  40.005  13.859  12.349
68428W        W40044  31.504  10.552   1.422
68429W        W40045  11.653  27.947  13.157
68430W        W40046  36.526  12.646  12.946
68431W        W40047  25.291  30.364  14.913
68432W        W40048  24.603  33.632   1.127
68433W        W40049  36.480  36.351  12.110
68434W        W40050  43.986  27.689   2.475
68435W        W40051   1.135   7.924   2.345
68436W        W40052  31.932  34.272  11.069
68437W        W40053  15.374  18.621  12.079
68438W        W40054  38.301  14.727   1.577
68439W        W40055  14.175   4.678  13.923
68440W        W40056  40.343  21.112   0.110
68441W        W40057  34.493   2.966  10.451
68442W        W40058   4.471  20.726  14.000
68443W        W40059  12.338  32.951   0.395
68444W        W40060  38.614  17.668  11.585
68445W        W40061  23.472  44.651   4.057
68446W        W40062  41.008   6.457  13.155
68447W        W40063   2.470  44.402   1.419
68448W        W40064  43.979  29.656  11.612
68449W        W40065   6.874  13.027   3.743
68450W        W40066  17.912  19.992  12.590
68451W        W40067  38.513  19.187  14.564
68452W        W40068  16.219   2.452  12.649
68453W        W40069  27.534   1.720   2.942
68454W        W40070  25.932   1.122   4.991
68455W        W40071   1.805   1.774  14.368
68456W        W40072  38.320  25.004   1.911
68457W        W40073  21.783   6.391   1.404
68458W        W40074   1.658  35.686  12.105
68459W        W40075  23.772  11.152   2.705
68460W        W40076  24.526  12.235   1.161
68461W        W40077   9.342  13.438   1.757
68462W        W40078   5.646  23.447  13.877
68463W        W40079  10.087   1.765   0.725
68464W        W40080  20.203  27.538  10.997
68465W        W40081  13.125  31.802  10.715
68466W        W40082   2.048  41.358  14.753
68467W        W40083  19.172  11.623   3.761
68468W        W40084  27.858  18.850  13.343
68469W        W40085  23.413   5.358  11.181
68470W        W40086  22.738  27.940  11.154
68471W        W40087   1.356   4.956  13.043
68472W        W40088   2.375  31.078  13.929
68473W        W40089  28.087  44.025  11.173
68474W        W40090  34.398  23.674  11.145
68475W        W40091   1.263  22.632  14.400
68476W        W40092  23.803  29.443  11.630
68477W        W40093  44.862  43.270   3.328
68478W        W40094  41.114  13.613  11.210
68479W        W40095  38.206   3.128  13.165
68480W        W40096  16.725  21.976   3.564
68481W        W40097  25.176  43.384  11.419
68482W        W40098  22.720  34.132  13.303
68483W        W40099   0.337  27.577   0.459
68484W        W40100   3.954  20.149   3.229
68485W        W40101  21.141  19.001   4.692
68486W        W40102   3.506  15.733   4.628
68487W        W40103  19.310  31.212   3.841
68488W        W40104  29.587   8.683   1.717
68489W        W40105  18.085   3.400  11.937
68490W        W40106  34.450   0.978   1.739
68491W        W40107  38.726   3.109   3.934
68492W        W40108  32.989  26.592  14.831
68493W        W40109  11.736  30.011  11.487
68494W        W40110   1.865  17.937  14.039
68495W        W40111  27.539  42.808  10.754
68496W        W40112   3.121  13.482   0.369
68497W        W40113  35.119  11.750  10.619
68498W        W40114  25.621  29.396  11.852
68499W        W40115  38.308  33.465   1.893
68500W        W40116  17.093  34.193  13.342
68501W        W40117   4.492  31.294  12.612
68502W        W40118  35.335  17.760   0.500
68503W        W40119   8.620  33.277  14.006
68504W        W40120  33.894  40.941   0.263
68505W        W40121  29.899  43.468  14.091
68506W        W40122  11.390  34.430   3.704
68507W        W40123  29.098   0.222   3.769
68508W        W40124   1.448  16.152   2.701
68509W        W40125  27.020  35.830  14.382
68510W        W40126  28.020  44.345   4.417
68511W        W40127  26.316  17.615  12.509
68512W        W40128   8.250   2.819  10.557
68513W        W40129  22.782   3.638   2.410
68514W        W40130  36.817  39.699   2.573
68515W        W40131  31.568   4.142  13.326
68516W        W40132  12.318  28.991   1.951
68517W        W40133  18.248  37.367   3.177
68518W        W40134   2.319  30.539  10.121
68519W        W40135  42.786  32.600   4.029
68520W        W40136  24.589  31.482  12.832
68521W        W40137  41.163  15.688  14.813
68522W        W40138  10.305  26.200   3.857
68523W        W40139  37.641  13.768  11.544
68524W        W40140  42.454   9.362  14.872
68525W        W40141  37.547  43.237  11.226
68526W        W40142  23.779  16.850   2.763
68527W        W40143  21.650   0.299   1.721
68528W        W40144   2.786  25.344  13.325
68529W        W40145   5.399  22.076  13.534
68530W        W40146  36.387   7.840  11.048
68531W        W40147  33.761  42.347  11.584
68532W        W40148  21.223   4.724   3.194
68533W        W40149   9.081  12.208  13.057
68534W        W40150  17.394  18.000   4.540
68535W        W40151  21.849  28.567   4.046
68536W        W40152  36.505  19.559   1.765
68537W        W40153  39.879  12.916  14.539
68538W        W40154  34.800   1.065  12.850
68539W        W40155   8.938  14.328  14.351
68540W        W40156  32.819  41.897   2.206
68541W        W40157  30.121  36.405  10.768
68542W        W40158  22.117   4.157  14.512
68543W        W40159  26.897  44.357  11.614
68544W        W40160  40.095  17.057   1.419
68545W        W40161  42.856  28.733  14.259
68546W        W40162  11.088  10.714  14.341
68547W        W40163  34.405  14.505  12.587
68548W        W40164  37.205   3.151  12.416
68549W        W40165  16.229  16.192   0.124
68550W        W40166   8.132  27.615   2.743
68551W        W40167  14.205   6.236   5.133
68552W        W40168   9.931  28.440  12.064
68553W        W40169  17.180  10.109  12.060
68554W        W40170  19.045  40.794  13.532
68555W        W40171  19.020  21.591   1.736
68556W        W40172   3.953  20.809  13.928
68557W        W40173   9.332  28.417   3.362
68558W        W40174  18.743   7.893   2.429
68559W        W40175  13.819   6.558   5.244
68560W        W40176  24.199   0.933   1.341
68561W        W40177   9.169  17.799   0.775
68562W        W40178  19.317  35.071   3.968
68563W        W40179  32.946  33.680  11.975
68564W        W40180  14.888  18.434   5.018
68565W        W40181   2.484  18.810  10.673
68566W        W40182  28.566  17.396  13.024
68567W        W40183  29.973  41.823  10.612
68568W        W40184  25.407  14.036   1.761
68569W        W40185  13.540  35.065  11.161
68570W        W40186   5.378  26.308   0.278
68571W        W40187  44.912   3.514  13.035
68572W        W40188  29.233  44.553  12.034
68573W        W40189   5.336  36.952   0.057
68574W        W40190  28.597  33.443   2.279
68575W        W40191   2.404  27.064  11.675
68576W        W40192  43.848  25.490   1.238
68577W        W40193  13.515   3.320   3.746
68578W        W40194  31.935   1.060  11.500
68579W        W40195   0.131   2.587   1.311
68580W        W40196  21.015   7.595  11.185
68581W        W40197  44.269  25.932  12.765
68582W        W40198  11.241  28.974   2.105
68583W        W40199  40.830  36.807  13.568
68584W        W40200   1.799  24.591   1.884
68585W        W40201  21.692   2.253  13.424
68586W        W40202  29.099  29.141  10.319
68587W        W40203  42.369  42.742   0.808
68588W        W40204  37.273   1.444  12.427
68589W        W40205  29.888  15.208  14.947
68590W        W40206  31.503  44.280   3.743
68591W        W40207  10.048  24.599   0.373
68592W        W40208   1.210  21.700   0.935
68593W        W40209  19.361   5.926   3.182
68594W        W40210   1.359  23.293  11.130
68595W        W40211  29.259  21.753   2.779
68596W        W40212  33.197  11.758  10.413
68597W        W40213  23.481   7.215   4.450
68598W        W40214  29.447   2.411  14.020
68599W        W40215  10.405  34.656   4.651
68600W        W40216   8.863   9.402  14.890
68601W        W40217  26.221  26.086   2.602
68602W        W40218  43.033  17.155   4.808
68603W        W40219  34.992  13.544  11.885
68604W        W40220  32.058  17.758  12.835
68605W        W40221  31.345  22.196  11.035
68606W        W40222   9.558  20.084  12.323
68607W        W40223  41.841  10.893   2.695
68608W        W40224  22.226   5.385  12.035
68609W        W40225  11.870  37.381   4.657
68610W        W40226  36.850  33.462  12.463
68611W        W40227  33.233   8.113  10.764
68612W        W40228  12.347  14.203   1.048
68613W        W40229  28.168  31.215  12.465
68614W        W40230  28.716   6.071   2.866
68615W        W40231  11.658  22.588  13.318
68616W        W40232   2.953  31.197   0.924
68617W        W40233  12.466  11.706  11.144
68618W        W40234  35.470   6.446   2.906
68619W        W40235  27.472  24.410  12.358
68620W        W40236  18.654  20.490  11.821
68621W        W40237   5.168   2.383  14.094
68622W        W40238   4.981  10.356   3.780
68623W        W40239  22.568   5.210   3.196
68624W        W40240   0.493  12.013   0.033
68625W        W40241  11.812   4.196  12.991
68626W        W40242  18.069   5.894   4.456
68627W        W40243   4.242   1.230  12.381
68628W        W40244  28.423  43.334  14.241
68629W        W40245   9.656   5.829   0.473
68630W        W40246  26.168  41.252   2.189
68631W        W40247   9.784  24.687   1.303
68632W        W40248  11.144  31.558   0.347
68633W        W40249  29.341  26.943  14.823
68634W        W40250  14.254  20.094   2.841
68635W        W40251  19.151  21.963  10.588
68636W        W40252  29.140   0.007   1.406
68637W        W40253  27.177   3.231   4.647
68638W        W40254  40.149  30.653  13.784
68639W        W40255  24.301  37.520  12.057
68640W        W40256  28.708  44.298   0.786
68641W        W40257  34.106   1.493   4.963
68642W        W40258  38.037  13.033  11.070
68643W        W40259   1.694  21.574   4.306
68644W        W40260   7.214  22.475  13.043
68645W        W40261  30.096   9.327   0.217
68646W        W40262   5.440  19.620   0.742
68647W        W40263  29.383  27.693   9.709
68648W        W40264   8.331  41.081   4.480
68649W        W40265  33.203  40.975   3.168
68650W        W40266  42.779  33.522   1.810
68651W        W40267  44.952  26.040   0.056
68652W        W40268  15.354  21.243   0.230
68653W        W40269  21.464   2.441  12.532
68654W        W40270  36.890  36.882   3.459
68655W        W40271   5.754   1.842  14.463
68656W        W40272   2.281   8.158  11.705
68657W        W40273  39.528  15.205   4.386
68658W        W40274   3.849  22.111   3.211
68659W        W40275   0.278  17.039  11.521
68660W        W40276  40.445  20.100  11.458
68661W        W40277  13.638   5.409  14.408
68662W        W40278  21.899  23.565   2.397
68663W        W40279  36.544   6.268   2.770
68664W        W40280   6.951  34.897   0.717
68665W        W40281  20.738  24.454   2.365
68666W        W40282  10.390  10.390   1.751
68667W        W40283  20.157  28.464   2.542
68668W        W40284  42.944  20.513   4.631
68669W        W40285  29.928  19.783  13.386
68670W        W40286  14.290  11.818   4.096
68671W        W40287  21.054  35.496   1.448
68672W        W40288  34.018  29.658  11.910
68673W        W40289   5.401  38.503  13.420
68674W        W40290  13.525   5.335   0.310
68675W        W40291   4.173  30.009   3.759
68676W        W40292  13.318  20.173  12.239
68677W        W40293  38.819  35.827  12.006
68678W        W40294  19.657   4.829   1.280
68679W        W40295  39.069  10.621  11.647
68680W        W40296  36.679  37.728  11.982
68681W        W40297   0.675  22.997   0.430
68682W        W40298  12.190   0.958   0.827
68683W        W40299   6.351  10.035   3.124
68684W        W40300  26.201   1.305  12.539
68685W        W40301  23.442   5.904  10.615
68686W        W40302  21.009  28.131  10.834
68687W        W40303  38.957   6.569  10.530
68688W        W40304  15.894  18.064   1.892
68689W        W40305  42.074  32.161   3.986
68690W        W40306  36.978  38.663   0.538
68691W        W40307  36.939  24.733   2.230
68692W        W40308  37.353  13.765  11.113
68693W        W40309   3.795  40.921  11.158
68694W        W40310  32.608  24.718   3.607
68695W        W40311   0.452   4.891  11.521
68696W        W40312  12.416  28.451  12.820
68697W        W40313  31.324   7.819  14.158
68698W        W40314   0.543  42.479   1.986
68699W        W40315  23.504  29.210   1.079
68700W        W40316   4.199  19.716   4.214
68701W        W40317   5.811   1.996   2.195
68702W        W40318  12.127  10.715  14.344
68703W        W40319  28.133  18.165   3.554
68704W        W40320  44.940   1.810   4.640
68705W        W40321  26.353  33.999  12.904
68706W        W40322  13.937  38.827   2.902
68707W        W40323   2.886  18.769   3.770
68708W        W40324  41.849  15.891   1.687
68709W        W40325  41.541  44.789   0.455
68710W        W40326  36.475  31.484   4.344
68711W        W40327   5.104   4.790   4.220
68712W        W40328   6.415   3.361  10.409
68713W        W40329   2.026  25.605  11.467
68714W        W40330  43.795  30.937   4.682
68715W        W40331  43.510  12.861  11.952
68716W        W40332  22.052  11.264  10.680
68717W        W40333  22.941   5.246  13.498
68718W        W40334  32.833  14.454  13.449
68719W        W40335  21.991  33.946  12.524
68720W        W40336  17.361  44.923   4.990
68721W        W40337  36.474  40.550  13.516
68722W        W40338  13.623  44.546   3.992
68723W        W40339  31.502  43.526   1.817
68724W        W40340   4.130  17.198   4.147
68725W        W40341  29.480  36.908   0.981
68726W        W40342  23.136  15.709   2.443
68727W        W40343  18.369   7.449  12.923
68728W        W40344  25.205  32.261   3.667
68729W        W40345  33.112   1.239  11.659
68730W        W40346  38.400  26.409   3.184
68731W        W40347  20.072  22.717  10.927
68732W        W40348  35.368  22.473   3.836
68733W        W40349  26.389  27.408  11.822
68734W        W40350  10.818  32.508  12.057
68735W        W40351  15.830  41.532   3.310
68736W        W40352  28.851   9.613   3.934
68737W        W40353  37.844  16.226   4.304
68738W        W40354   8.741  21.744  13.400
68739W        W40355  44.646   0.631  12.404
68740W        W40356   0.889  37.859  14.074
68741W        W40357  16.262  44.988   4.247
68742W        W40358   5.495  35.301   1.186
68743W        W40359   6.744  29.616   4.543
68744W        W40360  30.170   5.960  12.484
68745W        W40361  25.163  28.075   4.677
68746W        W40362  35.298  36.139  13.839
68747W        W40363  38.101   7.065  11.962
68748W        W40364   8.209   5.467  12.214
68749W        W40365  17.579  34.469   2.454
68750W        W40366  30.377  38.801   3.800
68751W        W40367   4.582  27.339  14.827
68752W        W40368  27.266  13.179   1.974
68753W        W40369  31.206  37.542  11.662
68754W        W40370   3.305  22.043   0.474
68755W        W40371  31.498  40.121  12.604
68756W        W40372   6.750   6.150   1.045
68757W        W40373   4.233   2.684   3.134
68758W        W40374  26.074  41.745   3.152
68759W        W40375  33.534  15.856  11.168
68760W        W40376  13.335  34.965  11.660
68761W        W40377  20.510  27.531  13.244
68762W        W40378  11.308   9.963  14.106
68763W        W40379  35.445  15.924  13.436
68764W        W40380  35.150  12.729  14.394
68765W        W40381  40.633  14.419  12.516
68766W        W40382  36.123  28.075  10.450
68767W        W40383  40.669  34.448  13.493
68768W        W40384  23.785  19.668  11.190
68769W        W40385  42.245   6.222  12.990
68770W        W40386  32.914  43.259   1.679
68771W        W40387  34.569   4.635  13.415
68772W        W40388  43.847   1.039   1.258
68773W        W40389  28.906   0.944   1.443
68774W        W40390   5.706  37.112  12.631
68775W        W40391  42.864  25.536   0.200
68776W        W40392  12.016  38.581  11.522
68777W        W40393  35.931  33.284  13.338
68778W        W40394  39.837   3.965   0.255
68779W        W40395   8.335  33.597  11.532
68780W        W40396   5.351   5.775   0.482
68781W        W40397  27.550  21.195   3.121
68782W        W40398   5.527  41.815   2.882
68783W        W40399  23.296  40.266   2.383
68784W        W40400  16.341  43.942  14.980
68785W        W40401   5.982  16.461  11.049
68786W        W40402  13.080  28.702   4.786
68787W        W40403   0.308  33.587   3.256
68788W        W40404   6.897  17.339  11.939
68789W        W40405  12.890  16.759   4.125
68790W        W40406  27.973   7.627  13.099
68791W        W40407  35.972  14.327   1.558
68792W        W40408  40.951   7.348  13.700
68793W        W40409  35.340  43.864   0.431
68794W        W40410   2.964   8.087   4.843
68795W        W40411  40.525  31.905  14.993
68796W        W40412  13.864  26.633  10.849
68797W        W40413  32.854   4.851  13.180
68798W        W40414  18.978  18.537   2.330
68799W        W40415  33.515  37.553  13.607
68800W        W40416  28.701   4.229  14.370
68801W        W40417  44.048  43.475  14.006
68802W        W40418  32.605  11.273   0.785
68803W        W40419   1.345  40.288   4.531
68804W        W40420  14.383  24.141   3.051
68805W        W40421   4.426  19.559   3.750
68806W        W40422   7.836  27.151  10.512
68807W        W40423  11.612   8.579   2.653
68808W        W40424  35.903   6.208   4.585
68809W        W40425   8.324  27.984   0.024
68810W        W40426  33.170   4.919   3.245
68811W        W40427  10.127   8.400  13.748
68812W        W40428   6.612  31.031   0.343
68813W        W40429  39.886  16.766   0.945
68814W        W40430  35.328  15.534   0.876
68815W        W40431   1.284  14.036  13.092
68816W        W40432   1.425  35.990   3.204
68817W        W40433  41.459  16.048   3.189
68818W        W40434   0.472  34.603   3.381
68819W        W40435  14.998  30.493  12.858
68820W        W40436  17.119  30.511   2.134
68821W        W40437  19.812  35.117   4.103
68822W        W40438  37.998  21.060  11.504
68823W        W40439  25.519  43.474  14.294
68824W        W40440   8.184  30.658   2.483
68825W        W40441  34.907  16.254   3.588
68826W        W40442  24.036   2.360  12.555
68827W        W40443  28.503  30.111  14.491
68828W        W40444  41.799  36.242  11.075
68829W        W40445  41.480  34.872  14.325
68830W        W40446  35.903  38.748   5.179
68831W        W40447  40.328   7.933   4.076
68832W        W40448   5.106  41.971   1.455
68833W        W40449  30.801  21.263  13.760
68834W        W40450  36.115  15.626  11.044
68835W        W40451  32.994  41.332   4.812
68836W        W40452   3.951   0.178   3.370
68837W        W40453  19.398  12.191   4.495
68838W        W40454  18.200  29.516  12.079
68839W        W40455   1.258  15.755  10.721
68840W        W40456  31.128  30.414   5.537
68841W        W40457  28.012   0.214   3.935
68842W        W40458  12.627   8.334   4.736
68843W        W40459   1.325  42.588  10.606
68844W        W40460  21.307  17.185   4.643
68845W        W40461  35.051  18.146  10.658
68846W        W40462  16.632   0.732   1.709
68847W        W40463   2.702   4.439  13.385
68848W        W40464  44.858  24.010  14.733
68849W        W40465  12.676  34.822  12.825
68850W        W40466  24.008  36.381   4.906
68851W        W40467  32.539   0.665  10.288
68852W        W40468  18.541   1.933   4.127
68853W        W40469  22.793  28.000  14.346
68854W        W40470  31.577  29.701   4.683
68855W        W40471  11.980  20.687  11.273
68856W        W40472  42.936  38.401  13.090
68857W        W40473  27.296  10.870  12.775
68858W        W40474  15.582  27.216  13.372
68859W        W40475  19.219  18.746  12.915
68860W        W40476  28.413   2.456  14.701
68861W        W40477  36.435   5.445  12.062
68862W        W40478  44.286  10.210  11.724
68863W        W40479  12.249   6.188  12.560
68864W        W40480  10.379  12.607   3.336
68865W        W40481  43.824  35.201   9.462
68866W        W40482   9.850  26.504  12.614
68867W        W40483  16.307  35.914  11.696
68868W        W40484  26.024   5.875   2.856
68869W        W40485  39.242  32.518   4.564
68870W        W40486  24.754   4.196   3.087
68871W        W40487  13.662   4.366   4.065
68872W        W40488   8.408   1.997   2.815
68873W        W40489  23.052  32.064  12.187
68874W        W40490  43.483  31.171   2.148
68875W        W40491  43.399  40.659   3.179
68876W        W40492  22.165  20.264  14.574
68877W        W40493  27.143  20.032  13.185
68878W        W40494  36.068  13.210   2.257
68879W        W40495   3.704   5.676  10.707
68880W        W40496   4.563  42.004   1.736
68881W        W40497  30.983  31.408  12.091
68882W        W40498   8.224   8.881  11.930
68883W        W40499  44.513  32.884   4.134
68884W        W40500  44.779  33.807   1.287
68885W        W40501  23.451   4.186  14.940
68886W        W40502  36.467  34.843   0.899
68887W        W40503  41.001  15.622   2.868
68888W        W40504  35.922  37.784   2.864
68889W        W40505  40.786  22.102  12.880
68890W        W40506   0.940   3.905   2.316
68891W        W40507  32.156  29.568   0.404
68892W        W40508   7.014   9.361  13.582
68893W        W40509   6.244  11.011  12.411
68894W        W40510  20.695  15.033  12.408
68895W        W40511   5.956  22.683  12.593
68896W        W40512  38.271   7.283   0.275
68897W        W40513  35.499  20.789   1.308
68898W        W40514  13.743  16.892  13.925
68899W        W40515  21.104  42.740  11.692
68900W        W40516  39.920   8.304   0.356
68901W        W40517  13.272   5.765  13.811
68902W        W40518  35.320   7.511   3.084
68903W        W40519   8.404   5.742   4.854
68904W        W40520  11.841  10.107   0.747
68905W        W40521  38.686  17.041  11.064
68906W        W40522  38.181  28.069   2.406
68907W        W40523  24.893  40.967   2.285
68908W        W40524   7.265  24.171  13.239
68909W        W40525  26.818  29.951  12.929
68910W        W40526   3.652   4.242  14.721
68911W        W40527  17.569  12.068  10.723
68912W        W40528   0.863  13.059  14.355
68913W        W40529  40.320  23.016  12.499
68914W        W40530  42.102  30.949  13.042
68915W        W40531  30.384  25.059   0.351
68916W        W40532   7.025  32.406   4.267
68917W        W40533  37.565   0.877   2.856
68918W        W40534   6.964  19.569  11.410
68919W        W40535  38.396   2.661  13.269
68920W        W40536  29.967  16.249   0.500
68921W        W40537  40.796  21.063  14.055
68922W        W40538  28.989  24.147  11.000
68923W        W40539  32.254  13.018   2.602
68924W        W40540  18.807  35.169  12.503
68925W        W40541   3.279  21.224  14.876
68926W        W40542  31.412   8.630  14.016
68927W        W40543   1.991  23.571  12.521
68928W        W40544  11.647  36.673  12.144
68929W        W40545  13.958  38.286   3.815
68930W        W40546  34.053  17.567  12.102
68931W        W40547  40.830  31.017  14.797
68932W        W40548  21.304  30.444   3.342
68933W        W40549  41.362  15.745   0.414
68934W        W40550  44.776  15.147  11.532
68935W        W40551  16.194  35.111  14.303
68936W        W40552  40.181   2.558  11.071
68937W        W40553   7.447   0.417  14.121
68938W        W40554   2.567  32.331  10.449
68939W        W40555  39.783  20.993   3.663
68940W        W40556   5.730  36.099  12.856
68941W        W40557  24.484  43.421   1.236
68942W        W40558   4.726  10.377  12.946
68943W        W40559  40.448  29.492   1.184
68944W        W40560  10.612  29.109  12.110
68945W        W40561  40.122  36.517  11.990
68946W        W40562  42.977  13.410  14.408
68947W        W40563  22.997   6.229   0.117
68948W        W40564   0.445  11.619   4.466
68949W        W40565  14.112   2.277   4.641
68950W        W40566  39.352  29.473  13.371
68951W        W40567  16.912  17.152  10.714
68952W        W40568  12.815  30.621   3.134
68953W        W40569  17.794  18.118   0.510
68954W        W40570   3.390  12.248   2.127
68955W        W40571  11.748  36.563  10.893
68956W        W40572  30.676  10.798   3.877
68957W        W40573  29.697  11.435  14.322
68958W        W40574  15.174  29.708  11.074
68959W        W40575  27.058  12.734   2.162
68960W        W40576   4.852  24.314   3.262
68961W        W40577  40.586  31.679  13.310
68962W        W40578  39.287  39.397  12.451
68963W        W40579  32.381   3.200  12.967
68964W        W40580  44.110  41.690  11.572
68965W        W40581  35.359  23.457  10.976
68966W        W40582   1.334   1.786  10.632
68967W        W40583  13.911  18.147  13.185
68968W        W40584   1.874  36.373  11.573
68969W        W40585  33.940   8.751  14.241
68970W        W40586   5.449  23.188   1.279
68971W        W40587  37.042  42.096  10.798
68972W        W40588  35.120  29.203   1.488
68973W        W40589  30.387  12.641   1.799
68974W        W40590  26.965  16.836   9.804
68975W        W40591  24.373   4.914  10.226
68976W        W40592  14.796  23.596  12.668
68977W        W40593  24.058   6.337  13.397
68978W        W40594  15.799  15.218   1.799
68979W        W40595   6.448  17.147  13.737
68980W        W40596  38.662  34.770  10.230
68981W        W40597  14.784  11.730   4.902
68982W        W40598   3.436  28.338  14.562
68983W        W40599  38.566  43.948   3.685
68984W        W40600   2.238  37.418   5.100
68985W        W40601  42.990  42.093   1.143
68986W        W40602  31.249   7.752  11.473
68987W        W40603  23.062  26.026  14.998
68988W        W40604   0.247  12.746   0.276
68989W        W40605   5.836  26.529  11.142
68990W        W40606  13.442  42.834  12.402
68991W        W40607   3.703  12.628  12.135
68992W        W40608   6.591  20.212   2.909
68993W        W40609  40.475  43.410  13.555
68994W        W40610  33.954  38.641   0.852
68995W        W40611  36.087  11.604  10.250
68996W        W40612  16.583  31.976   1.632
68997W        W40613   1.259  30.848  11.898
68998W        W40614  10.901   1.782  12.659
68999W        W40615  13.763  44.902  10.660
69000W        W40616  22.237  25.510   2.294
69001W        W40617  21.476   3.846  12.465
69002W        W40618   5.694  35.834  12.418
69003W        W40619   8.129   5.853  11.905
69004W        W40620  28.998  44.757   3.192
69005W        W40621  30.493   3.869   0.492
69006W        W40622   4.826   9.577  13.070
69007W        W40623  39.345  41.009   1.691
69008W        W40624   9.869   8.153   0.505
69009W        W40625  11.334  36.548   1.348
69010W        W40626  21.990  24.515   3.761
69011W        W40627   4.988  12.603   3.187
69012W        W40628  34.849   1.253  14.380
69013W        W40629  39.933   8.214  13.941
69014W        W40630  20.023  39.521   1.026
69015W        W40631  17.816   9.133  14.089
69016W        W40632  21.176  35.174  14.046
69017W        W40633  32.099  41.412   0.284
69018W        W40634   0.357   1.952  10.575
69019W        W40635  36.325   7.773  12.536
69020W        W40636  19.199   8.915   4.053
69021W        W40637   5.267  33.421   0.727
69022W        W40638  35.875  25.969   4.120
69023W        W40639   5.267  24.080   3.567
69024W        W40640  40.775  33.533  13.129
69025W        W40641  24.412  33.626  10.630
69026W        W40642  42.900  26.953  13.417
69027W        W40643   9.443   1.269   3.450
69028W        W40644   9.777  11.943  13.525
69029W        W40645  25.538  42.402  13.898
69030W        W40646  36.621  19.620   4.204
69031W        W40647  25.508  31.794  13.203
69032W        W40648  31.509   8.095  12.870
69033W        W40649  44.310  32.697   4.619
69034W        W40650  12.776   1.500  13.986
69035W        W40651  39.401  18.702   0.868
69036W        W40652  10.643   1.937  14.258
69037W        W40653  19.213  34.911   4.921
69038W        W40654   5.986   4.378  14.409
69039W        W40655   1.925  40.803   3.828
69040W        W40656  28.895  30.775  13.601
69041W        W40657  10.643  35.458   1.355
69042W        W40658  42.536  35.475  10.297
69043W        W40659  40.142  42.889  13.406
69044W        W40660   8.424  22.969  11.464
69045W        W40661  26.827  28.548   1.019
69046W        W40662  41.468   1.728  11.889
69047W        W40663  27.119  33.447  14.015
69048W        W40664   1.648   1.929   0.520
69049W        W40665  44.369   0.983   2.846
69050W        W40666  33.822  44.949  10.779
69051W        W40667  37.956   1.861   5.044
69052W        W40668  16.125  31.198   0.744
69053W        W40669  12.649  26.727   3.879
69054W        W40670   6.654  37.374  10.793
69055W        W40671  12.376  29.059  13.341
69056W        W40672  29.107  21.708  11.113
69057W        W40673  37.957  29.267  10.610
69058W        W40674  33.661  25.670   4.214
69059W        W40675   3.409   6.137   3.175
69060W        W40676  30.371  23.914   2.485
69061W        W40677   8.748  31.621  13.614
69062W        W40678  35.329  24.127   1.390
69063W        W40679  44.692  15.754   1.788
69064W        W40680  27.481  42.741   2.635
69065W        W40681  10.404   2.490  11.565
69066W        W40682  25.731  28.960   4.176
69067W        W40683  19.311  33.960   2.324
69068W        W40684  18.753  32.883   3.317
69069W        W40685  35.950  11.131  10.107
69070W        W40686  34.553  31.887   2.267
69071W        W40687  21.097  22.992   2.883
69072W        W40688  31.237  27.203   2.420
69073W        W40689  28.882  20.853  13.078
69074W        W40690  17.358  17.692   5.488
69075W        W40691  19.695  26.873   0.572
69076W        W40692  26.858   7.134  11.994
69077W        W40693  16.560  32.645  10.719
69078W        W40694   7.829   3.312  10.724
69079W        W40695  39.820  10.388  13.604
69080W        W40696   3.778  24.216   2.746
69081W        W40697  36.583  15.610   2.617
69082W        W40698  23.008  18.520   0.875
69083W        W40699  36.950   1.806   1.508
69084W        W40700  40.319   2.636   4.683
69085W        W40701   6.579  40.392  10.609
69086W        W40702  18.961  22.990   4.078
69087W        W40703  39.478   9.349   1.820
69088W        W40704   3.369  42.021  10.590
69089W        W40705  41.435  35.568  13.581
69090W        W40706  19.314   9.732   2.443
69091W        W40707   4.542  15.357  12.680
69092W        W40708  24.929  34.845   3.236
69093W        W40709  19.307  33.209   4.738
69094W        W40710  21.084   8.115  11.184
69095W        W40711  11.884  43.356   2.199
69096W        W40712  38.029   3.929   4.569
69097W        W40713  16.741  33.139  11.532
69098W        W40714   7.446  42.790  12.888
69099W        W40715   0.143  34.334  12.122
69100W        W40716  27.927  38.520  11.373
69101W        W40717  29.191  11.141  11.962
69102W        W40718  36.314  15.728   1.188
69103W        W40719   8.213   9.563   3.292
69104W        W40720  44.976  11.714   4.800
69105W        W40721  26.950  21.234   1.295
69106W        W40722  36.015  16.763   2.745
69107W        W40723  30.173  19.710  12.542
69108W        W40724   0.741  36.414   0.907
69109W        W40725  28.725  11.360   0.279
69110W        W40726   3.271   0.309  11.583
69111W        W40727  39.153  40.288   5.173
69112W        W40728  23.703   5.065  14.966
69113W        W40729  32.060  35.043  14.218
69114W        W40730  10.445   4.988  13.445
69115W        W40731  20.708  29.405  13.407
69116W        W40732  20.236   9.794  14.117
69117W        W40733  41.439   2.999   1.913
69118W        W40734  29.607  39.317  13.936
69119W        W40735   8.326  28.449  10.690
69120W        W40736  28.446   2.224   4.659
69121W        W40737  29.406  38.078  14.447
69122W        W40738  10.073  31.440  14.423
69123W        W40739  36.394  44.301  14.499
69124W        W40740   8.559  36.337   0.977
69125W        W40741  29.027  15.336   4.097
69126W        W40742  27.775  36.377  10.702
69127W        W40743  30.029  36.144   1.386
69128W        W40744  37.867  18.321  10.682
69129W        W40745  43.340  28.406  13.267
69130W        W40746  25.255  15.048   3.194
69131W        W40747  11.403  39.784  12.515
69132W        W40748  30.385  28.963   1.677
69133W        W40749  16.140  31.681   1.754
69134W        W40750  23.032  13.850   0.381
69135W        W40751  29.096  21.008  10.927
69136W        W40752   6.493   6.379  14.634
69137W        W40753  33.712  39.123   1.941
69138W        W40754  15.814  34.003  12.372
69139W        W40755   1.380  38.514  14.452
69140W        W40756  39.298  36.054   0.147
69141W        W40757  34.117  27.957   3.809
69142W        W40758  40.130   7.976  12.451
69143W        W40759   6.228   2.971  14.531
69144W        W40760   7.695   4.957   0.917
69145W        W40761  11.342  10.386   4.831
69146W        W40762  42.227   8.069  14.643
69147W        W40763  41.380  20.009  11.111
69148W        W40764  41.748  31.924  10.686
69149W        W40765  39.418  22.000   2.757
69150W        W40766  37.935  37.520   2.153
69151W        W40767  41.498  34.005   1.901
69152W        W40768  18.124  37.403   1.638
69153W        W40769  30.203  21.615  12.855
69154W        W40770  33.219  20.599  12.375
69155W        W40771  21.610   7.806   2.206
69156W        W40772   2.463  15.812   3.312
69157W        W40773  22.503  12.259   2.232
69158W        W40774  15.672  10.836   1.416
69159W        W40775  13.502  39.653  10.912
69160W        W40776  34.892   3.159   2.670
69161W        W40777  26.502  44.096   4.809
69162W        W40778   0.158  10.542  10.969
69163W        W40779   2.439  11.564   0.807
69164W        W40780  10.574  12.853  13.507
69165W        W40781   8.642  12.716  12.862
69166W        W40782  11.076  15.103   2.414
69167W        W40783   2.032  20.207   2.264
69168W        W40784  39.931  14.815   1.773
69169W        W40785  37.288  30.690   1.030
69170W        W40786  30.569   2.778  13.540
69171W        W40787   9.335   6.861   1.245
69172W        W40788  19.163  31.980  13.685
69173W        W40789  24.062  29.001   1.859
69174W        W40790   2.297  40.906  14.767
69175W        W40791  15.095  35.844  11.250
69176W        W40792  12.222  20.766   0.437
69177W        W40793   2.533   0.572   3.575
69178W        W40794   4.303  43.613  13.353
69179W        W40795  12.864  23.721  12.493
69180W        W40796  20.514  26.057  12.601
69181W        W40797   7.231  10.816   3.399
69182W        W40798  37.413  37.607  14.809
69183W        W40799  15.007  13.132   4.391
69184W        W40800   9.415   3.343  12.324
69185W        W40801   7.897   7.007   3.007
69186W        W40802  42.436  11.841   1.744
69187W        W40803  37.268  18.770   5.050
69188W        W40804  31.953  28.980  11.883
69189W        W40805  17.232  27.500  13.883
69190W        W40806  22.672  27.430  14.084
69191W        W40807  44.957   3.371   1.318
69192W        W40808  42.541  21.434   2.262
69193W        W40809   6.209  12.675   4.419
69194W        W40810  26.491   4.345  14.959
69195W        W40811   9.910  44.425  13.917
69196W        W40812  22.385  24.568  11.208
69197W        W40813  33.997  11.749   0.036
69198W        W40814  22.057   4.767   0.797
69199W        W40815   4.743  40.918   2.457
69200W        W40816  15.572  15.747   3.663
69201W        W40817   1.721  15.765   2.891
69202W        W40818  30.494   0.300  12.634
69203W        W40819  40.436  21.691   4.609
69204W        W40820   9.952  31.923   9.583
69205W        W40821  17.588  38.451   4.169
69206W        W40822  19.054  28.059   3.988
69207W        W40823   4.015   6.500   1.754
69208W        W40824  23.104  44.880  14.566
69209W        W40825  14.008  35.456  13.856
69210W        W40826   1.505   7.312   0.821
69211W        W40827  24.176   6.077   3.672
69212W        W40828   2.686  26.585  12.849
69213W        W40829   3.757   4.874   0.352
69214W        W40830  40.977  25.659  14.759
69215W        W40831  29.655  34.018  14.005
69216W        W40832  34.424  14.305   4.110
69217W        W40833  25.679  15.129  13.341
69218W        W40834  16.021  26.410  13.287
69219W        W40835  38.920  26.026   4.433
69220W        W40836   5.891  27.525   4.575
69221W        W40837  41.502  11.634   2.347
69222W        W40838  39.834  15.591  11.409
69223W        W40839   3.434  21.142   0.847
69224W        W40840  36.525  25.309  12.364
69225W        W40841  30.377   1.258  12.819
69226W        W40842   0.074  12.224   4.686
69227W        W40843  17.834   4.627  12.498
69228W        W40844  37.817  25.617   2.850
69229W        W40845  33.667  28.200   3.654
69230W        W40846  16.644  20.481  12.139
69231W        W40847  35.838  14.815  14.057
69232W        W40848   2.936  35.643  13.679
69233W        W40849   1.075  10.685   0.513
69234W        W40850  27.464   6.881  11.987
69235W        W40851  39.327  41.482  10.584
69236W        W40852  34.736   8.248  13.348
69237W        W40853  10.854  32.645   1.931
69238W        W40854  24.331  28.679  14.844
69239W        W40855  26.802  30.615  14.749
69240W        W40856  29.612  23.632   0.076
69241W        W40857  34.729  30.611   5.010
69242W        W40858  21.727  26.542  14.067
69243W        W40859  19.099  13.693   4.449
69244W        W40860  29.908   0.050  11.457
69245W        W40861  12.611  35.862   2.794
69246W        W40862  24.980  21.369   1.672
69247W        W40863  40.065  27.507   4.233
69248W        W40864  10.646  11.892   0.884
69249W        W40865  37.284  31.403  14.801
69250W        W40866  29.363   1.916  13.876
69251W        W40867  38.895  13.296   2.640
69252W        W40868  11.060  33.337  14.408
69253W        W40869  29.871  42.891  11.459
69254W        W40870  15.562   3.383  11.974
69255W        W40871   4.976  18.593  14.975
69256W        W40872  39.550  39.296   0.312
69257W        W40873  11.250  26.995   2.802
69258W        W40874  28.933  35.119  14.302
69259W        W40875  19.619  15.989  14.797
69260W        W40876   0.561  11.211   4.097
69261W        W40877   9.688  16.575   0.156
69262W        W40878  16.600   8.178  13.039
69263W        W40879  33.486   7.824   3.298
69264W        W40880   0.724  37.003  13.795
69265W        W40881  20.284  36.424  10.392
69266W        W40882  12.602  22.253   2.396
69267W        W40883  18.301  26.065  14.494
69268W        W40884  40.377  28.988   1.232
69269W        W40885   3.107  40.926   4.874
69270W        W40886   8.827   7.147   1.407
69271W        W40887  29.145   4.113  14.165
69272W        W40888  33.636  41.262   4.216
69273W        W40889  29.382  39.063  11.972
69274W        W40890   1.657  43.851   4.751
69275W        W40891  28.313  37.160   2.755
69276W        W40892  39.995   3.879  12.952
69277W        W40893  33.502  30.501  10.113
69278W        W40894  15.354  17.678   4.139
69279W        W40895  21.045  34.538   1.404
69280W        W40896  25.208  22.087   3.206
69281W        W40897  10.250   9.497   0.080
69282W        W40898  38.456  27.583  11.084
69283W        W40899  29.594  20.598  13.764
69284W        W40900  36.147  12.121  10.320
69285W        W40901   7.405   0.883  14.855
69286W        W40902  16.775   5.862   3.248
69287W        W40903  30.397  17.483  12.072
69288W        W40904  17.109  12.493  13.357
69289W        W40905  28.566  28.713  14.420
69290W        W40906   8.261  15.590  10.525
69291W        W40907   5.250  11.710  13.573
69292W        W40908   8.880  13.632   2.328
69293W        W40909   3.557  30.138  14.035
69294W        W40910  37.561  41.874   3.638
69295W        W40911  20.332  34.549  10.680
69296W        W40912  22.178  24.067   1.707
69297W        W40913  42.481  19.747  12.148
69298W        W40914  26.455  13.093  12.027
69299W        W40915   8.175  38.202  13.576
69300W        W40916  39.145  14.275   4.957
69301W        W40917  44.774  24.047   2.615
69302W        W40918  33.329  37.537   0.054
69303W        W40919  17.385   6.322   4.485
69304W        W40920  32.381  26.130  11.157
69305W        W40921  42.957  12.488   1.785
69306W        W40922  17.808   6.462  14.989
69307W        W40923  28.097   8.227   0.297
69308W        W40924  31.973  12.356  12.444
69309W        W40925   4.512   9.949   2.908
69310W        W40926  12.474  24.108   2.136
69311W        W40927  36.897  42.377   3.989
69312W        W40928  39.430  17.628   0.830
69313W        W40929  19.541  34.565   0.084
69314W        W40930  42.914  17.300   3.889
69315W        W40931  11.591  44.636   3.984
69316W        W40932  17.714   3.435  14.967
69317W        W40933  22.667  16.073   4.800
69318W        W40934  42.103  35.093   2.785
69319W        W40935  40.295  40.436   0.237
69320W        W40936   6.962  11.820   0.276
69321W        W40937  44.067  41.463   2.188
69322W        W40938  13.711   2.041   2.977
69323W        W40939  11.462   0.761  14.519
69324W        W40940  28.788   7.473  12.827
69325W        W40941   3.587   0.591  10.316
69326W        W40942  19.367  31.041  12.096
69327W        W40943  23.707  37.391  14.284
69328W        W40944   4.521  33.066   2.216
69329W        W40945  18.631  19.860   2.070
69330W        W40946  31.473  14.018   2.257
69331W        W40947   5.702  33.651   1.919
69332W        W40948  40.701  43.797   1.886
69333W        W40949  16.968  31.063  10.753
69334W        W40950   5.045  12.024  11.127
69335W        W40951   5.947   5.460  12.962
69336W        W40952  19.518  13.541  11.700
69337W        W40953  32.887  37.818   4.207
69338W        W40954  11.673  39.480   0.478
69339W        W40955  21.093  37.948  10.869
69340W        W40956  18.485  12.165  12.928
69341W        W40957   2.499  18.100  11.081
69342W        W40958  27.466  11.958  10.727
69343W        W40959   3.202  17.120   0.818
69344W        W40960  40.025  33.522   3.477
69345W        W40961  24.528  18.510   3.757
69346W        W40962  37.996  29.211  12.200
69347W        W40963  34.351  41.418  10.848
69348W        W40964  10.654  24.159   2.616
69349W        W40965  35.128  18.228   0.581
69350W        W40966   4.245  22.851  10.552
69351W        W40967  33.056  43.109  11.628
69352W        W40968  29.300  15.039  12.535
69353W        W40969  44.023  39.922  11.867
69354W        W40970  12.813   4.345   3.028
69355W        W40971  30.916  24.568   3.378
69356W        W40972  25.542  13.751  13.421
69357W        W40973  43.755  27.183  13.912
69358W        W40974  24.781  14.665   4.203
69359W        W40975  41.511  29.975   2.274
69360W        W40976  40.882  37.920  12.459
69361W        W40977   8.268  16.755   2.881
69362W        W40978  16.151  19.388  11.436
69363W        W40979  29.454   2.659  11.592
69364W        W40980  35.626  43.930   3.446
69365W        W40981  34.882  37.966  11.611
69366W        W40982   8.306  18.574   2.160
69367W        W40983  26.048   7.772   4.051
69368W        W40984  42.739   6.966   4.762
69369W        W40985   7.387  10.682   0.421
69370W        W40986   5.921  42.431  11.466
69371W        W40987  37.068  10.347   0.403
69372W        W40988  28.956  36.298  12.104
69373W        W40989  17.650  28.520  11.717
69374W        W40990  18.085  11.882  13.862
69375W        W40991  20.631  34.314   1.166
69376W        W40992  15.334   4.689   0.463
69377W        W40993  31.650   7.332   3.286
69378W        W40994  17.250  18.343  10.661
69379W        W40995  10.893  18.841  14.795
69380W        W40996  15.800   6.088  14.460
69381W        W40997  29.680  30.151   4.734
69382W        W40998  18.169  18.783  11.883
69383W        W40999  39.803   6.933  13.389
69384W        W41000  32.617  25.445   1.319
69385W        W41001  23.422  41.187  14.887
69386W        W41002  13.602   7.157   2.297
69387W        W41003   8.779  15.846  11.682
69388W        W41004   5.719   1.232   3.780
69389W        W41005  41.491   0.943  14.738
69390W        W41006  35.336  18.077  13.310
69391W        W41007  31.879   9.850  11.155
69392W        W41008  26.603  16.219   2.879
69393W        W41009  40.484  37.098   0.310
69394W        W41010  27.588   0.070  14.827
69395W        W41011   8.442  24.076   2.340
69396W        W41012  20.708   4.807  11.564
69397W        W41013  18.329  26.676   4.276
69398W        W41014  28.180  23.699   2.176
69399W        W41015   7.912  22.045   2.715
69400W        W41016  38.073   9.176   4.547
69401W        W41017  31.020   7.253  12.516
69402W        W41018  11.997   6.414   4.935
69403W        W41019  32.067  34.594  13.926
69404W        W41020  17.598  15.360   0.395
69405W        W41021   5.802  41.352  13.041
69406W        W41022  10.298   7.578   4.923
69407W        W41023  22.515  34.885  11.801
69408W        W41024   5.815  20.083  11.280
69409W        W41025  42.036  43.485   4.510
69410W        W41026  11.363  26.332  11.148
69411W        W41027   9.579   2.311  14.357
69412W        W41028   3.086  19.828   4.472
69413W        W41029  10.581   1.799   2.289
69414W        W41030  24.298  26.446  14.293
69415W        W41031  12.619   6.447  12.813
69416W        W41032  13.875   9.715  12.953
69417W        W41033   4.941   8.673   1.906
69418W        W41034   9.447   5.518  14.774
69419W        W41035  24.544  10.234   4.735
69420W        W41036  38.603  32.682  13.940
69421W        W41037  31.370  16.298  11.342
69422W        W41038  33.488  38.472  14.690
69423W        W41039  37.825  35.738   1.846
69424W        W41040  34.692  35.406  14.651
69425W        W41041  37.030   0.858  10.682
69426W        W41042  37.887  21.007   4.471
69427W        W41043   7.393  20.484  12.447
69428W        W41044  16.009  29.017   0.694
69429W        W41045  25.385   3.032   4.204
69430W        W41046  41.334  28.408   0.675
69431W        W41047  35.623  27.554   1.217
69432W        W41048   4.147  29.085  12.988
69433W        W41049  20.002  28.196   1.794
69434W        W41050  32.064   2.466   1.271
69435W        W41051  13.615  28.031  13.442
69436W        W41052   3.764  16.797  12.873
69437W        W41053  27.988   9.928  10.062
69438W        W41054  40.103  31.157   4.453
69439W        W41055  12.778   7.657  11.104
69440W        W41056  28.262  12.387   1.283
69441W        W41057  37.364  12.713   4.824
69442W        W41058  35.071  15.986   4.543
69443W        W41059  23.245  34.359  14.431
69444W        W41060   7.502  44.932  14.934
69445W        W41061  43.470  17.976   1.534
69446W        W41062  28.566  31.652  11.408
69447W        W41063   7.313  27.209  12.003
69448W        W41064  40.128  14.237   9.972
69449W        W41065  36.361   2.566  12.606
69450W        W41066  15.708  33.625  14.322
69451W        W41067  37.865   3.813  14.924
69452W        W41068  27.211  12.681   0.852
69453W        W41069   0.320  27.469   2.437
69454W        W41070   6.668  41.274   4.623
69455W        W41071  27.513  28.641  11.546
69456W        W41072  40.952  20.018  14.288
69457W        W41073  14.759  17.719  12.090
69458W        W41074  35.521  38.065   4.660
69459W        W41075   3.326  39.723   4.809
69460W        W41076  13.654   8.836  11.622
69461W        W41077  30.403  13.728  13.789
69462W        W41078  20.980  41.565   0.699
69463W        W41079  15.535  11.014  11.963
69464W        W41080  23.201  25.197   1.394
69465W        W41081   6.336  39.270   0.823
69466W        W41082  35.434  27.006  10.737
69467W        W41083  34.097  23.873  11.560
69468W        W41084  20.815  28.684   2.806
69469W        W41085  42.106   5.300  11.671
69470W        W41086  17.721  40.289   3.359
69471W        W41087   0.056  33.097  14.388
69472W        W41088  15.417  12.808  10.286
69473W        W41089  14.239  25.085  14.863
69474W        W41090   8.876  13.766   3.322
69475W        W41091  33.100  31.457   0.732
69476W        W41092  16.804   4.382   3.282
69477W        W41093   1.308  27.134   3.840
69478W        W41094  26.182  44.546   3.740
69479W        W41095  26.608  30.155   3.626
69480W        W41096   8.585  38.109  10.532
69481W        W41097  37.960  29.658   2.671
69482W        W41098  36.760   1.419  12.405
69483W        W41099   0.946  31.387  11.112
69484W        W41100  36.605   1.392  14.806
69485W        W41101  30.931  26.462  11.250
69486W        W41102  37.349  35.153   0.218
69487W        W41103  34.046  33.946   2.687
69488W        W41104  33.628  36.779   3.798
69489W        W41105  30.705   4.770  11.145
69490W        W41106  12.450  21.484   3.738
69491W        W41107  25.296  25.114  13.324
69492W        W41108   7.431  13.365   1.367
69493W        W41109   6.665  44.299  13.035
69494W        W41110  17.637  29.609   0.723
69495W        W41111  33.201   2.758  10.477
69496W        W41112   1.435  28.375  13.097
69497W        W41113   2.503   8.742  14.492
69498W        W41114  40.895  25.568  11.209
69499W        W41115  34.692   0.474  10.702
69500W        W41116  31.822  19.299   4.780
69501W        W41117   4.809  28.513  14.882
69502W        W41118   8.423  20.087   1.234
69503W        W41119  22.552  21.464   4.100
69504W        W41120   0.433  34.619   4.166
69505W        W41121  39.266  39.836   4.872
69506W        W41122  23.069  27.205   0.329
69507W        W41123  14.148   0.027  13.863
69508W        W41124  42.817  40.504   3.739
69509W        W41125  21.613  10.604  12.567
69510W        W41126  13.960  30.097  11.887
69511W        W41127   2.788   7.809   0.118
69512W        W41128  25.717  21.633  10.630
69513W        W41129  23.235  12.929  12.599
69514W        W41130   2.995  33.190   0.865
69515W        W41131  44.986  33.141   4.137
69516W        W41132   5.098  22.321  12.768
69517W        W41133  25.042   4.190  14.463
69518W        W41134  19.059  15.714   2.840
69519W        W41135   4.154   4.873   2.358
69520W        W41136  42.267  29.378  11.682
69521W        W41137  19.696   0.376   0.911
69522W        W41138  22.008  14.088   4.204
69523W        W41139  13.663   8.300   3.306
69524W        W41140   4.711  18.466  14.226
69525W        W41141  28.682  22.660  14.941
69526W        W41142  24.520  42.813  10.769
69527W        W41143  31.908  43.234   2.807
69528W        W41144  14.172   7.186  11.033
69529W        W41145   2.123  10.113  12.949
69530W        W41146   3.023   8.811  13.657
69531W        W41147  38.875  10.208   2.782
69532W        W41148  31.100  19.789  12.673
69533W        W41149  28.427   3.925  11.557
69534W        W41150  44.424  44.803   0.019
69535W        W41151  33.156   3.682  12.415
69536W        W41152  17.926  31.476   3.987
69537W        W41153  12.764   0.873   1.217
69538W        W41154  44.488  26.255   4.074
69539W        W41155   8.844  13.111   3.543
69540W        W41156  41.626   1.020   0.260
69541W        W41157  16.823   5.923  12.566
69542W        W41158  11.599  19.650   2.078
69543W        W41159   3.729  26.126  11.961
69544W        W41160   2.180  35.698  12.030
69545W        W41161  18.266  25.568   2.313
69546W        W41162  38.322  18.895  11.904
69547W        W41163   5.308   6.337  12.061
69548W        W41164  25.698  33.665   1.875
69549W        W41165  26.907  30.373  10.419
69550W        W41166  42.742   7.427  13.052
69551W        W41167  26.050  21.024   1.230
69552W        W41168  28.194  19.466  14.085
69553W        W41169   0.753  28.730  13.793
69554W        W41170   1.658  26.250  11.996
69555W        W41171  36.498   2.822  13.027
69556W        W41172  22.094   5.615   4.657
69557W        W41173  33.021  28.939  14.744
69558W        W41174  30.256   0.545  12.243
69559W        W41175  21.875  20.069  11.752
69560W        W41176  29.395  33.877   3.210
69561W        W41177  33.039  36.441  12.633
69562W        W41178  19.859  35.981   2.221
69563W        W41179  24.202  18.907   2.599
69564W        W41180  41.160  34.638  12.115
69565W        W41181  27.974  31.053  14.326
69566W        W41182  39.526   4.961  10.624
69567W        W41183  26.767  14.338  14.592
69568W        W41184  43.444  19.203  10.682
69569W        W41185  34.156  23.780   1.181
69570W        W41186  11.162  10.401   2.693
69571W        W41187  18.267  12.805  14.266
69572W        W41188  22.303  39.207  12.599
69573W        W41189  42.848  31.151   0.820
69574W        W41190  13.817  17.081   3.245
69575W        W41191  14.342   9.677   2.871
69576W        W41192  35.850  36.980  12.851
69577W        W41193  19.972  38.777   3.814
69578W        W41194  24.716  20.026  14.756
69579W        W41195  14.512  26.800   3.924
69580W        W41196   7.614  17.737   0.562
69581W        W41197  32.976   2.691  14.024
69582W        W41198  17.964  15.632   4.487
69583W        W41199  32.141  19.659  14.249
69584W        W41200  31.564  24.607   3.156
69585W        W41201  33.134   7.275   1.751
69586W        W41202   4.818  35.855  11.018
69587W        W41203   9.630   8.404   1.850
69588W        W41204   7.372  26.162   2.684
69589W        W41205  23.021  28.752  11.613
69590W        W41206  26.434  30.996  11.450
69591W        W41207  42.882  40.857  11.896
69592W        W41208  13.652  13.631  10.691
69593W        W41209  31.020  26.435   3.721
69594W        W41210  12.347  27.346  14.507
69595W        W41211  44.894  19.988   4.436
69596W        W41212  42.411   1.793   3.821
69597W        W41213  41.551  41.402  11.582
69598W        W41214  22.190  27.430  12.616
69599W        W41215  37.820  16.003  11.546
69600W        W41216  16.547  42.804   2.100
69601W        W41217  29.581  12.767   3.314
69602W        W41218  38.052   7.323  12.898
69603W        W41219  38.572  28.247   0.279
69604W        W41220  32.911  42.342   1.974
69605W        W41221  13.843  36.440  10.770
69606W        W41222  15.671  29.493   2.301
69607W        W41223  34.854  31.013   2.192
69608W        W41224   8.347   3.796   1.931
69609W        W41225  34.450  29.717  14.325
69610W        W41226  21.051  12.281  11.639
69611W        W41227  20.578  18.182  13.869
69612W        W41228  42.306   3.394   2.754
69613W        W41229  39.675   4.162   1.323
69614W        W41230  23.202  37.350  11.532
69615W        W41231   8.657  43.483  11.445
69616W        W41232  17.217   2.752   0.751
69617W        W41233  22.679  34.421  10.946
69618W        W41234  26.048  24.688   4.951
69619W        W41235  33.091  31.836  11.691
69620W        W41236  24.582  28.523   2.382
69621W        W41237  24.195  14.890  11.461
69622W        W41238  13.036   0.096   0.275
69623W        W41239  29.615  31.373  14.716
69624W        W41240   6.727   5.470   4.233
69625W        W41241  36.716  44.235  11.920
69626W        W41242   7.247   3.545  12.991
69627W        W41243  25.864  17.206   0.563
69628W        W41244  16.483  27.011   1.915
69629W        W41245   9.782   8.760  14.801
69630W        W41246  23.198  30.000   5.076
69631W        W41247  27.036  24.077  11.504
69632W        W41248  22.782  41.710  13.970
69633W        W41249  13.483   4.014   3.726
69634W        W41250  41.387  32.979  12.262
69635W        W41251  25.125   9.199   3.599
69636W        W41252   3.139  15.612   5.114
69637W        W41253  38.762  28.524  14.890
69638W        W41254  41.832   6.635  12.383
69639W        W41255   1.964  43.876  13.764
69640W        W41256   5.591   2.858   0.453
69641W        W41257  15.805  29.628   0.969
69642W        W41258   6.295   7.361  13.892
69643W        W41259  14.305  31.121   2.942
69644W        W41260  35.638   1.913   0.432
69645W        W41261  39.521  44.734   3.389
69646W        W41262  24.875  28.988   3.151
69647W        W41263   6.007   9.232  10.616
69648W        W41264  29.204  14.177   4.969
69649W        W41265  15.839   4.860  13.834
69650W        W41266  19.249   9.222   4.957
69651W        W41267  31.222  32.976  13.466
69652W        W41268  25.251  41.318   2.872
69653W        W41269  14.605   3.799   1.808
69654W        W41270   5.496  23.835  13.399
69655W        W41271  25.853  26.119  13.300
69656W        W41272  41.288   4.772   3.262
69657W        W41273   8.445   5.022  12.220
69658W        W41274  44.852  24.037   0.304
69659W        W41275   3.730  44.483   0.674
69660W        W41276  39.728  17.129  10.949
69661W        W41277  34.820  26.516   2.211
69662W        W41278  21.309  24.519  12.467
69663W        W41279  25.531  38.639   2.487
69664W        W41280   1.029  17.615  12.515
69665W        W41281   2.154  39.399   2.285
69666W        W41282  42.936  24.441   1.325
69667W        W41283   2.796  34.016  11.878
69668W        W41284   0.454  13.913  10.576
69669W        W41285  43.997   5.184   2.397
69670W        W41286  30.112  29.355   1.346
69671W        W41287  17.253  40.908  12.013
69672W        W41288  35.793  37.751   0.844
69673W        W41289  36.499  42.172   1.026
69674W        W41290  26.713  44.967  10.409
69675W        W41291  11.314  16.087  13.256
69676W        W41292  18.389  41.732  13.305
69677W        W41293  10.725  10.894   3.355
69678W        W41294   2.226  23.205   3.647
69679W        W41295   9.328  14.887   2.174
69680W        W41296  23.476  15.825   2.808
69681W        W41297  32.340  18.220   4.148
69682W        W41298  12.346   8.170   0.384
69683W        W41299  32.322  19.678  13.465
69684W        W41300  13.492   8.375   2.812
69685W        W41301  25.709   4.654  14.258
69686W        W41302   1.947  39.097   1.545
69687W        W41303  16.017   1.545  14.457
69688W        W41304  16.518   7.423  14.379
69689W        W41305  25.954  17.886   3.899
69690W        W41306  39.221  40.281   3.087
69691W        W41307   4.904  20.301   3.308
69692W        W41308  28.669   4.962   1.961
69693W        W41309  33.071  22.276   3.753
69694W        W41310  13.882   8.640  11.179
69695W        W41311   8.360   7.801  10.700
69696W        W41312  18.984  22.027  11.083
69697W        W41313  34.915  43.828   0.744
69698W        W41314  18.817   5.670  12.097
69699W        W41315  25.642  11.924  11.563
69700W        W41316  35.832   2.294  13.437
69701W        W41317  12.336  20.630  13.868
69702W        W41318   3.726  41.623   3.640
69703W        W41319  29.942  23.018   3.780
69704W        W41320  16.190  37.407   4.370
69705W        W41321   1.216   0.031  11.001
69706W        W41322   7.620  32.966   3.660
69707W        W41323  38.836  26.122  10.561
69708W        W41324  12.639   2.733   0.842
69709W        W41325  32.101  22.775   1.282
69710W        W41326  26.445  39.030  10.566
69711W        W41327  38.494  21.293   2.716
69712W        W41328   6.255  19.300   3.214
69713W        W41329  16.757  20.775   1.835
69714W        W41330  32.582  28.683   1.768
69715W        W41331  44.053  29.065   0.843
69716W        W41332  35.911  19.721  12.299
69717W        W41333   9.242  26.758   2.811
69718W        W41334  17.318  22.736  11.137
69719W        W41335  41.061   7.711  10.723
69720W        W41336  17.698   4.346  13.855
69721W        W41337  37.084  34.117   1.903
69722W        W41338  16.281  20.934  14.755
69723W        W41339  26.700  44.929   2.827
69724W        W41340   1.806  23.988   1.211
69725W        W41341  30.156   6.332  12.079
69726W        W41342  24.430  10.003  13.348
69727W        W41343  31.019  25.246  11.967
69728W        W41344   2.688  12.672   4.146
69729W        W41345  13.159   4.257   1.582
69730W        W41346  32.702  15.305  11.273
69731W        W41347  11.312  13.008   3.186
69732W        W41348  29.092  24.468  10.602
69733W        W41349  22.365  18.562   1.641
69734W        W41350  18.849   7.680  11.695
69735W        W41351  13.835  23.696   2.439
69736W        W41352  17.500  26.987   2.808
69737W        W41353  40.814  17.021   1.755
69738W        W41354  24.048  26.751  10.283
69739W        W41355  43.815  40.636  10.993
69740W        W41356  33.882   3.362  12.035
69741W        W41357   2.144  31.870   1.365
69742W        W41358  35.025  14.901  13.942
69743W        W41359  14.742  12.357  14.480
69744W        W41360   2.002  15.584   0.761
69745W        W41361  27.377  43.305  12.535
69746W        W41362   2.890  26.193  11.527
69747W        W41363  39.845  22.750   2.875
69748W        W41364  32.274  32.921  13.560
69749W        W41365  41.014  31.147  11.937
69750W        W41366  34.884   4.648  11.227
69751W        W41367  22.066  14.828  12.303
69752W        W41368   4.240  30.514  10.972
69753W        W41369  22.489  32.635   0.055
69754W        W41370   0.040  18.526  11.253
69755W        W41371  10.204  39.601  12.500
69756W        W41372  13.168  22.032   0.405
69757W        W41373  36.518  37.554   3.414
69758W        W41374   7.308  13.328   3.797
69759W        W41375  20.660  15.899   2.147
69760W        W41376  34.935   2.180  10.400
69761W        W41377  44.854  31.351   4.545
69762W        W41378  32.733  10.581  11.024
69763W        W41379   0.892  24.500   4.613
69764W        W41380  40.188  19.134   1.864
69765W        W41381  18.995  33.048  14.835
69766W        W41382  25.632  15.813  12.155
69767W        W41383   6.873   4.011   4.491
69768W        W41384  21.369  14.277  12.304
69769W        W41385  44.941   2.243   3.120
69770W        W41386  17.380   7.493  14.451
69771W        W41387  31.390  10.659   2.204
69772W        W41388  29.719  23.998   4.849
69773W        W41389  15.536  40.468  13.516
69774W        W41390  30.019  13.098   2.754
69775W        W41391  27.462  19.781   3.807
69776W        W41392  30.384   2.632   3.668
69777W        W41393   1.244  20.434  14.277
69778W        W41394  37.360   2.336  12.664
69779W        W41395   3.833  12.211  10.379
69780W        W41396  31.058  31.499   1.887
69781W        W41397  14.585  42.229   3.701
69782W        W41398  44.770  16.423  13.281
69783W        W41399   0.380  16.200  10.615
69784W        W41400  10.873  11.374  13.397
69785W        W41401   1.045  18.638  12.608
69786W        W41402  27.224  14.726   3.901
69787W        W41403  31.564  18.091   1.267
69788W        W41404  19.289  19.156  10.648
69789W        W41405  31.743  33.040   4.203
69790W        W41406  22.209  30.651   4.371
69791W        W41407   1.102  29.602  10.307
69792W        W41408  30.729  17.586  14.475
69793W        W41409  26.701  34.327  12.620
69794W        W41410  30.148   7.698  12.143
69795W        W41411  18.059  32.694  11.974
69796W        W41412   1.503  36.364   3.595
69797W        W41413  11.893  36.407   4.601
69798W        W41414  14.701  43.965  11.445
69799W        W41415  20.543   4.914  14.576
69800W        W41416  10.325   7.639  11.682
69801W        W41417  37.362  41.873   1.354
69802W        W41418  44.796  40.323  13.419
69803W        W41419  29.234  44.260  13.364
69804W        W41420   6.036   2.983  12.135
69805W        W41421  29.694  10.267  10.604
69806W        W41422  11.168   6.168   1.733
69807W        W41423  41.373   8.425  13.848
69808W        W41424  13.060   6.858   1.798
69809W        W41425  18.954  19.510   2.346
69810W        W41426   0.213  24.738  11.528
69811W        W41427  34.491  21.192   0.873
69812W        W41428  20.855  42.515  10.771
69813W        W41429  37.698  33.505  12.190
69814W        W41430  37.850  19.742   2.022
69815W        W41431  36.954  33.319   0.263
69816W        W41432  42.917  28.142   0.897
69817W        W41433  33.201  38.895  11.560
69818W        W41434  17.553  34.179   3.896
69819W        W41435  39.006  23.611  10.737
69820W        W41436  22.228   8.794   3.625
69821W        W41437   9.218  37.338   1.685
69822W        W41438  10.645  30.532  14.710
69823W        W41439  23.242  34.194   2.141
69824W        W41440  15.599   1.508   1.913
69825W        W41441  39.053  35.124  14.553
69826W        W41442   9.728  28.827   3.259
69827W        W41443  38.312  29.962  11.173
69828W        W41444   7.038  33.613  11.174
69829W        W41445   6.366  38.542   1.434
69830W        W41446  30.519   0.934   1.795
69831W        W41447  24.591  36.769  11.145
69832W        W41448  35.920  18.159  14.929
69833W        W41449  35.598  16.692   3.139
69834W        W41450  30.307  43.753  13.879
69835W        W41451   4.542  23.273   4.553
69836W        W41452   5.157  25.098   2.197
69837W        W41453   6.269  10.864  14.708
69838W        W41454  20.590  17.777   4.638
69839W        W41455  24.681   8.915   4.123
69840W        W41456   1.808   3.523  13.998
69841W        W41457  42.438   0.015   4.487
69842W        W41458  14.602  34.120   0.736
69843W        W41459  21.415   1.503  11.173
69844W        W41460  38.405  29.498  10.957
69845W        W41461  21.201  22.703  11.019
69846W        W41462   5.431  43.808  14.393
69847W        W41463  25.159  22.199  13.930
69848W        W41464  30.245  35.351  12.894
69849W        W41465   4.437  19.185   3.382
69850W        W41466   9.511   7.734  14.741
69851W        W41467  12.206  42.900   1.497
69852W        W41468  37.538  41.518   2.666
69853W        W41469  10.979  40.172  14.812
69854W        W41470   5.628  25.436  11.544
69855W        W41471  15.313  35.133   2.857
69856W        W41472  38.857  31.550   4.412
69857W        W41473   8.810  36.427  13.411
69858W        W41474  33.126  29.758  13.473
69859W        W41475  26.135  44.759   0.009
69860W        W41476  19.003  19.546  13.310
69861W        W41477  13.799  37.656  11.428
69862W        W41478  38.949  41.523   2.454
69863W        W41479  24.994  20.339   3.652
69864W        W41480  26.136  16.794   2.902
69865W        W41481  35.342  17.054   3.844
69866W        W41482  30.481  30.577   2.109
69867W        W41483   3.164   8.124  13.027
69868W        W41484  30.790  42.337  13.143
69869W        W41485  11.798   8.231   4.642
69870W        W41486   5.714  36.561   3.468
69871W        W41487  42.266   0.481   4.640
69872W        W41488  41.477   8.098   0.337
69873W        W41489  31.188  18.532  13.770
69874W        W41490  35.456   0.380   3.594
69875W        W41491  35.531   6.329  11.645
69876W        W41492  33.406   6.915   1.463
69877W        W41493  17.127   2.909   0.254
69878W        W41494  36.255  14.124   4.156
69879W        W41495   6.683  22.806  14.563
69880W        W41496   8.090   7.171  13.904
69881W        W41497  39.111  11.623   3.208
69882W        W41498  15.335  25.931   0.894
69883W        W41499  16.359   2.714   4.155
69884W        W41500  23.479   9.314  12.534
69885W        W41501  20.327  41.988   2.770
69886W        W41502  17.544  18.324   3.456
69887W        W41503  28.616  40.771   1.361
69888W        W41504  32.097  29.686  12.042
69889W        W41505  26.664  28.887  12.975
69890W        W41506   7.187  13.944  11.871
69891W        W41507  29.161  14.574  13.806
69892W        W41508  43.396  31.383  14.296
69893W        W41509   3.749  26.451   4.436
69894W        W41510  25.630  21.960  13.980
69895W        W41511  18.397  37.631   2.784
69896W        W41512  14.843  13.787  13.076
69897W        W41513  42.497  15.876   4.951
69898W        W41514  12.134  25.542   3.800
69899W        W41515  16.212  26.711  12.881
69900W        W41516   6.123  12.176   2.224
69901W        W41517  40.445  16.011  14.498
69902W        W41518  30.181  34.983  13.824
69903W        W41519  24.973  37.940   4.518
69904W        W41520  16.588  10.804   4.856
69905W        W41521   0.994   6.410  14.508
69906W        W41522  16.351  31.194   1.962
69907W        W41523  31.726  40.479   1.876
69908W        W41524   7.673  41.975   1.433
69909W        W41525  37.490  33.331   0.813
69910W        W41526  23.596  44.792  12.600
69911W        W41527  41.756  33.688  11.530
69912W        W41528  31.452  37.862  13.009
69913W        W41529  29.402  14.089   1.960
69914W        W41530  17.466  28.896   0.773
69915W        W41531  26.419  27.403   2.699
69916W        W41532   9.365  23.777  10.651
69917W        W41533  26.051  11.649   0.018
69918W        W41534  33.030   0.584   5.133
69919W        W41535   5.413  28.903  10.623
69920W        W41536  44.279  29.968  12.973
69921W        W41537   8.294  39.350  10.609
69922W        W41538  32.091  43.727  13.219
69923W        W41539   5.222   5.822  10.619
69924W        W41540  40.709  33.645  10.590
69925W        W41541  30.625  13.300  14.032
69926W        W41542  29.056  43.271   1.807
69927W        W41543  42.386  18.114  13.060
69928W        W41544  28.394  10.220  11.165
69929W        W41545   1.430  20.430   1.331
69930W        W41546  26.265  21.042   3.786
69931W        W41547  26.291  14.976   4.268
69932W        W41548  16.392   9.375  14.726
69933W        W41549  41.040  14.090  12.556
69934W        W41550  37.306  24.550   3.621
69935W        W41551  11.861  40.881   2.305
69936W        W41552  14.345  36.857   1.738
69937W        W41553  20.625  40.298  11.199
69938W        W41554  26.460  11.175  12.356
69939W        W41555  31.407   2.462   2.954
69940W        W41556  44.461   3.316  10.423
69941W        W41557  31.697   6.273   3.299
69942W        W41558   7.355  29.677  14.327
69943W        W41559   3.998  28.599   4.335
69944W        W41560  38.006  44.429   1.992
69945W        W41561  19.601  10.919   1.248
69946W        W41562  43.880  22.478   0.335
69947W        W41563   2.594  28.927   3.594
69948W        W41564  11.190   3.753   2.375
69949W        W41565  13.474  44.417  13.563
69950W        W41566  43.261  11.259  11.251
69951W        W41567  17.403  42.967  11.101
69952W        W41568  34.549  26.643   3.551
69953W        W41569  27.921   0.319   1.523
69954W        W41570   4.470  32.306  13.435
69955W        W41571   7.801  24.803   3.722
69956W        W41572   6.368  33.481  10.837
69957W        W41573   4.711  10.822  13.492
69958W        W41574  36.676  28.098   0.424
69959W        W41575  27.139  34.343  13.477
69960W        W41576  25.665  28.672  13.535
69961W        W41577  32.667  40.822  12.069
69962W        W41578  37.049  10.130  11.373
69963W        W41579  26.067  38.408  11.061
69964W        W41580  12.797  20.852  12.836
69965W        W41581  28.018  11.892   0.414
69966W        W41582  32.522  37.121   4.125
69967W        W41583  44.811   5.954  12.900
69968W        W41584  36.579  16.429   1.687
69969W        W41585   8.909  11.881   0.504
69970W        W41586  33.513   5.719   3.274
69971W        W41587  23.688  40.848  12.418
69972W        W41588   8.943  28.169  10.688
69973W        W41589  24.919   0.225  13.510
69974W        W41590  35.464  34.158   3.729
69975W        W41591  34.153  18.855   0.062
69976W        W41592  11.436   4.635   1.802
69977W        W41593  39.792  12.075   1.406
69978W        W41594  26.092  41.853  12.226
69979W        W41595  23.246   3.330   0.446
69980W        W41596  31.947  26.446  12.396
69981W        W41597   2.383  11.206   3.349
69982W        W41598  32.388  11.632  10.823
69983W        W41599  40.545  24.946   2.761
69984W        W41600  37.116  37.919   4.503
69985W        W41601  23.780  31.642  13.431
69986W        W41602  43.071  40.658  14.031
69987W        W41603  20.091   4.799   2.190
69988W        W41604  44.386   6.849  13.105
69989W        W41605  36.884   1.011  14.621
69990W        W41606  31.927   0.345  12.541
69991W        W41607  27.410  31.711   0.252
69992W        W41608  34.017  39.704   1.190
69993W        W41609  18.191  12.716  10.674
69994W        W41610  15.598  10.824   3.209
69995W        W41611   6.679   6.825  14.455
69996W        W41612  37.941   6.000   4.081
69997W        W41613  33.032   4.068   2.652
69998W        W41614  28.463  13.898   9.835
69999W        W41615   2.887   9.138  10.631
70000W        W41616   5.211  22.939  13.566
70001W        W41617  16.561  43.957   4.175
70002W        W41618  39.012  27.856   0.975
70003W        W41619   4.417  11.339   2.371
70004W        W41620  37.600  20.582   1.280
70005W        W41621  28.283  43.973   4.160
70006W        W41622  44.790  36.573  14.642
70007W        W41623  28.139  17.304   0.797
70008W        W41624  15.994  16.074   0.949
70009W        W41625  41.485  42.964  12.819
70010W        W41626  33.189  39.346   0.295
70011W        W41627  10.871  10.165  11.201
70012W        W41628  20.041   1.917  13.568
70013W        W41629  39.881  40.251   3.619
70014W        W41630  24.180  22.103  13.404
70015W        W41631  21.904  34.951  11.566
70016W        W41632  24.173  30.737  12.888
70017W        W41633   0.899  18.031   2.338
70018W        W41634  30.072  25.421  10.652
70019W        W41635  21.497  36.099  13.960
70020W        W41636   3.517   6.161  12.413
70021W        W41637  30.668  28.852   3.641
70022W        W41638  39.010   2.464   3.198
70023W        W41639  25.986  42.748   2.363
70024W        W41640  14.754  37.021   0.790
70025W        W41641   0.487  28.644  10.461
70026W        W41642  37.594  44.936   4.128
70027W        W41643   0.490  42.646   5.189
70028W        W41644   3.658  42.890   3.610
70029W        W41645   6.470  25.479   3.818
70030W        W41646  23.044  30.450  10.800
70031W        W41647  44.362  16.143   4.945
70032W        W41648   3.283  22.534   3.172
70033W        W41649  12.110  20.071  14.898
70034W        W41650  30.129   9.094  12.032
70035W        W41651   0.956   9.381  11.993
70036W        W41652   0.021   9.320  13.887
70037W        W41653  31.120  23.617  14.916
70038W        W41654  39.857  10.351   0.049
70039W        W41655   1.290   5.358  10.636
70040W        W41656  22.487  19.004   1.899
70041W        W41657  31.398   4.746   2.238
70042W        W41658  18.218   9.260   3.538
70043W        W41659  19.519  13.564  14.490
70044W        W41660  38.366  40.896   4.635
70045W        W41661   7.385  14.728  10.831
70046W        W41662  30.877  41.499   0.905
70047W        W41663  31.008   7.406  10.569
70048W        W41664  28.388  17.996   4.423
70049W        W41665  14.304   5.662  10.757
70050W        W41666  13.691  31.139  13.914
70051W        W41667  42.147  26.476   1.008
70052W        W41668  34.128  12.111  12.491
70053W        W41669  17.300  42.891  13.276
70054W        W41670  42.695  16.573  11.879
70055W        W41671  44.794  12.031  11.338
70056W        W41672  28.061  33.475   2.406
70057W        W41673  31.699  36.519   2.240
70058W        W41674   3.797  28.908  13.580
70059W        W41675  30.329  35.092  13.320
70060W        W41676  37.092   2.788   3.213
70061W        W41677  27.920  26.973   0.824
70062W        W41678  16.031  21.065  10.211
70063W        W41679  36.904  15.009  11.176
70064W        W41680  39.904  34.569  12.899
70065W        W41681  43.302  36.576  11.143
70066W        W41682   3.832  35.323   4.122
70067W        W41683   1.244  23.013  13.669
70068W        W41684  16.973  34.110   2.641
70069W        W41685  12.781  14.919  13.279
70070W        W41686  24.519  35.156   3.252
70071W        W41687  18.287  17.019  14.304
70072W        W41688  44.728  33.920   0.393
70073W        W41689  31.399  42.824  13.468
70074W        W41690  38.261  42.383   0.878
70075W        W41691  41.398  14.467  14.385
70076W        W41692  32.991  31.372   1.896
70077W        W41693  37.055   7.874   1.419
70078W        W41694  30.820  24.522  12.952
70079W        W41695   1.679  35.013   4.770
70080W        W41696  26.632  12.337   1.373
70081W        W41697  19.275  25.013   1.147
70082W        W41698  30.018  15.622  13.123
70083W        W41699  43.847  32.814   0.786
70084W        W41700   7.229  17.758  14.051
70085W        W41701   1.418   1.711   0.952
70086W        W41702  44.330  23.475  12.501
70087W        W41703  10.157  42.015   3.217
70088W        W41704   3.266  25.180  13.188
70089W        W41705  10.784  20.809  11.930
70090W        W41706   0.414   5.948  10.651
70091W        W41707   3.796   7.946   2.813
70092W        W41708  33.104  14.759  12.231
70093W        W41709  32.218  26.420   3.658
70094W        W41710   8.594  14.823   1.152
70095W        W41711  37.177   8.311   0.079
70096W        W41712  32.851   3.685   0.674
70097W        W41713  38.819   3.444   1.876
70098W        W41714   2.281   3.741  13.950
70099W        W41715  11.752   6.694   1.019
70100W        W41716  31.084  10.145  12.501
70101W        W41717  31.675  14.073   3.855
70102W        W41718  41.769  38.308  14.243
70103W        W41719   8.755   5.436  11.120
70104W        W41720  36.932   6.061   1.222
70105W        W41721  32.491  20.766   4.681
70106W        W41722  43.314   4.191   0.102
70107W        W41723  40.424   6.661  13.378
70108W        W41724   3.368   6.272  11.261
70109W        W41725  40.573  43.886   0.373
70110W        W41726  36.950  21.837  13.780
70111W        W41727  27.483  40.738   4.234
70112W        W41728  42.457  17.591   3.893
70113W        W41729  26.198  28.754   4.194
70114W        W41730   3.833  20.346   2.731
70115W        W41731  35.049   1.893  13.255
70116W        W41732  28.731  25.483  12.491
70117W        W41733  36.517  38.418  14.311
70118W        W41734  25.174  23.810  11.729
70119W        W41735  16.754  40.052   1.940
70120W        W41736  16.743   7.190  13.944
70121W        W41737   0.938  24.990  13.223
70122W        W41738  16.204  42.800   5.095
70123W        W41739  42.653   5.786   1.301
70124W        W41740  25.574  14.134   5.226
70125W        W41741  26.240  19.601   1.370
70126W        W41742   0.103  12.245  10.976
70127W        W41743  21.522   6.826   4.596
70128W        W41744  15.357  42.511  13.326
70129W        W41745   4.763   2.006   1.363
70130W        W41746  17.301  36.041  14.278
70131W        W41747  41.120  17.052   3.696
70132W        W41748  27.088  12.830  13.958
70133W        W41749   1.734  20.164  11.654
70134W        W41750  30.461  14.516  13.574
70135W        W41751  26.048   8.220   1.263
70136W        W41752  13.338  16.222   0.851
70137W        W41753  18.540   7.124   3.411
70138W        W41754   7.498  23.689  10.733
70139W        W41755  15.672  24.104  14.750
70140W        W41756   7.769  14.200   4.101
70141W        W41757  13.094  32.207  11.738
70142W        W41758   8.266  24.733  14.055
70143W        W41759  41.507  11.789  11.086
70144W        W41760  33.115  37.826  13.384
70145W        W41761  24.084  15.638   2.202
70146W        W41762  23.110  42.745  13.085
70147W        W41763  39.484  31.781  11.521
70148W        W41764   6.201  28.477  10.711
70149W        W41765  33.370  31.198   4.419
70150W        W41766  39.380  10.326   2.648
70151W        W41767  19.111  37.836   2.186
70152W        W41768   3.623  40.206   1.298
70153W        W41769  29.551  44.971   2.892
70154W        W41770  25.239  39.498  14.255
70155W        W41771  32.196   4.256   2.787
70156W        W41772  32.029  26.097  14.987
70157W        W41773  24.149  26.764  12.976
70158W        W41774  31.391  39.350   4.009
70159W        W41775  44.319   6.961  14.844
70160W        W41776  42.829  42.535   0.272
70161W        W41777  33.863  40.743  10.757
70162W        W41778  39.393  41.644   2.243
70163W        W41779  43.474  36.402  10.564
70164W        W41780   6.518  10.234  13.346
70165W        W41781  28.423  16.149   5.449
70166W        W41782  40.212  38.335   0.820
70167W        W41783  12.736  22.321  13.879
70168W        W41784  26.936  41.213  11.525
70169W        W41785  40.840   7.388   0.066
70170W        W41786   8.448  11.594   4.172
70171W        W41787  43.511  43.794   2.424
70172W        W41788  19.787  11.840  12.072
70173W        W41789   1.735  14.709   1.810
70174W        W41790  10.820   0.232   1.791
70175W        W41791   1.844  13.381  10.738
70176W        W41792  36.269   4.717  10.759
70177W        W41793  10.181   3.520   0.437
70178W        W41794   4.500  28.726   2.211
70179W        W41795  40.551   7.163  13.040
70180W        W41796  18.159  30.227   2.711
70181W        W41797  28.086  14.037  10.182
70182W        W41798  32.449  15.355   0.615
70183W        W41799  16.666  18.196  10.071
70184W        W41800  12.754   1.025  11.535
70185W        W41801  39.368  34.876   1.713
70186W        W41802  10.782  10.001   0.377
70187W        W41803  36.656  30.576  12.968
70188W        W41804  21.652  11.814   2.193
70189W        W41805  33.887  20.824   1.215
70190W        W41806   3.433  26.026   4.581
70191W        W41807  40.544  44.521  12.831
70192W        W41808  16.391  13.339   2.379
70193W        W41809  31.409  40.361  11.265
70194W        W41810   5.791  15.064   3.628
70195W        W41811  33.617  38.870  13.385
70196W        W41812  44.299  32.402  12.056
70197W        W41813   1.310  32.178   2.896
70198W        W41814  14.152  10.794  12.339
70199W        W41815   8.316  19.286   1.687
70200W        W41816  14.191  31.551   1.213
70201W        W41817  35.182  12.179  12.517
70202W        W41818   6.440  25.474   2.581
70203W        W41819  18.940  32.468  13.822
70204W        W41820  17.568  36.333   3.345
70205W        W41821   8.319   6.176  14.746
70206W        W41822  29.997  30.204   4.353
70207W        W41823  38.411  28.432  14.476
70208W        W41824  35.536   5.908  14.974
70209W        W41825   0.343  42.917   1.791
70210W        W41826  43.720  15.074   2.781
70211W        W41827   0.020   3.511  14.388
70212W        W41828  43.931  17.004  11.049
70213W        W41829   1.903  33.225   1.433
70214W        W41830  31.067  32.346   2.466
70215W        W41831  36.027  32.603   1.889
70216W        W41832  18.355  24.632  11.427
70217W        W41833  38.467  23.307   4.270
70218W        W41834  22.841  42.033  11.565
70219W        W41835  15.369   0.326   4.621
70220W        W41836  21.463  33.499  14.974
70221W        W41837  23.834  17.203  13.534
70222W        W41838   7.434   7.163   3.219
70223W        W41839   5.162  26.579  10.977
70224W        W41840  29.126  12.305  11.018
70225W        W41841  31.706  37.404   2.837
70226W        W41842  44.418  25.442   2.462
70227W        W41843  13.557   4.799  12.808
70228W        W41844  14.217  28.017   4.878
70229W        W41845  12.226  26.492  14.411
70230W        W41846   5.666   5.011  12.956
70231W        W41847  21.081  21.942  11.650
70232W        W41848   6.276  37.299  13.819
70233W        W41849  44.283   3.430   0.647
70234W        W41850  24.372  37.555  14.951
70235W        W41851   0.320  44.001   0.836
70236W        W41852   9.345  40.570  11.630
70237W        W41853  13.162  29.305  12.856
70238W        W41854  38.521  12.511   1.395
70239W        W41855  12.647  15.782   3.637
70240W        W41856   3.817  19.703  11.179
70241W        W41857  30.001  37.605   4.211
70242W        W41858  26.370  20.683  12.141
70243W        W41859  36.473  35.370  13.034
70244W        W41860  19.151  33.496   3.236
70245W        W41861  34.568  22.134   3.665
70246W        W41862   7.863  23.127   2.260
70247W        W41863   2.809  16.647   3.567
70248W        W41864   5.994  27.631   4.084
70249W        W41865  35.869  23.702   2.437
70250W        W41866  16.673  22.519   3.702
70251W        W41867  42.399  19.763   1.381
70252W        W41868  27.847   7.496  11.163
70253W        W41869   7.559   6.381  12.957
70254W        W41870  44.269   3.418   2.113
70255W        W41871   6.915  34.639   2.951
70256W        W41872  20.474  28.946  13.336
70257W        W41873   7.291  31.951   2.707
70258W        W41874  17.765  20.073   1.341
70259W        W41875  23.584  18.549  13.517
70260W        W41876  40.044   5.172  14.795
70261W        W41877   3.784  22.126  14.669
70262W        W41878  26.482   5.652   2.893
70263W        W41879   3.088   1.697   2.233
70264W        W41880  14.430   4.506   1.016
70265W        W41881  39.305   5.296   0.773
70266W        W41882  42.076  34.341   3.842
70267W        W41883  26.727  21.235   0.833
70268W        W41884  44.696   5.790  11.987
70269W        W41885  34.856   4.658   3.627
70270W        W41886  44.311  19.174   4.381
70271W        W41887  36.758  43.245   1.855
70272W        W41888  11.863  40.895  13.322
70273W        W41889   3.656   5.881   2.773
70274W        W41890  15.080   8.852  10.786
70275W        W41891  37.382  11.594  10.189
70276W        W41892  29.723  38.381   1.298
70277W        W41893  25.819   1.068   1.349
70278W        W41894  21.673  29.190   2.782
70279W        W41895  16.786   8.572  11.340
70280W        W41896   0.284  33.960  13.453
70281W        W41897  37.436  43.881  12.518
70282W        W41898   8.661  27.076   2.178
70283W        W41899  41.904  30.697  12.615
70284W        W41900  11.865  38.015  12.353
70285W        W41901  33.498  28.854  14.340
70286W        W41902   7.358  23.291  11.545
70287W        W41903  14.140  20.913   3.288
70288W        W41904   3.020  34.693   1.368
70289W        W41905  21.317  26.643  12.945
70290W        W41906  42.014  42.831  12.172
70291W        W41907  13.952  12.432   2.948
70292W        W41908   5.317  36.842  12.429
70293W        W41909  10.945   4.946  14.800
70294W        W41910  30.481  10.133   2.230
70295W        W41911  14.865  20.560  13.762
70296W        W41912   6.704   8.733  12.381
70297W        W41913  21.570  43.923   4.654
70298W        W41914   6.898  32.018  10.967
70299W        W41915  39.957  29.883  14.059
70300W        W41916   2.713  27.983  14.347
70301W        W41917  10.385  23.619  12.203
70302W        W41918  16.173  15.029   4.184
70303W        W41919  13.708  27.390  11.498
70304W        W41920  16.928  19.333  11.541
70305W        W41921  14.142  42.226   1.754
70306W        W41922  16.168  43.936  13.542
70307W        W41923  23.157  27.597   2.571
70308W        W41924  36.664  23.930  10.759
70309W        W41925  36.079   6.722  12.700
70310W        W41926  37.888  19.809  13.429
70311W        W41927  19.948  27.927  14.039
70312W        W41928  44.369  36.536  14.101
70313W        W41929  41.265  32.035  11.498
70314W        W41930  13.541   5.812   0.824
70315W        W41931   9.303  38.803   4.399
70316W        W41932   3.792   4.642   3.965
70317W        W41933  44.414   3.435  12.890
70318W        W41934   1.350  13.163   0.904
70319W        W41935  16.233  22.090  11.566
70320W        W41936  20.393  39.026  14.313
70321W        W41937  11.965  31.497   1.256
70322W        W41938  16.320   3.565  14.963
70323W        W41939   3.218  23.929   1.746
70324W        W41940   8.909  23.176   1.830
70325W        W41941  13.806   9.208   4.324
70326W        W41942  30.490  34.068   4.134
70327W        W41943  32.482  41.491   2.663
70328W        W41944  34.444  11.465  14.902
70329W        W41945  10.542  42.940  11.506
70330W        W41946  30.576  24.937   2.270
70331W        W41947  33.829   2.243  13.332
70332W        W41948  33.827  24.292  11.461
70333W        W41949   5.182  24.019  14.456
70334W        W41950   6.848  35.349  12.879
70335W        W41951  36.499  39.304  12.858
70336W        W41952   8.117  12.075  10.561
70337W        W41953  16.236  14.293  12.650
70338W        W41954  40.271  10.526   4.783
70339W        W41955  13.758  13.174   5.310
70340W        W41956   9.223  42.774   4.429
70341W        W41957  18.398  23.224   2.545
70342W        W41958  30.410  16.270  11.144
70343W        W41959  37.429  26.337  11.567
70344W        W41960  16.242  40.135   3.590
70345W        W41961   3.913   0.484  13.969
70346W        W41962  28.519   1.474  14.952
70347W        W41963  44.421  34.726  14.862
70348W        W41964  41.914   4.322  13.352
70349W        W41965  24.818  23.037  14.030
70350W        W41966  26.970  19.052   1.184
70351W        W41967   9.552   0.977  12.055
70352W        W41968   1.948  32.300   1.737
70353W        W41969  31.042   9.386   4.158
70354W        W41970  22.937   4.367   4.170
70355W        W41971  36.327  25.385   2.816
70356W        W41972  28.482  41.416   3.259
70357W        W41973  43.724  13.705   4.746
70358W        W41974  29.072  22.044   4.005
70359W        W41975  10.592  24.519  12.639
70360W        W41976  10.886  38.564  13.069
70361W        W41977  30.430  15.229  11.475
70362W        W41978  18.232  27.737   4.105
70363W        W41979  11.880   9.144  14.976
70364W        W41980  22.656  18.868  14.375
70365W        W41981  33.473  16.789   4.514
70366W        W41982  13.093  17.718   3.125
70367W        W41983  44.308   9.706  12.420
70368W        W41984   6.652   8.002   2.465
70369W        W41985  33.964   2.288  12.809
70370W        W41986   7.791  36.486  12.991
70371W        W41987  21.315  42.879   0.282
70372W        W41988  27.934  35.545  12.573
70373W        W41989  17.656  24.075   5.060
70374W        W41990  41.274  13.125   2.192
70375W        W41991   6.188  33.635   1.575
70376W        W41992  27.062  20.551   3.112
70377W        W41993  20.747   8.921  11.160
70378W        W41994  25.523  15.311   1.243
70379W        W41995   1.352  15.169  14.779
70380W        W41996  11.569  13.573  11.289
70381W        W41997  14.397  28.958   4.645
70382W        W41998  41.538  38.838   3.273
70383W        W41999   3.660  14.344   1.394
70384W        W42000   4.693  22.608  11.612
70385W        W42001  14.316  21.143   1.448
70386W        W42002   3.998   9.490  11.946
70387W        W42003  19.475   4.232  14.771
70388W        W42004  15.482  16.743  14.341
70389W        W42005   1.682  19.072  10.711
70390W        W42006  32.630  44.389   4.296
70391W        W42007  31.097  25.578  10.704
70392W        W42008  25.567  30.666  11.233
70393W        W42009   8.869   9.233   2.859
70394W        W42010   1.958   2.471   2.218
70395W        W42011  40.360  15.322  11.949
70396W        W42012  12.227   5.292   3.636
70397W        W42013   8.179  25.094   2.355
70398W        W42014  19.089  31.344  11.718
70399W        W42015  24.049   0.397   3.200
70400W        W42016  31.146  13.630   1.278
70401W        W42017  30.027  27.440   1.345
70402W        W42018  11.638  24.002   4.422
70403W        W42019  25.449   1.934  12.342
70404W        W42020   1.132  24.080  10.638
70405W        W42021   0.224  24.450  12.079
70406W        W42022  28.100   3.356   0.406
70407W        W42023  43.261   0.196  12.821
70408W        W42024  28.128  13.606  12.289
70409W        W42025  41.791  39.793  11.140
70410W        W42026  41.673  34.502  13.901
70411W        W42027  31.055  29.901   5.459
70412W        W42028   0.988  18.548   4.199
70413W        W42029  13.500  10.199  10.777
70414W        W42030  37.827  25.181   1.886
70415W        W42031  36.878  38.805  10.473
70416W        W42032  44.434  13.232  10.728
70417W        W42033  24.076  36.065   9.914
70418W        W42034  17.602   7.704   4.056
70419W        W42035  41.011  30.269   1.016
70420W        W42036  39.747  12.412   5.047
70421W        W42037  29.036   4.972   3.651
70422W        W42038  39.015   8.182  13.181
70423W        W42039  29.451  15.072  13.042
70424W        W42040   3.986   1.797   3.587
70425W        W42041  44.107  21.680  13.748
70426W        W42042  31.087   3.161  12.997
70427W        W42043  14.285  38.521  12.405
70428W        W42044  18.723  36.948   4.222
70429W        W42045  14.272  21.485   4.118
70430W        W42046  27.074  33.427   1.367
70431W        W42047  18.639  11.572   2.782
70432W        W42048  10.917   8.868  10.827
70433W        W42049  21.227  24.469   4.543
70434W        W42050  40.926   6.866   0.003
70435W        W42051  28.395  40.039   4.364
70436W        W42052  25.635  18.590   5.049
70437W        W42053  36.366  16.300   3.696
70438W        W42054  25.104   8.218   5.054
70439W        W42055  12.393  20.205   4.148
70440W        W42056  12.198   1.367  11.042
70441W        W42057  33.406  39.392  12.770
70442W        W42058   5.650  10.284   2.492
70443W        W42059  11.298  16.166   4.471
70444W        W42060  15.759   0.633  12.020
70445W        W42061  11.127  33.860   2.230
70446W        W42062  41.648  34.377   1.154
70447W        W42063  10.242  22.149   0.974
70448W        W42064  28.897  14.654  14.265
70449W        W42065  18.512   0.962  12.079
70450W        W42066   0.981  17.454  13.324
70451W        W42067  14.126  17.958   4.298
70452W        W42068  22.722  24.646  11.595
70453W        W42069  39.349  39.744   0.117
70454W        W42070  36.543  43.989   3.824
70455W        W42071  26.796   0.642  12.057
70456W        W42072  36.466  34.898  13.241
70457W        W42073  37.405  10.453   3.290
70458W        W42074  41.855  28.507  14.974
70459W        W42075  34.455  21.150  14.392
70460W        W42076  37.839  22.076  12.405
70461W        W42077   5.435  33.653   2.739
70462W        W42078  36.813   8.387   3.668
70463W        W42079  38.431   3.350  10.708
70464W        W42080  21.892  29.134  13.950
70465W        W42081  29.393  30.463   4.999
70466W        W42082   5.965   4.864  14.870
70467W        W42083  24.425  22.344   3.644
70468W        W42084  18.058  11.848   0.006
70469W        W42085  16.596  16.835  10.976
70470W        W42086  19.133  35.201  13.400
70471W        W42087  35.544  12.091   2.749
70472W        W42088   4.177  15.275   1.225
70473W        W42089  27.802   0.349  13.431
70474W        W42090  36.054  40.854  12.909
70475W        W42091  32.542  11.017  11.887
70476W        W42092   4.728  12.325  10.888
70477W        W42093   5.292  33.090  12.157
70478W        W42094  26.979  32.723   2.741
70479W        W42095   2.464   0.779  11.543
70480W        W42096  31.962  43.339  12.892
70481W        W42097  43.535  42.975   1.218
70482W        W42098   2.433  15.601   0.452
70483W        W42099  41.924  39.890   3.781
70484W        W42100  35.973   9.091   4.058
70485W        W42101  32.862  35.209   2.182
70486W        W42102   0.120  36.933   4.969
70487W        W42103  33.175  10.179  12.122
70488W        W42104  37.761  42.545   2.377
70489W        W42105  30.127   8.780   4.374
70490W        W42106  19.217  32.381   0.203
70491W        W42107  37.027  28.165  14.838
70492W        W42108   8.407  23.550  14.518
70493W        W42109  40.601  31.114  14.353
70494W        W42110  35.791  16.186  10.878
70495W        W42111  44.212  27.862   4.615
70496W        W42112  11.856  32.478   3.282
70497W        W42113  22.133   0.274  13.422
70498W        W42114  14.582  35.016   1.874
70499W        W42115  37.277  30.618   3.688
70500W        W42116   2.237  15.237   4.612
70501W        W42117   5.014  15.151   4.050
70502W        W42118  39.316   7.554   0.891
70503W        W42119  31.221  38.915  13.499
70504W        W42120  34.806   2.852  14.228
70505W        W42121  13.980  28.770   3.747
70506W        W42122  42.287  36.890  13.379
70507W        W42123  10.279  20.913  11.020
70508W        W42124  25.912   0.741   1.751
70509W        W42125  30.700  33.090  12.154
70510W        W42126  18.151  36.764  14.083
70511W        W42127  34.765  32.657  13.010
70512W        W42128   4.751   9.722  10.703
70513W        W42129  11.728  30.419  14.287
70514W        W42130  11.490   9.713   1.638
70515W        W42131   7.761  42.386  11.126
70516W        W42132   2.155  16.734  13.571
70517W        W42133  39.324  20.551  13.097
70518W        W42134  41.279  44.313   0.413
70519W        W42135   6.746  35.681  14.311
70520W        W42136   7.338  34.017   1.226
70521W        W42137   0.013  40.886   2.878
70522W        W42138   2.288   3.230   4.110
70523W        W42139  13.063  25.330  10.293
70524W        W42140  10.382   8.274   1.448
70525W        W42141  15.227  17.116   1.247
70526W        W42142  14.914  28.940  11.609
70527W        W42143  28.037  11.148  10.633
70528W        W42144  43.865  19.545   2.398
70529W        W42145  40.359  13.708   4.612
70530W        W42146  22.323  33.968  12.937
70531W        W42147   0.649  22.783   4.162
70532W        W42148  39.781  30.538  12.992
70533W        W42149  12.161  27.461   2.990
70534W        W42150   8.579  39.837  12.439
70535W        W42151   6.766  10.863   3.180
70536W        W42152  39.859  31.481  11.348
70537W        W42153  33.948  42.349   2.955
70538W        W42154  22.984  31.169  12.555
70539W        W42155  16.157   9.377   1.819
70540W        W42156   2.343   0.685  12.036
70541W        W42157  32.153  22.025  13.944
70542W        W42158  38.350  36.020  14.706
70543W        W42159  23.774  16.190  14.262
70544W        W42160  30.511  17.033  13.849
70545W        W42161  35.552   6.848   1.498
70546W        W42162  34.909  19.176   3.208
70547W        W42163  31.685  18.562  13.881
70548W        W42164  22.783   9.265  10.931
70549W        W42165  44.881  10.921   4.243
70550W        W42166  43.701   3.393   1.774
70551W        W42167   6.163  36.401   3.245
70552W        W42168   7.374  27.751  13.071
70553W        W42169   3.695  14.546   0.899
70554W        W42170  40.938  16.892  14.286
70555W        W42171  14.955  29.835  11.728
70556W        W42172  39.380  21.403  13.477
70557W        W42173  26.944   7.152   9.713
70558W        W42174  16.823  39.319  14.309
70559W        W42175  19.538  28.249   4.165
70560W        W42176  41.464   4.366   2.336
70561W        W42177  34.378  12.059  11.712
70562W        W42178  16.056  18.002   1.313
70563W        W42179  37.421  40.997   0.432
70564W        W42180  13.555  41.740   4.119
70565W        W42181  37.940  38.368  14.906
70566W        W42182  24.544  40.699  14.865
70567W        W42183  27.537  11.905  11.560
70568W        W42184   9.737  14.445  14.935
70569W        W42185  33.186  19.700  11.931
70570W        W42186  21.793  20.093   0.456
70571W        W42187  15.065   8.345  10.712
70572W        W42188  18.995   2.663   3.401
70573W        W42189  16.953  37.458   5.022
70574W        W42190  14.028  10.659   2.327
70575W        W42191  42.900  23.815   0.681
70576W        W42192  33.656  13.677   4.544
70577W        W42193  24.540  41.608  11.244
70578W        W42194  32.129  42.840   4.238
70579W        W42195   4.177  23.012   0.878
70580W        W42196   7.422  28.489   1.152
70581W        W42197  27.982  43.266  10.700
70582W        W42198   4.195  12.107  12.352
70583W        W42199   0.296  29.411   0.428
70584W        W42200  29.522   3.368  11.997
70585W        W42201  14.373   5.017  14.860
70586W        W42202  44.072  28.754  11.628
70587W        W42203  33.453  42.922   0.848
70588W        W42204  30.977  19.470   0.248
70589W        W42205  27.685  16.872  10.390
70590W        W42206  30.303  15.838   0.365
70591W        W42207  10.678  30.987   4.617
70592W        W42208  15.619  30.949   3.312
70593W        W42209   5.942  44.545  14.763
70594W        W42210  44.477  26.951   0.401
70595W        W42211  39.472   9.159   4.549
70596W        W42212  25.662  20.594  11.597
70597W        W42213  13.837  29.504   0.474
70598W        W42214   0.677  40.484  12.113
70599W        W42215  12.654   0.284   1.696
70600W        W42216  16.615   2.936  11.654
70601W        W42217  19.336  17.008  13.862
70602W        W42218   8.209  38.010  14.057
70603W        W42219   6.670  20.052  13.482
70604W        W42220  27.511   3.315   1.333
70605W        W42221  15.255  23.757   0.289
70606W        W42222  10.949  24.243  14.033
70607W        W42223  13.332  17.803  13.412
70608W        W42224  10.368  22.026   0.004
70609W        W42225  22.994  35.149   2.408
70610W        W42226   7.860  44.340  11.574
70611W        W42227  36.826   2.731  13.447
70612W        W42228  40.131  21.056  11.566
70613W        W42229  30.328  44.289  13.932
70614W        W42230  23.792  34.972  14.751
70615W        W42231  39.823  39.058  14.877
70616W        W42232  27.139  25.047   3.547
70617W        W42233  31.537  42.875   4.102
70618W        W42234  12.862  44.528  11.464
70619W        W42235   5.423  43.310  13.902
70620W        W42236  38.684  27.123  13.988
70621W        W42237   0.350   1.385  13.482
70622W        W42238  26.400   2.453   4.243
70623W        W42239  43.087  36.003  11.387
70624W        W42240   3.526  21.686  14.809
70625W        W42241  28.573  19.225  10.505
70626W        W42242   3.526  35.369  10.718
70627W        W42243  16.093  34.592  11.923
70628W        W42244  11.809  36.249   5.092
70629W        W42245   6.425   1.415  11.467
70630W        W42246  38.850  41.422  13.842
70631W        W42247  33.478  19.025  13.871
70632W        W42248  41.124  32.399  13.080
70633W        W42249  12.108  15.746  11.569
70634W        W42250  37.278  43.490   4.336
70635W        W42251  36.616  41.522  13.274
70636W        W42252  38.926  28.622   5.028
70637W        W42253  40.239  22.187   3.639
70638W        W42254  21.890  13.534  12.555
70639W        W42255  12.301  29.391   0.483
70640W        W42256  17.765  41.277   3.842
70641W        W42257  44.974  40.070   2.392
70642W        W42258  16.612  14.681   4.172
70643W        W42259  10.701  39.271  14.106
70644W        W42260  23.234  44.649  11.628
70645W        W42261  10.604  21.265   0.350
70646W        W42262   1.226   0.822  14.901
70647W        W42263  43.308   0.096   3.256
70648W        W42264   6.014   4.752  11.586
70649W        W42265  43.011  12.979   0.386
70650W        W42266   4.718  17.801   0.317
70651W        W42267  24.538  42.289  10.770
70652W        W42268  38.991   7.783   3.280
70653W        W42269  25.015  41.418  14.381
70654W        W42270   2.682  23.473  10.083
70655W        W42271  21.873   7.929   3.668
70656W        W42272   4.307  39.106   0.865
70657W        W42273  25.557  19.061  13.113
70658W        W42274  14.743  42.816  12.983
70659W        W42275   7.247  16.354  12.911
70660W        W42276   4.858  30.085  11.510
70661W        W42277  23.107  43.873   0.938
70662W        W42278  24.232  11.875  11.251
70663W        W42279  14.640  18.584   0.560
70664W        W42280  21.386   6.893  12.496
70665W        W42281  10.166  17.178  14.005
70666W        W42282  34.607  40.078  14.537
70667W        W42283  10.586   0.274  11.577
70668W        W42284   3.363  13.056  11.039
70669W        W42285  25.957  26.542   4.500
70670W        W42286  23.713   0.467   1.059
70671W        W42287  32.665  31.641   0.933
70672W        W42288  14.013  28.215  11.151
70673W        W42289  42.578  17.090   4.565
70674W        W42290   4.325  13.608  10.539
70675W        W42291  26.997  32.539  12.356
70676W        W42292  27.964  36.316   2.775
70677W        W42293  14.414   1.483   2.276
70678W        W42294   3.880  17.212   3.614
70679W        W42295   6.133  18.505  11.129
70680W        W42296  18.052  35.336   1.254
70681W        W42297   4.198   4.168  14.197
70682W        W42298  27.949   6.404   2.876
70683W        W42299  41.292  37.301   1.284
70684W        W42300  30.455   8.624   1.323
70685W        W42301  17.160   0.064   4.511
70686W        W42302  29.490  25.973  12.033
70687W        W42303   7.912  29.579   1.844
70688W        W42304  34.404  36.386  11.013
70689W        W42305  25.666   4.128  12.832
70690W        W42306   7.297  25.728   2.087
70691W        W42307  31.690  44.942   0.125
70692W        W42308  29.472  11.406  11.586
70693W        W42309  19.981  31.408  12.582
70694W        W42310  39.281  34.424   2.357
70695W        W42311  15.123  17.036  13.775
70696W        W42312  28.749  11.757  14.961
70697W        W42313   5.683  42.365   3.993
70698W        W42314  19.159   6.739  10.674
70699W        W42315  40.928  13.270  14.524
70700W        W42316   9.850  42.840  12.885
70701W        W42317  25.008  13.899   4.049
70702W        W42318  29.287  25.071   0.819
70703W        W42319  12.846  38.142   0.391
70704W        W42320  22.094  10.361  13.380
70705W        W42321  35.852  22.854  12.393
70706W        W42322   8.784  24.751  11.303
70707W        W42323  16.651  39.798   3.354
70708W        W42324  18.244  36.569   3.795
70709W        W42325  18.867  35.874  11.167
70710W        W42326  32.479  16.364  14.008
70711W        W42327   7.095  31.933  14.478
70712W        W42328   1.709  27.124  14.444
70713W        W42329  44.995  41.112  13.023
70714W        W42330  22.622  26.213   3.875
70715W        W42331  25.299  16.097  10.301
70716W        W42332  33.632  20.264  11.092
70717W        W42333  16.618   1.234  13.975
70718W        W42334   8.558   1.345   3.629
70719W        W42335  26.291  36.024  10.895
70720W        W42336  41.968  15.093   4.839
70721W        W42337  14.540   8.583   3.999
70722W        W42338  27.979  40.698  10.685
70723W        W42339  14.070  19.165  14.345
70724W        W42340  19.422  35.515   1.428
70725W        W42341   9.703  30.458   3.590
70726W        W42342  27.208  33.707   2.963
70727W        W42343  13.115  40.783  11.644
70728W        W42344  22.846  22.602   0.115
70729W        W42345  21.182  37.758  11.866
70730W        W42346  38.196  34.301   1.505
70731W        W42347  33.607   4.568  11.026
70732W        W42348  36.100  25.931   1.347
70733W        W42349  20.032  32.657  12.976
70734W        W42350   1.888   4.396   1.210
70735W        W42351  36.042  11.566   0.310
70736W        W42352   9.630  34.383  10.070
70737W        W42353  31.180  37.490   4.669
70738W        W42354  31.214  14.140  14.302
70739W        W42355   5.669   6.847   1.214
70740W        W42356  16.966  29.669   2.806
70741W        W42357  19.065  36.367  14.885
70742W        W42358  23.485  41.716  14.900
70743W        W42359  42.769  15.799   2.297
70744W        W42360  24.933  31.142   2.778
70745W        W42361  28.983  35.603   1.890
70746W        W42362  42.912  42.637   4.475
70747W        W42363  43.027  22.440   0.780
70748W        W42364  21.208  12.343   0.472
70749W        W42365   0.872  10.340   2.657
70750W        W42366  28.121  17.464   9.893
70751W        W42367  34.152  17.106  10.023
70752W        W42368  36.216   2.676   2.142
70753W        W42369   4.214  28.792   3.904
70754W        W42370  25.577  28.423  11.508
70755W        W42371   0.319  39.906   3.166
70756W        W42372  42.979  34.939  14.930
70757W        W42373  17.299  30.376  12.532
70758W        W42374   1.323  39.876   1.094
70759W        W42375  25.934  11.844   2.913
70760W        W42376  26.460  22.277   4.673
70761W        W42377  14.041  10.779  11.047
70762W        W42378  26.076  14.735   4.645
70763W        W42379  40.505  27.221   0.609
70764W        W42380  29.170  25.633   4.206
70765W        W42381  23.685   9.728   3.632
70766W        W42382   9.325  42.552  11.088
70767W        W42383   2.031  27.526  14.542
70768W        W42384  34.134  24.153  13.160
70769W        W42385   0.471  22.018   1.394
70770W        W42386  42.895  38.356  10.731
70771W        W42387  11.837   4.812  10.719
70772W        W42388  30.180  32.502   2.474
70773W        W42389  14.145  20.100   4.762
70774W        W42390   2.723  15.903  14.073
70775W        W42391  41.443  23.648  14.785
70776W        W42392  37.744   6.923  11.176
70777W        W42393  14.701  16.677  10.185
70778W        W42394  33.859   4.836  14.273
70779W        W42395   4.681  26.139  12.736
70780W        W42396  31.153  13.062   0.448
70781W        W42397  25.519   0.787   0.227
70782W        W42398  16.037  15.534  14.866
70783W        W42399  35.812  12.754  13.791
70784W        W42400  21.647   9.609   1.845
70785W        W42401  29.145  43.743  14.822
70786W        W42402  16.746  41.611  13.040
70787W        W42403  18.674  38.417   4.225
70788W        W42404  31.447  36.576  10.981
70789W        W42405  27.548  13.405   2.376
70790W        W42406   1.947  20.213   1.340
70791W        W42407  32.346  33.203  14.420
70792W        W42408   9.377  12.676  14.685
70793W        W42409  30.056  39.586   2.212
70794W        W42410  41.188  23.243  11.527
70795W        W42411   0.333  12.987  12.942
70796W        W42412  33.803  27.712   0.707
70797W        W42413   1.794  11.816   4.073
70798W        W42414  30.771  34.205  12.778
70799W        W42415  18.091   7.848  13.755
70800W        W42416  42.378  38.811  14.716
70801W        W42417  40.809  19.521   0.555
70802W        W42418  35.850  25.157   3.663
70803W        W42419  34.438  38.248  11.602
70804W        W42420   9.200   9.595  11.120
70805W        W42421  43.253  18.313  11.911
70806W        W42422  34.036  23.045   3.576
70807W        W42423  40.955  40.353   1.826
70808W        W42424   4.428  37.909   2.444
70809W        W42425  36.456  22.207   3.673
70810W        W42426  20.460  23.211   2.497
70811W        W42427  25.956  40.080  13.908
70812W        W42428  36.162   6.362   2.361
70813W        W42429   8.173   3.040  12.828
70814W        W42430  26.153   9.338   4.543
70815W        W42431   3.241  24.189   3.279
70816W        W42432  42.609  32.409   0.815
70817W        W42433  43.786   0.078  13.906
70818W        W42434   0.867   4.233  10.246
70819W        W42435  23.115   8.361   2.854
70820W        W42436  38.029  29.947   3.811
70821W        W42437  28.826  29.532   0.763
70822W        W42438  30.089  16.207   1.356
70823W        W42439   7.053  26.361  12.512
70824W        W42440  29.065   8.847  10.753
70825W        W42441  40.502   8.701  14.715
70826W        W42442   4.248  17.274   2.313
70827W        W42443  15.622  16.868   4.397
70828W        W42444  29.560  44.521  13.082
70829W        W42445  42.675   2.399   2.251
70830W        W42446  33.082   4.134  10.647
70831W        W42447  33.848  23.052   3.096
70832W        W42448   8.252  20.544   4.761
70833W        W42449   0.871  21.498   2.741
70834W        W42450  22.980   1.857  12.969
70835W        W42451   1.979   3.975   2.172
70836W        W42452  14.783  15.255   0.245
70837W        W42453   0.267  33.383   1.451
70838W        W42454  10.431  43.416   3.395
70839W        W42455  25.629  29.151   0.976
70840W        W42456  13.350  15.695  11.127
70841W        W42457   5.986  15.928  11.042
70842W        W42458   2.446  22.521  12.971
70843W        W42459  15.215  13.104  14.309
70844W        W42460  37.967  21.580   1.469
70845W        W42461  19.377  18.117  13.341
70846W        W42462  34.443  31.155  14.812
70847W        W42463  14.653  30.562  11.026
70848W        W42464   9.200  10.685  13.383
70849W        W42465  13.331  28.128  13.869
70850W        W42466  23.537  15.098   4.140
70851W        W42467  35.093  15.905  14.131
70852W        W42468   8.211   4.338   1.403
70853W        W42469  26.691   3.264  14.465
70854W        W42470  22.298  16.719  12.458
70855W        W42471  38.723  15.650  14.749
70856W        W42472  42.828   8.770   0.446
70857W        W42473  44.262  33.955   4.253
70858W        W42474  10.780  39.399   3.773
70859W        W42475  30.679   8.226  13.101
70860W        W42476  21.622  21.264   1.425
70861W        W42477  34.581  16.135   4.595
70862W        W42478  26.594  18.344   2.930
70863W        W42479   7.392   0.863   3.848
70864W        W42480  21.528  43.456   2.334
70865W        W42481   4.927   2.707  10.250
70866W        W42482   7.456  43.194   0.211
70867W        W42483   4.471  11.024   4.534
70868W        W42484  15.266   3.680  11.655
70869W        W42485  16.238  33.092  11.416
70870W        W42486  15.627  11.975   3.690
70871W        W42487  32.534   7.430  11.177
70872W        W42488  42.948  31.015  11.658
70873W        W42489   1.483  26.296  11.519
70874W        W42490  21.256  22.799   2.173
70875W        W42491  15.807  34.972   0.057
70876W        W42492   9.653  44.650  13.506
70877W        W42493  13.102  34.801   0.917
70878W        W42494   7.339  33.404  14.843
70879W        W42495  40.536  43.735  11.554
70880W        W42496   6.567  14.124   1.130
70881W        W42497  23.258  32.186   2.799
70882W        W42498  20.837  25.916  11.213
70883W        W42499  20.596  15.175  10.648
70884W        W42500  20.280  25.347   5.069
70885W        W42501  39.067  40.457   4.211
70886W        W42502   0.080  40.881  11.618
70887W        W42503   0.484  18.080   3.266
70888W        W42504  18.055  32.979  10.617
70889W        W42505  19.062  40.496  13.943
70890W        W42506  23.976  29.105  14.817
70891W        W42507   4.845  24.903   5.009
70892W        W42508   5.825  21.350  11.976
70893W        W42509  15.151  22.113  12.502
70894W        W42510  17.755   7.605  12.077
70895W        W42511  25.645  12.507   4.633
70896W        W42512  44.168  27.261  13.131
70897W        W42513  33.307   1.655   0.037
70898W        W42514   6.926   3.300  13.870
70899W        W42515   5.873  15.688  11.994
70900W        W42516  25.301  13.185   0.064
70901W        W42517   2.308  18.329   4.409
70902W        W42518  40.258  42.562   0.306
70903W        W42519  21.478  26.448   3.256
70904W        W42520  16.083  13.671  10.969
70905W        W42521  34.189   0.548   1.425
70906W        W42522   8.405  27.523   2.297
70907W        W42523  40.460  36.270   1.527
70908W        W42524  18.591   9.785   2.760
70909W        W42525  14.539  22.104   4.106
70910W        W42526  26.435  29.605   4.837
70911W        W42527  29.505  21.700  14.538
70912W        W42528  31.757  13.886   1.829
70913W        W42529   6.868  13.702   4.320
70914W        W42530  31.407  15.341   3.223
70915W        W42531  40.189   7.297  11.596
70916W        W42532  37.547  12.323  10.462
70917W        W42533  14.026  23.675   3.788
70918W        W42534  29.634  26.238   0.267
70919W        W42535   9.793  16.376  14.278
70920W        W42536  13.053   6.768  13.475
70921W        W42537  23.228  44.383  12.420
70922W        W42538  41.916  24.483   1.267
70923W        W42539   7.253   9.674   2.602
70924W        W42540   7.751  29.148   3.131
70925W        W42541   7.055  24.126  13.971
70926W        W42542  27.719  44.832  13.937
70927W        W42543   2.869  10.497  13.296
70928W        W42544  37.533   8.848   2.484
70929W        W42545  38.362   8.392  11.933
70930W        W42546  30.330   6.925  13.182
70931W        W42547  24.054  34.862   3.317
70932W        W42548  18.749  43.236  13.433
70933W        W42549  40.456  12.418  13.369
70934W        W42550  38.567   7.219   4.202
70935W        W42551  11.308   9.905   2.775
70936W        W42552  24.251  41.621  13.425
70937W        W42553  12.293  26.995   3.169
70938W        W42554  41.378  34.562  11.673
70939W        W42555  23.301  16.690   4.686
70940W        W42556  25.153   9.105  13.999
70941W        W42557   0.963  24.111   1.730
70942W        W42558  40.866  14.324   0.252
70943W        W42559  11.925  30.482   0.683
70944W        W42560  38.984  28.170   1.443
70945W        W42561  27.549  30.197  11.660
70946W        W42562  20.591  18.224  11.999
70947W        W42563  32.667  23.686  13.209
70948W        W42564  12.194  28.176   4.772
70949W        W42565  37.893   0.136   2.790
70950W        W42566   2.113   6.790  11.638
70951W        W42567  30.575  29.936   1.375
70952W        W42568  39.226  12.006   4.093
70953W        W42569  20.689   1.209   3.209
70954W        W42570  42.924  38.079   1.318
70955W        W42571  43.962  31.177  12.798
70956W        W42572   0.506  19.053  14.756
70957W        W42573  20.158  25.146   4.312
70958W        W42574  38.845  22.192  11.619
70959W        W42575  22.257   6.284  13.970
70960W        W42576   2.976  20.752  10.618
70961W        W42577   0.855  21.392  12.521
70962W        W42578   4.127  42.077  12.353
70963W        W42579  16.750  16.231   1.791
70964W        W42580   8.318   2.558  12.858
70965W        W42581  39.028   6.912  13.483
70966W        W42582  12.145  20.737   1.424
70967W        W42583  32.967   3.547  14.451
70968W        W42584  37.073  23.622   3.679
70969W        W42585  31.911  33.659   3.305
70970W        W42586   6.337  44.895  13.866
70971W        W42587  34.506   8.307   3.339
70972W        W42588   0.285   7.187   1.899
70973W        W42589  39.514   5.004  12.510
70974W        W42590  32.930  30.869  10.512
70975W        W42591   6.242  44.220  11.644
70976W        W42592  25.232  11.649  10.342
70977W        W42593   1.009  30.064  10.536
70978W        W42594  17.728  42.076   4.322
70979W        W42595  33.869   5.462  12.582
70980W        W42596   4.933  17.583   1.286
70981W        W42597  41.516   5.235  12.323
70982W        W42598  44.723  15.066  14.439
70983W        W42599  26.825  42.027  14.784
70984W        W42600  12.170  31.870   4.371
70985W        W42601   6.376   1.402   1.838
70986W        W42602  28.906  32.842   0.610
70987W        W42603   8.073  39.864   3.758
70988W        W42604  17.782  38.483  14.128
70989W        W42605  37.026  31.522   2.408
70990W        W42606  16.249   3.072   2.166
70991W        W42607   3.361  38.484  11.742
70992W        W42608  27.386   5.725   2.629
70993W        W42609  20.696   1.370   3.795
70994W        W42610  40.303  13.272   4.259
70995W        W42611   6.657  43.386   0.770
70996W        W42612  27.917   1.281  12.804
70997W        W42613  37.569  14.275   0.724
70998W        W42614  10.446  36.018  13.397
70999W        W42615  44.944  30.839   3.279
71000W        W42616  36.018  42.646   3.543
71001W        W42617   5.092  44.426   3.473
71002W        W42618  21.552  36.544   4.782
71003W        W42619  24.586  33.676   1.718
71004W        W42620  22.955  10.774   1.438
71005W        W42621  17.370   0.436   4.779
71006W        W42622  16.506  24.701  13.343
71007W        W42623   3.708  34.526  11.042
71008W        W42624   4.672   7.440   1.555
71009W        W42625  11.167  26.545  13.467
71010W        W42626  19.689  23.431   0.699
71011W        W42627  38.958  36.852  12.067
71012W        W42628  11.697  19.676  10.360
71013W        W42629  25.116  14.499  14.724
71014W        W42630  21.164  23.985  12.081
71015W        W42631  13.333  16.530  11.073
71016W        W42632  32.350   3.524  14.931
71017W        W42633  33.961  36.135   3.118
71018W        W42634  25.197  17.015  12.866
71019W        W42635  12.025   3.070  11.234
71020W        W42636  42.743  18.369   4.157
71021W        W42637  12.373  28.023   2.378
71022W        W42638   7.847  35.106   0.562
71023W        W42639  32.492   8.283   2.334
71024W        W42640  21.909  15.587   4.666
71025W        W42641  18.932  40.928   0.318
71026W        W42642   7.233  36.382   0.630
71027W        W42643  16.613   0.844   4.752
71028W        W42644  24.747   1.396   3.157
71029W        W42645  23.603  39.740  13.872
71030W        W42646  21.975  28.800   3.570
71031W        W42647  23.566  23.950   4.308
71032W        W42648  39.916  28.936  11.529
71033W        W42649   4.666  38.059  13.935
71034W        W42650  42.345  14.014   4.132
71035W        W42651  44.415  20.431  14.429
71036W        W42652  16.262  34.922  14.837
71037W        W42653   7.364  12.129   1.228
71038W        W42654   0.409   5.381   3.599
71039W        W42655   1.937  43.017   0.323
71040W        W42656  33.875  19.535   4.103
71041W        W42657  12.047   9.627  14.952
71042W        W42658  32.910  17.617   2.654
71043W        W42659  30.742  11.306  13.213
71044W        W42660  26.000  34.020  13.742
71045W        W42661  20.806  38.413  12.186
71046W        W42662  18.010  15.622  14.071
71047W        W42663  25.028   2.347   2.864
71048W        W42664   5.253  40.163  14.907
71049W        W42665   9.618  25.081   3.227
71050W        W42666   4.210  38.225  11.203
71051W        W42667  23.715  32.150  10.999
71052W        W42668   5.953   7.726  11.015
71053W        W42669  43.456  16.705   2.929
71054W        W42670   8.258  41.349   0.766
71055W        W42671  35.074  32.906  14.273
71056W        W42672  41.917  39.260  14.313
71057W        W42673  31.021   4.850  13.887
71058W        W42674  20.368  27.666   2.867
71059W        W42675  27.408  16.349   3.187
71060W        W42676   5.663   0.418  10.293
71061W        W42677  15.673  14.848   3.357
71062W        W42678  12.334  12.199   2.188
71063W        W42679  41.067   2.723  14.729
71064W        W42680  34.097   2.269  11.359
71065W        W42681  28.100  39.947   0.321
71066W        W42682  25.410  15.115  11.044
71067W        W42683   1.845   4.925   3.401
71068W        W42684   4.447  42.477  12.936
71069W        W42685  27.457  32.094  13.098
71070W        W42686   2.272   9.031  11.767
71071W        W42687  12.216   8.159  14.330
71072W        W42688  32.432  27.853   1.515
71073W        W42689  37.056  26.520  14.465
71074W        W42690  37.148  26.221   2.267
71075W        W42691   4.132  40.518   1.367
71076W        W42692   4.677  37.575   0.983
71077W        W42693  43.777  21.641   2.767
71078W        W42694  14.323  43.022  11.116
71079W        W42695  19.769  21.550   3.221
71080W        W42696   4.227  35.871   3.893
71081W        W42697  41.477  18.626  14.033
71082W        W42698  19.546  10.605  14.922
71083W        W42699  40.795   6.025  14.299
71084W        W42700  37.106  12.576  12.106
71085W        W42701  12.249  16.501  11.138
71086W        W42702  27.809   8.131   4.089
71087W        W42703  35.835  14.873   0.340
71088W        W42704  27.780  40.077  13.049
71089W        W42705  39.286  26.796   4.209
71090W        W42706  18.171  42.568   2.201
71091W        W42707  18.147   5.386   4.529
71092W        W42708  33.238   6.574  13.213
71093W        W42709  12.402   4.324  14.160
71094W        W42710  12.402  14.201   0.373
71095W        W42711  11.272  22.626  11.858
71096W        W42712  22.664  17.777   2.206
71097W        W42713  42.552   1.552  11.149
71098W        W42714  35.869  24.517   2.590
71099W        W42715   0.819   5.111  12.900
71100W        W42716  37.981  11.666   4.556
71101W        W42717  24.774  44.732   1.448
71102W        W42718  19.480  35.119  11.877
71103W        W42719  26.048  38.294  14.408
71104W        W42720   9.263  29.655   3.831
71105W        W42721   4.483  14.550  14.383
71106W        W42722   9.431  38.725  10.245
71107W        W42723  11.661  42.950  10.483
71108W        W42724  21.494  29.723  13.165
71109W        W42725  12.877   8.770   4.885
71110W        W42726   3.762  33.064  11.570
71111W        W42727  37.386  10.348   5.565
71112W        W42728  28.456  25.538   2.916
71113W        W42729  34.021  17.977  12.392
71114W        W42730  33.826  17.020  14.374
71115W        W42731  13.928  13.052   2.312
71116W        W42732  32.025   4.946   4.589
71117W        W42733  30.098   0.849   3.192
71118W        W42734   0.861  44.416  14.231
71119W        W42735  26.146  28.714  13.950
71120W        W42736  28.585   7.155  12.428
71121W        W42737  12.801   1.995   2.916
71122W        W42738  25.037  31.448   3.708
71123W        W42739  31.552  14.613   4.813
71124W        W42740  38.275  31.159  12.591
71125W        W42741  22.370  34.386   9.888
71126W        W42742  35.115  10.215   0.334
71127W        W42743  39.907  28.700   1.261
71128W        W42744  34.361  44.015  13.838
71129W        W42745  23.481  19.104   2.390
71130W        W42746  37.238   9.254  13.134
71131W        W42747  23.685  26.678   3.646
71132W        W42748  40.425  22.826  14.390
71133W        W42749  21.547  42.248   3.747
71134W        W42750  37.101  28.516  13.478
71135W        W42751  36.331   8.667   2.833
71136W        W42752   5.217  16.340  11.451
71137W        W42753  12.250  44.874   0.918
71138W        W42754  14.060  41.460   2.920
71139W        W42755  28.203  36.470  12.825
71140W        W42756   2.698  27.196   2.903
71141W        W42757  10.261  37.082   0.071
71142W        W42758  34.409  35.417   4.419
71143W        W42759  30.427  36.820  13.899
71144W        W42760   0.476   3.440   3.743
71145W        W42761  19.845   3.630   4.101
71146W        W42762  29.997  25.075   1.675
71147W        W42763   5.448  21.199   1.759
71148W        W42764   8.714  29.434   4.021
71149W        W42765  19.600  24.596   2.670
71150W        W42766  24.844  33.372  13.430
71151W        W42767  41.651  14.650  12.424
71152W        W42768  18.842  14.984   3.721
71153W        W42769  33.063   9.900   1.850
71154W        W42770  11.536  12.832  10.292
71155W        W42771  30.910  28.967   1.506
71156W        W42772   2.875  22.056   4.220
71157W        W42773  35.120  15.128   2.881
71158W        W42774  22.122   2.397   1.360
71159W        W42775  12.132  35.177   1.671
71160W        W42776  41.766  40.540  14.616
71161W        W42777   1.821   1.208  10.205
71162W        W42778  42.861  27.150   2.620
71163W        W42779  44.481  31.963  14.312
71164W        W42780  11.625   3.266   2.860
71165W        W42781  21.336  36.147  10.986
71166W        W42782  13.323  33.450  14.932
71167W        W42783  28.420  28.263   5.031
71168W        W42784   3.329  22.633  11.703
71169W        W42785  37.961  29.460   0.269
71170W        W42786  23.629  26.631  14.314
71171W        W42787  36.536   9.911   3.257
71172W        W42788  12.785  30.870   0.890
71173W        W42789  13.188  30.421   1.338
71174W        W42790  23.651  33.299   4.635
71175W        W42791  25.538  20.450  13.011
71176W        W42792  15.007   5.182  10.295
71177W        W42793   1.785   9.348  11.395
71178W        W42794   6.885   7.562  10.792
71179W        W42795  30.008  21.686   4.551
71180W        W42796  35.048  25.902   3.723
71181W        W42797  12.814  34.439   1.725
71182W        W42798  37.337  28.659  14.421
71183W        W42799   8.385  25.322   2.799
71184W        W42800   6.736  10.423  10.796
71185W        W42801  11.775  35.019  10.153
71186W        W42802  24.809  43.401  12.501
71187W        W42803  39.958  18.333  13.417
71188W        W42804  34.472   9.787   2.618
71189W        W42805  16.238  19.576   4.104
71190W        W42806   2.975   5.710  14.331
71191W        W42807   5.224  38.352  11.129
71192W        W42808  24.709   8.917   1.585
71193W        W42809   0.493  40.485  14.864
71194W        W42810   1.153  44.004   4.571
71195W        W42811   4.767  43.578   0.665
71196W        W42812  24.662  42.172   1.650
71197W        W42813  30.901  20.308  13.422
71198W        W42814  35.096  24.509   1.134
71199W        W42815  17.864  13.542   3.343
71200W        W42816  44.735  35.397  10.817
71201W        W42817  23.356  30.962  14.350
71202W        W42818  39.041   1.857  11.278
71203W        W42819  27.115  40.600   1.656
71204W        W42820  34.728  20.475  11.875
71205W        W42821  29.960  38.121   3.289
71206W        W42822  40.414  15.236   1.813
71207W        W42823  15.182  20.059   1.978
71208W        W42824  32.013   3.950  11.588
71209W        W42825  19.596   9.167   2.318
71210W        W42826  40.498   0.762  13.223
71211W        W42827  24.908   9.445  12.002
71212W        W42828  16.535  39.669   0.733
71213W        W42829   2.029  32.419  12.919
71214W        W42830   7.272  10.702  13.497
71215W        W42831  34.116  24.957   4.301
71216W        W42832   5.642  11.167   3.212
71217W        W42833  18.819  19.428   1.846
71218W        W42834  21.047  40.415   1.206
71219W        W42835  34.829  31.415   3.488
71220W        W42836  26.557  11.310   0.694
71221W        W42837  24.993  33.431   0.404
71222W        W42838  38.800  23.446  14.550
71223W        W42839  30.599  34.486  12.383
71224W        W42840   1.329  36.959  12.003
71225W        W42841  27.770  14.293   0.422
71226W        W42842  14.753  24.001  10.909
71227W        W42843  39.514   8.133   3.810
71228W        W42844   4.181  10.379  12.028
71229W        W42845  42.813  42.468   4.949
71230W        W42846  25.256  14.361  14.242
71231W        W42847   1.901  10.886   1.766
71232W        W42848  26.709  30.394  14.306
71233W        W42849  12.968  21.812  11.103
71234W        W42850  17.656   7.629  11.206
71235W        W42851  37.035  18.911   1.769
71236W        W42852  29.436  30.052  13.547
71237W        W42853  31.681  19.664   9.825
71238W        W42854  35.127  15.783   3.700
71239W        W42855  19.443  11.165   3.727
71240W        W42856  20.808  27.695   2.623
71241W        W42857  11.561   3.016   3.686
71242W        W42858  30.918  17.688   2.821
71243W        W42859  42.281  29.864  14.132
71244W        W42860  44.947  22.058   1.447
71245W        W42861  29.861  17.379  14.364
71246W        W42862  44.479  43.878   2.118
71247W        W42863   4.211  36.332   0.869
71248W        W42864  16.308  17.917   3.453
71249W        W42865  33.161  43.925   1.614
71250W        W42866  44.254  42.988   2.373
71251W        W42867  40.927  22.736  11.066
71252W        W42868   0.613  22.755  10.181
71253W        W42869   8.945  21.110  10.848
71254W        W42870  33.718  43.885   5.558
71255W        W42871  31.902  34.540   4.228
71256W        W42872  43.851  30.539  11.112
71257W        W42873  14.674  17.783  14.518
71258W        W42874  22.115   8.702  11.137
71259W        W42875  14.719  13.814   3.142
71260W        W42876  34.493  15.124   4.812
71261W        W42877  32.996   2.502   5.490
71262W        W42878   4.646   2.769   0.376
71263W        W42879   0.911  42.294  10.693
71264W        W42880  34.824  12.486  11.077
71265W        W42881   6.318  24.446   0.686
71266W        W42882   3.742  43.797   2.827
71267W        W42883   9.137  19.314  14.374
71268W        W42884  43.551   4.782  12.452
71269W        W42885  42.340  29.369  13.953
71270W        W42886  32.584   6.206   3.309
71271W        W42887  38.755  29.386   2.658
71272W        W42888  33.487  10.659  13.416
71273W        W42889   0.015  21.541   0.238
71274W        W42890   2.819   3.690  13.214
71275W        W42891  19.144  36.312   4.150
71276W        W42892  25.953  11.890  13.412
71277W        W42893  22.157  31.193  13.338
71278W        W42894  11.147  44.488  13.577
71279W        W42895  16.675  25.510  12.017
71280W        W42896  28.385  16.480   2.837
71281W        W42897  17.185  42.968   2.438
71282W        W42898  28.002  27.873  14.397
71283W        W42899   2.458  41.407  10.059
71284W        W42900   4.831   2.936  13.467
71285W        W42901   1.901  39.419   2.729
71286W        W42902   1.243  43.709  11.239
71287W        W42903  40.575   1.568  12.163
71288W        W42904  12.246  39.699   2.177
71289W        W42905   1.786  27.001   1.993
71290W        W42906  14.471  36.327  13.830
71291W        W42907   9.731  32.525   3.921
71292W        W42908  38.431  18.399  12.124
71293W        W42909  20.278  30.674   3.308
71294W        W42910  39.271   8.836   1.863
71295W        W42911   1.316   9.247   2.762
71296W        W42912   6.477  24.941   2.622
71297W        W42913  41.939  43.703  13.769
71298W        W42914   6.649  15.861   2.249
71299W        W42915  17.412  36.638   2.958
71300W        W42916   1.322  12.096   2.336
71301W        W42917  18.833  20.640   0.428
71302W        W42918   3.028  28.608   1.801
71303W        W42919  39.699  11.715   2.197
71304W        W42920   0.918  30.470   1.136
71305W        W42921  14.901   8.358  12.433
71306W        W42922  23.625  38.126  11.635
71307W        W42923  42.521  18.287  10.747
71308W        W42924  25.186   6.672  12.468
71309W        W42925  19.511  38.883  13.536
71310W        W42926  36.871  15.592   1.034
71311W        W42927  26.616  44.533   2.088
71312W        W42928  10.342   4.810   1.721
71313W        W42929  28.138  17.107   3.332
71314W        W42930  19.796  22.627  12.015
71315W        W42931   3.716  43.855  10.180
71316W        W42932  40.892   6.893  13.427
71317W        W42933  27.639   8.950   3.663
71318W        W42934  41.111  19.813  12.535
71319W        W42935   7.940  42.494  14.087
71320W        W42936  11.153  31.631   0.846
71321W        W42937  11.652  15.102   0.460
71322W        W42938  13.292  13.056   0.747
71323W        W42939  18.809  12.875  12.829
71324W        W42940  39.141  13.917  12.490
71325W        W42941  33.092   3.036  14.498
71326W        W42942  18.840  30.845  11.273
71327W        W42943  34.424  40.809   1.152
71328W        W42944  44.197  36.082  12.960
71329W        W42945   5.713   3.676  12.644
71330W        W42946  14.019   5.764   2.725
71331W        W42947  36.810  28.623   4.137
71332W        W42948  18.545   4.170  12.774
71333W        W42949  35.886  29.655   0.490
71334W        W42950  42.098  23.519   1.049
71335W        W42951  19.812  10.666   4.624
71336W        W42952  34.641   2.483   2.806
71337W        W42953  27.213  27.675  11.606
71338W        W42954  18.735  29.880   3.978
71339W        W42955  29.547  12.111   1.506
71340W        W42956  41.335  39.563  12.896
71341W        W42957  33.098  38.439   0.463
71342W        W42958  30.047  22.222   2.291
71343W        W42959  23.681  30.535   2.271
71344W        W42960   0.051  12.868   2.677
71345W        W42961  36.104  44.970  13.939
71346W        W42962  24.569   0.087   3.171
71347W        W42963  18.220   7.248  12.444
71348W        W42964  28.176  27.391   0.690
71349W        W42965   4.465  19.675  13.518
71350W        W42966  13.894  37.588   0.807
71351W        W42967  40.031  29.851  11.513
71352W        W42968   1.394  41.333  13.173
71353W        W42969  18.074  39.423   0.871
71354W        W42970   1.210  37.827   1.279
71355W        W42971  29.920   8.897  14.937
71356W        W42972  29.622  15.448  13.462
71357W        W42973  41.421   3.361  14.567
71358W        W42974   2.322  14.734   3.247
71359W        W42975  27.038  32.851   1.791
71360W        W42976  12.967   7.762  13.332
71361W        W42977  32.556  39.503   3.719
71362W        W42978  34.996  28.635  13.613
71363W        W42979  36.907   9.943  12.807
71364W        W42980   1.320  25.661   0.558
71365W        W42981   0.362   5.975  12.888
71366W        W42982   0.427  27.716   2.882
71367W        W42983   8.926   0.489  11.509
71368W        W42984  24.007  15.342   4.122
71369W        W42985   2.437  24.604  12.843
71370W        W42986  22.570  29.143   1.825
71371W        W42987  25.858  36.044   2.236
71372W        W42988   5.958   3.247   0.520
71373W        W42989  29.191   7.982   0.674
71374W        W42990   5.334  40.149   0.769
71375W        W42991  38.549  41.520   2.120
71376W        W42992  23.737  14.588   1.465
71377W        W42993  33.602  31.019  13.254
71378W        W42994  42.576   4.286  12.937
71379W        W42995  41.110  25.590   3.600
71380W        W42996   0.033  35.567  11.610
71381W        W42997  37.650  19.478  10.608
71382W        W42998   2.837  35.782  11.579
71383W        W42999   2.003  25.444   5.150
71384W        W43000  37.011  15.072  12.951
71385W        W43001  21.267  18.786   3.823
71386W        W43002  10.164   0.355   3.627
71387W        W43003  39.855  39.565  14.983
71388W        W43004  16.106   4.237   0.411
71389W        W43005  26.526  23.359  12.062
71390W        W43006  25.998   8.725   0.431
71391W        W43007   7.783  40.181  11.401
71392W        W43008   1.747  27.386   3.669
71393W        W43009   0.027  15.085   3.114
71394W        W43010  32.022  29.955   3.194
71395W        W43011  31.516  15.507  12.548
71396W        W43012  15.577  17.657   3.314
71397W        W43013  25.865  35.341  12.520
71398W        W43014  30.626   6.524   3.713
71399W        W43015   0.783  43.444  11.233
71400W        W43016   5.493   9.366  10.709
71401W        W43017  34.978  12.864   3.126
71402W        W43018  35.665  36.480  12.859
71403W        W43019  34.479  28.385  11.962
71404W        W43020  20.601  19.769  14.926
71405W        W43021   3.417   8.747   1.496
71406W        W43022   5.867  29.118  10.807
71407W        W43023  12.757  10.101  11.167
71408W        W43024  13.263  17.249  12.565
71409W        W43025  22.197  43.532   1.417
71410W        W43026  40.502  18.574   3.168
71411W        W43027  13.547  38.575  11.699
71412W        W43028  16.059   4.352  12.972
71413W        W43029  25.477  10.111  11.097
71414W        W43030   9.162  20.589   1.205
71415W        W43031  41.921  26.948  13.488
71416W        W43032  14.013  12.382  14.689
71417W        W43033  18.831   4.206   1.301
71418W        W43034  35.061  27.650   2.585
71419W        W43035  16.024  20.299   2.426
71420W        W43036   0.465  32.015  13.396
71421W        W43037  30.733  20.597  12.532
71422W        W43038  41.846  24.993   4.235
71423W        W43039  23.162   8.525  13.919
71424W        W43040  35.612  29.626  13.502
71425W        W43041  25.198  35.638   2.885
71426W        W43042  24.486  37.775  10.332
71427W        W43043  14.923  12.631  11.651
71428W        W43044  24.699   1.233   2.259
71429W        W43045   9.570  28.571  13.307
71430W        W43046  43.456   3.738   0.317
71431W        W43047  40.535  34.324  10.277
71432W        W43048  32.597  33.373   0.002
71433W        W43049   6.659  23.702   2.280
71434W        W43050  26.568  32.022  10.119
71435W        W43051  19.191  10.273  14.077
71436W        W43052  26.475   0.396   4.691
71437W        W43053  15.859  25.484  13.326
71438W        W43054  30.816  18.177   1.812
71439W        W43055  20.547  18.424  14.342
71440W        W43056  33.982  24.212   5.012
71441W        W43057   7.218  34.931   2.257
71442W        W43058  34.188  21.734   0.524
71443W        W43059  24.007  13.444  11.522
71444W        W43060  33.061  14.520  12.674
71445W        W43061  11.703  33.417   3.765
71446W        W43062  13.980  38.192   0.831
71447W        W43063   7.225   4.956  12.934
71448W        W43064  10.986  14.761  11.640
71449W        W43065  24.081  42.524  13.868
71450W        W43066  14.699  37.198   1.541
71451W        W43067   3.862  33.606   0.452
71452W        W43068   9.413  34.397  13.307
71453W        W43069  42.887  34.463  14.737
71454W        W43070  32.206   2.253   4.702
71455W        W43071  12.380   0.483  11.084
71456W        W43072  10.405  41.924   0.913
71457W        W43073  14.786   2.189  12.851
71458W        W43074  26.467  32.594  14.953
71459W        W43075  17.236  16.755  13.373
71460W        W43076   3.934  24.585  10.453
71461W        W43077  26.462  11.870  10.777
71462W        W43078  13.569  26.289   5.363
71463W        W43079  19.425  19.996  11.585
71464W        W43080  15.002   1.919  13.254
71465W        W43081  26.964  21.670   1.002
71466W        W43082  10.548  40.446   2.213
71467W        W43083  13.661   7.445   2.932
71468W        W43084  34.957  22.563   1.320
71469W        W43085   7.978  20.027   4.597
71470W        W43086  41.226  13.064   0.754
71471W        W43087  29.468  31.735   3.646
71472W        W43088  12.135  30.566  12.106
71473W        W43089  29.422  41.793  14.851
71474W        W43090   1.154  40.433  11.162
71475W        W43091   1.680  23.536  12.960
71476W        W43092   4.005   5.295  10.925
71477W        W43093  38.782  30.987   2.678
71478W        W43094   7.143  19.269   0.558
71479W        W43095  37.964  23.505  10.700
71480W        W43096  19.237   5.830   4.060
71481W        W43097  40.873   6.824  11.949
71482W        W43098  20.621  42.599  14.861
71483W        W43099   3.279  24.702   3.468
71484W        W43100   4.270  27.368  12.113
71485W        W43101  10.840  44.260  14.879
71486W        W43102  24.567  43.880  12.439
71487W        W43103  40.731  33.716  14.928
71488W        W43104  43.541   4.454  13.599
71489W        W43105  39.397  12.897   4.232
71490W        W43106   7.079  36.966  12.966
71491W        W43107  30.342  42.246   4.194
71492W        W43108  22.060  40.944   2.340
71493W        W43109  38.053  41.534   2.266
71494W        W43110  22.944   8.625   3.271
71495W        W43111   6.451  17.038  11.882
71496W        W43112   3.955  33.463  11.827
71497W        W43113   7.749  37.353  10.310
71498W        W43114   1.262  25.915  11.766
71499W        W43115  36.895  26.906   0.401
71500W        W43116  11.194  13.410   1.833
71501W        W43117  33.084  20.209   2.340
71502W        W43118  22.393  27.327  14.908
71503W        W43119  19.132  13.578   2.883
71504W        W43120  31.134  42.556   3.735
71505W        W43121  24.030  32.171  14.819
71506W        W43122  41.861   7.808   0.578
71507W        W43123  24.136  10.939  11.057
71508W        W43124  33.581  31.730   4.483
71509W        W43125   1.517   1.703   1.836
71510W        W43126  24.054  16.814   0.296
71511W        W43127   0.453  19.670   1.776
71512W        W43128  43.319   1.366   2.690
71513W        W43129  19.818  38.884  10.651
71514W        W43130   7.368   2.915   4.049
71515W        W43131  25.689   7.375   4.934
71516W        W43132  27.514   4.222   3.848
71517W        W43133   3.704  31.701  13.128
71518W        W43134  23.935  10.165  10.210
71519W        W43135  13.853  41.542  12.458
71520W        W43136  22.285  21.030  13.929
71521W        W43137  11.746  11.757  14.842
71522W        W43138  29.463   6.641  12.500
71523W        W43139   1.382  22.100  11.073
71524W        W43140   8.831  28.606  13.792
71525W        W43141  27.946  40.030   4.118
71526W        W43142  12.522   0.311  14.507
71527W        W43143  29.616  26.185  14.371
71528W        W43144   5.400   8.179   3.297
71529W        W43145   6.399  31.204   1.970
71530W        W43146  39.468  12.900   0.861
71531W        W43147  23.638  22.810   3.155
71532W        W43148  18.333  13.726   3.314
71533W        W43149   3.720   0.742  13.554
71534W        W43150  39.377  25.588  14.405
71535W        W43151   3.825   7.369   1.326
71536W        W43152  23.934  11.643  11.632
71537W        W43153   3.744  29.454  10.289
71538W        W43154  28.616  31.488  12.388
71539W        W43155  16.738  39.938   4.292
71540W        W43156  44.488  33.362  13.865
71541W        W43157  28.198  12.405  11.169
71542W        W43158  11.724  14.664   2.263
71543W        W43159  17.312  18.785   0.708
71544W        W43160  42.190   4.310  11.485
71545W        W43161   7.469   0.318   3.056
71546W        W43162  43.293  10.139  11.233
71547W        W43163  25.268  20.649  14.343
71548W        W43164  23.609  41.725  12.367
71549W        W43165  33.493  17.051   0.893
71550W        W43166  19.494  37.269  11.141
71551W        W43167  17.967  44.242   2.785
71552W        W43168  13.626  12.804  12.553
71553W        W43169  33.173  36.032  13.913
71554W        W43170  24.246  19.446   3.304
71555W        W43171  44.961  31.358   3.184
71556W        W43172  35.492  11.568   2.908
71557W        W43173   8.760   0.797  13.944
71558W        W43174   9.430  13.169   4.185
71559W        W43175   6.479  21.854  12.666
71560W        W43176  43.798  30.388  12.534
71561W        W43177  20.856   6.936   3.457
71562W        W43178  20.195  25.045   2.206
71563W        W43179  24.054   9.345  11.429
71564W        W43180  11.784  44.534  14.803
71565W        W43181  29.729  27.977   5.446
71566W        W43182  18.576  20.144  11.444
71567W        W43183  30.105  23.202  12.504
71568W        W43184   8.332   3.197   3.351
71569W        W43185  21.744  24.966  14.997
71570W        W43186  16.207  43.283   4.903
71571W        W43187  23.926  31.921   4.439
71572W        W43188  29.390  28.104   1.363
71573W        W43189  34.604   1.645  11.553
71574W        W43190   9.975  31.942   5.055
71575W        W43191  37.089  13.347   0.752
71576W        W43192  14.325  15.910  10.578
71577W        W43193  40.117   3.627   1.900
71578W        W43194  42.768  29.705   0.379
71579W        W43195  32.417   8.005   1.892
71580W        W43196  21.940  22.210  14.593
71581W        W43197  20.685  19.550  14.442
71582W        W43198  14.377  19.709   3.771
71583W        W43199  38.474  37.306   1.269
71584W        W43200  42.965  29.103  13.445
71585W        W43201  37.895  38.842  14.004
71586W        W43202  27.644   7.196  14.307
71587W        W43203  13.763  16.839  11.178
71588W        W43204  33.144  30.724   4.263
71589W        W43205  16.139   4.395   1.126
71590W        W43206  29.207  44.981   4.206
71591W        W43207   0.414  11.336   3.598
71592W        W43208   2.209  20.601  11.073
71593W        W43209   1.247  17.308   4.091
71594W        W43210  30.385  40.609  11.179
71595W        W43211  39.950  42.774   3.614
71596W        W43212   2.413  39.000  13.276
71597W        W43213  34.671  16.198  13.064
71598W        W43214   9.110  16.334  14.840
71599W        W43215  29.590  38.922   3.304
71600W        W43216  20.734  37.501   0.687
71601W        W43217  42.350  13.921   4.629
71602W        W43218  16.079  11.187  10.430
71603W        W43219  16.145  42.191   4.440
71604W        W43220  23.260  13.143  12.099
71605W        W43221  19.316  13.705  14.936
71606W        W43222   5.668  14.534  11.383
71607W        W43223  41.382  40.702   1.008
71608W        W43224   8.215   0.844   2.083
71609W        W43225  40.481   8.108  13.298
71610W        W43226   7.858  42.130   3.752
71611W        W43227  24.731  20.577   1.315
71612W        W43228  15.872  28.591  12.340
71613W        W43229  22.541  16.633   0.374
71614W        W43230  11.068   9.395  14.664
71615W        W43231   6.240   9.720   9.988
71616W        W43232  13.193  35.827   3.300
71617W        W43233  35.136  19.642   0.928
71618W        W43234  28.209  33.993  10.268
71619W        W43235  44.520  39.059  10.574
71620W        W43236  19.421  32.937   2.379
71621W        W43237  16.571  29.444   1.662
71622W        W43238  35.592  42.598  13.121
71623W        W43239  19.497  15.801  11.130
71624W        W43240  35.660  36.755   4.658
71625W        W43241  44.771  18.205  11.559
71626W        W43242  17.298  30.955  12.021
71627W        W43243   6.431  25.584   2.059
71628W        W43244  43.022  23.045   2.700
71629W        W43245  26.585  15.189  13.798
71630W        W43246  18.220  11.257   4.479
71631W        W43247  11.316  20.664   0.850
71632W        W43248  37.000  15.727   4.711
71633W        W43249   7.605  25.942  14.983
71634W        W43250  25.999   5.952   3.753
71635W        W43251  35.535   9.692   1.295
71636W        W43252  19.160   8.181  12.905
71637W        W43253  11.582  29.016  10.751
71638W        W43254  20.242  38.795  13.013
71639W        W43255  17.882  33.460   4.528
71640W        W43256  30.873   7.992  14.913
71641W        W43257  28.760   1.740  10.725
71642W        W43258  39.107  27.704  14.376
71643W        W43259  36.431  40.496   3.751
71644W        W43260  42.081  12.697  11.149
71645W        W43261  19.697  37.832   3.748
71646W        W43262  31.651  10.312   0.129
71647W        W43263  36.456  21.267  14.358
71648W        W43264  22.741  42.480  14.951
71649W        W43265  10.192  29.655   1.384
71650W        W43266  13.037  39.422   2.290
71651W        W43267  35.464  31.933   0.798
71652W        W43268   0.954  29.183   2.350
71653W        W43269   5.623  41.771   1.341
71654W        W43270  41.978  18.816   1.930
71655W        W43271   3.490  42.593   2.635
71656W        W43272  42.932  10.139   2.255
71657W        W43273   3.373  24.532   9.868
71658W        W43274   3.995   5.313   0.533
71659W        W43275  35.932  36.521  14.614
71660W        W43276   3.836  26.776  10.730
71661W        W43277   8.909  34.865  14.808
71662W        W43278  13.322   6.694   2.263
71663W        W43279  11.301  10.235   3.215
71664W        W43280   3.708  12.020   4.310
71665W        W43281  12.616  28.972   4.097
71666W        W43282  23.202  36.724  12.158
71667W        W43283  27.399  31.185  13.066
71668W        W43284   9.227   7.644  12.005
71669W        W43285   1.745  21.505  11.855
71670W        W43286   9.847   8.170   1.424
71671W        W43287  36.910  41.394  12.003
71672W        W43288  39.068  36.903   5.012
71673W        W43289  14.410  41.149  13.307
71674W        W43290  25.460  22.609  13.410
71675W        W43291  24.578  36.122   2.320
71676W        W43292  41.250  16.218  14.879
71677W        W43293  31.575  25.634   3.783
71678W        W43294   7.080  24.038   0.867
71679W        W43295   2.252  26.696   5.147
71680W        W43296  44.069  42.860   1.268
71681W        W43297  25.576  41.310  10.196
71682W        W43298  33.538   7.476  12.370
71683W        W43299  44.461   2.138   1.516
71684W        W43300  39.523  33.715  11.528
71685W        W43301   3.076  26.298   1.340
71686W        W43302  31.590   9.917  13.077
71687W        W43303  12.521   2.858  13.452
71688W        W43304   8.850   5.942   3.936
71689W        W43305  35.422  25.458   1.793
71690W        W43306  41.804  31.201  12.709
71691W        W43307  20.170  13.154   1.257
71692W        W43308  17.997  25.384  11.124
71693W        W43309  18.651  11.098  10.821
71694W        W43310  22.721  26.286  12.035
71695W        W43311  15.152   1.233   1.854
71696W        W43312  36.945  13.566  12.081
71697W        W43313  40.815  26.520   3.186
71698W        W43314  44.471  41.119  10.779
71699W        W43315  28.449  37.120  10.610
71700W        W43316  13.699  15.585  12.480
71701W        W43317  10.107   5.050  14.427
71702W        W43318  43.833  22.963  11.716
71703W        W43319  17.228  32.073  10.529
71704W        W43320  19.733  43.597  13.595
71705W        W43321  37.138  38.131   4.021
71706W        W43322  29.480  29.326   2.670
71707W        W43323  15.580  32.134  12.280
71708W        W43324  40.270  38.791  14.858
71709W        W43325  14.698  33.097  13.102
71710W        W43326   8.284  37.757   0.986
71711W        W43327   7.591   9.662  12.093
71712W        W43328  30.132  11.072   0.956
71713W        W43329  29.570  19.226  14.497
71714W        W43330  42.003  34.313   2.304
71715W        W43331  35.306  34.428  11.697
71716W        W43332  19.170  27.308  13.070
71717W        W43333  30.434  30.115   2.370
71718W        W43334  24.714  34.852  11.118
71719W        W43335  43.908  34.612   4.251
71720W        W43336  24.966  27.191  13.930
71721W        W43337  38.948   2.130  14.925
71722W        W43338  37.437  32.571  12.014
71723W        W43339  40.256  32.697   2.213
71724W        W43340   1.663   7.578   4.097
71725W        W43341  29.154  40.021   0.277
71726W        W43342  42.421  13.628  13.773
71727W        W43343  18.572  13.001   4.974
71728W        W43344  39.962   4.060   4.555
71729W        W43345   5.834  42.717  10.995
71730W        W43346   0.859  16.762   2.843
71731W        W43347  17.275  31.172   2.501
71732W        W43348  19.445  40.646  11.529
71733W        W43349  39.836  23.029  13.523
71734W        W43350  14.466  33.267  11.921
71735W        W43351  12.904  24.004  13.343
71736W        W43352   5.904   8.355  12.107
71737W        W43353  22.644   5.242   4.683
71738W        W43354  20.110  42.006   1.202
71739W        W43355  21.692   7.576  11.507
71740W        W43356  34.975  36.785  14.950
71741W        W43357   6.580  29.036  11.960
71742W        W43358  27.292   8.214   4.070
71743W        W43359  34.033  29.967  14.506
71744W        W43360   2.706  42.776   2.323
71745W        W43361   1.894   1.719   4.716
71746W        W43362   8.755  24.040   1.922
71747W        W43363  12.913  41.997  11.083
71748W        W43364   5.657  11.868   4.359
71749W        W43365  41.782  27.607  12.841
71750W        W43366  16.026  41.445   0.286
71751W        W43367  17.263  39.835   0.702
71752W        W43368   0.057  23.668   1.690
71753W        W43369   3.760  19.232  11.699
71754W        W43370  35.124   4.212  14.110
71755W        W43371  10.655   3.850   4.341
71756W        W43372  37.431   8.941   5.199
71757W        W43373  27.143  36.983   4.756
71758W        W43374  11.361   6.286   3.290
71759W        W43375   6.240  25.865   4.843
71760W        W43376  11.638  33.942   4.772
71761W        W43377  24.637  19.758  13.794
71762W        W43378   0.960  32.900  13.494
71763W        W43379  11.709  43.605   3.776
71764W        W43380  29.309  39.119  13.086
71765W        W43381  23.582  20.074   4.450
71766W        W43382  28.638  32.105   2.920
71767W        W43383  20.358  20.201   4.316
71768W        W43384  32.322   4.321  11.955
71769W        W43385  23.911   9.157  14.868
71770W        W43386   3.200  14.297  10.666
71771W        W43387  41.961  42.840  13.967
71772W        W43388  13.396  35.896   1.767
71773W        W43389  29.971  39.830   0.766
71774W        W43390   9.397  21.680  10.430
71775W        W43391  30.251  39.462  10.938
71776W        W43392  37.871  32.055  13.247
71777W        W43393  33.187  42.903   0.400
71778W        W43394   8.730  43.502   4.117
71779W        W43395  12.322  27.623   0.607
71780W        W43396  38.171  33.889  13.454
71781W        W43397  29.008   3.273   3.509
71782W        W43398  34.358  14.623   2.207
71783W        W43399   5.247  34.299   1.455
71784W        W43400   7.832  28.625   1.705
71785W        W43401  15.671  10.467   3.627
71786W        W43402  15.609  29.148   1.895
71787W        W43403  26.582  16.697  13.083
71788W        W43404  30.094  25.182   2.194
71789W        W43405  27.746   5.270  12.504
71790W        W43406  27.973  37.591   3.147
71791W        W43407  33.144  34.254   4.175
71792W        W43408   5.609  12.184   3.640
71793W        W43409  15.264   2.770   1.775
71794W        W43410  35.305   4.289  11.207
71795W        W43411  15.813  32.636   3.943
71796W        W43412  25.697  40.168   4.413
71797W        W43413  29.076  27.588   5.127
71798W        W43414  24.783   5.281  11.881
71799W        W43415  33.911  33.556  14.444
71800W        W43416  31.859  11.610   0.227
71801W        W43417  21.546   6.392  12.410
71802W        W43418  25.674   0.973  11.356
71803W        W43419  27.389  42.617  13.610
71804W        W43420   4.807  17.606  10.902
71805W        W43421  19.322  39.135   3.493
71806W        W43422  37.233  33.320   1.634
71807W        W43423  35.767  24.550   4.110
71808W        W43424  23.515  32.024   4.124
71809W        W43425   3.936  10.096  10.753
71810W        W43426  40.441  44.564   1.735
71811W        W43427  33.633  35.487  10.977
71812W        W43428  19.977   0.775   0.668
71813W        W43429  30.335  40.483  13.294
71814W        W43430  43.896  39.475   4.163
71815W        W43431   3.842  38.690   3.899
71816W        W43432  24.754   2.980  13.380
71817W        W43433   6.181   8.190  11.145
71818W        W43434  13.858  16.072  11.618
71819W        W43435  23.221   4.315  13.822
71820W        W43436   1.354   8.179  14.866
71821W        W43437  25.568   4.162  14.344
71822W        W43438  35.994   6.091   1.426
71823W        W43439   6.585  33.931   0.777
71824W        W43440   7.061  33.660   1.959
71825W        W43441  40.021  43.844  11.543
71826W        W43442  26.908  21.682  12.543
71827W        W43443  24.021  35.921   5.088
71828W        W43444  18.748  27.262  11.117
71829W        W43445  44.607   1.238  11.653
71830W        W43446  25.201  15.298  13.265
71831W        W43447   9.227  24.646  12.986
71832W        W43448  43.622  12.222  12.734
71833W        W43449  15.239   8.279   4.595
71834W        W43450  38.656   2.322  12.414
71835W        W43451  32.760   4.907   4.077
71836W        W43452  44.863  16.807  11.738
71837W        W43453  38.028   5.280   4.527
71838W        W43454   5.272  31.646  10.611
71839W        W43455  21.242  19.742  13.427
71840W        W43456  25.078  16.904   1.970
71841W        W43457  23.121  28.215   4.582
71842W        W43458  11.069   6.386  10.944
71843W        W43459  18.575  36.734   3.079
71844W        W43460   9.289  10.167  11.925
71845W        W43461  35.864  14.541   3.299
71846W        W43462  28.466  12.173   0.823
71847W        W43463  13.786   0.833  11.161
71848W        W43464  10.120  27.697  12.503
71849W        W43465   6.485  29.967  12.280
71850W        W43466  34.985  15.532   1.958
71851W        W43467  29.580  37.807  14.878
71852W        W43468  14.308   5.279  11.936
71853W        W43469  17.530   0.757  14.437
71854W        W43470  22.156   3.198  14.704
71855W        W43471  18.328  25.577  13.474
71856W        W43472  30.197  26.684   1.841
71857W        W43473   9.055  18.754  11.296
71858W        W43474   9.805  33.778   3.046
71859W        W43475  40.573   9.352   1.834
71860W        W43476  29.057  40.583   1.101
71861W        W43477  13.863   9.983  11.083
71862W        W43478  17.528  35.601  10.792
71863W        W43479  41.511  20.049   1.184
71864W        W43480  32.335  30.960  13.024
71865W        W43481  19.806  31.964  14.482
71866W        W43482  11.220  37.304   2.287
71867W        W43483  11.129  36.680   4.194
71868W        W43484  40.812   5.553   3.323
71869W        W43485  33.325   8.126   1.861
71870W        W43486  19.303  36.963  14.280
71871W        W43487  41.637  34.031   0.766
71872W        W43488  38.447  35.285   4.065
71873W        W43489   9.739  26.267   2.284
71874W        W43490  11.888  44.271   0.764
71875W        W43491  22.245   3.452  12.945
71876W        W43492  44.409  43.806  11.664
71877W        W43493  43.368  17.325   4.150
71878W        W43494  39.538  18.027  13.356
71879W        W43495  17.699  43.867  11.841
71880W        W43496   4.766   7.585  10.278
71881W        W43497  10.664  43.226   4.521
71882W        W43498   7.000  11.271  14.545
71883W        W43499  33.583  36.415  14.035
71884W        W43500   0.384   2.376   1.712
71885W        W43501  17.331  38.226  12.925
71886W        W43502  39.201  20.046   4.550
71887W        W43503  43.448  36.388  12.003
71888W        W43504  25.207  32.911   4.122
71889W        W43505  14.248  39.810   1.286
71890W        W43506  10.461  21.075  14.885
71891W        W43507  24.893  14.643   3.173
71892W        W43508   0.708  16.016   3.307
71893W        W43509  44.335   8.738  12.453
71894W        W43510   6.334  20.677   4.604
71895W        W43511   5.406  43.029   5.053
71896W        W43512   5.429  23.792   4.717
71897W        W43513  34.853   1.609  11.085
71898W        W43514   6.901  24.179   1.327
71899W        W43515  13.001   8.251   2.743
71900W        W43516  32.400  26.005   4.018
71901W        W43517  38.910  17.617  11.991
71902W        W43518  32.575  11.065   2.897
71903W        W43519  34.922   1.772  10.042
71904W        W43520   7.796  43.331  10.940
71905W        W43521  25.737  25.149  11.967
71906W        W43522   7.910   3.292  11.218
71907W        W43523   0.347   3.995   3.628
71908W        W43524  13.872  26.502   1.736
71909W        W43525  15.095  23.795   3.969
71910W        W43526   7.172  25.621  11.560
71911W        W43527  35.046  27.249   1.681
71912W        W43528  20.042  29.027   1.763
71913W        W43529   5.450  42.563  11.300
71914W        W43530  20.539   9.912   0.013
71915W        W43531  39.717  38.125  14.869
71916W        W43532  26.262  15.807   0.256
71917W        W43533   5.220  18.649   3.823
71918W        W43534  42.336  14.808  11.048
71919W        W43535  21.665  34.867   3.467
71920W        W43536  43.868  37.353  14.797
71921W        W43537  35.439   5.866  14.439
71922W        W43538   3.828  36.826  12.001
71923W        W43539  19.087  42.032   1.298
71924W        W43540  22.911  33.965  10.878
71925W        W43541  19.222   7.343   2.336
71926W        W43542  20.046   2.944   4.669
71927W        W43543   2.163  25.603   2.826
71928W        W43544   1.191  36.195   1.660
71929W        W43545   5.512  29.067  14.269
71930W        W43546  28.726  12.612   4.873
71931W        W43547  43.840  39.487   3.276
71932W        W43548  39.525  22.421   4.109
71933W        W43549   0.333  25.684   1.137
71934W        W43550  19.730  27.576  11.668
71935W        W43551   4.384  44.632  13.296
71936W        W43552   4.544   1.371  10.900
71937W        W43553  31.929  10.891  12.072
71938W        W43554  40.646  23.685  12.101
71939W        W43555  25.065   6.200   2.783
71940W        W43556  31.443  41.960   3.155
71941W        W43557  44.410  18.713   3.691
71942W        W43558  39.561   4.228   4.837
71943W        W43559  14.377  41.349  12.827
71944W        W43560   5.376  19.697  13.582
71945W        W43561   9.438   1.879   4.563
71946W        W43562  20.309  11.953  12.002
71947W        W43563   0.069   2.876  10.955
71948W        W43564  30.152  28.260  12.158
71949W        W43565  24.380  35.159   2.426
71950W        W43566  36.084  35.610   3.189
71951W        W43567  24.520  44.282   1.363
71952W        W43568   2.326   8.240   1.825
71953W        W43569  33.478  41.434   3.256
71954W        W43570  21.094   9.423   3.003
71955W        W43571   7.462  23.042   3.614
71956W        W43572  22.745   5.429  13.035
71957W        W43573  26.535   2.847   2.654
71958W        W43574  26.141  42.382   4.586
71959W        W43575   9.890  15.197  14.946
71960W        W43576  13.837  20.650   3.630
71961W        W43577  35.905   0.124   3.595
71962W        W43578   8.843  39.828   1.879
71963W        W43579  25.139  18.385   4.439
71964W        W43580  36.003  18.818   0.721
71965W        W43581  12.073  37.887   0.859
71966W        W43582  44.511  22.174  14.419
71967W        W43583  43.383  43.764  14.821
71968W        W43584  17.095  42.306   0.392
71969W        W43585  28.985  36.370   3.782
71970W        W43586  28.041  37.491   0.478
71971W        W43587  25.673  40.071   3.897
71972W        W43588  17.211   1.071   2.338
71973W        W43589  26.658  40.780   1.808
71974W        W43590  15.621  18.164  14.569
71975W        W43591  28.338   7.195  11.976
71976W        W43592  41.517   5.196   0.226
71977W        W43593  18.351  28.988  12.001
71978W        W43594  14.662  27.452   2.383
71979W        W43595   5.299   6.980   2.193
71980W        W43596   2.572  32.426   0.917
71981W        W43597   2.352  26.428   4.294
71982W        W43598   2.806  33.094   4.046
71983W        W43599   9.345   5.388   3.676
71984W        W43600  43.038  22.116  14.506
71985W        W43601  17.151  37.473   0.451
71986W        W43602  26.204  16.356   3.763
71987W        W43603  35.654  21.720   2.252
71988W        W43604   7.745   0.447  10.097
71989W        W43605  34.674  40.911  11.952
71990W        W43606  35.757  20.328  14.520
71991W        W43607  15.612   3.836  14.568
71992W        W43608  44.349  29.753   2.845
71993W        W43609   2.746  33.778   1.440
71994W        W43610  10.652   7.758  13.850
71995W        W43611  19.663   9.194   0.742
71996W        W43612   1.325  32.581   0.541
71997W        W43613   8.724   2.988   2.244
71998W        W43614   6.785  14.075  14.352
71999W        W43615   3.127  23.640  13.451
72000W        W43616  24.193  21.996   0.941
72001W        W43617  14.499  32.060  10.787
72002W        W43618   2.443   0.448   1.401
72003W        W43619  43.740  27.442   0.273
72004W        W43620  26.007  13.292   4.342
72005W        W43621  27.871  21.749   1.200
72006W        W43622   6.671  36.137  12.434
72007W        W43623  43.721  24.652   3.202
72008W        W43624   4.866  15.767   3.214
72009W        W43625  21.110  34.144   4.619
72010W        W43626   7.291  19.469   1.667
72011W        W43627   3.792  28.610  12.347
72012W        W43628  36.591   0.375  12.437
72013W        W43629  15.316  39.332   4.565
72014W        W43630  32.459   5.228  13.097
72015W        W43631  13.787  33.208   3.688
72016W        W43632  36.625  33.428   2.384
72017W        W43633  34.179   7.005   4.136
72018W        W43634  15.311   1.143  14.488
72019W        W43635  34.925  22.135   0.081
72020W        W43636  21.696  19.519   3.943
72021W        W43637  42.499   4.247  13.874
72022W        W43638   2.366  37.159   2.917
72023W        W43639   8.981  26.940  11.193
72024W        W43640  12.146  37.916  14.992
72025W        W43641  22.168  25.983   3.109
72026W        W43642   0.966   5.684  11.503
72027W        W43643  11.646  10.135  11.784
72028W        W43644  33.748  15.041   4.823
72029W        W43645  19.763   5.789  12.023
72030W        W43646  29.587   8.096   2.194
72031W        W43647  38.408  23.077   2.256
72032W        W43648  28.957  43.987   1.154
72033W        W43649  23.097  14.405   0.396
72034W        W43650   4.912  22.980   4.834
72035W        W43651   0.430  10.324  10.593
72036W        W43652  27.386  41.265  13.257
72037W        W43653   2.483   5.379   0.411
72038W        W43654   2.417  19.858   2.392
72039W        W43655   2.387  31.997   0.016
72040W        W43656  39.402   5.721   0.018
72041W        W43657   4.065  42.399  11.439
72042W        W43658  30.077  40.413  11.800
72043W        W43659  20.195  26.200  14.342
72044W        W43660   9.763   1.027   2.304
72045W        W43661  42.897  34.961  11.466
72046W        W43662  40.317  18.763  11.015
72047W        W43663  23.197  18.204   4.417
72048W        W43664  41.836  22.557  14.325
72049W        W43665  37.462   3.349  13.976
72050W        W43666  18.610  17.368   0.587
72051W        W43667   9.307  24.652   4.528
72052W        W43668  10.372   1.328   1.278
72053W        W43669  13.431  28.500  14.365
72054W        W43670  18.256  16.220  14.854
72055W        W43671  20.412  38.835  11.803
72056W        W43672  29.336  35.929  13.270
72057W        W43673  41.923  41.784  13.077
72058W        W43674  34.355   5.304  10.590
72059W        W43675  42.983  42.958  12.864
72060W        W43676  21.836   2.712   0.868
72061W        W43677  35.587  39.591  11.096
72062W        W43678  37.993   8.125   4.484
72063W        W43679  17.768  38.429  12.143
72064W        W43680   7.816  43.030  14.870
72065W        W43681  34.876  43.392   3.013
72066W        W43682  18.835  15.061  11.745
72067W        W43683  25.519  13.751  11.941
72068W        W43684   2.823  26.622   4.540
72069W        W43685  34.295  17.256  14.363
72070W        W43686  42.059  21.462  13.881
72071W        W43687  25.486  39.206   4.996
72072W        W43688  10.381   6.752   3.934
72073W        W43689  36.576   4.897   3.673
72074W        W43690  33.650  24.624   3.779
72075W        W43691   9.208  42.762  14.757
72076W        W43692  16.711  25.645  12.526
72077W        W43693  28.161  16.485  13.864
72078W        W43694  43.092   7.107   3.139
72079W        W43695  20.146  22.371   1.408
72080W        W43696   2.274  42.781   9.890
72081W        W43697  22.451  13.105  14.558
72082W        W43698  14.687  35.848  13.846
72083W        W43699  27.504  40.880   3.747
72084W        W43700   2.270  10.095  14.674
72085W        W43701  38.438  12.384   2.281
72086W        W43702  31.330  30.268  13.459
72087W        W43703  31.860  33.372  14.295
72088W        W43704  21.086  33.883  14.837
72089W        W43705  36.424  37.242  12.002
72090W        W43706  13.943  29.704   1.442
72091W        W43707  28.058  18.227   0.294
72092W        W43708   7.469  16.333   0.378
72093W        W43709  21.778  31.222  14.961
72094W        W43710   8.875  38.599   2.458
72095W        W43711  21.074  11.707  14.828
72096W        W43712  21.751  34.063   1.878
72097W        W43713  31.829  20.592  11.739
72098W        W43714   4.926   2.227   3.513
72099W        W43715  24.795  20.576  11.168
72100W        W43716  37.454  16.052   1.671
72101W        W43717  27.087   7.433  11.513
72102W        W43718  10.376   8.246  11.101
72103W        W43719  29.612  18.825  14.847
72104W        W43720  14.891  42.492  11.561
72105W        W43721  26.587  41.960  12.446
72106W        W43722  33.472   5.980  13.959
72107W        W43723   7.140  10.186   3.557
72108W        W43724  39.545  10.209   4.535
72109W        W43725   4.231  42.750   0.212
72110W        W43726   7.371  38.020  11.841
72111W        W43727   2.348   9.086   3.158
72112W        W43728  26.707  13.178  13.923
72113W        W43729   9.655  12.195   3.278
72114W        W43730  14.257  14.282   9.872
72115W        W43731  37.827  35.085   0.382
72116W        W43732  11.394   2.725  11.941
72117W        W43733  27.030  14.507   2.949
72118W        W43734   4.045  44.850  11.889
72119W        W43735   1.366   6.401  12.955
72120W        W43736  39.354   2.239   3.582
72121W        W43737   3.918  15.781   1.192
72122W        W43738  34.617   7.266   4.205
72123W        W43739  21.946   8.971  10.744
72124W        W43740   4.538   4.763   2.031
72125W        W43741   3.912  42.488   3.415
72126W        W43742   9.607   7.865   1.801
72127W        W43743  35.490  29.890   0.854
72128W        W43744  10.610  11.257  13.826
72129W        W43745  14.125  18.204   1.263
72130W        W43746  13.341  13.310  10.944
72131W        W43747   3.922   9.459   4.092
72132W        W43748  29.570  37.950   1.024
72133W        W43749   7.364   0.462  13.614
72134W        W43750  18.794  16.293   1.805
72135W        W43751   8.761  22.392   1.465
72136W        W43752  40.370   9.995   1.192
72137W        W43753  11.598   1.767   3.318
72138W        W43754   3.461  12.784  12.589
72139W        W43755  31.968  28.039  14.307
72140W        W43756   4.199  41.465   3.819
72141W        W43757  18.252   1.288   4.729
72142W        W43758  42.512  42.002   3.431
72143W        W43759  25.969  21.576  14.077
72144W        W43760  19.931  26.940  12.591
72145W        W43761  36.103   5.446  11.086
72146W        W43762  24.066  35.933   2.215
72147W        W43763  38.858  24.450   0.564
72148W        W43764  25.727  24.893   0.791
72149W        W43765  12.103  38.484   2.821
72150W        W43766   9.288  29.873  13.535
72151W        W43767  16.175  41.761   4.113
72152W        W43768  28.039  19.601  13.284
72153W        W43769  38.475  14.578  13.498
72154W        W43770  43.359   2.423   2.221
72155W        W43771  43.810  16.717   4.860
72156W        W43772  14.365   3.670   5.131
72157W        W43773   3.951  38.705  11.085
72158W        W43774  12.133  15.273   3.883
72159W        W43775   6.774  40.934   0.942
72160W        W43776  16.332  42.971   3.968
72161W        W43777  13.201  30.925   3.499
72162W        W43778  43.152  41.179  13.884
72163W        W43779  30.676   4.660   3.266
72164W        W43780  14.673  14.303  11.619
72165W        W43781  15.981  44.312   5.085
72166W        W43782  35.935   7.305   3.659
72167W        W43783  40.344  21.283  14.254
72168W        W43784  22.555  28.109   3.733
72169W        W43785  37.091  32.214  12.600
72170W        W43786  26.570  29.929  14.466
72171W        W43787  24.138  27.319  11.240
72172W        W43788   9.431  11.725  11.073
72173W        W43789  40.617  19.185  10.929
72174W        W43790  27.438   5.869  12.101
72175W        W43791  21.844  26.984   1.121
72176W        W43792  30.138   0.483  11.244
72177W        W43793  24.022  38.797  12.969
72178W        W43794  12.062   3.789  10.635
72179W        W43795  16.533  14.696   0.724
72180W        W43796  17.101  44.860   1.874
72181W        W43797  36.071  44.459  13.773
72182W        W43798  35.075  38.297   3.316
72183W        W43799  37.381  43.735  14.351
72184W        W43800  28.536  32.668   4.083
72185W        W43801   8.756  16.091  11.199
72186W        W43802  43.141  32.609   0.460
72187W        W43803  28.011   6.743   3.262
72188W        W43804  22.521  36.088   1.782
72189W        W43805   6.572   6.742   2.149
72190W        W43806  32.642  13.207   1.689
72191W        W43807  13.708  28.885   3.291
72192W        W43808  37.029  42.432   4.977
72193W        W43809  19.455  34.967   4.458
72194W        W43810  33.087  21.592  14.388
72195W        W43811  20.739  17.730  12.032
72196W        W43812  22.393   2.433   0.880
72197W        W43813  40.390  20.733  13.073
72198W        W43814  36.614  39.225  12.005
72199W        W43815  29.425   9.749  14.841
72200W        W43816   9.371  26.964  14.826
72201W        W43817  39.694  23.743  12.989
72202W        W43818  33.955  22.610  10.769
72203W        W43819  21.048  36.090  13.700
72204W        W43820  32.114  29.628   1.379
72205W        W43821  11.085  29.502   2.838
72206W        W43822   3.889  11.278   0.008
72207W        W43823  24.097  32.424  10.779
72208W        W43824   5.717  42.438   0.769
72209W        W43825   7.428  11.178  11.979
72210W        W43826   2.450  22.732   2.773
72211W        W43827  20.636  26.993  13.431
72212W        W43828  26.117  37.052   2.850
72213W        W43829  32.994   9.326   0.159
72214W        W43830  10.574  43.869   3.199
72215W        W43831   6.672  14.822   3.654
72216W        W43832   4.345  35.451   4.183
72217W        W43833  31.551   1.037   1.678
72218W        W43834  13.783   2.461   1.466
72219W        W43835  39.467  26.649  10.371
72220W        W43836  13.126  39.779  14.526
72221W        W43837  18.403  18.151  10.603
72222W        W43838  26.147  25.991   2.062
72223W        W43839   4.350  29.438   0.313
72224W        W43840  39.816  34.442  11.006
72225W        W43841  24.763   7.338  13.824
72226W        W43842  11.834  38.937   2.752
72227W        W43843  44.517  21.101  12.169
72228W        W43844  40.956  44.676  14.830
72229W        W43845  41.946  17.208  14.456
72230W        W43846  10.117  35.725   3.213
72231W        W43847   3.989  21.290  12.993
72232W        W43848  33.213   7.590  10.776
72233W        W43849  32.601   3.000   4.237
72234W        W43850  18.807  16.977  14.109
72235W        W43851  33.504  31.955   0.664
72236W        W43852  15.146  33.406   2.534
72237W        W43853  16.782  13.641   3.260
72238W        W43854   2.476  30.055  10.396
72239W        W43855  41.626  38.475  14.807
72240W        W43856  42.820  30.781  11.205
72241W        W43857  29.679  34.563  13.309
72242W        W43858   1.841  17.270   3.809
72243W        W43859   8.412  38.558   4.800
72244W        W43860   3.725   6.231  12.888
72245W        W43861  30.019  11.093  13.820
72246W        W43862  13.534  30.525  14.978
72247W        W43863  33.599  41.540   2.208
72248W        W43864  19.383  35.172  14.327
72249W        W43865  28.779  13.502  10.719
72250W        W43866  32.651  21.698   4.543
72251W        W43867  38.465  23.579  10.914
72252W        W43868  33.870   6.686   1.745
72253W        W43869   1.917  10.867  14.657
72254W        W43870  11.784   1.380   0.691
72255W        W43871  17.238  42.850  11.579
72256W        W43872  44.892  44.304  13.274
72257W        W43873  28.083  38.778   3.581
72258W        W43874  24.320  33.675   5.063
72259W        W43875  14.083  42.571   0.395
72260W        W43876  26.860   6.627  11.166
72261W        W43877  15.130  12.158   4.886
72262W        W43878  36.785  40.001   0.296
72263W        W43879  31.189  15.698  13.907
72264W        W43880  19.248  25.515   2.711
72265W        W43881   1.735  27.922   2.028
72266W        W43882  12.378  23.960  11.152
72267W        W43883  11.298  24.638   4.221
72268W        W43884  25.172  43.285  13.929
72269W        W43885   5.093  44.997   9.850
72270W        W43886  31.826  43.291   3.329
72271W        W43887  38.765  22.726   3.700
72272W        W43888  38.693  38.848   2.823
72273W        W43889  28.094  38.450   4.242
72274W        W43890  28.209   2.533   1.027
72275W        W43891   3.169  26.690  11.302
72276W        W43892  11.244  29.527   4.679
72277W        W43893   5.929   2.382  14.383
72278W        W43894   2.237  31.419   3.749
72279W        W43895  31.338  43.346   3.451
72280W        W43896  38.542  18.567  13.457
72281W        W43897  38.820  44.539   1.453
72282W        W43898  20.742  32.560  11.498
72283W        W43899  25.669   2.921   4.657
72284W        W43900  29.818   6.961  13.023
72285W        W43901  13.131  12.773   2.529
72286W        W43902  13.144  13.350  11.919
72287W        W43903  38.923  28.149   4.555
72288W        W43904  42.238  31.253   2.906
72289W        W43905  25.797  23.009  14.092
72290W        W43906  42.729  11.452  12.511
72291W        W43907  27.430  27.945   2.122
72292W        W43908  30.681  31.421   1.285
72293W        W43909   3.223   9.903   3.637
72294W        W43910  23.714   7.883  13.089
72295W        W43911  31.260  15.239   1.600
72296W        W43912  14.333   5.645   4.140
72297W        W43913   9.380   8.941   2.207
72298W        W43914  43.229   8.436  13.432
72299W        W43915  18.623  22.020   4.772
72300W        W43916  18.338  27.945  12.935
72301W        W43917   8.680   2.720  12.067
72302W        W43918   9.887  25.012   2.786
72303W        W43919  20.044  26.483   1.354
72304W        W43920  18.206  13.674   0.869
72305W        W43921  39.233  29.522  11.475
72306W        W43922  17.620  18.731   5.005
72307W        W43923  24.653   5.138  12.838
72308W        W43924   1.432  29.983   4.768
72309W        W43925  21.496   2.948   1.401
72310W        W43926   6.795   0.092   1.376
72311W        W43927  30.812  21.997  12.268
72312W        W43928   5.646  20.890  11.566
72313W        W43929  26.541  39.501  10.277
72314W        W43930  30.602  12.299   3.648
72315W        W43931  35.163   1.517   4.256
72316W        W43932   6.209  14.654  14.858
72317W        W43933  43.814  35.712   5.465
72318W        W43934  38.022  39.538   4.805
72319W        W43935  37.920  14.747   1.932
72320W        W43936  19.675  30.050  10.698
72321W        W43937  21.563  35.057   0.853
72322W        W43938   8.438  35.390   2.844
72323W        W43939  23.712  36.300  11.120
72324W        W43940  12.068  16.799   3.722
72325W        W43941  20.992   7.086  11.271
72326W        W43942   6.711  40.989  12.673
72327W        W43943   6.968  14.357  12.061
72328W        W43944  28.113   9.870   4.886
72329W        W43945   9.245   1.508  14.042
72330W        W43946  42.072   5.050  13.980
72331W        W43947  36.417  21.244   1.493
72332W        W43948  41.990  15.985  13.750
72333W        W43949  26.026  10.755   4.373
72334W        W43950  33.091   6.751  11.731
72335W        W43951  25.584  28.413   0.406
72336W        W43952  25.763  23.579   1.651
72337W        W43953   1.160   1.281  13.861
72338W        W43954  35.019   3.217   4.609
72339W        W43955   1.241  16.657   0.415
72340W        W43956  13.612  11.722   2.828
72341W        W43957  10.668   6.968   1.588
72342W        W43958  16.305  32.181   0.697
72343W        W43959  28.218  27.290   1.209
72344W        W43960   2.873   3.192  13.333
72345W        W43961  41.225  34.436   1.947
72346W        W43962  32.553  12.079   4.117
72347W        W43963   5.835  26.172   4.723
72348W        W43964  32.989  35.355   0.745
72349W        W43965  29.756  31.706  13.352
72350W        W43966  44.417  10.759   1.975
72351W        W43967   9.888  38.356  11.115
72352W        W43968  28.665  35.396   0.030
72353W        W43969  19.777   5.761   0.031
72354W        W43970  10.370  22.960  13.915
72355W        W43971  12.319  20.132  13.998
72356W        W43972  12.022  35.127   4.168
72357W        W43973  13.713   8.358   0.242
72358W        W43974  14.323  42.544  14.935
72359W        W43975  40.525  26.946  11.936
72360W        W43976  19.244  43.298  14.922
72361W        W43977  31.948   2.159  14.783
72362W        W43978  44.721   8.902   5.103
72363W        W43979   8.162  40.881  13.527
72364W        W43980   4.915   3.018  14.960
72365W        W43981  19.076  39.179   4.179
72366W        W43982  43.769  25.677  14.923
72367W        W43983  26.578  41.818   2.862
72368W        W43984  41.742  22.912   1.851
72369W        W43985  24.226   0.655  14.486
72370W        W43986  32.297   9.730  14.525
72371W        W43987  24.738  20.115  12.059
72372W        W43988  26.965   2.783   3.768
72373W        W43989  39.457  20.913  12.728
72374W        W43990  40.370  26.411   5.008
72375W        W43991  22.107  25.056   2.073
72376W        W43992  24.297  27.669   1.714
72377W        W43993  44.665  37.855   4.660
72378W        W43994   1.024   9.091  13.850
72379W        W43995  43.567  17.699   2.757
72380W        W43996  44.346  36.075  10.271
72381W        W43997  34.005   5.157  11.573
72382W        W43998  17.277  42.023   4.991
72383W        W43999  28.514  11.263   0.938
72384W        W44000  37.028  31.508   1.863
72385W        W44001  38.527   9.770  11.411
72386W        W44002  12.606  32.443   2.746
72387W        W44003  34.933  30.064  13.975
72388W        W44004  12.146  36.620  14.391
72389W        W44005  18.497   2.479  14.856
72390W        W44006   4.501   4.396  10.718
72391W        W44007  29.859   0.276  14.056
72392W        W44008  43.969  35.022   4.585
72393W        W44009  29.598  39.854  12.518
72394W        W44010  23.737  13.184  10.473
72395W        W44011  20.009   7.783   4.664
72396W        W44012  28.659  14.834  13.356
72397W        W44013  22.021  32.397   1.488
72398W        W44014  30.834  42.842  11.521
72399W        W44015  44.438  23.103  13.746
72400W        W44016  19.031  15.534   1.383
72401W        W44017  19.343   9.727   4.816
72402W        W44018  17.649  30.408   4.308
72403W        W44019   9.683  28.966  10.708
72404W        W44020  12.710   9.161   4.037
72405W        W44021  25.648  44.568   1.322
72406W        W44022  18.812  18.847  11.242
72407W        W44023  22.891  37.775  12.405
72408W        W44024  32.559  32.368  14.877
72409W        W44025   8.689   4.666   1.670
72410W        W44026  21.109   7.387  13.448
72411W        W44027   4.156  11.841   4.520
72412W        W44028  15.787  22.757   0.864
72413W        W44029   0.368  29.065   1.427
72414W        W44030  36.329  37.960   3.144
72415W        W44031  15.470  22.610  14.475
72416W        W44032  11.152   1.185  11.007
72417W        W44033  27.665  25.224   3.292
72418W        W44034  15.140   3.825  11.188
72419W        W44035  10.877  10.251   5.018
72420W        W44036  16.251  34.447  13.406
72421W        W44037  20.110   9.312  14.285
72422W        W44038  26.238   8.703   4.830
72423W        W44039   7.476  26.276  12.810
72424W        W44040  27.940  39.789   3.612
72425W        W44041  14.300  40.453   0.886
72426W        W44042  24.096  39.919  13.735
72427W        W44043  43.991  25.486   0.329
72428W        W44044   9.152  41.985   2.843
72429W        W44045  29.545  34.262   2.879
72430W        W44046  26.016   9.350   3.604
72431W        W44047  39.030  21.182  10.013
72432W        W44048  13.084  43.932  12.085
72433W        W44049  32.635   7.580  12.568
72434W        W44050  23.363  19.673   3.374
72435W        W44051  18.744  24.531  10.569
72436W        W44052  31.403   4.246   1.423
72437W        W44053   6.374   7.320   4.145
72438W        W44054  29.061  13.296   0.780
72439W        W44055  23.778  17.608  12.509
72440W        W44056  43.826  20.674   0.468
72441W        W44057  27.965   7.433  14.702
72442W        W44058  29.871  39.435  10.605
72443W        W44059  34.079   8.969  11.945
72444W        W44060  29.001  19.593   0.977
72445W        W44061  27.483   9.411   2.556
72446W        W44062  34.095  30.364   3.724
72447W        W44063  12.343  39.455   4.385
72448W        W44064  24.174   9.381   0.311
72449W        W44065  43.847  33.823   4.542
72450W        W44066  26.466  20.309   2.674
72451W        W44067  22.221   4.238  14.000
72452W        W44068   3.664  41.923   1.575
72453W        W44069  41.584  18.054  10.725
72454W        W44070  32.182  30.133  13.829
72455W        W44071  36.620  24.597   3.184
72456W        W44072  41.451   0.014   1.849
72457W        W44073  21.071  34.999   2.318
72458W        W44074  28.862   3.180  14.522
72459W        W44075   1.382  39.904   0.530
72460W        W44076  29.600  12.130  11.238
72461W        W44077  21.118   5.989  11.982
72462W        W44078  28.102  22.414  10.424
72463W        W44079  21.031   3.741   1.326
72464W        W44080  23.716  42.564  12.461
72465W        W44081  23.758  40.053  10.505
72466W        W44082  36.062  16.507   3.195
72467W        W44083   1.926  27.117  10.845
72468W        W44084  44.019  10.387  14.513
72469W        W44085  21.992   5.218   1.860
72470W        W44086  34.754  17.154  10.469
72471W        W44087   9.782  42.355  12.146
72472W        W44088  26.076  31.102   4.537
72473W        W44089  22.151  43.193  14.099
72474W        W44090  36.136  18.508  11.527
72475W        W44091   7.098  16.062  13.393
72476W        W44092  28.232  10.062   2.288
72477W        W44093  19.667  35.896  12.428
72478W        W44094  33.036  20.760  13.973
72479W        W44095  17.251  40.225   1.099
72480W        W44096  19.649  37.638   2.857
72481W        W44097  17.420   3.912  14.104
72482W        W44098  17.519  25.261   0.226
72483W        W44099   7.270  15.559  10.710
72484W        W44100  28.649  30.567  13.068
72485W        W44101   3.441  39.742  13.000
72486W        W44102  24.663  39.691  11.663
72487W        W44103   4.838  38.174   2.605
72488W        W44104  25.658  16.149   0.886
72489W        W44105  16.874   4.999   4.998
72490W        W44106   7.233   4.701   1.829
72491W        W44107  42.686  41.807   0.852
72492W        W44108   1.995  38.841   0.484
72493W        W44109   0.394   7.872   2.738
72494W        W44110  43.968  37.067   2.926
72495W        W44111   5.999  22.587  10.710
72496W        W44112  41.407  19.540   4.251
72497W        W44113  12.233  31.050  11.957
72498W        W44114  26.142  24.774   3.497
72499W        W44115  14.576   4.653   2.270
72500W        W44116   6.466  34.055   4.229
72501W        W44117  17.716   7.176  12.391
72502W        W44118  26.163  16.547  14.362
72503W        W44119   7.350  21.002   4.801
72504W        W44120  41.585   8.126  13.465
72505W        W44121  13.068   5.800   1.049
72506W        W44122  18.160  30.497  12.106
72507W        W44123  31.340   7.369   2.399
72508W        W44124  17.680  22.952  11.965
72509W        W44125   8.355   5.931  12.391
72510W        W44126  44.226   6.523  10.266
72511W        W44127  36.395  13.844  11.055
72512W        W44128  10.760  27.975  12.581
72513W        W44129  13.300  17.677   0.382
72514W        W44130  40.652  18.121  13.649
72515W        W44131  43.005  15.035  11.572
72516W        W44132  13.342   7.200  11.630
72517W        W44133  43.214  27.532   2.776
72518W        W44134  35.995  13.781   4.464
72519W        W44135  12.133   9.962   3.010
72520W        W44136   9.750  38.957  12.301
72521W        W44137  33.491   8.228  13.351
72522W        W44138  30.486  35.923   1.282
72523W        W44139   3.394  27.966   5.106
72524W        W44140  39.090  38.534  12.388
72525W        W44141  13.712  19.810   0.800
72526W        W44142  20.300  32.408  12.553
72527W        W44143  10.271  38.889   4.991
72528W        W44144  31.324   1.967   3.129
72529W        W44145  10.364   6.550   1.400
72530W        W44146   1.906  35.542  12.526
72531W        W44147  28.919  35.670  13.428
72532W        W44148  17.311  15.393  10.639
72533W        W44149  22.092   0.518   3.713
72534W        W44150  29.515  18.152   3.234
72535W        W44151   5.464   6.607  11.650
72536W        W44152  28.553  20.910   2.626
72537W        W44153  13.568  44.852  13.300
72538W        W44154  15.866  17.282   3.589
72539W        W44155  18.142   5.431  12.067
72540W        W44156  16.565  23.226   4.515
72541W        W44157  25.246  20.038  14.826
72542W        W44158  24.453   3.940  14.766
72543W        W44159  39.510   5.249   2.102
72544W        W44160  39.746  31.679   0.972
72545W        W44161  20.978  16.637   9.988
72546W        W44162  23.247  38.149   1.311
72547W        W44163  29.425   5.430  14.494
72548W        W44164  28.455   0.392   4.766
72549W        W44165  29.411  11.931  11.672
72550W        W44166  28.947  10.934  11.572
72551W        W44167  29.603  43.428  13.311
72552W        W44168  22.350  32.586  12.531
72553W        W44169  12.629  25.468   1.802
72554W        W44170  10.346   6.301  11.531
72555W        W44171  25.168  33.084   4.602
72556W        W44172  16.875  41.579  13.833
72557W        W44173  14.096  18.281   4.684
72558W        W44174  31.960  37.488  10.967
72559W        W44175  15.971  28.945   1.228
72560W        W44176  32.349  23.057  11.538
72561W        W44177   8.749   9.193  14.083
72562W        W44178  19.660  21.987   1.980
72563W        W44179   3.108  37.377   0.381
72564W        W44180  32.287  18.118   4.669
72565W        W44181   8.922  41.111  14.093
72566W        W44182   4.805  16.777   5.015
72567W        W44183   4.491  10.755   1.604
72568W        W44184  38.788   9.161   2.286
72569W        W44185  19.263  33.299  13.688
72570W        W44186  16.818  12.136  13.582
72571W        W44187  24.234  19.271  13.787
72572W        W44188  25.294   4.715  12.406
72573W        W44189  22.843  25.322   4.202
72574W        W44190  29.079  10.821  13.633
72575W        W44191  36.789  11.654   4.660
72576W        W44192   9.446  19.755  13.504
72577W        W44193  14.248  10.899  11.835
72578W        W44194  13.667   4.953  10.846
72579W        W44195  26.888  40.276  12.934
72580W        W44196  39.730  36.494   2.793
72581W        W44197   0.469  17.450  12.731
72582W        W44198  32.331  18.301   1.812
72583W        W44199  19.315  13.694   4.932
72584W        W44200  36.369  10.321  11.588
72585W        W44201  18.746   9.105   1.082
72586W        W44202   8.079  40.823   3.602
72587W        W44203   5.953  17.056  10.285
72588W        W44204  15.195  17.993   5.002
72589W        W44205  39.180  21.743  13.925
72590W        W44206  22.677  32.976   1.684
72591W        W44207  18.800  43.903  12.860
72592W        W44208  39.433  14.570   1.769
72593W        W44209  30.663  24.638  12.101
72594W        W44210  36.901   9.349  11.554
72595W        W44211  33.928  37.536  13.264
72596W        W44212  27.117  29.991  14.767
72597W        W44213  32.122  20.496  13.954
72598W        W44214  40.738  13.567  13.383
72599W        W44215  34.987  35.629  11.114
72600W        W44216  20.240  25.248   9.992
72601W        W44217  37.002  23.697  11.112
72602W        W44218  20.176  16.068   2.346
72603W        W44219  28.968  26.612   4.274
72604W        W44220  41.567  21.726   0.614
72605W        W44221   4.990  28.937   0.135
72606W        W44222   4.686  17.810  12.888
72607W        W44223  40.321  37.237   1.280
72608W        W44224   1.614  26.689   2.376
72609W        W44225   2.797  13.614   4.154
72610W        W44226  38.249  10.349  10.217
72611W        W44227   8.954   3.361   4.985
72612W        W44228  40.387   9.132  12.816
72613W        W44229  39.850   0.180  13.403
72614W        W44230  18.731  19.968  13.173
72615W        W44231   2.242  14.707  12.577
72616W        W44232   9.805  29.183  14.973
72617W        W44233   2.927  44.808  14.805
72618W        W44234  13.419  39.312   1.204
72619W        W44235  36.466  24.085   0.206
72620W        W44236   8.996   1.441  14.508
72621W        W44237  38.538   5.639  14.021
72622W        W44238   0.299   4.931  10.616
72623W        W44239  44.563  44.334   2.892
72624W        W44240   0.208  10.935   3.839
72625W        W44241  42.349  18.652  11.068
72626W        W44242   5.244   4.737   0.363
72627W        W44243  14.519  39.874   4.821
72628W        W44244  14.086  35.042  11.211
72629W        W44245   4.687   6.562   4.909
72630W        W44246  22.974   9.860  13.269
72631W        W44247  32.393  31.474   0.512
72632W        W44248  20.317  22.911  11.327
72633W        W44249  26.077  24.515  10.441
72634W        W44250   2.600  44.761   5.101
72635W        W44251  10.696  10.919   0.854
72636W        W44252   9.782  19.134  11.080
72637W        W44253  38.338  13.070  13.897
72638W        W44254  20.213  30.817  10.447
72639W        W44255  38.112  15.030  11.551
72640W        W44256  14.433  18.927   4.086
72641W        W44257  12.733  32.677   1.776
72642W        W44258  40.680  38.818   4.975
72643W        W44259  14.123  33.350  11.555
72644W        W44260  27.724  16.989   0.710
72645W        W44261  25.651  41.919  11.393
72646W        W44262  37.970  16.299   0.865
72647W        W44263  11.561  34.795  14.242
72648W        W44264  12.336   4.205  12.854
72649W        W44265  12.846  18.605  13.947
72650W        W44266  28.605  32.006   3.941
72651W        W44267  26.441  25.206  12.377
72652W        W44268  29.943  26.421   3.837
72653W        W44269  29.876   6.015  12.919
72654W        W44270  34.542  14.803  12.191
72655W        W44271   2.240  17.708   4.265
72656W        W44272  39.508   6.006   1.411
72657W        W44273  13.767  36.238   4.566
72658W        W44274   1.539  29.858  14.868
72659W        W44275  28.152  20.206   0.713
72660W        W44276  30.696  44.316  13.042
72661W        W44277  35.897  40.370  11.561
72662W        W44278  29.351  40.006   4.265
72663W        W44279   0.703  26.646   4.517
72664W        W44280   3.852  37.283  14.272
72665W        W44281   4.942   3.721  13.921
72666W        W44282  24.766  44.379  13.294
72667W        W44283  12.195  41.956   1.997
72668W        W44284  17.164  17.275   1.147
72669W        W44285  33.649  16.334  12.060
72670W        W44286  25.524  27.965   4.038
72671W        W44287  14.239  21.515  11.160
72672W        W44288  30.225   1.006   4.931
72673W        W44289   0.229  25.999  12.837
72674W        W44290  21.773  20.572   2.244
72675W        W44291  42.960  43.099   3.158
72676W        W44292  39.538  22.798  10.977
72677W        W44293  30.434  32.579   4.085
72678W        W44294  34.120  32.840   1.303
72679W        W44295  28.520  33.859  10.698
72680W        W44296   7.167  18.165   1.216
72681W        W44297   2.890  17.001  12.448
72682W        W44298  12.111  36.433   3.698
72683W        W44299  38.248  12.148   1.043
72684W        W44300   0.660   1.955   4.286
72685W        W44301  12.322  34.924  12.126
72686W        W44302  27.334  29.371  14.039
72687W        W44303  40.918  26.040  10.435
72688W        W44304  14.604  36.798   0.311
72689W        W44305  43.299  11.859   3.891
72690W        W44306  13.298  29.133  11.193
72691W        W44307  24.971   3.019   1.137
72692W        W44308  25.652  27.928   2.696
72693W        W44309  33.055  33.480  14.090
72694W        W44310  38.829   6.327   5.026
72695W        W44311   0.778  26.556  14.613
72696W        W44312  36.707  27.175  13.038
72697W        W44313  17.605  26.597   3.616
72698W        W44314  39.759  11.776  10.244
72699W        W44315  35.436  33.659  13.529
72700W        W44316  34.544  12.124   4.155
72701W        W44317   4.926  26.700  14.095
72702W        W44318  28.581  16.808   4.950
72703W        W44319  40.387  38.572   2.127
72704W        W44320  15.221  39.904   2.791
72705W        W44321   7.771  12.627  12.992
72706W        W44322  14.322   9.026  11.199
72707W        W44323  33.397  42.394  12.652
72708W        W44324  27.980   8.493  11.151
72709W        W44325  33.746  26.496  14.255
72710W        W44326   5.005   2.475   2.239
72711W        W44327  15.530  35.429   2.490
72712W        W44328   5.263   9.212  12.888
72713W        W44329   0.480   9.970   1.806
72714W        W44330  33.579  23.046  12.783
72715W        W44331  25.038  13.779  10.589
72716W        W44332  37.511  32.100   4.694
72717W        W44333  32.122  29.701   2.399
72718W        W44334   6.387  21.583   1.980
72719W        W44335   7.347   4.546   3.333
72720W        W44336   1.455  33.704   4.391
72721W        W44337  23.056  34.164   2.642
72722W        W44338  18.322  42.070  11.478
72723W        W44339  33.629   8.198   2.765
72724W        W44340  40.068  28.059   2.562
72725W        W44341  10.152  29.846   4.101
72726W        W44342  22.040  43.972  11.522
72727W        W44343  20.318  35.164   3.439
72728W        W44344  24.458  24.326  14.098
72729W        W44345  42.921  37.836  13.880
72730W        W44346   2.384  44.407  10.564
72731W        W44347  12.838  42.375  11.674
72732W        W44348  43.053   5.210  14.455
72733W        W44349   3.661  12.264   1.694
72734W        W44350  15.575   4.716   2.744
72735W        W44351  35.180  22.263  12.132
72736W        W44352  34.849  21.727  12.929
72737W        W44353  11.527  13.788   2.668
72738W        W44354  27.751  28.582  14.134
72739W        W44355  16.679  42.950   3.124
72740W        W44356  36.894   1.467  11.889
72741W        W44357  24.112  16.968   9.771
72742W        W44358   5.827  36.500  14.918
72743W        W44359  26.928  37.959   1.391
72744W        W44360  39.039  11.671   3.711
72745W        W44361  12.702   6.866  12.518
72746W        W44362   3.371  11.339  14.249
72747W        W44363   2.472  22.150  11.610
72748W        W44364   2.018  18.141  11.966
72749W        W44365  15.001  24.317   4.207
72750W        W44366  27.891  26.278   1.322
72751W        W44367  28.072  20.855  11.543
72752W        W44368  24.789  31.604   3.258
72753W        W44369  15.147   6.658  13.541
72754W        W44370   6.457   6.834   0.325
72755W        W44371  35.512   0.100  10.632
72756W        W44372  12.300  10.910  12.028
72757W        W44373   0.981  15.988   2.430
72758W        W44374   7.636  25.460   0.812
72759W        W44375  12.418  13.777  13.998
72760W        W44376  40.770  15.853  12.389
72761W        W44377  10.513  29.438   4.086
72762W        W44378   4.979  27.148   0.787
72763W        W44379  40.019  33.784  12.451
72764W        W44380  26.149  22.410   4.190
72765W        W44381   2.716  38.116  14.990
72766W        W44382  21.743   3.032  12.168
72767W        W44383  19.732  33.118  12.964
72768W        W44384  31.781  44.520   4.563
72769W        W44385  15.733  42.865   2.624
72770W        W44386  28.878  17.135   3.610
72771W        W44387  25.444  40.006  14.998
72772W        W44388  38.948  25.354   1.577
72773W        W44389  31.211  36.759  14.271
72774W        W44390  31.606  35.839  14.877
72775W        W44391  25.684  37.426  10.757
72776W        W44392  40.829   6.455  10.745
72777W        W44393  35.862  41.857  14.081
72778W        W44394  29.155  42.572   1.197
72779W        W44395  39.559   5.702  12.993
72780W        W44396  25.767  26.514   4.991
72781W        W44397   1.375  11.858  11.943
72782W        W44398  14.239  44.947  14.900
72783W        W44399  21.023  35.938  10.605
72784W        W44400  44.883  20.578  14.808
72785W        W44401  10.812  21.741  11.440
72786W        W44402  11.080  41.317  13.443
72787W        W44403  11.148  35.796   3.757
72788W        W44404  14.531  33.182   1.018
72789W        W44405  42.841  11.275   2.438
72790W        W44406  32.462  32.600  12.682
72791W        W44407  17.959   2.896   2.270
72792W        W44408  26.756  33.566   2.787
72793W        W44409  32.889  40.249   1.415
72794W        W44410   5.732  20.043  13.465
72795W        W44411  43.915  26.178   4.804
72796W        W44412  42.375  27.040   0.544
72797W        W44413   2.080  36.833   2.661
72798W        W44414  18.097  17.234   4.434
72799W        W44415  35.115  27.585  12.441
72800W        W44416  30.596  34.365  13.325
72801W        W44417   9.045  33.011  13.871
72802W        W44418  39.593  34.564   4.916
72803W        W44419  29.953  44.665   2.747
72804W        W44420  11.388  21.218  13.289
72805W        W44421  15.285   9.854   3.056
72806W        W44422  13.306  23.086   0.031
72807W        W44423  44.423  33.937   2.473
72808W        W44424  25.732  11.343   2.240
72809W        W44425   5.761  42.216  10.980
72810W        W44426  30.933   5.469   2.170
72811W        W44427  37.484  29.422  10.382
72812W        W44428  28.470   1.728   2.940
72813W        W44429  14.150  31.429  13.959
72814W        W44430  30.822  19.242  10.532
72815W        W44431   9.852  19.197   4.413
72816W        W44432  36.300  24.377   2.817
72817W        W44433  42.286  40.096  12.857
72818W        W44434  13.302  37.008   2.621
72819W        W44435  18.023  31.455  12.071
72820W        W44436   9.873  14.289  12.350
72821W        W44437  34.292  25.673  11.988
72822W        W44438  31.491   4.319   0.251
72823W        W44439   4.172  20.000   3.735
72824W        W44440   7.696  14.358  14.240
72825W        W44441  24.130  25.837   0.233
72826W        W44442  13.006  40.446   4.473
72827W        W44443  14.456  42.559  13.804
72828W        W44444   2.690  20.060  13.439
72829W        W44445  24.443  13.240   3.717
72830W        W44446  25.010  29.525   1.933
72831W        W44447   6.921  23.624  12.406
72832W        W44448  21.050  33.604   3.734
72833W        W44449  20.679   7.288   4.556
72834W        W44450  28.752  21.569  12.466
72835W        W44451  38.349  36.001   0.308
72836W        W44452  43.574  23.149  14.430
72837W        W44453  37.828   5.375  11.069
72838W        W44454  21.263  41.022   2.719
72839W        W44455  24.771  14.545  13.932
72840W        W44456   1.015  29.626   1.715
72841W        W44457  32.639   9.204   2.931
72842W        W44458  42.950  22.994  12.225
72843W        W44459  36.668  18.722   4.770
72844W        W44460  39.740   1.790   2.898
72845W        W44461   7.842  30.613   3.770
72846W        W44462  29.559  27.155   4.860
72847W        W44463  10.659  30.799   0.164
72848W        W44464  13.522  16.088  13.418
72849W        W44465   9.401  28.276  12.308
72850W        W44466  31.185  34.001  10.712
72851W        W44467   0.217  15.419   2.789
72852W        W44468   7.765  20.690   4.843
72853W        W44469  16.768   9.180   0.027
72854W        W44470  10.253  28.705  13.448
72855W        W44471  28.897  43.827   2.692
72856W        W44472  18.864  39.718   3.654
72857W        W44473  32.543  28.015  13.381
72858W        W44474   2.018  38.915  12.887
72859W        W44475  11.654  21.110   3.772
72860W        W44476  13.951  36.028  11.843
72861W        W44477   3.800   0.922  13.046
72862W        W44478  25.750   0.060  14.796
72863W        W44479  43.287  24.180  12.954
72864W        W44480  34.167  44.692  11.121
72865W        W44481   4.348  24.473  11.032
72866W        W44482  40.469   6.750   2.757
72867W        W44483  30.342  39.001  13.732
72868W        W44484  44.711  16.059   1.346
72869W        W44485  26.632   5.501  13.304
72870W        W44486   3.404  14.876   3.997
72871W        W44487  38.541  32.096  12.347
72872W        W44488  37.310  19.608   0.229
72873W        W44489  20.096  14.135   3.324
72874W        W44490  10.338  31.287   4.341
72875W        W44491   5.878  28.832   4.855
72876W        W44492   6.385  37.609  13.414
72877W        W44493  11.737   3.987   3.314
72878W        W44494  23.255  33.550   1.408
72879W        W44495  22.117  13.730   1.877
72880W        W44496  17.163  21.323   4.587
72881W        W44497   3.717  30.909   4.793
72882W        W44498  27.251  29.532  14.516
72883W        W44499  15.313  32.339   3.621
72884W        W44500   5.062  37.637   3.834
72885W        W44501  26.600  27.263  13.327
72886W        W44502  14.843  10.334   4.623
72887W        W44503  17.426  13.239  14.767
72888W        W44504  11.273  12.932   2.151
72889W        W44505  34.369  42.076   4.053
72890W        W44506  24.252  10.108   0.080
72891W        W44507  37.121  15.818   3.813
72892W        W44508  41.605  36.346  11.942
72893W        W44509  20.707  21.273  14.906
72894W        W44510   6.611  22.643  13.886
72895W        W44511  28.721  44.486  11.952
72896W        W44512  37.880  25.023  14.312
72897W        W44513  32.149  28.769   2.023
72898W        W44514  19.022  12.798   1.007
72899W        W44515  20.323  17.859  10.373
72900W        W44516  13.460  38.398   4.617
72901W        W44517   7.786   7.465  14.647
72902W        W44518  41.537  37.420   2.291
72903W        W44519  32.024   8.189  13.776
72904W        W44520  26.498   7.970  12.039
72905W        W44521  10.794   2.782  12.553
72906W        W44522  26.246  24.019  10.621
72907W        W44523  16.796   6.923   0.180
72908W        W44524  19.996   6.417   1.821
72909W        W44525  44.802  18.659   3.363
72910W        W44526   0.269  28.425   4.659
72911W        W44527  17.275  24.029   3.399
72912W        W44528  27.244  14.192   0.460
72913W        W44529  36.644  26.964  12.555
72914W        W44530  21.825  10.307  10.777
72915W        W44531   6.171  28.858  11.143
72916W        W44532   1.878   3.907  12.996
72917W        W44533   5.642  12.732   1.911
72918W        W44534   8.358  10.664  13.952
72919W        W44535  34.890  15.555   4.113
72920W        W44536  10.763  14.274  11.531
72921W        W44537  44.669  41.053   5.087
72922W        W44538  21.718  33.476   4.105
72923W        W44539  18.311  38.294   4.596
72924W        W44540  35.598  32.479  11.548
72925W        W44541  29.429  31.483   2.795
72926W        W44542   0.254  15.738   0.040
72927W        W44543  19.746  32.572   2.131
72928W        W44544  12.350  16.187  11.518
72929W        W44545  32.973  44.835   1.187
72930W        W44546  39.566  37.911  12.609
72931W        W44547  39.806  30.396  14.090
72932W        W44548  36.379  12.370  11.928
72933W        W44549  16.321  32.656   4.103
72934W        W44550  19.576  30.078   0.482
72935W        W44551  32.945  19.083  10.726
72936W        W44552  30.629  32.676   1.777
72937W        W44553  18.866   2.509   3.897
72938W        W44554  12.188  44.680  14.016
72939W        W44555  28.816  44.800   1.767
72940W        W44556  27.387  12.807  13.023
72941W        W44557  15.226   7.429   4.279
72942W        W44558  25.223  14.043  11.460
72943W        W44559  17.689  12.660   3.719
72944W        W44560   9.232   4.461   3.252
72945W        W44561  34.604  40.739   3.616
72946W        W44562  34.919   1.285   4.674
72947W        W44563  28.841  35.977   0.921
72948W        W44564   2.809   6.668   2.362
72949W        W44565  22.473  37.645  13.317
72950W        W44566   9.311  12.265  12.616
72951W        W44567   6.901  20.184  13.030
72952W        W44568  36.439   9.989  11.977
72953W        W44569  11.275  40.264  12.629
72954W        W44570  15.574  16.278   3.812
72955W        W44571  23.966  44.222  12.854
72956W        W44572  11.499  28.836  12.074
72957W        W44573  29.231  23.092   0.686
72958W        W44574   3.945  43.738   3.301
72959W        W44575  12.622  13.693  11.192
72960W        W44576  43.537  23.821   2.227
72961W        W44577   1.428   3.638   0.817
72962W        W44578  42.950   1.888  11.136
72963W        W44579  35.551   6.085  13.653
72964W        W44580  16.550  37.032   4.170
72965W        W44581  34.600   5.486  11.555
72966W        W44582   1.174  30.000   4.304
72967W        W44583  30.521  25.146  12.028
72968W        W44584  33.579  23.554  12.880
72969W        W44585   0.274  14.044   0.736
72970W        W44586  23.904  19.623  10.363
72971W        W44587  30.216  20.631  14.814
72972W        W44588  13.161  10.254   1.029
72973W        W44589  40.840  17.995  11.097
72974W        W44590   1.920  17.036  13.907
72975W        W44591  19.069  33.724   2.758
72976W        W44592   0.523   1.937  14.952
72977W        W44593  44.380  17.772  12.117
72978W        W44594  16.309  42.640  10.689
72979W        W44595  14.080  28.689  13.740
72980W        W44596  35.234  37.523  11.636
72981W        W44597   8.545  17.275   1.125
72982W        W44598  13.127  24.166   2.848
72983W        W44599   5.905  15.785   4.963
72984W        W44600  40.176  32.281   4.135
72985W        W44601  15.667  32.430   1.950
72986W        W44602  26.600  22.244   0.903
72987W        W44603  17.475   5.180   3.432
72988W        W44604  32.506  40.308  14.979
72989W        W44605  28.490  27.736   0.455
72990W        W44606  22.041  30.242  10.920
72991W        W44607  37.365  21.640  14.355
72992W        W44608   3.647  32.989  14.352
72993W        W44609  18.578  42.997   4.096
72994W        W44610  38.966  42.781  10.525
72995W        W44611  27.919   0.568   1.037
72996W        W44612  10.249  18.292  14.879
72997W        W44613  22.080  25.107  12.126
72998W        W44614   9.138  32.470  11.185
72999W        W44615  29.953  26.549   2.327
73000W        W44616  25.414  23.200   1.498
73001W        W44617  11.689  40.796   1.337
73002W        W44618  32.557   1.852   5.446
73003W        W44619   0.807  36.506  13.512
73004W        W44620  40.558  16.279  10.660
73005W        W44621  22.016  14.882  14.810
73006W        W44622  33.723  35.587  13.451
73007W        W44623  29.022  18.291   0.421
73008W        W44624  27.566  14.561  12.466
73009W        W44625  23.753  41.493  13.477
73010W        W44626  19.103  12.262   4.033
73011W        W44627  18.244  32.712   4.172
73012W        W44628   6.235  23.147   0.202
73013W        W44629  18.598  30.554   0.845
73014W        W44630  10.642  21.953  12.632
73015W        W44631  20.000  36.693  14.807
73016W        W44632  16.340   1.716   3.545
73017W        W44633   1.672   2.410  12.908
73018W        W44634  40.239  42.069  11.222
73019W        W44635  25.382  13.171  11.237
73020W        W44636  22.648  35.024   4.150
73021W        W44637  20.773  15.304  12.863
73022W        W44638  30.474  16.341   4.017
73023W        W44639  33.518  10.628   2.879
73024W        W44640  34.578  40.254   0.046
73025W        W44641   3.201  36.114   4.276
73026W        W44642  40.311  35.873  12.960
73027W        W44643  17.522  37.059  10.463
73028W        W44644  16.933  42.073  10.229
73029W        W44645   4.900  11.408   3.618
73030W        W44646   5.088  37.844   0.738
73031W        W44647   8.156  19.026   1.218
73032W        W44648  29.420  44.261   3.700
73033W        W44649  38.522   8.228   4.505
73034W        W44650   6.147  15.527  13.420
73035W        W44651  26.228   9.765   0.467
73036W        W44652  39.113  30.676  12.009
73037W        W44653  20.020  11.640   4.390
73038W        W44654  39.800  41.751  11.240
73039W        W44655  41.891  43.023   0.738
73040W        W44656  23.688  24.066   1.826
73041W        W44657  15.349  37.966  12.186
73042W        W44658  39.531  29.526  11.073
73043W        W44659   7.054  20.824  11.127
73044W        W44660  22.123  14.761  13.811
73045W        W44661  17.560   3.674  10.554
73046W        W44662  27.199  27.579   0.346
73047W        W44663  21.276  28.586  13.900
73048W        W44664  24.643  39.698  10.752
73049W        W44665  29.456  14.325  12.398
73050W        W44666  39.311  23.147  13.480
73051W        W44667  29.085  43.406   0.840
73052W        W44668   5.776  21.764  14.332
73053W        W44669  36.446  31.523   2.992
73054W        W44670  41.837   2.734   0.721
73055W        W44671  44.331  24.944   0.694
73056W        W44672   5.098  44.390   5.074
73057W        W44673  13.201  23.566   1.732
73058W        W44674   1.715  42.703   2.720
73059W        W44675  16.787  13.744  11.128
73060W        W44676  36.485  38.752   4.201
73061W        W44677   1.960  20.177   4.969
73062W        W44678  18.163  34.216   3.163
73063W        W44679  24.773  21.661  12.088
73064W        W44680  14.833  24.208   1.031
73065W        W44681  42.879  32.993   0.670
73066W        W44682  11.753  28.743  13.856
73067W        W44683  14.230  25.551   2.600
73068W        W44684  18.131   2.536  12.615
73069W        W44685  28.675  42.437   0.967
73070W        W44686   6.187  41.496  13.366
73071W        W44687  44.110  28.105   2.779
73072W        W44688  10.815  12.438  10.898
73073W        W44689  20.244  23.415  14.940
73074W        W44690  27.617  18.353  12.921
73075W        W44691  21.015  43.414   0.893
73076W        W44692  17.795  43.257   3.135
73077W        W44693  32.991   2.050   5.206
73078W        W44694  43.841  10.187   4.586
73079W        W44695  44.069  33.002  12.653
73080W        W44696  29.939  23.269  14.882
73081W        W44697  42.457  40.332   4.564
73082W        W44698  42.014   2.484  11.674
73083W        W44699   7.587   6.934   2.407
73084W        W44700  21.685  16.193   1.139
73085W        W44701   7.886  10.071   0.314
73086W        W44702   1.208  11.636   1.651
73087W        W44703  37.620   7.397   4.196
73088W        W44704   7.757  25.743  12.484
73089W        W44705   0.278  12.322   3.314
73090W        W44706  24.982   3.535   1.129
73091W        W44707   6.888  42.612   1.859
73092W        W44708  13.743   7.774  12.275
73093W        W44709  43.065  42.025   0.483
73094W        W44710  18.178  12.763   4.651
73095W        W44711  37.899   9.130   1.238
73096W        W44712  33.565  43.437   0.911
73097W        W44713   5.776  39.775   0.339
73098W        W44714   9.156  20.006   3.648
73099W        W44715  41.992   7.523   2.296
73100W        W44716  19.703  26.123   4.110
73101W        W44717  36.694  17.473   1.837
73102W        W44718  44.891  17.375  13.467
73103W        W44719  30.084  31.728   1.955
73104W        W44720  28.057   3.089  10.305
73105W        W44721  18.602  14.584  13.157
73106W        W44722  43.327  29.898   2.867
73107W        W44723  35.988   0.854   0.437
73108W        W44724  17.076  31.174  14.429
73109W        W44725  27.701  11.262  13.408
73110W        W44726   5.368  27.214   0.430
73111W        W44727  23.123   6.144   4.236
73112W        W44728  19.113   5.185  11.644
73113W        W44729   3.296   3.418   1.436
73114W        W44730  10.162  31.041   3.275
73115W        W44731  41.786  21.010  13.839
73116W        W44732   9.157  43.030   0.777
73117W        W44733   9.545  27.897   2.140
73118W        W44734   5.800  39.505  11.110
73119W        W44735   9.661  37.784  13.333
73120W        W44736  13.845   5.789   4.131
73121W        W44737  43.368  26.033  14.052
73122W        W44738  21.756  20.572  11.794
73123W        W44739  44.852  43.909   4.408
73124W        W44740  16.583  27.498  10.695
73125W        W44741  22.739  33.992   1.878
73126W        W44742  22.024  25.385  11.532
73127W        W44743  26.749  25.684   4.113
73128W        W44744  36.942  28.674   3.068
73129W        W44745  24.251  40.874   3.797
73130W        W44746  34.411   8.159  13.757
73131W        W44747  24.774  34.627   4.099
73132W        W44748  23.517  39.157   1.732
73133W        W44749  11.192  40.031   4.379
73134W        W44750  28.042  25.391   1.230
73135W        W44751  27.005  13.826  10.818
73136W        W44752  15.713   0.379  14.221
73137W        W44753   8.965  12.234  13.855
73138W        W44754  41.721  39.302   2.769
73139W        W44755  17.740  18.858  14.281
73140W        W44756  29.561  11.078  10.423
73141W        W44757   7.832  39.287   4.719
73142W        W44758  25.197   0.108   0.768
73143W        W44759   0.826  34.949  12.556
73144W        W44760  13.709  34.989  14.468
73145W        W44761  32.836  22.909   1.740
73146W        W44762  14.400  10.895   1.766
73147W        W44763   8.414  27.286   0.719
73148W        W44764   6.965   7.887  13.263
73149W        W44765   8.603  25.051   4.018
73150W        W44766  17.071   8.336   1.452
73151W        W44767  17.343   4.177  10.730
73152W        W44768  40.068  42.081   2.857
73153W        W44769  27.478  28.091  13.276
73154W        W44770  28.981  24.975  12.425
73155W        W44771  38.041   3.966  14.322
73156W        W44772  39.264  33.820  13.167
73157W        W44773  12.548  22.098   1.104
73158W        W44774   0.392  23.138   2.259
73159W        W44775  38.572  27.980   0.741
73160W        W44776   3.320  32.519   2.217
73161W        W44777   7.473  28.503  14.803
73162W        W44778  10.437  27.248   3.366
73163W        W44779  30.037  24.679   0.252
73164W        W44780   1.377   8.910   2.379
73165W        W44781  29.762  29.962  14.499
73166W        W44782  16.087  35.023   4.361
73167W        W44783   3.529  20.029  11.983
73168W        W44784  23.228  42.536   3.876
73169W        W44785   1.191  22.167  12.551
73170W        W44786  18.539  32.482   0.887
73171W        W44787  41.865  33.790  12.470
73172W        W44788  44.074  30.425  14.732
73173W        W44789  37.887  14.377   1.129
73174W        W44790  34.169  40.036   4.142
73175W        W44791  19.091  36.417   2.134
73176W        W44792  23.119  39.750   3.218
73177W        W44793  12.356  10.402  12.952
73178W        W44794   2.867   0.281   2.394
73179W        W44795  19.258  40.417   4.336
73180W        W44796  21.410  17.123   1.880
73181W        W44797  22.254  18.822  12.933
73182W        W44798  19.237   2.639   1.718
73183W        W44799  40.522   8.124  11.345
73184W        W44800  43.909   7.602  10.592
73185W        W44801  36.101  34.859  14.400
73186W        W44802   1.473   4.944  14.377
73187W        W44803  25.884  33.648  12.834
73188W        W44804  22.092  19.994   1.118
73189W        W44805  14.230  43.471   3.277
73190W        W44806   1.447  41.920  12.450
73191W        W44807  11.067  23.859  14.969
73192W        W44808  37.335  42.840   3.207
73193W        W44809   3.229  15.769  10.694
73194W        W44810  44.705  26.705   4.358
73195W        W44811   0.398  23.391   4.108
73196W        W44812  13.348   0.408   3.235
73197W        W44813  42.388  32.185  12.128
73198W        W44814  44.918   9.204   2.835
73199W        W44815  39.916   3.736   0.777
73200W        W44816   8.196  44.890  13.255
73201W        W44817   0.034   7.109  14.367
73202W        W44818  20.676  43.810  10.750
73203W        W44819  17.168   4.268  13.797
73204W        W44820   9.968  21.641  14.395
73205W        W44821  28.175  29.660  14.564
73206W        W44822   0.052  20.632  12.438
73207W        W44823  10.118  35.799   1.763
73208W        W44824  38.330  37.574  14.926
73209W        W44825  28.404  10.899   2.681
73210W        W44826  23.968   3.296  12.085
73211W        W44827  42.983  14.631   2.751
73212W        W44828   5.611  11.372   0.956
73213W        W44829  31.406  35.522   1.306
73214W        W44830  38.053  13.126   0.785
73215W        W44831  12.651   7.706   3.498
73216W        W44832  41.301  20.372   4.581
73217W        W44833  23.739   1.289  13.019
73218W        W44834  24.492  40.553  11.131
73219W        W44835  21.657  35.285   4.234
73220W        W44836  24.384  24.118   2.719
73221W        W44837   3.293  41.539  11.620
73222W        W44838  32.695  26.651  11.120
73223W        W44839  34.676  10.044  10.285
73224W        W44840  14.667  24.141  11.883
73225W        W44841  30.044   6.848  10.437
73226W        W44842  38.140  17.396   0.602
73227W        W44843  41.774  21.325   4.641
73228W        W44844  22.740  37.645  10.563
73229W        W44845  42.906  30.263  11.178
73230W        W44846   7.703  36.316  14.984
73231W        W44847  19.502  19.735  12.020
73232W        W44848  14.040  27.053  14.544
73233W        W44849  34.860  18.293  12.448
73234W        W44850   0.335   3.532  13.846
73235W        W44851  36.034  10.918   3.704
73236W        W44852  31.546  33.550   0.879
73237W        W44853  16.128   2.988  11.807
73238W        W44854  27.014  28.547   0.545
73239W        W44855  14.145  26.038   0.227
73240W        W44856  12.311  14.246  13.786
73241W        W44857  11.059  43.158  11.103
73242W        W44858   4.420  19.545   1.919
73243W        W44859   4.787   8.323   0.853
73244W        W44860  23.038   9.171   1.529
73245W        W44861  29.676  39.182   0.382
73246W        W44862  32.049  12.276   3.075
73247W        W44863   7.245   8.705  12.244
73248W        W44864  12.654  19.129   3.584
73249W        W44865  30.071  42.886  13.904
73250W        W44866  20.596  33.770   2.740
73251W        W44867   0.264  40.913  13.467
73252W        W44868  19.728  24.417   0.838
73253W        W44869  17.847  44.674   1.833
73254W        W44870  29.729  28.421  12.941
73255W        W44871   0.479  44.345   3.923
73256W        W44872  19.817  34.138  13.956
73257W        W44873  29.126  25.096   4.166
73258W        W44874  19.301  11.866  11.163
73259W        W44875  43.025   8.464   1.912
73260W        W44876  23.201  22.284  13.607
73261W        W44877  16.057  21.621   4.802
73262W        W44878  37.224  10.176  10.103
73263W        W44879  31.516   1.967  13.338
73264W        W44880  41.396  22.733  12.404
73265W        W44881   6.335  12.191  13.459
73266W        W44882  22.671  14.160  14.431
73267W        W44883  43.882  32.726  12.015
73268W        W44884  30.417  37.347  12.050
73269W        W44885   8.304  20.198  12.138
73270W        W44886  28.040  36.397   0.482
73271W        W44887   9.383  21.473   3.786
73272W        W44888   1.750  18.832  14.661
73273W        W44889  14.180  40.579  12.217
73274W        W44890  32.871  27.482   1.839
73275W        W44891   8.159  23.385   2.730
73276W        W44892  25.018  21.049   3.287
73277W        W44893  43.971  30.113  14.322
73278W        W44894   6.792  20.279  11.852
73279W        W44895   9.142  40.492   3.615
73280W        W44896   5.828  36.362  12.429
73281W        W44897   2.576  37.021  13.401
73282W        W44898  44.191  39.512  12.090
73283W        W44899   8.784  29.334  12.085
73284W        W44900  40.960  18.860  10.685
73285W        W44901  21.101   6.264  12.660
73286W        W44902  25.502  36.777   2.630
73287W        W44903  29.900  22.190  12.484
73288W        W44904   9.845   9.833  14.944
73289W        W44905  11.781   4.437   3.600
73290W        W44906   7.075  36.484  12.449
73291W        W44907   7.460   2.079   0.483
73292W        W44908  25.617  31.976   1.270
73293W        W44909   3.839  27.590  11.880
73294W        W44910  42.500  12.144  13.504
73295W        W44911  26.658  13.164  14.732
73296W        W44912  10.375  28.072   1.733
73297W        W44913   6.322  41.785   4.850
73298W        W44914  17.150  24.548   2.257
73299W        W44915   1.445  17.541   2.802
73300W        W44916  21.529   5.888  14.234
73301W        W44917  12.808  12.889   5.103
73302W        W44918   1.799  16.281   3.846
73303W        W44919  38.760  36.054  10.280
73304W        W44920  37.089  20.671  10.671
73305W        W44921  13.269  41.294  11.564
73306W        W44922  28.558   5.723   4.880
73307W        W44923  28.635  15.996   2.790
73308W        W44924  32.980  26.196   4.859
73309W        W44925  14.278  22.591   1.811
73310W        W44926  43.253  17.037  12.521
73311W        W44927  36.348  23.677  13.487
73312W        W44928  25.444  20.110   3.761
73313W        W44929  36.888  12.220   5.332
73314W        W44930  13.647   9.942  13.736
73315W        W44931  25.200   3.014  10.769
73316W        W44932  25.632  10.988   0.486
73317W        W44933   0.011  38.305   0.891
73318W        W44934  27.389  22.484   1.350
73319W        W44935   3.477  31.331   1.690
73320W        W44936  30.499  28.514   4.025
73321W        W44937   4.448  38.663  12.938
73322W        W44938  37.035  39.955  14.171
73323W        W44939   5.227   4.925  10.492
73324W        W44940  28.174  30.847  13.866
73325W        W44941  33.339  18.618   3.915
73326W        W44942  13.935  39.918  14.875
73327W        W44943  36.189  22.215   1.103
73328W        W44944  20.000  26.464   2.242
73329W        W44945  14.236   4.127  13.873
73330W        W44946  13.757   7.604   1.462
73331W        W44947  10.598  34.381   4.229
73332W        W44948  14.578  22.696   3.561
73333W        W44949   3.710  42.901  13.324
73334W        W44950   4.964  15.253  12.951
73335W        W44951  32.618  12.326   3.185
73336W        W44952  17.094   4.905   1.263
73337W        W44953  24.762  44.371  12.434
73338W        W44954  19.484  17.267   4.540
73339W        W44955  22.313  34.110  10.741
73340W        W44956   3.852  17.751  13.872
73341W        W44957  22.836   0.312  14.399
73342W        W44958  39.389  12.119   2.232
73343W        W44959  24.701   1.486   3.728
73344W        W44960  33.282   0.556  11.715
73345W        W44961  15.669  43.969  10.722
73346W        W44962   6.742  28.651  14.825
73347W        W44963  42.448  31.033  11.530
73348W        W44964  20.497  14.617   2.694
73349W        W44965  10.407  12.069   2.134
73350W        W44966  39.328  23.555  11.590
73351W        W44967  23.616  10.959   3.183
73352W        W44968  18.338  21.972   0.196
73353W        W44969   9.623  38.464   0.273
73354W        W44970   2.912  16.504   4.569
73355W        W44971  21.218  16.253   2.333
73356W        W44972  13.155  25.807  11.968
73357W        W44973   3.249  13.124  13.955
73358W        W44974  44.823  36.043  12.910
73359W        W44975  31.099  16.712   0.871
73360W        W44976   5.132  18.281  11.182
73361W        W44977   0.829  37.466   5.278
73362W        W44978  44.454  18.278  14.796
73363W        W44979  14.772  26.669  10.883
73364W        W44980  31.396  21.792  13.600
73365W        W44981  27.583  11.128   1.442
73366W        W44982  42.578  23.310   1.234
73367W        W44983   4.869  39.358  14.328
73368W        W44984  36.898  12.379  14.372
73369W        W44985  33.354  44.248   5.772
73370W        W44986  25.146  18.998   2.798
73371W        W44987  18.628   2.238  10.650
73372W        W44988  12.724  17.360  11.162
73373W        W44989  26.953  30.464  10.919
73374W        W44990  38.096  11.898  14.690
73375W        W44991   0.783  17.267   0.227
73376W        W44992  15.144  34.825   4.681
73377W        W44993  16.781  18.534  14.895
73378W        W44994  18.400  12.236   4.620
73379W        W44995   2.188  36.465  14.478
73380W        W44996  17.259   1.845   2.794
73381W        W44997  16.189  33.625   0.334
73382W        W44998  28.878  33.250  13.335
73383W        W44999  36.526  27.993   1.888
73384W        W45000   7.382  39.887  11.522
73385W        W45001   9.747   3.200  11.169
73386W        W45002   9.807  13.869   2.969
73387W        W45003  18.746  41.342   5.065
73388W        W45004   7.291  34.202  14.360
73389W        W45005   4.628  18.250  13.413
73390W        W45006  25.519  16.635   1.704
73391W        W45007  36.341  20.272   1.116
73392W        W45008  26.689  19.051  11.581
73393W        W45009  26.468  21.483  13.958
73394W        W45010  27.753  29.650   3.580
73395W        W45011   6.423  15.868   5.132
73396W        W45012   4.413  42.605  13.432
73397W        W45013  24.479   3.213   2.372
73398W        W45014  18.837  23.147  14.833
73399W        W45015  20.672  22.711  11.628
73400W        W45016  11.570  15.502  10.623
73401W        W45017  22.428  29.649   1.804
73402W        W45018  18.439   9.906   3.677
73403W        W45019  16.695  27.448  13.825
73404W        W45020  42.942  15.342  14.996
73405W        W45021  18.351  38.364   1.933
73406W        W45022   5.260   1.002  14.703
73407W        W45023  19.210  31.474   2.819
73408W        W45024  23.696  15.877   3.681
73409W        W45025  14.726   6.826   4.601
73410W        W45026  15.966   9.129   3.292
73411W        W45027  13.713  38.964  14.889
73412W        W45028   6.240  24.796   3.082
73413W        W45029  38.364  27.537  13.979
73414W        W45030  21.119  44.437  12.849
73415W        W45031  10.744  29.049   3.548
73416W        W45032  39.185  40.783   3.229
73417W        W45033  26.676  14.309  10.014
73418W        W45034   8.195  23.068  14.032
73419W        W45035  10.212  10.839   3.561
73420W        W45036  14.067   3.249   9.661
73421W        W45037   4.253  35.417   3.640
73422W        W45038  28.604  28.650  12.933
73423W        W45039   4.905  35.145  12.498
73424W        W45040   7.772  24.103   2.225
73425W        W45041  28.190  14.696   3.090
73426W        W45042  29.582  10.318  13.997
73427W        W45043   5.420   8.232  13.300
73428W        W45044  26.932   8.920  12.408
73429W        W45045  10.530   7.394   3.417
73430W        W45046  16.833  27.069   3.827
73431W        W45047  41.838  21.158  10.241
73432W        W45048  29.524  12.277  14.931
73433W        W45049  19.074  16.602   3.091
73434W        W45050  12.833  29.477   0.269
73435W        W45051  16.986  20.551  12.680
73436W        W45052   1.871   8.169   0.805
73437W        W45053  26.367  31.969  11.423
73438W        W45054  34.988  32.905   2.586
73439W        W45055  29.819  18.734  13.436
73440W        W45056  10.217  37.479   4.698
73441W        W45057  12.525   5.317   1.787
73442W        W45058   7.983  13.138  14.084
73443W        W45059  30.438  13.925  11.033
73444W        W45060  15.797   5.760   2.376
73445W        W45061  33.104  11.129   0.276
73446W        W45062  10.837  40.553  14.493
73447W        W45063  21.568  18.806  12.226
73448W        W45064  30.983   3.222  10.085
73449W        W45065  23.814  16.897   1.045
73450W        W45066  13.382  38.583   2.316
73451W        W45067  23.161  23.722  10.512
73452W        W45068   9.337  32.406   0.476
73453W        W45069  44.882  27.422  10.604
73454W        W45070  31.517   5.870   2.342
73455W        W45071  22.163  43.728   0.897
73456W        W45072  12.176   7.773   1.673
73457W        W45073   6.248  13.315   0.276
73458W        W45074   6.971   4.514   4.538
73459W        W45075  18.290  30.378   0.433
73460W        W45076  20.590   3.961  12.528
73461W        W45077  13.693  27.717   0.760
73462W        W45078  32.949  39.991   4.769
73463W        W45079  30.591  22.718  13.385
73464W        W45080  40.989  15.660  11.972
73465W        W45081  35.608   4.775   1.946
73466W        W45082  17.544  38.983  11.295
73467W        W45083  14.200   3.166  13.862
73468W        W45084  32.178  24.565   3.866
73469W        W45085  17.883  32.530  11.150
73470W        W45086  44.988  13.045   3.662
73471W        W45087  38.280  36.276  14.057
73472W        W45088  35.831  15.242   3.797
73473W        W45089  30.502  35.710   3.009
73474W        W45090  19.532  40.668   2.218
73475W        W45091   4.881  18.323   3.596
73476W        W45092   3.199  42.965   2.865
73477W        W45093  25.001   7.158  12.455
73478W        W45094  16.864   9.309   4.815
73479W        W45095   6.808  42.868   0.745
73480W        W45096  29.178  35.139   1.746
73481W        W45097  28.642  38.940  10.791
73482W        W45098  12.317   1.273  13.355
73483W        W45099  22.260  36.032   4.559
73484W        W45100  43.309  31.085   4.928
73485W        W45101  25.751   4.255  11.079
73486W        W45102  33.214  17.628  11.067
73487W        W45103   4.736  18.073   1.379
73488W        W45104   1.589  44.199   4.340
73489W        W45105  14.779  27.988   0.812
73490W        W45106  28.094  37.478  14.472
73491W        W45107  13.839  40.422  13.420
73492W        W45108  28.688  32.566   2.115
73493W        W45109  31.079   5.753   3.764
73494W        W45110   4.992  28.882   2.310
73495W        W45111  43.321  34.873  13.937
73496W        W45112   9.797   1.270  12.401
73497W        W45113  28.525  24.486   3.118
73498W        W45114  35.550  19.123   0.744
73499W        W45115   2.631  42.358  13.430
73500W        W45116  11.765  13.213  11.567
73501W        W45117  41.731  12.253  10.988
73502W        W45118  38.080  38.036  13.058
73503W        W45119  26.734  44.260  11.104
73504W        W45120  38.293  42.525  10.664
73505W        W45121  29.467  10.548   4.526
73506W        W45122  13.861  36.850   1.476
73507W        W45123  12.638  27.287  14.936
73508W        W45124  34.086   9.057   1.290
73509W        W45125   1.820  19.120  12.115
73510W        W45126  29.808  21.299  10.212
73511W        W45127  10.925  16.639   1.913
73512W        W45128  23.901   3.778   1.284
73513W        W45129  33.624  26.572  12.987
73514W        W45130  36.656  16.843  12.036
73515W        W45131  43.930  20.138  13.844
73516W        W45132  29.895   2.383  11.588
73517W        W45133  26.543  12.102   3.700
73518W        W45134  23.392  13.652  12.875
73519W        W45135  16.756  21.439   4.267
73520W        W45136  37.061  36.043  10.495
73521W        W45137   8.152  41.946   2.148
73522W        W45138  12.793  13.348   4.208
73523W        W45139  18.918  22.272   3.670
73524W        W45140   4.451   5.203   4.571
73525W        W45141  40.367  29.497  11.494
73526W        W45142   3.877  10.375   0.790
73527W        W45143  38.743  27.648   2.227
73528W        W45144  42.570  22.324  12.904
73529W        W45145   9.233  36.199   2.119
73530W        W45146  37.023  12.258  13.488
73531W        W45147  17.253   9.548  14.362
73532W        W45148  19.223  26.461  10.706
73533W        W45149  36.976  16.113   1.850
73534W        W45150  42.335  44.700  10.526
73535W        W45151  17.707  11.991  12.622
73536W        W45152  37.851  27.234  10.616
73537W        W45153  22.547  21.803  13.545
73538W        W45154  27.634  10.675   1.159
73539W        W45155  24.004  37.594  11.127
73540W        W45156  12.959  14.337  10.782
73541W        W45157  13.796  43.446   0.745
73542W        W45158  24.503  20.516  12.969
73543W        W45159  13.676  35.099  12.661
73544W        W45160  43.915  31.062  11.373
73545W        W45161   7.409  44.900   4.137
73546W        W45162  15.701  43.593  11.663
73547W        W45163  28.768  25.231  12.019
73548W        W45164   0.448  37.149   5.401
73549W        W45165   0.768   3.131  11.135
73550W        W45166   5.009  18.479  10.724
73551W        W45167  40.375  13.053  14.494
73552W        W45168  13.033   4.864  12.781
73553W        W45169  14.312  13.232   3.426
73554W        W45170  29.128  38.458  12.055
73555W        W45171  42.394  33.184  14.978
73556W        W45172  24.070   7.925   2.315
73557W        W45173  18.231  23.259   3.028
73558W        W45174  21.284  10.744   4.087
73559W        W45175   9.166  43.859   1.825
73560W        W45176  13.115   9.179  12.032
73561W        W45177   8.762  14.187  12.868
73562W        W45178   5.341  22.184   3.639
73563W        W45179  16.395  25.197   1.510
73564W        W45180  16.780  13.265   0.596
73565W        W45181  27.879  23.735   4.135
73566W        W45182  18.906  38.481   1.060
73567W        W45183  18.329  25.012   1.451
73568W        W45184  36.024  37.387  13.511
73569W        W45185  13.860  33.984  10.589
73570W        W45186  43.667   8.759  11.966
73571W        W45187   8.666  29.492   0.518
73572W        W45188  44.445   6.961   0.961
73573W        W45189  28.212  10.607  14.848
73574W        W45190  13.599  43.060  13.379
73575W        W45191   8.648  37.759   3.592
73576W        W45192  21.101  35.520   2.357
73577W        W45193  38.556   6.139   0.928
73578W        W45194  39.030  39.856   2.776
73579W        W45195  43.872   5.737  14.834
73580W        W45196  38.816  27.272  10.576
73581W        W45197  23.123  44.798  10.938
73582W        W45198   4.780   4.493   2.767
73583W        W45199  41.496  20.258  13.352
73584W        W45200  38.921  28.868   0.783
73585W        W45201  27.275  33.151  12.583
73586W        W45202  20.110   3.944  14.060
73587W        W45203  19.857  25.273  14.997
73588W        W45204  17.185  17.569  12.464
73589W        W45205  43.122  24.683  13.687
73590W        W45206  18.526   7.401  10.334
73591W        W45207  10.384  15.057   1.792
73592W        W45208  20.958  23.494  13.053
73593W        W45209  22.543  35.133   2.139
73594W        W45210  11.897  15.826   5.029
73595W        W45211  12.890  21.869  12.995
73596W        W45212  27.520  11.248  11.510
73597W        W45213  29.392  42.599   4.138
73598W        W45214   2.314   1.070  12.392
73599W        W45215  27.970  16.209  11.960
73600W        W45216  38.303  20.370  12.952
73601W        W45217  21.678  16.066  13.857
73602W        W45218  39.157  30.254   2.298
73603W        W45219  22.169   8.300   1.235
73604W        W45220  22.459  41.298  10.265
73605W        W45221   2.398  42.372  13.948
73606W        W45222  17.807   4.343   3.456
73607W        W45223  19.979  40.738   4.316
73608W        W45224  41.980  29.898   4.593
73609W        W45225   2.408  11.106   4.018
73610W        W45226  27.941   2.100   4.111
73611W        W45227  19.599  39.900   4.381
73612W        W45228  14.029  27.076  13.339
73613W        W45229  29.036  28.929   4.705
73614W        W45230   7.885  24.891   5.094
73615W        W45231  22.131  26.849   2.766
73616W        W45232  11.306   9.148   2.278
73617W        W45233  38.649   8.741   3.222
73618W        W45234  24.522   4.871   0.216
73619W        W45235   0.413  44.831  10.643
73620W        W45236  23.717  34.144  14.300
73621W        W45237  41.768  33.853   2.294
73622W        W45238  44.295   0.002  11.964
73623W        W45239  33.513  21.112   0.990
73624W        W45240  24.824  31.925   3.656
73625W        W45241  31.227  33.839   4.575
73626W        W45242  23.502  44.947   0.127
73627W        W45243  30.777  20.549  11.610
73628W        W45244  39.969  24.223  11.945
73629W        W45245  16.150   9.886   4.668
73630W        W45246  32.607  21.688   0.438
73631W        W45247  37.243  17.755   2.278
73632W        W45248  37.733  32.464  12.948
73633W        W45249  38.485  14.156   2.258
73634W        W45250   5.681  41.069   3.727
73635W        W45251  11.033  11.625   2.229
73636W        W45252  27.557  43.539   3.570
73637W        W45253  19.240  39.103  12.049
73638W        W45254  19.319  23.777   0.505
73639W        W45255  27.472   2.749   0.503
73640W        W45256  10.607   0.710  12.932
73641W        W45257  26.217  29.102  12.384
73642W        W45258  11.784  10.497  14.774
73643W        W45259   0.792  34.114   2.654
73644W        W45260   3.376  28.712  12.666
73645W        W45261  17.152  37.140  11.254
73646W        W45262  44.932  19.621   1.773
73647W        W45263  33.769  20.972   4.311
73648W        W45264  41.520   8.602   0.229
73649W        W45265  22.693  11.340   0.413
73650W        W45266   9.253  15.048  11.520
73651W        W45267   5.872   8.180   0.987
73652W        W45268   1.189   4.185   3.702
73653W        W45269  21.601  16.814   4.100
73654W        W45270  16.739  32.155  10.686
73655W        W45271   8.554  34.050   2.228
73656W        W45272  25.063   4.836  10.943
73657W        W45273  41.568  30.673   4.137
73658W        W45274  23.325  15.131  14.858
73659W        W45275   6.375  26.630   1.705
73660W        W45276  20.507  34.012   1.829
73661W        W45277  32.485   1.778  13.891
73662W        W45278  30.381  39.995  12.001
73663W        W45279  26.699   3.290   0.011
73664W        W45280  19.578  18.598   2.810
73665W        W45281  38.625   1.405  13.887
73666W        W45282   8.292   7.122   1.315
73667W        W45283  28.638  34.892  14.882
73668W        W45284  41.301   0.769   2.637
73669W        W45285  20.132  39.966   2.294
73670W        W45286   5.673  24.173  14.433
73671W        W45287   2.830  23.560   4.009
73672W        W45288   0.409  42.546  14.403
73673W        W45289  37.374  31.755  12.111
73674W        W45290  28.616  25.681   1.035
73675W        W45291  25.859  20.764  12.063
73676W        W45292  42.131  24.597   0.241
73677W        W45293  29.114  44.062  14.435
73678W        W45294  39.553  15.245   2.269
73679W        W45295  43.067   3.496  13.911
73680W        W45296   1.319  36.374   1.180
73681W        W45297  18.989  39.027  13.499
73682W        W45298   5.243  33.570  14.323
73683W        W45299  33.580  28.373  12.384
73684W        W45300  36.858   3.751   1.806
73685W        W45301  14.811   5.789  10.645
73686W        W45302  25.989  37.032   2.339
73687W        W45303  33.954   5.314  12.087
73688W        W45304  12.174  23.073  12.776
73689W        W45305  17.253  35.704   2.675
73690W        W45306  12.910  26.741  13.833
73691W        W45307   4.791   5.397   1.438
73692W        W45308  41.306  27.287  11.159
73693W        W45309  37.538  28.711   3.376
73694W        W45310  37.371  20.175  10.644
73695W        W45311  38.437  39.370  10.856
73696W        W45312  40.559  27.611  12.528
73697W        W45313   2.911  40.072   2.627
73698W        W45314   9.802  15.868  14.367
73699W        W45315   4.628  13.041   5.121
73700W        W45316  37.982  38.847   0.889
73701W        W45317  16.883  44.441  11.425
73702W        W45318   3.710   4.658   3.163
73703W        W45319  17.113  34.512  14.898
73704W        W45320  37.338  18.218  10.599
73705W        W45321   2.806   2.911  11.515
73706W        W45322  20.342  21.409   1.504
73707W        W45323  18.371   5.009  11.175
73708W        W45324   2.705  26.549   0.660
73709W        W45325  33.661  38.217  11.976
73710W        W45326  17.806  30.054  11.091
73711W        W45327   2.470  26.477  13.552
73712W        W45328   9.202  24.030  12.478
73713W        W45329  14.662  36.084  12.525
73714W        W45330  29.170   2.399   2.910
73715W        W45331  43.945  36.591  13.820
73716W        W45332  23.050  28.503   3.147
73717W        W45333  26.678  14.750  12.806
73718W        W45334   9.477   4.372   2.801
73719W        W45335  10.565  14.248  10.471
73720W        W45336  28.937   6.444   1.713
73721W        W45337   4.776  44.868  13.051
73722W        W45338  35.870  14.876  12.836
73723W        W45339  25.030   8.699   3.752
73724W        W45340  29.501  20.737   3.586
73725W        W45341  29.607  30.693  14.115
73726W        W45342  28.554   7.801   2.242
73727W        W45343   6.164  25.326   0.302
73728W        W45344  40.857  41.592   4.617
73729W        W45345  22.087  16.613   3.980
73730W        W45346   5.789  25.986  12.394
73731W        W45347  43.882  36.292   0.808
73732W        W45348  21.256   2.733  11.503
73733W        W45349  34.554  36.163  13.541
73734W        W45350   6.371  19.175  14.405
73735W        W45351   1.467  30.147   3.890
73736W        W45352  15.849  24.561   0.754
73737W        W45353  11.229  28.697  10.457
73738W        W45354  16.183   0.674   4.992
73739W        W45355   7.967  15.945  12.476
73740W        W45356  21.147  41.263  14.231
73741W        W45357  32.453  27.457   3.652
73742W        W45358  10.878  21.464  12.688
73743W        W45359  30.680  35.372  14.485
73744W        W45360  27.156  15.911  14.248
73745W        W45361  33.491  44.232   4.259
73746W        W45362   3.418   2.746   0.177
73747W        W45363  38.278   9.251  12.584
73748W        W45364  19.065  12.827   4.950
73749W        W45365  28.965  41.731   2.385
73750W        W45366  27.243  38.371   1.208
73751W        W45367   8.909  34.452  13.488
73752W        W45368  27.688  41.904  10.710
73753W        W45369  43.536  42.014   4.746
73754W        W45370  24.612   8.095   4.982
73755W        W45371  21.100  14.213   1.978
73756W        W45372   5.953  39.820  10.713
73757W        W45373  43.060  23.253  10.807
73758W        W45374  24.401  13.592   5.018
73759W        W45375  31.677   2.418  11.148
73760W        W45376  20.721   3.286   1.611
73761W        W45377  17.874   2.878   4.262
73762W        W45378  22.397  28.245   1.798
73763W        W45379  13.489  21.739  11.041
73764W        W45380   6.017   9.220   4.647
73765W        W45381  23.605  24.782   3.335
73766W        W45382  33.522   3.330  10.133
73767W        W45383  19.661  14.589  10.728
73768W        W45384  40.817  32.621   2.243
73769W        W45385  39.926  37.315   0.929
73770W        W45386  31.083  30.211   3.109
73771W        W45387  27.475  25.531  13.012
73772W        W45388   6.828  27.919  11.552
73773W        W45389   5.855  40.763  13.881
73774W        W45390  30.727   5.190   0.783
73775W        W45391  43.346  41.018   1.694
73776W        W45392  31.009   2.646  13.050
73777W        W45393   8.706  42.612   4.259
73778W        W45394  20.201  13.133  14.384
73779W        W45395  25.522  21.507  12.662
73780W        W45396   4.765  23.231  13.478
73781W        W45397  12.917  31.546   2.279
73782W        W45398  18.248  35.130   0.746
73783W        W45399   3.923  25.730  11.669
73784W        W45400  31.931  14.093  13.593
73785W        W45401  23.008  36.268  12.069
73786W        W45402  17.013   6.371  11.087
73787W        W45403   5.923  39.779  13.014
73788W        W45404   4.713  14.072  13.574
73789W        W45405  30.993  19.843   1.253
73790W        W45406  11.243  30.443  14.005
73791W        W45407  17.700  25.672  11.583
73792W        W45408  22.990  34.444   1.212
73793W        W45409  19.686  19.479  10.810
73794W        W45410  23.096  20.639  11.961
73795W        W45411  34.499  33.733  12.949
73796W        W45412  31.068   7.997  10.629
73797W        W45413   4.088  27.540   2.724
73798W        W45414   8.790  20.669  13.469
73799W        W45415  33.886  44.768   2.673
73800W        W45416   1.393  31.391   4.691
73801W        W45417  35.127  35.005   2.290
73802W        W45418  17.842  34.848   0.387
73803W        W45419  26.116  43.849   3.370
73804W        W45420  42.003   3.854  11.560
73805W        W45421  23.524  15.254  14.388
73806W        W45422   0.346  16.837   1.640
73807W        W45423  13.601  15.345   3.846
73808W        W45424  34.016  21.052   4.989
73809W        W45425  25.309   1.954  14.295
73810W        W45426   2.973  23.668  10.682
73811W        W45427  16.316  32.113  10.999
73812W        W45428  44.745  26.707   1.290
73813W        W45429   9.358  25.720  13.847
73814W        W45430  42.361   3.307  14.368
73815W        W45431  38.889  40.844   1.830
73816W        W45432  32.427  28.507   0.824
73817W        W45433  14.731  42.297  14.146
73818W        W45434  35.958   6.450   4.134
73819W        W45435  40.831   4.748   0.586
73820W        W45436  11.212  25.421  10.651
73821W        W45437  23.356   8.651   2.163
73822W        W45438  34.861   3.724   4.597
73823W        W45439  36.906   5.757   0.291
73824W        W45440  35.145   3.665   0.848
73825W        W45441  14.046  15.571   3.654
73826W        W45442   7.299  18.651   1.309
73827W        W45443  34.651  40.612  12.436
73828W        W45444  33.602  21.648  14.567
73829W        W45445  10.871  11.014  12.382
73830W        W45446  33.975  27.972   3.307
73831W        W45447  33.907  33.656  14.951
73832W        W45448  29.570   7.298  10.709
73833W        W45449  40.989  26.556  14.835
73834W        W45450   4.462  29.111  10.696
73835W        W45451  17.337   0.329   1.886
73836W        W45452  41.436   0.195  10.802
73837W        W45453  38.737   3.226  11.522
73838W        W45454   2.732   5.877   0.197
73839W        W45455  42.420   6.586   3.647
73840W        W45456  32.439  31.595  12.334
73841W        W45457  10.762  25.587  10.473
73842W        W45458  29.708  19.963  11.877
73843W        W45459   2.953  10.272  11.508
73844W        W45460  20.978  15.826   0.187
73845W        W45461  36.921  24.058  14.942
73846W        W45462  16.822  13.295  10.840
73847W        W45463  37.984   1.980   2.208
73848W        W45464  34.099  15.701   4.514
73849W        W45465  36.319  37.961   3.689
73850W        W45466   1.494  25.257   2.438
73851W        W45467  17.615  27.694   0.372
73852W        W45468  33.946  21.460  11.759
73853W        W45469  19.606   5.513   1.925
73854W        W45470   2.737  37.429  10.643
73855W        W45471  36.646  14.082   2.376
73856W        W45472   3.756  11.106   4.202
73857W        W45473  20.625  41.436  14.028
73858W        W45474  17.312  32.374   3.289
73859W        W45475  22.621  20.409   4.111
73860W        W45476  32.498   0.784   3.821
73861W        W45477   0.268   1.671  12.037
73862W        W45478  11.716  22.160  11.718
73863W        W45479   3.215  40.407   4.108
73864W        W45480  31.902   4.306  10.687
73865W        W45481  40.938  12.085   4.602
73866W        W45482  14.765  10.747   0.374
73867W        W45483  31.932  40.370   3.092
73868W        W45484   4.843  30.446  14.686
73869W        W45485  30.042  40.951  13.091
73870W        W45486   7.699  27.859  11.710
73871W        W45487  44.555  33.097   3.193
73872W        W45488  16.477  22.005  11.135
73873W        W45489   5.917   3.130   4.723
73874W        W45490  14.422  42.038  13.724
73875W        W45491   1.413  14.413   2.279
73876W        W45492  28.888  26.181   3.103
73877W        W45493  14.722   0.226   3.219
73878W        W45494  23.747   4.222   4.575
73879W        W45495  37.058  29.133   0.408
73880W        W45496  18.830  22.974  12.569
73881W        W45497   0.870  42.051  13.288
73882W        W45498   0.201   0.490   0.857
73883W        W45499  36.435  11.432   3.147
73884W        W45500  30.083  36.153  11.229
73885W        W45501  16.666   7.863   4.508
73886W        W45502  41.228  39.323  13.399
73887W        W45503  26.262  15.650   1.319
73888W        W45504  10.534  28.740  12.965
73889W        W45505  28.415  29.847   0.911
73890W        W45506  38.680  20.006   0.937
73891W        W45507  42.835  38.895   4.482
73892W        W45508  37.440  16.012   4.743
73893W        W45509  13.163  36.376   3.381
73894W        W45510  11.796  32.879  12.761
73895W        W45511  26.620  40.729  12.014
73896W        W45512  20.549  10.260  11.525
73897W        W45513   1.545  35.880  13.402
73898W        W45514   1.311  37.423  11.372
73899W        W45515  20.310  11.727  11.165
73900W        W45516  23.227  43.805   1.868
73901W        W45517  22.319  38.250   1.606
73902W        W45518  33.351   7.106   3.949
73903W        W45519  38.435  36.769   1.290
73904W        W45520  16.368  34.824   2.880
73905W        W45521  12.214   5.344   4.829
73906W        W45522   3.973  25.988   4.572
73907W        W45523  37.007  14.539  13.017
73908W        W45524  32.722  42.349   0.874
73909W        W45525   1.810  29.882   1.826
73910W        W45526  34.071  16.757   1.995
73911W        W45527  14.088  37.868   1.780
73912W        W45528  31.759  28.617  13.471
73913W        W45529   5.763  35.557   0.821
73914W        W45530   4.658  31.720   0.450
73915W        W45531  44.342  15.384  12.894
73916W        W45532  26.596  10.202   4.173
73917W        W45533  24.242  16.122  12.537
73918W        W45534  34.702  32.477   2.547
73919W        W45535  29.435  14.300   2.450
73920W        W45536   6.404  44.419   0.983
73921W        W45537   1.327  37.549   2.912
73922W        W45538  25.032  41.787   3.707
73923W        W45539   0.329   1.711  14.516
73924W        W45540   3.864   9.220  14.804
73925W        W45541  29.465  31.913  10.315
73926W        W45542   1.243  30.485   3.577
73927W        W45543  32.319   0.897  14.832
73928W        W45544  14.716   3.525   4.525
73929W        W45545  32.793   0.681  14.917
73930W        W45546   6.910  31.238  13.110
73931W        W45547  15.295  40.973   1.231
73932W        W45548  23.851  44.927   4.352
73933W        W45549  26.637  36.065   0.257
73934W        W45550   4.765  10.159  14.859
73935W        W45551  33.683   9.786  12.520
73936W        W45552  20.712  24.967   0.792
73937W        W45553  17.248  27.946   2.355
73938W        W45554  38.257  18.609   2.763
73939W        W45555  23.206  44.763  10.440
73940W        W45556  25.738  15.860   0.417
73941W        W45557   0.285   2.394   2.638
73942W        W45558   4.749  30.193  10.620
73943W        W45559  38.023  29.873   4.791
73944W        W45560  40.699  25.271   3.517
73945W        W45561  37.496  31.418  14.332
73946W        W45562  22.694  28.697   0.946
73947W        W45563   6.391  10.654   2.430
73948W        W45564   1.893  10.868   0.163
73949W        W45565   2.013   5.463   0.686
73950W        W45566  40.581  23.533   4.550
73951W        W45567  31.836  15.267  11.513
73952W        W45568  11.616  37.539  10.546
73953W        W45569  10.500  35.904   2.932
73954W        W45570  16.739  33.973  12.606
73955W        W45571  11.495  42.346   4.572
73956W        W45572  16.316  24.628  11.497
73957W        W45573   6.873  26.959   0.547
73958W        W45574  32.967  24.762  13.060
73959W        W45575   7.420   5.742   2.806
73960W        W45576  22.038  37.250  12.551
73961W        W45577   5.227  38.634  11.927
73962W        W45578  17.221  41.018   2.364
73963W        W45579   7.337  21.266  12.027
73964W        W45580  34.994  34.677  12.054
73965W        W45581  24.794  25.581   4.206
73966W        W45582  21.340  14.312   0.830
73967W        W45583  30.563  22.159   1.412
73968W        W45584  23.015  22.706  13.364
73969W        W45585  18.271  35.440   2.657
73970W        W45586   5.826  19.497  12.594
73971W        W45587   8.760  31.328   4.458
73972W        W45588  13.860  41.269  12.025
73973W        W45589  12.374   8.698   1.057
73974W        W45590  21.618   4.530  10.799
73975W        W45591  16.362   0.160   0.468
73976W        W45592   5.352   3.402   1.338
73977W        W45593  19.265   2.263   3.203
73978W        W45594  23.678  43.388   2.236
73979W        W45595  27.993  44.816   4.622
73980W        W45596  40.581  17.191  14.027
73981W        W45597  10.234  34.411  12.848
73982W        W45598  41.289  32.046  14.469
73983W        W45599  14.758  25.022  14.970
73984W        W45600   2.963  21.801  10.193
73985W        W45601  25.121  36.310   1.553
73986W        W45602  25.482  41.164   4.461
73987W        W45603  13.977  26.462  12.910
73988W        W45604   7.919   0.329  14.310
73989W        W45605  21.039   8.887  11.572
73990W        W45606   5.605  43.291   3.964
73991W        W45607  39.697  21.964  13.865
73992W        W45608  21.181  43.087  10.308
73993W        W45609  14.230  31.849   2.938
73994W        W45610  43.512  38.107   5.365
73995W        W45611  33.494  43.732  12.926
73996W        W45612   4.883  29.509   2.669
73997W        W45613  36.949  39.620   3.933
73998W        W45614  27.508  15.729   2.834
73999W        W45615  23.534  19.969  13.804
74000W        W45616  10.919  43.359   3.191
74001W        W45617  16.780  31.111  13.868
74002W        W45618  22.201  41.247  12.536
74003W        W45619  31.534  23.101  14.365
74004W        W45620  29.100  17.828   4.448
74005W        W45621  43.133  18.782  10.550
74006W        W45622  36.913   3.921  14.899
74007W        W45623  38.908   5.734   0.217
74008W        W45624  33.717  17.170  12.041
74009W        W45625   8.347   0.708   0.277
74010W        W45626  36.256  22.215  14.795
74011W        W45627   4.341  40.539  12.504
74012W        W45628   7.432  19.221  14.324
74013W        W45629  18.943  41.130  14.493
74014W        W45630  15.364   5.347   1.612
74015W        W45631   3.366   2.245   4.069
74016W        W45632  37.562  18.855  12.498
74017W        W45633  12.736  17.613   1.512
74018W        W45634  42.207   8.781   3.182
74019W        W45635   7.470  31.553  13.870
74020W        W45636  14.225   0.764   2.723
74021W        W45637  15.658  36.664   3.763
74022W        W45638   4.725   3.829  12.464
74023W        W45639  24.994  39.792  13.876
74024W        W45640  29.140  12.359   1.276
74025W        W45641   1.057  30.443   0.659
74026W        W45642  16.798  36.478   2.654
74027W        W45643   9.826  31.588  11.675
74028W        W45644  11.854  31.974  13.409
74029W        W45645  23.538  40.885   1.223
74030W        W45646  14.362  44.264  13.524
74031W        W45647   7.172  19.479   4.797
74032W        W45648  40.090  41.430   4.110
74033W        W45649   1.844  37.368  11.209
74034W        W45650  41.767  39.584   1.253
74035W        W45651  39.123   7.744  12.429
74036W        W45652  20.504  39.758   0.978
74037W        W45653  37.652   0.288  11.253
74038W        W45654  27.902  30.083   4.088
74039W        W45655  33.841  10.182   0.766
74040W        W45656  18.598  17.563   2.150
74041W        W45657  19.750  39.236   3.803
74042W        W45658  31.383  12.893  13.304
74043W        W45659  13.593  37.922   1.021
74044W        W45660  42.279  22.146   4.564
74045W        W45661  31.069   2.387  12.574
74046W        W45662  25.289  36.398  14.086
74047W        W45663  26.544  30.502   2.353
74048W        W45664   1.004  18.751  14.339
74049W        W45665  15.371   0.238   2.684
74050W        W45666   1.790  35.824   2.858
74051W        W45667  28.154  19.941  10.535
74052W        W45668   0.069  38.336   5.022
74053W        W45669  14.130   5.908   4.568
74054W        W45670  40.441  21.413   0.641
74055W        W45671  17.235   9.114   9.993
74056W        W45672  14.265  24.201   3.546
74057W        W45673  23.330  42.956   3.577
74058W        W45674  13.685  11.250   2.623
74059W        W45675  40.883   0.796  14.723
74060W        W45676  36.061  13.358  13.319
74061W        W45677  21.974  11.791   0.932
74062W        W45678  14.366  15.557   4.056
74063W        W45679  12.327  40.616  13.343
74064W        W45680  24.597  31.159   1.901
74065W        W45681  23.535  41.528   2.888
74066W        W45682  34.009  32.503  10.447
74067W        W45683  11.835  16.545  13.894
74068W        W45684   9.765  11.381   0.821
74069W        W45685   7.196  31.162   1.413
74070W        W45686  14.718  27.310   2.888
74071W        W45687   5.246  33.746  10.501
74072W        W45688   9.215  26.486  11.076
74073W        W45689  33.592  33.056  14.905
74074W        W45690  12.816   2.277  12.168
74075W        W45691  17.625  28.547  12.969
74076W        W45692  16.597  44.261   0.802
74077W        W45693  29.552   2.178   1.135
74078W        W45694  24.247   3.464   3.655
74079W        W45695  42.214  25.172   2.408
74080W        W45696   9.216  10.067   3.100
74081W        W45697  24.626  17.286  11.056
74082W        W45698  22.080  16.275  14.625
74083W        W45699   3.834  27.624  14.952
74084W        W45700  28.419   3.318   2.176
74085W        W45701   8.802  26.672  13.837
74086W        W45702  32.583  42.924  10.686
74087W        W45703   6.377  16.450   0.961
74088W        W45704  22.554  42.508  12.414
74089W        W45705  36.928  41.994   4.739
74090W        W45706  37.549  41.336  13.146
74091W        W45707  17.596  37.435  14.790
74092W        W45708  30.167  32.463  11.621
74093W        W45709  30.346  16.612  12.112
74094W        W45710  21.545  20.712  14.868
74095W        W45711  27.577   7.873   1.177
74096W        W45712  32.579  33.671  11.353
74097W        W45713  13.712  33.632   2.833
74098W        W45714  37.432  21.278   4.529
74099W        W45715   2.943  21.744   3.290
74100W        W45716   6.918  43.839  11.939
74101W        W45717  14.792  37.402  14.877
74102W        W45718  14.999  21.766   3.691
74103W        W45719  38.724   3.404   0.485
74104W        W45720  43.405  16.312  11.398
74105W        W45721  28.202  26.745   4.647
74106W        W45722  13.846  28.103  12.034
74107W        W45723  25.269  27.354   4.165
74108W        W45724  14.343   0.858  10.286
74109W        W45725  10.106  30.138   3.628
74110W        W45726   6.492  32.451   4.262
74111W        W45727  42.186  41.811   5.071
74112W        W45728  27.647  15.586  12.115
74113W        W45729  42.395   8.277  12.870
74114W        W45730   5.942  40.100  14.913
74115W        W45731  22.128  27.078   3.241
74116W        W45732  20.663  29.885  14.302
74117W        W45733  19.589   0.739  13.441
74118W        W45734   1.933  35.408   3.326
74119W        W45735  43.464  16.569  12.545
74120W        W45736  30.448   1.784   1.178
74121W        W45737   6.777  32.470  10.749
74122W        W45738  28.882  25.088   4.638
74123W        W45739  17.309   5.664   4.313
74124W        W45740  18.277  42.949  11.435
74125W        W45741  17.688  16.918  10.520
74126W        W45742  11.075  11.867  12.444
74127W        W45743  13.650  29.089   0.724
74128W        W45744  27.600   2.376  10.498
74129W        W45745   1.245  16.257   4.588
74130W        W45746  31.758  10.106   1.499
74131W        W45747  10.676  24.028  12.376
74132W        W45748  28.649   8.986  13.672
74133W        W45749  16.343  13.051  12.977
74134W        W45750   1.732  15.564   4.180
74135W        W45751  30.657  20.272  12.980
74136W        W45752   1.712  18.606  12.042
74137W        W45753  11.395   1.281  14.498
74138W        W45754  21.551  37.354  11.949
74139W        W45755  12.368   0.412  11.615
74140W        W45756  43.163  34.451  13.627
74141W        W45757   9.824  44.313   2.165
74142W        W45758  44.351  18.859   0.439
74143W        W45759   9.926  19.574   1.819
74144W        W45760   3.379  44.540   4.675
74145W        W45761  38.786  26.625  13.815
74146W        W45762  12.668   8.643   1.658
74147W        W45763  16.861  38.559  14.968
74148W        W45764   7.996  41.556  10.924
74149W        W45765  41.317  25.575   3.135
74150W        W45766  35.053  40.783   1.135
74151W        W45767  39.309  27.040   3.763
74152W        W45768  43.945   0.706   3.076
74153W        W45769  14.138   0.450   1.465
74154W        W45770  20.680  12.889  13.745
74155W        W45771  19.300  42.901  11.544
74156W        W45772  17.343  40.419  12.722
74157W        W45773  36.868   1.330  13.378
74158W        W45774  41.826  11.887   2.679
74159W        W45775  23.700  12.188   2.773
74160W        W45776  28.628  36.913   2.371
74161W        W45777   8.064   7.252  12.933
74162W        W45778   3.403   6.810   4.896
74163W        W45779  17.237  20.088   1.651
74164W        W45780  28.375  38.997   4.901
74165W        W45781  17.657  24.887  13.321
74166W        W45782  10.829  20.198   4.901
74167W        W45783  14.726  22.748  12.212
74168W        W45784   5.640  35.569  12.896
74169W        W45785  21.378  36.664  10.955
74170W        W45786  31.975   5.465  11.460
74171W        W45787  28.746  39.478   2.161
74172W        W45788  20.791  10.128   0.411
74173W        W45789  39.148   4.316  13.396
74174W        W45790   7.015  10.677  11.165
74175W        W45791   2.360  10.733   0.380
74176W        W45792  12.249  31.820   3.286
74177W        W45793   3.768  41.906   0.040
74178W        W45794  33.614   5.097   1.169
74179W        W45795  43.856  20.763   1.324
74180W        W45796  14.581  25.625   1.688
74181W        W45797  19.026  41.737  10.579
74182W        W45798  39.550  21.653   4.250
74183W        W45799  44.874  18.797  11.678
74184W        W45800   3.504  39.033  12.387
74185W        W45801   5.312  15.351  12.411
74186W        W45802  29.165  18.304   3.596
74187W        W45803  38.083  35.498  12.821
74188W        W45804  39.019  28.355   0.945
74189W        W45805   9.425  27.056   1.804
74190W        W45806  19.695   8.303  12.367
74191W        W45807   4.567  26.957   1.044
74192W        W45808  30.800  25.521   4.121
74193W        W45809   5.726  32.082  12.544
74194W        W45810  43.374   0.044   1.930
74195W        W45811  32.411   1.737   3.608
74196W        W45812  27.933  25.656   3.790
74197W        W45813  16.566  27.445   4.702
74198W        W45814  40.144  41.182  11.711
74199W        W45815   9.342  35.118   3.810
74200W        W45816   7.706  14.662  13.324
74201W        W45817   7.787  26.922   4.819
74202W        W45818  10.795  26.938  11.707
74203W        W45819  16.999  39.858   0.256
74204W        W45820   7.216  23.012  12.332
74205W        W45821   0.803   4.110  10.741
74206W        W45822  13.267  29.579   3.638
74207W        W45823  30.955   0.880  12.992
74208W        W45824  31.715  15.026  14.532
74209W        W45825  11.392  27.601   4.671
74210W        W45826  21.198  25.306  11.893
74211W        W45827  21.300   0.401   3.119
74212W        W45828  43.247  25.969   0.196
74213W        W45829  32.054  21.456  12.262
74214W        W45830  24.195   4.409  12.488
74215W        W45831  26.596  28.122  11.228
74216W        W45832   9.692  29.658  12.543
74217W        W45833  44.364  34.342  12.454
74218W        W45834  40.252  22.357   0.263
74219W        W45835  41.858  18.090  13.988
74220W        W45836   9.680  25.590  11.177
74221W        W45837  32.473  35.724   3.464
74222W        W45838  12.237  28.611  13.802
74223W        W45839  26.855  17.902   0.356
74224W        W45840  16.199   4.925   3.784
74225W        W45841   9.097  40.117  11.496
74226W        W45842  27.049  37.272   2.889
74227W        W45843  41.438   5.728  11.499
74228W        W45844  17.919   1.677   1.808
74229W        W45845  29.347  14.912   5.407
74230W        W45846   3.386  25.937   3.259
74231W        W45847   1.956  40.007  12.043
74232W        W45848   1.356  44.335  13.360
74233W        W45849   2.912  24.527   0.307
74234W        W45850   3.369  30.594  12.608
74235W        W45851  28.249  25.175  11.984
74236W        W45852   5.963  41.474  12.554
74237W        W45853  15.103  31.913  12.882
74238W        W45854  26.965  34.010   0.727
74239W        W45855  18.767   4.701   3.433
74240W        W45856  36.798  13.777   4.977
74241W        W45857  10.841   0.218  13.908
74242W        W45858  32.833  11.241  14.824
74243W        W45859  42.370  21.285  11.978
74244W        W45860  16.504  42.425  10.250
74245W        W45861  11.412   2.789   1.327
74246W        W45862  23.215  24.728  14.988
74247W        W45863  27.174  22.225  10.770
74248W        W45864  35.383  32.563  14.454
74249W        W45865  29.364  41.390  13.552
74250W        W45866  10.138   7.781   3.621
74251W        W45867  25.558   8.421   1.178
74252W        W45868   6.160  40.975  12.954
74253W        W45869  26.014   9.691   1.468
74254W        W45870  35.771  17.265  11.882
74255W        W45871  37.813  40.879   0.113
74256W        W45872  15.006   2.785  14.471
74257W        W45873   8.880  17.167  12.182
74258W        W45874  41.200  10.721  14.912
74259W        W45875  43.385  31.375   1.686
74260W        W45876   0.904  13.356  14.960
74261W        W45877  43.343  22.064   2.874
74262W        W45878  12.827  25.469   1.299
74263W        W45879  22.460  37.721   2.415
74264W        W45880  15.273   5.979   9.794
74265W        W45881  33.025  33.033  13.843
74266W        W45882  19.242   3.297  11.918
74267W        W45883  15.255   4.971   1.258
74268W        W45884  20.215  38.461   4.140
74269W        W45885   2.288  26.778  14.998
74270W        W45886   6.544   7.333  12.891
74271W        W45887   6.793  10.324   3.170
74272W        W45888  34.044  29.657  11.018
74273W        W45889  11.265  34.288   2.732
74274W        W45890  22.600   2.771  11.675
74275W        W45891  25.547  17.373   0.187
74276W        W45892  23.935  18.061  12.285
74277W        W45893  21.631  35.304   3.024
74278W        W45894  27.984  24.000  11.027
74279W        W45895   7.205   1.752  12.484
74280W        W45896  30.227  16.108  12.954
74281W        W45897  13.917  13.550   3.573
74282W        W45898  16.673  25.562  13.036
74283W        W45899   7.879  20.109   3.113
74284W        W45900  18.320  22.965  11.029
74285W        W45901  35.906  30.358  11.917
74286W        W45902  34.827  27.318   4.021
74287W        W45903  33.689   3.240   3.606
74288W        W45904  39.512   7.325  13.101
74289W        W45905  16.330   7.699   2.236
74290W        W45906   1.275  35.707   1.749
74291W        W45907  34.372  14.399   0.534
74292W        W45908  21.321  42.725   2.450
74293W        W45909   3.074  26.574  11.877
74294W        W45910  15.770  15.113   2.417
74295W        W45911  27.408  12.420   2.384
74296W        W45912  44.981   7.975   1.786
74297W        W45913  33.951   9.097  12.889
74298W        W45914  27.657   3.184  12.819
74299W        W45915  13.629  28.588  10.445
74300W        W45916  41.815  37.531  14.883
74301W        W45917   9.111  32.601  12.659
74302W        W45918   7.161   9.500   1.737
74303W        W45919   7.970   4.699   4.635
74304W        W45920   2.471  15.103   0.200
74305W        W45921  39.137  15.769   3.795
74306W        W45922  38.332  27.631   3.568
74307W        W45923  36.191   0.794   0.935
74308W        W45924  18.822   5.680   0.359
74309W        W45925  16.207  21.566   1.732
74310W        W45926  31.465  28.520  11.105
74311W        W45927  17.843  18.050  14.461
74312W        W45928   9.004   0.127  10.059
74313W        W45929  39.320   6.053  13.288
74314W        W45930   0.820  18.851  10.737
74315W        W45931  36.107   6.666   3.681
74316W        W45932   8.391  42.434  13.604
74317W        W45933  19.229   0.246   4.312
74318W        W45934  33.901  33.546  10.616
74319W        W45935  11.393   8.847   4.408
74320W        W45936  21.508  31.033   2.623
74321W        W45937   3.348   3.411  13.400
74322W        W45938  36.870  13.619  11.119
74323W        W45939   4.864  24.157   2.565
74324W        W45940  28.746   5.277   0.693
74325W        W45941  26.690  19.754   2.222
74326W        W45942  18.312   8.964   1.339
74327W        W45943  33.080   0.157   4.244
74328W        W45944  13.788  40.532  10.510
74329W        W45945  29.034  30.167  11.187
74330W        W45946  13.063  38.628   1.928
74331W        W45947   6.090  27.152   3.415
74332W        W45948   4.768  27.701  14.506
74333W        W45949   7.913  43.399   0.394
74334W        W45950  23.079  41.219  11.215
74335W        W45951  42.417  11.091  14.463
74336W        W45952  23.228  21.261   1.815
74337W        W45953  39.270   1.019   1.310
74338W        W45954   2.318  32.227   0.480
74339W        W45955  12.247  40.952   4.208
74340W        W45956   3.471  16.491  11.204
74341W        W45957  24.772  35.827  10.916
74342W        W45958   2.716  25.292  14.893
74343W        W45959   4.525   8.971   0.324
74344W        W45960  12.725   8.382   3.183
74345W        W45961  27.195  25.081  12.833
74346W        W45962  35.414   2.933   1.015
74347W        W45963  36.919  43.288  13.695
74348W        W45964  21.943  24.959  13.619
74349W        W45965  30.731  33.962   4.573
74350W        W45966   0.906  31.032   2.937
74351W        W45967  14.613  12.797  11.195
74352W        W45968  27.719   6.849   0.933
74353W        W45969   1.680  36.071   1.556
74354W        W45970  16.604   5.209   3.650
74355W        W45971  29.620  23.577  14.570
74356W        W45972  43.404   7.767  13.944
74357W        W45973   6.904  25.702  11.125
74358W        W45974   4.766  30.584  13.117
74359W        W45975  27.183  11.881   4.107
74360W        W45976  24.004  14.695  13.441
74361W        W45977   4.188  42.137  11.008
74362W        W45978  13.147  11.189  10.644
74363W        W45979   9.816  29.100   4.548
74364W        W45980  12.241  33.373   1.333
74365W        W45981  12.278  39.494   3.340
74366W        W45982   6.384  13.327  11.975
74367W        W45983   0.211  16.244  13.508
74368W        W45984  17.034  24.884   3.498
74369W        W45985  18.565  39.951   0.329
74370W        W45986  39.435  25.656   0.365
74371W        W45987  19.938  29.269   4.450
74372W        W45988  11.053   9.002  14.273
74373W        W45989  23.079  10.261   3.047
74374W        W45990  26.868  20.845  12.075
74375W        W45991   4.656   7.214  12.532
74376W        W45992  15.993  37.628   2.229
74377W        W45993   6.376  18.041   4.665
74378W        W45994  14.021  34.343  11.549
74379W        W45995  44.322  16.545  13.486
74380W        W45996  15.231   6.769  12.485
74381W        W45997  26.395  31.659  10.697
74382W        W45998   8.799  28.182   0.043
74383W        W45999  28.699  23.633   1.971
74384W        W46000   0.784  36.314   3.204
74385W        W46001  20.570  29.151   2.871
74386W        W46002  44.482  24.278   0.003
74387W        W46003  19.737  35.598   4.611
74388W        W46004  34.426  18.205   3.221
74389W        W46005  34.090  26.692   1.851
74390W        W46006   3.553  33.564   3.776
74391W        W46007  15.293   9.858  14.400
74392W        W46008  26.922  21.219  14.475
74393W        W46009   5.062  30.732   4.263
74394W        W46010  11.328  40.534  10.763
74395W        W46011  31.520  14.616  10.835
74396W        W46012  18.517   1.474  11.091
74397W        W46013  13.626   5.319   4.919
74398W        W46014  33.445   0.242   1.785
74399W        W46015   4.113  24.632   2.880
74400W        W46016  15.155   2.543  11.095
74401W        W46017  19.550   8.291   1.493
74402W        W46018  28.483  16.361  12.048
74403W        W46019  41.236  16.647   0.237
74404W        W46020   6.661  33.052   0.654
74405W        W46021  23.158  44.274  10.726
74406W        W46022  12.163  18.273   2.722
74407W        W46023  27.124  29.004  12.241
74408W        W46024  31.191  39.051   3.648
74409W        W46025  33.856  42.482   2.432
74410W        W46026  25.907  22.696  12.988
74411W        W46027  22.152  18.672   0.303
74412W        W46028  12.296  35.358  11.807
74413W        W46029  36.657  40.398  11.121
74414W        W46030  29.470  25.836   4.603
74415W        W46031  39.982  19.296  12.299
74416W        W46032  28.611   2.490   1.682
74417W        W46033   5.404  19.577  13.053
74418W        W46034  18.668  16.947  11.587
74419W        W46035  14.177  14.445  11.655
74420W        W46036  26.944  24.110  14.810
74421W        W46037  25.580  27.968  11.969
74422W        W46038  18.722  19.201   4.651
74423W        W46039  39.666   9.732  14.335
74424W        W46040  43.888  25.705   4.568
74425W        W46041   9.844  23.558  10.648
74426W        W46042  12.897   2.248   1.731
74427W        W46043  44.298  31.009   0.808
74428W        W46044  22.797   7.168   3.248
74429W        W46045  39.066   0.093  13.849
74430W        W46046  43.243   4.893   0.753
74431W        W46047   6.111  37.434  12.033
74432W        W46048  11.437  34.286   2.243
74433W        W46049  35.279  23.059   2.641
74434W        W46050   2.224  10.131  13.900
74435W        W46051   9.892  16.108  13.456
74436W        W46052   1.658  44.825  11.923
74437W        W46053  21.346  22.606  12.790
74438W        W46054  44.360  25.245  14.280
74439W        W46055   0.022   2.366  11.610
74440W        W46056   1.237  14.878  13.888
74441W        W46057  27.735  12.654   3.805
74442W        W46058  33.450  30.077   0.916
74443W        W46059  13.233  36.279   4.720
74444W        W46060  13.547  17.686   2.227
74445W        W46061   2.188  44.194   2.553
74446W        W46062  25.008  41.579   3.223
74447W        W46063  39.076  25.608  14.898
74448W        W46064   4.486  31.425   1.826
74449W        W46065  10.997   0.481   4.517
74450W        W46066  17.020  27.390   3.364
74451W        W46067  22.232  42.510   2.675
74452W        W46068  33.643   8.794  11.708
74453W        W46069   9.812   9.239   2.179
74454W        W46070  10.088  42.448  10.433
74455W        W46071  44.217  34.807   0.353
74456W        W46072   8.240   4.618  11.997
74457W        W46073   3.798  20.154  11.531
74458W        W46074  41.859  14.100  13.012
74459W        W46075  17.081  26.524   3.631
74460W        W46076   5.239  19.039   0.842
74461W        W46077  24.089   5.431   4.336
74462W        W46078  42.557  42.445   1.221
74463W        W46079  41.018  44.128   0.882
74464W        W46080   2.777  29.948  14.485
74465W        W46081  27.961  37.399   1.825
74466W        W46082  28.516   4.603  10.394
74467W        W46083  40.811   9.123   1.251
74468W        W46084  44.333  37.978  14.407
74469W        W46085  26.620  41.986  13.498
74470W        W46086   0.476  22.089  14.501
74471W        W46087  19.672  12.613  11.595
74472W        W46088   5.906  31.080  10.665
74473W        W46089   0.883   9.255   3.306
74474W        W46090  44.411  43.234   4.186
74475W        W46091  24.718  38.380  11.170
74476W        W46092   2.582  37.412   0.425
74477W        W46093  22.694  17.745  11.055
74478W        W46094  23.064  25.982   3.719
74479W        W46095  26.511  39.345  12.870
74480W        W46096  34.650  12.369  12.055
74481W        W46097  30.405  18.676   0.385
74482W        W46098  35.287   0.906  13.367
74483W        W46099  24.025  11.313   0.378
74484W        W46100  32.990  12.206  14.775
74485W        W46101  35.129  36.233  11.598
74486W        W46102  13.569  14.526   3.172
74487W        W46103  37.135  44.885   3.227
74488W        W46104  16.243  29.947   0.979
74489W        W46105  44.451  41.893  10.687
74490W        W46106  21.619  20.888  12.748
74491W        W46107  33.483  20.739  11.100
74492W        W46108  10.682  23.520   2.291
74493W        W46109  24.443   0.031   1.704
74494W        W46110   1.346  37.486   4.380
74495W        W46111  42.896  25.083  14.425
74496W        W46112  10.747  38.592   0.891
74497W        W46113  36.318  21.073   3.985
74498W        W46114  18.849  22.670  12.147
74499W        W46115  17.469  25.770  12.980
74500W        W46116   2.203  42.883   2.465
74501W        W46117  25.449  43.938  14.529
74502W        W46118  28.960  15.670  13.378
74503W        W46119  23.179  36.433   0.579
74504W        W46120   5.451   1.278  11.508
74505W        W46121  43.993  16.684  11.469
74506W        W46122  39.509  20.588   1.862
74507W        W46123  20.958  17.141   0.793
74508W        W46124   2.416  44.863   4.143
74509W        W46125   8.928  25.085   1.856
74510W        W46126  18.389   6.108   4.125
74511W        W46127  41.014  16.276   2.294
74512W        W46128  16.813  29.880   1.699
74513W        W46129  39.520   9.137  13.147
74514W        W46130  30.197  40.504  14.874
74515W        W46131  12.307   9.751   1.747
74516W        W46132  28.436  43.075   1.694
74517W        W46133  33.200  10.650  10.841
74518W        W46134  16.137  40.927   0.090
74519W        W46135   1.252  18.970   1.402
74520W        W46136  13.753  25.508   4.932
74521W        W46137  33.048  29.613  12.534
74522W        W46138  16.272  16.912  14.308
74523W        W46139   4.814  14.413   4.553
74524W        W46140   9.140   8.823   4.249
74525W        W46141  32.535  11.195   4.534
74526W        W46142  17.558  30.462  12.970
74527W        W46143   4.410  20.131  13.796
74528W        W46144  29.840   9.731   4.175
74529W        W46145  13.074   7.608   3.201
74530W        W46146  13.401  16.721   4.104
74531W        W46147  14.425   4.831  12.472
74532W        W46148  42.301  37.324  12.471
74533W        W46149  26.187  22.177   1.738
74534W        W46150   8.523  25.613  13.646
74535W        W46151  22.635  42.534  10.667
74536W        W46152  19.782  27.686   0.558
74537W        W46153  20.456  21.373  11.202
74538W        W46154  43.621  32.675   0.296
74539W        W46155   1.928   6.188   0.422
74540W        W46156  28.283  11.174   4.440
74541W        W46157  18.296   0.675   4.343
74542W        W46158  23.569  28.803   2.732
74543W        W46159  24.474  34.136  13.786
74544W        W46160  33.933   0.970  10.005
74545W        W46161  10.680  39.374  10.475
74546W        W46162   8.426  32.297   4.551
74547W        W46163  21.538  17.708   3.121
74548W        W46164   2.338  15.745  13.731
74549W        W46165  36.442  42.377   4.261
74550W        W46166  41.458  29.387  11.949
74551W        W46167   4.240  42.574  12.456
74552W        W46168  29.880   9.634  10.674
74553W        W46169  28.947  36.499   2.887
74554W        W46170  43.768   4.478  14.370
74555W        W46171  34.870  24.967  11.139
74556W        W46172  21.884  23.588  10.962
74557W        W46173  34.572   5.205   4.056
74558W        W46174  19.992   3.854   0.778
74559W        W46175  32.038  27.890  10.728
74560W        W46176  36.804  43.588  13.287
74561W        W46177  10.788  38.745   3.151
74562W        W46178  23.503   2.606  11.603
74563W        W46179  24.127  18.240   4.535
74564W        W46180  21.932   2.202   0.888
74565W        W46181   4.422   7.769  13.590
74566W        W46182  13.683  21.087   3.911
74567W        W46183   4.233  37.682  12.047
74568W        W46184  28.000   2.468  11.580
74569W        W46185  37.768  13.839   0.966
74570W        W46186  24.697  16.308  14.517
74571W        W46187  13.794  22.600   0.883
74572W        W46188  32.753  40.503   4.983
74573W        W46189  20.731  29.125   4.426
74574W        W46190   8.182   6.086   2.204
74575W        W46191   9.578   0.280  10.744
74576W        W46192   4.815  41.796  13.508
74577W        W46193  29.512  19.119   3.269
74578W        W46194   5.291  40.675   0.749
74579W        W46195  12.346  31.444  10.584
74580W        W46196  25.506   0.423   1.622
74581W        W46197  25.939  40.072   2.828
74582W        W46198  15.452  23.951  11.633
74583W        W46199   4.747  36.618   3.020
74584W        W46200  42.910  16.047   1.859
74585W        W46201  28.860  44.284   1.857
74586W        W46202  40.789  20.307  14.815
74587W        W46203  44.483  14.440  12.797
74588W        W46204   6.606  10.274  11.484
74589W        W46205  17.537  41.856  14.732
74590W        W46206  16.697  10.363  13.436
74591W        W46207  41.884  14.043  11.157
74592W        W46208  44.733  39.818   5.042
74593W        W46209  16.356   3.200  12.232
74594W        W46210  36.582  26.072   0.431
74595W        W46211  20.948   5.619   3.726
74596W        W46212  36.544  40.488   0.361
74597W        W46213   7.154  40.984  12.392
74598W        W46214  37.070   3.646  10.502
74599W        W46215  17.998  17.487  14.950
74600W        W46216   5.103  11.223   3.178
74601W        W46217   8.610  44.922   2.303
74602W        W46218   5.105  18.344  14.535
74603W        W46219  20.624  37.060   0.417
74604W        W46220  16.875  10.552  12.979
74605W        W46221   5.636  22.698  11.964
74606W        W46222   1.415  12.280   0.409
74607W        W46223  29.943  43.320  10.658
74608W        W46224   7.842   6.433   4.352
74609W        W46225  33.187  17.455   0.825
74610W        W46226  22.642  21.401   0.103
74611W        W46227  44.404  30.080  13.518
74612W        W46228  39.040   0.611  11.665
74613W        W46229  10.781  31.517   4.504
74614W        W46230  22.669   7.622  10.582
74615W        W46231  40.966  33.232  12.422
74616W        W46232  40.152  36.516  11.167
74617W        W46233   7.024  35.506   1.219
74618W        W46234   6.150  17.832   0.884
74619W        W46235   4.602  22.174   4.272
74620W        W46236  21.508   2.599  11.960
74621W        W46237  10.308   7.777   1.340
74622W        W46238  14.965  26.661   3.763
74623W        W46239   8.200  15.749   2.946
74624W        W46240  31.441  34.184   1.668
74625W        W46241  31.822  41.938   2.213
74626W        W46242   6.942  21.464  13.371
74627W        W46243   4.417  10.656  11.146
74628W        W46244  27.599  21.507   2.180
74629W        W46245   4.359  42.955   1.771
74630W        W46246  13.032  31.433   1.261
74631W        W46247  18.350  24.705  13.436
74632W        W46248  27.091   7.926   2.977
74633W        W46249  36.073   8.425   5.105
74634W        W46250  41.008  17.301   3.239
74635W        W46251  33.518   2.654  13.237
74636W        W46252  43.843  40.959   1.912
74637W        W46253   6.930  27.526   0.882
74638W        W46254   4.806   2.734   3.516
74639W        W46255  26.494   2.031   1.387
74640W        W46256  30.713   0.369  13.108
74641W        W46257  20.574  41.529   2.808
74642W        W46258  33.705  21.023  10.680
74643W        W46259  44.917  14.272  14.832
74644W        W46260  19.239  17.833   3.396
74645W        W46261  40.285  13.083   1.084
74646W        W46262  34.314  37.150  13.988
74647W        W46263  32.371  27.986  11.999
74648W        W46264  11.895   7.752   3.406
74649W        W46265  33.680  10.812   4.585
74650W        W46266  22.581  37.597  14.758
74651W        W46267  11.078  12.879  13.494
74652W        W46268  13.167  13.922   0.730
74653W        W46269  30.170   9.923  10.993
74654W        W46270   3.344  35.524   3.208
74655W        W46271   0.613  37.103   4.917
74656W        W46272  22.257  41.746   4.270
74657W        W46273  40.587  22.136  14.928
74658W        W46274  39.384  40.251   0.250
74659W        W46275  21.134  30.106  11.634
74660W        W46276   0.380  16.612  14.433
74661W        W46277  30.557   7.048  11.659
74662W        W46278  14.278  15.359   1.871
74663W        W46279  32.100  35.444   0.051
74664W        W46280  17.617  15.723  12.637
74665W        W46281  22.013  37.383  13.109
74666W        W46282  40.807  25.271   0.873
74667W        W46283   8.006  26.461  12.099
74668W        W46284   3.701   2.962   4.801
74669W        W46285  10.195  37.839   3.663
74670W        W46286  18.940  36.057   4.813
74671W        W46287   9.676  43.050   0.854
74672W        W46288  29.716   0.445  12.111
74673W        W46289  23.177  41.073  10.393
74674W        W46290  39.896  18.201   4.471
74675W        W46291  16.226   7.218   2.402
74676W        W46292  20.245  39.145   1.987
74677W        W46293  11.689   2.307   1.645
74678W        W46294  21.704  12.351   4.104
74679W        W46295   6.241  28.507   4.581
74680W        W46296   1.854  21.757   1.379
74681W        W46297  41.651  43.545   2.963
74682W        W46298  39.123  26.017   2.115
74683W        W46299   1.350  21.571  13.505
74684W        W46300   0.702   4.365   3.594
74685W        W46301  16.319  20.371  10.767
74686W        W46302  36.448  25.641   3.278
74687W        W46303  16.074  13.634  10.445
74688W        W46304  20.173  18.512  13.029
74689W        W46305   5.606  31.374   2.751
74690W        W46306  26.995   3.961  12.829
74691W        W46307   6.956   2.650  12.072
74692W        W46308   4.440  11.417   4.232
74693W        W46309   3.881   8.660  13.954
74694W        W46310  31.055   0.397   0.363
74695W        W46311  28.565   7.639  13.942
74696W        W46312  19.564  23.759   3.176
74697W        W46313  20.451   1.059   2.199
74698W        W46314  44.552   7.537  11.231
74699W        W46315  39.916  21.920   0.201
74700W        W46316  32.429  41.700  14.964
74701W        W46317  41.981   7.968   0.097
74702W        W46318   2.710  11.682  14.836
74703W        W46319   6.880   5.210   2.267
74704W        W46320  15.208  11.718   4.140
74705W        W46321  42.499  36.424   0.215
74706W        W46322  10.161  40.411   4.543
74707W        W46323  19.719  22.501  10.601
74708W        W46324  26.732   4.405   0.430
74709W        W46325  17.315  23.156   1.374
74710W        W46326  29.280   1.759  12.461
74711W        W46327  33.486  28.953   4.105
74712W        W46328  41.981  44.922  14.719
74713W        W46329   0.355  40.494   1.292
74714W        W46330   3.246  12.975   0.322
74715W        W46331  22.681  35.969   3.757
74716W        W46332  40.946   1.747  11.715
74717W        W46333   9.353  35.067  14.973
74718W        W46334  14.288  21.086  12.566
74719W        W46335  24.904   9.576  12.999
74720W        W46336  24.087  42.271  14.304
74721W        W46337  21.911   9.005  13.000
74722W        W46338  27.929  38.031  10.721
74723W        W46339  32.513  11.784   0.813
74724W        W46340  39.319  41.351   1.276
74725W        W46341  43.527  32.107   0.311
74726W        W46342  14.713  43.620   1.121
74727W        W46343   3.961   0.717  10.652
74728W        W46344  39.457  12.163   4.532
74729W        W46345   2.705  22.643   1.884
74730W        W46346   3.250  18.116  14.482
74731W        W46347  37.794  31.979  12.751
74732W        W46348  35.966   8.751   0.741
74733W        W46349  17.134   9.704   3.194
74734W        W46350  43.535  30.463   4.627
74735W        W46351  26.190  38.056  14.882
74736W        W46352  15.450  26.207   2.157
74737W        W46353  43.227  21.333   0.257
74738W        W46354  43.707  44.295   2.383
74739W        W46355  27.675   5.367  13.540
74740W        W46356  29.983  10.618   3.663
74741W        W46357  39.034  35.363  11.940
74742W        W46358  30.601   1.411   4.137
74743W        W46359  16.576   2.365  13.091
74744W        W46360  10.662   8.940   3.264
74745W        W46361  12.609  10.446   2.234
74746W        W46362  14.321   5.804  12.054
74747W        W46363   9.238  21.608   2.536
74748W        W46364   7.882  23.336   4.574
74749W        W46365  11.923  11.282  12.093
74750W        W46366  44.595   1.443   4.825
74751W        W46367  29.203  26.889  10.636
74752W        W46368   2.509   7.875   4.430
74753W        W46369  38.013   3.537  11.377
74754W        W46370  29.749  13.281   3.176
74755W        W46371   4.666  29.891   2.367
74756W        W46372  34.649  36.153  14.046
74757W        W46373  43.691   2.733   2.460
74758W        W46374  41.767  20.642   1.843
74759W        W46375  25.688  15.820  11.618
74760W        W46376  31.495  24.181   0.228
74761W        W46377  30.223   0.898  11.545
74762W        W46378   2.826  35.914   1.880
74763W        W46379   3.415  43.793   3.354
74764W        W46380   0.800  36.276   3.961
74765W        W46381  19.286  36.810  11.186
74766W        W46382  32.070  37.541   1.626
74767W        W46383  29.702   6.915  11.533
74768W        W46384  32.418  35.999  10.391
74769W        W46385  42.064  18.261   1.261
74770W        W46386  38.437   4.323  14.458
74771W        W46387  30.206  10.914   4.075
74772W        W46388  18.217   0.431  10.487
74773W        W46389  37.444  16.162   3.567
74774W        W46390   2.926  19.666   0.832
74775W        W46391  42.264   6.384  11.959
74776W        W46392  33.796  19.141   0.337
74777W        W46393  37.374  28.082   1.347
74778W        W46394  27.202  22.108   0.827
74779W        W46395  42.903  21.378  14.851
74780W        W46396  40.950  15.655   3.865
74781W        W46397   9.203  34.970  14.383
74782W        W46398  34.424  20.419  10.768
74783W        W46399   8.273  43.946   4.729
74784W        W46400  31.556  25.920   0.864
74785W        W46401   4.954   2.933  10.745
74786W        W46402  14.870  17.248   4.577
74787W        W46403  32.909   6.138  11.125
74788W        W46404  35.363  41.044   1.506
74789W        W46405   1.440   5.725  14.879
74790W        W46406   9.692   0.436  14.012
74791W        W46407  13.960  14.754   2.313
74792W        W46408  10.133   1.396  12.767
74793W        W46409   2.892  35.829   3.422
74794W        W46410   8.869   7.738  11.581
74795W        W46411   7.931   5.167   4.861
74796W        W46412   5.739  22.699  10.262
74797W        W46413  26.680  26.517  14.315
74798W        W46414   2.057  15.844  10.246
74799W        W46415  23.564   4.170  14.390
74800W        W46416  43.635  13.167   1.062
74801W        W46417  40.911  10.048   4.656
74802W        W46418   8.309  40.834  14.852
74803W        W46419  40.279  29.559   2.819
74804W        W46420   9.900  36.846   0.397
74805W        W46421  44.258  38.344   2.846
74806W        W46422  37.556   8.370  13.949
74807W        W46423  39.955   0.505  12.983
74808W        W46424  15.528  32.512  11.526
74809W        W46425  37.157  11.441   3.532
74810W        W46426   0.025  41.038   3.708
74811W        W46427  29.912  15.552   2.856
74812W        W46428  18.160  31.081   3.333
74813W        W46429   1.800  28.701  10.732
74814W        W46430  29.913  41.244   0.328
74815W        W46431  41.515  38.806  12.583
74816W        W46432  39.607  39.103   2.920
74817W        W46433  28.127  32.991  14.296
74818W        W46434  31.354  40.552   1.303
74819W        W46435  35.580  41.571  14.982
74820W        W46436  31.360  30.454  10.132
74821W        W46437  37.813  13.552  11.020
74822W        W46438  12.125  31.397   4.145
74823W        W46439  26.057  40.562  12.050
74824W        W46440  14.415   8.362  14.288
74825W        W46441  34.006   2.746   1.764
74826W        W46442  13.704  28.474   2.960
74827W        W46443  25.397  10.277  12.383
74828W        W46444  36.995  26.703   4.587
74829W        W46445  25.570  20.786   2.784
74830W        W46446  21.297  17.605  12.701
74831W        W46447   4.658  15.297   1.443
74832W        W46448  16.849  20.662  11.706
74833W        W46449   3.397  33.569   4.691
74834W        W46450   0.735  35.758  10.311
74835W        W46451  37.907  42.797   1.672
74836W        W46452  39.785  31.342   2.777
74837W        W46453  14.273  11.496  12.080
74838W        W46454  24.057   6.083  12.919
74839W        W46455  16.988  10.213   2.362
74840W        W46456  43.500   8.341  11.614
74841W        W46457   2.984  16.619   0.923
74842W        W46458  36.965  29.184  14.831
74843W        W46459  40.888  23.519  14.884
74844W        W46460   1.219  17.566   3.281
74845W        W46461   4.432   8.716  13.900
74846W        W46462  23.961   8.918   2.246
74847W        W46463   1.201  11.575   4.819
74848W        W46464  10.333   6.354   2.586
74849W        W46465  28.709   6.186  14.413
74850W        W46466  27.749  19.684  10.685
74851W        W46467   8.442   2.385   0.289
74852W        W46468  41.577  42.794  13.608
74853W        W46469  33.005  23.586   0.042
74854W        W46470  18.207  28.057   4.610
74855W        W46471  39.204  15.667   0.460
74856W        W46472  29.019  30.179   3.158
74857W        W46473  41.955   9.152   2.116
74858W        W46474  38.837   6.984   2.340
74859W        W46475  33.135  20.634   4.610
74860W        W46476  31.909   7.422  10.701
74861W        W46477  10.676  24.676   0.746
74862W        W46478  38.110  27.926   0.987
74863W        W46479  22.945  30.708   2.742
74864W        W46480  31.486  36.913   2.705
74865W        W46481  25.457  41.711   0.133
74866W        W46482  31.027   2.705  11.325
74867W        W46483  44.013  44.819   1.284
74868W        W46484  32.976  15.743   2.710
74869W        W46485  29.481   8.175  13.905
74870W        W46486  20.525  34.690   3.516
74871W        W46487  25.516  28.104  14.816
74872W        W46488  20.084   7.270  13.492
74873W        W46489  11.729  20.442   4.311
74874W        W46490  30.947  22.533   3.360
74875W        W46491  33.810  39.134  12.990
74876W        W46492  10.642   7.054  14.298
74877W        W46493  12.112   6.184   1.851
74878W        W46494  21.533   2.746  13.628
74879W        W46495  25.150  11.206   5.086
74880W        W46496  12.764  41.102   2.746
74881W        W46497  22.247  39.989   4.668
74882W        W46498  35.899  34.018   3.183
74883W        W46499  35.430  42.816   4.576
74884W        W46500   9.184  21.308  12.633
74885W        W46501   8.874  36.841   0.159
74886W        W46502   1.971  18.161  11.052
74887W        W46503   7.305   5.722   1.915
74888W        W46504  40.347  14.138  14.822
74889W        W46505  39.242  39.537   3.167
74890W        W46506   2.744  34.510  13.822
74891W        W46507  42.572  19.062   0.222
74892W        W46508   6.801   4.467   1.643
74893W        W46509  42.044  25.031   4.763
74894W        W46510  40.273  21.168   3.784
74895W        W46511  42.321   7.412  10.609
74896W        W46512  37.454  34.889  10.712
74897W        W46513  36.545  10.253  13.861
74898W        W46514   3.791  33.549   0.993
74899W        W46515   5.763  17.331   3.726
74900W        W46516  41.536  36.075  14.495
74901W        W46517  28.563  41.419   0.050
74902W        W46518   5.387  19.366   4.902
74903W        W46519  37.747   4.888  10.241
74904W        W46520  21.734   7.335  13.880
74905W        W46521  19.806  40.465  12.344
74906W        W46522  32.545  34.110  13.325
74907W        W46523  25.001  37.174  11.448
74908W        W46524  30.648  19.306  11.025
74909W        W46525   5.986   6.644  14.905
74910W        W46526  42.909  42.653  13.272
74911W        W46527   3.156  10.031   5.109
74912W        W46528  14.064  27.549   3.965
74913W        W46529   1.707  30.111  11.559
74914W        W46530   1.912   2.201   3.184
74915W        W46531  11.816  44.672   2.599
74916W        W46532   3.179  25.112   2.181
74917W        W46533  18.612  23.326  10.645
74918W        W46534  14.123  28.755  13.195
74919W        W46535  33.993  23.281  13.014
74920W        W46536  44.478   4.224  11.490
74921W        W46537   8.427  36.003   4.809
74922W        W46538  32.476  27.037   0.836
74923W        W46539  29.263  23.952  10.587
74924W        W46540  40.449  29.148  13.990
74925W        W46541   1.473   3.875  13.311
74926W        W46542  40.103  38.975  10.437
74927W        W46543  16.738  19.865   0.286
74928W        W46544  26.046  22.943  11.166
74929W        W46545   8.885  11.241  14.827
74930W        W46546  43.002  22.168   3.250
74931W        W46547  25.306  35.828   1.582
74932W        W46548  13.652  24.978  12.480
74933W        W46549   1.755  16.419  11.619
74934W        W46550  37.298  18.532   1.229
74935W        W46551  43.416  29.594  10.729
74936W        W46552  38.576   5.321  14.465
74937W        W46553   2.292  23.040   1.361
74938W        W46554  22.075  14.313  14.115
74939W        W46555  19.649  42.290  11.138
74940W        W46556  42.496  16.065  11.976
74941W        W46557  22.155  17.769  11.116
74942W        W46558  35.521  10.831  10.850
74943W        W46559   8.250  18.776   1.691
74944W        W46560   9.468  28.409  12.803
74945W        W46561  17.738  29.512   4.165
74946W        W46562   8.870   4.306   4.565
74947W        W46563  19.730   7.380   4.245
74948W        W46564   4.482  18.897   4.863
74949W        W46565   4.053  33.446   1.416
74950W        W46566  35.964  20.514   1.414
74951W        W46567  18.730  30.058   4.818
74952W        W46568  22.073  33.439  10.966
74953W        W46569  30.685  25.644  11.903
74954W        W46570   0.246  17.675   4.129
74955W        W46571   2.022  13.868   3.365
74956W        W46572  15.296   5.690   4.060
74957W        W46573  29.220  30.002   0.931
74958W        W46574   2.656   8.339   0.397
74959W        W46575  28.014  25.630   3.242
74960W        W46576  29.441  18.635   1.899
74961W        W46577  38.251  30.614   2.265
74962W        W46578  42.584  21.565   0.352
74963W        W46579   2.255   9.122  11.274
74964W        W46580   6.459  25.317  10.275
74965W        W46581  17.090  24.016  10.528
74966W        W46582   6.817  27.172  12.137
74967W        W46583   0.960  22.705  12.982
74968W        W46584  18.231  38.632  13.848
74969W        W46585  41.606  12.991   3.320
74970W        W46586  34.407   7.316  13.377
74971W        W46587  33.963  17.717   3.871
74972W        W46588  40.937  21.613   4.751
74973W        W46589  14.676  32.615  10.316
74974W        W46590   1.860   8.968   4.650
74975W        W46591  40.534  15.034  14.519
74976W        W46592   3.801  16.316  13.049
74977W        W46593  36.503  29.101   2.803
74978W        W46594   7.147  11.251  11.217
74979W        W46595  21.933  44.784   2.858
74980W        W46596  22.845   1.892  13.986
74981W        W46597  40.333   0.812   1.449
74982W        W46598  17.615  16.726   1.438
74983W        W46599  35.595  15.232   1.263
74984W        W46600  12.819  16.130  12.708
74985W        W46601   4.350  37.090   2.701
74986W        W46602   5.397   1.978  13.074
74987W        W46603  41.503   8.269   4.537
74988W        W46604   9.319  14.671  14.256
74989W        W46605  37.783  31.597   4.616
74990W        W46606  40.974  23.230   0.331
74991W        W46607  22.908  10.932  12.517
74992W        W46608   3.183   6.980  12.403
74993W        W46609  30.910  25.503   3.608
74994W        W46610  11.657  20.017   2.439
74995W        W46611  19.988  38.381   4.596
74996W        W46612   6.082   7.421  11.743
74997W        W46613  11.334  31.561   4.632
74998W        W46614  15.243   1.184  12.036
74999W        W46615   5.759  36.008  14.143
75000W        W46616  16.675   9.593   1.896
75001W        W46617  40.503  29.423   4.243
75002W        W46618  33.443  39.519   3.194
75003W        W46619   8.910  37.793  11.477
75004W        W46620  18.531  28.581  14.223
75005W        W46621  27.715  17.282  11.479
75006W        W46622  33.855  18.574   2.855
75007W        W46623  30.982  37.925   0.413
75008W        W46624  29.206  35.986   4.121
75009W        W46625  42.792  37.348  14.844
75010W        W46626  36.113   3.451   3.065
75011W        W46627  39.934   3.213   0.859
75012W        W46628  42.668  26.658  12.624
75013W        W46629  34.163  35.845   1.295
75014W        W46630  24.453  37.276   0.370
75015W        W46631   4.175   2.400  13.991
75016W        W46632  20.782  35.934   1.617
75017W        W46633   2.232   9.301  13.455
75018W        W46634  41.441  14.350   4.124
75019W        W46635  18.314  17.192  13.302
75020W        W46636  37.411   8.423  13.023
75021W        W46637  20.942   3.857  12.149
75022W        W46638   2.823  28.210  12.983
75023W        W46639  43.081  11.707   1.152
75024W        W46640  42.785   5.242   4.279
75025W        W46641  27.886   1.157   3.691
75026W        W46642  15.957  37.813  11.038
75027W        W46643   0.474  35.320   0.821
75028W        W46644  12.846  21.160  12.393
75029W        W46645  31.138  21.582  14.879
75030W        W46646  38.740  32.566  11.168
75031W        W46647  14.292  16.084   4.098
75032W        W46648  38.808  35.659  12.473
75033W        W46649  30.203  42.033   3.735
75034W        W46650  24.866   9.288   3.160
75035W        W46651  22.490   8.652   4.056
75036W        W46652  40.911  20.299   3.327
75037W        W46653  26.013  14.075  10.794
75038W        W46654  42.370   1.767   4.331
75039W        W46655  17.725  22.630   0.366
75040W        W46656  11.639  15.870  11.430
75041W        W46657  32.636   9.684   3.636
75042W        W46658  13.166  20.000   3.796
75043W        W46659  23.341  39.833  11.588
75044W        W46660  16.317  23.065   3.861
75045W        W46661  12.815  34.379  12.644
75046W        W46662   1.734  43.486   1.807
75047W        W46663  38.468  27.533  12.052
75048W        W46664  30.601  30.608   1.623
75049W        W46665  17.417  16.738  11.940
75050W        W46666  14.083   9.796   4.645
75051W        W46667  28.221  22.069  12.127
75052W        W46668  25.555  29.523   1.930
75053W        W46669  14.944  11.977   2.828
75054W        W46670   7.459  20.200   4.222
75055W        W46671  24.492  36.434   0.757
75056W        W46672  21.584   9.639  13.554
75057W        W46673  33.832  19.648   0.375
75058W        W46674  14.815  16.500   1.424
75059W        W46675  23.168  27.603  14.062
75060W        W46676  25.965  38.147  12.350
75061W        W46677  16.512  41.076   3.584
75062W        W46678  24.043  19.399  10.828
75063W        W46679  43.722   5.724   4.896
75064W        W46680   2.328  28.401  12.842
75065W        W46681  19.640  33.298  11.575
75066W        W46682   3.333  17.615  10.526
75067W        W46683  26.710  18.305   2.381
75068W        W46684  27.564  34.118   3.609
75069W        W46685  35.460  28.986  11.788
75070W        W46686  14.243  22.302  12.427
75071W        W46687  18.556  42.851  13.877
75072W        W46688  12.121   7.254  11.099
75073W        W46689  42.129  38.790   5.005
75074W        W46690   9.803   7.639   1.346
75075W        W46691  25.446  20.121  11.686
75076W        W46692  40.262  34.053  12.009
75077W        W46693   4.123  31.510   2.354
75078W        W46694  34.960  23.520   3.773
75079W        W46695   9.365   1.125   4.218
75080W        W46696  26.016  27.702  13.977
75081W        W46697  17.806  22.272  14.578
75082W        W46698  31.959  28.506  12.799
75083W        W46699  37.460  17.845  12.533
75084W        W46700   6.928  33.745   3.253
75085W        W46701  19.269  17.913  12.686
75086W        W46702  38.481  16.916   4.139
75087W        W46703  25.240   6.807   3.379
75088W        W46704  15.234  34.627  14.428
75089W        W46705   6.926  41.450   1.046
75090W        W46706  42.779   5.038  12.825
75091W        W46707  25.660  43.280  11.465
75092W        W46708  35.293  16.320   4.900
75093W        W46709   7.921  37.910   4.095
75094W        W46710  11.313   4.208  13.404
75095W        W46711  19.282  30.373  14.363
75096W        W46712   6.277  29.199  11.533
75097W        W46713  40.250  10.856  14.794
75098W        W46714  33.509  37.141   1.729
75099W        W46715  25.243  16.809  13.510
75100W        W46716  16.464   7.945  14.472
75101W        W46717   9.573  13.409  12.059
75102W        W46718  20.177  42.963  12.722
75103W        W46719  14.337  38.419   4.147
75104W        W46720  26.896  16.775   5.038
75105W        W46721  37.588  22.099   1.749
75106W        W46722   0.460   0.255  12.840
75107W        W46723  14.770  13.360  14.231
75108W        W46724  43.773  15.869   0.961
75109W        W46725  32.138  10.247   0.347
75110W        W46726  44.474  14.195  13.407
75111W        W46727   7.648  44.488  12.049
75112W        W46728  11.071  43.990   3.275
75113W        W46729  29.896  28.236  14.067
75114W        W46730  10.862  43.024  12.411
75115W        W46731   2.180  16.670  14.484
75116W        W46732   9.861  38.416   3.402
75117W        W46733  17.610   3.779   4.654
75118W        W46734  15.413  12.245   2.865
75119W        W46735   7.166   7.116  10.651
75120W        W46736  16.549   9.728   0.082
75121W        W46737  12.393   0.374  13.561
75122W        W46738   1.941  42.610  11.081
75123W        W46739   0.413  13.266   1.346
75124W        W46740  22.521  10.081  13.505
75125W        W46741  24.202  19.271   4.778
75126W        W46742  33.219  18.707   1.662
75127W        W46743   2.596  25.288   2.767
75128W        W46744  30.860   1.437  12.920
75129W        W46745  26.906  29.564  12.477
75130W        W46746  39.434  37.105   0.992
75131W        W46747   8.230  32.103  13.065
75132W        W46748  38.508   7.237  14.781
75133W        W46749   9.993  18.061  10.320
75134W        W46750  28.560  39.659  13.434
75135W        W46751  44.126  12.243   4.464
75136W        W46752  24.611  31.715   4.935
75137W        W46753  41.502  31.258  13.923
75138W        W46754   2.373  42.526   3.360
75139W        W46755  11.220   5.885   4.931
75140W        W46756  20.666  30.113  10.644
75141W        W46757   4.641  32.731  14.339
75142W        W46758  22.212  30.170   2.282
75143W        W46759  17.147   3.957  14.589
75144W        W46760  19.573  43.839   4.212
75145W        W46761   8.847   3.843   2.604
75146W        W46762  18.158  33.070  11.599
75147W        W46763  19.452  13.719   0.420
75148W        W46764   8.654  19.155   1.314
75149W        W46765   7.219  40.525   3.154
75150W        W46766  24.845   9.631   4.356
75151W        W46767  19.027  11.843  11.584
75152W        W46768  13.575  44.117  12.162
75153W        W46769  29.621  17.023   2.675
75154W        W46770   2.323  42.503   4.197
75155W        W46771   1.761  12.809   4.441
75156W        W46772  20.942  27.857  14.302
75157W        W46773   5.243  13.852   0.275
75158W        W46774  34.555  11.626   1.823
75159W        W46775  14.988   1.911   4.870
75160W        W46776  16.308   6.777   2.110
75161W        W46777  31.134   3.270  11.394
75162W        W46778  40.456  42.564  14.531
75163W        W46779  32.486  13.222   0.343
75164W        W46780   3.027  14.822   4.890
75165W        W46781  17.036   7.448   0.260
75166W        W46782  13.777  35.700   3.433
75167W        W46783  21.067  32.436  12.877
75168W        W46784  21.981  10.158  14.400
75169W        W46785  27.156  26.347  13.010
75170W        W46786  22.468   0.840   1.725
75171W        W46787  19.789   5.131   4.508
75172W        W46788  34.853  29.679  12.955
75173W        W46789  20.141  42.664  10.998
75174W        W46790  32.931   5.147   3.627
75175W        W46791   6.090  20.502   4.164
75176W        W46792   4.471   2.270   0.958
75177W        W46793   0.593  35.697   5.530
75178W        W46794   6.505  12.630   3.677
75179W        W46795   3.205  31.157   0.152
75180W        W46796  12.672   9.857  11.611
75181W        W46797   3.900  20.517  13.432
75182W        W46798   3.790  20.203  10.620
75183W        W46799  24.539  10.377   0.454
75184W        W46800  15.092   9.861   4.520
75185W        W46801  32.520  16.896  12.493
75186W        W46802   2.201  11.300  14.523
75187W        W46803  10.052  19.175  14.760
75188W        W46804  40.869  22.221  12.379
75189W        W46805  28.988   9.184  11.139
75190W        W46806  37.630   7.741   2.265
75191W        W46807  13.600  24.899   0.464
75192W        W46808  16.024   3.469  12.509
75193W        W46809   0.390  19.525  14.561
75194W        W46810   6.632  43.757   2.289
75195W        W46811  21.944  18.618  14.794
75196W        W46812  30.391   0.438   1.831
75197W        W46813   9.148  37.156  13.676
75198W        W46814  44.119  27.132  14.668
75199W        W46815  37.987   4.715   1.865
75200W        W46816  43.767  39.281   1.307
75201W        W46817  12.392  37.442   0.842
75202W        W46818  28.400  18.653   0.379
75203W        W46819   5.499  28.735  11.717
75204W        W46820  43.298  39.353   3.311
75205W        W46821  40.195  16.705  13.034
75206W        W46822  31.139  36.463   1.674
75207W        W46823  34.685  15.143  10.469
75208W        W46824  11.885   8.880  12.106
75209W        W46825  29.977   5.486   1.320
75210W        W46826  18.676  21.786   3.843
75211W        W46827  21.541  11.305   2.293
75212W        W46828  27.686  20.065  12.026
75213W        W46829  11.891  28.971  12.420
75214W        W46830  17.717  18.130   5.487
75215W        W46831  17.536   7.391  10.741
75216W        W46832  30.076  21.115  14.992
75217W        W46833  12.304   4.560  11.418
75218W        W46834   1.258   4.370  10.622
75219W        W46835  26.123  34.967  13.759
75220W        W46836  31.652   3.286   2.385
75221W        W46837  32.839   7.346   2.194
75222W        W46838  20.843  23.364  13.921
75223W        W46839  30.775   3.672  12.192
75224W        W46840   6.229  14.220   0.708
75225W        W46841   0.833  10.357  14.739
75226W        W46842  39.491  12.290   3.144
75227W        W46843   2.010   4.176   0.717
75228W        W46844  33.316   9.830  10.307
75229W        W46845   2.867  27.667  13.033
75230W        W46846   2.592  24.884   5.369
75231W        W46847  11.380  29.846   3.285
75232W        W46848  17.068  26.699   2.758
75233W        W46849  19.695  10.093  14.177
75234W        W46850  13.349   5.203   2.366
75235W        W46851  22.342   5.671   0.860
75236W        W46852  11.822  34.745   1.726
75237W        W46853  37.573  15.770   1.242
75238W        W46854  17.557  14.243  13.593
75239W        W46855  14.163   8.381  12.975
75240W        W46856  11.208  14.704   2.108
75241W        W46857   3.282  10.231   0.207
75242W        W46858  25.705  41.611   4.589
75243W        W46859  22.967  26.084   4.681
75244W        W46860   2.010  23.210   1.843
75245W        W46861  26.422  19.633   4.281
75246W        W46862  25.510  40.649   4.524
75247W        W46863  16.860  15.315   1.578
75248W        W46864  37.366  37.149   3.379
75249W        W46865   9.167  23.045  13.571
75250W        W46866   6.841  16.913   0.120
75251W        W46867  17.079  12.725   2.318
75252W        W46868   1.676  12.673  11.554
75253W        W46869   2.766   6.043  14.683
75254W        W46870  41.999   5.873   2.772
75255W        W46871  11.115  21.980   0.529
75256W        W46872   7.432   3.874   1.128
75257W        W46873   7.458   8.310   4.052
75258W        W46874   3.769  17.439  14.281
75259W        W46875  31.220  15.076  14.379
75260W        W46876   5.382  23.283  14.850
75261W        W46877  31.214  39.407   2.701
75262W        W46878  26.195  18.059  14.775
75263W        W46879  39.479  20.499  12.167
75264W        W46880  20.114  23.317   0.435
75265W        W46881  30.380  36.430  14.494
75266W        W46882   8.915  35.414   1.983
75267W        W46883  44.799  13.679  10.684
75268W        W46884  22.637   5.802  14.524
75269W        W46885  44.100  42.552  11.162
75270W        W46886  25.687  24.771  11.225
75271W        W46887  12.885  14.021   0.304
75272W        W46888  15.789  10.587   0.448
75273W        W46889  38.521   6.445   0.473
75274W        W46890  16.893  23.968   0.364
75275W        W46891   1.480  43.542   5.133
75276W        W46892   0.325   9.749  10.630
75277W        W46893  32.394  44.085  13.461
75278W        W46894  31.645  13.759   1.299
75279W        W46895  26.295  12.775  11.187
75280W        W46896  41.059   5.847  12.820
75281W        W46897  39.410  11.420   0.503
75282W        W46898   9.442  19.121   0.798
75283W        W46899  35.489  28.192   1.807
75284W        W46900  30.590   0.695   3.199
75285W        W46901  26.298  34.473   5.080
75286W        W46902   1.450  42.431  12.548
75287W        W46903  12.308  34.937   3.750
75288W        W46904  32.923  28.007   1.390
75289W        W46905  40.052  43.266   1.283
75290W        W46906   9.479  16.398  13.368
75291W        W46907  32.034   9.612  13.094
75292W        W46908  17.629  15.545  13.132
75293W        W46909  21.403  23.580   1.721
75294W        W46910   3.902  15.074  11.983
75295W        W46911   1.903  32.906  13.507
75296W        W46912  28.543  21.308   0.467
75297W        W46913   2.874  44.322   4.983
75298W        W46914  23.145  21.462  12.920
75299W        W46915  38.098   4.000   2.157
75300W        W46916  40.402  39.549  14.344
75301W        W46917  11.317  33.401  10.342
75302W        W46918   2.959   9.214  12.916
75303W        W46919  23.916  29.953  11.923
75304W        W46920  28.996  22.005   3.510
75305W        W46921  21.603  44.005  11.184
75306W        W46922  31.578  34.089  12.685
75307W        W46923  39.848  31.914  12.154
75308W        W46924  35.342   3.867  13.499
75309W        W46925  27.757  31.714   4.599
75310W        W46926  25.332  40.355   1.251
75311W        W46927   6.820  37.877  10.729
75312W        W46928  36.299   9.233  12.764
75313W        W46929   2.004  19.752  11.504
75314W        W46930  19.798  13.937  11.516
75315W        W46931  20.358  12.946   4.953
75316W        W46932  18.602  31.398  12.547
75317W        W46933  23.435  23.067   3.590
75318W        W46934  31.427  10.721   0.491
75319W        W46935  29.987  19.512   4.124
75320W        W46936  11.643  25.225   3.170
75321W        W46937  12.699  23.610   1.377
75322W        W46938   5.812  10.670   3.219
75323W        W46939  40.164  41.439   1.252
75324W        W46940  28.565  14.033   5.030
75325W        W46941  40.870   0.505  14.279
75326W        W46942   3.400   1.681  13.996
75327W        W46943   2.546  17.698  13.127
75328W        W46944   5.788  25.723   0.026
75329W        W46945  43.769  16.645  13.882
75330W        W46946  30.658  42.993   3.655
75331W        W46947  32.723  25.060  11.284
75332W        W46948  21.752  20.318  13.566
75333W        W46949  19.244  28.097   1.315
75334W        W46950  44.105  21.226   0.429
75335W        W46951  31.910   9.501  12.547
75336W        W46952  44.837   9.105  14.351
75337W        W46953   2.372  42.336  12.415
75338W        W46954  17.362  38.882  10.821
75339W        W46955   9.149   7.626   1.671
75340W        W46956  41.521  17.127   3.185
75341W        W46957   0.424  32.591  12.936
75342W        W46958  11.902   3.210  13.531
75343W        W46959   2.329  26.501  14.542
75344W        W46960   4.897   8.940  12.636
75345W        W46961   6.844  34.261   3.886
75346W        W46962  42.543  17.714   2.712
75347W        W46963  31.568  34.688   1.565
75348W        W46964  19.168  28.628   4.731
75349W        W46965  23.762  40.058  11.378
75350W        W46966  24.971  27.566   3.787
75351W        W46967  32.581  44.908  12.973
75352W        W46968  22.732   0.396  11.613
75353W        W46969   2.822  32.480   3.079
75354W        W46970  17.614  34.169  13.385
75355W        W46971  35.418   0.221   4.705
75356W        W46972  24.036  14.358  11.951
75357W        W46973  10.132  20.075  14.289
75358W        W46974  38.536  18.842  13.892
75359W        W46975  29.500  30.080  12.860
75360W        W46976  24.765  28.547  13.899
75361W        W46977  24.694  30.561   2.799
75362W        W46978  43.279  44.583   3.256
75363W        W46979  15.480  38.773   1.901
75364W        W46980  42.498  11.234  13.140
75365W        W46981   7.976  23.629   4.128
75366W        W46982  35.962  39.689   1.463
75367W        W46983  31.062  12.329  14.062
75368W        W46984  36.448   4.024  13.357
75369W        W46985  28.598  20.468   1.727
75370W        W46986  35.608  15.248   1.833
75371W        W46987  11.715  20.016  14.566
75372W        W46988  25.509  31.445  12.830
75373W        W46989  24.063  24.820  14.933
75374W        W46990  22.001  18.933   4.601
75375W        W46991  44.986  44.296   3.193
75376W        W46992  20.148  32.768  10.450
75377W        W46993  10.870  23.738  14.023
75378W        W46994   9.106  26.535  14.991
75379W        W46995  39.971  23.751   2.803
75380W        W46996   4.968  38.301  11.579
75381W        W46997  14.597   7.093  12.024
75382W        W46998   5.271  27.471   3.304
75383W        W46999   9.433   6.230  12.612
75384W        W47000  37.555   9.793   4.220
75385W        W47001  18.664  33.567   3.348
75386W        W47002  42.312  42.728   1.906
75387W        W47003  38.715  43.209   3.347
75388W        W47004  32.540  14.280   0.393
75389W        W47005  31.135   8.755  10.309
75390W        W47006  33.465  25.079  12.133
75391W        W47007  18.663  44.892  11.081
75392W        W47008  25.493  43.555  11.048
75393W        W47009   1.261  21.646   3.230
75394W        W47010   5.371  34.160  10.836
75395W        W47011  12.252   5.819  13.718
75396W        W47012  22.777  18.249   1.498
75397W        W47013  35.099  36.465   0.354
75398W        W47014  34.502  13.641   4.346
75399W        W47015  32.395  24.014   0.354
75400W        W47016  44.272  42.811   4.414
75401W        W47017  38.511  38.524  13.927
75402W        W47018  34.087   3.905   3.248
75403W        W47019  19.696  21.962  10.544
75404W        W47020  25.182  10.870  13.504
75405W        W47021  10.424  36.636  11.169
75406W        W47022  44.997   2.235  13.877
75407W        W47023  23.262  15.244  11.946
75408W        W47024  35.151  31.165   3.172
75409W        W47025  11.458   7.918  12.893
75410W        W47026  14.647   1.735  14.500
75411W        W47027   1.962  25.757  10.959
75412W        W47028  16.648  25.737   4.678
75413W        W47029  12.572   6.782   1.657
75414W        W47030  25.949  23.467  13.311
75415W        W47031  11.593  44.692   2.093
75416W        W47032  40.245  19.158   4.668
75417W        W47033  20.608  42.480  11.623
75418W        W47034  32.305  34.061  10.776
75419W        W47035   8.847  15.293  11.702
75420W        W47036  21.022  13.082   4.310
75421W        W47037  29.192  38.976   0.425
75422W        W47038   5.856  19.161  10.773
75423W        W47039  37.330  44.496   3.852
75424W        W47040   7.136  42.451   0.703
75425W        W47041  28.648  11.055   3.587
75426W        W47042  31.967  11.792   2.905
75427W        W47043  37.595  31.452   0.248
75428W        W47044  42.723  14.621   4.765
75429W        W47045  37.812  11.283   3.163
75430W        W47046  10.451  39.349  14.826
75431W        W47047  41.204  33.554   0.055
75432W        W47048  19.588  36.367  11.373
75433W        W47049  16.623  28.903   4.566
75434W        W47050   6.904  40.869   2.927
75435W        W47051  22.035  36.730  12.454
75436W        W47052  42.376  29.379   0.394
75437W        W47053   0.035  25.719  14.670
75438W        W47054   8.845  15.039  12.146
75439W        W47055  32.124   4.648   4.187
75440W        W47056  39.374  20.903   2.314
75441W        W47057  35.189  41.543  10.324
75442W        W47058  12.406  25.112   3.682
75443W        W47059   2.705  11.211  14.581
75444W        W47060  15.478  37.720   1.743
75445W        W47061  33.568  11.649  13.577
75446W        W47062  36.865   0.039  14.326
75447W        W47063   6.442  31.114  12.877
75448W        W47064  36.889  34.536   5.122
75449W        W47065  20.647  24.734   3.403
75450W        W47066  40.842  25.076  11.080
75451W        W47067   2.494  26.279   0.015
75452W        W47068  30.560  37.111  12.515
75453W        W47069  31.966  27.998   4.107
75454W        W47070  17.759  31.262   0.360
75455W        W47071  38.284  14.559  11.479
75456W        W47072  12.606  37.593  11.190
75457W        W47073  17.274   6.145  14.958
75458W        W47074  15.024  13.577  10.588
75459W        W47075  38.974  18.776   3.657
75460W        W47076  22.837  19.679  12.986
75461W        W47077  29.449  41.957   2.289
75462W        W47078  19.744  36.834  12.883
75463W        W47079  37.404  13.650   3.111
75464W        W47080  34.223  41.431  14.600
75465W        W47081  10.676  40.867   3.885
75466W        W47082  18.082  37.055  11.593
75467W        W47083  12.400   4.193  10.613
75468W        W47084   1.666  30.213   4.369
75469W        W47085  39.315  33.890   4.574
75470W        W47086  37.478  34.374  10.693
75471W        W47087  43.545  39.937  11.711
75472W        W47088  31.067   5.820   0.263
75473W        W47089   3.158  13.443   5.341
75474W        W47090  27.063  13.220   4.295
75475W        W47091  26.489   0.413   2.703
75476W        W47092  42.758  23.075  14.445
75477W        W47093  11.091  31.847  14.894
75478W        W47094  15.543  10.909   2.451
75479W        W47095  12.084  35.107  14.097
75480W        W47096  18.985  14.095   4.137
75481W        W47097  21.535  12.814  14.016
75482W        W47098  10.936  35.904   0.126
75483W        W47099  29.928   8.167  12.030
75484W        W47100   0.539   7.098   4.653
75485W        W47101  27.699   9.919  11.374
75486W        W47102  21.556  29.423  14.467
75487W        W47103  13.439  10.241   4.916
75488W        W47104   4.489  13.771  14.797
75489W        W47105  44.929  22.007  11.508
75490W        W47106   8.997   3.924  14.074
75491W        W47107  33.954  39.542   4.338
75492W        W47108  28.016  26.677   2.311
75493W        W47109  33.028  17.511   3.172
75494W        W47110  37.604   5.899  12.380
75495W        W47111  31.072  25.434   0.335
75496W        W47112  20.804  21.411   4.929
75497W        W47113  44.329  25.062   2.786
75498W        W47114   0.137  21.950   5.469
75499W        W47115   1.210  24.893   4.883
75500W        W47116  19.546   1.950  14.478
75501W        W47117   2.306  19.727   0.992
75502W        W47118  34.928  12.283  14.215
75503W        W47119   1.348  30.186   0.307
75504W        W47120  30.162  39.528   3.283
75505W        W47121  16.562   5.958   4.214
75506W        W47122  30.710  32.988   3.177
75507W        W47123  41.307  15.931   4.097
75508W        W47124   7.175  30.649  14.879
75509W        W47125   0.495   9.111   2.243
75510W        W47126  36.909  33.863   0.293
75511W        W47127   2.861  41.794  11.466
75512W        W47128  10.685   6.763   4.689
75513W        W47129  35.076   0.278   0.975
75514W        W47130  10.103  41.931   2.651
75515W        W47131  28.969   5.617  12.047
75516W        W47132  41.679  13.078  12.991
75517W        W47133  34.383  13.742   3.430
75518W        W47134   0.731  29.287  14.476
75519W        W47135  34.095   9.345   0.433
75520W        W47136  40.212  25.156  14.328
75521W        W47137   8.487  30.447  12.717
75522W        W47138  42.496  15.728  13.935
75523W        W47139   2.314  42.103   1.847
75524W        W47140  35.438  29.983  13.854
75525W        W47141  30.086  41.785   1.993
75526W        W47142  28.980  44.310   3.438
75527W        W47143   6.315  25.225  13.917
75528W        W47144  22.544  33.507  10.231
75529W        W47145  25.046  27.222   0.781
75530W        W47146  33.576  17.696   4.267
75531W        W47147  28.522   2.914   2.923
75532W        W47148   1.953  37.642  12.124
75533W        W47149   1.652  16.699   4.664
75534W        W47150  36.100  10.123   4.219
75535W        W47151  42.314  31.002  12.528
75536W        W47152  22.068   1.874   0.330
75537W        W47153  26.657  16.730  12.072
75538W        W47154  23.553  37.890  11.178
75539W        W47155  29.401   9.833  10.750
75540W        W47156  12.083  23.325   3.190
75541W        W47157   6.392  40.037   1.358
75542W        W47158  41.877  37.905   1.021
75543W        W47159  27.687  23.083   1.832
75544W        W47160  44.025  16.316   2.732
75545W        W47161  15.645  28.128   4.108
75546W        W47162  26.623  20.077   3.664
75547W        W47163  11.891   9.582   0.791
75548W        W47164  23.228   2.969  14.847
75549W        W47165  15.037   0.200  12.001
75550W        W47166   4.194  22.041   1.951
75551W        W47167  28.150  32.584  11.720
75552W        W47168  24.128  15.245  13.886
75553W        W47169  42.056  20.051  12.503
75554W        W47170  19.144   5.817   1.736
75555W        W47171   7.453  28.249  13.088
75556W        W47172  26.902  34.962   1.085
75557W        W47173  38.146  36.013  12.414
75558W        W47174   8.296  31.353   3.199
75559W        W47175   0.379  13.783   4.585
75560W        W47176  28.959  19.739   2.746
75561W        W47177  23.763  18.582   0.358
75562W        W47178  12.171   0.040   0.424
75563W        W47179   9.266  41.322  14.793
75564W        W47180  14.756   1.909  12.093
75565W        W47181  33.618  10.419   1.191
75566W        W47182  11.424   7.647  13.362
75567W        W47183  41.610  41.455   4.227
75568W        W47184  18.753   5.743   3.994
75569W        W47185  26.047  31.549   0.016
75570W        W47186  38.522   7.947  10.716
75571W        W47187  41.360   7.664  14.405
75572W        W47188   4.284  38.549   0.786
75573W        W47189  22.804  23.584  14.269
75574W        W47190  23.941  21.606  14.869
75575W        W47191  33.047  25.774  13.307
75576W        W47192  17.238  41.944  12.187
75577W        W47193  40.597  39.880  11.706
75578W        W47194  26.474   4.577  11.566
75579W        W47195  26.072  27.899   4.319
75580W        W47196  32.453  42.258   2.243
75581W        W47197  12.194  29.378  12.922
75582W        W47198  12.076  12.154  13.717
75583W        W47199  17.835  17.666   5.707
75584W        W47200  35.998  38.440  14.284
75585W        W47201  39.389  28.629   2.241
75586W        W47202   5.755  34.090  13.826
75587W        W47203  29.019   4.336  13.191
75588W        W47204   1.902  15.478  13.833
75589W        W47205  34.228  33.206   2.146
75590W        W47206  40.783  11.720  10.452
75591W        W47207  20.873  43.038   3.649
75592W        W47208  22.506  40.259  13.893
75593W        W47209   3.094  38.491   3.244
75594W        W47210  12.936  38.368  13.005
75595W        W47211  35.151   9.636  12.238
75596W        W47212   2.972   5.677   4.712
75597W        W47213  25.748  42.875  13.036
75598W        W47214  43.717   1.550  11.575
75599W        W47215   1.174  29.887  11.645
75600W        W47216  20.544  41.814  11.185
75601W        W47217  40.344  16.267  14.060
75602W        W47218  35.618  20.558  14.975
75603W        W47219  31.309  23.288   0.305
75604W        W47220  37.784   5.740   4.528
75605W        W47221  23.497  16.050  14.825
75606W        W47222  21.047  29.082   3.074
75607W        W47223  31.114  16.666   0.087
75608W        W47224  13.767   3.371   2.295
75609W        W47225  37.834  18.754  12.074
75610W        W47226  32.542  35.603   2.945
75611W        W47227  36.463  39.266  13.971
75612W        W47228  11.104  32.913  11.674
75613W        W47229  38.524  42.979  10.678
75614W        W47230  14.182  40.019  13.466
75615W        W47231   0.233   8.752  10.729
75616W        W47232   3.802  20.102   4.198
75617W        W47233  36.931  26.075  11.747
75618W        W47234  27.876   6.024  11.887
75619W        W47235  11.364  16.324  13.758
75620W        W47236  13.593  13.278  14.893
75621W        W47237  38.165  26.494  11.961
75622W        W47238  44.150  21.007  11.167
75623W        W47239  17.147  15.809   9.950
75624W        W47240  14.653  16.991   1.460
75625W        W47241  38.385  17.680   4.884
75626W        W47242  23.743  10.617   1.921
75627W        W47243   7.860  18.743  12.604
75628W        W47244  35.907   8.287  14.524
75629W        W47245   8.638  38.722   1.930
75630W        W47246  27.846  36.915   1.929
75631W        W47247  11.768  15.736   1.257
75632W        W47248  25.512  14.577   1.841
75633W        W47249   9.112   0.683   4.135
75634W        W47250   1.324  24.987   0.751
75635W        W47251   4.450  22.168  14.064
75636W        W47252  24.874  35.097  11.933
75637W        W47253   3.717  31.149   0.329
75638W        W47254  31.963  17.305  11.979
75639W        W47255  40.695  24.109  10.778
75640W        W47256  44.505  34.045   1.653
75641W        W47257   9.386  37.428  14.220
75642W        W47258   7.291  34.905   1.189
75643W        W47259  44.883  40.958  14.943
75644W        W47260  39.153  23.938  11.904
75645W        W47261  42.578  26.775   0.982
75646W        W47262  30.633  13.263   4.278
75647W        W47263  31.756  14.896  11.192
75648W        W47264  11.261  10.736   0.312
75649W        W47265  34.977  15.612  12.032
75650W        W47266  20.069   7.220  11.455
75651W        W47267  24.014   4.448  14.282
75652W        W47268  37.099   9.144   2.313
75653W        W47269   9.279  17.803   4.554
75654W        W47270  21.474  33.968  11.605
75655W        W47271  11.088  27.716  11.401
75656W        W47272  20.932  37.157  13.486
75657W        W47273  34.418  36.939   0.891
75658W        W47274   7.213  36.605   3.371
75659W        W47275   6.376  26.252   1.084
75660W        W47276  33.296   2.236  13.457
75661W        W47277   3.503  37.994   2.185
75662W        W47278  34.930   3.307  11.931
75663W        W47279  22.761   2.666  11.207
75664W        W47280  18.152   8.449   1.308
75665W        W47281   3.709   2.283  10.982
75666W        W47282  33.826  20.624   1.698
75667W        W47283  44.716  13.117  13.564
75668W        W47284   6.813  24.574  10.723
75669W        W47285  25.464  28.975  14.391
75670W        W47286  35.770  17.698  11.582
75671W        W47287  11.291  17.082  12.762
75672W        W47288  38.374  31.914   1.797
75673W        W47289  30.123  16.735  12.633
75674W        W47290  13.207  33.678  14.470
75675W        W47291  17.815  28.184   0.270
75676W        W47292  30.907  25.966  11.025
75677W        W47293  18.541  38.014   2.327
75678W        W47294  36.330  15.829   1.720
75679W        W47295  15.607  19.185  10.646
75680W        W47296   8.453  27.999  10.500
75681W        W47297   0.048  11.785  12.654
75682W        W47298   4.754  26.917  10.191
75683W        W47299  18.350  18.071  14.468
75684W        W47300  44.980   6.163  12.213
75685W        W47301  13.293  25.186   4.169
75686W        W47302  36.518  23.239   4.314
75687W        W47303  14.752  37.097  10.716
75688W        W47304  26.061  13.160   2.672
75689W        W47305  42.935  24.975   4.880
75690W        W47306  41.976  14.153   0.730
75691W        W47307   8.891  15.065   3.907
75692W        W47308  26.349   0.777  14.772
75693W        W47309   6.451  35.048   0.935
75694W        W47310  38.096  32.914  11.533
75695W        W47311  42.824  28.533   1.231
75696W        W47312  22.185  15.315  13.519
75697W        W47313  32.346  17.187   0.477
75698W        W47314   6.603  28.345   0.239
75699W        W47315  44.768  26.605   2.835
75700W        W47316  41.546   1.455   4.702
75701W        W47317  10.291  20.214  12.403
75702W        W47318  13.589   7.654   2.429
75703W        W47319  13.035  33.909  14.909
75704W        W47320  32.099  35.856  11.120
75705W        W47321  15.819   2.650  12.083
75706W        W47322  42.879  36.927   3.620
75707W        W47323   4.849  20.694   1.368
75708W        W47324  19.174  16.307  10.817
75709W        W47325  22.570  15.684   0.559
75710W        W47326  31.027  26.053   1.890
75711W        W47327  32.448  13.398   1.242
75712W        W47328  40.970  26.936   1.884
75713W        W47329  30.097  31.181  12.683
75714W        W47330  10.883  24.091   1.624
75715W        W47331  28.099  25.156   2.087
75716W        W47332  18.052   0.628   1.742
75717W        W47333  21.622   7.426   0.346
75718W        W47334   4.439  31.903   3.803
75719W        W47335  17.937  36.322  11.966
75720W        W47336  32.618  31.848  14.905
75721W        W47337  44.319   9.859   1.399
75722W        W47338  19.880  31.165  12.096
75723W        W47339  10.186  20.117   0.763
75724W        W47340  38.997   2.767  11.558
75725W        W47341  15.433  19.716   1.682
75726W        W47342  38.782  11.554   5.085
75727W        W47343  13.178  20.613   0.055
75728W        W47344  37.380  17.521  12.915
75729W        W47345   2.131  42.010   4.231
75730W        W47346  28.019  30.156  13.324
75731W        W47347   5.367  24.403  11.014
75732W        W47348  27.634  24.629   2.628
75733W        W47349   8.236  28.939   3.147
75734W        W47350  34.964  20.558  13.417
75735W        W47351   0.863  23.258  12.815
75736W        W47352  21.998  21.118  14.348
75737W        W47353  21.979   8.858   3.163
75738W        W47354  35.161   5.525  10.809
75739W        W47355  10.873   4.294   1.369
75740W        W47356   5.604   4.057  12.314
75741W        W47357  30.663  43.995   2.689
75742W        W47358  16.130  32.884  10.442
75743W        W47359   5.609  30.981  11.098
75744W        W47360  10.618  10.663  12.713
75745W        W47361  38.502  33.585  13.910
75746W        W47362  22.682  15.521  10.604
75747W        W47363  32.647  19.309  12.612
75748W        W47364   8.231  32.397  11.660
75749W        W47365  14.275  29.701   2.692
75750W        W47366  21.147  15.710  13.796
75751W        W47367   0.219  40.417  11.874
75752W        W47368   7.222  22.501  11.577
75753W        W47369  19.783   5.708   2.400
75754W        W47370  31.791  12.188   1.450
75755W        W47371  37.088  29.106  12.523
75756W        W47372  10.884   2.265   0.341
75757W        W47373  30.479  16.067   1.776
75758W        W47374  33.404  15.732   5.058
75759W        W47375  15.731  30.411  14.875
75760W        W47376   4.109  35.079  13.831
75761W        W47377  29.202  41.275   3.802
75762W        W47378  19.839  37.816   1.271
75763W        W47379  40.987  27.126  11.846
75764W        W47380   5.978  10.797  11.971
75765W        W47381  20.429  16.697  14.455
75766W        W47382  44.972  27.844  11.298
75767W        W47383  15.161  38.742  11.189
75768W        W47384  15.519   4.084   9.866
75769W        W47385  37.842  43.473   4.214
75770W        W47386   7.699   3.453   2.760
75771W        W47387  38.505  36.998  12.361
75772W        W47388  22.645  31.876   4.716
75773W        W47389   9.764  28.763  14.692
75774W        W47390  38.587   3.769  13.792
75775W        W47391   4.707  38.273   0.744
75776W        W47392   8.612  24.300   2.778
75777W        W47393   7.424  20.676  10.793
75778W        W47394  11.838  29.984   4.278
75779W        W47395   9.294   4.936  13.889
75780W        W47396  24.154  34.650   3.780
75781W        W47397  28.625   0.379  14.600
75782W        W47398  27.945   6.255  11.259
75783W        W47399  13.743  20.317  14.529
75784W        W47400  30.941  10.905   1.273
75785W        W47401  15.879  23.511  14.664
75786W        W47402  21.533  21.121   3.207
75787W        W47403  19.965  39.935   3.227
75788W        W47404  20.479  15.338  10.122
75789W        W47405  26.847  38.050  13.467
75790W        W47406  13.134  44.838   2.260
75791W        W47407  14.833  38.003   1.049
75792W        W47408  20.762  33.010   3.211
75793W        W47409  14.612   7.916   3.199
75794W        W47410  31.902   8.238  11.159
75795W        W47411  37.547  11.645  12.032
75796W        W47412  22.964  27.532  14.543
75797W        W47413   4.881  32.108   2.344
75798W        W47414  20.250  26.231  12.045
75799W        W47415   4.195  34.554  13.886
75800W        W47416  39.541  31.225   2.301
75801W        W47417  39.044   4.451   2.196
75802W        W47418  23.506  29.036  14.283
75803W        W47419  13.754   1.540  14.472
75804W        W47420  19.549  37.763  12.920
75805W        W47421  23.091  10.817   3.901
75806W        W47422   6.952  39.826  12.937
75807W        W47423   2.710   2.048   2.167
75808W        W47424  25.106  30.496   1.964
75809W        W47425   6.938  25.023  14.089
75810W        W47426  44.345  39.824   4.684
75811W        W47427  35.452  10.830  12.241
75812W        W47428  27.485  27.222  13.581
75813W        W47429  36.730  11.742   5.165
75814W        W47430   6.264  12.656   0.457
75815W        W47431  30.644  24.687   2.735
75816W        W47432  44.978  10.110  13.516
75817W        W47433  42.429  26.690  14.442
75818W        W47434  34.893   7.292  14.443
75819W        W47435  13.805  44.329  13.961
75820W        W47436   1.964   6.403  11.215
75821W        W47437  38.707  12.355   2.811
75822W        W47438  40.818   8.955  13.564
75823W        W47439   2.668   8.210   1.424
75824W        W47440  39.576  44.503   4.244
75825W        W47441  33.439   0.969   1.195
75826W        W47442   4.802  27.427  13.485
75827W        W47443  38.072  34.608  13.352
75828W        W47444   4.731  26.259   0.738
75829W        W47445  37.981  15.515  14.568
75830W        W47446  23.054  26.246   1.495
75831W        W47447  28.777  23.566  12.036
75832W        W47448  44.686  42.484  12.891
75833W        W47449  23.118   2.489  14.037
75834W        W47450   0.894  38.981   3.351
75835W        W47451   8.190  25.989   4.953
75836W        W47452   1.445  43.873   1.599
75837W        W47453  27.897  10.330   3.549
75838W        W47454  28.585  19.919   0.843
75839W        W47455  17.182  31.938  14.036
75840W        W47456  38.878  39.760   4.481
75841W        W47457  15.011  41.504   4.204
75842W        W47458  19.308  33.612  14.098
75843W        W47459  16.741  20.378   0.969
75844W        W47460   5.332  30.863  11.522
75845W        W47461  35.639   8.229  11.495
75846W        W47462  13.790  19.298   0.788
75847W        W47463   3.975  21.749   0.492
75848W        W47464   3.971   5.894   0.308
75849W        W47465   0.826  42.051   2.691
75850W        W47466  38.631  20.305  12.488
75851W        W47467   4.530  33.993  11.105
75852W        W47468   4.790  40.972   3.395
75853W        W47469  42.367  38.451  14.344
75854W        W47470  22.513   3.817   0.113
75855W        W47471   0.260  17.327  14.452
75856W        W47472   2.306  33.117  12.345
75857W        W47473   9.263   4.986   0.894
75858W        W47474  42.764   6.657   4.364
75859W        W47475   8.254   7.809   0.257
75860W        W47476  25.517  39.559   3.784
75861W        W47477  23.278  31.048   0.743
75862W        W47478  18.625  14.861  13.598
75863W        W47479  25.304   9.825  14.403
75864W        W47480  39.818  41.373   2.423
75865W        W47481   5.546  39.943   2.819
75866W        W47482  41.929  38.106   5.554
75867W        W47483  14.743  26.768  14.258
75868W        W47484  41.859  26.874   0.416
75869W        W47485   5.678  10.216   1.510
75870W        W47486  14.769  43.911   3.725
75871W        W47487  12.556  27.937  11.087
75872W        W47488  27.703  24.046  12.628
75873W        W47489  21.341  44.819  12.545
75874W        W47490   8.716   1.878  11.644
75875W        W47491  26.491  18.522   4.704
75876W        W47492  43.443  13.340  12.101
75877W        W47493  22.071   7.701  12.604
75878W        W47494   5.710   2.877  14.519
75879W        W47495  37.313  40.841  14.939
75880W        W47496   2.827  17.725   0.850
75881W        W47497  27.464   9.356  14.084
75882W        W47498  42.743  23.197   1.821
75883W        W47499  39.426  27.251  13.587
75884W        W47500  39.569  43.417   2.268
75885W        W47501  37.357  34.423  14.903
75886W        W47502   4.206   1.159   3.345
75887W        W47503  14.119  16.350  10.730
75888W        W47504  18.843   7.397  14.765
75889W        W47505  22.272   6.969  13.067
75890W        W47506  35.063  35.937   4.145
75891W        W47507  21.672   8.742  12.427
75892W        W47508  17.043  23.234   2.791
75893W        W47509  22.731  26.717   3.675
75894W        W47510  23.526  17.634  13.538
75895W        W47511   1.757  43.990  13.294
75896W        W47512   9.122  34.117  10.788
75897W        W47513   1.934  40.528  14.719
75898W        W47514  31.514  20.591  13.003
75899W        W47515  21.827  11.646  11.079
75900W        W47516  26.805  38.822  14.919
75901W        W47517  16.694  18.623   5.066
75902W        W47518   1.982  40.025  14.832
75903W        W47519  44.886  14.691  13.758
75904W        W47520   5.965   7.345   0.059
75905W        W47521   4.415  41.981  12.775
75906W        W47522  44.698  19.990  13.492
75907W        W47523   0.809  33.758  11.183
75908W        W47524  38.446  31.870  11.046
75909W        W47525  44.278  11.829  13.095
75910W        W47526   9.968  22.467  12.524
75911W        W47527  14.000  26.562   4.552
75912W        W47528  34.120  19.218   3.696
75913W        W47529   8.300  12.333   3.481
75914W        W47530   8.308  24.443  12.458
75915W        W47531  26.022  24.678   1.267
75916W        W47532   2.247  38.310  13.997
75917W        W47533   7.836  31.719   1.911
75918W        W47534  34.161  21.040  12.524
75919W        W47535  34.040  43.706   3.653
75920W        W47536   6.358   5.006   1.510
75921W        W47537  23.073   0.084   4.756
75922W        W47538  25.740  43.113   0.906
75923W        W47539   9.315   3.297  10.376
75924W        W47540  33.065  29.153  14.289
75925W        W47541  24.791  32.926  14.385
75926W        W47542  23.407   9.405   3.336
75927W        W47543  30.406   5.441  13.335
75928W        W47544  27.877  43.794   1.819
75929W        W47545  15.129  15.068  13.960
75930W        W47546  44.751   8.879   2.338
75931W        W47547  29.125  39.432   3.338
75932W        W47548  30.671  42.704   1.429
75933W        W47549  37.455  28.102   4.153
75934W        W47550  28.685  17.607  12.566
75935W        W47551   8.439  34.499  11.968
75936W        W47552  20.982  18.453  14.048
75937W        W47553   3.348   6.579  12.104
75938W        W47554  19.161  41.040   0.773
75939W        W47555   8.447  25.931  12.570
75940W        W47556  22.110  42.670  13.306
75941W        W47557  22.004  42.680   1.773
75942W        W47558   8.618  22.494   3.227
75943W        W47559  25.097  33.965  13.554
75944W        W47560  44.920   1.746   3.273
75945W        W47561  42.084   8.217  13.288
75946W        W47562  43.232  18.473  12.408
75947W        W47563   8.763  44.084   4.654
75948W        W47564  33.444  42.784  13.044
75949W        W47565  38.338  30.441  11.454
75950W        W47566  42.552  39.874   0.861
75951W        W47567   2.795  17.203   2.714
75952W        W47568  44.968  43.080  14.251
75953W        W47569  12.325  21.015  11.088
75954W        W47570  33.027  39.544  14.007
75955W        W47571  13.397  24.430   3.213
75956W        W47572  15.298   4.907   3.659
75957W        W47573  40.487  18.090   4.080
75958W        W47574  13.771  27.940  11.529
75959W        W47575  16.551   8.354   4.395
75960W        W47576  21.655  14.089  14.874
75961W        W47577  39.974   9.785   3.138
75962W        W47578  38.528  17.133   1.715
75963W        W47579  15.517  39.340  12.876
75964W        W47580  18.207   7.475   4.822
75965W        W47581  25.085  21.733  12.510
75966W        W47582  37.302  39.056   0.367
75967W        W47583  40.046  44.242  14.268
75968W        W47584  41.440   6.867   1.757
75969W        W47585   7.277  12.911   4.116
75970W        W47586   0.062  26.897  14.918
75971W        W47587  37.376  30.803  13.488
75972W        W47588  16.046   6.342  11.151
75973W        W47589  11.646  10.899  13.459
75974W        W47590  16.080  40.024  11.478
75975W        W47591  40.237  18.733   1.371
75976W        W47592   3.438  25.683   4.195
75977W        W47593  23.008  22.242   2.585
75978W        W47594  13.771  17.259   9.812
75979W        W47595   5.923  25.703   3.420
75980W        W47596  41.963  15.260  14.702
75981W        W47597  19.613   4.905  13.461
75982W        W47598  44.147  13.401   0.934
75983W        W47599  31.021  30.130  11.715
75984W        W47600  41.045  36.103  12.970
75985W        W47601  30.507   5.318   4.571
75986W        W47602  36.844  42.888   4.857
75987W        W47603  37.409  24.549   0.472
75988W        W47604  43.890   9.581   1.327
75989W        W47605  15.283  44.887  14.991
75990W        W47606  23.798  13.414   0.437
75991W        W47607   0.229  44.006   3.592
75992W        W47608   0.917  31.903  11.246
75993W        W47609  41.755   2.129  11.224
75994W        W47610   5.414  34.621   2.919
75995W        W47611   4.527   3.361  14.874
75996W        W47612  43.810   8.867  12.502
75997W        W47613  36.808   7.298   4.740
75998W        W47614  22.667   8.952  14.216
75999W        W47615  21.154  16.195  11.453
76000W        W47616   8.936   5.466   1.285
76001W        W47617  41.744   4.694  11.234
76002W        W47618  22.726  15.368   0.923
76003W        W47619  32.385  39.110   1.346
76004W        W47620  10.358  18.990   2.041
76005W        W47621  27.354  17.670   0.302
76006W        W47622   8.206   1.543  13.987
76007W        W47623   2.760  29.218  13.024
76008W        W47624  15.040   2.053  11.083
76009W        W47625  24.782  41.154   1.790
76010W        W47626  12.871  13.265  14.303
76011W        W47627   1.221   5.462  12.929
76012W        W47628  13.650  17.758  12.953
76013W        W47629  39.328  38.345  12.791
76014W        W47630  22.811  16.595   2.694
76015W        W47631  26.393  37.405  13.025
76016W        W47632  42.881  41.610   3.642
76017W        W47633  26.958  39.925   2.417
76018W        W47634   5.246  28.226  13.522
76019W        W47635  31.638  30.000  13.132
76020W        W47636   1.728  11.146  12.054
76021W        W47637  14.794  18.578  12.132
76022W        W47638  32.878  16.822  12.005
76023W        W47639  32.523  19.102   4.187
76024W        W47640  44.602  43.466   3.757
76025W        W47641   4.808  23.423   2.194
76026W        W47642  25.233  30.532  13.356
76027W        W47643  43.273  30.851   0.736
76028W        W47644   6.621  31.110  11.171
76029W        W47645   4.220  26.650   0.414
76030W        W47646  10.069  29.446   0.348
76031W        W47647  32.855   0.164  12.614
76032W        W47648  12.921   6.192  11.871
76033W        W47649  32.697  16.218   2.049
76034W        W47650  21.543  21.042   2.301
76035W        W47651   5.808  15.043  11.542
76036W        W47652  19.384  16.769   2.714
76037W        W47653  16.791  12.160  14.889
76038W        W47654  33.426  34.506  11.738
76039W        W47655  41.237  40.387   1.376
76040W        W47656   0.682  21.132   9.511
76041W        W47657  29.345  13.391  11.589
76042W        W47658  25.193  39.457   1.370
76043W        W47659  10.057  25.571   3.668
76044W        W47660   6.144  34.084   4.917
76045W        W47661  20.226   9.889   3.709
76046W        W47662   7.865  36.431   4.167
76047W        W47663   2.778  24.021  13.397
76048W        W47664   3.242  23.067  14.349
76049W        W47665  14.345  17.569  13.391
76050W        W47666  39.927   0.959  12.140
76051W        W47667   5.385  23.327   0.740
76052W        W47668  24.755  16.313  12.516
76053W        W47669  13.000  14.567   0.390
76054W        W47670  29.535  15.135  11.181
76055W        W47671  31.598  23.541   4.601
76056W        W47672  18.365  44.468   4.111
76057W        W47673  15.460   4.772  12.481
76058W        W47674  13.283   7.281  14.275
76059W        W47675  10.144   1.740  14.913
76060W        W47676  43.327  30.585   2.174
76061W        W47677   2.425   2.989  13.514
76062W        W47678   0.893   0.578   1.866
76063W        W47679  31.984   0.995   2.340
76064W        W47680  37.545  23.816  10.540
76065W        W47681  34.482  35.018   4.083
76066W        W47682  18.615  26.424  12.433
76067W        W47683   1.410  44.026   3.097
76068W        W47684   7.196  39.961   0.846
76069W        W47685   9.371  31.015  14.471
76070W        W47686  14.597   8.438  11.604
76071W        W47687   2.953  14.820   0.447
76072W        W47688   6.669   8.315   0.340
76073W        W47689  31.472  41.944  10.684
76074W        W47690   4.401  41.435   0.440
76075W        W47691  44.235  39.383  10.290
76076W        W47692   1.833  43.761   4.284
76077W        W47693  33.390  26.179  12.609
76078W        W47694  17.664  29.946   4.528
76079W        W47695  23.605   4.751   2.698
76080W        W47696   4.420  36.324   3.285
76081W        W47697  11.598  12.874  13.473
76082W        W47698  37.339  34.175  11.138
76083W        W47699  23.676  17.469  14.467
76084W        W47700  16.645  33.913  11.201
76085W        W47701  43.272   3.295   3.013
76086W        W47702  41.297  31.013  10.713
76087W        W47703  10.064  42.930  12.414
76088W        W47704  21.513  27.217   4.144
76089W        W47705  23.467  44.957  11.288
76090W        W47706  37.822  23.421   1.414
76091W        W47707  20.631   0.757   1.820
76092W        W47708  24.944   1.521  10.357
76093W        W47709  38.969   4.318   1.703
76094W        W47710   1.045   3.985   0.934
76095W        W47711  22.450  43.311   1.934
76096W        W47712   0.088  23.181  14.384
76097W        W47713  22.499   3.436   0.814
76098W        W47714  32.550  29.334   1.268
76099W        W47715  40.468   9.276  10.746
76100W        W47716  12.250  23.627   2.314
76101W        W47717   3.517  20.040   2.998
76102W        W47718  22.716  39.487   4.101
76103W        W47719  29.671  35.596   2.359
76104W        W47720   1.848   4.830  12.865
76105W        W47721   8.060  35.099  12.565
76106W        W47722  22.709  18.260  10.956
76107W        W47723  22.648  41.554   2.354
76108W        W47724   5.465  23.613  12.926
76109W        W47725   6.313  21.818  13.990
76110W        W47726   3.017  44.874  11.572
76111W        W47727  21.045  10.475   5.045
76112W        W47728  22.544  34.467  10.435
76113W        W47729   5.530   1.908  10.778
76114W        W47730  11.538   5.876   3.568
76115W        W47731  38.202  31.780  13.937
76116W        W47732   2.374  25.248   1.828
76117W        W47733  26.131  37.351   4.669
76118W        W47734  23.679  38.530   3.656
76119W        W47735  37.134  39.923   3.554
76120W        W47736   0.187  16.294  11.081
76121W        W47737   8.468  12.373  13.935
76122W        W47738  31.014  22.056   2.572
76123W        W47739  27.653  37.243  12.541
76124W        W47740  27.162  35.050  12.388
76125W        W47741   8.189  43.965  13.562
76126W        W47742  25.626  19.355   2.883
76127W        W47743  17.520  24.134  12.457
76128W        W47744   9.485  27.505   3.221
76129W        W47745   6.036  26.781  10.433
76130W        W47746  22.033  40.463   0.834
76131W        W47747   2.862  40.369  13.382
76132W        W47748  26.658  19.138  13.552
76133W        W47749   4.761   0.867  11.107
76134W        W47750   2.947  27.726  12.121
76135W        W47751  21.062  22.436   0.382
76136W        W47752  25.961  34.591  11.511
76137W        W47753  39.472  23.860   0.486
76138W        W47754  26.554   9.147   4.833
76139W        W47755  27.695  36.358   3.233
76140W        W47756  38.111   2.139  11.038
76141W        W47757  36.883   4.511  14.760
76142W        W47758  43.062  32.120   0.600
76143W        W47759  14.817   9.283  13.885
76144W        W47760  34.384  31.431   3.208
76145W        W47761  10.637   3.234   0.523
76146W        W47762  25.831  40.976  10.498
76147W        W47763  11.852  29.129   3.076
76148W        W47764  32.397  27.986  10.079
76149W        W47765  22.995  14.340   4.164
76150W        W47766  32.542  35.001   1.425
76151W        W47767  37.532  29.169  13.936
76152W        W47768  17.518  24.650  12.145
76153W        W47769  32.068  11.867  12.251
76154W        W47770  23.749  42.841  12.012
76155W        W47771  14.615   4.785   4.169
76156W        W47772  25.318   8.198  13.107
76157W        W47773   3.903  37.794   3.621
76158W        W47774  20.948  20.176   2.328
76159W        W47775  36.894  42.573  14.796
76160W        W47776  41.465  27.139  10.701
76161W        W47777  19.991  41.959  13.366
76162W        W47778  10.333  10.973   1.293
76163W        W47779  15.807  21.123  13.442
76164W        W47780  22.211  41.978  10.819
76165W        W47781  31.559  19.626  12.950
76166W        W47782  25.340  41.216   2.381
76167W        W47783  31.692  34.422  11.527
76168W        W47784   7.498  27.270  13.944
76169W        W47785  27.624  39.335  12.602
76170W        W47786  36.769  20.532  12.982
76171W        W47787  35.944  17.001  12.595
76172W        W47788  23.478  43.050  12.404
76173W        W47789  41.721  30.869  10.375
76174W        W47790  19.065  21.999   4.092
76175W        W47791   7.284  13.150  13.060
76176W        W47792  19.275  23.048   0.086
76177W        W47793  44.565   7.735  14.363
76178W        W47794  21.787   3.692   0.928
76179W        W47795  37.923  20.204   0.727
76180W        W47796  42.269  44.301   3.276
76181W        W47797  43.275  13.581  14.802
76182W        W47798  38.303  30.880  11.183
76183W        W47799   0.651  14.835   0.882
76184W        W47800   0.609  40.253  13.962
76185W        W47801  19.242  42.700   3.701
76186W        W47802  19.198  23.925   1.445
76187W        W47803  40.084  14.716   0.400
76188W        W47804  10.136  13.551   3.190
76189W        W47805   6.082  39.463  11.763
76190W        W47806   6.310   7.822   3.344
76191W        W47807  30.106   9.631  12.821
76192W        W47808  14.200   1.046  13.958
76193W        W47809  42.218   2.522   1.421
76194W        W47810  35.302  33.654   3.678
76195W        W47811   9.052  31.406  14.557
76196W        W47812  21.977   8.269  14.515
76197W        W47813  42.471   0.265  14.560
76198W        W47814  33.970   0.444  12.432
76199W        W47815  12.086  13.238  11.966
76200W        W47816   1.004   0.439  11.233
76201W        W47817  38.733  16.213  11.517
76202W        W47818   9.993  41.860  12.528
76203W        W47819  16.664  10.679  10.897
76204W        W47820  44.686  27.197   4.174
76205W        W47821   3.488  34.041   3.243
76206W        W47822  29.095  11.392  10.867
76207W        W47823  15.610  12.440  13.067
76208W        W47824  19.002  33.015   3.783
76209W        W47825  41.465  11.238   2.000
76210W        W47826  11.368  42.853  12.491
76211W        W47827  29.691   4.657   1.931
76212W        W47828  10.428  12.599  13.074
76213W        W47829  31.365  38.395  13.568
76214W        W47830  14.769  40.754   3.818
76215W        W47831  19.121  32.117  14.191
76216W        W47832  27.913  13.553  14.401
76217W        W47833  33.182  23.281  13.072
76218W        W47834   4.120  39.495   3.587
76219W        W47835  39.644  20.694   0.542
76220W        W47836  44.111  43.302   3.745
76221W        W47837  11.570  25.705  14.375
76222W        W47838  15.345   6.325  14.468
76223W        W47839   1.267  42.244  14.359
76224W        W47840  10.308  33.142   2.773
76225W        W47841  25.193   0.481   1.205
76226W        W47842  23.048  39.846  10.635
76227W        W47843  37.506  42.046  13.351
76228W        W47844  14.229  18.826  12.503
76229W        W47845  41.266  43.369   0.224
76230W        W47846   6.340  13.806  10.519
76231W        W47847   9.393  39.662  13.792
76232W        W47848  24.937  31.673   4.540
76233W        W47849   3.913   5.885  14.773
76234W        W47850   5.107  34.862   0.004
76235W        W47851   4.865  20.860   0.896
76236W        W47852  16.768   2.053   3.976
76237W        W47853  44.323  35.692  10.594
76238W        W47854   1.135   2.693   1.029
76239W        W47855  38.981  35.152   0.470
76240W        W47856   9.379  40.034   2.873
76241W        W47857  37.487  10.873  10.670
76242W        W47858  22.320  41.042  14.148
76243W        W47859  33.446  13.992   9.378
76244W        W47860  41.076  35.467  11.963
76245W        W47861  16.780  15.945  11.036
76246W        W47862   7.764  25.167   0.413
76247W        W47863  12.863  16.254  14.122
76248W        W47864  27.219  17.148  11.574
76249W        W47865  43.355  24.397  14.543
76250W        W47866  15.178  43.826   0.807
76251W        W47867  27.666  24.584   4.114
76252W        W47868  30.334   4.000   3.687
76253W        W47869   9.906  12.369   4.785
76254W        W47870   0.794   4.434  14.840
76255W        W47871  10.354  21.572  12.171
76256W        W47872   2.866  40.251  12.453
76257W        W47873  20.722   3.860   2.297
76258W        W47874  37.090  13.481   5.362
76259W        W47875  19.767   1.462  13.513
76260W        W47876  13.176  29.099  13.772
76261W        W47877  44.901  19.223   4.791
76262W        W47878  16.157  39.730  14.283
76263W        W47879   0.710  15.564  11.641
76264W        W47880   7.406   0.391  11.506
76265W        W47881  25.166  22.533   2.681
76266W        W47882  14.274  13.717   1.739
76267W        W47883   0.901  24.541  13.991
76268W        W47884   4.694  33.558  10.698
76269W        W47885  16.928  22.075   1.693
76270W        W47886   1.946  18.130  13.562
76271W        W47887  15.304  41.675  12.752
76272W        W47888  32.522  29.165  10.746
76273W        W47889  36.776   3.676  12.983
76274W        W47890  22.952  12.124   3.072
76275W        W47891  35.878  21.291   0.967
76276W        W47892  20.535  41.384   0.950
76277W        W47893   2.030  32.501  10.715
76278W        W47894   7.825  18.928  13.581
76279W        W47895  30.874  44.872   0.449
76280W        W47896  22.251   2.198   1.847
76281W        W47897  35.027  20.164   4.789
76282W        W47898   0.379   7.339   3.606
76283W        W47899  32.191  40.853  13.401
76284W        W47900   7.885   5.454   1.793
76285W        W47901  12.384   7.247   1.830
76286W        W47902  43.946  39.352  14.472
76287W        W47903  43.184  15.712  12.526
76288W        W47904  43.811  19.213   3.824
76289W        W47905  37.522   4.847   4.634
76290W        W47906  11.069  29.797  11.062
76291W        W47907  24.656  12.621   1.915
76292W        W47908  23.456   4.657   0.156
76293W        W47909  10.811  34.164  11.982
76294W        W47910  41.448   6.512   2.871
76295W        W47911   6.470  14.812  13.006
76296W        W47912  36.828  31.902   0.251
76297W        W47913  26.892  43.483  14.566
76298W        W47914  18.789  27.082   2.304
76299W        W47915  38.970  40.008   4.020
76300W        W47916   0.715   1.741  12.295
76301W        W47917  10.704  43.425   2.304
76302W        W47918  28.982  26.279  13.204
76303W        W47919  15.263   8.047  11.091
76304W        W47920   6.444  19.165  14.967
76305W        W47921  19.005  16.223  14.347
76306W        W47922  42.935   0.024  13.888
76307W        W47923  44.542  33.080   0.298
76308W        W47924  23.619  20.126  11.046
76309W        W47925  35.857  32.548  11.122
76310W        W47926   9.870  16.731  10.744
76311W        W47927   9.206  22.261   3.263
76312W        W47928  42.678  36.120  11.114
76313W        W47929  11.396  22.438   1.781
76314W        W47930  14.342  25.620   3.099
76315W        W47931  37.756  18.952  14.538
76316W        W47932   6.203  42.224   5.131
76317W        W47933  26.712  30.040  13.939
76318W        W47934   3.871  23.418  14.555
76319W        W47935  40.475   7.617  11.235
76320W        W47936  17.612   0.900   4.161
76321W        W47937  39.882  18.766  12.166
76322W        W47938  24.123   4.533  10.780
76323W        W47939  14.755   0.607  11.095
76324W        W47940  38.403  40.000   0.391
76325W        W47941   9.045  29.468   4.806
76326W        W47942  24.219  19.289   0.853
76327W        W47943  29.884  11.120  11.450
76328W        W47944  11.184  33.627  12.857
76329W        W47945   8.825  17.446   1.785
76330W        W47946  37.026  41.808   0.313
76331W        W47947   5.685   9.916  13.555
76332W        W47948  17.321  29.583   4.520
76333W        W47949  28.157   8.318   2.721
76334W        W47950  35.170  17.078  14.498
76335W        W47951  34.668   5.325  11.040
76336W        W47952  26.079  33.153  11.563
76337W        W47953  21.149  29.701   0.385
76338W        W47954   0.473  33.549   2.395
76339W        W47955  35.672  13.179   2.602
76340W        W47956  26.792   2.442   2.871
76341W        W47957  21.061  38.359  12.698
76342W        W47958  24.648  33.159  10.654
76343W        W47959  27.247   7.140   1.807
76344W        W47960   4.190  38.999  11.481
76345W        W47961  42.829   0.808   4.158
76346W        W47962  23.514  22.933  12.032
76347W        W47963  36.055  28.024  12.804
76348W        W47964  43.569  20.601  14.769
76349W        W47965   3.439  29.552   4.207
76350W        W47966  16.828  41.100  11.163
76351W        W47967  17.137  19.684  14.714
76352W        W47968  23.001  25.178   0.150
76353W        W47969  15.073  35.406  12.080
76354W        W47970  25.657  10.854  11.552
76355W        W47971  10.739   1.458  13.386
76356W        W47972  15.406  27.030  14.960
76357W        W47973   0.666   1.690   1.434
76358W        W47974  26.152   3.883  10.770
76359W        W47975   3.882   3.898  10.725
76360W        W47976  22.571  33.103  13.320
76361W        W47977  14.379  31.507   3.288
76362W        W47978  41.761   9.789  11.911
76363W        W47979  19.220  18.086  12.084
76364W        W47980   1.342   1.821   2.335
76365W        W47981   3.704   7.129   3.191
76366W        W47982  16.119   6.732   4.187
76367W        W47983  19.031  31.563   1.390
76368W        W47984  41.253   9.667   4.787
76369W        W47985  35.472  34.078   1.424
76370W        W47986  13.738  24.549   0.994
76371W        W47987  39.473  19.000  13.285
76372W        W47988  31.140  37.343  12.587
76373W        W47989  22.575  44.941  14.670
76374W        W47990  37.992  24.505  10.645
76375W        W47991  11.122  12.097   3.142
76376W        W47992  27.065  30.242   3.848
76377W        W47993   3.694  11.784   4.783
76378W        W47994  36.626  30.289  11.645
76379W        W47995  32.771  32.647  13.638
76380W        W47996  32.517   6.027   1.902
76381W        W47997  41.072  29.455   1.752
76382W        W47998  35.607  19.141   2.582
76383W        W47999  43.466   3.507  12.115
76384W        W48000  15.862  24.858  11.565
76385W        W48001  24.743  11.763  11.258
76386W        W48002  44.748  41.781  14.355
76387W        W48003  15.593  44.494  10.538
76388W        W48004  38.590  37.285  13.381
76389W        W48005  39.782  31.772   0.286
76390W        W48006  20.256  34.445  14.757
76391W        W48007  39.902  30.266   1.332
76392W        W48008  11.701  32.641   1.737
76393W        W48009  12.219  17.770   2.837
76394W        W48010  34.451  10.813   2.381
76395W        W48011   5.219   9.633   3.333
76396W        W48012  34.336  42.882   4.044
76397W        W48013   2.329  13.064   2.661
76398W        W48014   1.404  23.087   3.763
76399W        W48015  42.060   1.014   3.499
76400W        W48016  29.722  36.958  14.365
76401W        W48017  10.601  14.868   0.364
76402W        W48018  42.879  12.473  13.341
76403W        W48019  44.452  18.038   1.038
76404W        W48020  44.479  18.496  13.437
76405W        W48021  33.202  13.116   2.905
76406W        W48022  37.430  38.799   1.182
76407W        W48023   1.450  35.328  13.915
76408W        W48024  19.466  20.078   0.703
76409W        W48025   0.953  25.257   2.408
76410W        W48026   2.824  35.579  11.075
76411W        W48027  37.120   3.027  11.931
76412W        W48028  27.483  21.532  13.732
76413W        W48029  43.357   8.710   1.013
76414W        W48030  10.360  12.922   0.767
76415W        W48031  42.404  43.964  11.641
76416W        W48032  34.226  44.890  14.938
76417W        W48033  32.978  19.450   0.900
76418W        W48034  39.818  10.371  13.052
76419W        W48035  25.147  11.683  12.563
76420W        W48036   6.880   3.261  11.205
76421W        W48037  12.334   7.929  11.180
76422W        W48038  41.632  29.594  11.100
76423W        W48039  25.308  22.291  11.023
76424W        W48040  17.638  26.917  11.133
76425W        W48041  36.429   7.004   4.514
76426W        W48042  34.410  15.193  10.916
76427W        W48043  35.315  27.941   1.364
76428W        W48044  36.960  35.107  11.191
76429W        W48045  44.628  39.522   2.782
76430W        W48046  17.098   9.877  10.716
76431W        W48047  12.567  24.862  14.647
76432W        W48048  23.517   6.229  11.113
76433W        W48049  14.762  17.618  12.581
76434W        W48050  20.201  19.023  12.122
76435W        W48051  14.389  30.311   1.949
76436W        W48052  14.024  39.931  10.747
76437W        W48053  15.299  25.425  12.475
76438W        W48054  30.201  11.803   1.427
76439W        W48055  29.452  17.151  11.666
76440W        W48056  28.348  15.039  10.334
76441W        W48057  21.670  36.481  11.905
76442W        W48058  15.794   6.825   3.234
76443W        W48059  40.354  33.169  11.897
76444W        W48060   4.341   0.158  13.111
76445W        W48061  20.646   4.249  12.949
76446W        W48062   2.233  17.632   3.297
76447W        W48063  27.592  32.117   1.784
76448W        W48064  38.870   5.961   2.248
76449W        W48065  41.348   0.277   1.400
76450W        W48066  44.811  10.790  12.197
76451W        W48067  11.297   4.372  12.901
76452W        W48068  43.201  40.653   1.209
76453W        W48069  43.515  23.539  14.858
76454W        W48070  42.094   9.884  10.608
76455W        W48071   5.156  32.627   0.223
76456W        W48072  18.468  12.310   0.506
76457W        W48073   8.314   8.303  12.603
76458W        W48074  37.391   3.770   1.264
76459W        W48075  37.979   0.702  11.189
76460W        W48076  18.712   5.708  14.408
76461W        W48077  38.569  10.644  11.582
76462W        W48078   2.661  41.357   0.629
76463W        W48079  25.975   0.396   3.893
76464W        W48080  17.011  28.701   1.591
76465W        W48081   5.821  29.682  11.654
76466W        W48082  36.828  11.165  11.571
76467W        W48083  43.404  19.732  10.626
76468W        W48084  11.055   8.402   4.173
76469W        W48085   1.295  27.243   0.292
76470W        W48086  33.528  37.988  14.878
76471W        W48087  44.527  36.274   3.772
76472W        W48088  22.239  32.187  14.294
76473W        W48089  19.372  38.025   1.408
76474W        W48090  42.353  40.918  13.141
76475W        W48091   7.327  42.284  12.922
76476W        W48092   1.398  19.804  13.693
76477W        W48093   8.578   5.439   0.905
76478W        W48094  14.894  28.633   3.933
76479W        W48095   5.527  39.727  14.877
76480W        W48096  33.038  33.659  11.113
76481W        W48097   5.619  34.651   3.385
76482W        W48098  13.335  40.666  12.470
76483W        W48099  37.152  28.529   0.788
76484W        W48100  17.212  42.967   2.943
76485W        W48101  18.595  20.849   0.902
76486W        W48102  14.338  23.849   2.407
76487W        W48103   3.746  27.916  14.537
76488W        W48104  19.594   6.307   2.355
76489W        W48105  44.462   7.383   0.638
76490W        W48106  20.241   9.499   0.121
76491W        W48107  10.352   7.000  13.802
76492W        W48108  14.564  38.454  11.989
76493W        W48109  32.122  29.437   5.477
76494W        W48110  19.584   5.719  11.093
76495W        W48111  21.147  33.517   5.141
76496W        W48112  23.667  23.328   3.176
76497W        W48113  18.589  31.984  12.576
76498W        W48114  29.526  11.600   2.262
76499W        W48115  39.911  22.672  14.425
76500W        W48116   3.455  30.776  13.491
76501W        W48117   6.311   2.297   1.667
76502W        W48118   9.283  41.477   3.723
76503W        W48119  42.763  24.563   4.545
76504W        W48120  29.240  44.064   4.160
76505W        W48121  12.669  31.618  13.836
76506W        W48122  27.217  21.306   2.470
76507W        W48123  23.692  32.662  11.065
76508W        W48124   2.823  19.608  12.466
76509W        W48125   7.680   5.270  13.528
76510W        W48126   8.326  16.685   3.902
76511W        W48127  32.891  39.769  10.637
76512W        W48128  34.471  40.844  13.796
76513W        W48129  39.772   3.712  10.845
76514W        W48130  29.091  17.419   3.974
76515W        W48131  18.691  33.017  13.060
76516W        W48132   6.801  21.296   4.779
76517W        W48133  24.833   3.908  13.512
76518W        W48134  12.364  21.008  12.477
76519W        W48135  24.410  38.801   0.137
76520W        W48136  16.991   0.347   3.835
76521W        W48137  24.107  24.512  12.875
76522W        W48138   7.168   7.881  11.084
76523W        W48139  39.252  28.484   2.735
76524W        W48140  16.767  25.181   1.858
76525W        W48141   9.242  28.616   2.409
76526W        W48142  34.145  18.522  14.138
76527W        W48143  28.716  17.137   1.642
76528W        W48144  31.134   4.271   0.998
76529W        W48145  25.730  16.225   1.926
76530W        W48146  24.648  23.258  14.464
76531W        W48147  35.080   3.836  11.866
76532W        W48148  33.008  16.035   0.150
76533W        W48149  43.373  27.009   3.946
76534W        W48150  16.673  19.279   3.428
76535W        W48151  28.692  29.748  12.908
76536W        W48152  19.012   6.335  11.616
76537W        W48153  32.070  36.193  10.722
76538W        W48154   6.002  10.422   3.898
76539W        W48155  42.771  37.815  11.968
76540W        W48156  37.684  30.554  13.834
76541W        W48157   5.339   1.274  13.391
76542W        W48158  16.749  33.393   3.063
76543W        W48159  36.214  30.488   0.303
76544W        W48160  42.879  35.647   1.890
76545W        W48161   7.528   7.397   0.906
76546W        W48162  23.641  38.068  13.437
76547W        W48163   7.837  36.891  12.473
76548W        W48164  27.450  38.895  13.328
76549W        W48165  30.425   4.251  10.472
76550W        W48166  18.088  30.030  10.655
76551W        W48167  39.888   1.331   4.723
76552W        W48168  22.462  15.159  14.344
76553W        W48169  30.952  41.523  11.764
76554W        W48170  23.146  42.323   2.224
76555W        W48171  21.162  18.720   2.927
76556W        W48172  41.297  36.964   4.883
76557W        W48173  38.194  35.655  11.055
76558W        W48174  16.163  19.257  14.737
76559W        W48175   5.312  37.999   2.447
76560W        W48176  38.299   0.203   0.744
76561W        W48177  26.807  23.143  14.075
76562W        W48178   9.931   7.444   1.841
76563W        W48179   4.254  12.527   0.837
76564W        W48180  15.754   5.970   3.264
76565W        W48181  19.299  36.391   0.764
76566W        W48182  20.159  15.332  14.562
76567W        W48183   8.181  19.667  12.088
76568W        W48184  19.734  43.626   3.733
76569W        W48185  16.789  11.103   2.645
76570W        W48186  32.013  40.175  10.929
76571W        W48187  42.438  32.361  13.082
76572W        W48188   9.259  33.176   4.609
76573W        W48189  28.841  21.722  13.850
76574W        W48190  27.404  12.542   4.997
76575W        W48191  13.995  20.937  11.957
76576W        W48192  22.539  28.996   4.507
76577W        W48193  32.003  14.602   4.554
76578W        W48194  41.292  16.121   0.801
76579W        W48195  34.868  14.256  14.903
76580W        W48196  30.694  27.098  10.140
76581W        W48197   1.381  30.998   3.724
76582W        W48198  19.883   3.924  11.095
76583W        W48199  26.395  44.221   1.717
76584W        W48200  16.047  31.393   0.260
76585W        W48201  38.319  31.478   0.929
76586W        W48202  28.667  11.121  11.995
76587W        W48203   0.333  21.760  10.524
76588W        W48204  37.509  44.093   0.718
76589W        W48205  32.489  39.549   4.772
76590W        W48206  15.326  16.622   1.296
76591W        W48207  26.133  17.043  14.561
76592W        W48208  38.970  24.791   2.776
76593W        W48209  15.391   3.812   5.014
76594W        W48210   6.989  17.755   3.250
76595W        W48211   8.851   5.163   1.699
76596W        W48212  40.757  41.567  12.479
76597W        W48213  42.435  13.797   0.806
76598W        W48214  20.129  24.814  10.804
76599W        W48215  24.142  26.543   4.085
76600W        W48216  36.853  22.243  11.584
76601W        W48217  19.508  36.466  10.876
76602W        W48218  29.302   2.419  14.540
76603W        W48219  20.704  25.252   3.563
76604W        W48220  21.835  18.525  13.024
76605W        W48221   7.971  22.674  12.636
76606W        W48222  25.022   5.396   3.075
76607W        W48223   6.254  30.210  10.584
76608W        W48224   9.261   8.850   0.403
76609W        W48225   3.171  19.644  13.992
76610W        W48226   7.983  43.207   4.560
76611W        W48227   0.475  35.378  11.448
76612W        W48228  43.419   5.824  11.564
76613W        W48229  10.990   1.447   2.256
76614W        W48230  34.307   6.305  11.204
76615W        W48231   5.944  29.614   2.514
76616W        W48232  13.948  11.795   3.211
76617W        W48233  41.371   9.910  12.843
76618W        W48234  12.761  31.282   4.168
76619W        W48235  10.822  41.013  14.753
76620W        W48236  24.715   7.380   0.705
76621W        W48237  29.512  28.590   2.160
76622W        W48238  33.903  44.333   3.978
76623W        W48239  40.829   1.789  14.888
76624W        W48240  21.095  43.960   3.613
76625W        W48241   2.563  29.208   0.192
76626W        W48242  28.760   0.502  11.150
76627W        W48243  15.013   5.983  11.556
76628W        W48244   2.898   9.907   1.716
76629W        W48245  18.285  35.121  12.501
76630W        W48246  43.043   2.866   4.177
76631W        W48247  21.987  14.885  13.313
76632W        W48248   7.148   4.853  10.755
76633W        W48249  31.454  16.530   0.444
76634W        W48250  27.486  43.456   4.491
76635W        W48251   7.760  20.595   2.875
76636W        W48252  15.445  29.762  11.540
76637W        W48253   6.162  26.745   1.188
76638W        W48254  43.554  12.603  11.105
76639W        W48255  24.610  24.448   1.832
76640W        W48256  11.309  36.423   3.181
76641W        W48257  10.042  21.765  10.205
76642W        W48258  41.245  23.263  14.461
76643W        W48259  38.310  21.482   1.856
76644W        W48260  29.736  42.043  11.439
76645W        W48261  33.009  20.281  11.611
76646W        W48262   9.757  17.740   2.232
76647W        W48263  40.485  11.302  10.444
76648W        W48264  37.123  18.779  14.654
76649W        W48265  41.759  24.233  11.930
76650W        W48266   6.363  20.123   2.449
76651W        W48267  42.998   2.343   4.078
76652W        W48268  18.401  33.933   1.031
76653W        W48269   7.824  20.972   3.210
76654W        W48270  10.379   8.831   3.687
76655W        W48271   1.773  44.928  12.411
76656W        W48272  41.277  33.280  14.103
76657W        W48273   1.356  32.418   3.339
76658W        W48274  40.533  40.269   2.908
76659W        W48275  35.175  13.210   2.795
76660W        W48276  42.226  32.514  13.562
76661W        W48277   2.750  26.701  14.788
76662W        W48278  28.603   9.255  12.015
76663W        W48279  28.182  25.100  12.873
76664W        W48280  36.582  14.796  10.795
76665W        W48281   8.602   9.253  11.439
76666W        W48282  35.103  19.091   2.715
76667W        W48283  13.316  20.233   2.924
76668W        W48284   0.941  38.914  13.029
76669W        W48285   6.346  23.823   1.386
76670W        W48286  35.747  43.362   4.196
76671W        W48287   7.339  33.483  11.617
76672W        W48288   8.676  27.946  14.166
76673W        W48289   5.664  18.314   3.211
76674W        W48290  20.973  22.944  12.920
76675W        W48291  30.762   0.190   3.166
76676W        W48292   0.715  21.731   4.112
76677W        W48293  21.518  11.462  13.868
76678W        W48294  17.613  41.393  12.967
76679W        W48295  40.314  32.746  14.346
76680W        W48296   1.560  15.093  12.063
76681W        W48297  21.531  27.579  13.430
76682W        W48298   1.915  42.386  12.182
76683W        W48299  42.360  19.497  13.088
76684W        W48300  16.595  11.883   3.986
76685W        W48301  12.399  14.497   2.271
76686W        W48302  37.351   1.047  14.833
76687W        W48303  40.113  33.617   1.534
76688W        W48304  35.043  40.494  12.098
76689W        W48305  33.785  34.023  14.016
76690W        W48306  18.277  36.456   2.758
76691W        W48307  38.804  34.009   4.592
76692W        W48308  22.644  42.289   2.876
76693W        W48309  22.194  33.683  12.115
76694W        W48310   6.276  30.957   0.959
76695W        W48311  19.904   7.866   0.321
76696W        W48312   9.272  33.633  10.699
76697W        W48313   2.281  14.330   4.679
76698W        W48314  14.403  12.808  14.990
76699W        W48315  12.747  38.757   3.615
76700W        W48316  38.446   9.376  10.707
76701W        W48317  27.008   2.565  12.475
76702W        W48318  25.036  39.536  12.009
76703W        W48319  22.314  37.028  12.119
76704W        W48320  15.279  44.111  11.108
76705W        W48321  11.687  21.277   4.636
76706W        W48322   4.168   2.434   3.660
76707W        W48323  17.242  29.368   4.055
76708W        W48324  13.642  38.074  14.976
76709W        W48325  11.165  31.088   4.471
76710W        W48326  21.549   7.073   5.053
76711W        W48327   9.199  34.629   5.128
76712W        W48328  20.455  26.703  14.857
76713W        W48329  20.020  42.883  10.472
76714W        W48330  31.463   4.820   2.751
76715W        W48331   0.352  36.251  10.274
76716W        W48332  18.022   9.278   3.071
76717W        W48333  13.857   1.707   4.405
76718W        W48334  38.887  19.256   1.962
76719W        W48335  27.548  20.680   3.276
76720W        W48336  39.798  13.295  13.720
76721W        W48337  13.602  42.835  11.665
76722W        W48338  30.539  16.215   4.518
76723W        W48339  29.469  43.007   0.194
76724W        W48340   6.233   1.740   5.011
76725W        W48341  10.147  23.462   1.169
76726W        W48342  21.709   3.161  11.206
76727W        W48343  23.521  17.805   1.765
76728W        W48344  16.360  22.804   4.308
76729W        W48345  32.101  21.307   1.242
76730W        W48346  38.508  23.016  11.755
76731W        W48347  42.838  12.619   1.293
76732W        W48348   4.985  34.330   1.955
76733W        W48349  24.651  37.430  10.673
76734W        W48350  12.906   6.241   3.165
76735W        W48351  15.523  13.369  12.026
76736W        W48352  29.477  17.754  14.425
76737W        W48353  28.924  37.576  12.899
76738W        W48354  28.633   4.190   3.714
76739W        W48355  34.365  11.670   1.350
76740W        W48356  29.102  17.924   0.796
76741W        W48357   6.157  33.821   0.465
76742W        W48358  24.000  18.158   2.233
76743W        W48359  19.881   8.126  14.670
76744W        W48360  32.922  14.784   1.490
76745W        W48361  11.282  32.559  13.799
76746W        W48362  11.842  11.861  12.845
76747W        W48363  34.461  15.703  11.183
76748W        W48364  18.682  25.476  11.500
76749W        W48365  18.853   7.363   3.093
76750W        W48366   9.227  43.378  11.093
76751W        W48367  34.927   4.708  14.086
76752W        W48368  21.721  34.484  14.250
76753W        W48369   5.968  13.030  11.949
76754W        W48370   4.825  37.559   0.408
76755W        W48371  26.556  36.105  13.506
76756W        W48372   5.601  37.342  12.160
76757W        W48373  42.696  30.043  13.743
76758W        W48374   9.326  36.386   0.763
76759W        W48375  25.652  18.783   1.759
76760W        W48376  21.529   1.268  13.746
76761W        W48377  24.635  21.505   3.899
76762W        W48378  13.952  19.689  14.467
76763W        W48379   7.767  36.328   4.656
76764W        W48380  37.154  43.318   4.886
76765W        W48381  12.351   0.992   4.184
76766W        W48382  13.100  42.534   2.789
76767W        W48383  21.163   2.409  13.498
76768W        W48384   8.385   0.369   2.213
76769W        W48385  17.085  28.967  12.523
76770W        W48386  35.320  14.702   1.435
76771W        W48387  41.554  36.617   4.596
76772W        W48388  30.263  24.350   3.665
76773W        W48389  40.943  22.242  11.113
76774W        W48390  26.474  30.192   0.409
76775W        W48391  14.153  42.041   0.451
76776W        W48392   0.007   9.316   2.222
76777W        W48393  11.611  32.951   4.020
76778W        W48394  25.438  44.382  13.934
76779W        W48395  36.278  28.550  12.149
76780W        W48396   3.384  24.208  14.588
76781W        W48397   2.013  30.425  12.899
76782W        W48398   0.913  38.584  14.743
76783W        W48399   1.221  16.070   3.337
76784W        W48400  14.684  41.335   4.648
76785W        W48401  29.474  26.739   0.282
76786W        W48402  16.781  20.739   0.265
76787W        W48403  36.977  43.006  14.542
76788W        W48404  18.344  20.317   4.501
76789W        W48405  34.844  31.784   4.988
76790W        W48406  20.761  29.971  14.870
76791W        W48407   1.292   0.194  12.503
76792W        W48408  36.871  25.769   4.112
76793W        W48409  41.244  37.091  13.460
76794W        W48410  37.050  13.849  10.627
76795W        W48411  16.847  36.659  13.808
76796W        W48412  39.568  31.014   3.739
76797W        W48413  43.838  17.156   0.126
76798W        W48414  29.173  10.859   0.501
76799W        W48415   4.451  19.243  12.489
76800W        W48416   7.642  38.633  11.000
76801W        W48417  29.464  13.268   1.139
76802W        W48418  39.937  26.470  11.243
76803W        W48419  21.099  40.524   3.744
76804W        W48420  13.754  33.518   1.937
76805W        W48421  13.435   3.609   0.075
76806W        W48422  23.922  28.534   4.982
76807W        W48423  19.178  30.456   4.277
76808W        W48424  18.804  17.783   4.607
76809W        W48425  23.524  38.114   1.777
76810W        W48426  12.461  12.739   4.086
76811W        W48427   1.852  29.118  11.023
76812W        W48428   4.998  40.875   0.346
76813W        W48429  36.034  35.065   1.749
76814W        W48430  38.133   3.745  11.837
76815W        W48431  25.720  43.949  14.974
76816W        W48432   8.829   2.540   0.895
76817W        W48433  29.180   0.781   0.457
76818W        W48434   6.722   7.401   3.785
76819W        W48435  42.034  39.266  12.015
76820W        W48436  27.155   9.139  13.475
76821W        W48437  18.975  21.280   4.647
76822W        W48438  20.891  40.760   2.477
76823W        W48439  19.257   8.391  10.598
76824W        W48440   4.355  35.605  11.102
76825W        W48441  15.554  37.356   0.350
76826W        W48442  32.625  24.542  10.578
76827W        W48443  32.456  34.580  13.548
76828W        W48444  17.053   0.096   2.365
76829W        W48445  19.042   4.503  14.938
76830W        W48446  11.190   1.996  10.598
76831W        W48447  44.240   9.742  11.051
76832W        W48448  22.429  17.718  12.027
76833W        W48449  33.858  28.432  14.334
76834W        W48450   7.824  43.700   4.616
76835W        W48451   5.801   0.430  11.695
76836W        W48452  10.084  10.287   3.381
76837W        W48453  33.400  15.024   4.450
76838W        W48454  10.747   3.240  12.791
76839W        W48455  25.634  17.072   3.788
76840W        W48456  23.530  39.074  10.730
76841W        W48457  14.302  44.347   0.786
76842W        W48458   0.754  31.942   4.194
76843W        W48459  16.077  21.098   1.932
76844W        W48460  44.225  39.860  13.781
76845W        W48461   2.082  27.953  12.445
76846W        W48462  18.705  10.535   2.704
76847W        W48463  24.058  26.929  14.270
76848W        W48464  20.701  23.646   4.546
76849W        W48465  24.942   6.411  12.094
76850W        W48466  22.484  24.781  12.011
76851W        W48467  35.105  11.345  14.360
76852W        W48468   7.856  30.082   4.916
76853W        W48469  10.832  44.963   0.325
76854W        W48470  27.255  35.079   4.550
76855W        W48471  21.591  35.479   0.180
76856W        W48472  39.575  14.086   1.796
76857W        W48473   7.338  40.390  14.905
76858W        W48474  42.905  19.277   3.212
76859W        W48475  33.084  34.058   3.703
76860W        W48476  43.873   9.384  12.499
76861W        W48477  34.217  37.641  12.846
76862W        W48478   6.915  14.764   3.197
76863W        W48479  24.281  44.421  11.552
76864W        W48480  23.680  31.463  11.515
76865W        W48481   1.042  29.073   4.557
76866W        W48482  13.642  17.073   1.445
76867W        W48483  15.600  43.392   1.278
76868W        W48484  37.506  40.473   0.275
76869W        W48485  21.780  42.513   3.346
76870W        W48486  39.052   1.524   3.239
76871W        W48487  35.564  24.449   1.782
76872W        W48488   3.170  34.572  11.023
76873W        W48489  43.500   4.168  11.695
76874W        W48490  43.489  10.352  12.503
76875W        W48491  39.264  43.826   2.288
76876W        W48492  26.055  43.334  12.338
76877W        W48493   1.263   1.286   1.223
76878W        W48494  14.693   9.098   4.066
76879W        W48495  20.199  33.369   4.579
76880W        W48496   8.868  32.035  10.519
76881W        W48497  11.726  36.932  14.838
76882W        W48498   3.571  19.737  10.717
76883W        W48499  27.566  31.613  12.868
76884W        W48500  27.689  30.931   0.721
76885W        W48501   3.528   5.752  13.049
76886W        W48502  37.096  34.341   0.343
76887W        W48503  41.265  33.741  11.860
76888W        W48504  31.098  17.751   1.935
76889W        W48505  38.023   6.028  12.652
76890W        W48506  21.762  16.791  12.487
76891W        W48507   0.033   3.204   3.081
76892W        W48508  23.560   2.803   1.483
76893W        W48509   1.358  26.469  12.549
76894W        W48510  24.097  19.406  11.523
76895W        W48511  41.009   7.847   2.836
76896W        W48512  17.511  24.121   4.206
76897W        W48513  18.817   9.934  13.582
76898W        W48514  34.401   1.921   0.346
76899W        W48515  24.086  39.540  12.950
76900W        W48516   7.290   5.905  12.877
76901W        W48517  37.481  26.618  12.621
76902W        W48518  38.351  31.935  13.430
76903W        W48519  34.150  12.570  14.481
76904W        W48520   5.107   8.494  11.368
76905W        W48521  15.677   6.196   2.098
76906W        W48522   3.586  15.297  10.665
76907W        W48523  19.206  24.332  13.371
76908W        W48524   4.187  13.678  14.385
76909W        W48525   7.418  26.757   1.223
76910W        W48526  24.799  12.274  13.740
76911W        W48527  16.671  43.961   5.541
76912W        W48528   6.583  33.693   1.255
76913W        W48529  13.573   3.569   4.671
76914W        W48530  26.449  20.677  13.101
76915W        W48531  34.886   4.629   0.004
76916W        W48532  35.661   6.672  12.994
76917W        W48533  22.966  14.795  13.444
76918W        W48534  23.930   6.162  12.134
76919W        W48535  26.964  10.959   4.165
76920W        W48536  42.505  29.409   1.849
76921W        W48537   9.253  15.101   3.102
76922W        W48538  23.763  40.549   1.547
76923W        W48539  24.745  14.352  14.409
76924W        W48540   3.758  21.516   2.253
76925W        W48541  36.810  11.235  10.682
76926W        W48542  25.419  22.540  12.882
76927W        W48543  15.324  23.074   4.677
76928W        W48544  29.544  43.919   0.777
76929W        W48545  13.411  32.932  13.504
76930W        W48546  28.577  40.037  12.545
76931W        W48547   3.715  44.987   1.673
76932W        W48548  38.943  40.355  14.003
76933W        W48549  22.848  19.085   1.522
76934W        W48550   5.160  38.762  14.801
76935W        W48551  44.803  37.597  14.709
76936W        W48552  19.317  39.020  10.660
76937W        W48553  18.708  24.173  14.707
76938W        W48554  12.887  15.598   4.221
76939W        W48555   4.751  35.685  11.493
76940W        W48556  37.988  26.447   4.137
76941W        W48557  40.064  25.525  10.545
76942W        W48558  19.059  37.904  11.884
76943W        W48559  39.840  15.737  12.402
76944W        W48560  15.408   6.578   9.727
76945W        W48561   8.119   0.983   0.643
76946W        W48562  17.428  17.808  12.013
76947W        W48563  17.707   1.764   1.308
76948W        W48564  22.128  13.399  13.002
76949W        W48565  30.945  14.437  13.361
76950W        W48566  11.357  21.062   3.331
76951W        W48567   0.147   9.205   4.193
76952W        W48568  29.950  21.667   1.662
76953W        W48569  20.089  19.796   0.259
76954W        W48570  24.013  13.888   0.367
76955W        W48571  12.337  33.572  11.887
76956W        W48572  16.398  13.892   3.560
76957W        W48573  40.030  26.626   2.783
76958W        W48574  43.511   6.399   2.194
76959W        W48575  32.130  22.186  10.565
76960W        W48576  14.702  36.954  12.374
76961W        W48577  21.085   2.398  12.209
76962W        W48578   9.633  22.028   4.140
76963W        W48579  10.406   9.317   2.837
76964W        W48580   6.219  17.695   1.805
76965W        W48581   8.783   9.166  11.938
76966W        W48582  28.700  24.186  12.858
76967W        W48583   6.464  16.292  12.632
76968W        W48584   0.413  44.501   1.804
76969W        W48585  29.085  15.580   2.229
76970W        W48586  15.853  21.050  12.128
76971W        W48587  32.499  10.406  13.124
76972W        W48588  22.026  22.329  14.048
76973W        W48589  25.668  40.969   4.906
76974W        W48590   3.457  38.562   1.897
76975W        W48591  36.916   9.858   0.169
76976W        W48592  37.075  36.623   1.806
76977W        W48593  29.739  14.749  12.505
76978W        W48594  35.071   8.086  12.951
76979W        W48595   2.488  10.603   3.836
76980W        W48596  33.899  43.055  13.431
76981W        W48597   9.358  11.323   1.710
76982W        W48598   7.916   5.646  10.998
76983W        W48599  18.777  13.248   0.098
76984W        W48600  20.838  44.727  10.614
76985W        W48601   1.192  36.577   0.712
76986W        W48602  10.769   2.099   1.830
76987W        W48603  21.797  32.080   1.138
76988W        W48604   7.046  31.737   0.719
76989W        W48605  14.227   1.451   0.778
76990W        W48606  13.739  40.346  12.429
76991W        W48607   1.944   2.481  13.848
76992W        W48608  14.600  20.130  13.590
76993W        W48609  16.276   2.331  10.695
76994W        W48610  43.360  21.961  13.772
76995W        W48611  25.991  11.615  10.753
76996W        W48612   1.181  31.912   2.462
76997W        W48613  11.590  14.729   1.771
76998W        W48614   7.895  42.221   0.992
76999W        W48615  41.484  39.322  10.503
77000W        W48616  15.746   6.616  11.473
77001W        W48617  34.917  29.097   0.026
77002W        W48618  14.799  24.079   2.338
77003W        W48619   3.358  34.467   2.323
77004W        W48620  38.944  15.830   2.879
77005W        W48621  23.485  34.997   2.216
77006W        W48622   6.914  39.649  13.867
77007W        W48623  32.950  35.605   3.284
77008W        W48624  44.220  28.172   4.182
77009W        W48625   1.744  20.176   3.287
77010W        W48626  39.986  32.663   3.354
77011W        W48627  34.264  37.362  14.954
77012W        W48628  30.987   3.897   0.322
77013W        W48629  40.885  44.871  13.416
77014W        W48630  32.359  19.745   3.510
77015W        W48631  10.766  14.024  12.152
77016W        W48632  38.678  40.840   3.307
77017W        W48633  30.299   6.224  14.337
77018W        W48634   7.922   6.821   0.662
77019W        W48635  27.256  22.769   0.300
77020W        W48636  35.063   9.899   1.376
77021W        W48637  21.156   1.184  11.502
77022W        W48638  19.711  29.970  14.980
77023W        W48639  32.450  28.838   5.432
77024W        W48640  21.105  25.777  10.561
77025W        W48641  38.339   6.248   3.764
77026W        W48642  22.133  26.043   1.193
77027W        W48643  16.753  28.003  11.567
77028W        W48644  25.546  18.141   4.660
77029W        W48645  22.169  43.378   3.696
77030W        W48646   8.720  29.546   1.426
77031W        W48647  14.530  42.113  12.435
77032W        W48648  26.555  16.727  14.642
77033W        W48649  43.035   2.012   3.182
77034W        W48650   2.021   6.414   3.747
77035W        W48651  27.566  18.055  13.358
77036W        W48652  29.914   1.889   1.909
77037W        W48653  27.822  41.034  11.537
77038W        W48654  27.113  44.372   1.212
77039W        W48655  17.282  27.652  12.977
77040W        W48656  30.015  35.209  12.479
77041W        W48657  43.050  25.102  14.925
77042W        W48658  26.034  35.890   2.758
77043W        W48659  42.296  10.891   3.732
77044W        W48660  18.447  16.581   2.146
77045W        W48661  25.925   9.134  11.789
77046W        W48662   0.331  25.073  14.383
77047W        W48663  40.309  20.298  14.018
77048W        W48664  43.298  24.573  11.620
77049W        W48665  28.186   0.111   2.670
77050W        W48666  30.742  19.227   3.910
77051W        W48667  25.715   4.898   0.832
77052W        W48668  31.541  18.504  13.381
77053W        W48669  19.170  43.416  12.383
77054W        W48670  14.752  11.673  11.977
77055W        W48671  12.324  16.099   0.954
77056W        W48672  41.368  14.496   2.209
77057W        W48673  37.989  14.302   1.649
77058W        W48674  34.119   4.943  13.841
77059W        W48675  22.612  35.623  12.397
77060W        W48676  40.838  23.047  12.767
77061W        W48677   4.476  10.810  12.068
77062W        W48678   6.773  33.983  13.796
77063W        W48679   0.961   9.701  11.580
77064W        W48680   1.866   6.476  13.049
77065W        W48681  19.843  42.855   4.560
77066W        W48682   2.780  19.207   2.357
77067W        W48683   9.240  38.565  13.475
77068W        W48684   0.672   6.867  11.232
77069W        W48685  17.779  15.030   1.355
77070W        W48686  11.437  13.845   3.629
77071W        W48687  24.877  27.224  14.732
77072W        W48688  11.762  41.426  13.993
77073W        W48689  40.542  43.377  14.565
77074W        W48690  41.265  25.381   2.308
77075W        W48691  20.709   7.708   0.776
77076W        W48692  30.136  43.766  13.342
77077W        W48693  41.557  39.979   2.239
77078W        W48694   5.372  31.911  13.872
77079W        W48695  12.143  42.746   0.994
77080W        W48696  34.006  43.376   3.042
77081W        W48697  38.555  16.421   3.249
77082W        W48698  37.090  19.424   2.676
77083W        W48699   3.199  31.178  12.053
77084W        W48700   7.878  28.210   5.070
77085W        W48701  36.413   3.127   1.982
77086W        W48702  24.144  24.534   4.666
77087W        W48703  28.292  23.218   2.738
77088W        W48704  16.712  35.970  11.403
77089W        W48705  10.854   9.436   4.177
77090W        W48706  44.256  30.701   3.023
77091W        W48707  18.246  18.313  11.076
77092W        W48708  16.886   8.263  14.440
77093W        W48709  13.769  30.816  14.308
77094W        W48710   2.927  10.848   1.694
77095W        W48711  20.174  34.942  11.919
77096W        W48712  42.264  36.331   3.399
77097W        W48713  21.271  21.164   1.833
77098W        W48714  16.542  43.977   2.006
77099W        W48715  38.822  38.255   0.879
77100W        W48716  38.413  23.633  11.414
77101W        W48717   4.314  11.447  11.181
77102W        W48718   8.673  28.373  13.299
77103W        W48719  20.071  14.890   1.784
77104W        W48720  16.261  41.558   3.665
77105W        W48721  18.082  26.611  12.501
77106W        W48722   0.390  16.846   2.647
77107W        W48723   5.351  43.374   2.680
77108W        W48724  13.282  12.267   1.695
77109W        W48725   9.840  37.508   3.802
77110W        W48726  13.030  35.522  12.421
77111W        W48727   7.643   6.733   3.371
77112W        W48728  18.537  28.407  12.792
77113W        W48729  35.366  32.128   5.005
77114W        W48730  35.010   5.863   1.208
77115W        W48731  31.891  13.236  11.094
77116W        W48732  31.396  42.420   5.015
77117W        W48733  29.651  23.696   4.146
77118W        W48734  16.560  22.993   1.155
77119W        W48735   0.189  17.643   3.234
77120W        W48736  38.597   8.861  12.630
77121W        W48737  40.085  11.167  12.441
77122W        W48738  31.689   8.483  12.527
77123W        W48739   5.325   6.768   2.677
77124W        W48740  39.946  24.099  14.461
77125W        W48741  31.038  14.794   1.495
77126W        W48742   1.388  24.448   5.052
77127W        W48743   3.949  22.276   3.693
77128W        W48744   8.385  39.846  10.700
77129W        W48745  12.052  38.996  13.739
77130W        W48746  41.817   3.478   5.059
77131W        W48747  34.452  30.343  12.988
77132W        W48748  41.927   6.889  13.392
77133W        W48749   8.141   9.386  12.769
77134W        W48750  28.915  31.813  12.944
77135W        W48751  44.560   7.145   3.280
77136W        W48752   3.011  23.684   1.315
77137W        W48753  27.722   2.365   4.576
77138W        W48754  44.900  16.887   2.827
77139W        W48755   9.176  27.614   2.767
77140W        W48756   8.903  44.550   4.793
77141W        W48757  32.813  25.772  12.020
77142W        W48758   9.816  40.174  13.913
77143W        W48759  20.460  40.052   3.111
77144W        W48760  18.748  10.083  11.165
77145W        W48761  27.084  16.817   3.313
77146W        W48762  17.520  31.498   1.902
77147W        W48763  44.495  21.432   3.739
77148W        W48764   1.234  16.772   2.249
77149W        W48765  24.532  32.637   0.675
77150W        W48766  42.358  32.608  14.909
77151W        W48767   8.221  11.121  10.668
77152W        W48768  33.701  43.394  10.993
77153W        W48769   5.936  19.138   4.108
77154W        W48770   2.936  44.332  11.664
77155W        W48771  18.535  29.022   0.366
77156W        W48772  34.340  13.831   0.530
77157W        W48773  10.492  31.502  14.781
77158W        W48774   6.301  39.567  14.518
77159W        W48775  20.027  31.418   1.225
77160W        W48776  30.912   3.988   2.330
77161W        W48777   8.213  31.913  10.749
77162W        W48778  41.276   8.714   4.682
77163W        W48779   3.216   3.903   3.667
77164W        W48780  17.355  15.295   1.470
77165W        W48781  36.507  16.618   2.894
77166W        W48782  15.387   4.430   3.798
77167W        W48783  24.798   3.766  14.269
77168W        W48784   7.131  10.633   4.776
77169W        W48785  29.948  40.892   1.432
77170W        W48786   6.677  26.199   3.335
77171W        W48787   8.607  14.158   3.635
77172W        W48788  18.398   0.232   4.068
77173W        W48789  34.650  42.283  13.388
77174W        W48790  13.654  14.762  13.539
77175W        W48791   1.943  39.223  13.309
77176W        W48792   1.418  20.277   2.860
77177W        W48793  33.706  15.989   4.707
77178W        W48794   8.168  25.693  10.557
77179W        W48795  19.172  33.525  11.479
77180W        W48796   0.877  43.274   2.223
77181W        W48797  12.778  21.524   4.132
77182W        W48798  26.817  24.685  13.524
77183W        W48799  39.413   0.537   1.466
77184W        W48800  11.318  40.827   4.691
77185W        W48801   9.959   3.635  14.058
77186W        W48802  42.805   2.584  14.791
77187W        W48803  40.412  20.412   4.302
77188W        W48804   2.273  38.507   3.612
77189W        W48805  34.343  36.391   4.111
77190W        W48806  12.028  22.683  14.369
77191W        W48807   9.725   9.784   1.296
77192W        W48808  26.046  40.813  12.608
77193W        W48809   1.881  43.543   5.445
77194W        W48810   1.903  34.385   0.463
77195W        W48811  14.293  30.496  14.390
77196W        W48812  15.184  19.765   2.400
77197W        W48813  36.376  39.438   3.714
77198W        W48814  43.805  39.018   0.231
77199W        W48815  32.073  10.899   4.641
77200W        W48816   1.626   4.362  14.710
77201W        W48817  11.646  21.341  10.673
77202W        W48818  24.146  38.594   3.400
77203W        W48819   6.118  17.225   4.133
77204W        W48820   3.645  18.635   4.201
77205W        W48821   6.747  42.263  11.244
77206W        W48822  33.107  44.865   2.600
77207W        W48823  23.697  22.624   5.124
77208W        W48824  30.709  30.866   2.499
77209W        W48825  42.510  16.187   4.108
77210W        W48826  27.108  14.487  12.920
77211W        W48827  16.498  44.963   5.438
77212W        W48828  28.379   0.488  11.557
77213W        W48829  25.449  32.514   3.287
77214W        W48830  37.911  25.340   5.193
77215W        W48831  36.429  44.555  10.574
77216W        W48832  15.581  23.667  10.845
77217W        W48833  13.812  16.719   9.901
77218W        W48834  41.322  31.068   3.852
77219W        W48835  10.651  27.589   3.895
77220W        W48836  31.506  33.417   1.375
77221W        W48837  30.099  31.835   0.911
77222W        W48838  26.674  19.550  13.942
77223W        W48839   6.666  44.561   1.489
77224W        W48840  15.088  37.563   0.345
77225W        W48841  36.603   0.052  13.853
77226W        W48842   4.795   7.367   1.069
77227W        W48843  19.501  21.744   2.778
77228W        W48844   0.026   2.733   4.806
77229W        W48845  28.736  14.320  13.416
77230W        W48846  19.932  34.520  12.984
77231W        W48847   3.958  42.616   3.936
77232W        W48848  19.686  21.613   4.186
77233W        W48849  14.338  37.843   2.973
77234W        W48850   5.193  34.477   9.911
77235W        W48851  39.041  32.251  13.011
77236W        W48852  32.475  12.712   1.770
77237W        W48853   4.844  31.640  14.535
77238W        W48854  40.222  22.497  12.893
77239W        W48855  20.013  20.813  14.329
77240W        W48856  28.766  21.453   0.916
77241W        W48857  32.968  27.152  13.017
77242W        W48858  24.207  37.814   0.914
77243W        W48859  30.935  25.210  12.475
77244W        W48860  21.512  44.901   4.550
77245W        W48861  24.760  14.706   1.303
77246W        W48862  30.361  41.016  14.941
77247W        W48863  27.940  20.038   4.402
77248W        W48864   3.925  16.336   3.005
77249W        W48865  22.097   3.433   2.517
77250W        W48866  11.182  37.118  12.984
77251W        W48867  44.083  23.148  14.517
77252W        W48868   5.676  27.638   0.409
77253W        W48869  28.061  12.600  10.385
77254W        W48870  11.956   3.876   3.761
77255W        W48871  35.228  29.460  14.731
77256W        W48872  41.346  28.905   3.152
77257W        W48873  17.558  31.130  11.562
77258W        W48874  39.861  41.223  11.250
77259W        W48875  43.935  27.648   4.268
77260W        W48876   3.945  18.607   0.225
77261W        W48877  35.549  36.371  14.268
77262W        W48878   1.476   8.884  12.965
77263W        W48879  33.507  18.929   1.302
77264W        W48880  36.916  30.139   0.290
77265W        W48881  21.177  38.811   0.488
77266W        W48882  18.773  32.166   0.481
77267W        W48883  12.125  35.954  13.019
77268W        W48884  12.383  14.017  11.515
77269W        W48885   4.893  24.926   0.407
77270W        W48886  33.051  13.839  14.303
77271W        W48887  24.253  12.152  12.984
77272W        W48888  14.246  35.746  10.718
77273W        W48889   0.803  35.355   2.274
77274W        W48890   0.761  19.599  14.906
77275W        W48891  21.212   7.725   0.467
77276W        W48892   6.312  18.534   4.559
77277W        W48893  44.384  37.095  11.109
77278W        W48894   8.372  41.380   1.290
77279W        W48895  26.358   7.935  11.145
77280W        W48896   7.807  42.496   1.454
77281W        W48897  12.561  12.333  14.407
77282W        W48898   9.793   2.211   0.751
77283W        W48899  32.112  34.206   3.409
77284W        W48900   0.507  41.735  11.596
77285W        W48901  41.983  10.620  14.421
77286W        W48902   3.315  42.420  10.916
77287W        W48903  14.247  44.061  11.173
77288W        W48904   2.520  24.663  11.417
77289W        W48905  35.742  28.825   4.321
77290W        W48906  29.701  38.906  10.745
77291W        W48907  43.004   4.381   0.684
77292W        W48908  40.698  39.257  14.040
77293W        W48909  35.798  27.992   3.303
77294W        W48910  12.242  26.799  10.331
77295W        W48911  22.101   0.232  14.899
77296W        W48912  19.929  34.495  12.042
77297W        W48913  29.927  39.029  12.026
77298W        W48914  32.465  30.959  10.750
77299W        W48915   7.455  36.831  13.776
77300W        W48916   5.384  18.776   0.252
77301W        W48917  23.662  10.387  12.978
77302W        W48918   7.811  22.524  14.492
77303W        W48919   2.185  39.974  13.533
77304W        W48920   4.300  44.316  11.944
77305W        W48921  15.376  15.117  12.930
77306W        W48922  27.827  43.214   0.296
77307W        W48923  17.784  24.253   0.472
77308W        W48924   9.597  22.427   1.953
77309W        W48925   0.821   5.352  13.543
77310W        W48926  32.086  15.834   0.540
77311W        W48927  38.056   6.266   0.310
77312W        W48928  33.610  13.607  13.395
77313W        W48929  12.425  43.875   2.801
77314W        W48930  20.740   5.449   2.365
77315W        W48931  28.973  20.661   0.046
77316W        W48932  39.363  42.925  12.916
77317W        W48933   5.244  29.955   4.579
77318W        W48934   3.810  17.048   2.208
77319W        W48935   4.810  32.640   2.300
77320W        W48936  33.424   2.753  14.831
77321W        W48937  20.480  42.404  14.395
77322W        W48938  34.348  39.517  14.541
77323W        W48939  26.456   9.697  12.832
77324W        W48940  32.035  28.823   5.099
77325W        W48941  12.136  30.033   2.222
77326W        W48942   1.658  41.717  12.918
77327W        W48943  23.199   0.720   4.041
77328W        W48944  40.600   1.015  11.030
77329W        W48945  44.827  42.955   1.801
77330W        W48946  23.565  33.564   3.653
77331W        W48947  11.654   4.429  12.512
77332W        W48948   9.457  35.870  10.812
77333W        W48949   9.829  12.183  12.551
77334W        W48950  20.527  11.173   0.877
77335W        W48951  36.593  32.194   3.623
77336W        W48952  13.829  26.055  13.201
77337W        W48953  17.273  41.905  11.663
77338W        W48954  25.031  21.746   2.073
77339W        W48955   8.901   6.855   3.207
77340W        W48956   3.699   4.109   0.489
77341W        W48957   7.438   6.726   0.548
77342W        W48958  13.362  36.911   0.775
77343W        W48959   2.867  18.820   2.833
77344W        W48960  34.326   6.382   4.638
77345W        W48961  28.515   1.184  12.987
77346W        W48962   9.816   4.174  11.130
77347W        W48963  34.147   3.990  10.568
77348W        W48964  32.447  34.531   2.838
77349W        W48965  24.958  22.249   1.850
77350W        W48966  33.608  28.149   0.969
77351W        W48967  13.692  38.831  12.968
77352W        W48968  44.288  29.357   4.695
77353W        W48969   1.724  12.076   1.508
77354W        W48970   2.938  34.995   0.010
77355W        W48971  12.199   6.702   3.272
77356W        W48972   7.244  34.042   2.240
77357W        W48973  42.449  35.490   1.133
77358W        W48974  30.197  28.567   0.910
77359W        W48975  37.825   5.193   1.720
77360W        W48976  22.961  37.785   2.382
77361W        W48977  32.574   5.798   4.596
77362W        W48978   5.880  13.898  11.428
77363W        W48979   0.052  31.434  10.935
77364W        W48980   3.481  15.138   3.360
77365W        W48981   3.798  28.469  11.861
77366W        W48982  35.127  34.587   3.610
77367W        W48983  22.932  17.649   2.632
77368W        W48984  38.342  26.263  11.542
77369W        W48985  34.244  43.070  12.117
77370W        W48986   0.771   3.911   2.815
77371W        W48987  38.292  43.978  14.323
77372W        W48988  36.715  30.377  13.990
77373W        W48989   9.259  21.355   2.068
77374W        W48990  38.704  29.791   1.611
77375W        W48991  22.399  40.564   2.446
77376W        W48992  25.742  36.084   0.295
77377W        W48993  14.521  30.564  13.047
77378W        W48994  39.226  25.345   4.304
77379W        W48995  36.012   8.014   1.738
77380W        W48996  43.344  13.315   0.660
77381W        W48997  18.459   8.842  12.998
77382W        W48998  18.824  11.143  14.104
77383W        W48999  19.862  14.001  13.430
77384W        W49000  10.253  36.017   0.842
77385W        W49001  26.446  31.486  11.574
77386W        W49002  19.835  31.170  13.010
77387W        W49003   0.508  10.125   1.308
77388W        W49004  19.515  14.745  13.878
77389W        W49005  12.119  21.622  13.954
77390W        W49006   9.938  34.349  14.853
77391W        W49007   2.047  41.109  11.041
77392W        W49008  22.476  38.945   1.301
77393W        W49009  16.043  18.519   4.611
77394W        W49010  44.142  20.573   0.861
77395W        W49011   2.017   8.645   4.282
77396W        W49012  21.452  36.336  10.537
77397W        W49013  20.619  42.286   3.706
77398W        W49014   8.552  42.794   1.248
77399W        W49015   6.931  37.386  11.634
77400W        W49016  31.039  24.198   4.810
77401W        W49017   3.922  25.515  14.439
77402W        W49018  34.423  34.121   3.879
77403W        W49019   7.278  15.147  14.233
77404W        W49020  16.201  20.271  11.971
77405W        W49021  10.130  44.048  12.946
77406W        W49022   7.582   8.643  11.029
77407W        W49023  13.156  10.156  10.405
77408W        W49024   9.261  23.959   1.155
77409W        W49025  18.047  23.979  12.977
77410W        W49026  21.243  19.278   1.214
77411W        W49027  43.970  18.793   1.725
77412W        W49028   3.336  39.259  10.899
77413W        W49029  37.333  20.523  11.092
77414W        W49030   4.065  19.009  13.370
77415W        W49031  32.724  36.404  14.351
77416W        W49032   7.585  17.171  11.638
77417W        W49033  30.164  42.765   1.379
77418W        W49034   1.176  44.542   0.933
77419W        W49035  27.554  23.640   0.312
77420W        W49036  37.480  23.936  11.132
77421W        W49037  43.241  38.743   4.220
77422W        W49038  39.886  24.767   2.535
77423W        W49039  44.670  32.498   3.763
77424W        W49040  12.274   0.468   0.974
77425W        W49041  37.651   7.215  10.757
77426W        W49042  15.626  41.349  10.366
77427W        W49043   6.208  17.059   1.292
77428W        W49044  11.834  22.974   4.240
77429W        W49045  31.912   2.564  12.911
77430W        W49046  41.805  32.023  12.480
77431W        W49047  36.857  28.149   1.275
77432W        W49048  28.147  32.135  11.946
77433W        W49049  31.062  30.196   9.785
77434W        W49050  31.503   5.346   0.316
77435W        W49051  38.863   4.184  13.796
77436W        W49052  12.958  25.183  14.720
77437W        W49053  44.372  22.686   2.266
77438W        W49054  29.556  30.889  10.477
77439W        W49055  26.960  22.625   4.474
77440W        W49056   8.464  39.342  14.029
77441W        W49057  19.107  13.840  10.741
77442W        W49058  42.544  25.725  14.292
77443W        W49059  25.924  32.673   1.178
77444W        W49060  42.026  39.949   0.949
77445W        W49061  27.120  21.451   3.343
77446W        W49062  43.273  15.386   4.830
77447W        W49063  39.014  43.201   0.648
77448W        W49064  41.989  11.378   3.672
77449W        W49065   2.251  20.223   0.804
77450W        W49066  42.762   0.095  11.091
77451W        W49067  33.915  44.713   3.626
77452W        W49068  10.863   8.423   2.395
77453W        W49069  42.451  44.684  11.030
77454W        W49070  11.775   7.358  14.479
77455W        W49071  41.990  40.073  11.586
77456W        W49072   2.983  30.064  14.948
77457W        W49073  39.903   4.917  14.317
77458W        W49074  20.711  12.472   0.390
77459W        W49075  10.419  10.393   4.822
77460W        W49076  12.349  42.845  11.095
77461W        W49077   2.407   3.958  14.398
77462W        W49078  24.350   4.091   4.476
77463W        W49079  22.803  23.676  10.884
77464W        W49080  25.476  30.465  12.890
77465W        W49081   7.495  18.597   4.561
77466W        W49082   2.739  12.308  13.146
77467W        W49083  31.971   1.865   9.804
77468W        W49084  39.767  12.843   5.419
77469W        W49085  11.698   3.510   0.420
77470W        W49086   8.755  11.633   4.585
77471W        W49087  26.868   9.280   3.350
77472W        W49088   7.645  27.073   2.304
77473W        W49089  32.448   1.196  12.073
77474W        W49090  38.392  32.646   0.654
77475W        W49091   5.026  30.273   3.334
77476W        W49092  31.600  27.035   1.264
77477W        W49093  34.665   2.511  10.694
77478W        W49094  43.165  37.408  10.713
77479W        W49095  16.586   4.421  12.059
77480W        W49096  14.791   6.282   1.923
77481W        W49097  21.114  36.570   0.976
77482W        W49098  27.090  35.982   3.765
77483W        W49099  11.029  38.508   0.436
77484W        W49100   2.828   0.743   2.650
77485W        W49101  40.831  11.280   4.386
77486W        W49102  12.049  19.225   2.924
77487W        W49103  24.605  40.722  13.822
77488W        W49104  10.330   5.813   4.429
77489W        W49105   6.255  31.550  14.764
77490W        W49106   5.187  36.027  11.359
77491W        W49107   7.345  25.589   2.610
77492W        W49108  43.292   5.839   4.627
77493W        W49109  38.361  34.285   4.089
77494W        W49110   2.986  12.613   2.224
77495W        W49111  19.639  11.833   3.634
77496W        W49112  26.492  23.959  14.523
77497W        W49113  24.184  15.206   0.941
77498W        W49114  38.612  32.130  13.990
77499W        W49115   8.221  31.960   4.224
77500W        W49116  27.739  35.864  10.878
77501W        W49117   1.568   8.304  12.179
77502W        W49118  19.135  21.821   3.603
77503W        W49119  37.622  34.579  14.485
77504W        W49120  18.661   4.898   5.183
77505W        W49121   3.919  10.470  11.093
77506W        W49122  19.915   1.806  12.033
77507W        W49123  39.416  11.897  10.615
77508W        W49124   7.357  12.058  14.366
77509W        W49125   6.320  15.686  13.882
77510W        W49126  29.875  17.859   2.817
77511W        W49127  36.460  25.272   5.183
77512W        W49128   8.719  38.102  14.290
77513W        W49129  23.408   2.445   1.108
77514W        W49130   3.314  42.136  12.403
77515W        W49131  44.279  19.091   1.400
77516W        W49132  21.571  30.445  14.391
77517W        W49133  27.557  39.725   4.296
77518W        W49134  11.662   4.267   4.739
77519W        W49135  37.106  11.920  14.454
77520W        W49136  34.852  16.110   2.752
77521W        W49137  43.386  27.612  14.756
77522W        W49138  19.121  43.010   5.301
77523W        W49139  29.202  31.755  13.414
77524W        W49140  23.947   1.341  12.542
77525W        W49141  18.531  28.117  13.989
77526W        W49142  12.637  42.964  10.685
77527W        W49143  38.802  38.275  12.045
77528W        W49144  18.538  12.873   3.077
77529W        W49145  40.191   9.184  11.612
77530W        W49146   3.773  32.386   2.697
77531W        W49147   4.089  19.766  10.743
77532W        W49148  29.201   3.925  12.817
77533W        W49149  37.782  37.158   1.800
77534W        W49150  17.469  11.136   3.995
77535W        W49151  31.024  43.640   4.527
77536W        W49152  21.515  32.412   1.423
77537W        W49153  19.733  41.970   4.563
77538W        W49154  43.760  37.811   1.038
77539W        W49155  18.774  10.305   1.696
77540W        W49156  44.006  34.520  11.419
77541W        W49157   8.243  16.623  10.661
77542W        W49158   9.156  35.376   0.628
77543W        W49159  14.133  32.723  14.192
77544W        W49160  18.273  12.730   3.586
77545W        W49161  22.904  35.779  11.979
77546W        W49162  34.944  10.768   2.196
77547W        W49163   7.399  37.943  13.358
77548W        W49164  33.467  31.255   1.705
77549W        W49165  41.806  30.579  13.936
77550W        W49166  35.535  39.030  14.887
77551W        W49167  17.086  25.225  14.916
77552W        W49168  44.046   9.088  10.656
77553W        W49169  39.555  39.451  13.452
77554W        W49170  19.583  24.249  14.687
77555W        W49171   2.295  39.978  11.649
77556W        W49172  40.839  27.390  10.636
77557W        W49173  35.033  30.424   3.681
77558W        W49174  40.798   0.870   2.770
77559W        W49175  39.278  19.536   3.674
77560W        W49176  19.089  38.634  10.395
77561W        W49177  14.926  17.549  14.955
77562W        W49178  28.667  33.523  12.452
77563W        W49179  39.384  14.802   4.061
77564W        W49180   6.628  19.229   0.461
77565W        W49181  19.225   5.386  13.035
77566W        W49182  22.489  15.668   3.051
77567W        W49183  20.206  28.108   1.317
77568W        W49184  27.495  32.908  13.524
77569W        W49185  16.357  14.234  13.140
77570W        W49186  31.155  11.552  13.428
77571W        W49187  11.221  11.231  14.376
77572W        W49188  28.912  19.590   3.662
77573W        W49189  43.392  36.077  10.976
77574W        W49190  39.922  38.797  13.108
77575W        W49191  19.340  18.250   0.676
77576W        W49192  16.859   5.655   4.547
77577W        W49193  20.152  27.023  11.166
77578W        W49194  36.304  20.277  12.805
77579W        W49195   9.886  22.921   1.846
77580W        W49196   5.107   7.323   4.560
77581W        W49197  43.400  12.896  10.702
77582W        W49198  30.428   3.912   4.562
77583W        W49199  23.236   6.634   0.468
77584W        W49200  18.247   4.676   3.377
77585W        W49201  12.913  35.583   4.319
77586W        W49202   8.309  33.138   3.230
77587W        W49203   8.871  19.814   2.491
77588W        W49204   1.253  43.796  13.296
77589W        W49205  23.844  12.654  11.625
77590W        W49206  26.001  10.654   1.446
77591W        W49207   9.610  31.975   4.615
77592W        W49208   9.653   2.216   3.243
77593W        W49209  39.122   7.534  10.587
77594W        W49210   7.958  19.729  11.605
77595W        W49211   0.475   2.048   2.314
77596W        W49212   5.472  31.499   0.984
77597W        W49213  16.512   4.072   1.342
77598W        W49214  36.376  14.343  10.905
77599W        W49215  35.518  23.500   2.770
77600W        W49216  29.626   5.149  12.364
77601W        W49217  24.922  17.249  14.195
77602W        W49218  22.177  42.350   2.174
77603W        W49219   7.672  13.388  13.346
77604W        W49220  39.945  22.512  13.869
77605W        W49221   2.452   9.658   0.505
77606W        W49222  36.565   2.436  12.172
77607W        W49223   4.942  27.061  13.118
77608W        W49224   7.141  14.261  10.709
77609W        W49225   3.690  42.144  11.147
77610W        W49226  18.331  11.710   0.421
77611W        W49227   4.310  35.711  14.563
77612W        W49228  23.051  25.736  13.423
77613W        W49229   9.669  41.308   1.706
77614W        W49230   1.966  22.112  14.319
77615W        W49231  21.687  14.137  13.327
77616W        W49232  30.102  24.592   2.808
77617W        W49233   1.441  44.973  11.473
77618W        W49234  25.471  14.800  14.456
77619W        W49235  28.951  31.730   2.752
77620W        W49236   2.764   0.915  11.119
77621W        W49237  28.375   6.631   1.266
77622W        W49238  16.167  19.299   3.586
77623W        W49239  18.422  19.242  11.223
77624W        W49240  41.918   1.767   0.179
77625W        W49241  23.524  22.092  13.022
77626W        W49242  31.857   2.216  10.705
77627W        W49243  39.660  39.097  11.717
77628W        W49244   8.755  12.359   0.924
77629W        W49245  14.751  29.753  10.768
77630W        W49246   2.811  10.182   0.792
77631W        W49247   4.258   1.367   0.485
77632W        W49248  30.569  44.169  11.614
77633W        W49249   8.444   5.328   1.393
77634W        W49250  33.703   2.238  13.842
77635W        W49251  15.051  29.383  11.426
77636W        W49252   8.849   9.591   0.359
77637W        W49253  35.417   9.804   2.213
77638W        W49254  42.829  20.203  14.019
77639W        W49255  31.564   1.576  14.677
77640W        W49256  34.936  10.793   4.550
77641W        W49257  11.584  33.522   1.876
77642W        W49258   8.202  27.546  11.130
77643W        W49259  34.455   4.258   2.194
77644W        W49260  33.187  44.591   4.989
77645W        W49261   9.385  12.735   0.212
77646W        W49262  31.152  21.778  11.936
77647W        W49263   9.280  39.699  13.277
77648W        W49264   7.874   0.436   2.168
77649W        W49265  29.136  40.350   3.902
77650W        W49266  25.627  20.595  12.511
77651W        W49267  13.215  37.627   4.240
77652W        W49268  29.571  22.655   5.135
77653W        W49269  25.687  10.087   3.251
77654W        W49270  44.331  20.772   0.330
77655W        W49271   4.850  40.105   4.705
77656W        W49272  39.564  37.217  12.461
77657W        W49273   2.333  29.667  11.217
77658W        W49274   1.763   3.065  10.931
77659W        W49275  12.215  10.685   2.474
77660W        W49276  32.998  22.748  13.109
77661W        W49277  36.876   4.657  11.475
77662W        W49278  17.213   2.498   4.038
77663W        W49279  32.981  28.943   4.291
77664W        W49280  42.423   9.270   4.376
77665W        W49281  25.675  25.378   1.659
77666W        W49282  19.877  38.678  12.662
77667W        W49283  17.616  40.537   2.877
77668W        W49284  44.363  30.901  10.414
77669W        W49285  20.552  17.967  12.467
77670W        W49286  31.647  40.349  13.931
77671W        W49287  16.771   8.884   0.451
77672W        W49288  28.000  22.442   3.071
77673W        W49289  11.755  37.384   2.931
77674W        W49290   2.821  14.784  14.945
77675W        W49291  40.324  24.000   4.316
77676W        W49292  14.540  18.911  14.204
77677W        W49293   6.992  17.643   1.347
77678W        W49294  41.494   2.555   0.309
77679W        W49295  27.178  27.034   1.369
77680W        W49296  11.829  41.858  13.288
77681W        W49297  32.476  35.146  10.943
77682W        W49298  44.515  21.260   2.142
77683W        W49299  26.992  12.243   3.269
77684W        W49300  11.131  15.475  14.312
77685W        W49301  40.991  38.053  11.532
77686W        W49302  32.769  32.944   2.083
77687W        W49303  37.108  24.064   2.638
77688W        W49304  28.114  21.781  14.889
77689W        W49305  13.232  34.297   4.602
77690W        W49306  43.399  35.389   9.716
77691W        W49307   7.282  23.294   1.362
77692W        W49308  40.278  39.325  14.802
77693W        W49309  40.949   0.269   2.665
77694W        W49310  17.208  19.334  11.993
77695W        W49311  26.490   4.748  12.952
77696W        W49312   9.969  43.908  13.875
77697W        W49313   8.119  30.347  13.945
77698W        W49314  21.625  18.656   0.186
77699W        W49315  40.495  37.444   3.602
77700W        W49316  13.148  42.074  12.013
77701W        W49317  41.759  26.462  13.413
77702W        W49318  37.134   0.913   1.953
77703W        W49319  28.401  34.596   3.595
77704W        W49320   4.894  16.130   0.873
77705W        W49321  26.308  24.797  13.537
77706W        W49322  30.364  29.124  14.338
77707W        W49323  16.853   2.823  13.032
77708W        W49324  19.141  35.391   0.817
77709W        W49325  42.479  44.784  14.764
77710W        W49326  28.598  28.981  10.360
77711W        W49327   5.686   8.130  14.390
77712W        W49328  24.825  36.451  14.314
77713W        W49329  36.684  32.309   2.297
77714W        W49330  16.176  17.424  14.511
77715W        W49331   8.378  39.859   2.799
77716W        W49332  12.323   3.828   1.530
77717W        W49333   8.437  29.371  13.361
77718W        W49334  31.597  22.078   2.650
77719W        W49335  41.433   1.461  13.464
77720W        W49336  18.048  21.784   3.673
77721W        W49337   1.178   1.726  11.135
77722W        W49338  11.319   6.770   0.329
77723W        W49339   9.303   9.827   4.104
77724W        W49340  17.483  15.846   3.838
77725W        W49341  27.644  36.127   4.432
77726W        W49342  16.159   0.519  13.025
77727W        W49343  36.609  39.965  14.461
77728W        W49344  29.572  43.436   1.035
77729W        W49345   8.687  23.151   0.403
77730W        W49346  19.191  27.377   4.009
77731W        W49347  18.198  34.209  13.528
77732W        W49348  25.090   4.706  11.459
77733W        W49349   9.253  42.360   0.953
77734W        W49350  32.880  19.738  12.372
77735W        W49351  35.162  22.140   0.562
77736W        W49352  12.159  23.585  10.799
77737W        W49353  41.414  19.060   3.137
77738W        W49354  22.657   0.521  12.438
77739W        W49355  18.672  19.201   2.713
77740W        W49356   2.778  42.341   1.728
77741W        W49357  17.649  24.743   0.330
77742W        W49358  15.995  42.077  12.632
77743W        W49359  27.528  25.719   3.453
77744W        W49360  27.355   5.937  13.977
77745W        W49361  43.930   8.519   1.900
77746W        W49362  15.120   9.348   0.820
77747W        W49363  34.420  14.058  14.586
77748W        W49364  29.332  30.099  11.922
77749W        W49365  41.197  30.468   2.818
77750W        W49366  44.904  36.494  13.311
77751W        W49367   0.908  37.929   3.305
77752W        W49368  10.263   7.861   2.659
77753W        W49369  39.117  31.919  14.002
77754W        W49370  32.409   4.295  14.758
77755W        W49371  32.630   1.602   0.319
77756W        W49372  25.111  16.792   1.467
77757W        W49373  12.411  33.930  11.138
77758W        W49374  30.499   4.304   2.347
77759W        W49375  33.133  21.290  13.940
77760W        W49376  31.405  21.086   3.106
77761W        W49377  24.043   6.960   2.730
77762W        W49378  14.596   3.551  10.040
77763W        W49379  43.954  29.864  12.562
77764W        W49380  41.072  15.197   4.637
77765W        W49381   0.879  40.504   4.341
77766W        W49382  17.961  12.771  11.146
77767W        W49383  33.426  16.778  13.497
77768W        W49384  43.260  34.333  14.362
77769W        W49385   6.010  18.714  12.990
77770W        W49386   0.993  14.183   4.150
77771W        W49387  22.128   7.607   0.256
77772W        W49388  37.600  28.463  13.253
77773W        W49389   0.505  32.837  12.439
77774W        W49390  34.098   9.043  13.819
77775W        W49391  24.757  16.812  11.189
77776W        W49392   7.790  40.974  10.773
77777W        W49393  16.340  43.540   1.743
77778W        W49394   5.532   7.809   1.742
77779W        W49395  31.579  21.283  14.836
77780W        W49396  22.465  27.656  14.527
77781W        W49397  34.649  22.273  11.000
77782W        W49398  20.575  21.773  11.551
77783W        W49399  35.504  25.704   4.394
77784W        W49400  35.079  44.670   3.136
77785W        W49401  37.012  20.269   0.868
77786W        W49402   8.947  35.879  14.848
77787W        W49403  28.629   8.886  10.446
77788W        W49404  17.103  15.212   2.378
77789W        W49405   4.302  26.016  13.920
77790W        W49406  33.107  18.720   5.250
77791W        W49407  15.585   2.878   0.993
77792W        W49408  24.112  27.465   4.178
77793W        W49409  22.656  40.366   4.098
77794W        W49410  33.865  36.060   1.700
77795W        W49411  14.717  14.188   0.643
77796W        W49412  28.167  30.532   3.385
77797W        W49413  28.610  32.978  12.366
77798W        W49414   4.685  26.425   0.195
77799W        W49415  18.781  12.769   0.356
77800W        W49416  24.880   2.238  13.081
77801W        W49417  35.195  20.537   4.500
77802W        W49418   2.896  11.663  11.903
77803W        W49419  33.112  44.404  10.555
77804W        W49420  35.579   5.827  12.841
77805W        W49421   4.545  19.221   0.385
77806W        W49422   9.082   1.597   4.842
77807W        W49423  27.148  39.835   0.329
77808W        W49424   3.488  10.886   2.471
77809W        W49425  30.574  29.122  10.892
77810W        W49426  30.091  12.582   2.647
77811W        W49427  11.898  37.461   3.819
77812W        W49428  41.984  37.075   0.143
77813W        W49429   6.928  43.818   0.890
77814W        W49430  25.183   5.874   0.831
77815W        W49431  25.744  19.536  12.000
77816W        W49432  20.462   9.202  14.743
77817W        W49433  26.510  29.600  13.735
77818W        W49434  29.383   5.324   2.777
77819W        W49435  42.836  28.000  12.441
77820W        W49436  43.787   8.922   0.817
77821W        W49437  21.496   5.162  11.416
77822W        W49438  37.107  13.971  10.007
77823W        W49439  13.778   1.025   2.825
77824W        W49440  39.291  31.342   1.836
77825W        W49441  32.853  31.083  13.918
77826W        W49442  28.153  30.054  12.455
77827W        W49443  17.754  14.011  14.968
77828W        W49444   4.533   3.650   0.864
77829W        W49445  30.889  33.716  12.979
77830W        W49446  28.136  16.091   0.935
77831W        W49447  34.642  30.966   3.231
77832W        W49448  19.963  11.566  13.374
77833W        W49449   5.300  17.666   4.869
77834W        W49450   9.808   6.836  11.014
77835W        W49451  35.562  10.798   3.909
77836W        W49452  11.602  15.056   1.380
77837W        W49453  21.398   4.658   1.709
77838W        W49454  25.340  32.198  12.103
77839W        W49455   9.798  13.600   1.447
77840W        W49456  36.566  11.502  12.090
77841W        W49457  11.250  28.485  10.984
77842W        W49458  31.565  34.126  14.723
77843W        W49459  11.782   4.702  13.440
77844W        W49460  13.158   8.284  12.119
77845W        W49461  23.749   6.593   0.520
77846W        W49462  18.571  44.929   2.349
77847W        W49463   4.731  32.577  11.034
77848W        W49464   6.905  35.296   3.683
77849W        W49465  37.042   4.498  12.992
77850W        W49466  29.876  35.195   0.913
77851W        W49467   0.935  14.691   1.360
77852W        W49468   8.870  31.898   0.819
77853W        W49469  24.515  41.817   3.738
77854W        W49470  24.004  25.261   1.952
77855W        W49471   8.276  36.978   2.729
77856W        W49472   0.769  18.581   3.214
77857W        W49473  36.267  18.871   2.371
77858W        W49474  19.394  43.719   5.032
77859W        W49475   1.327  41.463   3.764
77860W        W49476  32.594  40.315  13.974
77861W        W49477  16.842  19.916   3.354
77862W        W49478  34.119  28.980   2.450
77863W        W49479   4.413  31.645  12.238
77864W        W49480  39.631   8.121   0.793
77865W        W49481  24.818  44.396   3.763
77866W        W49482   3.733  20.454  14.468
77867W        W49483  23.100  33.161  11.778
77868W        W49484  39.767  40.743   3.314
77869W        W49485   7.728  13.842   3.237
77870W        W49486   9.652  29.613  14.418
77871W        W49487  20.167  17.417  13.707
77872W        W49488  34.360  26.657  14.138
77873W        W49489  29.178  29.453   2.256
77874W        W49490   9.614  10.917  11.653
77875W        W49491  25.628  24.020   3.414
77876W        W49492  39.515  17.368   0.371
77877W        W49493   6.428  12.970   4.057
77878W        W49494  25.439  17.174  11.971
77879W        W49495  31.064   1.930  14.677
77880W        W49496   7.654   4.888  10.732
77881W        W49497   5.239  16.112   3.406
77882W        W49498  15.743  18.365  12.413
77883W        W49499  38.526  38.338   3.134
77884W        W49500  10.672   0.829  10.760
77885W        W49501  35.686  11.713   0.804
77886W        W49502  37.118  28.859   2.600
77887W        W49503  28.990  37.373   1.720
77888W        W49504  35.289   3.930   2.781
77889W        W49505   8.354   7.638  12.067
77890W        W49506  32.480  37.271  13.078
77891W        W49507   8.029  41.494   4.347
77892W        W49508  40.925  26.223  14.055
77893W        W49509  22.990   9.369   2.845
77894W        W49510   4.836  16.170  14.175
77895W        W49511  20.310   2.279   1.676
77896W        W49512  19.094  12.133   3.536
77897W        W49513  24.263  16.602  13.421
77898W        W49514  22.214  13.713  11.569
77899W        W49515   1.266   5.947  11.969
77900W        W49516  21.167  40.594  14.766
77901W        W49517  13.767  33.419  11.940
77902W        W49518  11.817  24.543   4.125
77903W        W49519  34.829  22.145   3.209
77904W        W49520  38.369   9.636  12.940
77905W        W49521  16.133  32.222  12.030
77906W        W49522   3.278   1.409  12.344
77907W        W49523  22.770   5.196   2.239
77908W        W49524  27.624  23.709   3.053
77909W        W49525  33.448  14.334   0.516
77910W        W49526  38.863  13.997   3.273
77911W        W49527  43.973  39.450  12.559
77912W        W49528   4.941  39.412   1.878
77913W        W49529  29.087   7.026  12.483
77914W        W49530  27.013  41.897   0.296
77915W        W49531  40.269   8.002   5.050
77916W        W49532   9.095  20.679   0.149
77917W        W49533   6.935  16.227  11.232
77918W        W49534  16.463  37.799   4.608
77919W        W49535  27.130   0.955  11.013
77920W        W49536  28.030  28.616   2.241
77921W        W49537  21.828  21.530   2.236
77922W        W49538  15.540  36.100  11.213
77923W        W49539  33.665   1.959  11.518
77924W        W49540  12.443  22.463  11.148
77925W        W49541   4.785   5.831  13.622
77926W        W49542  42.972  37.877  13.220
77927W        W49543  19.647  35.786  11.554
77928W        W49544   2.077  41.527   3.260
77929W        W49545   2.707  22.548  13.869
77930W        W49546   9.686  39.941  12.140
77931W        W49547  23.002  23.165  14.503
77932W        W49548  10.940  18.339  11.214
77933W        W49549   9.225  29.392  13.392
77934W        W49550   3.898  24.896   1.243
77935W        W49551  36.018  39.495  12.653
77936W        W49552  25.399  30.092   1.180
77937W        W49553  23.637  41.557   1.876
77938W        W49554   3.808  10.894  10.711
77939W        W49555  41.867  19.934   4.248
77940W        W49556  17.863  26.420  11.062
77941W        W49557  31.034  29.078   1.016
77942W        W49558  19.723  42.299   0.965
77943W        W49559  24.083  36.821  11.717
77944W        W49560   0.369  10.858  10.626
77945W        W49561  11.239  26.364  12.027
77946W        W49562  42.521   3.383   4.541
77947W        W49563  13.830  22.495   2.850
77948W        W49564  38.069   6.802   1.709
77949W        W49565  17.204  29.607  12.169
77950W        W49566   8.209  44.600  10.765
77951W        W49567  28.210  17.803   3.934
77952W        W49568  34.455  44.750  10.174
77953W        W49569   9.230   9.843   1.147
77954W        W49570  41.425   2.922  11.143
77955W        W49571  25.065   3.303  11.168
77956W        W49572  42.485   7.815  12.656
77957W        W49573  17.834  42.510   0.995
77958W        W49574  32.057  39.580   3.617
77959W        W49575   1.944   7.846   0.271
77960W        W49576  32.271  43.214   2.368
77961W        W49577   1.194  31.870  13.790
77962W        W49578  24.263   7.637  11.631
77963W        W49579  32.477   9.301   4.983
77964W        W49580   6.217  14.000  13.203
77965W        W49581  20.647  15.703   3.701
77966W        W49582   7.569  17.841  11.786
77967W        W49583  39.165   4.527   4.676
77968W        W49584  17.815  38.070  13.348
77969W        W49585   7.897  41.361  10.454
77970W        W49586  36.417  12.641   5.210
77971W        W49587   9.996  39.874   2.483
77972W        W49588  15.737  12.088   2.443
77973W        W49589  21.724  18.199   0.408
77974W        W49590  16.496  32.967  12.606
77975W        W49591  13.355  17.526   3.828
77976W        W49592   8.494   8.229  14.541
77977W        W49593  15.673  29.904  14.871
77978W        W49594  10.626  14.285   0.886
77979W        W49595   3.080  35.405   3.659
77980W        W49596   5.673  13.594   0.486
77981W        W49597  41.268  30.482  13.917
77982W        W49598  40.352   1.540   4.598
77983W        W49599  16.798   1.349   2.347
77984W        W49600  15.794   1.948  14.999
77985W        W49601  16.306  21.198  12.467
77986W        W49602  31.500  35.362  12.648
77987W        W49603  30.127  30.557   2.469
77988W        W49604   5.280   9.677   5.006
77989W        W49605  13.222   2.761   4.232
77990W        W49606   4.655   8.656   5.132
77991W        W49607  39.966  21.699   1.350
77992W        W49608  31.763  31.550   3.221
77993W        W49609   1.495  19.676   1.993
77994W        W49610  12.445  26.973  12.239
77995W        W49611  33.164  24.587  13.522
77996W        W49612  28.655  33.943  14.978
77997W        W49613  44.797  36.369   0.128
77998W        W49614  15.705  19.499  14.716
77999W        W49615  38.553   0.256   3.402
78000W        W49616  21.574  11.788   4.105
78001W        W49617  28.941   2.762  11.561
78002W        W49618  10.818  11.796   4.886
78003W        W49619  16.135  42.506   2.665
78004W        W49620  10.274  27.744  13.490
78005W        W49621  22.509  28.673  11.606
78006W        W49622  39.398  24.981   4.720
78007W        W49623  35.413   2.939   3.473
78008W        W49624  35.948   5.203   1.356
78009W        W49625  27.912   1.912   3.610
78010W        W49626  44.119  35.855  13.459
78011W        W49627  26.514  18.657  14.509
78012W        W49628   0.242  38.437   2.802
78013W        W49629   8.318  16.651   1.881
78014W        W49630  41.774   2.484   3.745
78015W        W49631  11.831  41.983  10.882
78016W        W49632  11.181  21.096  11.414
78017W        W49633  31.996  24.601   2.297
78018W        W49634   8.419  18.766   4.189
78019W        W49635  14.627  40.821  11.652
78020W        W49636  40.943  26.394   1.879
78021W        W49637  19.139   9.376   3.858
78022W        W49638  18.093   7.329  13.708
78023W        W49639  18.746  21.663   4.398
78024W        W49640  24.642  27.883   3.571
78025W        W49641  37.883  20.675  11.211
78026W        W49642  32.591  38.838   1.883
78027W        W49643  37.859  23.172  11.088
78028W        W49644  11.857  32.133   4.051
78029W        W49645   0.479  10.706  14.904
78030W        W49646   7.192  39.820  12.023
78031W        W49647  23.726  31.011   0.328
78032W        W49648  14.540  28.985  11.938
78033W        W49649  15.332   2.390   1.197
78034W        W49650  15.649  32.750  14.528
78035W        W49651  29.055  35.451   2.696
78036W        W49652  16.079  33.117   4.107
78037W        W49653   7.632  14.558   1.353
78038W        W49654   4.258  28.930   0.459
78039W        W49655  25.032  24.370   1.375
78040W        W49656  28.682  29.561  13.806
78041W        W49657  13.593  34.916   2.747
78042W        W49658   4.489   2.227   3.095
78043W        W49659  42.513   7.834  12.155
78044W        W49660  40.333  21.627  11.292
78045W        W49661  25.784   8.186  11.075
78046W        W49662  19.200  35.543   1.902
78047W        W49663  30.515   6.453  13.372
78048W        W49664  30.130  37.600  10.675
78049W        W49665  29.404  26.539   2.271
78050W        W49666  21.978   8.560   1.740
78051W        W49667   9.021  32.482   1.291
78052W        W49668  26.235  19.149   3.545
78053W        W49669  14.541   4.389   0.515
78054W        W49670  44.011   7.190   0.401
78055W        W49671  13.044  34.995   3.640
78056W        W49672  20.311  42.229  13.054
78057W        W49673  30.356  32.425  13.800
78058W        W49674  25.537  37.598   1.340
78059W        W49675  39.091  20.584  12.528
78060W        W49676  17.361   2.211  13.483
78061W        W49677   8.141   9.271   0.596
78062W        W49678   2.021  18.558   0.571
78063W        W49679  34.621  25.717  13.761
78064W        W49680  14.239  15.267  12.429
78065W        W49681  18.496  13.746  14.392
78066W        W49682  42.778  19.665   4.499
78067W        W49683   2.723  10.793  14.904
78068W        W49684   5.851   3.374  13.041
78069W        W49685  15.754  31.474   2.031
78070W        W49686  38.961  18.115   0.302
78071W        W49687   2.026   0.928   0.424
78072W        W49688  32.267   4.488   3.232
78073W        W49689  17.930   4.399   0.350
78074W        W49690  23.036  43.800   0.358
78075W        W49691   9.928  36.541  12.807
78076W        W49692  30.892  31.012   1.530
78077W        W49693  39.456  10.263   1.180
78078W        W49694   8.779  28.542  12.310
78079W        W49695  33.472  22.229  12.455
78080W        W49696  31.600  42.098   2.682
78081W        W49697  40.713  40.078   0.420
78082W        W49698  20.571   2.677   3.222
78083W        W49699  34.585  20.896  10.654
78084W        W49700  22.578  29.496  14.556
78085W        W49701  41.154   3.038   4.185
78086W        W49702   7.632  34.949   1.958
78087W        W49703  39.602  15.210   3.233
78088W        W49704  17.993  32.515   2.669
78089W        W49705   6.023   4.652   2.356
78090W        W49706   2.764   2.906   4.313
78091W        W49707  38.977   9.853  13.968
78092W        W49708  12.327  41.401  13.814
78093W        W49709  15.200   6.816  13.021
78094W        W49710  39.418  14.788  13.804
78095W        W49711  28.506   7.464  14.756
78096W        W49712  37.382  10.650  12.186
78097W        W49713  31.209  19.779   3.162
78098W        W49714  36.467  21.660   4.569
78099W        W49715  37.925  38.936  11.287
78100W        W49716  11.089  18.205   3.933
78101W        W49717   5.415  33.747   4.136
78102W        W49718  12.692  35.736   3.278
78103W        W49719  18.173  23.081  10.533
78104W        W49720  43.894   3.327  12.838
78105W        W49721  26.389  37.998   3.922
78106W        W49722  17.661  31.089   3.207
78107W        W49723   6.981   1.111   3.596
78108W        W49724  36.794   0.229   2.880
78109W        W49725   1.462  14.614  11.905
78110W        W49726  38.816  17.665   1.639
78111W        W49727  18.200   2.217  13.043
78112W        W49728  15.847  35.522   2.868
78113W        W49729   9.867  16.579  11.641
78114W        W49730  28.408  35.574  10.777
78115W        W49731   2.337  39.135   4.662
78116W        W49732  11.347  28.217   4.301
78117W        W49733  40.775   0.018  10.674
78118W        W49734  19.090  26.223  12.421
78119W        W49735  31.657  44.448   0.846
78120W        W49736  17.739  24.767  13.824
78121W        W49737  26.711  18.107  14.844
78122W        W49738  21.413  31.410   1.745
78123W        W49739  18.186  10.021   9.956
78124W        W49740  24.637   2.751   0.842
78125W        W49741  18.979  37.870  13.972
78126W        W49742  30.464  32.065   2.312
78127W        W49743  21.769  21.458  10.927
78128W        W49744  35.922  35.710   1.887
78129W        W49745  42.348  23.172   4.629
78130W        W49746  42.404  33.387  13.964
78131W        W49747  17.305  20.581  10.703
78132W        W49748   2.671  27.236  13.293
78133W        W49749  14.648  27.566  14.035
78134W        W49750  32.550  15.807  10.380
78135W        W49751  33.518  42.930  10.236
78136W        W49752  16.508  28.597   1.913
78137W        W49753  39.005   0.999   3.185
78138W        W49754   7.264  17.585  13.551
78139W        W49755  10.552  38.692  14.819
78140W        W49756   6.147  44.551   4.554
78141W        W49757   4.493  28.034   4.886
78142W        W49758  30.383  12.750   3.549
78143W        W49759  32.869  13.631  13.852
78144W        W49760  19.143  29.831   1.881
78145W        W49761  13.711  41.994   0.740
78146W        W49762  38.859  15.978   3.387
78147W        W49763  42.797   2.693  12.631
78148W        W49764  32.931  39.019  14.026
78149W        W49765  44.708  31.061  10.801
78150W        W49766  20.175  25.508   1.336
78151W        W49767  35.477   4.738  13.308
78152W        W49768  14.471  26.850   0.297
78153W        W49769  36.626  33.408  14.374
78154W        W49770  39.844  25.358   3.270
78155W        W49771  27.723  34.378  14.856
78156W        W49772  36.517  38.459   2.908
78157W        W49773   1.353  10.047   1.831
78158W        W49774  44.045  42.546  12.056
78159W        W49775   2.460  35.994  10.287
78160W        W49776  12.555  15.187   4.902
78161W        W49777  21.581  17.858  11.860
78162W        W49778   7.673  24.355   2.671
78163W        W49779  33.998  24.002  11.083
78164W        W49780  19.105   0.925  13.277
78165W        W49781  40.280   8.894   2.606
78166W        W49782   3.988   4.122  12.382
78167W        W49783  10.212  33.927   1.742
78168W        W49784   4.289  40.994  11.624
78169W        W49785  15.358   2.909  12.111
78170W        W49786  39.845   7.840  12.913
78171W        W49787  28.716  13.748  10.253
78172W        W49788  36.881  40.232   3.872
78173W        W49789  39.354  20.515   3.212
78174W        W49790  13.211  23.538   2.245
78175W        W49791  23.502  39.315   1.210
78176W        W49792  39.662  11.002  13.951
78177W        W49793  13.728  26.280  14.983
78178W        W49794  41.118  26.005   4.342
78179W        W49795   2.702  10.400   1.853
78180W        W49796   8.154  35.991  11.641
78181W        W49797   9.373   0.702  12.890
78182W        W49798   9.287  14.723   4.401
78183W        W49799  21.853  25.217   1.102
78184W        W49800  34.121   7.881  14.817
78185W        W49801  17.340  14.779   1.272
78186W        W49802  36.318   3.597  11.587
78187W        W49803  20.329  13.835  10.624
78188W        W49804   7.248   2.893  11.309
78189W        W49805  42.502  41.925  14.112
78190W        W49806  33.726  27.510   1.678
78191W        W49807  27.597   0.124   4.677
78192W        W49808  43.057  17.630   2.722
78193W        W49809  30.103  25.182  12.336
78194W        W49810  38.566  40.012  12.577
78195W        W49811  43.522  16.253   2.149
78196W        W49812  32.396   1.037   2.659
78197W        W49813  13.576  35.485  14.579
78198W        W49814   3.583  39.083   1.815
78199W        W49815  34.471   5.731   4.137
78200W        W49816  18.335  37.682   0.733
78201W        W49817  19.017  38.974   0.876
78202W        W49818   9.375  23.641  12.780
78203W        W49819   1.773  22.680   0.506
78204W        W49820  20.811  43.846  14.386
78205W        W49821   8.201  17.262  10.737
78206W        W49822   5.451   8.688   1.817
78207W        W49823  11.513  22.252   3.120
78208W        W49824  24.364  13.886  12.816
78209W        W49825  44.463  15.567  11.669
78210W        W49826   9.730  16.278  10.397
78211W        W49827  36.924  32.691  11.983
78212W        W49828  32.932  25.217  12.133
78213W        W49829  25.709  44.866   2.645
78214W        W49830   9.409   8.440   3.664
78215W        W49831   5.467  29.658   1.251
78216W        W49832  26.527  33.997   0.006
78217W        W49833  23.704  37.843   1.349
78218W        W49834   8.868  25.192   2.793
78219W        W49835  20.885   9.124   2.640
78220W        W49836  32.903  22.099   4.777
78221W        W49837  15.733  31.658  13.788
78222W        W49838  18.613  35.369  13.539
78223W        W49839  44.501  12.188  12.777
78224W        W49840  21.238  32.599  14.811
78225W        W49841  18.220  39.186   4.213
78226W        W49842  28.058   1.887   5.103
78227W        W49843  16.895  17.881   4.583
78228W        W49844   9.359  31.815  10.593
78229W        W49845  16.653  16.246  14.792
78230W        W49846   2.534  24.928  14.398
78231W        W49847  29.425  22.261  12.820
78232W        W49848   8.671  40.438  13.390
78233W        W49849  31.908   6.363  11.481
78234W        W49850  18.188  39.298  14.544
78235W        W49851   8.433  40.179  11.080
78236W        W49852  43.448   8.803   1.903
78237W        W49853  27.727   6.123   4.623
78238W        W49854  20.748  37.903   4.614
78239W        W49855  26.159  15.880   2.956
78240W        W49856  25.003  12.690  13.006
78241W        W49857  30.097   0.431  11.760
78242W        W49858  32.864   5.918   0.718
78243W        W49859  44.468   8.880   1.882
78244W        W49860   8.133  27.740   1.878
78245W        W49861  17.160   8.365  13.999
78246W        W49862   1.975  27.532   1.224
78247W        W49863   2.233  19.652   2.852
78248W        W49864  28.931  23.536  10.703
78249W        W49865  31.542  39.806  13.006
78250W        W49866  44.755  18.682  12.164
78251W        W49867  33.465   3.879   2.846
78252W        W49868  20.575  17.677   2.628
78253W        W49869  26.433  23.233  13.200
78254W        W49870  14.157  19.215   4.905
78255W        W49871  20.530  10.025  11.986
78256W        W49872   3.958  25.429  12.637
78257W        W49873  37.916  15.531   0.405
78258W        W49874   8.643  40.563   1.084
78259W        W49875  18.118  14.252   1.727
78260W        W49876  41.373  40.087  11.139
78261W        W49877  27.191  34.549   2.944
78262W        W49878  37.593  15.882  14.478
78263W        W49879  19.493  23.501  11.978
78264W        W49880  19.453   0.176   5.441
78265W        W49881  26.077  10.915  14.285
78266W        W49882  36.897  16.930  11.514
78267W        W49883  42.279   3.435  11.489
78268W        W49884  16.579   0.207  11.642
78269W        W49885  20.049  29.726   4.711
78270W        W49886  35.454  24.217   0.898
78271W        W49887  30.056  37.073  12.846
78272W        W49888  15.768   0.962  14.308
78273W        W49889  21.151  30.464   0.742
78274W        W49890  10.691  39.403  12.523
78275W        W49891  13.707  19.345  12.017
78276W        W49892  14.264  34.450  14.527
78277W        W49893   6.433  44.028  13.520
78278W        W49894  38.330  24.973   0.051
78279W        W49895   0.467  22.791   0.005
78280W        W49896  25.482   3.495   0.868
78281W        W49897  44.961  44.777  10.850
78282W        W49898  12.594  28.119   0.388
78283W        W49899   3.892  22.993  13.042
78284W        W49900  22.539   9.105  12.111
78285W        W49901  32.038  22.590  10.270
78286W        W49902  12.189   6.232  14.064
78287W        W49903  23.437  10.748   0.418
78288W        W49904   9.160  17.650  14.800
78289W        W49905  20.981  30.686   0.276
78290W        W49906  19.256  36.096  13.990
78291W        W49907  39.075  29.854  13.621
78292W        W49908  10.771  14.612   4.303
78293W        W49909  20.971  34.487   5.019
78294W        W49910  20.046  30.531   0.231
78295W        W49911  26.644  37.105   4.566
78296W        W49912   1.899  23.050   0.831
78297W        W49913  20.485   9.834  13.609
78298W        W49914  12.811   1.304  11.965
78299W        W49915  44.302   5.404  13.570
78300W        W49916  13.222   2.361  13.218
78301W        W49917  29.662  24.024  13.100
78302W        W49918  20.883  34.383   3.818
78303W        W49919  41.395  30.257   3.281
78304W        W49920  14.234  19.159  11.432
78305W        W49921  33.484   9.256  13.067
78306W        W49922  11.742  15.379  12.482
78307W        W49923  27.245  32.877   3.198
78308W        W49924  23.127  28.201  11.653
78309W        W49925  26.085  34.113  14.242
78310W        W49926  31.753  18.280   0.306
78311W        W49927  41.046  40.530  12.430
78312W        W49928  38.451  21.524  12.055
78313W        W49929  19.704  32.205   0.897
78314W        W49930  34.674  19.026   4.084
78315W        W49931  19.803   0.778  11.903
78316W        W49932  42.735   9.251  12.891
78317W        W49933  17.499  22.257  11.166
78318W        W49934  43.980  37.674  11.609
78319W        W49935  12.087   7.322  12.996
78320W        W49936   4.906  15.905   4.684
78321W        W49937  33.193  37.068   0.232
78322W        W49938  22.079  28.744   4.492
78323W        W49939  36.900  38.065  14.405
78324W        W49940  33.321  39.951   1.444
78325W        W49941  28.301  33.497   3.809
78326W        W49942  33.926  20.506   0.631
78327W        W49943   4.275  23.918  13.939
78328W        W49944  44.205   7.334  12.997
78329W        W49945  44.291   9.345  14.997
78330W        W49946  29.903  22.471  10.946
78331W        W49947   5.311  10.143  14.342
78332W        W49948  13.095  10.255   3.986
78333W        W49949  24.692  10.888  14.945
78334W        W49950  40.395   1.500  14.799
78335W        W49951  22.889   0.225   0.539
78336W        W49952  29.522  29.489  14.497
78337W        W49953  16.137  32.716  12.929
78338W        W49954  18.583   3.965   2.900
78339W        W49955  11.670  43.994  14.797
78340W        W49956  22.478  10.289  14.480
78341W        W49957  15.563   3.651   1.278
78342W        W49958   4.701   4.720   4.531
78343W        W49959  18.942  37.033   1.148
78344W        W49960  25.572  16.050   3.689
78345W        W49961  26.034   9.088  10.623
78346W        W49962  41.954  42.050   2.609
78347W        W49963  18.527  16.140   0.834
78348W        W49964  36.451  41.024  11.597
78349W        W49965  37.612  22.763  11.999
78350W        W49966  32.138  29.469  14.457
78351W        W49967   9.185  30.882  11.612
78352W        W49968  42.399  37.524   5.442
78353W        W49969  29.517  43.974   3.276
78354W        W49970  22.694   7.290  14.310
78355W        W49971  11.106  32.204  13.441
78356W        W49972  26.940  32.618  14.009
78357W        W49973   8.572  33.939   0.844
78358W        W49974   5.599  18.092  12.509
78359W        W49975  20.688  42.003  10.733
78360W        W49976  19.320  18.239   3.101
78361W        W49977   5.863   6.459   4.516
78362W        W49978   5.852  10.362  10.777
78363W        W49979  31.376  16.034   2.103
78364W        W49980  18.217  11.161  12.538
78365W        W49981  30.080  38.978  12.688
78366W        W49982  44.092  38.517   0.980
78367W        W49983  42.153   0.021   4.026
78368W        W49984  11.601   3.524   5.376
78369W        W49985   7.440  11.142   0.714
78370W        W49986  28.937  14.258  11.094
78371W        W49987   7.865  23.551  12.275
78372W        W49988   9.826  37.656   0.720
78373W        W49989  42.528  26.018  10.730
78374W        W49990  19.058   1.231  14.957
78375W        W49991  10.704  25.087  14.410
78376W        W49992   9.107  40.806  11.047
78377W        W49993  13.679  13.092   3.670
78378W        W49994  27.577  36.632   0.461
78379W        W49995  22.981  39.943  12.147
78380W        W49996  12.842   4.824   2.802
78381W        W49997  20.965  19.775  10.088
78382W        W49998  41.269  21.037  13.837
78383W        W49999   6.467  21.100   1.868
78384W        W50000  17.289  26.176  14.571
78385W        W50001  37.136  35.778  12.053
78386W        W50002  29.925  10.199  11.421
78387W        W50003   6.406  44.200   2.389
78388W        W50004  18.600  35.162  11.984
78389W        W50005  24.678  20.703   3.129
78390W        W50006  37.012  38.395  12.058
78391W        W50007  34.515  41.051  14.347
78392W        W50008  42.589  13.759   3.746
78393W        W50009  24.430  22.803  11.185
78394W        W50010  19.034  13.787  11.615
78395W        W50011  31.764  25.188   1.372
78396W        W50012  11.617  12.204   1.879
78397W        W50013  31.416   6.555   0.044
78398W        W50014  32.966  27.953  10.769
78399W        W50015  27.481  12.660   2.876
78400W        W50016  24.901  38.120  12.359
78401W        W50017  20.670  11.889   2.310
78402W        W50018  30.945  32.307  11.147
78403W        W50019  20.182  44.032  12.000
78404W        W50020  21.081  17.680  11.568
78405W        W50021  36.738  34.554  12.028
78406W        W50022  24.951  44.410  11.068
78407W        W50023  20.974   9.655  13.085
78408W        W50024  21.655  24.475  10.758
78409W        W50025  32.045  28.828   2.954
78410W        W50026  37.921  11.264  11.861
78411W        W50027  30.118  10.186  14.783
78412W        W50028  13.770   9.152   1.894
78413W        W50029  34.737  28.970  10.988
78414W        W50030  34.358  17.307   3.413
78415W        W50031  18.271   0.720  11.237
78416W        W50032  23.174  44.090   1.421
78417W        W50033  15.539  43.724   2.338
78418W        W50034  41.310  10.384   1.242
78419W        W50035  11.355  35.639  14.370
78420W        W50036   4.878  20.840  13.185
78421W        W50037  29.094  19.585  10.701
78422W        W50038  24.654  34.573  14.330
78423W        W50039  32.664  43.463   2.077
78424W        W50040  16.747  38.075  11.009
78425W        W50041  13.317  21.289   5.119
78426W        W50042  26.063  39.430   0.922
78427W        W50043  11.319  27.146  10.661
78428W        W50044  21.376  11.582   1.783
78429W        W50045   0.826  36.969   0.764
78430W        W50046   4.865   5.549  11.213
78431W        W50047   0.821   8.284   0.953
78432W        W50048   5.713   6.324  11.325
78433W        W50049  26.349  11.833   4.942
78434W        W50050  23.116  44.761   0.429
78435W        W50051  18.964  43.874   2.111
78436W        W50052  37.663  41.457   0.016
78437W        W50053  25.130  37.664  11.539
78438W        W50054  23.002   6.336   1.912
78439W        W50055  17.514  10.637   4.558
78440W        W50056  35.139  13.649  13.462
78441W        W50057  40.083  40.994   4.622
78442W        W50058   6.820  16.833   4.450
78443W        W50059  25.285  20.574  13.805
78444W        W50060  28.147  28.462   4.381
78445W        W50061  16.585  43.012  14.969
78446W        W50062   9.558   4.328   1.886
78447W        W50063  11.127  31.165   3.168
78448W        W50064  31.906  32.302  12.067
78449W        W50065  23.500   6.154   2.833
78450W        W50066   9.699  15.181  12.430
78451W        W50067   1.702  13.750  11.066
78452W        W50068  39.313   5.232  13.741
78453W        W50069   5.012  15.468  14.753
78454W        W50070  25.365  25.641   0.392
78455W        W50071  34.832   4.702   2.756
78456W        W50072  30.500  21.080   2.043
78457W        W50073  39.392   6.630  13.208
78458W        W50074  43.586  14.861  12.500
78459W        W50075  26.781  23.169  10.565
78460W        W50076   4.435  42.068  10.568
78461W        W50077  28.891  12.156  14.188
78462W        W50078  19.199   5.445   0.932
78463W        W50079  31.494  10.736  10.628
78464W        W50080  29.500  42.517   1.896
78465W        W50081  29.505  29.497  11.149
78466W        W50082   0.814   0.055   2.701
78467W        W50083  20.726  31.485   3.408
78468W        W50084  32.907  36.953  14.797
78469W        W50085   0.247  22.563  10.882
78470W        W50086  35.411   0.456  12.340
78471W        W50087  31.151   3.373  14.928
78472W        W50088  28.604  12.871  13.598
78473W        W50089  35.543   2.336  14.801
78474W        W50090  24.085   1.004   4.545
78475W        W50091  36.635  14.231   0.386
78476W        W50092   4.531  18.724  12.485
78477W        W50093  33.027   7.900  13.402
78478W        W50094  37.968  36.274   0.029
78479W        W50095  29.552  25.754  12.585
78480W        W50096  39.019  19.197   4.306
78481W        W50097  42.905  35.784  14.035
78482W        W50098  41.490  38.368   1.128
78483W        W50099  38.824   4.978   4.205
78484W        W50100  31.978   4.947  11.544
78485W        W50101  34.298  38.999  14.654
78486W        W50102  34.975  13.862  12.974
78487W        W50103  36.526   6.884  12.560
78488W        W50104  44.290  40.463   0.643
78489W        W50105  28.171   1.748   1.647
78490W        W50106  13.322  43.537   3.297
78491W        W50107  37.488  29.856  13.365
78492W        W50108  18.096  44.016   4.140
78493W        W50109  34.255  21.622   3.712
78494W        W50110   1.433  20.638  10.632
78495W        W50111  35.925   8.433  10.478
78496W        W50112  32.094  21.166   4.658
78497W        W50113  21.666   6.865   3.740
78498W        W50114  34.930   2.189   2.363
78499W        W50115  26.259  22.341  12.856
78500W        W50116  11.681  42.701  13.332
78501W        W50117  30.524  15.235  13.882
78502W        W50118  42.937  17.207  12.897
78503W        W50119  13.346  17.152   0.571
78504W        W50120  23.490  25.972  13.541
78505W        W50121   0.543  16.732   0.783
78506W        W50122  34.190  21.302   3.302
78507W        W50123   3.384  29.140  14.326
78508W        W50124  15.867   3.737  14.124
78509W        W50125   3.237  10.364  14.689
78510W        W50126  34.941  27.371  14.285
78511W        W50127  38.792  42.313   0.828
78512W        W50128  24.948  27.611  11.486
78513W        W50129   8.860  35.932   3.956
78514W        W50130  38.277  17.104   2.734
78515W        W50131  34.965   2.891   3.190
78516W        W50132  30.902   1.888  12.630
78517W        W50133  44.478  18.660  10.706
78518W        W50134  16.679  37.592   2.273
78519W        W50135   8.528  23.562   1.848
78520W        W50136  44.751  34.831   0.404
78521W        W50137  27.904  40.455   0.235
78522W        W50138  13.192  30.197   2.321
78523W        W50139  28.810  29.376   9.625
78524W        W50140  41.761   9.985  11.013
78525W        W50141  34.116  35.905  13.494
78526W        W50142   6.050  35.568   3.183
78527W        W50143  21.318  26.264  12.014
78528W        W50144   7.494  32.110  12.416
78529W        W50145  10.092  16.576  13.376
78530W        W50146  29.611   9.130  12.016
78531W        W50147  22.991  10.376  14.478
78532W        W50148   1.073  30.973  10.489
78533W        W50149  31.203   6.403   3.167
78534W        W50150  43.976   2.711  14.240
78535W        W50151  33.722  13.252   0.807
78536W        W50152  24.692   0.103   0.800
78537W        W50153  32.466   2.072   3.207
78538W        W50154  25.533   6.348  12.946
78539W        W50155  40.000  21.552   1.845
78540W        W50156  41.374   5.331   1.631
78541W        W50157  42.067  21.965   1.730
78542W        W50158  28.238   8.721   4.585
78543W        W50159   6.833  38.062  12.557
78544W        W50160  43.582  30.349  14.859
78545W        W50161  38.434   8.199  14.737
78546W        W50162   3.892  18.294  11.991
78547W        W50163   5.140   7.719   0.397
78548W        W50164  31.572  41.096   4.602
78549W        W50165  33.406  19.954   1.169
78550W        W50166  42.978   2.293   2.684
78551W        W50167  42.597  44.345   3.827
78552W        W50168   6.730  30.596  13.949
78553W        W50169  25.104  40.956  12.214
78554W        W50170   0.956  39.253  11.551
78555W        W50171  18.302  16.141   3.236
78556W        W50172   8.993  11.401  11.085
78557W        W50173  15.696   2.840   4.919
78558W        W50174  41.237  38.031   2.825
78559W        W50175  35.484  33.010   4.533
78560W        W50176  42.997   0.355   3.849
78561W        W50177  33.392   6.370   3.868
78562W        W50178  29.318  21.584   4.142
78563W        W50179  13.852  31.937   1.207
78564W        W50180  21.891  36.632  10.556
78565W        W50181   0.346   3.342  10.938
78566W        W50182  17.107  11.860   1.376
78567W        W50183  21.582  37.917   0.353
78568W        W50184  17.181  40.505   4.801
78569W        W50185  42.881  33.934  14.015
78570W        W50186  14.788  10.391  11.217
78571W        W50187  31.049  38.969   5.197
78572W        W50188  41.541  30.080   2.784
78573W        W50189  41.830  44.029  14.234
78574W        W50190  13.329  21.827   3.302
78575W        W50191   6.334  35.379  14.422
78576W        W50192  32.087  29.090   0.217
78577W        W50193   6.717  17.656   4.557
78578W        W50194  43.360  40.334   4.881
78579W        W50195  23.116  13.599   0.830
78580W        W50196   2.238  27.477  11.051
78581W        W50197  37.787  42.568  10.641
78582W        W50198  44.531   5.737   3.147
78583W        W50199  32.583  27.701   3.203
78584W        W50200  12.285   7.854  14.804
78585W        W50201   2.009   5.260  11.197
78586W        W50202  41.279  31.324   2.897
78587W        W50203  44.936  10.686  14.916
78588W        W50204  36.993  36.434  11.284
78589W        W50205   2.337   5.588  11.008
78590W        W50206   5.698  22.684   3.222
78591W        W50207   2.004   7.697  13.790
78592W        W50208  16.519  39.860  12.454
78593W        W50209   9.587  20.633   1.497
78594W        W50210  38.252   2.069   4.199
78595W        W50211  42.906   1.632   4.841
78596W        W50212   4.323  18.552  12.062
78597W        W50213  33.398  18.503  11.739
78598W        W50214  23.939  41.776   3.689
78599W        W50215   7.509   4.291   3.770
78600W        W50216  25.527  21.554   4.423
78601W        W50217  33.899  15.274   0.886
78602W        W50218  19.091  15.502   0.326
78603W        W50219  10.297  12.383   3.818
78604W        W50220  16.867  31.681  14.480
78605W        W50221  36.131  15.333   2.850
78606W        W50222  41.422  18.681  11.429
78607W        W50223  40.021  44.142  11.974
78608W        W50224  43.269  12.365  13.652
78609W        W50225  18.568  42.536  11.545
78610W        W50226   5.413  43.520   3.485
78611W        W50227  13.519  30.896   1.736
78612W        W50228  25.010  14.371   3.856
78613W        W50229  44.963  32.047   2.793
78614W        W50230  25.553  11.189   1.715
78615W        W50231  13.432  21.617   3.761
78616W        W50232  41.856  11.867  12.640
78617W        W50233  34.082   5.004   4.137
78618W        W50234   2.859  17.298   3.668
78619W        W50235  12.317   4.492   2.300
78620W        W50236  21.224  10.811   2.697
78621W        W50237  35.520  31.521  10.657
78622W        W50238  27.378  11.223   3.274
78623W        W50239  41.514  10.102  12.403
78624W        W50240   2.825  31.276  14.148
78625W        W50241  42.012  37.779  13.495
78626W        W50242  31.067  27.754   5.504
78627W        W50243  40.143   0.948   3.778
78628W        W50244  25.228  19.206   1.736
78629W        W50245  14.402  17.479  11.434
78630W        W50246  38.304  39.246  14.382
78631W        W50247  30.133  38.350   3.739
78632W        W50248   6.012   4.930   3.252
78633W        W50249  38.387  27.958  12.345
78634W        W50250  32.597  38.323  11.397
78635W        W50251  28.660  41.670   3.668
78636W        W50252  21.367   2.445   3.720
78637W        W50253  14.144  26.210  12.463
78638W        W50254  33.092  31.974   2.303
78639W        W50255   5.034   3.405   5.176
78640W        W50256  17.884   7.447  12.805
78641W        W50257  22.579  15.564  12.948
78642W        W50258  30.590  43.416   0.882
78643W        W50259  13.157  10.649  13.283
78644W        W50260  17.249  44.500   9.802
78645W        W50261  20.665   7.446  14.269
78646W        W50262  15.326  27.887  13.849
78647W        W50263  21.090  19.475  10.533
78648W        W50264  31.406  34.160  11.149
78649W        W50265  18.267  26.487  13.850
78650W        W50266   4.499  13.216   1.256
78651W        W50267  12.465  25.366   4.150
78652W        W50268  16.253  43.042  11.059
78653W        W50269  37.910   8.181   1.879
78654W        W50270  42.815  39.474  12.222
78655W        W50271  35.542  17.131   3.376
78656W        W50272  36.871  43.593  12.442
78657W        W50273   2.759  14.076   3.828
78658W        W50274   7.287  13.042   0.895
78659W        W50275  34.832   3.251  14.941
78660W        W50276  12.588  43.393   2.809
78661W        W50277  31.013  31.096   2.884
78662W        W50278  34.509   9.129  11.692
78663W        W50279   8.024  23.736  10.833
78664W        W50280  22.303  39.054   4.584
78665W        W50281  10.189  18.589   1.754
78666W        W50282  41.670  16.640  13.037
78667W        W50283  36.386   2.057  11.306
78668W        W50284  43.948   1.859   4.798
78669W        W50285   5.909   0.202  12.988
78670W        W50286  15.422  18.286  12.824
78671W        W50287   0.034  19.486   0.401
78672W        W50288  40.274  20.042  14.963
78673W        W50289  42.917  14.276  14.076
78674W        W50290  23.445  20.588   4.505
78675W        W50291   5.932   1.899  13.975
78676W        W50292  10.358  10.226  13.367
78677W        W50293   7.711  33.606  12.985
78678W        W50294  35.094  12.170   2.262
78679W        W50295  39.952  11.656   2.656
78680W        W50296  28.538  33.823  14.446
78681W        W50297  11.330  18.651   2.296
78682W        W50298   2.238  43.297   9.877
78683W        W50299   8.331  39.572  11.798
78684W        W50300  25.929   5.326   0.645
78685W        W50301   8.661   8.650   4.075
78686W        W50302  21.037  25.700  13.032
78687W        W50303  12.483  34.888   2.766
78688W        W50304  11.350  30.663   2.750
78689W        W50305  39.937  12.669   0.010
78690W        W50306  38.170  11.713  13.879
78691W        W50307  11.393  28.485  13.008
78692W        W50308   2.822  22.743  11.592
78693W        W50309   2.024  42.770   0.752
78694W        W50310  30.349  26.179  11.187
78695W        W50311  14.301   9.399   4.381
78696W        W50312  33.001  43.922  11.864
78697W        W50313   0.909   7.297  14.970
78698W        W50314  38.431   8.215  13.405
78699W        W50315  25.133  29.152   0.769
78700W        W50316  32.443  17.796  10.672
78701W        W50317  30.338  33.484  10.470
78702W        W50318   4.431  32.045  11.913
78703W        W50319   8.804   2.712   4.556
78704W        W50320  37.831  27.536   2.405
78705W        W50321  19.151  38.781  14.406
78706W        W50322   7.426  21.289  11.143
78707W        W50323  14.748  26.915   3.321
78708W        W50324  27.541   8.129   3.184
78709W        W50325  17.033  20.293   0.146
78710W        W50326  42.826   3.797  13.431
78711W        W50327   7.648  29.155   2.605
78712W        W50328  16.456  34.973  11.933
78713W        W50329   3.725  42.009   3.261
78714W        W50330  34.613   6.642   1.306
78715W        W50331   5.930  12.053  13.155
78716W        W50332   5.279  14.093   4.360
78717W        W50333   1.352  14.866  13.367
78718W        W50334   2.267   2.670   4.095
78719W        W50335  24.962  41.851   1.242
78720W        W50336  31.694  37.063  11.061
78721W        W50337  40.599   5.802   2.221
78722W        W50338  20.600  40.793  12.086
78723W        W50339  32.530  11.218   1.662
78724W        W50340   6.306  18.750  10.698
78725W        W50341   6.583   5.840  11.531
78726W        W50342   6.354  27.466  11.127
78727W        W50343  42.552  44.061   1.338
78728W        W50344   5.988  27.026   0.777
78729W        W50345  12.816  22.994  11.969
78730W        W50346   7.641   7.106  13.676
78731W        W50347  38.631   9.653  14.329
78732W        W50348  40.857  16.637   4.406
78733W        W50349  31.522   1.457  13.363
78734W        W50350  40.077  33.195  13.443
78735W        W50351  42.855  29.372   3.854
78736W        W50352  42.366   0.747  14.812
78737W        W50353  11.114   5.306   2.706
78738W        W50354  43.693  26.253  11.895
78739W        W50355  19.700  44.499   2.230
78740W        W50356  31.580  26.023   4.600
78741W        W50357  23.184  39.362  10.374
78742W        W50358  17.059  33.345   4.225
78743W        W50359  10.933  16.090  13.610
78744W        W50360  12.893  28.603  12.676
78745W        W50361  32.997  14.931   4.111
78746W        W50362   1.751  44.472  13.041
78747W        W50363  42.826  17.645   4.854
78748W        W50364   5.270   1.869   0.765
78749W        W50365  29.459   8.897   0.293
78750W        W50366   2.874  21.219   3.788
78751W        W50367  17.152  24.056  13.318
78752W        W50368  26.085  41.282   4.756
78753W        W50369  14.491  31.206   3.708
78754W        W50370  18.784  44.945  12.975
78755W        W50371  37.272  41.314   1.290
78756W        W50372   5.918  37.562  11.531
78757W        W50373  20.822  29.133  11.631
78758W        W50374  35.414  25.572  10.670
78759W        W50375  22.944  20.099  12.709
78760W        W50376  11.015  27.045  13.437
78761W        W50377  17.893  23.061  13.826
78762W        W50378  16.463  16.393  14.325
78763W        W50379  32.697   9.706   4.716
78764W        W50380   2.284  10.093   0.730
78765W        W50381  31.530  43.679   4.373
78766W        W50382  27.155  41.634  14.824
78767W        W50383  13.176  33.307   4.537
78768W        W50384  18.761  16.104   4.521
78769W        W50385   6.980  26.840  10.512
78770W        W50386  25.098  30.495   1.454
78771W        W50387  44.293  33.835  13.326
78772W        W50388   6.120   1.182   3.147
78773W        W50389  39.399   9.732  11.968
78774W        W50390  39.496   7.647   4.648
78775W        W50391  25.159   7.377   0.961
78776W        W50392  26.498  13.264   9.832
78777W        W50393   7.442  18.482   1.796
78778W        W50394   8.226  43.955  12.510
78779W        W50395   0.979  25.037  10.639
78780W        W50396   0.272  29.977  10.709
78781W        W50397  14.995  40.917  14.883
78782W        W50398  44.156   4.595  11.703
78783W        W50399  16.733  22.211   4.667
78784W        W50400  35.983   1.026  10.631
78785W        W50401  29.520  44.922  13.903
78786W        W50402  31.177  40.545  14.074
78787W        W50403  24.467  34.982   4.988
78788W        W50404  11.796  12.688  11.752
78789W        W50405  34.840  43.950   4.237
78790W        W50406   9.694  24.492  14.360
78791W        W50407  33.035  37.555  13.819
78792W        W50408  29.646   5.050  10.357
78793W        W50409  32.818  22.529   0.872
78794W        W50410  33.532   7.283  13.276
78795W        W50411  41.861   5.982   4.836
78796W        W50412  10.138  36.394   1.677
78797W        W50413   5.470  38.269  11.597
78798W        W50414   9.806  30.401  13.088
78799W        W50415   2.259  23.651  11.936
78800W        W50416  44.924  18.607  14.322
78801W        W50417  25.595  14.526   4.608
78802W        W50418   9.095  12.650  13.454
78803W        W50419  35.426  15.611  12.497
78804W        W50420  14.721  39.555  10.521
78805W        W50421  43.308   1.449   2.158
78806W        W50422   5.512  27.424   4.234
78807W        W50423  18.597  12.388   3.229
78808W        W50424  32.742  43.535  11.621
78809W        W50425  12.195   6.760  13.894
78810W        W50426  21.233  39.327  14.339
78811W        W50427  11.329  25.517  12.594
78812W        W50428  17.685  19.544   1.193
78813W        W50429  25.843  39.882  11.111
78814W        W50430   8.712  41.219  11.326
78815W        W50431  10.257  33.597   2.229
78816W        W50432  39.493  40.318   4.502
78817W        W50433   7.862  25.762   3.578
78818W        W50434  12.120  33.398  10.389
78819W        W50435   4.552  15.232   2.731
78820W        W50436  41.261  43.541   3.968
78821W        W50437  28.017  20.271  12.350
78822W        W50438  35.745   2.445   1.799
78823W        W50439  34.491  37.499  12.356
78824W        W50440  18.154  33.553  11.392
78825W        W50441  32.033  36.439  13.577
78826W        W50442  23.999   5.948   2.175
78827W        W50443  42.338  25.156  10.177
78828W        W50444   5.392  40.290   4.145
78829W        W50445  18.335  27.535   1.289
78830W        W50446   0.297   1.545   2.392
78831W        W50447  24.473  31.527  10.803
78832W        W50448  37.149  28.207  11.167
78833W        W50449  19.708  30.086  14.422
78834W        W50450  14.294  13.089  14.147
78835W        W50451   7.018  23.710   3.078
78836W        W50452  15.241   0.820   4.969
78837W        W50453   8.412  35.122  10.742
78838W        W50454  16.128  30.116   3.287
78839W        W50455  36.999  33.206  11.120
78840W        W50456  24.524  38.895   1.860
78841W        W50457  40.266  10.628  12.075
78842W        W50458  34.174   1.563   3.964
78843W        W50459  14.867   9.678   2.795
78844W        W50460  44.192   0.942   1.980
78845W        W50461   6.967  10.128  11.143
78846W        W50462  34.373  28.134   0.259
78847W        W50463  23.651  29.512   4.426
78848W        W50464  18.782  14.380   0.862
78849W        W50465   5.927  38.338   1.179
78850W        W50466   8.287  39.423   3.078
78851W        W50467  23.482   6.298  14.276
78852W        W50468   7.005  30.713   1.242
78853W        W50469   7.026  38.315  12.122
78854W        W50470  29.590   9.591   4.610
78855W        W50471  44.978  23.525   4.397
78856W        W50472   6.335  29.937   4.161
78857W        W50473   6.255  26.080   1.883
78858W        W50474  29.977  36.439  12.888
78859W        W50475  21.937  13.777   1.383
78860W        W50476  16.178  27.508  10.380
78861W        W50477  31.002  44.732   5.622
78862W        W50478  19.176  43.093  11.086
78863W        W50479   9.396  31.055   3.878
78864W        W50480   2.693  22.563  12.514
78865W        W50481  36.991  31.046  13.739
78866W        W50482  27.863  24.483  14.367
78867W        W50483  39.576  20.421   4.632
78868W        W50484  36.095  39.303   0.506
78869W        W50485  26.205  19.316  13.848
78870W        W50486  10.927  33.900   2.691
78871W        W50487  25.129  17.567  12.045
78872W        W50488   8.927  28.423   3.707
78873W        W50489  42.115   8.803  13.080
78874W        W50490  35.655  19.826  11.868
78875W        W50491  23.278  30.206  11.294
78876W        W50492   5.195  13.855  13.934
78877W        W50493  31.908   7.342   4.226
78878W        W50494  25.050  22.917  12.963
78879W        W50495  18.649  29.624  13.055
78880W        W50496  23.765  12.325   1.897
78881W        W50497  27.517   9.678   1.225
78882W        W50498   2.241  27.021  14.486
78883W        W50499  21.704   6.293  14.496
78884W        W50500  33.260  16.670  13.001
78885W        W50501  35.400  20.078  10.487
78886W        W50502   7.636  21.427   4.114
78887W        W50503   0.411  34.236  14.763
78888W        W50504  26.154  20.249  10.432
78889W        W50505   1.186  15.717   0.094
78890W        W50506  41.428   3.049  13.481
78891W        W50507   5.475  23.464  14.380
78892W        W50508  44.512  13.464   4.455
78893W        W50509  16.206  21.006   4.855
78894W        W50510   1.992  14.642  13.045
78895W        W50511  21.535  19.220  11.926
78896W        W50512  16.406  33.325   3.728
78897W        W50513  28.518  40.678   3.767
78898W        W50514  13.073  23.103   1.936
78899W        W50515   5.823  18.632  14.431
78900W        W50516   6.341  38.448   3.644
78901W        W50517  39.642  29.084  12.471
78902W        W50518  24.554  21.958   1.661
78903W        W50519  39.461  29.904  14.278
78904W        W50520  35.943  42.692  14.493
78905W        W50521  13.812   1.273  10.393
78906W        W50522  21.432  25.567   4.635
78907W        W50523  35.569  25.427   2.905
78908W        W50524   5.399  28.926   0.738
78909W        W50525  41.891  41.593   4.641
78910W        W50526  36.401  37.295   0.752
78911W        W50527  32.925  37.024  12.976
78912W        W50528  32.880   3.262   0.968
78913W        W50529  43.889  20.964   0.038
78914W        W50530  40.262  27.336  12.135
78915W        W50531  37.988  36.600  11.272
78916W        W50532  14.424  10.347  13.383
78917W        W50533  29.745  30.781   2.173
78918W        W50534  16.750   8.817   2.280
78919W        W50535   5.781  31.367  13.103
78920W        W50536  22.679  14.640  12.960
78921W        W50537  18.815  20.646   2.958
78922W        W50538  18.550  39.346   2.014
78923W        W50539  26.987  31.391   0.336
78924W        W50540   1.199  39.999   2.678
78925W        W50541  22.120  10.667   4.967
78926W        W50542  42.914  22.506   2.264
78927W        W50543  14.302   2.306   1.367
78928W        W50544  28.478  17.802  11.185
78929W        W50545   6.078  21.441   2.851
78930W        W50546  17.447  30.805   0.343
78931W        W50547  16.905  24.731  11.061
78932W        W50548  20.678  43.332   2.805
78933W        W50549  29.006  29.221   2.837
78934W        W50550   8.708  14.103   2.261
78935W        W50551  34.988   8.927  10.483
78936W        W50552  18.290  19.704  13.873
78937W        W50553   8.710  32.048  11.006
78938W        W50554  28.980   2.935   4.745
78939W        W50555  15.802  16.072  10.272
78940W        W50556  23.351  26.532  10.712
78941W        W50557  41.422  12.044  10.636
78942W        W50558  42.479  40.280  12.394
78943W        W50559  20.116  33.518  14.694
78944W        W50560   3.883  28.064   3.233
78945W        W50561  26.582   6.410  13.813
78946W        W50562   1.580  26.067  13.382
78947W        W50563   9.202  14.158  13.934
78948W        W50564  13.692  37.587  13.785
78949W        W50565  22.288  40.430   3.122
78950W        W50566  42.978   6.510   4.887
78951W        W50567  40.113  16.308   1.769
78952W        W50568  22.950  37.264  12.482
78953W        W50569  32.391  28.610  11.564
78954W        W50570  30.180  40.064  13.923
78955W        W50571  31.210   4.614  11.133
78956W        W50572   9.731  10.927  13.351
78957W        W50573  16.543   5.348  10.659
78958W        W50574  41.123  22.022   3.869
78959W        W50575   2.358  24.558   4.411
78960W        W50576  22.789  11.462   2.597
78961W        W50577  42.535  41.165   4.161
78962W        W50578  40.438  44.352   4.584
78963W        W50579  35.352  23.994   1.882
78964W        W50580  12.657  10.631  11.145
78965W        W50581  21.810  43.065   0.256
78966W        W50582  15.833  40.833   4.864
78967W        W50583  11.826  33.431  11.680
78968W        W50584  44.367  38.822   3.737
78969W        W50585   7.945  37.749  11.209
78970W        W50586  38.549  25.000  11.152
78971W        W50587   3.494   1.571  11.884
78972W        W50588  33.320  26.244   1.684
78973W        W50589  42.572   5.294   3.821
78974W        W50590  32.635  10.183  12.151
78975W        W50591  21.514   5.174   3.180
78976W        W50592  28.066  21.767   3.802
78977W        W50593  15.018   5.813   4.917
78978W        W50594  29.390  23.100   4.904
78979W        W50595  31.837  30.404  13.491
78980W        W50596  40.555  33.495  11.061
78981W        W50597  38.827  27.602   2.739
78982W        W50598  39.494  43.005  12.428
78983W        W50599  12.254  34.182  14.226
78984W        W50600  34.942  35.286  12.967
78985W        W50601  42.853  10.433   2.713
78986W        W50602   5.241  15.369  13.394
78987W        W50603  10.914  29.020   1.711
78988W        W50604  23.038  24.060  11.719
78989W        W50605  44.997  28.170   0.141
78990W        W50606  33.879  26.082  11.168
78991W        W50607   5.389  28.699  13.448
78992W        W50608  29.720  23.178  13.752
78993W        W50609  15.972  24.237  11.569
78994W        W50610  31.680   2.010   5.176
78995W        W50611  34.922   0.392   4.849
78996W        W50612  38.742  19.019  11.533
78997W        W50613   7.170   4.929   0.873
78998W        W50614   4.901  40.208   2.286
78999W        W50615   2.739  33.573   4.268
79000W        W50616  14.095  31.047   3.411
79001W        W50617  13.900  17.319   5.744
79002W        W50618  34.880  26.217   4.169
79003W        W50619  25.625  14.675   9.797
79004W        W50620  20.694  24.039  10.825
79005W        W50621  23.119  34.845   4.067
79006W        W50622  17.261  19.764   0.243
79007W        W50623  25.597   6.437  13.964
79008W        W50624  31.450   9.256   2.709
79009W        W50625   9.451  26.456  11.946
79010W        W50626  21.634  11.135   2.786
79011W        W50627   6.742  33.261   3.151
79012W        W50628  24.288  39.308  11.570
79013W        W50629   7.476  42.268   4.547
79014W        W50630   3.891  38.463  11.576
79015W        W50631  19.859   2.855  11.953
79016W        W50632  22.640  43.880   0.692
79017W        W50633   7.622  15.341  13.891
79018W        W50634  35.877  18.361  12.953
79019W        W50635  28.364  37.605  12.065
79020W        W50636  18.327   5.620   2.042
79021W        W50637  12.304   5.058  11.543
79022W        W50638  40.576  29.499  11.982
79023W        W50639  36.955   2.859  12.771
79024W        W50640   4.528  39.938  12.971
79025W        W50641   8.183  39.130   4.313
79026W        W50642  38.431  20.562  11.174
79027W        W50643  24.021   0.890   4.039
79028W        W50644  38.759  25.992   0.861
79029W        W50645  36.940  41.823   1.695
79030W        W50646  11.271   9.049   3.540
79031W        W50647  16.759  23.050  14.317
79032W        W50648   0.009  38.950  10.462
79033W        W50649  12.822  21.640  11.575
79034W        W50650  27.729  23.169   4.795
79035W        W50651  39.740  14.065  14.116
79036W        W50652   3.092  29.921  14.052
79037W        W50653   3.815  30.703  12.836
79038W        W50654  17.033  39.957  12.624
79039W        W50655  16.734  43.815  10.291
79040W        W50656  35.484  22.021   1.843
79041W        W50657   0.854  18.284  12.941
79042W        W50658  43.908  10.861   4.039
79043W        W50659  23.897  21.228   3.070
79044W        W50660  15.981   4.931   2.489
79045W        W50661  27.031   4.779  10.737
79046W        W50662  33.981  35.505  12.588
79047W        W50663  15.788   1.484   3.363
79048W        W50664  26.088  28.421   1.433
79049W        W50665   6.199  36.423   0.890
79050W        W50666  25.223  36.357   5.117
79051W        W50667   2.409   2.169  13.867
79052W        W50668  15.713  33.115   4.750
79053W        W50669   6.896   0.856  14.807
79054W        W50670   9.799  25.664   4.257
79055W        W50671   6.272   8.279   2.671
79056W        W50672   7.743  43.254  13.438
79057W        W50673  36.260  20.772  14.321
79058W        W50674  44.967  31.425   0.453
79059W        W50675  43.000  11.842   5.147
79060W        W50676  23.501   0.922   0.770
79061W        W50677   5.473  16.976   3.398
79062W        W50678  43.935  36.805   0.826
79063W        W50679  39.015  37.133  11.634
79064W        W50680  37.869   8.622   2.128
79065W        W50681  20.617  12.291  14.877
79066W        W50682   6.788  24.227   4.114
79067W        W50683  21.037   7.372  12.533
79068W        W50684  25.001  28.159  14.807
79069W        W50685  37.956  40.005   2.300
79070W        W50686  10.973  44.356  10.103
79071W        W50687  14.160  34.092  14.906
79072W        W50688  37.362  12.332   0.405
79073W        W50689  11.429   2.071  12.897
79074W        W50690  12.620  26.605   0.153
79075W        W50691   7.247  13.809   4.684
79076W        W50692  31.496  28.899   0.873
79077W        W50693  12.150  37.932  12.872
79078W        W50694  20.797  26.646  13.820
79079W        W50695  19.279   1.383   3.144
79080W        W50696  23.207  44.286   4.310
79081W        W50697   8.093  32.464  10.719
79082W        W50698  20.018  20.272  14.349
79083W        W50699  25.451  31.831   2.990
79084W        W50700  43.283  21.764  14.904
79085W        W50701  16.718  26.556  13.829
79086W        W50702  30.141  24.541   4.916
79087W        W50703  14.603  12.911   4.114
79088W        W50704   5.773  30.180  11.689
79089W        W50705  27.911   5.298  11.644
79090W        W50706  17.801  35.820  12.014
79091W        W50707  12.659   9.698   4.057
79092W        W50708  40.041  35.668  14.733
79093W        W50709   2.378  44.595  14.850
79094W        W50710  17.050  24.114  12.816
79095W        W50711  13.322   4.995   2.845
79096W        W50712  29.186  12.562  12.580
79097W        W50713  22.925  26.695   0.353
79098W        W50714   4.438   0.076   5.019
79099W        W50715  43.303  29.191  12.063
79100W        W50716  26.703  25.669   0.860
79101W        W50717  43.591  26.422  12.861
79102W        W50718   4.602  22.922   2.711
79103W        W50719  31.373   5.375   4.161
79104W        W50720  28.511  43.954  14.299
79105W        W50721  27.215  26.006   0.173
79106W        W50722  33.971  22.201   1.798
79107W        W50723  44.899  19.368  11.611
79108W        W50724   7.220  21.133   3.947
79109W        W50725   3.449   6.333  13.860
79110W        W50726  26.722  37.996  14.918
79111W        W50727   5.175   5.405   1.877
79112W        W50728   8.033  36.616   3.179
79113W        W50729  22.717   1.151   0.274
79114W        W50730   7.553  22.858  12.913
79115W        W50731  22.962  13.123  10.789
79116W        W50732  29.108   7.308   4.279
79117W        W50733  25.004  43.732   4.794
79118W        W50734  32.672   5.054   0.888
79119W        W50735  16.099  32.204   1.723
79120W        W50736   4.796   9.884   3.578
79121W        W50737  30.629  34.455  11.469
79122W        W50738   2.965  26.616  12.416
79123W        W50739   5.004  22.081   2.344
79124W        W50740  37.797  40.961  12.856
79125W        W50741  12.598   5.826   4.620
79126W        W50742  34.600   3.494  14.088
79127W        W50743  25.440  16.231   5.519
79128W        W50744  40.631   1.760  10.284
79129W        W50745  32.958  26.479  13.898
79130W        W50746  30.674  23.750  13.373
79131W        W50747  44.256   7.507   2.253
79132W        W50748   0.471   8.808  12.055
79133W        W50749  32.472  28.206   3.248
79134W        W50750  23.555   6.950   3.494
79135W        W50751   1.699  37.522  12.591
79136W        W50752  12.344  37.631  13.774
79137W        W50753  25.441   9.682  13.048
79138W        W50754   9.344   9.863   1.688
79139W        W50755  43.417  23.081   1.762
79140W        W50756  23.122  14.348  11.553
79141W        W50757  10.363  44.956  12.486
79142W        W50758   1.044  43.744   2.367
79143W        W50759  23.895  29.006  12.054
79144W        W50760  36.993  21.582   4.573
79145W        W50761   0.266  37.876   2.166
79146W        W50762  40.448  40.214  10.752
79147W        W50763  24.519   5.449  13.942
79148W        W50764  42.996   7.848  10.740
79149W        W50765   9.275  40.119  13.606
79150W        W50766   5.187  30.559  10.607
79151W        W50767  41.990  40.118   4.699
79152W        W50768  11.385  34.130  12.919
79153W        W50769  34.922  23.951  14.542
79154W        W50770   7.747   2.709  12.890
79155W        W50771  19.759  43.939  14.521
79156W        W50772  44.424  34.806  11.594
79157W        W50773   4.418  19.027   2.884
79158W        W50774  34.410  32.518  13.396
79159W        W50775   5.731   2.491  11.165
79160W        W50776  31.495  20.783  12.078
79161W        W50777  41.039  19.571  13.001
79162W        W50778  29.232  25.409  12.385
79163W        W50779   6.359   1.144  14.386
79164W        W50780  24.742  27.729  14.610
79165W        W50781  35.496  43.199   1.849
79166W        W50782  44.212  12.533   1.387
79167W        W50783  27.177  10.734  14.859
79168W        W50784  19.536   6.463   4.964
79169W        W50785  44.418  32.060  11.099
79170W        W50786  34.197  27.362   1.831
79171W        W50787  23.491  10.646   4.190
79172W        W50788   7.658  12.718  14.965
79173W        W50789  31.414  10.302  11.738
79174W        W50790  35.016  40.490   0.188
79175W        W50791  15.065   8.831  14.998
79176W        W50792  23.185  24.244   3.151
79177W        W50793   0.660   2.871   0.815
79178W        W50794  38.544  35.527   2.109
79179W        W50795  19.681  25.606   3.681
79180W        W50796  29.934  39.512   1.263
79181W        W50797  22.811  15.364   3.558
79182W        W50798  18.292  30.701  11.652
79183W        W50799  25.612  11.376  11.556
79184W        W50800   7.492   1.278  13.537
79185W        W50801   7.059  33.620   1.415
79186W        W50802  42.440   1.244   0.035
79187W        W50803  27.198  27.639  12.412
79188W        W50804  25.804  18.655  11.882
79189W        W50805  33.527  31.564  11.591
79190W        W50806  35.840  10.919   1.547
79191W        W50807  10.745  28.482  11.650
79192W        W50808  32.943  38.684   3.305
79193W        W50809  22.493  30.720  11.694
79194W        W50810  27.129   9.615  10.965
79195W        W50811   9.660   5.181  11.095
79196W        W50812  13.788  28.136  10.682
79197W        W50813  13.826  14.368  14.293
79198W        W50814  15.545  27.800  12.587
79199W        W50815  31.556   0.619  12.295
79200W        W50816  18.708   6.189  11.218
79201W        W50817  12.577   1.542  14.926
79202W        W50818  28.339  31.650   0.640
79203W        W50819  35.173  24.624  14.335
79204W        W50820   8.804   4.436   2.354
79205W        W50821   1.756   5.977  12.236
79206W        W50822  30.893  12.184   3.127
79207W        W50823  21.777   6.495  13.977
79208W        W50824  36.590  18.751  11.561
79209W        W50825  14.886  32.564   3.830
79210W        W50826   4.189  21.183  10.536
79211W        W50827  10.831  30.896  11.867
79212W        W50828  41.345  40.724   1.911
79213W        W50829   8.684  37.106  11.179
79214W        W50830  38.922  24.937  10.810
79215W        W50831   0.834  38.850   0.632
79216W        W50832  38.444   4.465   1.782
79217W        W50833  26.176  39.968   4.588
79218W        W50834  19.448  20.164  14.312
79219W        W50835  34.883  40.297  11.650
79220W        W50836  36.320  25.100   0.107
79221W        W50837  30.944  16.389   0.517
79222W        W50838  25.702  43.080   4.082
79223W        W50839  42.007  26.500   3.005
79224W        W50840  26.143  18.157   1.798
79225W        W50841   4.287  12.273   3.711
79226W        W50842  28.268  20.604   3.093
79227W        W50843  24.071  33.477  13.076
79228W        W50844  37.008  22.805   3.275
79229W        W50845  40.220  29.661   4.593
79230W        W50846  17.978  24.663   3.653
79231W        W50847  27.464  26.098   4.723
79232W        W50848   9.317   2.119   4.129
79233W        W50849  22.625  15.806  11.012
79234W        W50850   8.472   7.831   2.263
79235W        W50851  41.575  29.265   1.665
79236W        W50852  15.016   0.891  12.509
79237W        W50853  11.167  13.300   4.085
79238W        W50854  37.092   2.419   2.364
79239W        W50855  34.888   1.729   0.303
79240W        W50856  38.448  30.460  10.935
79241W        W50857   5.346  16.620   1.867
79242W        W50858  13.863  40.255  12.919
79243W        W50859   6.668  44.961   0.360
79244W        W50860   2.276  18.961   3.224
79245W        W50861  31.879   4.437   1.450
79246W        W50862  41.420  40.277  14.911
79247W        W50863  31.821   4.456   2.337
79248W        W50864  21.272   0.275   4.154
79249W        W50865   4.117  27.793   4.101
79250W        W50866  33.644  20.803   3.840
79251W        W50867  36.146  29.519  10.709
79252W        W50868  38.770  25.164  14.826
79253W        W50869  19.947  23.993  12.708
79254W        W50870  11.321  19.734  14.755
79255W        W50871  22.287  17.023  12.037
79256W        W50872  42.317  21.763   1.326
79257W        W50873  20.783   6.305   0.774
79258W        W50874  44.066   6.184   4.093
79259W        W50875  33.553  10.217  14.315
79260W        W50876  30.625  16.063  13.346
79261W        W50877  37.338   9.184  14.613
79262W        W50878  28.970  24.669  13.793
79263W        W50879  24.589  20.759  10.741
79264W        W50880  21.788  27.554  10.755
79265W        W50881   6.143  17.081   0.368
79266W        W50882  32.901  39.245   2.322
79267W        W50883  13.904  41.744  11.135
79268W        W50884  32.541   2.480   5.059
79269W        W50885  20.642  14.093   2.674
79270W        W50886  10.098  25.822   3.144
79271W        W50887  20.768  41.461  14.518
79272W        W50888   9.798   7.255   2.305
79273W        W50889  17.302  10.256  12.972
79274W        W50890  15.558  18.766   4.567
79275W        W50891  17.070  43.363  10.311
79276W        W50892  44.929  13.093   1.352
79277W        W50893  15.689  12.325   3.327
79278W        W50894  41.405   9.329  10.670
79279W        W50895  15.503  28.793   2.714
79280W        W50896  22.002   3.314   4.081
79281W        W50897  18.604  31.058   3.595
79282W        W50898  15.095  30.883   0.533
79283W        W50899  30.626  28.457   2.720
79284W        W50900  24.747  16.729   2.762
79285W        W50901   7.175  23.758   2.307
79286W        W50902  40.950  43.264  13.724
79287W        W50903  25.642  14.505  14.868
79288W        W50904  33.578  34.391   2.151
79289W        W50905  41.277  32.525  11.335
79290W        W50906  26.188  13.358   2.207
79291W        W50907  22.218  32.669   3.132
79292W        W50908  39.309  41.672   3.211
79293W        W50909   2.717  17.620   2.335
79294W        W50910  30.397  20.271   4.807
79295W        W50911  40.971  21.330   3.226
79296W        W50912   3.272  28.824   2.394
79297W        W50913  10.991  42.321   4.649
79298W        W50914   2.765  31.400   2.033
79299W        W50915  24.593   3.108  11.135
79300W        W50916   1.535  40.992  11.517
79301W        W50917  44.820  19.262  12.983
79302W        W50918  13.901   6.366  11.492
79303W        W50919   4.960   8.916  14.443
79304W        W50920  26.016  18.651  14.696
79305W        W50921  25.922   3.931   2.829
79306W        W50922  26.235  42.019   1.666
79307W        W50923  44.415  40.583   4.196
79308W        W50924   9.609  22.748  13.407
79309W        W50925  20.204  19.978   4.759
79310W        W50926  22.257   5.380   3.636
79311W        W50927  12.302   1.702  14.092
79312W        W50928   4.567  28.969   1.743
79313W        W50929  39.060  26.044  11.013
79314W        W50930  29.566  14.208  14.751
79315W        W50931  21.265  37.909   4.608
79316W        W50932  31.515  12.250   3.315
79317W        W50933  40.225  41.048   2.430
79318W        W50934  10.221  40.430   1.775
79319W        W50935  30.669  37.498  11.622
79320W        W50936  26.955  12.315  12.073
79321W        W50937  22.321   0.685   3.257
79322W        W50938  18.546  42.457   2.699
79323W        W50939  24.617  20.752  11.604
79324W        W50940  40.121  33.227  11.137
79325W        W50941  36.558  18.305  12.654
79326W        W50942  21.552   4.749   4.500
79327W        W50943   9.884  17.613   0.355
79328W        W50944  17.575  39.507   0.926
79329W        W50945   3.914   6.410  14.086
79330W        W50946   2.884  27.618   3.230
79331W        W50947  41.831  10.455   1.856
79332W        W50948  30.517   2.008   0.317
79333W        W50949  22.678  16.271   0.825
79334W        W50950  19.715   3.273  13.613
79335W        W50951  29.179  39.593  11.818
79336W        W50952   8.429   2.985   1.342
79337W        W50953   6.867   3.389   0.353
79338W        W50954   6.124  36.926   0.725
79339W        W50955  43.382   2.168  13.128
79340W        W50956  41.023  33.148  11.158
79341W        W50957  34.793  36.040  12.502
79342W        W50958  24.534  16.787   2.170
79343W        W50959  19.568   0.167  12.244
79344W        W50960  30.400  31.644  11.897
79345W        W50961   3.747  14.871  13.066
79346W        W50962  38.173  38.817   2.767
79347W        W50963  20.330  14.769   4.539
79348W        W50964  25.682  27.587   4.336
79349W        W50965  38.898  31.099  14.375
79350W        W50966  40.275  14.078   4.999
79351W        W50967  16.101   2.470   0.719
79352W        W50968   4.656  25.589  11.869
79353W        W50969  44.942  34.071  11.590
79354W        W50970   3.318  41.091   1.805
79355W        W50971  44.819  26.513  11.674
79356W        W50972  34.870  26.993  13.769
79357W        W50973  34.529  43.262   0.459
79358W        W50974  24.746  23.613  11.546
79359W        W50975  13.669   2.851   3.973
79360W        W50976   9.420   6.565  12.999
79361W        W50977  35.430   8.925   0.683
79362W        W50978  10.614  31.923   2.413
79363W        W50979  19.099   3.406  11.054
79364W        W50980  14.767  13.900   2.613
79365W        W50981   3.355  42.752  14.443
79366W        W50982   9.830  11.399  14.404
79367W        W50983  44.834  14.153   2.747
79368W        W50984   8.997  36.439  11.526
79369W        W50985  32.383  38.010   2.395
79370W        W50986  41.899   0.532   4.259
79371W        W50987  31.161  36.578   2.193
79372W        W50988   0.150  29.730   0.010
79373W        W50989  15.352  31.816   3.535
79374W        W50990  21.821  19.620   4.489
79375W        W50991  40.458   2.932  11.678
79376W        W50992  32.978  20.081  14.995
79377W        W50993   3.926   4.316   4.615
79378W        W50994  38.846  38.507   5.057
79379W        W50995  14.350  37.340  13.039
79380W        W50996  29.080  25.269  11.484
79381W        W50997  12.126   8.820  12.977
79382W        W50998  40.998  40.785  12.897
79383W        W50999  16.822  24.374  14.146
79384W        W51000  42.051  24.504  14.315
79385W        W51001  13.112  20.643   1.428
79386W        W51002  35.555  37.454   3.389
79387W        W51003  33.922  16.812  10.715
79388W        W51004  25.731  20.266   3.360
79389W        W51005  11.313   1.088  13.680
79390W        W51006  12.256  40.815  14.447
79391W        W51007  21.140   9.349   1.134
79392W        W51008  32.005  31.042   3.175
79393W        W51009   7.526   7.808   2.420
79394W        W51010  37.018  13.189   1.283
79395W        W51011   9.783  42.852  10.590
79396W        W51012  44.563   2.867   2.598
79397W        W51013   6.169  11.258  11.132
79398W        W51014   8.325   8.247   4.098
79399W        W51015   9.855  24.506   1.846
79400W        W51016  35.591  16.655  13.778
79401W        W51017  38.531   6.843  12.111
79402W        W51018  37.900   8.545   3.383
79403W        W51019  21.154  13.152   2.440
79404W        W51020  35.482  28.370   3.126
79405W        W51021  19.287   8.311  13.875
79406W        W51022  25.271  31.046   4.697
79407W        W51023  19.461  29.538   3.581
79408W        W51024   5.232  11.574  11.933
79409W        W51025  12.722  13.921  13.079
79410W        W51026  19.610   3.909  10.658
79411W        W51027   6.817  26.490   1.935
79412W        W51028  25.418   0.879  12.401
79413W        W51029   9.580  41.961   2.512
79414W        W51030  38.196  31.309   0.355
79415W        W51031   1.409  22.847   9.766
79416W        W51032  26.019  26.283  11.030
79417W        W51033   7.767  22.996   0.490
79418W        W51034  22.268   4.718   4.164
79419W        W51035  34.032   7.747  11.061
79420W        W51036  12.304   3.903  12.002
79421W        W51037  14.121   3.887   5.542
79422W        W51038  36.332   8.100  12.117
79423W        W51039  24.546  20.176  13.468
79424W        W51040  14.621  40.846  10.738
79425W        W51041  32.666  37.941   0.444
79426W        W51042  13.371  41.672  13.779
79427W        W51043  33.680  13.075   4.545
79428W        W51044  41.758  32.425  13.364
79429W        W51045  22.778  13.114   3.214
79430W        W51046  27.410  41.802   2.352
79431W        W51047  36.129   8.863   1.739
79432W        W51048   0.792  12.935   4.566
79433W        W51049  10.851  32.895  10.860
79434W        W51050  42.077   6.313   1.680
79435W        W51051   7.666  22.317   1.867
79436W        W51052  40.780  18.549  13.171
79437W        W51053  17.812   7.307   0.743
79438W        W51054  44.977   0.875   4.453
79439W        W51055  44.741  18.134  12.447
79440W        W51056   5.187  24.231  13.985
79441W        W51057  21.966  33.922  11.112
79442W        W51058   3.051  10.777  10.966
79443W        W51059  39.996   9.348  13.074
79444W        W51060  24.714   6.881   1.461
79445W        W51061   3.808  10.434  10.367
79446W        W51062  26.666  18.052  13.784
79447W        W51063  41.009   9.438   2.120
79448W        W51064  43.329  20.760   1.450
79449W        W51065  28.430  39.394   3.636
79450W        W51066  29.748  44.956   4.242
79451W        W51067   0.318   6.422   1.383
79452W        W51068   0.841  13.562   2.568
79453W        W51069  39.369   6.073   1.940
79454W        W51070  44.934   0.535  14.263
79455W        W51071   7.436  25.718   1.226
79456W        W51072  42.335  21.682  13.413
79457W        W51073  18.387  25.051  11.118
79458W        W51074  24.047  19.290   2.290
79459W        W51075  43.939  23.176   1.932
79460W        W51076  26.626   2.873   0.310
79461W        W51077  43.323  18.417  11.027
79462W        W51078  25.198  28.499  14.436
79463W        W51079   9.886  18.678  14.752
79464W        W51080  39.099  43.508   3.166
79465W        W51081  22.982  34.887  12.030
79466W        W51082  40.412  16.247  12.837
79467W        W51083   1.548  16.813   0.855
79468W        W51084  21.528  27.926  12.071
79469W        W51085  10.370   6.417  12.560
79470W        W51086  15.645  14.661   4.907
79471W        W51087  18.971  40.711  11.354
79472W        W51088   5.280   7.711  14.018
79473W        W51089  40.039  14.324   1.865
79474W        W51090   8.417  16.589  14.381
79475W        W51091  43.315  36.427  12.560
79476W        W51092  30.091  28.679  13.470
79477W        W51093  30.587  27.724   2.289
79478W        W51094   5.888   9.249  14.148
79479W        W51095  10.884  41.865   1.963
79480W        W51096   6.779   3.085  10.728
79481W        W51097  12.636  37.050  14.808
79482W        W51098  24.518  16.955   4.929
79483W        W51099  39.139  29.471   1.668
79484W        W51100  26.370  21.848  14.976
79485W        W51101  16.707  35.435   3.349
79486W        W51102  42.387   5.967  10.972
79487W        W51103  24.529  28.499  11.503
79488W        W51104  22.689  13.925   0.802
79489W        W51105  23.319  27.637  12.404
79490W        W51106  27.624  20.432  11.116
79491W        W51107  10.452  39.078   4.132
79492W        W51108   3.325  29.455  10.595
79493W        W51109   7.348  44.076   0.700
79494W        W51110  42.483  41.281   1.810
79495W        W51111   8.651  32.392  14.893
79496W        W51112  22.064  17.783   0.382
79497W        W51113   3.191  19.026   5.037
79498W        W51114  13.013   9.931   0.023
79499W        W51115  34.449  12.263  13.427
79500W        W51116  17.379  17.645   4.124
79501W        W51117  35.705  19.378  13.684
79502W        W51118   4.448   8.804  10.919
79503W        W51119  18.111  41.051   0.024
79504W        W51120  43.919   4.761  13.793
79505W        W51121  10.410   8.674  12.689
79506W        W51122   5.420  15.287   0.035
79507W        W51123  12.122  26.388   0.780
79508W        W51124  17.667   5.081   4.980
79509W        W51125  13.947  40.186   2.819
79510W        W51126  11.140  21.757   4.257
79511W        W51127  38.340  40.838   1.054
79512W        W51128  12.238  29.696  11.547
79513W        W51129  36.877   6.963   1.556
79514W        W51130  19.506  21.579  13.890
79515W        W51131  24.097  12.083  14.935
79516W        W51132  13.648  22.186   1.359
79517W        W51133  37.776  23.726   1.847
79518W        W51134  43.910   4.703   2.219
79519W        W51135  28.248  28.208  10.311
79520W        W51136  34.588   9.293   0.299
79521W        W51137  10.757   2.637   2.774
79522W        W51138  31.890  19.765   1.268
79523W        W51139  31.340  41.322  11.548
79524W        W51140  22.753  16.122  10.616
79525W        W51141  34.114  14.152   2.177
79526W        W51142  15.078  15.570  12.915
79527W        W51143  23.832   0.273   5.028
79528W        W51144  29.694  31.552   1.620
79529W        W51145  30.680  28.526   1.751
79530W        W51146   7.274  10.649  10.721
79531W        W51147  43.468  17.002   4.549
79532W        W51148  29.345  13.818  14.484
79533W        W51149  15.292  28.930  12.605
79534W        W51150  26.076  40.487   0.804
79535W        W51151  24.115  29.871  10.226
79536W        W51152   3.847  28.154   2.225
79537W        W51153   9.449  32.894  12.943
79538W        W51154  30.426  42.963   1.797
79539W        W51155  23.704  29.523  14.066
79540W        W51156  23.628   6.011  13.426
79541W        W51157   5.364  40.842   4.141
79542W        W51158   7.865  31.215   0.899
79543W        W51159  24.297  15.610  14.219
79544W        W51160  16.925  32.108  11.562
79545W        W51161  14.938  26.227  11.099
79546W        W51162   3.847  42.640  11.024
79547W        W51163  34.851  10.371  10.667
79548W        W51164  44.889  42.442  12.356
79549W        W51165  28.658  34.097  13.795
79550W        W51166  39.600  10.604   9.706
79551W        W51167  17.616  13.145   0.555
79552W        W51168  34.663  21.971   0.536
79553W        W51169   9.234  16.025  11.495
79554W        W51170   7.815   1.311   1.922
79555W        W51171  18.608  44.830   2.846
79556W        W51172   9.377  18.207  11.131
79557W        W51173  38.923   1.271   1.649
79558W        W51174   6.627   1.932  11.604
79559W        W51175   9.517  25.088  12.890
79560W        W51176  32.164  29.414   4.314
79561W        W51177  15.663  12.603   2.242
79562W        W51178  44.377  21.904  13.382
79563W        W51179  14.555  28.287  11.166
79564W        W51180  21.018  43.765  14.903
79565W        W51181  15.243  41.951  14.877
79566W        W51182  27.202  31.329   2.453
79567W        W51183  16.338   8.679  11.130
79568W        W51184  17.564   0.300   1.415
79569W        W51185  30.003  27.019   3.231
79570W        W51186  25.727  22.125  10.781
79571W        W51187  34.433   0.766   4.710
79572W        W51188  10.159  35.594   4.508
79573W        W51189  15.783   9.138   2.798
79574W        W51190   1.863  16.325  13.570
79575W        W51191   3.437   8.317   4.801
79576W        W51192  22.656  41.032  11.534
79577W        W51193   6.392  30.656   3.717
79578W        W51194   1.885  31.508  11.860
79579W        W51195  13.094  38.637   0.480
79580W        W51196  32.582  27.176   3.243
79581W        W51197  12.101   6.949   2.775
79582W        W51198   7.351  30.152   4.415
79583W        W51199  31.697  33.908   1.289
79584W        W51200  39.409  23.320   1.190
79585W        W51201  26.447  44.978  12.465
79586W        W51202  39.670  30.843  14.380
79587W        W51203   4.279  43.676   2.293
79588W        W51204  33.313  18.588  14.835
79589W        W51205   0.980  16.691  11.976
79590W        W51206  16.957  43.271  11.614
79591W        W51207  31.969  29.691   0.879
79592W        W51208   3.814  23.587   1.948
79593W        W51209  13.251  19.579   0.438
79594W        W51210  29.503  24.262   0.303
79595W        W51211  16.284  21.817   3.354
79596W        W51212  17.655  33.822  11.949
79597W        W51213   6.729  19.654   0.187
79598W        W51214  39.328  33.879   1.158
79599W        W51215  13.562   1.975   0.568
79600W        W51216   5.559  40.143  12.887
79601W        W51217  23.063  36.116   2.328
79602W        W51218  44.385   7.848  13.801
79603W        W51219   9.138  10.286  10.650
79604W        W51220  10.406  42.351   2.622
79605W        W51221  15.552  38.141  10.071
79606W        W51222  13.825   5.313   2.971
79607W        W51223  24.157  21.451  14.435
79608W        W51224   2.977   6.972   2.748
79609W        W51225   7.749  42.719   4.584
79610W        W51226   7.462  38.514   2.186
79611W        W51227  16.158   2.967   2.658
79612W        W51228  19.625  14.705   3.685
79613W        W51229  31.419  39.196   1.468
79614W        W51230  35.807   7.646  14.938
79615W        W51231   0.936  17.356   4.547
79616W        W51232  20.660  26.260  14.606
79617W        W51233   7.887  40.517  13.796
79618W        W51234  23.803  39.530  11.628
79619W        W51235   6.907   5.671   3.787
79620W        W51236  27.581   7.964  13.984
79621W        W51237  12.263  22.131  13.877
79622W        W51238  43.530  32.588  14.781
79623W        W51239  41.799  11.526  13.045
79624W        W51240  27.568  28.946   1.356
79625W        W51241   2.718  39.550  12.073
79626W        W51242  28.888  33.415   1.809
79627W        W51243  18.784  41.407   4.061
79628W        W51244  21.264  29.401   0.890
79629W        W51245  40.564  20.957   3.001
79630W        W51246   6.275  35.518   4.092
79631W        W51247  25.436  18.402   0.232
79632W        W51248   1.185  39.632  13.726
79633W        W51249  14.780  21.755   0.919
79634W        W51250  26.935   4.986   5.029
79635W        W51251  34.181   7.644  13.783
79636W        W51252  30.174  10.153  12.823
79637W        W51253  30.294  43.349  14.875
79638W        W51254  23.242  15.156   2.743
79639W        W51255   9.612   5.851  11.648
79640W        W51256  15.578   9.681  14.784
79641W        W51257  32.046  25.070   0.053
79642W        W51258  41.924   7.739  13.333
79643W        W51259  14.780   5.598  11.966
79644W        W51260  10.184  36.958   0.935
79645W        W51261   7.415  29.864  11.095
79646W        W51262   5.311  29.050  14.749
79647W        W51263  31.195  11.201  10.429
79648W        W51264   4.840  31.680   3.296
79649W        W51265  29.899   4.733  12.114
79650W        W51266  30.978  36.930   2.860
79651W        W51267   8.243  18.036   3.606
79652W        W51268  22.136  39.826  12.506
79653W        W51269  18.969  41.948  14.670
79654W        W51270  22.481  37.763  12.074
79655W        W51271   4.925   5.760  11.666
79656W        W51272  26.703  32.500  14.468
79657W        W51273  23.265  15.098   4.588
79658W        W51274  21.453  23.327   0.376
79659W        W51275  29.387  34.712  11.491
79660W        W51276  27.947   7.990  11.034
79661W        W51277  28.652   8.754  14.627
79662W        W51278  29.497   4.662   0.892
79663W        W51279  18.295   7.403   1.170
79664W        W51280  14.800  29.160   2.363
79665W        W51281  21.653   1.360  12.889
79666W        W51282  31.115  14.480   1.886
79667W        W51283  34.455  30.939  11.232
79668W        W51284   2.059   8.638  14.247
79669W        W51285   9.272  11.780   4.674
79670W        W51286  15.323  35.647  11.675
79671W        W51287  32.281  44.540   4.625
79672W        W51288  17.551  15.151   3.239
79673W        W51289  33.657  11.167  10.073
79674W        W51290  27.282  31.864  11.851
79675W        W51291  19.225  18.407  12.508
79676W        W51292  43.832  39.488   0.015
79677W        W51293  36.805  12.789   2.590
79678W        W51294  14.731  23.114   1.171
79679W        W51295  33.866  43.547  10.524
79680W        W51296   8.894  18.088  12.905
79681W        W51297  35.810  36.113  13.868
79682W        W51298  14.949  26.689  14.940
79683W        W51299   6.706  11.766  12.799
79684W        W51300  34.080  37.823   1.879
79685W        W51301  30.569  31.042  13.664
79686W        W51302  19.337  32.664  14.755
79687W        W51303  42.451  28.426  14.584
79688W        W51304  19.292  37.486  11.573
79689W        W51305  37.777   0.853  13.918
79690W        W51306  24.573  29.739   0.939
79691W        W51307  16.275   1.185   0.372
79692W        W51308  44.417  37.299   2.770
79693W        W51309  12.840  34.333  12.048
79694W        W51310  41.466  40.965  14.068
79695W        W51311  37.509  18.819   3.425
79696W        W51312   7.620  34.617  14.327
79697W        W51313  28.874  27.010   1.010
79698W        W51314  33.705   9.910   1.346
79699W        W51315  14.793  23.070  12.595
79700W        W51316   0.994  33.999  12.589
79701W        W51317   8.407  37.276   1.743
79702W        W51318  42.645  20.427  12.953
79703W        W51319  12.931   6.538   4.980
79704W        W51320   5.789  29.688  12.155
79705W        W51321  33.025  20.113  14.491
79706W        W51322  23.692  16.404   0.997
79707W        W51323  11.211  33.643  11.463
79708W        W51324  24.246  22.733  12.456
79709W        W51325  31.648   3.029   1.617
79710W        W51326   8.319  23.994  14.261
79711W        W51327  17.291  40.116   2.102
79712W        W51328  19.600   4.194   0.725
79713W        W51329  30.591  16.822   3.762
79714W        W51330  35.368   2.479   2.365
79715W        W51331  37.031  15.189  13.854
79716W        W51332  25.078  42.321   1.934
79717W        W51333  43.773  15.024   1.869
79718W        W51334   8.426  43.395   0.511
79719W        W51335   5.307  17.687  12.218
79720W        W51336  11.618  14.873  12.467
79721W        W51337  35.905   6.722  10.541
79722W        W51338  42.275  37.343  14.805
79723W        W51339  39.833  37.456   0.431
79724W        W51340  18.294  28.939   1.793
79725W        W51341  16.021  14.278  13.571
79726W        W51342  20.760  32.816   0.038
79727W        W51343  32.067  37.108  14.340
79728W        W51344  33.680  39.409   0.181
79729W        W51345  29.986  12.272  13.946
79730W        W51346   8.000  14.306  12.025
79731W        W51347  20.377   6.918  12.269
79732W        W51348  42.268  15.746  10.721
79733W        W51349   6.677  18.060  14.176
79734W        W51350  25.681  19.062  11.599
79735W        W51351  44.256  12.618  14.334
79736W        W51352   9.065  37.831  12.291
79737W        W51353  43.313  38.321   0.495
79738W        W51354  42.374  42.512  12.437
79739W        W51355  31.426   7.317  11.678
79740W        W51356   6.004  23.510  12.920
79741W        W51357  28.145  41.019   1.342
79742W        W51358   6.802  20.374   2.433
79743W        W51359  42.292  24.137   3.715
79744W        W51360  18.718   3.820  11.428
79745W        W51361   1.826  37.939   2.453
79746W        W51362  44.429  24.746  10.392
79747W        W51363  33.016  41.072   0.504
79748W        W51364   5.808  36.849  12.212
79749W        W51365  24.742  28.598   0.794
79750W        W51366  32.484  30.189  14.480
79751W        W51367  13.120   9.445   3.675
79752W        W51368  31.490  26.633  10.548
79753W        W51369   2.213  11.721  11.571
79754W        W51370  10.811  37.779  12.884
79755W        W51371   8.904  29.834   0.911
79756W        W51372  16.167  38.576   3.816
79757W        W51373  10.460  20.509   0.540
79758W        W51374  14.246   6.153   4.128
79759W        W51375  18.769   1.926   0.692
79760W        W51376  10.808  10.396   3.094
79761W        W51377  37.816  13.598   3.793
79762W        W51378   6.374  21.529  10.779
79763W        W51379  13.772   7.617   0.081
79764W        W51380  24.097  29.756   0.416
79765W        W51381  11.149  28.281   0.232
79766W        W51382  22.155  42.784  14.930
79767W        W51383  20.484  38.333   4.570
79768W        W51384  27.219   8.148   0.877
79769W        W51385  25.281  36.356   0.377
79770W        W51386   1.750   6.149  14.927
79771W        W51387   7.146   1.789  10.764
79772W        W51388  36.884   9.155   4.162
79773W        W51389  22.819   1.281   2.929
79774W        W51390   4.127  24.351  11.528
79775W        W51391  35.528  27.748   2.210
79776W        W51392  44.446  20.735   2.140
79777W        W51393  35.271   6.184   0.892
79778W        W51394   7.571  12.046   0.346
79779W        W51395   7.002  31.623  11.753
79780W        W51396  14.810  43.800   2.803
79781W        W51397  16.733  15.408  11.057
79782W        W51398  22.753   3.885  13.377
79783W        W51399   7.143  44.977   4.579
79784W        W51400  33.052  19.022   4.276
79785W        W51401  17.059   5.674   1.966
79786W        W51402  33.674   5.330   0.284
79787W        W51403  26.632  43.797   3.835
79788W        W51404  44.697   4.254  13.998
79789W        W51405  27.967  28.124   2.442
79790W        W51406  37.582   8.150  14.808
79791W        W51407  30.012  34.383   4.298
79792W        W51408  38.315   0.437   0.305
79793W        W51409  25.593  11.082  11.997
79794W        W51410  12.224  33.313   4.646
79795W        W51411  36.360   4.545   4.009
79796W        W51412  17.505  19.806   0.767
79797W        W51413  26.601  15.067  12.413
79798W        W51414  36.859  20.936   1.588
79799W        W51415  26.392  39.286  13.807
79800W        W51416  31.369  31.028   0.850
79801W        W51417   0.032  11.830   3.150
79802W        W51418  15.848  28.590   4.055
79803W        W51419   0.234  43.467   3.012
79804W        W51420  23.143  26.712   5.024
79805W        W51421  19.766   9.270   1.826
79806W        W51422  30.371  22.214  10.874
79807W        W51423  26.645  18.530  10.702
79808W        W51424  39.515  24.646  14.489
79809W        W51425   0.887   1.873   4.780
79810W        W51426   1.786  34.097   1.408
79811W        W51427  38.353  42.010   2.161
79812W        W51428  26.274  20.162  14.814
79813W        W51429  16.094  43.966   4.397
79814W        W51430  37.600   8.057   0.351
79815W        W51431  11.656   4.173   1.793
79816W        W51432  27.007  19.088   2.639
79817W        W51433  42.241  12.784   3.479
79818W        W51434  22.999  12.200   4.108
79819W        W51435  11.795  26.898   4.330
79820W        W51436  27.998  31.141   2.917
79821W        W51437  24.014  42.788  14.324
79822W        W51438   8.250  14.897  13.202
79823W        W51439   0.791   9.313   2.799
79824W        W51440  32.883  37.945  11.564
79825W        W51441   3.924  20.555   4.013
79826W        W51442  16.239  24.898   2.325
79827W        W51443  25.247   4.483  14.060
79828W        W51444  17.134  35.712  11.237
79829W        W51445  17.678  23.520   4.237
79830W        W51446   1.981  39.381   3.838
79831W        W51447  10.560  31.531  14.285
79832W        W51448   6.810  31.580  11.267
79833W        W51449   0.121  35.528   5.353
79834W        W51450  17.511  44.144   3.046
79835W        W51451  19.730  23.632   4.530
79836W        W51452  29.598  17.931   4.621
79837W        W51453   3.303   5.735  12.573
79838W        W51454  32.134  21.735   0.252
79839W        W51455   6.307  10.419   0.771
79840W        W51456   8.238  22.236  14.710
79841W        W51457  19.838  23.109  11.195
79842W        W51458  32.473  15.091  14.226
79843W        W51459  34.150   5.115   0.184
79844W        W51460   2.233  44.232  13.295
79845W        W51461  33.949  38.446  13.407
79846W        W51462  40.531  38.290   1.214
79847W        W51463  32.025  22.687  11.303
79848W        W51464  34.556   4.764   2.308
79849W        W51465  29.480  39.842   1.168
79850W        W51466  42.940  16.525  10.145
79851W        W51467  33.950  26.142   4.150
79852W        W51468  44.876   1.901  10.744
79853W        W51469  33.154  35.954  10.789
79854W        W51470   5.492  28.819   1.895
79855W        W51471  33.221  17.260  10.692
79856W        W51472  16.330   2.402  11.542
79857W        W51473  33.875  31.970  10.532
79858W        W51474   0.716   1.419  14.749
79859W        W51475  17.285  39.592  11.573
79860W        W51476  10.601   3.114   1.967
79861W        W51477  42.959   9.937  10.905
79862W        W51478   3.697  29.019   2.175
79863W        W51479  29.907  24.671   4.389
79864W        W51480  44.967  16.197   1.765
79865W        W51481   1.345   7.788  12.912
79866W        W51482  33.367  19.883   0.323
79867W        W51483  40.922   7.739   4.374
79868W        W51484   5.312  33.418   1.229
79869W        W51485  36.680  24.009   2.342
79870W        W51486  42.383  17.473  14.556
79871W        W51487  37.889  37.577  14.453
79872W        W51488  25.436  42.479  12.841
79873W        W51489  31.044   0.197  12.228
79874W        W51490  22.647   8.307   0.509
79875W        W51491   2.320  23.694   1.862
79876W        W51492  37.056  26.006   1.308
79877W        W51493  36.869  31.508   4.700
79878W        W51494   8.433  30.923   4.382
79879W        W51495   3.701  43.298  14.846
79880W        W51496  21.634  39.461  13.025
79881W        W51497   2.474   0.884   1.719
79882W        W51498  27.927   0.837  14.335
79883W        W51499  34.956  12.867  13.062
79884W        W51500   4.341  40.526   0.869
79885W        W51501   6.685  18.684  14.954
79886W        W51502  41.018  36.852  10.870
79887W        W51503  17.645  16.573  11.425
79888W        W51504  32.918  40.298  10.664
79889W        W51505  44.757  17.180   1.974
79890W        W51506  14.156  36.081  12.453
79891W        W51507  30.891  43.552  11.015
79892W        W51508   2.923  25.625  11.508
79893W        W51509  42.657  36.093   1.722
79894W        W51510   2.471   4.702  14.719
79895W        W51511  38.454   9.909   0.326
79896W        W51512  26.128  25.643   2.866
79897W        W51513   0.992  15.479   2.490
79898W        W51514   0.410  10.453   2.392
79899W        W51515  20.144  12.917   2.528
79900W        W51516  30.681  39.946  13.963
79901W        W51517  43.473  30.912   2.598
79902W        W51518  44.928  26.540   1.769
79903W        W51519  17.184  17.620  10.205
79904W        W51520  28.385  26.029  11.422
79905W        W51521  36.831  27.427  12.381
79906W        W51522  35.987   0.075   2.238
79907W        W51523  11.823   8.319   0.483
79908W        W51524  12.101  28.601   1.647
79909W        W51525  19.110  32.604  11.483
79910W        W51526  43.393  42.332  11.618
79911W        W51527  36.631  39.505  13.326
79912W        W51528  32.987   7.339  14.492
79913W        W51529  11.696  40.975   2.786
79914W        W51530  34.121  36.124  13.989
79915W        W51531  27.020   1.124   2.750
79916W        W51532  15.836  26.015  12.119
79917W        W51533   3.788   4.726   4.932
79918W        W51534  16.354   9.959   1.051
79919W        W51535  26.880  38.015  10.774
79920W        W51536  16.147  38.663   2.323
79921W        W51537  20.024   2.260  11.126
79922W        W51538  36.026  42.378  13.419
79923W        W51539  13.507   5.872  11.821
79924W        W51540  14.547  12.815   0.892
79925W        W51541  31.457   2.409  13.070
79926W        W51542   3.327  30.473   3.699
79927W        W51543  37.925  18.137  14.856
79928W        W51544  12.660  39.590  11.892
79929W        W51545  20.190  12.116   2.209
79930W        W51546  18.141  16.691  10.624
79931W        W51547  29.408   4.884  11.990
79932W        W51548  34.105  31.926   1.357
79933W        W51549   4.143   0.631   3.204
79934W        W51550  39.481  38.280  14.169
79935W        W51551  34.950  42.785   0.839
79936W        W51552  10.371  15.624  11.970
79937W        W51553  12.747  21.200   2.899
79938W        W51554  33.924  25.106   2.649
79939W        W51555  17.199  35.323   3.189
79940W        W51556  24.414   3.739  10.705
79941W        W51557  39.562  34.817   1.238
79942W        W51558  40.372  22.000  11.654
79943W        W51559  26.108  32.481   0.386
79944W        W51560  44.358   0.065   0.955
79945W        W51561   3.940  14.104   4.168
79946W        W51562  44.072  31.113   0.347
79947W        W51563  28.252   6.796  13.013
79948W        W51564  38.162  12.726  14.929
79949W        W51565  38.169  31.247  10.580
79950W        W51566  14.068  16.298   4.508
79951W        W51567  31.029  37.567  13.039
79952W        W51568  21.516  35.810  10.643
79953W        W51569   0.200  13.700   4.110
79954W        W51570  42.261   5.846  10.487
79955W        W51571  22.092  38.787   0.174
79956W        W51572  34.968  10.427   1.362
79957W        W51573  10.092  40.865  10.600
79958W        W51574  16.128  36.535   0.338
79959W        W51575   9.947   6.325  13.360
79960W        W51576  15.895  36.983   0.184
79961W        W51577  41.040  36.569   4.653
79962W        W51578   4.211   5.959  11.529
79963W        W51579  31.009  38.421   4.321
79964W        W51580   9.408  32.914  11.076
79965W        W51581  27.660  13.057  12.632
79966W        W51582  34.715  22.167  10.504
79967W        W51583  19.532  20.141   4.182
79968W        W51584   9.718  14.651  12.675
79969W        W51585  10.159  25.572   2.667
79970W        W51586  18.094   8.801  12.595
79971W        W51587  37.961  16.830  10.599
79972W        W51588  18.336  22.560   4.137
79973W        W51589  41.541  37.593  11.058
79974W        W51590  24.697  26.091  14.998
79975W        W51591  37.906  12.307   3.914
79976W        W51592  32.370  23.258   3.679
79977W        W51593  18.112  38.077  11.524
79978W        W51594  11.131  12.916   1.666
79979W        W51595  41.705  10.847  14.913
79980W        W51596  14.757  29.911   2.830
79981W        W51597  42.996  18.214   0.058
79982W        W51598  28.381  15.973  13.874
79983W        W51599  38.228  44.899   3.727
79984W        W51600  29.226  21.225  14.895
79985W        W51601  42.426   2.332   4.604
79986W        W51602   9.650  13.619  12.540
79987W        W51603  28.004  18.545   3.190
79988W        W51604  31.666   9.793  10.684
79989W        W51605  40.863  42.211   3.258
79990W        W51606  35.108   6.352  11.383
79991W        W51607  15.267  26.121  12.885
79992W        W51608  42.614  11.550  14.429
79993W        W51609   6.942  21.488  14.904
79994W        W51610  22.016  27.144   0.656
79995W        W51611   7.791   5.905  13.041
79996W        W51612  33.483  39.347   1.196
79997W        W51613  35.227  44.491  14.109
79998W        W51614  13.816   1.267  10.906
79999W        W51615  35.461  26.655  11.640
80000W        W51616  34.845   5.279  12.035
80001W        W51617   5.740  34.522   1.511
80002W        W51618  35.692   9.900  13.830
80003W        W51619  16.226   7.187  11.853
80004W        W51620   8.391  36.025  12.617
80005W        W51621  38.050  25.017  10.906
80006W        W51622  32.912  30.470   2.370
80007W        W51623  14.552  39.319   4.173
80008W        W51624  40.724  12.413  11.535
80009W        W51625  23.028  36.721   3.235
80010W        W51626   4.452  29.507   1.272
80011W        W51627  15.670   4.339  14.781
80012W        W51628  42.864   7.201   0.750
80013W        W51629  21.471  23.326   2.202
80014W        W51630  31.627   7.791   2.317
80015W        W51631  40.610  19.662   0.101
80016W        W51632  10.708  22.779   0.372
80017W        W51633   8.774  10.768   1.294
80018W        W51634  15.435  23.975   4.918
80019W        W51635  24.324  37.600   2.129
80020W        W51636  24.484   8.681   3.698
80021W        W51637  17.545  18.254   4.112
80022W        W51638   4.766  12.157   1.905
80023W        W51639  13.773   0.893   2.312
80024W        W51640  43.500  42.586  12.148
80025W        W51641  26.601  20.667  12.599
80026W        W51642  39.880  28.634  13.303
80027W        W51643   6.224  11.740  12.027
80028W        W51644  25.685  21.657  13.121
80029W        W51645  17.221   1.392   0.618
80030W        W51646   3.902   7.180  13.100
80031W        W51647  32.862  21.225   0.358
80032W        W51648  11.815  22.580  11.981
80033W        W51649  19.839  32.599   1.634
80034W        W51650  19.458  41.125  12.929
80035W        W51651   3.441  42.279   2.206
80036W        W51652  16.093  19.638   4.586
80037W        W51653  24.492  36.947  10.699
80038W        W51654  12.344  28.047   1.848
80039W        W51655  15.787  38.699   0.110
80040W        W51656  41.260  12.627  14.733
80041W        W51657  15.370   7.149  13.405
80042W        W51658  24.640   0.255   1.282
80043W        W51659  25.571  30.448   0.777
80044W        W51660  17.685   4.982  14.724
80045W        W51661  21.378  27.142   1.290
80046W        W51662  24.715  29.881   4.159
80047W        W51663  23.834  10.368   1.470
80048W        W51664  11.348   9.653   2.277
80049W        W51665  23.162   7.849  14.436
80050W        W51666  13.527  36.174  11.120
80051W        W51667  39.405  34.613  14.942
80052W        W51668  41.404   5.237  12.830
80053W        W51669  19.862  11.513   1.802
80054W        W51670  20.709  20.704   0.790
80055W        W51671   6.327  18.799   0.323
80056W        W51672  29.540   4.170  11.525
80057W        W51673  13.274   1.871  14.581
80058W        W51674  39.434  43.487   4.194
80059W        W51675  34.929  43.532   4.544
80060W        W51676  43.545  28.540  11.663
80061W        W51677   7.395  37.804  11.073
80062W        W51678  43.423  11.011   0.207
80063W        W51679   5.166  34.303  12.921
80064W        W51680  29.658  12.974  11.612
80065W        W51681   9.228   4.625  12.039
80066W        W51682  19.104  26.770  11.663
80067W        W51683   6.350  35.579  10.671
80068W        W51684  41.751   3.565  13.778
80069W        W51685   2.080  14.737   2.772
80070W        W51686  25.921  39.354   4.598
80071W        W51687  14.521  38.974  12.548
80072W        W51688   0.952  38.276  11.089
80073W        W51689   3.713  35.913  12.918
80074W        W51690  16.616   3.286   1.645
80075W        W51691   6.293  15.591   3.365
80076W        W51692  10.339  37.560  11.058
80077W        W51693  28.036  23.543   4.969
80078W        W51694   3.084  32.883  13.402
80079W        W51695  27.190   5.466   4.404
80080W        W51696  27.965  30.042   0.699
80081W        W51697  12.239   3.521  11.290
80082W        W51698  25.153  31.317   4.242
80083W        W51699  37.675  42.775   1.191
80084W        W51700  28.018  24.377  13.497
80085W        W51701  15.824  41.793   4.462
80086W        W51702  12.249  10.337   4.322
80087W        W51703   1.910  21.111  13.164
80088W        W51704  23.056  15.883   0.609
80089W        W51705  19.114   6.206  10.630
80090W        W51706  39.258  23.298  14.359
80091W        W51707  34.372  10.777   2.914
80092W        W51708  43.805   4.393  12.054
80093W        W51709  38.005  33.333  11.817
80094W        W51710  41.994   6.205  10.204
80095W        W51711  24.980   1.190  13.228
80096W        W51712  18.542  11.909  14.872
80097W        W51713  22.428   7.018   1.782
80098W        W51714  19.023  23.610  10.469
80099W        W51715  28.665  37.900   2.061
80100W        W51716  33.728  19.988  13.351
80101W        W51717  39.264  33.078   3.667
80102W        W51718   8.868  16.384  11.589
80103W        W51719  30.073  16.318  11.519
80104W        W51720  22.495  21.974  12.388
80105W        W51721  21.036  32.911  11.710
80106W        W51722  17.187  43.777   0.400
80107W        W51723   8.498  15.402  14.850
80108W        W51724   2.241   0.902   3.832
80109W        W51725  16.431  13.382  11.169
80110W        W51726  41.741  27.432   2.733
80111W        W51727   4.714  24.609  12.986
80112W        W51728  20.150   1.512  11.649
80113W        W51729  29.674  11.305   0.897
80114W        W51730  30.978   0.809  10.436
80115W        W51731  36.980  27.636   4.650
80116W        W51732  36.946   0.554  14.365
80117W        W51733  10.388  25.691   2.194
80118W        W51734   3.380  14.995  11.933
80119W        W51735  40.448  11.917   4.688
80120W        W51736  14.781   1.063   4.904
80121W        W51737  17.235   4.701   3.239
80122W        W51738  11.370  42.456  12.882
80123W        W51739   3.188  14.854   3.063
80124W        W51740   7.106   9.843  13.878
80125W        W51741  32.027  33.930   0.892
80126W        W51742   7.300  33.945  11.930
80127W        W51743  14.777  42.011   2.273
80128W        W51744   8.658  18.931   1.950
80129W        W51745  30.418  37.715   2.113
80130W        W51746  33.059   2.465   1.255
80131W        W51747  35.849  10.871   4.706
80132W        W51748  24.565  28.604   0.289
80133W        W51749  15.965  38.876   4.556
80134W        W51750  42.869   6.693   0.855
80135W        W51751  28.093  30.095   4.573
80136W        W51752  19.886  26.089   3.637
80137W        W51753  16.400  27.488   1.307
80138W        W51754  24.081  35.379   3.369
80139W        W51755  25.490  34.090   3.766
80140W        W51756  19.139  17.153   2.397
80141W        W51757  19.980  25.584  11.154
80142W        W51758  17.980  14.050  13.381
80143W        W51759  25.035   3.424  13.441
80144W        W51760  27.695  43.577   0.834
80145W        W51761  22.449  44.588   3.759
80146W        W51762   0.258  36.112  13.865
80147W        W51763  39.972  30.309   3.528
80148W        W51764  17.084   7.865   1.695
80149W        W51765  22.518  15.112   2.292
80150W        W51766  34.470  44.904  11.505
80151W        W51767  44.622   3.109  10.866
80152W        W51768   2.493  36.483   2.676
80153W        W51769  25.687  39.051   2.801
80154W        W51770   4.786   9.506   3.075
80155W        W51771  34.610  18.206   1.844
80156W        W51772  11.826  33.922   2.154
80157W        W51773  13.766  16.651   2.388
80158W        W51774  39.443  41.321  11.576
80159W        W51775  33.010   1.588   5.454
80160W        W51776  30.899  37.374   4.078
80161W        W51777  19.469  13.717  14.000
80162W        W51778   5.728   9.566  11.123
80163W        W51779  24.721  16.375  11.487
80164W        W51780  14.356  23.714   3.392
80165W        W51781   2.255  31.864   4.091
80166W        W51782  15.226  12.597  13.365
80167W        W51783  36.529  35.725  13.441
80168W        W51784   4.322  37.061  14.264
80169W        W51785   8.926  31.556  11.143
80170W        W51786  15.850  16.165  12.476
80171W        W51787   0.036  20.849   0.823
80172W        W51788  36.545  31.184  14.469
80173W        W51789  19.283  11.003   2.775
80174W        W51790  14.066  25.544  13.107
80175W        W51791  28.163  21.475  10.716
80176W        W51792   1.985  39.074  14.619
80177W        W51793  30.568  40.162  12.461
80178W        W51794  28.446  23.644  12.426
80179W        W51795  26.324   8.096  13.928
80180W        W51796  33.025  16.575  11.006
80181W        W51797  34.465  15.252  11.468
80182W        W51798  41.789   2.776   1.265
80183W        W51799   1.784  33.582  14.939
80184W        W51800  13.827  33.656  12.429
80185W        W51801  17.674  18.251  13.996
80186W        W51802  31.035  39.296   4.775
80187W        W51803  17.729  40.471   0.404
80188W        W51804  42.781   4.910   3.081
80189W        W51805  10.609  22.599  11.385
80190W        W51806   7.017   4.140  14.285
80191W        W51807   2.957  40.297   3.323
80192W        W51808  43.519  43.955  11.113
80193W        W51809   2.873  41.008  12.982
80194W        W51810  16.630  44.362  14.896
80195W        W51811  36.189  37.036  11.572
80196W        W51812  43.123  26.158   1.404
80197W        W51813  20.495  26.701   1.277
80198W        W51814  19.292  10.280  12.507
80199W        W51815  43.814  23.704  13.758
80200W        W51816  27.117   9.444   0.382
80201W        W51817   3.750  40.473   1.750
80202W        W51818  34.044  21.166   3.915
80203W        W51819  32.895  39.968  11.933
80204W        W51820   6.891  29.931  11.952
80205W        W51821  38.402   0.943   0.360
80206W        W51822  36.923  22.523   0.975
80207W        W51823  35.606  43.793  12.511
80208W        W51824   4.007  23.666  12.438
80209W        W51825  26.177  18.668   1.692
80210W        W51826  22.071  40.971  13.168
80211W        W51827  14.278   8.739   3.162
80212W        W51828  42.096  23.596   4.415
80213W        W51829   1.429  44.027  11.613
80214W        W51830  44.459  18.440  10.222
80215W        W51831  24.729  18.592  11.822
80216W        W51832  28.415  42.981   2.654
80217W        W51833  17.107   4.655  11.167
80218W        W51834  13.143  17.661  12.939
80219W        W51835  40.853  28.077  13.923
80220W        W51836  32.575   1.812   0.867
80221W        W51837  21.073  39.954  12.554
80222W        W51838  25.105  34.352  14.383
80223W        W51839  19.016  10.518   4.274
80224W        W51840  30.639  32.610   2.283
80225W        W51841  26.469  38.097   0.398
80226W        W51842  15.800  23.170  12.289
80227W        W51843  39.411   5.796  10.850
80228W        W51844  34.401  38.379   0.844
80229W        W51845  19.698  24.119  11.222
80230W        W51846  12.155  27.867  10.748
80231W        W51847  31.355   2.302   0.365
80232W        W51848  35.657  19.742  12.770
80233W        W51849  42.898   0.330   4.359
80234W        W51850   4.907  33.642   4.195
80235W        W51851   8.855  20.242   2.163
80236W        W51852  24.450  43.906   0.523
80237W        W51853  17.231  26.736  12.961
80238W        W51854  40.952  35.831   3.173
80239W        W51855  30.039  25.393  14.475
80240W        W51856  17.856   4.566   5.008
80241W        W51857   4.726  25.131   3.721
80242W        W51858  15.647  18.186   2.797
80243W        W51859   9.875  33.522  13.953
80244W        W51860  34.543  21.013  14.915
80245W        W51861   4.768  29.258  13.686
80246W        W51862  30.558  14.703  13.105
80247W        W51863  11.417  34.057  11.129
80248W        W51864  15.749  41.712   9.968
80249W        W51865   9.166  42.293   4.240
80250W        W51866  30.237  32.081   4.849
80251W        W51867  18.752   1.265  12.394
80252W        W51868  10.342  27.858   4.554
80253W        W51869  44.894   7.471   1.699
80254W        W51870  44.419  11.103   0.675
80255W        W51871  20.116  11.506   0.916
80256W        W51872  28.172  19.126  13.058
80257W        W51873  40.136  19.777  12.409
80258W        W51874  33.094   3.966  14.799
80259W        W51875  23.668  39.302   4.818
80260W        W51876  42.982   5.463  11.525
80261W        W51877  44.946  25.329  12.442
80262W        W51878  34.139  25.263  14.790
80263W        W51879  22.061  11.079  14.521
80264W        W51880  43.293   3.688   2.642
80265W        W51881  29.192   1.410   3.358
80266W        W51882  18.772  40.502  13.099
80267W        W51883   3.437  29.069   0.743
80268W        W51884  21.736   6.336   3.731
80269W        W51885  23.108  31.824   0.238
80270W        W51886  26.542  30.991   4.742
80271W        W51887  15.865  13.781  12.025
80272W        W51888   2.784  41.387  13.360
80273W        W51889   6.772  25.976   2.010
80274W        W51890  17.555  42.623  14.033
80275W        W51891  34.902   0.360   9.909
80276W        W51892  16.790  35.305  12.153
80277W        W51893  26.710  25.068   4.347
80278W        W51894  26.239  24.207   1.180
80279W        W51895   9.203  44.018   4.905
80280W        W51896  30.988  31.137   3.404
80281W        W51897  38.951  39.408   4.878
80282W        W51898  30.607  28.109  11.948
80283W        W51899  41.861  20.300   1.474
80284W        W51900  16.315  15.336   0.335
80285W        W51901   1.961   2.762  13.277
80286W        W51902  12.577  30.037  14.291
80287W        W51903  32.651  32.911   3.868
80288W        W51904   3.387  24.043  14.080
80289W        W51905  37.080  35.873   1.966
80290W        W51906   4.734  25.453   2.734
80291W        W51907   9.122  14.048   0.952
80292W        W51908  44.893  18.211  12.993
80293W        W51909  27.003  41.818   3.161
80294W        W51910  35.852  12.212   0.828
80295W        W51911  16.086  23.528  10.896
80296W        W51912  36.036   9.429  13.958
80297W        W51913  37.146  11.284   1.408
80298W        W51914  25.864  11.592  13.017
80299W        W51915  43.191  43.506  11.931
80300W        W51916  43.423  38.140  13.106
80301W        W51917   7.114  39.495  13.370
80302W        W51918  20.563  29.524  14.699
80303W        W51919  40.489  17.756  14.726
80304W        W51920  39.787  36.048   0.315
80305W        W51921  18.098  42.972   0.823
80306W        W51922  38.802   5.257  13.763
80307W        W51923   1.937   2.939   0.362
80308W        W51924   2.801  22.003   5.531
80309W        W51925   0.727  19.193   2.782
80310W        W51926  39.337   3.838   0.396
80311W        W51927  41.134  24.534   1.731
80312W        W51928   8.399  35.044  12.970
80313W        W51929  44.324  12.054   3.127
80314W        W51930  21.034   1.557   1.801
80315W        W51931  31.528   0.808   2.186
80316W        W51932  42.799  23.724   2.017
80317W        W51933   3.465   9.845   1.882
80318W        W51934  16.562  28.011   2.001
80319W        W51935  14.820  12.784   3.607
80320W        W51936  13.589   7.855  11.384
80321W        W51937  36.061   6.707   0.959
80322W        W51938  20.297  19.774  11.562
80323W        W51939   2.970  40.270  11.578
80324W        W51940  31.340  33.657  11.212
80325W        W51941  30.188  33.519   2.116
80326W        W51942  38.394   4.512  12.141
80327W        W51943   3.800   4.385   2.182
80328W        W51944  20.615  29.064   0.504
80329W        W51945  28.641   7.955  12.012
80330W        W51946  27.620  19.132   4.778
80331W        W51947  22.036  30.372   2.987
80332W        W51948  29.597  29.158  14.917
80333W        W51949  12.324   2.679   4.345
80334W        W51950  13.153   2.691   3.210
80335W        W51951  24.098  14.570   3.836
80336W        W51952  34.016  24.979   3.795
80337W        W51953  10.202  24.974   1.379
80338W        W51954  13.894  41.729   3.340
80339W        W51955  16.587  41.567  11.201
80340W        W51956  39.381   5.834   3.320
80341W        W51957   5.035  42.436  11.665
80342W        W51958  19.837  26.083  11.066
80343W        W51959  27.229  30.090   0.831
80344W        W51960  29.449  27.987  12.916
80345W        W51961   4.596  17.058   4.598
80346W        W51962  39.012   7.502  14.753
80347W        W51963  17.320  16.640  11.018
80348W        W51964  22.035  39.956   2.841
80349W        W51965  34.607  43.250   2.297
80350W        W51966  20.698   6.899  13.391
80351W        W51967  29.445  20.149  12.569
80352W        W51968   9.374   6.913  14.739
80353W        W51969   8.506  32.635   1.063
80354W        W51970  39.266  29.972   1.868
80355W        W51971  25.053  21.575   4.672
80356W        W51972   5.835  14.309  14.300
80357W        W51973  26.177  41.312   2.755
80358W        W51974   5.162  18.047   0.944
80359W        W51975  19.057  44.908  13.544
80360W        W51976  14.863  28.531   1.840
80361W        W51977  32.850   4.871  14.755
80362W        W51978  10.855  26.376  14.332
80363W        W51979  31.202  34.866   4.599
80364W        W51980  33.943  21.975  12.574
80365W        W51981   4.836  16.657  13.938
80366W        W51982  41.575   4.409  12.990
80367W        W51983  12.114  16.135  11.960
80368W        W51984  26.653  13.847  14.518
80369W        W51985  10.122  16.224   0.969
80370W        W51986   9.722  29.580  13.496
80371W        W51987  17.015  18.534  13.538
80372W        W51988  33.558   0.967  11.615
80373W        W51989  18.661  17.825   0.326
80374W        W51990  43.673  19.265  11.170
80375W        W51991   0.873  29.986   0.830
80376W        W51992  43.397  37.489  11.524
80377W        W51993  11.811  41.134   3.307
80378W        W51994  13.575   8.329   1.904
80379W        W51995  12.391  32.130  14.992
80380W        W51996  25.883  11.831   0.564
80381W        W51997  39.741  17.661  12.909
80382W        W51998   5.355  39.101   3.134
80383W        W51999   3.780   6.895  11.204
80384W        W52000   3.306  41.196   1.271
80385W        W52001  32.638  10.248   0.428
80386W        W52002  34.342  19.715   0.313
80387W        W52003  14.009  21.539  10.687
80388W        W52004  37.019  13.895   0.202
80389W        W52005  12.397  31.531   2.216
80390W        W52006  15.878  42.365  13.275
80391W        W52007   4.795  39.413  10.754
80392W        W52008   1.478  17.483   1.317
80393W        W52009  44.822   9.175   3.799
80394W        W52010   5.680  38.589  14.820
80395W        W52011   8.524   8.712  10.201
80396W        W52012  40.807  34.889   3.250
80397W        W52013  18.638  22.807  10.660
80398W        W52014  15.825  44.217   1.261
80399W        W52015  24.133  15.113  12.493
80400W        W52016  35.581   5.007   0.356
80401W        W52017  21.228  41.971   0.849
80402W        W52018  21.807  20.294   1.405
80403W        W52019  37.528  37.417   4.533
80404W        W52020  19.194  23.058  12.067
80405W        W52021   9.659  16.887  13.371
80406W        W52022  25.121   3.616   1.658
80407W        W52023  26.526  12.204  14.027
80408W        W52024   3.447  38.994  14.540
80409W        W52025   5.975  32.515   4.241
80410W        W52026  24.642   7.024   4.281
80411W        W52027  43.828  16.002   3.098
80412W        W52028  15.311   9.807   2.521
80413W        W52029   9.280  26.428   1.011
80414W        W52030  30.190  30.148   4.843
80415W        W52031  39.337  15.766  10.010
80416W        W52032  12.846  15.612   0.288
80417W        W52033  18.343  10.153   3.188
80418W        W52034   5.356  14.427  13.461
80419W        W52035  36.272   9.332  14.472
80420W        W52036  23.109  27.283  13.319
80421W        W52037  13.201  26.723   1.938
80422W        W52038  12.805  41.493   0.005
80423W        W52039  19.744  17.240  12.878
80424W        W52040  41.309   4.983  11.187
80425W        W52041   3.820  22.535  11.582
80426W        W52042  18.633  39.462  11.597
80427W        W52043   2.748  40.414   1.712
80428W        W52044  16.666  27.689   0.875
80429W        W52045  19.546  17.533  12.465
80430W        W52046   7.969  32.672   0.961
80431W        W52047  17.878  41.815   0.747
80432W        W52048  21.733  40.401  12.633
80433W        W52049   2.321   3.166   2.267
80434W        W52050  12.369  14.550  11.522
80435W        W52051  29.130  30.935   0.473
80436W        W52052   8.077  37.572  12.035
80437W        W52053   7.754   6.948  14.707
80438W        W52054  32.651  27.648  11.732
80439W        W52055  16.081  42.005  14.834
80440W        W52056  33.816  16.076   2.663
80441W        W52057   2.880  21.208   1.712
80442W        W52058  15.408  36.108   2.216
80443W        W52059  13.301  35.186   2.257
80444W        W52060  25.008   9.866  11.113
80445W        W52061  22.128   7.054   4.350
80446W        W52062  21.646  43.889  13.977
80447W        W52063  24.272   9.746   1.147
80448W        W52064  19.007  16.834  15.000
80449W        W52065  44.884  25.909   4.060
80450W        W52066  11.804   4.174  13.530
80451W        W52067  31.279  18.025  11.369
80452W        W52068  38.633  15.173  14.979
80453W        W52069  44.855  20.835  10.808
80454W        W52070   5.593  30.681   4.123
80455W        W52071  19.320   5.889   2.213
80456W        W52072  40.101  10.022  14.382
80457W        W52073  44.316  22.270   4.214
80458W        W52074  23.522  21.288  14.371
80459W        W52075   1.984  22.439   2.712
80460W        W52076  35.804  25.828  12.082
80461W        W52077  44.494  17.247  12.945
80462W        W52078   3.809  19.446  14.889
80463W        W52079  11.338  39.938  11.627
80464W        W52080  34.384  37.865   2.610
80465W        W52081  11.029  22.540   3.820
80466W        W52082  37.936  23.674  11.205
80467W        W52083  39.190  10.476  10.062
80468W        W52084  39.581  20.927  13.336
80469W        W52085  43.968  10.600   0.501
80470W        W52086  38.909  19.590   4.645
80471W        W52087  39.078  17.712   4.983
80472W        W52088   5.593  39.556  11.573
80473W        W52089  41.309  27.399  13.954
80474W        W52090  20.612  22.627   0.233
80475W        W52091   1.253  26.632   0.902
80476W        W52092  43.601  34.425  13.990
80477W        W52093   8.841   3.308  11.042
80478W        W52094  43.367  36.996   3.788
80479W        W52095  38.839  27.919  12.074
80480W        W52096  23.466  25.994   2.957
80481W        W52097   5.497  19.126   1.290
80482W        W52098  44.285  18.214   4.258
80483W        W52099  10.111   0.441   4.138
80484W        W52100  21.947   5.291   0.977
80485W        W52101   7.890  33.995   4.191
80486W        W52102  17.747  38.823   1.862
80487W        W52103  22.081  38.276  14.501
80488W        W52104  32.470  33.208  11.550
80489W        W52105  18.312  18.749  11.371
80490W        W52106   0.168  21.625  11.854
80491W        W52107  22.023  10.384   1.445
80492W        W52108  38.878   0.226  10.345
80493W        W52109   6.842   8.613   1.724
80494W        W52110  23.851  22.029   0.500
80495W        W52111  42.547   4.844   4.583
80496W        W52112  15.474  34.227   4.046
80497W        W52113   2.417   2.745   3.607
80498W        W52114  31.398  37.842   1.825
80499W        W52115   3.245  32.815  12.884
80500W        W52116   4.165   3.450  11.696
80501W        W52117  19.679  12.229  11.192
80502W        W52118  43.373  12.248   1.992
80503W        W52119  17.456  11.380   0.005
80504W        W52120  14.915  23.978   4.775
80505W        W52121  38.613  40.155   2.735
80506W        W52122  29.095  18.140  14.543
80507W        W52123   6.619  39.920   1.819
80508W        W52124  39.497  13.129   3.786
80509W        W52125  24.945  40.316  13.954
80510W        W52126  13.117   1.753  12.019
80511W        W52127  27.714  15.166   0.750
80512W        W52128  36.051  15.869  10.535
80513W        W52129  31.436  34.565   2.079
80514W        W52130  15.400  19.686   3.719
80515W        W52131  26.262   5.983   5.171
80516W        W52132  25.285  19.525   3.325
80517W        W52133  11.844  35.847   4.723
80518W        W52134  24.007  22.714   1.867
80519W        W52135  14.940  10.203   3.279
80520W        W52136   7.340   6.274  11.256
80521W        W52137  43.318  35.835   0.330
80522W        W52138  41.987  43.450  10.622
80523W        W52139  23.845  37.463   2.288
80524W        W52140  32.816   2.316  13.223
80525W        W52141  11.110  16.720  13.518
80526W        W52142  30.907  40.560  11.238
80527W        W52143  11.526  23.515  12.125
80528W        W52144  39.043   4.484   4.164
80529W        W52145  28.949  17.105   1.165
80530W        W52146  30.096  19.304   1.703
80531W        W52147  16.158  13.741   0.934
80532W        W52148  41.238   4.776   0.968
80533W        W52149  33.604  21.508  14.059
80534W        W52150  41.901  29.162  14.271
80535W        W52151  41.815  35.463  14.861
80536W        W52152  29.668   0.123  14.992
80537W        W52153  27.591   3.276   0.327
80538W        W52154   6.952  35.322  11.937
80539W        W52155  26.160   4.420  14.502
80540W        W52156  22.107  14.526   3.297
80541W        W52157  30.608  23.316  14.389
80542W        W52158  15.647  36.710  11.983
80543W        W52159   1.107  12.298  11.104
80544W        W52160  36.190  16.589  12.124
80545W        W52161  20.731   5.671  12.148
80546W        W52162  41.291   7.023   3.124
80547W        W52163   2.092   6.635   4.185
80548W        W52164  43.604  18.718  10.730
80549W        W52165  10.297  12.542  11.458
80550W        W52166  25.221   6.114  11.511
80551W        W52167   2.442  36.044   3.575
80552W        W52168  35.807   2.997  11.415
80553W        W52169   2.815  13.261  13.062
80554W        W52170  22.309  23.484   4.262
80555W        W52171  15.976  39.201   2.632
80556W        W52172  16.288  26.114   3.778
80557W        W52173  39.625  23.070   3.764
80558W        W52174  31.138   1.420   4.211
80559W        W52175  19.048  18.225   3.727
80560W        W52176   4.472   5.678   2.765
80561W        W52177   2.997  29.246   3.602
80562W        W52178  17.104  44.509   3.770
80563W        W52179   2.858  12.294   0.567
80564W        W52180   6.916   7.116  14.810
80565W        W52181  16.068   2.440   2.676
80566W        W52182  34.861  22.127  14.550
80567W        W52183   9.695   9.106  13.895
80568W        W52184  11.090  17.610   2.227
80569W        W52185  16.125  13.853  13.871
80570W        W52186  24.295  13.851  11.416
80571W        W52187   2.462  21.999  11.130
80572W        W52188  21.476  32.699  10.853
80573W        W52189  25.210  37.884  11.982
80574W        W52190  24.677  34.147   4.253
80575W        W52191  10.199  37.671   4.157
80576W        W52192  40.336  17.408  12.056
80577W        W52193  26.788   6.446  13.334
80578W        W52194  25.075  31.948   5.039
80579W        W52195  42.511  33.382   3.714
80580W        W52196  39.892   5.022   0.262
80581W        W52197   6.615  26.658   0.882
80582W        W52198  19.101  11.806   4.768
80583W        W52199   4.277  16.103   3.640
80584W        W52200  15.557   3.761   0.413
80585W        W52201  20.281  23.347  11.085
80586W        W52202  29.041   4.445  10.882
80587W        W52203  22.798   0.838   2.147
80588W        W52204  11.637  15.125  14.021
80589W        W52205  28.490  35.441  13.594
80590W        W52206   5.358  35.991  13.189
80591W        W52207  12.088  40.939  10.707
80592W        W52208  18.168  12.384  13.821
80593W        W52209  20.655  14.160   4.138
80594W        W52210  29.862   7.750   2.659
80595W        W52211   7.122  40.925   4.000
80596W        W52212  26.157  10.759   3.332
80597W        W52213  23.389  18.739   1.816
80598W        W52214   3.839   3.079   3.084
80599W        W52215  21.068   3.308   4.623
80600W        W52216  28.482  40.994   0.339
80601W        W52217  27.535   8.088   4.525
80602W        W52218  23.289   1.068   0.250
80603W        W52219  27.829  43.780  12.953
80604W        W52220  17.509   1.368  14.752
80605W        W52221  19.288  11.333  13.966
80606W        W52222   0.536   5.289   4.507
80607W        W52223  43.281   4.694  14.373
80608W        W52224  26.589  27.450  14.794
80609W        W52225  38.412  12.498   4.122
80610W        W52226  11.286  18.104   0.787
80611W        W52227   9.854   3.512   0.870
80612W        W52228   3.993  41.720  11.234
80613W        W52229  22.122  29.292   4.432
80614W        W52230  10.494  16.995  14.832
80615W        W52231  22.923  31.410  13.376
80616W        W52232  32.160  12.392  12.956
80617W        W52233   6.254   6.929  11.036
80618W        W52234  28.944   3.763   2.439
80619W        W52235  30.114  38.435  11.958
80620W        W52236  25.472  16.752  11.215
80621W        W52237   6.655  40.304   4.583
80622W        W52238  35.340  25.866   0.024
80623W        W52239  21.019   9.895  12.641
80624W        W52240  10.760  39.595  14.505
80625W        W52241  28.820  19.908   4.629
80626W        W52242   7.908  21.111   0.035
80627W        W52243  23.231  32.653  11.413
80628W        W52244   9.381   9.148   2.965
80629W        W52245  42.578  41.397  14.994
80630W        W52246  20.596  27.154   0.564
80631W        W52247  21.463  12.313  14.130
80632W        W52248  26.966  14.227   5.600
80633W        W52249  13.696  14.619  11.691
80634W        W52250  42.174   8.802  13.639
80635W        W52251  35.577  21.921  12.108
80636W        W52252  11.004  20.711  11.100
80637W        W52253  11.741  24.190   0.309
80638W        W52254  16.645  43.763  13.423
80639W        W52255   6.924  20.953  13.306
80640W        W52256  24.719   0.951   3.392
80641W        W52257   1.348  24.770   0.292
80642W        W52258  28.765   8.265  14.434
80643W        W52259  20.433   6.302  10.988
80644W        W52260  43.621  14.701   3.694
80645W        W52261  25.464  37.604   0.259
80646W        W52262  35.272  23.064  10.642
80647W        W52263  30.214   5.433  12.375
80648W        W52264  11.033   7.267   3.269
80649W        W52265  26.154   4.354   4.710
80650W        W52266   1.554  17.601  12.474
80651W        W52267  16.196   4.791  10.694
80652W        W52268  34.899  42.222   0.854
80653W        W52269  29.770   4.685  14.730
80654W        W52270  21.665  21.949  11.001
80655W        W52271  10.677  39.634  10.916
80656W        W52272   7.791  43.762  13.282
80657W        W52273  29.281  28.405   3.821
80658W        W52274  25.706  18.637   4.493
80659W        W52275  28.754  35.895  12.389
80660W        W52276  21.050  27.388  11.461
80661W        W52277  37.002  34.594  10.728
80662W        W52278  12.011  34.539  14.959
80663W        W52279  39.244  18.031   1.658
80664W        W52280   2.874  40.120  13.895
80665W        W52281  22.831  19.809  14.309
80666W        W52282  30.573  32.101   3.270
80667W        W52283  31.827  14.548  13.353
80668W        W52284  34.723   4.143  14.824
80669W        W52285  16.147  38.494  13.003
80670W        W52286   6.236  27.165  13.824
80671W        W52287   7.713   8.780  13.593
80672W        W52288  19.259  18.668  14.503
80673W        W52289   7.206   7.724   0.309
80674W        W52290  26.009  18.920   2.129
80675W        W52291  15.811   0.479  11.301
80676W        W52292  23.594  16.726  12.027
80677W        W52293  36.431  43.546  14.070
80678W        W52294   3.326  11.599   0.925
80679W        W52295  12.226  30.610  14.117
80680W        W52296  27.967  29.973   3.239
80681W        W52297  21.984   6.443  11.098
80682W        W52298  31.631   1.831   2.352
80683W        W52299  33.508  33.873   3.440
80684W        W52300  25.475  32.502  11.640
80685W        W52301  11.926  21.124  12.076
80686W        W52302  35.101  33.080  11.428
80687W        W52303  20.830  18.102  13.385
80688W        W52304   3.497  25.228  14.495
80689W        W52305  28.461  41.641  12.464
80690W        W52306   8.733  36.331   0.194
80691W        W52307   1.232   4.172  11.114
80692W        W52308  14.708  34.196   3.096
80693W        W52309  44.383   5.673   1.762
80694W        W52310  17.089  19.170  10.124
80695W        W52311  26.461  26.999   4.603
80696W        W52312  20.496  14.227  11.808
80697W        W52313  24.648  30.564   1.202
80698W        W52314   2.527  37.021   2.432
80699W        W52315  29.931  31.984  12.931
80700W        W52316  23.641  16.678  14.103
80701W        W52317  18.660   6.304   3.735
80702W        W52318  15.763  31.471   3.421
80703W        W52319  39.262  18.710   2.685
80704W        W52320  37.387  31.990  10.254
80705W        W52321  33.880  18.260  11.940
80706W        W52322   9.309   8.432   2.258
80707W        W52323   0.900   2.907  14.822
80708W        W52324   1.790  37.572   4.128
80709W        W52325  33.917  29.517   1.101
80710W        W52326  15.021  42.496   0.471
80711W        W52327   4.350   6.935  10.560
80712W        W52328  15.687  16.056  14.417
80713W        W52329  14.341   5.359   3.697
80714W        W52330   5.267   2.328   4.767
80715W        W52331  32.975   2.754  12.400
80716W        W52332  10.227   9.836  12.945
80717W        W52333  28.157  22.153   0.794
80718W        W52334  31.406  44.980   4.496
80719W        W52335  42.811  41.556   0.426
80720W        W52336   1.764   3.390   1.324
80721W        W52337  43.232  38.968  14.340
80722W        W52338  42.206   3.702   0.808
80723W        W52339  36.755   3.314  12.628
80724W        W52340  10.884  15.545  12.012
80725W        W52341  37.542  18.632   1.692
80726W        W52342  40.311  32.130   1.686
80727W        W52343   8.840  33.107  14.438
80728W        W52344  22.516  10.670  11.420
80729W        W52345  38.602  40.896  14.868
80730W        W52346  24.684  11.753   3.808
80731W        W52347   7.827  44.845  14.095
80732W        W52348   5.155  31.364   2.428
80733W        W52349   3.071  11.826   4.172
80734W        W52350   1.235  29.219   1.218
80735W        W52351  18.684   6.664  11.410
80736W        W52352   7.801  44.237  10.801
80737W        W52353  17.195  44.078  12.685
80738W        W52354   7.635  11.808   3.865
80739W        W52355  15.231   4.200   2.956
80740W        W52356  33.905  15.355  12.526
80741W        W52357  32.060  33.541  10.607
80742W        W52358  14.393  28.211   2.330
80743W        W52359  44.854  44.741  14.747
80744W        W52360   9.248  12.297  10.961
80745W        W52361  28.419  31.937  12.920
80746W        W52362  10.308   0.005   0.299
80747W        W52363  44.443  12.941   4.525
80748W        W52364   6.390  14.168  14.700
80749W        W52365  28.555  19.234  12.373
80750W        W52366  14.628  42.716   2.899
80751W        W52367  19.207  29.821   4.863
80752W        W52368   7.362   5.846   0.359
80753W        W52369  40.505  32.391   1.288
80754W        W52370  35.463  11.165  14.716
80755W        W52371  41.424  18.914  14.885
80756W        W52372   4.744  23.197  12.953
80757W        W52373  10.284  11.668  13.773
80758W        W52374  19.175   9.330  10.650
80759W        W52375  43.766   5.034   0.669
80760W        W52376  15.889  41.697   2.832
80761W        W52377  14.413  18.231  13.124
80762W        W52378  12.630  35.647  12.102
80763W        W52379   4.792   3.927   3.791
80764W        W52380   8.574  39.724   3.902
80765W        W52381   5.265  44.031  13.371
80766W        W52382   0.641  26.632   2.313
80767W        W52383   8.785  35.049   4.563
80768W        W52384  36.189  31.464   3.509
80769W        W52385  12.711  15.183  14.974
80770W        W52386   5.488  26.173   4.348
80771W        W52387  14.336   6.965   2.252
80772W        W52388  35.611   0.446   2.273
80773W        W52389  36.985   8.361  13.332
80774W        W52390  11.260  27.211  11.578
80775W        W52391  11.840  14.229  13.557
80776W        W52392  28.493   8.294  14.898
80777W        W52393  23.000  43.360   3.328
80778W        W52394   8.423   1.828   3.740
80779W        W52395   5.673  16.514  12.924
80780W        W52396  34.438  22.901   4.710
80781W        W52397  44.860  32.095  14.886
80782W        W52398  36.856   1.942   2.370
80783W        W52399  37.170  35.576  11.213
80784W        W52400  32.835  32.063  10.419
80785W        W52401   1.863  41.060   3.375
80786W        W52402  30.945  11.387   1.454
80787W        W52403  28.238  33.082   4.117
80788W        W52404   1.626  12.270  14.562
80789W        W52405  24.503  25.486   3.771
80790W        W52406  32.431  36.891  12.006
80791W        W52407  10.986  28.181  10.072
80792W        W52408  40.503  38.085   0.334
80793W        W52409  20.730  13.134  13.282
80794W        W52410  12.118  17.612   3.366
80795W        W52411  41.995  27.192  10.651
80796W        W52412  15.932  20.360   3.365
80797W        W52413  13.710  39.988  13.669
80798W        W52414  31.048  29.912  12.163
80799W        W52415   2.196   1.792  11.034
80800W        W52416  25.404  41.739  14.620
80801W        W52417   4.467  24.523  10.510
80802W        W52418   5.429  22.221  11.530
80803W        W52419   7.613  39.015   0.909
80804W        W52420  12.946  18.275  10.242
80805W        W52421  37.356   9.681   3.768
80806W        W52422  35.579  41.746   0.451
80807W        W52423  43.530  11.912  13.517
80808W        W52424  13.649   1.987  14.244
80809W        W52425   3.635  34.009   2.401
80810W        W52426  19.587   3.512  11.145
80811W        W52427  39.014  28.928   2.643
80812W        W52428  25.682  18.593  12.867
80813W        W52429  35.535   8.100  10.627
80814W        W52430  15.669   5.395  11.067
80815W        W52431  35.624  44.299   2.626
80816W        W52432  30.136  15.127  14.498
80817W        W52433  27.953   5.420  14.344
80818W        W52434   7.358  31.211  12.472
80819W        W52435  10.565  43.421   2.834
80820W        W52436  41.853  21.925  13.922
80821W        W52437   9.773  32.050   0.424
80822W        W52438  30.761  20.135   1.915
80823W        W52439   6.769  43.123  14.761
80824W        W52440  18.424  31.476   4.149
80825W        W52441   8.663   4.878   2.130
80826W        W52442  15.645  22.465  14.945
80827W        W52443   7.923  38.110  13.143
80828W        W52444  10.078  36.136   2.134
80829W        W52445  12.162  33.202  12.969
80830W        W52446   8.824  11.128  12.140
80831W        W52447  10.785   9.693   2.843
80832W        W52448  31.973  19.034   3.128
80833W        W52449  37.547  31.045   3.374
80834W        W52450  22.069  39.057   3.705
80835W        W52451  42.748  42.501   1.692
80836W        W52452  19.221  18.881  11.596
80837W        W52453  10.375   1.543  14.481
80838W        W52454  29.578   0.477  10.613
80839W        W52455  18.027  41.773  13.662
80840W        W52456   4.022  34.902  11.191
80841W        W52457  17.847   5.375  13.796
80842W        W52458   0.845  29.982  13.814
80843W        W52459   5.948  35.974   0.206
80844W        W52460   9.677   0.659   4.354
80845W        W52461  43.750  36.048  14.440
80846W        W52462  36.333   7.177   4.998
80847W        W52463  10.208  23.482   2.519
80848W        W52464  44.669  39.064   4.070
80849W        W52465  15.107   7.163   1.278
80850W        W52466  23.614  21.540   1.627
80851W        W52467  36.475  22.002   3.173
80852W        W52468  35.956  24.027   1.845
80853W        W52469  22.447  23.107   0.928
80854W        W52470   8.297   4.013  14.575
80855W        W52471   3.348   9.353   2.742
80856W        W52472  32.986  41.408  13.447
80857W        W52473  23.039  17.232   0.797
80858W        W52474  32.207   3.818   4.270
80859W        W52475  23.882  34.616   1.093
80860W        W52476  13.778  37.265  11.771
80861W        W52477  37.689  19.795  12.571
80862W        W52478  22.221  33.502  14.454
80863W        W52479  41.964  28.160  13.483
80864W        W52480  31.946  32.402   4.628
80865W        W52481  10.765  25.589   3.147
80866W        W52482  24.439  18.131  12.396
80867W        W52483  28.712  28.438  13.966
80868W        W52484  25.451  28.736   3.819
80869W        W52485  15.181  40.541  11.526
80870W        W52486  35.025   0.280   4.357
80871W        W52487  35.680  41.140  11.109
80872W        W52488   2.237  27.164   3.716
80873W        W52489  26.287  19.780   1.863
80874W        W52490  13.768  43.422   1.276
80875W        W52491   2.106   3.450   0.404
80876W        W52492   4.841  13.782   3.765
80877W        W52493  23.406  36.024   0.365
80878W        W52494  44.382   0.190  12.969
80879W        W52495  41.976  20.477  10.726
80880W        W52496  36.372  23.542  13.996
80881W        W52497   3.773   1.477  12.505
80882W        W52498  14.750  39.539  13.842
80883W        W52499  41.053  33.204   1.340
80884W        W52500   7.451   5.006  12.046
80885W        W52501  14.649   5.827   4.538
80886W        W52502  24.170  36.632  12.585
80887W        W52503  22.797  10.591  10.444
80888W        W52504  12.683  21.792  13.897
80889W        W52505  22.769  12.355   1.790
80890W        W52506  31.404  22.924   2.051
80891W        W52507  36.024  42.113   2.684
80892W        W52508  24.211  34.176  11.004
80893W        W52509  40.201  37.511   5.045
80894W        W52510  43.046  18.268  10.618
80895W        W52511  20.181  33.331  12.433
80896W        W52512  17.827  32.407   3.268
80897W        W52513   1.414  39.537  12.462
80898W        W52514  14.086  18.770  10.162
80899W        W52515  20.018  29.453   1.435
80900W        W52516  37.100  12.294  10.705
80901W        W52517  21.456  15.509  14.506
80902W        W52518  21.478   6.148   3.305
80903W        W52519  31.003  28.332  11.149
80904W        W52520  33.930  30.130  10.847
80905W        W52521   6.237  13.902   1.477
80906W        W52522  22.566  20.159   4.567
80907W        W52523  26.300  33.841  10.848
80908W        W52524   2.730  33.268   1.289
80909W        W52525  25.357  19.883   5.000
80910W        W52526  38.919  30.468   2.733
80911W        W52527  36.109   0.893   1.864
80912W        W52528   8.830  15.351  10.788
80913W        W52529  20.840  30.163  13.736
80914W        W52530  10.728  37.872  14.203
80915W        W52531   4.242  43.924   2.862
80916W        W52532  38.065  22.623  13.895
80917W        W52533  18.772  10.748  13.004
80918W        W52534  37.112  14.150   3.793
80919W        W52535  17.633   8.591   3.734
80920W        W52536  26.607  12.878  11.597
80921W        W52537  15.832  22.209   4.437
80922W        W52538  14.262  32.352  14.537
80923W        W52539   1.828   1.194   4.739
80924W        W52540  28.590  39.430   3.158
80925W        W52541  18.671   6.138   3.235
80926W        W52542  33.688  44.770  11.260
80927W        W52543  17.650  16.032  12.189
80928W        W52544   9.297   4.500   4.340
80929W        W52545  32.144  39.306   0.899
80930W        W52546  11.741  12.191   4.096
80931W        W52547   0.483  10.281  13.502
80932W        W52548  27.160  31.146   4.108
80933W        W52549  11.671  27.687   3.650
80934W        W52550   2.753  12.667   0.217
80935W        W52551  37.265  28.269   3.253
80936W        W52552   3.622   2.968   1.793
80937W        W52553   0.839  13.111  12.972
80938W        W52554  39.076  23.884  14.462
80939W        W52555   2.391  34.998  13.207
80940W        W52556  20.527  13.542   0.154
80941W        W52557  32.640   4.038   0.966
80942W        W52558  40.066  40.357  13.688
80943W        W52559  38.746  35.967  13.253
80944W        W52560  28.419   6.332   2.019
80945W        W52561   8.637  17.497   4.173
80946W        W52562  32.042  14.329  12.073
80947W        W52563  31.569  22.640  11.089
80948W        W52564   1.466  13.264   4.285
80949W        W52565  36.300  36.747   0.732
80950W        W52566  36.396   7.093  13.011
80951W        W52567  27.670  15.331  14.318
80952W        W52568  15.009  28.939   0.155
80953W        W52569  16.772  21.174   3.786
80954W        W52570  26.574   9.835  13.833
80955W        W52571  25.008  39.426   2.338
80956W        W52572  38.321  19.444   4.594
80957W        W52573  20.138  24.440   1.162
80958W        W52574  16.347  13.354  12.431
80959W        W52575   6.411  21.064   2.757
80960W        W52576  12.875  32.056   0.098
80961W        W52577   8.203  32.657  14.799
80962W        W52578   2.275  23.894  13.411
80963W        W52579  16.997  32.914  12.802
80964W        W52580  18.600  40.234   2.280
80965W        W52581  31.357  15.079  10.675
80966W        W52582  27.489   9.295  10.740
80967W        W52583  28.690  27.439   1.438
80968W        W52584  43.153  10.636  12.165
80969W        W52585  33.450   4.413   2.860
80970W        W52586  19.286  11.729   3.258
80971W        W52587   8.649  15.820  10.775
80972W        W52588  26.651  19.423   1.738
80973W        W52589  34.620  42.218   0.401
80974W        W52590  27.603  18.509   1.032
80975W        W52591  37.615  36.964  12.998
80976W        W52592  22.607   2.254   1.454
80977W        W52593  32.989   2.003   3.173
80978W        W52594   9.795  24.090  11.686
80979W        W52595  26.949  25.060  14.687
80980W        W52596   0.066  15.386  11.146
80981W        W52597   3.449   8.344   2.665
80982W        W52598  30.924  11.829  14.831
80983W        W52599   9.859  16.047   3.185
80984W        W52600  10.791   7.071  11.147
80985W        W52601  27.258   2.961   3.355
80986W        W52602   8.847  29.863   1.836
80987W        W52603  28.487  12.813   0.381
80988W        W52604  22.079   3.691  14.291
80989W        W52605   2.949   2.904   0.318
80990W        W52606  16.826  16.221   9.836
80991W        W52607  15.660   6.347  14.026
80992W        W52608  16.235  41.541  11.615
80993W        W52609  43.703  43.046   5.080
80994W        W52610   8.342  11.911  13.013
80995W        W52611  13.361   4.847  12.322
80996W        W52612  12.771  16.271   3.345
80997W        W52613  41.981  31.664   4.163
80998W        W52614   3.601   3.751   1.722
80999W        W52615  41.936   6.735   2.755
81000W        W52616  14.523  21.628   1.541
81001W        W52617  11.650  15.395   0.882
81002W        W52618  43.948  16.819   2.889
81003W        W52619  38.812  31.357  14.827
81004W        W52620   2.741   7.414   3.267
81005W        W52621  23.801  36.517  13.389
81006W        W52622  14.971  20.983  10.189
81007W        W52623  10.635  34.486   0.261
81008W        W52624  10.733  35.862   1.710
81009W        W52625  35.692  26.761  11.164
81010W        W52626  34.863  19.220  13.934
81011W        W52627  44.975  19.358  10.826
81012W        W52628   3.432   5.438   1.421
81013W        W52629  18.954  43.438  10.178
81014W        W52630   1.870  32.028  14.786
81015W        W52631   7.360  34.042   3.273
81016W        W52632   0.350  27.150   0.809
81017W        W52633  20.923  17.580  13.561
81018W        W52634  20.125  18.241  12.604
81019W        W52635  27.256  19.745  12.036
81020W        W52636  28.891  30.006  13.597
81021W        W52637  38.854  15.529  11.227
81022W        W52638   0.949  37.058   5.563
81023W        W52639  32.369  36.557   2.798
81024W        W52640  18.495  25.667  11.080
81025W        W52641  31.178  28.922   2.380
81026W        W52642  26.449  10.345   1.606
81027W        W52643  22.649  21.156  11.424
81028W        W52644   0.249  13.684  13.496
81029W        W52645  37.389  20.223   3.089
81030W        W52646   5.123  19.616  14.752
81031W        W52647  36.676  11.063  13.581
81032W        W52648  42.028  11.787  13.947
81033W        W52649  31.910  16.241  14.749
81034W        W52650  16.425  44.433   1.676
81035W        W52651  12.099  29.167  13.779
81036W        W52652  33.564   1.728  10.320
81037W        W52653   9.415  34.824  12.946
81038W        W52654   5.974  34.847  10.983
81039W        W52655  23.164   0.895  13.011
81040W        W52656  17.562   2.389   0.973
81041W        W52657  11.435  37.090   1.799
81042W        W52658  30.770  23.973   1.037
81043W        W52659  16.100   8.227   3.156
81044W        W52660  11.629  21.296   1.921
81045W        W52661  25.967  23.759   2.525
81046W        W52662  14.165  35.732   4.106
81047W        W52663   4.743   2.250  11.111
81048W        W52664  42.002  33.500   1.414
81049W        W52665  34.709  26.776   4.071
81050W        W52666  11.313   8.135   2.325
81051W        W52667  11.397  30.115  14.561
81052W        W52668  20.171  19.549  13.911
81053W        W52669  34.697  33.192  14.450
81054W        W52670  25.638   5.318   2.424
81055W        W52671   1.282  36.527  11.178
81056W        W52672  41.515  38.010  11.352
81057W        W52673  12.280   1.333   3.819
81058W        W52674  29.645   8.064   4.407
81059W        W52675   7.141  25.519   4.559
81060W        W52676  17.551   5.709   2.743
81061W        W52677  25.539  19.603  14.805
81062W        W52678   7.335  43.534   0.729
81063W        W52679  15.765  40.909   1.013
81064W        W52680  39.043  12.196  14.971
81065W        W52681  32.596  11.945  11.595
81066W        W52682   6.922  41.438  12.574
81067W        W52683  30.963  19.901   3.603
81068W        W52684  25.834  13.015  12.499
81069W        W52685  11.163   0.998  14.151
81070W        W52686  15.688   4.487   4.608
81071W        W52687   6.003  41.441   0.781
81072W        W52688  36.984  10.623   2.425
81073W        W52689   2.199  12.664  12.438
81074W        W52690  22.711  33.395   2.333
81075W        W52691  38.234  29.894  13.987
81076W        W52692  21.136   7.823  10.741
81077W        W52693  40.568  37.930   0.832
81078W        W52694  19.188  31.852   0.635
81079W        W52695  42.159  20.644  14.611
81080W        W52696  32.268  37.939   4.900
81081W        W52697  13.611  34.341  13.796
81082W        W52698  15.604  25.262   1.748
81083W        W52699  30.452  31.223   0.861
81084W        W52700  33.653  39.958   4.228
81085W        W52701  26.531  39.110   0.256
81086W        W52702  25.895   3.189   4.285
81087W        W52703   5.774  17.821   3.552
81088W        W52704  12.898   0.435  14.882
81089W        W52705  42.828  28.980  10.714
81090W        W52706  18.699  16.088  13.039
81091W        W52707  21.779   8.431   0.433
81092W        W52708  40.448  18.393   0.191
81093W        W52709  43.698  36.091  13.028
81094W        W52710  20.234  20.963  11.600
81095W        W52711  43.138  23.541  11.196
81096W        W52712  22.134  34.752  14.041
81097W        W52713   3.220   5.714  10.475
81098W        W52714  26.323  19.360   2.163
81099W        W52715   8.170  14.004   3.848
81100W        W52716  44.059  34.318  14.853
81101W        W52717  29.384  29.050   0.372
81102W        W52718  31.422  41.497  12.029
81103W        W52719  28.076  28.520  12.867
81104W        W52720  39.298  38.841   0.285
81105W        W52721   8.340  38.928   3.280
81106W        W52722  12.368  32.312   3.247
81107W        W52723  44.792  11.877  13.100
81108W        W52724  35.231  43.179   4.253
81109W        W52725   9.681  29.903   1.376
81110W        W52726  37.802  19.910   4.945
81111W        W52727   2.773   8.243  11.538
81112W        W52728   7.955  20.143  12.976
81113W        W52729  40.136  35.917  12.457
81114W        W52730   3.888   8.201   3.279
81115W        W52731  22.995  35.999  13.413
81116W        W52732  43.482  12.352  11.882
81117W        W52733  16.815  22.953   4.118
81118W        W52734  42.943  27.747  13.465
81119W        W52735  18.106   6.066   1.904
81120W        W52736  37.064  10.186   4.273
81121W        W52737   2.386   8.218   3.621
81122W        W52738  15.134  19.654  14.431
81123W        W52739  21.624   0.661  11.917
81124W        W52740  37.948  12.697  13.896
81125W        W52741   0.182  28.043   4.315
81126W        W52742  22.336  30.083   3.314
81127W        W52743  20.582  30.933   1.863
81128W        W52744   0.230   7.437   0.455
81129W        W52745   1.241  43.445   1.415
81130W        W52746  18.217  14.112  13.827
81131W        W52747  12.537  36.479   3.993
81132W        W52748   9.220   3.182  11.387
81133W        W52749  27.613  41.587  14.531
81134W        W52750  20.689  19.783  11.920
81135W        W52751  24.227  39.900   1.742
81136W        W52752  35.008  10.859  11.619
81137W        W52753   7.678  36.794   3.501
81138W        W52754  18.272  37.310  13.418
81139W        W52755  17.515   7.941   4.508
81140W        W52756  12.939  41.918  12.467
81141W        W52757  16.639  22.232  14.703
81142W        W52758  20.055  22.434   4.876
81143W        W52759  19.434  39.299   0.973
81144W        W52760  29.108  32.387  13.453
81145W        W52761  33.815  28.724  11.259
81146W        W52762  41.268   2.322   3.721
81147W        W52763  41.753  25.706   1.568
81148W        W52764  16.855  13.925  11.915
81149W        W52765   4.322   0.642   1.410
81150W        W52766   1.493  19.036  12.525
81151W        W52767   9.786  10.431  14.492
81152W        W52768   1.299  34.732   1.979
81153W        W52769  11.305   2.239   0.692
81154W        W52770  44.959  12.376  13.109
81155W        W52771  19.598  15.675   2.812
81156W        W52772  18.069  25.136  13.547
81157W        W52773   8.911   6.331  12.615
81158W        W52774   0.983  28.203   0.558
81159W        W52775  32.726   2.572   2.574
81160W        W52776  40.114   9.258  12.145
81161W        W52777  26.634  34.165  12.029
81162W        W52778   7.298  18.493  10.660
81163W        W52779  23.702   0.589  11.436
81164W        W52780  29.463  43.471   2.073
81165W        W52781  19.265  27.003  13.481
81166W        W52782   2.365  20.032  14.796
81167W        W52783  36.564  32.540  14.388
81168W        W52784   9.831   2.019   4.185
81169W        W52785   9.757   9.123   4.185
81170W        W52786  21.824  19.108   0.395
81171W        W52787   0.750  21.536   3.246
81172W        W52788  13.868  26.402   0.454
81173W        W52789  20.601   1.830  14.405
81174W        W52790   4.240   4.692   3.729
81175W        W52791  38.122   8.125   0.972
81176W        W52792  19.677  28.888  12.228
81177W        W52793  43.821   1.685  14.268
81178W        W52794  13.662  39.005   3.353
81179W        W52795   9.617  38.509  14.719
81180W        W52796   8.794  44.474   0.732
81181W        W52797   8.920  15.150  13.650
81182W        W52798   9.214  33.159   2.249
81183W        W52799  35.475   8.200   1.383
81184W        W52800  27.190  17.073  14.063
81185W        W52801  10.595  37.105   4.709
81186W        W52802  20.683  42.201  13.424
81187W        W52803   6.162  17.999   1.371
81188W        W52804   0.949   1.280   0.227
81189W        W52805  42.458  31.996   2.190
81190W        W52806  10.045  26.590  13.432
81191W        W52807  10.159   8.692  11.154
81192W        W52808  38.980   6.850   4.312
81193W        W52809  33.632  16.051   0.736
81194W        W52810  33.630   7.143   1.871
81195W        W52811  25.723  15.257   3.293
81196W        W52812  20.783  20.376  12.031
81197W        W52813  35.612  22.186  14.269
81198W        W52814  10.126   4.832   1.253
81199W        W52815   0.798  32.554  10.689
81200W        W52816  17.431  18.530  11.130
81201W        W52817  42.507  24.090  11.652
81202W        W52818  24.688  37.076  13.430
81203W        W52819  24.473  30.135   1.743
81204W        W52820  32.141  34.376   4.679
81205W        W52821  44.720  40.820   2.345
81206W        W52822   7.171  43.270   4.118
81207W        W52823  23.501  41.008   4.746
81208W        W52824  38.798  37.738   0.954
81209W        W52825   0.268  25.253  12.000
81210W        W52826  21.405  18.906   5.154
81211W        W52827  40.833  33.875   1.371
81212W        W52828  29.957  22.550  11.454
81213W        W52829  30.044  18.985   4.232
81214W        W52830  10.064  18.836  12.879
81215W        W52831   7.878  19.655   9.879
81216W        W52832  44.766   1.251   3.075
81217W        W52833  33.620   9.825  11.659
81218W        W52834  29.977  39.909  14.403
81219W        W52835  13.973  42.602   1.304
81220W        W52836  35.510  16.423  13.337
81221W        W52837  22.284  11.206   1.754
81222W        W52838   8.718  27.670  14.875
81223W        W52839  40.821  19.081  12.242
81224W        W52840  40.880  17.253  13.414
81225W        W52841   5.932  13.778  12.827
81226W        W52842  12.637  24.054   1.639
81227W        W52843  29.973  29.888   1.401
81228W        W52844  44.326  20.721  13.005
81229W        W52845  44.797  15.540   3.313
81230W        W52846   5.940  37.950  12.198
81231W        W52847  42.637  34.363  13.718
81232W        W52848  42.342   7.700   0.935
81233W        W52849  10.576  24.698   0.219
81234W        W52850  13.490  41.912  12.414
81235W        W52851  31.887   5.489   4.109
81236W        W52852  16.718  21.070   4.747
81237W        W52853  25.641   0.381   2.662
81238W        W52854   8.608  25.977   4.671
81239W        W52855  24.771  31.083  10.781
81240W        W52856  30.121  27.953  10.190
81241W        W52857   7.275  13.020   4.629
81242W        W52858  34.840  14.639   4.230
81243W        W52859  38.366  42.732  11.122
81244W        W52860  44.710  21.915  12.901
81245W        W52861   3.905  32.904  14.798
81246W        W52862   1.774   0.675   0.045
81247W        W52863  33.494  21.008   2.067
81248W        W52864  30.515  40.666  12.531
81249W        W52865  28.162  30.656  13.319
81250W        W52866  14.215  14.540  13.911
81251W        W52867  33.448  19.573  10.235
81252W        W52868  15.691  37.460  11.296
81253W        W52869  20.310  39.540   3.221
81254W        W52870  28.035  41.953   0.426
81255W        W52871  38.353  18.174   4.751
81256W        W52872  33.018  15.078   0.314
81257W        W52873   9.491  44.197  11.659
81258W        W52874  10.808  27.942  10.782
81259W        W52875  19.146   8.836  10.352
81260W        W52876  35.915  16.200  13.581
81261W        W52877  17.633  28.917  13.865
81262W        W52878  20.167  30.496   0.720
81263W        W52879  12.289  22.065   2.793
81264W        W52880  32.055  42.545  14.716
81265W        W52881  15.335   7.750   3.091
81266W        W52882   9.255  40.181  10.249
81267W        W52883   4.738  37.719  13.556
81268W        W52884   3.795  23.602   2.842
81269W        W52885  13.551  17.307  11.067
81270W        W52886   4.796  36.645  10.679
81271W        W52887  29.007  35.375  13.832
81272W        W52888  24.474  35.632  14.289
81273W        W52889  10.379  30.645   2.820
81274W        W52890  19.776  17.527   2.728
81275W        W52891  18.178  33.957  11.077
81276W        W52892  25.649  30.947   0.851
81277W        W52893  17.573  38.444  10.652
81278W        W52894   1.456  28.598  14.468
81279W        W52895   8.136  32.600  12.976
81280W        W52896  37.945  19.740   0.475
81281W        W52897  21.005  36.312   3.862
81282W        W52898  28.473   6.722   2.960
81283W        W52899  20.004  21.611  13.838
81284W        W52900  14.197  14.735  14.425
81285W        W52901  37.349  40.618  13.625
81286W        W52902  33.893   9.310  12.406
81287W        W52903  18.241  31.463   0.451
81288W        W52904   2.758  26.097  12.665
81289W        W52905  22.480  15.042  10.753
81290W        W52906  34.398   5.909  13.534
81291W        W52907  33.583  32.835   3.426
81292W        W52908  42.523  24.528  12.881
81293W        W52909  20.654   9.743  11.571
81294W        W52910  34.318  33.046  11.102
81295W        W52911  39.099  15.565   2.331
81296W        W52912   0.309  22.572   2.268
81297W        W52913  13.195  11.677   0.516
81298W        W52914  29.078  20.619   1.028
81299W        W52915   5.170   8.378   4.565
81300W        W52916  32.783  11.751  14.954
81301W        W52917  19.086  23.305  13.587
81302W        W52918   2.876   1.895  13.929
81303W        W52919  26.113   7.411   1.978
81304W        W52920   0.008  36.638   2.764
81305W        W52921  14.332  25.099  10.426
81306W        W52922  17.355  30.859   2.886
81307W        W52923  10.211  42.968   0.791
81308W        W52924   1.801   9.000  13.408
81309W        W52925  33.021   3.472   4.579
81310W        W52926   6.476  22.177  14.912
81311W        W52927  28.639  39.587   4.538
81312W        W52928  28.604  19.204  11.865
81313W        W52929  38.832  36.115  11.587
81314W        W52930  11.919  34.524   0.850
81315W        W52931  42.022  35.849   9.836
81316W        W52932  26.198  15.681  11.386
81317W        W52933   6.415  18.543   3.604
81318W        W52934  10.361   7.627   2.195
81319W        W52935  32.963   5.901   2.225
81320W        W52936  24.453  28.989   4.099
81321W        W52937  32.068  17.295   2.691
81322W        W52938  23.014  21.526  11.510
81323W        W52939  18.610  29.685   1.800
81324W        W52940  17.520   4.861  10.892
81325W        W52941  16.387   3.802  12.345
81326W        W52942  32.126   8.241  13.257
81327W        W52943  11.768  19.287  11.993
81328W        W52944  31.945  44.398   5.479
81329W        W52945  13.758  34.308   0.218
81330W        W52946  10.898  36.372  11.680
81331W        W52947  22.674  42.911   0.754
81332W        W52948  33.436  44.443   2.713
81333W        W52949  21.977  40.368  10.653
81334W        W52950  35.482  16.779  11.117
81335W        W52951  19.378   2.482   3.709
81336W        W52952  31.628  37.908  12.138
81337W        W52953  23.290  23.066  13.114
81338W        W52954  35.103  27.476   2.121
81339W        W52955   3.664  33.985   4.870
81340W        W52956  40.934   4.949   1.530
81341W        W52957  41.063  15.225   3.202
81342W        W52958  28.974   8.671  11.251
81343W        W52959   7.684   2.959   1.999
81344W        W52960  26.493   6.265   0.738
81345W        W52961  16.627   7.680  13.837
81346W        W52962  34.604  30.522   4.495
81347W        W52963  14.052   6.764  12.245
81348W        W52964  40.800  27.701   1.443
81349W        W52965  42.604  33.191  12.258
81350W        W52966   2.675  40.982   2.494
81351W        W52967  11.778   1.437   1.186
81352W        W52968   4.864  31.720  10.965
81353W        W52969  12.650  12.650   1.006
81354W        W52970   3.872   0.072  14.268
81355W        W52971   2.721  29.894   0.377
81356W        W52972  43.560  24.015   0.335
81357W        W52973  41.721  36.326   4.198
81358W        W52974  39.388  30.177  13.856
81359W        W52975   0.860  34.055  14.943
81360W        W52976  12.448  35.862   2.311
81361W        W52977  29.418  24.484  13.026
81362W        W52978   3.932   0.940   0.561
81363W        W52979  14.968  39.488   2.922
81364W        W52980  15.254  43.791   3.855
81365W        W52981  42.025   7.920   2.644
81366W        W52982  25.384  31.779   3.542
81367W        W52983  27.997  22.140  12.580
81368W        W52984  22.556  33.444   0.974
81369W        W52985  37.971  37.591   4.311
81370W        W52986  15.277  41.282  13.114
81371W        W52987  19.638  36.111   2.669
81372W        W52988  39.149  27.097   0.297
81373W        W52989  37.422  11.135   1.819
81374W        W52990  23.065  12.211  14.419
81375W        W52991  17.746   0.080   9.748
81376W        W52992  24.017   8.703  13.130
81377W        W52993  38.905  18.412  14.358
81378W        W52994  29.419  20.710  10.348
81379W        W52995  30.048  13.058  11.308
81380W        W52996  39.898   2.183   2.372
81381W        W52997   3.329   5.953   5.023
81382W        W52998  17.773   9.632   0.883
81383W        W52999  10.803  10.389   4.009
81384W        W53000   8.426   3.987  13.118
81385W        W53001  21.938  11.385  11.507
81386W        W53002  37.380  12.165  14.861
81387W        W53003  20.253  19.270  14.361
81388W        W53004   6.354   3.407   0.215
81389W        W53005  36.084  35.568   4.484
81390W        W53006   1.667  31.475   1.648
81391W        W53007  20.814   9.830  14.019
81392W        W53008  13.297   0.515  11.173
81393W        W53009  34.501  44.880   3.570
81394W        W53010  36.897  30.269   3.097
81395W        W53011  30.525  20.560   3.638
81396W        W53012  19.459   1.988   4.599
81397W        W53013   1.914  36.718  13.127
81398W        W53014  32.357  38.616   1.445
81399W        W53015  38.849  29.659   3.116
81400W        W53016  13.877  24.820  14.525
81401W        W53017  25.133  10.654  12.649
81402W        W53018  16.511  15.723   3.465
81403W        W53019  30.534   9.461  14.350
81404W        W53020   5.957  16.967   2.208
81405W        W53021  17.685  20.004  14.984
81406W        W53022  28.742  24.150  14.792
81407W        W53023  43.238   6.889   4.652
81408W        W53024  31.639  44.904  10.483
81409W        W53025  22.637  42.020  12.510
81410W        W53026   3.481  10.742  13.158
81411W        W53027  43.557   5.904   2.918
81412W        W53028  28.241   6.503   3.664
81413W        W53029   9.716   6.340  10.856
81414W        W53030  18.350  27.147   0.578
81415W        W53031  18.556  12.727   0.826
81416W        W53032   7.399  40.532  12.541
81417W        W53033  32.743  22.566   3.433
81418W        W53034   8.898  38.310  11.449
81419W        W53035   7.184  28.920  14.886
81420W        W53036  14.825   0.070   4.512
81421W        W53037  28.877  10.690   2.804
81422W        W53038   5.340  34.668   3.838
81423W        W53039  34.020   0.028   0.401
81424W        W53040  26.440  30.346  10.670
81425W        W53041  34.978   8.780  14.897
81426W        W53042  19.238  41.530  14.361
81427W        W53043  29.151  21.659  12.088
81428W        W53044  21.798  23.486   0.773
81429W        W53045   1.550  25.640   0.083
81430W        W53046  31.542  41.477   3.304
81431W        W53047  40.243   6.120   0.007
81432W        W53048  16.085   1.954   0.800
81433W        W53049  17.758  40.381  10.536
81434W        W53050  38.813  24.766   0.162
81435W        W53051  20.833  42.788  14.364
81436W        W53052   1.124   2.935   3.437
81437W        W53053  23.207  38.005   3.571
81438W        W53054  37.004  31.309   4.245
81439W        W53055  33.136  39.941   4.294
81440W        W53056  16.885  18.007  12.378
81441W        W53057  35.668  27.287  11.101
81442W        W53058  31.102  15.736   2.441
81443W        W53059   4.331  12.058  11.544
81444W        W53060  11.707  17.935  12.124
81445W        W53061  32.092  41.106  14.754
81446W        W53062  38.503  38.793   2.317
81447W        W53063  41.835  32.557   4.379
81448W        W53064  17.686  31.919   4.145
81449W        W53065  33.949  40.585  13.156
81450W        W53066  35.934  11.904   1.241
81451W        W53067  43.807  23.410   2.869
81452W        W53068   1.894   1.392   2.042
81453W        W53069  19.514  23.007   3.995
81454W        W53070  15.647  35.125  11.019
81455W        W53071  13.688  16.597   5.423
81456W        W53072  34.981  34.331  13.893
81457W        W53073  11.623  15.888  13.623
81458W        W53074   0.010  37.296   3.295
81459W        W53075  20.131  44.258  12.916
81460W        W53076  22.303  36.861   2.748
81461W        W53077  31.617  40.409  10.723
81462W        W53078  41.876  23.123   2.309
81463W        W53079  12.141   6.852   1.350
81464W        W53080  24.063  39.490   3.603
81465W        W53081  31.236  28.157   0.450
81466W        W53082  27.758   1.080   0.949
81467W        W53083  16.029  31.387  14.736
81468W        W53084  26.643  43.119   3.122
81469W        W53085   7.156  40.485   4.637
81470W        W53086   0.921  28.512  11.621
81471W        W53087  20.737  39.305   1.831
81472W        W53088   7.499  29.979  12.527
81473W        W53089  14.277  44.913   4.497
81474W        W53090   9.136   4.151  12.974
81475W        W53091  19.741  15.311   4.868
81476W        W53092   6.741  26.711   3.901
81477W        W53093   9.012  35.927  10.534
81478W        W53094  31.538  31.095   4.489
81479W        W53095  27.862   7.245   3.290
81480W        W53096   3.458  24.548  12.446
81481W        W53097  20.243  11.810  10.170
81482W        W53098   2.330  38.044  12.132
81483W        W53099  24.240  17.898  13.938
81484W        W53100  22.717  44.414  13.455
81485W        W53101   5.407  32.916  13.031
81486W        W53102  44.420  33.345  13.362
81487W        W53103  33.371  21.223  11.180
81488W        W53104  14.788   8.657  12.013
81489W        W53105   1.792   5.029   0.918
81490W        W53106  44.241  21.070  12.591
81491W        W53107  29.479  10.255  11.064
81492W        W53108  10.124  29.192  10.900
81493W        W53109  27.959  40.117  14.834
81494W        W53110  33.096  12.775   2.065
81495W        W53111   9.289  34.025  13.672
81496W        W53112  33.527  29.002  12.995
81497W        W53113  37.862  25.109  13.262
81498W        W53114  12.850  15.207   2.921
81499W        W53115  25.750  23.077   1.878
81500W        W53116  20.762  20.545  11.092
81501W        W53117  37.500  30.706  11.514
81502W        W53118  31.516  11.824   3.601
81503W        W53119  41.028   2.650  12.888
81504W        W53120  10.071  12.858  13.438
81505W        W53121   9.773   9.770  10.905
81506W        W53122  21.016  36.790  11.621
81507W        W53123   3.934   8.827   0.969
81508W        W53124  39.065   6.771  12.069
81509W        W53125  17.752   9.176   1.781
81510W        W53126  35.593  20.337  14.030
81511W        W53127  29.233  14.869  12.034
81512W        W53128  21.291  30.821   4.062
81513W        W53129  33.948  18.977  14.060
81514W        W53130  13.692  18.177  14.880
81515W        W53131   0.292  30.482   3.924
81516W        W53132  32.596  39.771  13.830
81517W        W53133   6.312  10.351  14.696
81518W        W53134  22.052  42.237  13.759
81519W        W53135  10.787  42.282   0.950
81520W        W53136   3.715  32.137   3.158
81521W        W53137  18.792  43.008  11.535
81522W        W53138  11.342   5.243   3.656
81523W        W53139  28.154   9.302   4.609
81524W        W53140   1.353  19.315  13.555
81525W        W53141   6.202  14.774  12.050
81526W        W53142  30.454  24.731   1.416
81527W        W53143  26.635   8.462  12.062
81528W        W53144  34.916  28.563   3.436
81529W        W53145  44.305  42.505   3.232
81530W        W53146  39.909  19.490   0.852
81531W        W53147   1.692   4.744  13.381
81532W        W53148  33.043  27.591   4.670
81533W        W53149   0.284  44.289  14.378
81534W        W53150  43.244  30.227  11.966
81535W        W53151  31.112  31.757  11.168
81536W        W53152  32.862  39.550  13.140
81537W        W53153  25.864  35.977  12.842
81538W        W53154   7.641  40.286  13.355
81539W        W53155  25.977  25.482  10.658
81540W        W53156   6.534  35.413  13.908
81541W        W53157  21.967  44.590  12.003
81542W        W53158  23.061  30.177  11.762
81543W        W53159  26.077   1.440  11.178
81544W        W53160  18.010  39.397   1.812
81545W        W53161  35.078  30.899   0.435
81546W        W53162  10.374  10.144   2.947
81547W        W53163   2.268  36.700   3.140
81548W        W53164  22.078  35.430   3.982
81549W        W53165  32.699   9.159  13.618
81550W        W53166   0.512  42.443  13.318
81551W        W53167   1.993  14.747   4.528
81552W        W53168   4.669   4.941   2.509
81553W        W53169  35.507  20.105   4.573
81554W        W53170  13.332  44.380   2.382
81555W        W53171  31.073  44.702  14.426
81556W        W53172  20.118  26.425  11.557
81557W        W53173  17.671  12.204  13.974
81558W        W53174  43.195  28.943  14.618
81559W        W53175   7.714  18.389  13.527
81560W        W53176  42.338   9.419   3.885
81561W        W53177   3.210  19.521  14.484
81562W        W53178   0.948  35.955  11.686
81563W        W53179  11.908  10.170  10.363
81564W        W53180   9.560   6.772   2.398
81565W        W53181   9.619  15.545   1.363
81566W        W53182   3.037  17.068  14.811
81567W        W53183  26.570  10.816  11.536
81568W        W53184  40.849  11.051   0.636
81569W        W53185   7.579  25.533  13.576
81570W        W53186  18.112   2.335   1.288
81571W        W53187  14.482  12.770   3.176
81572W        W53188  10.224  18.194  10.773
81573W        W53189  31.534   9.370   3.624
81574W        W53190  27.649  26.943  12.051
81575W        W53191  20.115  21.998  11.652
81576W        W53192  13.229  41.728   4.777
81577W        W53193   0.912  44.492  10.215
81578W        W53194  44.843  40.074   0.073
81579W        W53195  15.165  35.143  14.470
81580W        W53196   3.338  34.550  14.294
81581W        W53197  40.671  35.672   2.262
81582W        W53198  34.609   2.044  12.993
81583W        W53199  13.214  28.517   2.719
81584W        W53200  30.987  11.727   1.852
81585W        W53201  31.099  38.495  11.669
81586W        W53202  28.653  17.903  12.137
81587W        W53203  41.521  33.536   3.592
81588W        W53204   0.460  32.069   3.767
81589W        W53205   0.867  43.362   4.600
81590W        W53206   5.706  14.586  14.726
81591W        W53207  40.081  39.902   3.252
81592W        W53208  40.255  22.999   5.116
81593W        W53209  19.189  17.106   1.886
81594W        W53210  31.231   0.676  14.521
81595W        W53211  16.612  42.956  13.048
81596W        W53212  41.458  37.592  14.475
81597W        W53213  19.655  16.023   2.377
81598W        W53214  31.954  38.321  11.186
81599W        W53215  15.784  17.524  10.218
81600W        W53216  37.880  10.831  12.119
81601W        W53217  28.644  18.387  12.877
81602W        W53218  36.059  20.357  10.735
81603W        W53219  36.430  30.104   2.944
81604W        W53220  12.837  11.472   1.346
81605W        W53221  39.821   9.514  11.759
81606W        W53222  20.806  36.938  12.068
81607W        W53223  11.804  21.014  13.032
81608W        W53224  27.929  35.169   2.313
81609W        W53225  39.684  37.614  14.956
81610W        W53226  20.944  24.089  13.869
81611W        W53227  34.570   7.138   1.441
81612W        W53228   1.207  24.001   2.373
81613W        W53229  10.369   3.670  12.138
81614W        W53230  17.507  19.195  13.554
81615W        W53231  43.275  25.557  13.844
81616W        W53232   5.271  33.337  13.327
81617W        W53233  20.041  36.423   2.548
81618W        W53234  44.534  36.207   1.343
81619W        W53235  18.290   8.803  10.682
81620W        W53236   9.767   5.147  14.019
81621W        W53237   2.382   3.680   2.337
81622W        W53238  24.918  33.633   2.841
81623W        W53239  21.748  39.422  14.414
81624W        W53240  37.784  36.173  13.831
81625W        W53241  38.869  33.394  14.891
81626W        W53242  33.659   8.383  10.924
81627W        W53243  20.045  25.916  11.524
81628W        W53244  41.836  11.128  11.668
81629W        W53245  25.453  34.889   3.293
81630W        W53246   4.302  24.177   2.696
81631W        W53247   1.857   7.807  12.884
81632W        W53248  17.326  34.643   0.355
81633W        W53249  35.319  21.673   2.799
81634W        W53250  38.018  43.717   4.635
81635W        W53251  29.510  14.928  10.690
81636W        W53252  15.017  14.990  10.667
81637W        W53253   3.809  36.524  14.954
81638W        W53254  32.264  13.481   2.810
81639W        W53255   7.393  19.807  12.211
81640W        W53256  21.633   9.454   1.350
81641W        W53257  38.118  19.704   3.391
81642W        W53258  20.623  15.847  11.966
81643W        W53259  26.400  12.979  12.878
81644W        W53260   8.944  20.762  14.142
81645W        W53261  10.934  19.644  12.030
81646W        W53262  42.987  31.664   4.187
81647W        W53263   4.717   3.920   0.465
81648W        W53264  28.988  33.911   1.730
81649W        W53265  39.387   9.338   0.851
81650W        W53266  14.058  28.839   1.752
81651W        W53267  28.608  24.136   4.477
81652W        W53268  19.191   6.734  12.566
81653W        W53269  38.966  18.727   3.124
81654W        W53270  19.594  31.977   3.317
81655W        W53271  10.718   8.378   4.625
81656W        W53272  28.634  22.302   1.288
81657W        W53273  39.494  23.185   1.671
81658W        W53274  30.925  16.069  11.489
81659W        W53275  40.644  24.365   2.229
81660W        W53276  20.592   6.996   2.448
81661W        W53277   8.983  16.575   4.515
81662W        W53278  12.011  16.134   0.501
81663W        W53279   8.706  19.547  14.586
81664W        W53280   4.325  30.593  12.834
81665W        W53281   1.056  26.700  13.886
81666W        W53282  35.441  37.417  11.191
81667W        W53283   7.692  25.521  13.072
81668W        W53284  11.295   3.102  10.698
81669W        W53285  13.416  29.266  13.296
81670W        W53286   6.028   2.301   0.837
81671W        W53287  30.848  44.790   1.776
81672W        W53288   7.716  12.235   4.284
81673W        W53289   4.840  21.731  14.292
81674W        W53290  16.021  27.046   0.914
81675W        W53291  28.940  16.026   5.487
81676W        W53292  18.442  21.102  11.199
81677W        W53293  17.224  22.628  13.464
81678W        W53294   2.501  27.346  12.829
81679W        W53295  23.697  22.100   4.923
81680W        W53296  36.404  15.574  13.415
81681W        W53297  13.773   2.758   4.964
81682W        W53298   8.641  34.215  12.378
81683W        W53299   1.338  21.191   0.959
81684W        W53300   2.716  19.104   0.721
81685W        W53301  25.220  38.225   4.132
81686W        W53302  44.403  39.197   2.420
81687W        W53303   4.842  40.249  14.579
81688W        W53304  35.069  40.838   4.004
81689W        W53305  41.557   4.733  13.439
81690W        W53306  36.628   3.360   4.637
81691W        W53307  20.121  22.213  10.377
81692W        W53308  43.862  22.703   0.833
81693W        W53309  28.249  33.412  10.721
81694W        W53310   6.928  25.162  14.957
81695W        W53311  43.451   2.579   4.046
81696W        W53312  27.228  36.864  11.942
81697W        W53313  42.270  17.340  13.217
81698W        W53314  41.534  17.726   3.893
81699W        W53315  22.706   4.806  13.338
81700W        W53316   6.796  35.413   0.759
81701W        W53317  39.109   4.024  10.629
81702W        W53318  33.360   7.125  11.987
81703W        W53319  33.004  23.500  13.537
81704W        W53320   3.150  21.217   0.400
81705W        W53321  27.850  22.627   1.612
81706W        W53322  24.386  29.227   1.443
81707W        W53323  15.031  40.786   5.135
81708W        W53324  37.061  44.605  12.057
81709W        W53325   6.307  29.339  11.017
81710W        W53326  42.323  25.851  14.743
81711W        W53327   7.660  22.657   0.926
81712W        W53328  37.102  11.095   2.680
81713W        W53329  22.609  41.360   2.838
81714W        W53330  25.245  28.047   0.279
81715W        W53331  11.381  22.238   4.342
81716W        W53332  14.756   4.781   1.766
81717W        W53333  27.673  35.238   3.587
81718W        W53334  31.029  30.703  13.813
81719W        W53335  16.957  25.473   2.768
81720W        W53336  19.322  12.715   0.494
81721W        W53337  32.858  28.037  12.848
81722W        W53338  29.362  19.504  13.364
81723W        W53339  25.006  43.298  13.002
81724W        W53340  26.306  17.058  11.760
81725W        W53341  35.955  34.515   1.774
81726W        W53342  32.077  38.418  12.669
81727W        W53343  14.687  42.824   4.523
81728W        W53344  15.335  41.023   2.254
81729W        W53345  20.071   0.331  14.904
81730W        W53346  15.122  13.682  11.070
81731W        W53347  17.599  23.174  14.244
81732W        W53348  23.837   6.465   3.627
81733W        W53349   6.837   8.839   4.160
81734W        W53350  41.385  43.468   2.140
81735W        W53351  25.756  11.374   0.786
81736W        W53352  42.439   6.744  13.402
81737W        W53353   0.966  34.018  14.015
81738W        W53354  43.941  17.774   4.592
81739W        W53355  42.912  28.262  13.498
81740W        W53356  43.051  31.092   0.338
81741W        W53357  15.880  23.224  13.411
81742W        W53358  36.002  41.269  10.481
81743W        W53359   4.086  41.659  13.004
81744W        W53360   9.622   1.593   0.439
81745W        W53361   0.038  42.477   1.875
81746W        W53362  38.567  22.358   1.108
81747W        W53363   7.497  10.361   3.202
81748W        W53364   9.673  20.675   2.404
81749W        W53365  24.589   2.250  13.853
81750W        W53366  31.933  16.086  12.559
81751W        W53367  30.987  19.693  11.113
81752W        W53368  35.370  30.668  13.433
81753W        W53369   1.994  22.244  12.977
81754W        W53370   6.637   0.909  13.465
81755W        W53371  20.738  21.253   1.867
81756W        W53372  18.571  26.012  13.316
81757W        W53373  44.322  24.190  12.997
81758W        W53374  34.584  44.780   3.076
81759W        W53375  41.487  36.659  10.537
81760W        W53376  10.743  19.096  11.913
81761W        W53377   7.542  38.197  11.382
81762W        W53378   2.389  34.466   2.733
81763W        W53379  34.437  17.802   0.492
81764W        W53380  23.601  32.596   0.801
81765W        W53381   1.853  19.291   4.520
81766W        W53382  23.919  21.127  11.211
81767W        W53383   7.994  34.730   2.260
81768W        W53384  44.837   5.919   1.905
81769W        W53385  43.316   0.836  13.380
81770W        W53386  36.075  25.615  14.307
81771W        W53387  36.015  41.803  11.587
81772W        W53388   1.541  41.287  14.739
81773W        W53389  26.135  19.228  13.347
81774W        W53390  28.551  37.436   2.336
81775W        W53391  41.762  19.009  11.655
81776W        W53392   6.626  34.890  12.647
81777W        W53393  15.645  43.493   3.678
81778W        W53394  26.206  36.316   0.435
81779W        W53395  33.015  30.418  10.275
81780W        W53396  36.923   7.501   0.674
81781W        W53397   9.788  32.039  10.381
81782W        W53398  27.459  42.896  12.239
81783W        W53399  30.322  29.891   2.833
81784W        W53400   7.845  28.289  13.461
81785W        W53401   4.580   7.119  13.978
81786W        W53402  32.064  15.686  10.557
81787W        W53403  28.143  32.404   0.947
81788W        W53404  17.594   6.327  11.809
81789W        W53405  36.854  19.632   2.236
81790W        W53406  15.320  28.509   4.225
81791W        W53407  20.448  30.736   2.342
81792W        W53408  21.698  33.583   2.182
81793W        W53409  12.113  18.232  14.946
81794W        W53410  25.244  10.262  13.025
81795W        W53411  26.391  35.343  12.532
81796W        W53412  43.365   8.947   4.120
81797W        W53413  28.919   4.758   4.147
81798W        W53414  16.500  27.486   3.726
81799W        W53415   1.431  35.466  14.793
81800W        W53416  25.524   8.459   3.651
81801W        W53417   3.654  15.552  14.789
81802W        W53418   1.449  16.120  12.436
81803W        W53419   7.828  44.556   3.282
81804W        W53420   2.840   4.237   1.536
81805W        W53421  20.665  35.417   2.871
81806W        W53422  33.695  40.960   3.366
81807W        W53423   2.237  29.598   1.921
81808W        W53424  31.381  33.638   3.298
81809W        W53425  10.897  37.149   2.738
81810W        W53426  26.903  12.770   1.261
81811W        W53427   8.688   1.910   3.275
81812W        W53428  38.469  18.013   0.016
81813W        W53429  19.481  18.043   0.171
81814W        W53430  44.952  40.381   1.616
81815W        W53431  27.160  27.528   4.869
81816W        W53432  37.799   5.079   3.237
81817W        W53433  16.129  44.995  11.499
81818W        W53434  42.558  11.706   1.243
81819W        W53435   5.283  14.871  14.705
81820W        W53436  36.438  42.341  12.100
81821W        W53437  35.403  30.209  14.307
81822W        W53438  27.091   0.046   0.010
81823W        W53439  34.311  19.839   4.100
81824W        W53440  38.656   2.841   3.095
81825W        W53441  38.378  32.498  11.561
81826W        W53442  12.184  29.115   0.924
81827W        W53443  37.395  10.345  10.582
81828W        W53444  34.054  22.864  13.889
81829W        W53445  35.420   1.976  14.087
81830W        W53446   7.062   7.073   1.810
81831W        W53447  35.864  14.838  11.499
81832W        W53448  23.958  36.453  13.915
81833W        W53449  39.999  38.938  10.944
81834W        W53450  13.770  31.041  12.891
81835W        W53451  23.643  44.473   4.524
81836W        W53452  22.240  31.982  12.963
81837W        W53453  26.589  42.458   4.292
81838W        W53454  24.215  17.003   0.764
81839W        W53455  27.449  31.691   3.739
81840W        W53456  38.421  36.680  11.029
81841W        W53457  13.058  34.445   3.276
81842W        W53458  33.127  43.603  13.491
81843W        W53459  33.544  38.869   1.029
81844W        W53460  19.784  44.666   1.719
81845W        W53461  14.833  38.466  13.387
81846W        W53462  26.181  19.095   3.034
81847W        W53463  21.165  15.425  11.335
81848W        W53464   1.393   2.167   3.852
81849W        W53465  33.243  11.869   2.776
81850W        W53466  36.696  16.668  12.946
81851W        W53467   3.226   4.818  11.642
81852W        W53468  35.859  31.937  14.022
81853W        W53469  32.328   2.286  12.990
81854W        W53470  40.191   8.695   0.587
81855W        W53471  12.750  29.850  13.831
81856W        W53472   4.467  38.355   1.248
81857W        W53473  19.556  22.286   4.660
81858W        W53474   4.880  12.425  14.235
81859W        W53475  37.605  13.291  14.848
81860W        W53476  38.879  23.514  12.731
81861W        W53477  27.884  12.191   0.008
81862W        W53478   7.450  24.991  14.127
81863W        W53479   6.745   7.149  13.743
81864W        W53480   2.507  25.008   9.785
81865W        W53481  24.998   2.455  14.098
81866W        W53482   6.137  25.485  11.547
81867W        W53483   0.200  23.912  12.321
81868W        W53484  37.348  30.421   2.860
81869W        W53485  21.708   4.016  12.887
81870W        W53486  38.289  12.318   4.595
81871W        W53487  41.377  24.421   1.262
81872W        W53488  38.457   2.330  10.702
81873W        W53489  25.827  32.368  11.991
81874W        W53490   9.911   7.322  11.186
81875W        W53491  32.386   2.731   4.623
81876W        W53492   4.132  35.883   3.388
81877W        W53493  35.595  33.016  13.043
81878W        W53494  42.350  18.877  11.940
81879W        W53495  43.617  10.439  13.453
81880W        W53496  23.337   5.410  11.680
81881W        W53497   1.317  19.527  14.137
81882W        W53498  18.546  12.741  13.800
81883W        W53499  13.557  18.961  14.591
81884W        W53500  23.217   8.127   3.778
81885W        W53501  22.669  27.116  14.521
81886W        W53502  29.082  39.380   1.754
81887W        W53503  15.532   8.376   4.184
81888W        W53504  15.553   2.187  11.098
81889W        W53505  35.446  19.190   3.073
81890W        W53506  31.609  25.617  10.496
81891W        W53507  19.181  25.573   4.570
81892W        W53508   8.357  39.938   2.279
81893W        W53509   9.486   3.204   4.136
81894W        W53510  16.128  16.637   1.606
81895W        W53511   0.443  12.280   3.825
81896W        W53512  12.676  17.573  12.014
81897W        W53513   0.515  43.863  10.734
81898W        W53514  13.507  21.311   1.864
81899W        W53515  20.590  16.128   1.561
81900W        W53516  17.756   0.445   3.245
81901W        W53517  19.108   5.474  13.535
81902W        W53518  35.366   9.174  13.607
81903W        W53519   0.774  25.015   2.837
81904W        W53520   8.220  44.014   0.898
81905W        W53521  10.297  34.884  12.152
81906W        W53522  44.301  23.527   3.644
81907W        W53523  13.240   5.750   0.404
81908W        W53524  33.909  14.117   1.715
81909W        W53525  33.473  33.350   3.336
81910W        W53526   5.104  40.371   0.353
81911W        W53527  10.208  35.123  14.566
81912W        W53528  28.932  26.494   3.778
81913W        W53529   3.911   1.847  10.218
81914W        W53530  24.766  17.103  13.123
81915W        W53531  37.896  13.692  12.331
81916W        W53532   8.899  40.336   1.727
81917W        W53533  13.803  38.498  13.618
81918W        W53534   7.336  34.352   3.695
81919W        W53535  17.123  35.400   2.242
81920W        W53536  18.820  24.452  13.031
81921W        W53537   9.033  20.755  14.653
81922W        W53538  29.949  34.104  13.508
81923W        W53539  20.178  29.914  10.752
81924W        W53540  37.799  21.955   4.096
81925W        W53541  32.473   8.297   1.451
81926W        W53542  41.816  35.035  10.661
81927W        W53543  26.531  15.390  10.680
81928W        W53544  25.760  19.987  13.072
81929W        W53545  32.865  15.137   0.806
81930W        W53546  39.028  14.633   3.161
81931W        W53547  44.288  10.089  12.920
81932W        W53548  23.621  39.653   1.637
81933W        W53549  11.612  21.294  11.716
81934W        W53550  39.197  25.494  12.145
81935W        W53551  40.068  34.956   3.822
81936W        W53552  30.901   0.017   2.698
81937W        W53553  16.548  39.481   4.091
81938W        W53554  35.382  13.463  13.033
81939W        W53555   1.106  44.873   4.878
81940W        W53556  35.780   9.172  14.383
81941W        W53557   4.772  31.711  10.470
81942W        W53558   9.848  31.509  12.670
81943W        W53559  43.917   1.291   1.712
81944W        W53560  27.789  43.663  10.388
81945W        W53561  13.863   1.037  14.398
81946W        W53562  31.158  12.583   2.231
81947W        W53563  33.367   2.532  12.144
81948W        W53564  29.478  13.654   5.061
81949W        W53565   4.738  19.906   4.094
81950W        W53566  32.498   9.303   4.434
81951W        W53567  34.726  42.771   1.297
81952W        W53568  36.196  36.751  11.128
81953W        W53569  38.416  35.753   1.316
81954W        W53570  18.329  44.725  12.909
81955W        W53571   6.726  21.428   1.233
81956W        W53572   1.192  27.528   3.108
81957W        W53573   1.280  15.245  14.257
81958W        W53574   0.896  19.773   0.784
81959W        W53575  17.743  23.504  11.683
81960W        W53576  35.985   6.955   1.844
81961W        W53577  39.548  38.627   3.205
81962W        W53578  12.799  34.606   4.603
81963W        W53579   7.747  27.465  13.296
81964W        W53580  29.155  16.726  14.000
81965W        W53581  10.626   8.436   3.327
81966W        W53582  24.360  36.014  10.558
81967W        W53583   1.019  40.841  12.979
81968W        W53584   8.298  37.545   3.218
81969W        W53585  16.510  16.626  13.435
81970W        W53586   1.255  43.407  14.514
81971W        W53587  38.275  44.427   4.515
81972W        W53588   1.280  38.226   3.554
81973W        W53589  30.361  33.982  11.706
81974W        W53590  26.681  25.616  12.640
81975W        W53591  36.724   3.287  11.693
81976W        W53592  43.885  37.151  13.830
81977W        W53593  38.943  17.050   3.853
81978W        W53594   3.931   6.664   2.467
81979W        W53595  34.185  42.894  13.830
81980W        W53596  33.631  10.100   2.741
81981W        W53597  31.636   7.764   4.120
81982W        W53598  20.316  26.897   3.770
81983W        W53599   5.827   3.502   3.229
81984W        W53600  15.668  13.838   0.352
81985W        W53601  35.830   3.909   1.969
81986W        W53602  27.589  38.979  10.720
81987W        W53603   8.168   3.579  14.296
81988W        W53604  25.655  30.018  14.813
81989W        W53605  29.706  31.800  11.308
81990W        W53606  33.914  38.966  12.060
81991W        W53607  25.873  38.316  11.510
81992W        W53608   1.214  18.142   3.946
81993W        W53609   8.681  17.810  14.986
81994W        W53610  44.331  23.135   4.596
81995W        W53611  44.895   9.996  12.346
81996W        W53612   8.788  41.284  11.836
81997W        W53613  32.550  26.429   2.275
81998W        W53614   1.251  20.938  14.421
81999W        W53615  29.016  32.818  11.844
82000W        W53616  16.184  30.591   0.036
82001W        W53617   0.597  31.993  11.661
82002W        W53618  44.480   1.716  11.190
82003W        W53619  21.816  43.322   2.759
82004W        W53620  13.297  32.413   3.174
82005W        W53621  29.631   0.830   0.777
82006W        W53622  31.223   5.507   3.317
82007W        W53623  32.130  24.648  14.302
82008W        W53624  26.676  18.166   0.887
82009W        W53625  40.691  15.428   4.991
82010W        W53626  12.313  24.374   0.886
82011W        W53627  19.546   3.201   4.121
82012W        W53628  32.513  21.000  12.841
82013W        W53629  13.786   0.813  10.630
82014W        W53630  15.029  40.336  13.285
82015W        W53631  31.025  26.508  10.756
82016W        W53632  40.287  16.698  11.349
82017W        W53633  35.428  20.031   0.777
82018W        W53634  17.642  23.452   0.940
82019W        W53635  25.648   2.482   0.820
82020W        W53636   5.736  21.977  14.821
82021W        W53637  36.075   9.375   4.503
82022W        W53638  22.503  38.766  12.180
82023W        W53639  42.546  15.907   0.263
82024W        W53640   7.703  16.787  13.444
82025W        W53641  26.193   4.417  12.116
82026W        W53642  15.742  18.307  10.657
82027W        W53643  37.337  29.589   2.099
82028W        W53644  35.077  36.624  14.385
82029W        W53645  38.837   4.846   1.364
82030W        W53646  12.122  24.168   1.646
82031W        W53647  43.287  22.333  11.896
82032W        W53648  36.597   4.409   3.549
82033W        W53649  11.210   3.221  14.588
82034W        W53650   4.831  11.568  11.156
82035W        W53651  35.426  22.643  11.544
82036W        W53652  39.165  34.067   0.694
82037W        W53653  13.017  43.880  14.708
82038W        W53654  29.075  31.041   0.979
82039W        W53655  40.049   8.157   4.601
82040W        W53656  24.191  16.115   1.939
82041W        W53657   2.485  44.565  11.059
82042W        W53658  36.877   5.668   2.327
82043W        W53659   6.244   8.520   1.183
82044W        W53660  44.748  25.777  13.885
82045W        W53661  44.173  39.003   3.277
82046W        W53662  20.717  35.500   3.378
82047W        W53663  12.754   2.355   4.356
82048W        W53664  22.095  29.739  10.984
82049W        W53665  20.792  26.758   0.277
82050W        W53666  24.213  23.506   0.824
82051W        W53667   1.206  24.008   0.416
82052W        W53668  30.039  39.106   3.535
82053W        W53669  36.827  42.669  14.181
82054W        W53670  13.756   2.166   1.019
82055W        W53671   1.487  22.567   5.418
82056W        W53672   7.935  15.909   9.800
82057W        W53673  30.635  21.551  14.622
82058W        W53674  11.859  39.396  14.002
82059W        W53675  21.115  11.914  12.408
82060W        W53676  26.698  38.871   3.800
82061W        W53677  36.007  27.602  12.431
82062W        W53678  20.243  12.238  14.360
82063W        W53679  44.323   0.153  14.015
82064W        W53680  21.715  26.031   3.386
82065W        W53681  12.719  14.748   4.653
82066W        W53682   0.257   5.366   0.728
82067W        W53683  29.912   8.917  11.118
82068W        W53684  38.471   2.491   4.019
82069W        W53685  28.558  18.334   2.207
82070W        W53686  24.965  16.810  13.942
82071W        W53687  36.957  29.726   4.674
82072W        W53688  15.748  15.887   4.161
82073W        W53689   0.240  38.159  12.903
82074W        W53690  43.818  23.234   0.896
82075W        W53691  36.333  10.967   1.624
82076W        W53692  19.596   4.366  11.205
82077W        W53693   3.818  25.062   3.683
82078W        W53694  10.163  15.175   3.488
82079W        W53695  35.513  31.965   1.636
82080W        W53696   7.235  34.887  11.290
82081W        W53697  42.844  16.739   0.369
82082W        W53698   1.864  27.991   0.445
82083W        W53699   6.644   2.215  12.051
82084W        W53700   3.690  25.298  11.849
82085W        W53701  19.244  34.076  12.467
82086W        W53702  33.540  34.789  10.681
82087W        W53703  37.607   7.307  12.026
82088W        W53704   6.893  37.353   2.616
82089W        W53705  34.539   3.262   4.368
82090W        W53706  26.917  30.521  11.428
82091W        W53707  37.540  31.233   4.320
82092W        W53708  17.751  34.457  12.515
82093W        W53709  37.212  34.557   2.157
82094W        W53710  36.419   2.779   4.052
82095W        W53711  43.680  39.017   4.345
82096W        W53712  16.335  28.020   1.335
82097W        W53713  34.498   0.762  14.433
82098W        W53714  31.467  29.184  11.878
82099W        W53715  34.282  44.602   0.786
82100W        W53716  14.297  14.036  13.896
82101W        W53717  21.512  37.903   2.211
82102W        W53718  22.011   4.358   2.124
82103W        W53719  39.589  40.163  13.732
82104W        W53720   3.535  30.899  11.689
82105W        W53721  14.348  43.538   4.218
82106W        W53722  32.506  41.898   3.986
82107W        W53723  26.523  11.458   1.743
82108W        W53724  43.894  16.679   0.446
82109W        W53725   0.260  19.084  11.887
82110W        W53726  18.040  27.166  12.531
82111W        W53727  39.770  30.050   4.086
82112W        W53728  18.570   5.853  12.521
82113W        W53729  36.534  29.066   0.346
82114W        W53730  28.517  14.773  12.549
82115W        W53731  28.612  19.038   4.193
82116W        W53732  40.501  11.651  11.381
82117W        W53733   5.592  44.947  10.052
82118W        W53734  15.605   8.736  14.877
82119W        W53735   4.463   3.831   3.256
82120W        W53736  17.672  42.919  12.885
82121W        W53737  33.980  20.257   2.633
82122W        W53738  39.371  43.568   0.936
82123W        W53739  43.206   3.258   1.685
82124W        W53740  15.654   0.659   2.223
82125W        W53741  34.343  29.814  12.917
82126W        W53742  40.326  19.541  11.640
82127W        W53743  19.014  30.103   3.420
82128W        W53744  32.454  40.124   4.745
82129W        W53745  18.068   7.767   3.850
82130W        W53746  27.302   0.486  13.518
82131W        W53747  16.811  35.101  10.519
82132W        W53748  41.244  38.420   4.961
82133W        W53749   5.495  39.525   4.894
82134W        W53750  12.115  23.163   2.150
82135W        W53751  26.927  27.998   0.957
82136W        W53752  31.637  27.438  11.967
82137W        W53753   0.032  38.179  13.838
82138W        W53754  37.915  16.971  14.084
82139W        W53755   0.785  43.024  12.084
82140W        W53756   3.906  38.890  11.915
82141W        W53757  41.833  14.580   4.884
82142W        W53758  15.238   9.097  11.224
82143W        W53759  21.108  34.040   1.241
82144W        W53760   3.048  19.311   1.900
82145W        W53761  14.504  36.034   0.832
82146W        W53762  16.205  23.636   0.504
82147W        W53763  42.850  34.401  13.194
82148W        W53764  22.725  23.971   0.993
82149W        W53765  15.075  35.441   0.548
82150W        W53766  29.871  19.739  14.263
82151W        W53767  40.411  30.172  11.510
82152W        W53768   8.720  39.345   4.976
82153W        W53769  43.103  12.461   0.532
82154W        W53770  14.931  21.751   2.419
82155W        W53771  31.769  35.157   1.446
82156W        W53772  38.175  15.445   3.143
82157W        W53773  17.946   5.027   3.627
82158W        W53774   3.732   4.527   1.270
82159W        W53775  20.607  44.309  12.064
82160W        W53776  13.841  17.675  13.440
82161W        W53777  23.230  11.127  11.238
82162W        W53778  33.039  40.126   1.895
82163W        W53779  28.627  30.966  12.441
82164W        W53780   4.943   1.795   0.384
82165W        W53781  15.322  20.541  14.041
82166W        W53782  27.653  42.745  13.187
82167W        W53783  41.892  18.476  10.770
82168W        W53784  10.854  39.410  13.064
82169W        W53785  17.349   1.856  14.812
82170W        W53786  24.216  23.177  12.682
82171W        W53787  30.133  22.885  10.752
82172W        W53788  37.933  28.887  10.951
82173W        W53789  23.956  36.014   1.718
82174W        W53790  30.323   9.130  14.685
82175W        W53791   5.276   6.245   2.935
82176W        W53792   8.163  27.048  12.065
82177W        W53793   6.971   6.395  14.409
82178W        W53794  22.752  16.289   2.282
82179W        W53795   8.168  25.633  11.459
82180W        W53796  43.251  18.951  11.111
82181W        W53797  19.032  16.806  13.511
82182W        W53798   4.398   0.926   0.237
82183W        W53799  29.411  28.083   2.256
82184W        W53800  29.921  18.818   1.797
82185W        W53801  17.146  12.875   1.778
82186W        W53802  10.383  11.588  12.843
82187W        W53803  31.066  35.545  12.881
82188W        W53804  27.363  36.643  11.502
82189W        W53805  30.077  24.501   1.738
82190W        W53806  10.869   2.424  14.305
82191W        W53807  37.649  27.020   2.725
82192W        W53808  39.480  21.019  12.219
82193W        W53809  30.666  19.864   0.340
82194W        W53810  32.030  38.421   4.505
82195W        W53811   8.833  35.368   1.476
82196W        W53812  34.051  16.401  12.379
82197W        W53813  20.321   7.912   2.439
82198W        W53814  30.603  34.549   0.838
82199W        W53815   3.738  40.580   3.688
82200W        W53816  40.575   4.516   5.118
82201W        W53817  15.015  27.872  13.361
82202W        W53818  15.822  22.620  13.090
82203W        W53819   1.502   9.153  14.698
82204W        W53820  14.452  15.247  11.344
82205W        W53821  16.097   0.013  12.936
82206W        W53822  16.304  17.793   2.124
82207W        W53823  16.816   1.565  11.686
82208W        W53824  27.200  22.913   3.649
82209W        W53825  23.124  21.378  11.027
82210W        W53826  21.256  27.690   0.207
82211W        W53827   8.756  16.416   1.682
82212W        W53828  42.757  33.641  12.057
82213W        W53829   2.828  27.607   0.094
82214W        W53830   2.926  29.061  14.105
82215W        W53831  13.736  34.431   2.318
82216W        W53832  24.989  26.740   3.185
82217W        W53833   5.367  31.579  14.901
82218W        W53834   3.651  35.663   2.793
82219W        W53835  42.418  33.158   0.503
82220W        W53836  31.887   8.848   9.841
82221W        W53837  33.368  40.050  12.187
82222W        W53838  27.780  37.300   2.756
82223W        W53839   7.315   7.747   1.247
82224W        W53840  42.954   9.920   4.598
82225W        W53841  12.796  11.792   2.794
82226W        W53842  24.093  17.189   4.653
82227W        W53843  10.671  29.621  14.464
82228W        W53844  21.401  41.410   4.353
82229W        W53845  32.264  42.529  10.667
82230W        W53846  27.033  42.031   2.694
82231W        W53847  18.205  20.840   2.837
82232W        W53848  22.995  18.579   2.782
82233W        W53849  11.166   3.524   2.855
82234W        W53850   4.149  16.522   1.808
82235W        W53851  35.415   5.877  11.425
82236W        W53852  16.204  14.101  10.696
82237W        W53853  44.518  28.989  10.018
82238W        W53854  37.602   2.423   0.946
82239W        W53855  34.427  15.790   4.121
82240W        W53856  18.439  27.553   3.340
82241W        W53857   2.734  42.670  11.502
82242W        W53858  13.248  13.184   3.978
82243W        W53859   9.196  36.086   2.620
82244W        W53860  35.041  17.833  12.558
82245W        W53861  16.282  32.504  12.454
82246W        W53862  15.630  27.119   3.330
82247W        W53863  26.986   4.866   3.278
82248W        W53864  26.902  26.993   0.935
82249W        W53865  39.939   9.345  10.788
82250W        W53866   1.703  31.925  13.865
82251W        W53867  33.645  41.988  12.404
82252W        W53868  44.418  19.539  14.254
82253W        W53869  35.397  30.185  12.422
82254W        W53870  40.388  32.188  13.343
82255W        W53871   0.923  44.954  11.447
82256W        W53872   7.944  43.952  14.750
82257W        W53873   3.285  18.105   0.493
82258W        W53874  21.613  40.442   4.939
82259W        W53875  40.890  14.947  13.053
82260W        W53876   6.944  20.081   0.000
82261W        W53877  34.673  12.055  12.452
82262W        W53878  37.091  24.064  10.465
82263W        W53879  12.586   5.400   1.282
82264W        W53880  29.218  28.336  14.918
82265W        W53881  40.877  18.094   4.968
82266W        W53882  27.743  20.669  14.285
82267W        W53883  17.073  19.819   4.578
82268W        W53884   6.658  15.815  12.458
82269W        W53885  26.265  35.605   4.626
82270W        W53886   8.060   9.172  14.694
82271W        W53887   3.025  23.001  11.985
82272W        W53888   1.212   9.336  14.309
82273W        W53889  20.050   8.146  11.093
82274W        W53890  30.996  27.831  10.267
82275W        W53891  22.700  18.052  12.856
82276W        W53892  36.566  23.164  13.441
82277W        W53893   3.381  40.689   4.515
82278W        W53894  13.261  20.644  12.938
82279W        W53895  29.014   3.985   4.844
82280W        W53896   7.888  30.020  13.613
82281W        W53897  38.448  39.079  12.172
82282W        W53898   8.532  13.109   4.770
82283W        W53899  19.271   3.829  14.422
82284W        W53900  27.293  33.565  12.263
82285W        W53901  38.091  18.322  13.435
82286W        W53902   4.761  19.318   0.860
82287W        W53903  33.455  39.919  12.673
82288W        W53904  43.799  39.827  14.605
82289W        W53905   8.580  39.234   4.012
82290W        W53906  10.815   6.845   2.588
82291W        W53907  19.237   7.546   2.813
82292W        W53908  35.036  38.867   4.015
82293W        W53909  10.760  11.459  10.600
82294W        W53910  27.896   1.462  10.558
82295W        W53911  29.572  41.551   1.958
82296W        W53912  34.061  35.600   1.827
82297W        W53913  24.936  21.108   4.135
82298W        W53914  16.587  14.594  10.585
82299W        W53915  35.425  35.589  10.815
82300W        W53916  29.420  34.902  14.339
82301W        W53917  13.742  22.030   3.047
82302W        W53918  24.124   5.711   1.675
82303W        W53919  15.700  34.540  14.761
82304W        W53920   4.510  26.243   3.754
82305W        W53921  32.242   0.325  13.006
82306W        W53922  28.171   0.830  12.863
82307W        W53923  36.968  44.036   2.220
82308W        W53924  41.442  35.793  14.951
82309W        W53925  19.037  41.955   0.238
82310W        W53926   7.186  43.483  11.599
82311W        W53927  36.009  23.679  11.465
82312W        W53928  27.397  33.080   3.649
82313W        W53929  44.933  16.682   1.951
82314W        W53930  41.949  15.745  14.485
82315W        W53931  22.745   2.375   3.903
82316W        W53932  25.613   7.817   2.415
82317W        W53933  44.728  17.405   2.884
82318W        W53934  29.374   4.532   4.265
82319W        W53935  18.604  44.732   0.529
82320W        W53936  35.574  15.273  12.882
82321W        W53937  12.609  24.500  11.121
82322W        W53938  29.523   7.139   2.134
82323W        W53939   7.733   1.474   2.436
82324W        W53940  13.688  10.156  12.174
82325W        W53941  36.494  21.625   1.864
82326W        W53942  34.305  22.344   4.056
82327W        W53943  41.313  26.384  10.935
82328W        W53944  28.397  13.585   2.718
82329W        W53945  24.433   7.627  12.388
82330W        W53946  29.346  22.692  13.209
82331W        W53947   5.380  23.199   4.985
82332W        W53948  16.612  20.951   4.240
82333W        W53949  26.557  23.797   0.001
82334W        W53950  32.037  21.793  13.080
82335W        W53951  21.357  44.303   2.051
82336W        W53952   7.236  17.402  13.047
82337W        W53953  15.810  15.777  11.125
82338W        W53954  27.006  16.259   4.957
82339W        W53955  29.872  33.342  10.644
82340W        W53956  21.887   7.148  12.369
82341W        W53957  43.924  30.850  13.610
82342W        W53958  28.385  19.555  14.557
82343W        W53959   3.380  12.552   1.361
82344W        W53960   2.857  31.503   4.456
82345W        W53961  35.849   8.569   1.409
82346W        W53962  14.806  40.288  12.446
82347W        W53963   1.959  24.675   3.308
82348W        W53964   5.258  39.862   0.336
82349W        W53965  20.924  14.281  12.070
82350W        W53966  16.648  35.498  11.220
82351W        W53967  30.023  37.860   0.461
82352W        W53968  33.945  10.330   4.626
82353W        W53969  32.002  39.845   3.168
82354W        W53970  11.925  37.105   0.471
82355W        W53971  41.053  42.337   1.348
82356W        W53972   0.246  38.091  10.684
82357W        W53973  40.052  25.965  10.981
82358W        W53974  33.815  30.277   1.946
82359W        W53975  15.190   7.905   0.266
82360W        W53976  19.544  31.499  10.999
82361W        W53977  26.250  30.516  13.354
82362W        W53978   0.772  17.197  12.319
82363W        W53979   4.704  42.119  11.084
82364W        W53980   3.741  21.110  12.614
82365W        W53981  18.199  26.875  11.161
82366W        W53982  10.941  33.489   4.273
82367W        W53983  43.255  31.452   3.790
82368W        W53984  18.023  22.928   2.698
82369W        W53985  22.387   9.766  11.909
82370W        W53986  11.530  38.899  11.899
82371W        W53987  28.389  20.616  13.544
82372W        W53988   5.154   5.687   4.556
82373W        W53989   2.973  17.796  12.859
82374W        W53990  15.549  24.719  13.883
82375W        W53991  32.646  17.165   2.541
82376W        W53992  27.664  17.812   2.204
82377W        W53993  21.115  21.729   0.791
82378W        W53994  12.235  35.669  14.269
82379W        W53995   4.779   1.198   0.948
82380W        W53996  33.939   6.019   3.279
82381W        W53997  18.072  12.774   2.153
82382W        W53998  16.764  23.548  14.469
82383W        W53999  39.658  18.235   2.188
82384W        W54000  20.985  26.476   3.318
82385W        W54001  17.540  20.928   3.150
82386W        W54002   3.979  41.778   4.150
82387W        W54003   8.822  13.222   1.815
82388W        W54004  20.812  35.472   4.484
82389W        W54005  27.078  17.873  14.478
82390W        W54006   0.480  18.068  14.010
82391W        W54007  38.254  22.890   3.679
82392W        W54008  35.031  31.979  11.181
82393W        W54009  30.122   6.363  13.836
82394W        W54010   4.081   8.663   4.115
82395W        W54011   2.743   4.769  10.549
82396W        W54012  43.004  30.113   4.730
82397W        W54013   7.881  15.627   0.438
82398W        W54014  11.749   6.795   3.549
82399W        W54015  20.767  25.847  14.901
82400W        W54016   8.233  17.187  12.951
82401W        W54017  40.300  28.053   5.035
82402W        W54018  36.949   2.520  14.839
82403W        W54019  26.180  28.502  10.719
82404W        W54020  20.152  27.076   0.331
82405W        W54021  24.160  23.073   3.184
82406W        W54022  31.021  27.827  12.023
82407W        W54023  36.062  27.281   2.724
82408W        W54024  17.923  19.353  11.067
82409W        W54025  14.813  43.216  11.101
82410W        W54026  10.738  44.980  14.379
82411W        W54027   5.014   9.839   4.556
82412W        W54028   9.797   1.359  14.911
82413W        W54029  40.039  31.949   3.290
82414W        W54030  28.202  30.129   2.806
82415W        W54031  37.046  43.931   4.096
82416W        W54032  37.903  31.141  11.027
82417W        W54033  41.833  39.039  11.587
82418W        W54034  28.080  39.551   3.161
82419W        W54035   9.126  29.303  11.145
82420W        W54036  36.047  37.978  11.542
82421W        W54037  15.394  10.406  12.006
82422W        W54038  44.467   0.747  14.038
82423W        W54039   7.833   8.587   4.796
82424W        W54040  24.784   4.588  10.173
82425W        W54041  16.029   1.493  13.918
82426W        W54042  41.798  18.060   0.852
82427W        W54043  43.069  38.866  13.334
82428W        W54044  24.195  29.689   1.366
82429W        W54045  37.008   7.174   4.231
82430W        W54046  31.693   3.273  13.617
82431W        W54047  30.969  41.940  12.818
82432W        W54048  29.735  26.615   4.669
82433W        W54049  33.114  10.223   0.277
82434W        W54050  13.484   0.056  14.341
82435W        W54051  42.057  31.104   0.966
82436W        W54052   7.883   6.421   1.717
82437W        W54053  20.225  14.838  12.479
82438W        W54054  21.576  42.940   1.658
82439W        W54055   6.211   6.251  14.055
82440W        W54056  14.804  40.379  10.569
82441W        W54057  24.261  26.179   1.863
82442W        W54058   0.318   6.922   0.494
82443W        W54059  31.941   0.111   3.726
82444W        W54060  28.177  17.248  11.696
82445W        W54061  14.007  43.761  10.856
82446W        W54062   5.899  18.279   0.877
82447W        W54063  24.922  28.557  12.530
82448W        W54064   0.774  38.764  11.195
82449W        W54065   8.269  20.017  11.206
82450W        W54066   1.451   8.587   2.001
82451W        W54067  33.832  35.149   1.811
82452W        W54068  29.639  35.702   4.263
82453W        W54069  43.945   1.950  12.477
82454W        W54070   4.002   7.993  13.326
82455W        W54071  31.241  20.071   1.720
82456W        W54072  11.901   4.370  10.476
82457W        W54073  43.916  17.222  11.507
82458W        W54074  34.803  25.428  12.841
82459W        W54075  19.134  34.463   1.733
82460W        W54076  38.495  35.955   3.351
82461W        W54077  15.243  23.530  11.401
82462W        W54078  27.640   8.428   2.203
82463W        W54079  26.595  34.813  13.919
82464W        W54080  32.651  22.014  11.681
82465W        W54081   6.353  41.824   3.421
82466W        W54082  12.160  42.276   3.727
82467W        W54083  22.649  35.077  13.160
82468W        W54084  40.543  33.434   1.271
82469W        W54085  36.389   0.260  14.298
82470W        W54086  22.772  17.059   1.805
82471W        W54087  39.485  26.536  14.835
82472W        W54088  16.787  13.648   0.221
82473W        W54089  18.207  30.722   2.806
82474W        W54090   4.770  16.823  12.547
82475W        W54091  12.903  13.546   3.740
82476W        W54092  21.501  42.594  11.149
82477W        W54093   4.521  41.382   2.276
82478W        W54094  21.191   4.756   0.355
82479W        W54095  24.578  31.420  14.945
82480W        W54096  30.981  39.389  12.485
82481W        W54097   2.284  30.966   3.314
82482W        W54098  36.438  44.411   3.507
82483W        W54099  34.472  26.906   3.118
82484W        W54100  32.155   0.488   1.231
82485W        W54101  15.321  25.131   4.728
82486W        W54102  16.741  17.251  14.499
82487W        W54103  38.032   2.367  11.911
82488W        W54104   5.162  12.911   0.382
82489W        W54105  38.339  23.609  11.919
82490W        W54106  23.376  16.435  11.156
82491W        W54107  34.059  44.019   9.800
82492W        W54108  44.470  10.656   0.383
82493W        W54109  27.635  26.532   2.682
82494W        W54110  12.418  13.587   3.964
82495W        W54111  24.252   9.935  14.291
82496W        W54112   1.011  32.366  12.517
82497W        W54113  19.695  27.965   4.609
82498W        W54114  17.269  39.462  14.530
82499W        W54115   0.298  34.372   2.798
82500W        W54116  31.427   0.071   2.689
82501W        W54117  14.083   7.236  14.844
82502W        W54118  16.461  19.400  10.680
82503W        W54119  39.033  42.269   2.806
82504W        W54120  17.822   6.270  10.958
82505W        W54121  19.232  42.502  13.986
82506W        W54122  27.756   1.328  14.379
82507W        W54123  13.908  13.888   2.717
82508W        W54124  10.355  26.647  13.827
82509W        W54125   4.429  39.785  10.845
82510W        W54126  25.133  34.902  14.431
82511W        W54127  15.139  34.784   3.808
82512W        W54128   7.319   8.291  13.047
82513W        W54129  33.057   8.914  13.343
82514W        W54130  34.043  13.164   2.763
82515W        W54131   3.755  44.939  12.703
82516W        W54132  15.776  38.105  11.909
82517W        W54133   4.635   0.752  13.532
82518W        W54134  32.610  41.533   1.716
82519W        W54135  14.033   6.825  11.752
82520W        W54136  18.788  14.146  14.250
82521W        W54137   4.765  33.097  10.951
82522W        W54138  32.318   9.700  12.018
82523W        W54139  32.937  19.116  13.869
82524W        W54140  35.487   5.995   0.478
82525W        W54141  34.638  41.430   2.299
82526W        W54142  24.466  17.254  14.457
82527W        W54143  37.422  42.874   3.757
82528W        W54144  33.540  35.859  14.243
82529W        W54145  24.964  37.590   1.938
82530W        W54146   7.831  14.648  12.815
82531W        W54147  13.074   2.757  13.498
82532W        W54148  33.913   0.543  14.475
82533W        W54149  33.784  24.628   2.857
82534W        W54150  42.558   9.685  10.701
82535W        W54151  17.121   7.328   1.756
82536W        W54152   2.812   0.450  12.058
82537W        W54153   9.367   6.382  14.710
82538W        W54154  23.501  24.266   2.274
82539W        W54155  18.768  14.234  10.565
82540W        W54156  11.609  35.684   0.420
82541W        W54157  27.445  35.563  13.466
82542W        W54158  39.783  23.694  12.447
82543W        W54159  39.985  28.473  13.992
82544W        W54160  25.274   2.315   3.886
82545W        W54161   9.667  15.340  12.926
82546W        W54162   3.402   7.422  12.519
82547W        W54163  22.358  18.338  10.011
82548W        W54164  30.494  26.060  13.517
82549W        W54165  36.589  13.051  10.700
82550W        W54166  19.594  31.554   2.456
82551W        W54167  30.195  23.807  14.061
82552W        W54168   1.479  31.897   4.624
82553W        W54169  30.513  12.253  13.974
82554W        W54170  29.461  16.012   3.379
82555W        W54171  41.005  26.880   4.230
82556W        W54172  40.775   8.864  11.710
82557W        W54173  44.371  27.985  14.895
82558W        W54174  14.279  16.162   0.963
82559W        W54175  36.979   3.920   0.446
82560W        W54176  43.439  43.913  12.116
82561W        W54177  30.022  12.220   1.724
82562W        W54178  32.898  28.020  11.997
82563W        W54179  25.470  21.577   1.724
82564W        W54180  30.509  36.834  12.983
82565W        W54181  35.842  15.344  14.022
82566W        W54182   0.975  11.764  12.955
82567W        W54183  16.622   6.601  13.054
82568W        W54184  38.764  42.386  10.827
82569W        W54185  21.586   9.797   2.327
82570W        W54186  22.297  41.445  11.484
82571W        W54187  24.605  21.116  11.120
82572W        W54188  21.975  33.612  14.900
82573W        W54189  14.723   3.249  13.040
82574W        W54190  16.606  34.919  12.998
82575W        W54191  36.831  14.702   4.404
82576W        W54192  29.776  38.611  10.323
82577W        W54193  28.547   3.198  10.413
82578W        W54194   2.154  23.411  13.540
82579W        W54195  22.793   5.858  12.492
82580W        W54196  14.833  44.270   2.002
82581W        W54197  19.705  19.981  12.800
82582W        W54198  41.277  17.756  14.268
82583W        W54199   0.388  30.591  11.412
82584W        W54200  26.744  19.815  12.080
82585W        W54201  30.922  33.108   1.854
82586W        W54202  17.668   8.777  11.505
82587W        W54203  15.300  42.310   1.798
82588W        W54204  44.403  11.403  13.820
82589W        W54205  15.502  38.228   1.832
82590W        W54206  17.134   6.339  12.606
82591W        W54207  43.918   1.164  11.022
82592W        W54208   3.355  23.665  11.479
82593W        W54209   2.797  16.787  12.946
82594W        W54210  37.742  20.035   3.635
82595W        W54211  18.184  34.725   4.257
82596W        W54212  20.561  41.054  12.539
82597W        W54213  29.607  14.402   3.740
82598W        W54214  14.721   5.241   1.993
82599W        W54215  33.991  33.530   3.321
82600W        W54216  28.386  33.857   4.157
82601W        W54217  20.961  42.995   4.522
82602W        W54218  32.009  31.965   0.320
82603W        W54219  12.912   7.845  11.986
82604W        W54220  36.002  20.872   4.554
82605W        W54221  26.939  21.935  11.675
82606W        W54222  23.631  24.967   1.200
82607W        W54223  40.074   0.617  14.179
82608W        W54224   8.549  42.351  14.093
82609W        W54225   2.916  44.352   3.101
82610W        W54226  43.503  13.228   3.594
82611W        W54227  28.058   5.083   1.972
82612W        W54228   6.180  19.785   3.278
82613W        W54229  40.281  23.318  11.088
82614W        W54230  33.545  15.831  13.350
82615W        W54231  43.451  36.587   0.022
82616W        W54232  16.033  16.131   4.605
82617W        W54233  10.341  27.688   0.908
82618W        W54234  25.387  43.776   1.676
82619W        W54235  27.435  23.688  10.796
82620W        W54236   3.017  20.359  14.736
82621W        W54237  31.728  42.605   0.685
82622W        W54238   1.310  18.792   3.159
82623W        W54239  17.731  33.030   2.685
82624W        W54240   0.907  18.262  14.951
82625W        W54241  16.386  29.138  11.817
82626W        W54242   0.778  28.584  12.451
82627W        W54243  13.290  28.123   1.882
82628W        W54244  44.104  32.850   0.334
82629W        W54245  22.716  31.636  14.791
82630W        W54246  39.948  32.853  13.795
82631W        W54247  37.795  15.734  13.548
82632W        W54248  21.042  18.588  11.707
82633W        W54249  17.364  44.325  14.379
82634W        W54250   8.726  29.092   3.173
82635W        W54251  19.712  23.568  14.278
82636W        W54252  20.046   1.343  13.927
82637W        W54253   1.450  40.949   3.720
82638W        W54254  18.946  35.511   4.103
82639W        W54255  38.074  24.001   4.129
82640W        W54256   4.759  10.688  12.515
82641W        W54257  43.807  31.341   3.746
82642W        W54258  44.750  40.862  13.450
82643W        W54259  28.986  24.474  12.424
82644W        W54260   8.731  15.138  12.649
82645W        W54261  13.231   4.844  11.165
82646W        W54262   5.270  25.232  10.730
82647W        W54263  17.596  39.101   0.263
82648W        W54264  44.975  25.229   0.996
82649W        W54265   5.306  44.746  11.354
82650W        W54266  13.402  29.920   1.836
82651W        W54267   9.607  14.399   3.702
82652W        W54268  38.699  43.432  12.605
82653W        W54269  26.438  34.839  10.705
82654W        W54270  14.551  37.858  11.152
82655W        W54271  10.678  15.525  10.669
82656W        W54272   7.843  22.469   0.466
82657W        W54273   5.914  39.894   1.242
82658W        W54274  42.877  15.306  12.593
82659W        W54275  24.703  41.773  10.782
82660W        W54276   3.330  36.571  12.519
82661W        W54277  32.156  17.878  12.320
82662W        W54278  22.169  10.512  12.886
82663W        W54279  44.928   6.862  12.980
82664W        W54280  15.635  20.227  13.388
82665W        W54281  28.413  26.091   0.819
82666W        W54282  10.880  30.110  14.479
82667W        W54283  25.083  30.404  12.513
82668W        W54284  21.290  29.935   0.807
82669W        W54285  42.615  34.970   2.264
82670W        W54286  22.527  14.091   4.113
82671W        W54287  29.653  25.080   4.149
82672W        W54288  13.192  39.360   0.294
82673W        W54289   2.846  39.547   1.167
82674W        W54290  44.236  19.333  12.051
82675W        W54291  31.021  36.598   1.153
82676W        W54292   9.377   5.172  14.369
82677W        W54293  29.579  13.660  11.154
82678W        W54294  14.852  25.105  11.554
82679W        W54295  21.264  15.149   0.446
82680W        W54296  15.557  29.242   3.656
82681W        W54297   2.890  37.472   0.836
82682W        W54298  34.128   8.096   2.779
82683W        W54299   6.040  25.183   2.761
82684W        W54300  20.196  19.783  14.365
82685W        W54301   8.301   8.806   4.879
82686W        W54302  23.774   5.802   3.904
82687W        W54303  17.700   0.049  14.065
82688W        W54304  41.390  10.695   3.888
82689W        W54305  10.595  15.609   4.010
82690W        W54306  43.896  41.749   3.682
82691W        W54307  25.749   3.212   3.809
82692W        W54308   8.198  28.601  14.508
82693W        W54309  43.779  28.337   3.924
82694W        W54310  25.680  44.333   0.335
82695W        W54311  39.252  44.224   0.325
82696W        W54312  31.491  31.537   0.844
82697W        W54313  41.725  35.819   4.612
82698W        W54314   9.884  29.766  11.486
82699W        W54315  29.275   5.204   0.783
82700W        W54316  13.388   7.400   1.852
82701W        W54317   4.653  17.429  14.451
82702W        W54318  28.596  18.359  12.374
82703W        W54319  28.030   9.392   0.863
82704W        W54320  22.615   8.850  11.217
82705W        W54321  11.846  10.294   4.673
82706W        W54322  38.888  40.605  13.555
82707W        W54323  32.350  29.600  13.060
82708W        W54324  15.071  24.706   3.872
82709W        W54325  24.419  33.582   4.344
82710W        W54326   0.857  15.361  10.761
82711W        W54327  37.607  22.615  11.074
82712W        W54328  11.742  27.698  11.026
82713W        W54329  27.653  29.985   2.029
82714W        W54330  33.633  27.659   1.194
82715W        W54331  20.743  11.809  12.766
82716W        W54332   3.016  14.224   4.251
82717W        W54333  24.680  22.596   1.391
82718W        W54334  30.327  37.564   1.425
82719W        W54335  25.464  23.679   0.313
82720W        W54336   3.183  38.287  13.429
82721W        W54337  20.742  29.469   3.269
82722W        W54338  13.099  44.078  11.276
82723W        W54339  17.515  42.227  14.369
82724W        W54340   3.983  15.328   3.944
82725W        W54341  14.205  10.094  13.812
82726W        W54342  27.065  26.542   1.228
82727W        W54343  40.964   3.002   0.641
82728W        W54344   7.618   9.089  11.255
82729W        W54345  37.772  38.569  11.631
82730W        W54346  23.502  10.462   3.304
82731W        W54347  12.514   2.527  13.872
82732W        W54348  31.726  34.148   2.161
82733W        W54349  18.032  42.399   4.580
82734W        W54350   4.517  38.958   0.415
82735W        W54351  38.277  38.813  10.337
82736W        W54352   7.823  42.040   2.877
82737W        W54353  17.132  34.475   3.745
82738W        W54354  38.755  43.263   1.780
82739W        W54355  15.587  11.183  13.267
82740W        W54356  11.322  38.033   0.325
82741W        W54357   6.206  17.314  14.518
82742W        W54358   2.376   1.950   4.664
82743W        W54359   5.995  11.889   3.930
82744W        W54360  11.322  35.340   2.168
82745W        W54361  26.663   9.841  12.392
82746W        W54362  27.310  33.586   0.924
82747W        W54363  35.484  22.737   1.262
82748W        W54364  26.251  33.495   2.724
82749W        W54365  27.755  41.987   4.599
82750W        W54366  28.919  32.021   5.082
82751W        W54367  10.010  16.618   2.036
82752W        W54368  30.710  35.104  12.968
82753W        W54369  40.224  23.489   4.936
82754W        W54370  26.711   6.898   2.697
82755W        W54371   0.499  27.609  13.851
82756W        W54372  31.115   2.149  13.598
82757W        W54373  36.114   0.370  10.675
82758W        W54374  24.030  38.127  11.093
82759W        W54375   6.281  19.711   1.530
82760W        W54376   3.875  32.379   3.593
82761W        W54377   5.379  11.284  13.275
82762W        W54378  17.694  20.965   4.671
82763W        W54379   5.663  33.913   4.576
82764W        W54380  28.111  35.039  14.691
82765W        W54381  19.187   2.445  11.440
82766W        W54382  33.119  24.776  11.912
82767W        W54383  27.989  11.376  12.902
82768W        W54384  27.995  15.651   2.212
82769W        W54385  38.614  26.791  10.533
82770W        W54386  38.686  37.039   2.674
82771W        W54387  29.422  25.322   4.535
82772W        W54388   1.395  24.369   5.563
82773W        W54389  33.656  30.664  12.868
82774W        W54390  12.855   4.954  14.931
82775W        W54391  11.100   8.651   3.205
82776W        W54392  37.308  27.409  13.508
82777W        W54393  19.665  19.002  10.984
82778W        W54394  16.116  32.533   2.691
82779W        W54395  44.400   8.694  14.254
82780W        W54396  44.388  10.629   4.149
82781W        W54397  20.271  25.266   0.883
82782W        W54398  35.617  32.946   3.692
82783W        W54399   8.269   2.318   1.804
82784W        W54400  15.979  30.896  13.410
82785W        W54401  11.201  19.150   5.105
82786W        W54402  27.610  25.034   1.284
82787W        W54403  13.382  40.732   4.752
82788W        W54404  31.772  41.456  12.708
82789W        W54405  30.496  21.662   1.487
82790W        W54406  42.825  22.920   0.939
82791W        W54407  44.161  12.300  10.754
82792W        W54408   3.838  25.594   2.617
82793W        W54409  37.449   2.899   0.796
82794W        W54410  24.664   4.394   0.424
82795W        W54411  44.449   7.364   3.723
82796W        W54412  30.902  18.262  14.338
82797W        W54413   8.712   1.331  14.083
82798W        W54414  15.009   0.752   1.683
82799W        W54415  21.105  41.950  13.266
82800W        W54416  42.554  31.446  10.493
82801W        W54417  27.137  18.977   3.596
82802W        W54418  20.778  11.083   2.835
82803W        W54419   8.909  26.114  12.473
82804W        W54420  19.737  27.077  11.454
82805W        W54421  14.779  11.073   3.176
82806W        W54422  34.360  21.691   2.517
82807W        W54423  33.989  41.538  11.178
82808W        W54424  29.985  22.803  13.988
82809W        W54425  30.079  10.417  10.979
82810W        W54426  26.910  14.980   0.172
82811W        W54427  21.259   6.380   4.577
82812W        W54428   9.425   8.223  13.434
82813W        W54429   7.733  44.540  10.399
82814W        W54430  33.983  24.275  13.634
82815W        W54431  30.859  17.520  10.634
82816W        W54432   3.889  16.168  11.158
82817W        W54433   1.432  17.260   2.214
82818W        W54434  25.513  42.490   1.121
82819W        W54435  21.044  22.107   4.493
82820W        W54436  24.600   3.343   2.849
82821W        W54437   8.447  13.817  12.628
82822W        W54438  29.994  22.533   1.869
82823W        W54439   8.617   3.370   2.575
82824W        W54440  13.208   1.486   0.789
82825W        W54441  23.328  21.084   2.808
82826W        W54442   2.977  21.590  12.497
82827W        W54443   0.608   9.700   3.464
82828W        W54444  30.866  17.390  14.024
82829W        W54445  43.814  15.789  14.972
82830W        W54446  13.874  18.240   3.134
82831W        W54447  24.428  42.984   4.409
82832W        W54448  30.342  26.617  14.846
82833W        W54449  32.352  44.843  14.576
82834W        W54450  40.823  24.810   3.224
82835W        W54451  17.566  21.948  12.012
82836W        W54452  14.704  32.472   0.330
82837W        W54453  27.429  23.465   0.985
82838W        W54454  12.314  33.366   2.913
82839W        W54455  26.081  14.673  11.861
82840W        W54456  13.021  30.618  14.936
82841W        W54457  11.253  13.929   1.802
82842W        W54458  40.504  14.037  14.340
82843W        W54459   2.368   8.727  12.398
82844W        W54460  13.863  43.737   4.155
82845W        W54461  11.664   8.553  13.579
82846W        W54462   4.502   5.175  11.052
82847W        W54463  32.447  29.011   2.596
82848W        W54464  42.909  24.780   1.980
82849W        W54465   0.268  31.754  14.801
82850W        W54466  41.542  41.522   3.251
82851W        W54467  22.536  21.693   4.588
82852W        W54468  41.903   1.870   4.063
82853W        W54469  24.419  11.629   1.711
82854W        W54470  21.123  24.100   2.401
82855W        W54471   3.419  23.230  12.870
82856W        W54472  41.337  23.180  14.965
82857W        W54473   9.740   4.729  12.036
82858W        W54474  12.550  43.078  14.235
82859W        W54475   6.428  12.520  12.471
82860W        W54476  29.004  34.399   4.681
82861W        W54477  35.785  12.889  12.451
82862W        W54478  26.387   7.744  14.318
82863W        W54479  10.300  42.942   3.609
82864W        W54480   6.188  35.880   3.694
82865W        W54481  44.823  31.494   0.959
82866W        W54482  24.029  29.009   2.812
82867W        W54483  41.274  39.397  14.884
82868W        W54484  27.113  24.161   1.240
82869W        W54485   6.140  19.612   4.165
82870W        W54486  41.319  16.240  11.132
82871W        W54487  44.690  38.249  10.201
82872W        W54488  37.562   7.626   3.635
82873W        W54489  22.519  42.745   1.770
82874W        W54490  23.522  16.367  12.424
82875W        W54491  44.980  41.064  13.872
82876W        W54492  14.389  18.119  10.700
82877W        W54493  36.171  15.825   3.804
82878W        W54494  12.871  30.473   3.610
82879W        W54495  26.249  36.018   1.861
82880W        W54496  25.989   0.730   2.840
82881W        W54497  40.891  10.362   1.788
82882W        W54498  14.331  35.012   4.784
82883W        W54499   6.409  33.453   4.121
82884W        W54500  22.985  33.971   4.072
82885W        W54501  31.704  12.189  12.856
82886W        W54502  14.700  14.324   5.304
82887W        W54503  15.360  36.712  12.560
82888W        W54504   6.823  11.580   3.752
82889W        W54505  34.623  11.694   0.822
82890W        W54506  24.615  10.244   1.896
82891W        W54507  42.681  24.662  13.411
82892W        W54508  11.798   4.480   9.970
82893W        W54509  20.269   2.854   3.791
82894W        W54510  13.070  44.837  13.425
82895W        W54511  23.963  44.266  11.193
82896W        W54512  23.167   4.256   0.415
82897W        W54513  41.759   0.732  13.678
82898W        W54514  14.743  10.727  14.584
82899W        W54515   6.287  10.687  10.692
82900W        W54516  39.715  16.691  13.876
82901W        W54517  16.097  39.600   0.478
82902W        W54518   2.749  39.801  11.523
82903W        W54519  29.188   8.356   3.629
82904W        W54520  36.438  28.627   3.177
82905W        W54521  41.073  24.053   1.945
82906W        W54522  16.385  22.919  13.977
82907W        W54523  41.078  43.091   4.169
82908W        W54524   2.744  26.711  10.589
82909W        W54525   9.944  16.810  12.940
82910W        W54526  25.329  21.095   1.966
82911W        W54527   2.600  35.000  13.685
82912W        W54528  14.825  21.726  11.563
82913W        W54529  31.549  42.496  12.008
82914W        W54530  23.655   8.737  14.111
82915W        W54531  18.678   6.834   0.243
82916W        W54532   3.953   8.269  12.474
82917W        W54533  32.899  26.587   2.941
82918W        W54534  10.836  40.967   0.271
82919W        W54535  23.311  43.495   2.881
82920W        W54536   3.309   0.355   1.658
82921W        W54537  21.537  36.579  12.928
82922W        W54538  32.352  30.491  13.488
82923W        W54539  42.643  34.341   1.517
82924W        W54540  17.749   5.659   1.804
82925W        W54541  32.399   7.781  10.819
82926W        W54542  13.383  44.566  11.366
82927W        W54543  22.802  18.027   3.544
82928W        W54544  18.377   1.265   2.631
82929W        W54545   9.768  12.442  13.395
82930W        W54546  30.849   7.179   1.615
82931W        W54547  14.848   3.805   3.738
82932W        W54548  17.113   8.846   2.682
82933W        W54549   2.169  24.588  11.033
82934W        W54550  27.350  10.829  11.026
82935W        W54551  40.006   7.911   1.965
82936W        W54552  14.467  18.453   3.761
82937W        W54553  25.302  42.258  10.615
82938W        W54554  27.562   0.310   4.205
82939W        W54555  39.407   2.772  11.250
82940W        W54556  22.341  28.329   0.800
82941W        W54557  31.420  30.902  10.757
82942W        W54558  32.469  25.837   0.007
82943W        W54559   3.486   6.489   1.557
82944W        W54560  37.901   0.442  14.526
82945W        W54561  37.010  32.019  11.473
82946W        W54562  30.563  30.442   2.773
82947W        W54563  23.714  34.292  11.108
82948W        W54564  31.904  24.676   1.325
82949W        W54565  30.401  17.603  10.945
82950W        W54566   7.362  42.198   2.697
82951W        W54567  42.371  41.449  13.042
82952W        W54568   3.835  25.802  13.947
82953W        W54569  31.036   5.668   1.225
82954W        W54570  37.895  39.236   1.820
82955W        W54571  21.504  43.948  14.899
82956W        W54572  26.146  27.643   1.786
82957W        W54573  32.958  40.775  11.628
82958W        W54574   9.330  10.759   1.334
82959W        W54575  43.265  40.411  10.364
82960W        W54576  19.133  20.553   3.854
82961W        W54577  40.309  22.034  13.071
82962W        W54578   8.590   7.317   0.947
82963W        W54579  33.662  33.165   2.163
82964W        W54580  18.008  35.155   3.527
82965W        W54581  36.569  41.530   4.540
82966W        W54582  42.010  22.205  12.084
82967W        W54583  44.781  25.141  11.120
82968W        W54584  31.568  12.309   2.818
82969W        W54585  18.046  44.215  12.047
82970W        W54586   0.961  13.272   4.217
82971W        W54587  26.851  29.626  13.351
82972W        W54588  24.612  30.447   5.103
82973W        W54589   2.828  39.404   1.727
82974W        W54590  12.838  32.941   2.781
82975W        W54591  12.751  21.786   2.178
82976W        W54592  20.269  10.256  12.391
82977W        W54593   4.215   6.451  12.872
82978W        W54594   4.265   8.888  14.889
82979W        W54595  35.835  17.576   4.098
82980W        W54596  24.515   6.737  12.038
82981W        W54597  31.425   1.409  10.695
82982W        W54598  18.173  37.949  12.946
82983W        W54599  27.062  40.013  12.495
82984W        W54600  44.945  33.991  13.840
82985W        W54601   0.562  39.567  11.435
82986W        W54602   7.726  16.260   3.476
82987W        W54603  10.149   7.900  13.907
82988W        W54604   8.261   3.949   4.712
82989W        W54605  15.519  18.798  12.606
82990W        W54606   2.602  23.706  13.806
82991W        W54607  30.034  36.885   2.327
82992W        W54608   7.780  10.843  11.550
82993W        W54609   2.987  30.241   2.823
82994W        W54610  39.508   7.665  14.796
82995W        W54611  44.248  34.573   4.687
82996W        W54612  44.419  39.244   1.901
82997W        W54613  29.691  23.414  11.959
82998W        W54614  17.075   0.761   1.967
82999W        W54615  42.228  23.831  11.193
83000W        W54616   1.562  20.817  12.426
83001W        W54617  17.583  20.435  13.384
83002W        W54618   7.643   4.158  11.339
83003W        W54619  11.856  16.320   0.978
83004W        W54620  30.668   0.416   4.751
83005W        W54621  43.238  30.794  12.029
83006W        W54622  22.016   5.695  12.486
83007W        W54623  26.004  36.795  13.371
83008W        W54624   6.885  26.047  11.573
83009W        W54625   1.818  13.253   1.374
83010W        W54626  14.983  26.951   4.189
83011W        W54627   3.755  16.530   2.152
83012W        W54628   7.769  21.957   0.463
83013W        W54629  30.803   5.655  13.045
83014W        W54630   1.727   1.493   1.351
83015W        W54631  15.548  37.379   2.274
83016W        W54632   4.969  19.527   4.549
83017W        W54633  14.294  25.704  12.464
83018W        W54634  13.081  42.616   1.870
83019W        W54635  14.731   0.530  12.250
83020W        W54636  15.026  14.188   1.367
83021W        W54637  19.091  13.282  11.477
83022W        W54638  41.811  39.100   1.460
83023W        W54639  37.391  35.307   0.722
83024W        W54640  33.641  30.542  11.060
83025W        W54641   8.780  18.740   4.553
83026W        W54642  15.142  27.421   4.101
83027W        W54643  41.713  32.094   1.666
83028W        W54644  14.168  32.941   0.736
83029W        W54645  20.700  21.528  14.378
83030W        W54646  31.932  40.084   3.619
83031W        W54647  42.858  21.670  10.830
83032W        W54648  14.487  41.202   9.783
83033W        W54649  14.188  38.157   0.303
83034W        W54650  28.927   5.905  11.248
83035W        W54651  22.875  41.021  14.115
83036W        W54652   9.779  37.957  13.822
83037W        W54653  43.890  40.563  13.276
83038W        W54654   5.465  22.647  10.694
83039W        W54655  28.325   7.207   0.386
83040W        W54656  14.735  34.539  14.277
83041W        W54657   1.853  18.045   4.210
83042W        W54658   9.229  21.512   1.149
83043W        W54659  29.184  34.297   0.808
83044W        W54660   5.761  12.308   4.125
83045W        W54661  32.117  27.712  13.489
83046W        W54662  22.123  19.517   1.261
83047W        W54663   4.718  20.085  12.428
83048W        W54664  14.581  10.137   2.908
83049W        W54665  35.330  15.329   3.796
83050W        W54666  40.331  44.278   3.145
83051W        W54667  25.262  23.961  13.033
83052W        W54668   7.931   4.252   4.382
83053W        W54669  17.743  21.215  10.666
83054W        W54670  33.828  13.210   2.280
83055W        W54671  34.634  24.345   3.666
83056W        W54672  29.739  34.105   2.414
83057W        W54673  31.971  14.349  10.765
83058W        W54674  17.016  34.018  12.153
83059W        W54675  33.999   5.894  10.984
83060W        W54676  27.978   2.089  12.210
83061W        W54677  20.411  24.620   2.006
83062W        W54678  17.658  11.756  14.702
83063W        W54679   1.251   4.111   2.718
83064W        W54680  17.121  19.602   5.020
83065W        W54681  19.208  35.506  14.750
83066W        W54682  11.307  44.944   1.064
83067W        W54683  15.417  21.277  14.217
83068W        W54684  26.038   7.227   3.910
83069W        W54685  29.496  40.871  13.908
83070W        W54686  37.495  38.355  13.397
83071W        W54687  14.227  20.137  14.428
83072W        W54688   7.324  10.676   0.937
83073W        W54689  29.901  16.502   2.216
83074W        W54690  32.460  30.704   3.249
83075W        W54691  15.646  43.947   4.638
83076W        W54692  43.977  18.786  11.648
83077W        W54693   5.926  32.923   0.325
83078W        W54694   4.883   2.508   0.020
83079W        W54695  38.286   8.603   1.832
83080W        W54696  24.915  32.410   1.482
83081W        W54697  14.218  12.268   0.152
83082W        W54698  28.923   0.999  11.127
83083W        W54699   2.227   4.497   0.346
83084W        W54700  30.406  27.427  13.568
83085W        W54701  38.020  43.002  10.471
83086W        W54702  25.991  25.687  14.038
83087W        W54703  34.396  31.097   2.797
83088W        W54704  34.546   8.914  12.165
83089W        W54705  41.778  22.397   2.850
83090W        W54706   3.791  29.327   0.989
83091W        W54707  44.667  38.078  14.797
83092W        W54708  26.669   6.970  14.966
83093W        W54709  30.455   9.828  13.572
83094W        W54710  23.601  34.489  12.536
83095W        W54711  44.389  10.592   2.459
83096W        W54712   7.459  15.124  10.522
83097W        W54713  13.436  24.047   4.995
83098W        W54714   7.978  33.091   2.822
83099W        W54715  22.595   8.401   2.783
83100W        W54716  20.036   6.699   3.221
83101W        W54717  21.594   0.259  10.646
83102W        W54718  20.173  27.928  12.541
83103W        W54719   7.819  10.342  14.029
83104W        W54720  32.832   7.865  11.072
83105W        W54721  26.728  20.958   4.142
83106W        W54722  22.299  33.439  13.612
83107W        W54723  44.504   9.328  12.085
83108W        W54724  22.226  15.807  14.759
83109W        W54725   5.316  28.218  11.656
83110W        W54726  41.350   7.205  10.378
83111W        W54727  42.104  43.847   1.265
83112W        W54728  16.195  41.667  10.745
83113W        W54729  17.977  26.521  13.363
83114W        W54730  32.962  37.765  10.683
83115W        W54731  13.813   8.285   4.856
83116W        W54732  21.570  41.534   2.355
83117W        W54733  42.767  16.645   2.181
83118W        W54734  20.906  44.833   0.268
83119W        W54735   9.198  12.640   0.914
83120W        W54736  41.947  21.700   0.953
83121W        W54737  35.874  26.687  13.045
83122W        W54738  13.641  10.581  12.522
83123W        W54739  10.047  43.902   2.390
83124W        W54740  15.743   3.299   4.337
83125W        W54741   9.598  37.049  13.895
83126W        W54742  22.650  42.935   0.230
83127W        W54743   0.952  25.732  14.435
83128W        W54744  34.366  35.435   2.443
83129W        W54745  12.902  41.772   3.300
83130W        W54746  38.426  21.159  14.687
83131W        W54747  22.616  17.739  13.849
83132W        W54748  13.451  16.308   4.561
83133W        W54749   5.202  39.550  10.470
83134W        W54750  29.001  15.900   4.144
83135W        W54751  21.508  18.790   1.689
83136W        W54752   0.771  10.128  13.896
83137W        W54753  41.621  40.069  14.460
83138W        W54754  31.610   1.198   4.272
83139W        W54755  39.989   1.281   0.043
83140W        W54756  20.334  29.417  10.797
83141W        W54757  42.848  18.766  13.783
83142W        W54758  23.654   5.934   3.427
83143W        W54759  28.540   0.612   3.399
83144W        W54760  39.465  16.071   2.851
83145W        W54761  42.576  22.986  13.749
83146W        W54762  44.979  30.440   1.943
83147W        W54763   3.511   7.339  11.181
83148W        W54764  38.936  28.348   4.060
83149W        W54765   3.774  26.493   2.520
83150W        W54766   8.344  15.132   3.266
83151W        W54767   7.527  41.394   4.226
83152W        W54768   8.445  11.585  13.408
83153W        W54769  40.305   9.801   1.774
83154W        W54770  39.384  42.683  11.149
83155W        W54771  13.379  24.763  14.685
83156W        W54772  29.422   7.186  11.207
83157W        W54773  25.173   9.893  12.666
83158W        W54774  29.018  38.740   0.852
83159W        W54775  12.404   9.241  14.910
83160W        W54776  29.996  43.754   1.584
83161W        W54777   2.507  36.356   1.808
83162W        W54778   9.532  11.313  12.931
83163W        W54779   0.689  24.044   4.961
83164W        W54780  31.320   1.245  14.216
83165W        W54781  35.373  36.531  13.306
83166W        W54782  35.990   3.954  14.223
83167W        W54783  20.707  21.308  12.897
83168W        W54784  35.999  20.777   1.887
83169W        W54785  44.217   3.695   4.249
83170W        W54786   7.033  17.290   4.276
83171W        W54787  42.274  20.592   1.975
83172W        W54788   2.450  36.882   4.433
83173W        W54789  23.499  41.255  12.139
83174W        W54790  37.829  27.173  11.499
83175W        W54791  33.682  32.915  13.299
83176W        W54792  21.763  43.158   4.857
83177W        W54793  15.937  20.635  10.512
83178W        W54794  11.226  20.145   0.677
83179W        W54795  28.033  29.682   5.261
83180W        W54796  38.327  17.858  13.904
83181W        W54797  43.392  26.835  13.153
83182W        W54798   6.501  22.552  10.551
83183W        W54799   2.735  17.690   3.362
83184W        W54800  16.306  43.865  12.104
83185W        W54801  41.194   4.353  13.364
83186W        W54802  38.293   1.745  11.545
83187W        W54803  14.597   0.555   2.368
83188W        W54804  24.054  22.570  12.913
83189W        W54805   9.123  17.328   2.726
83190W        W54806  10.820  40.903   4.856
83191W        W54807  14.507  35.349   4.036
83192W        W54808  12.913  33.847  11.991
83193W        W54809  41.669  29.225   0.875
83194W        W54810  35.514  30.716  14.282
83195W        W54811  19.745  32.117  12.050
83196W        W54812  29.917  26.833  12.153
83197W        W54813  28.391  32.513   3.116
83198W        W54814   1.707  30.187   2.237
83199W        W54815  43.689  40.722   3.667
83200W        W54816  12.839   9.688  13.726
83201W        W54817  16.753  14.766  11.037
83202W        W54818  33.433  19.965  14.826
83203W        W54819  32.123  19.135  11.399
83204W        W54820   0.238  40.868  11.141
83205W        W54821   0.958   2.228   1.353
83206W        W54822   6.392  25.658  11.123
83207W        W54823  31.080  34.626   1.722
83208W        W54824  23.724  33.925  10.739
83209W        W54825  16.727   6.526   1.899
83210W        W54826  27.058   3.933   3.999
83211W        W54827  26.216  26.198  14.269
83212W        W54828  31.023  24.095   3.690
83213W        W54829  43.396  15.796   2.807
83214W        W54830  40.405  13.804   3.681
83215W        W54831  41.859  22.476  10.726
83216W        W54832   8.404  35.389   1.852
83217W        W54833  40.893  26.961   2.811
83218W        W54834  35.897   0.645  13.339
83219W        W54835  18.983   8.914  12.955
83220W        W54836  41.071  35.887  10.605
83221W        W54837  12.120  36.444   2.702
83222W        W54838  40.512  10.899  12.453
83223W        W54839  40.588  34.006   3.140
83224W        W54840   4.763  32.143   1.420
83225W        W54841  11.927  12.254   1.455
83226W        W54842   4.901  31.109  14.454
83227W        W54843  10.156  32.814  11.517
83228W        W54844  11.635  36.870   3.140
83229W        W54845  19.707  42.779  11.242
83230W        W54846   0.868  35.461  11.757
83231W        W54847  34.870  11.081   3.284
83232W        W54848  44.315   5.555   4.075
83233W        W54849  44.017  40.905  13.683
83234W        W54850  20.558  41.402   0.446
83235W        W54851  14.128  23.892   4.520
83236W        W54852  16.537  44.523  12.173
83237W        W54853  41.450  44.824  11.179
83238W        W54854   5.006   1.809   1.791
83239W        W54855   4.664  22.487   2.329
83240W        W54856  37.121  39.377  13.489
83241W        W54857  21.042  10.309   0.937
83242W        W54858   0.911  18.601   1.576
83243W        W54859  28.006  28.681   0.480
83244W        W54860  28.183  29.549   2.670
83245W        W54861  28.100  39.061   2.650
83246W        W54862   6.084  13.773  14.507
83247W        W54863  37.845   3.948   1.345
83248W        W54864  34.347   7.187  14.452
83249W        W54865  25.566   4.880   4.200
83250W        W54866   1.526  23.108  10.646
83251W        W54867  20.584   7.911   3.179
83252W        W54868  38.642  32.628   3.126
83253W        W54869   5.935  25.606   2.472
83254W        W54870  24.157  13.212  14.053
83255W        W54871  11.584  18.140   3.749
83256W        W54872  16.342  27.431   2.203
83257W        W54873  40.353  44.332  13.449
83258W        W54874  19.255  36.389  12.142
83259W        W54875  39.518  36.440  12.025
83260W        W54876  18.102  41.445   1.828
83261W        W54877  12.674  25.691   2.904
83262W        W54878  26.968   2.927   2.945
83263W        W54879  43.951   9.328  11.153
83264W        W54880  23.273  16.779   1.783
83265W        W54881   2.170   7.730   1.286
83266W        W54882   3.849   9.795  12.355
83267W        W54883  44.299  22.448  12.539
83268W        W54884  10.359  23.651   3.012
83269W        W54885  35.500  14.843  11.998
83270W        W54886  22.809  18.489  12.135
83271W        W54887  33.001  34.370   1.965
83272W        W54888  19.449  18.548   4.829
83273W        W54889  12.422  30.884   4.233
83274W        W54890  27.679  31.124   2.439
83275W        W54891  24.784  24.847  11.091
83276W        W54892  10.496  15.463   1.494
83277W        W54893  38.840  39.382  13.777
83278W        W54894  20.009  38.817  14.025
83279W        W54895  12.725  39.015   1.857
83280W        W54896   3.895  43.447   4.372
83281W        W54897  33.984  15.406  11.602
83282W        W54898  29.642  25.111  13.863
83283W        W54899   6.334  33.472  12.619
83284W        W54900  43.648  11.574  13.908
83285W        W54901  31.267  14.788  11.292
83286W        W54902   1.041  27.576  14.899
83287W        W54903   5.099  26.498   2.733
83288W        W54904  31.898  31.066   4.110
83289W        W54905  14.599  12.108  12.913
83290W        W54906  28.801   7.455  12.049
83291W        W54907  39.934  19.091  14.032
83292W        W54908  34.493  33.390   4.222
83293W        W54909  40.001  40.162   2.802
83294W        W54910  27.169   6.793  14.826
83295W        W54911  30.931  15.692   4.125
83296W        W54912  27.085  31.114   0.810
83297W        W54913  43.500  44.563   0.377
83298W        W54914  10.205  44.042   1.911
83299W        W54915  34.872  22.194   4.085
83300W        W54916  29.081  15.165  11.424
83301W        W54917  43.313  21.554  13.439
83302W        W54918  23.610   8.779   2.592
83303W        W54919  14.309   5.540  14.854
83304W        W54920  13.347  24.573   2.343
83305W        W54921  18.200  40.594  13.137
83306W        W54922  25.606  31.433   4.540
83307W        W54923   1.962  25.660   4.301
83308W        W54924   4.635  44.716   3.649
83309W        W54925  39.953  23.321  12.747
83310W        W54926  39.761  30.609   4.399
83311W        W54927  30.209  34.859   4.362
83312W        W54928  17.648  33.724   3.666
83313W        W54929  41.818  23.427   1.905
83314W        W54930  30.737  43.912   0.360
83315W        W54931  44.537   9.695   3.184
83316W        W54932  31.627   9.382   4.600
83317W        W54933  34.074   3.495  14.573
83318W        W54934  18.528   2.638   3.157
83319W        W54935  30.982  28.905  14.406
83320W        W54936  17.627   6.629  14.105
83321W        W54937  20.739  39.713   2.770
83322W        W54938  35.517   6.814   2.010
83323W        W54939  17.095  34.490   1.702
83324W        W54940   6.384  24.556   4.141
83325W        W54941   1.000  39.951   0.153
83326W        W54942  10.944  23.890  12.800
83327W        W54943  28.375  19.632   3.628
83328W        W54944  31.448   3.712  13.569
83329W        W54945  36.462  36.300   2.673
83330W        W54946   1.278   2.389   0.510
83331W        W54947  23.034   0.924   2.634
83332W        W54948  28.152   1.129   4.129
83333W        W54949  42.828  22.183   2.723
83334W        W54950  39.842  26.525   0.205
83335W        W54951  13.372  34.140  11.948
83336W        W54952  28.395   5.796   1.925
83337W        W54953  31.599   7.223  13.948
83338W        W54954  16.483  30.484  11.186
83339W        W54955  16.306  38.391  13.502
83340W        W54956   9.838  28.481  13.734
83341W        W54957  11.762  43.157   1.316
83342W        W54958  38.742  29.921  14.874
83343W        W54959  25.397  12.880  13.803
83344W        W54960  24.521  42.269  13.913
83345W        W54961  41.886  12.189  13.037
83346W        W54962   2.717  33.119   4.558
83347W        W54963  16.594  23.220  10.584
83348W        W54964   1.415  11.603   2.125
83349W        W54965   1.923  21.160   3.559
83350W        W54966   2.276  44.675   2.393
83351W        W54967  43.460  31.898  14.358
83352W        W54968   6.153  15.806   3.824
83353W        W54969  35.319  27.861   3.234
83354W        W54970   4.697  23.928  14.293
83355W        W54971  40.000  40.345   4.845
83356W        W54972   0.608  24.031  10.604
83357W        W54973  42.323  40.095   4.106
83358W        W54974  38.351  20.994   4.668
83359W        W54975   4.017  44.505   2.240
83360W        W54976  28.547  22.064  12.531
83361W        W54977  24.698  42.327   3.634
83362W        W54978  34.020   8.864   0.324
83363W        W54979  42.759  34.394  14.236
83364W        W54980  28.130  24.719   3.393
83365W        W54981   9.483  22.630  12.533
83366W        W54982  40.564   2.510  11.401
83367W        W54983  27.603  38.799  13.817
83368W        W54984   0.525  11.934  12.764
83369W        W54985   5.737  17.762   0.422
83370W        W54986  44.961  30.157   0.287
83371W        W54987  13.264  28.194  10.614
83372W        W54988  20.191  43.032  11.363
83373W        W54989   1.246  37.403  12.840
83374W        W54990   9.683  22.634   1.004
83375W        W54991  18.640  16.103  12.198
83376W        W54992   7.856  33.331  11.590
83377W        W54993  37.794   9.309  13.972
83378W        W54994  39.232  44.723   0.184
83379W        W54995   7.939   2.151   1.408
83380W        W54996   3.833  44.946  14.784
83381W        W54997  33.145  13.089   1.644
83382W        W54998  17.322   3.423   4.441
83383W        W54999  10.836  14.125   0.426
83384W        W55000  12.842   4.422  14.897
83385W        W55001   4.410  32.961  12.881
83386W        W55002   4.294  39.603   4.055
83387W        W55003  21.633   5.902  12.149
83388W        W55004  25.699   4.643  12.735
83389W        W55005  13.750  21.268  11.034
83390W        W55006  21.645  40.350  14.901
83391W        W55007  38.311   6.759  14.115
83392W        W55008  12.088  27.674   3.968
83393W        W55009  12.014  41.581  11.168
83394W        W55010  18.642  40.345  11.521
83395W        W55011   2.475  12.095   0.866
83396W        W55012  40.513  42.086   0.442
83397W        W55013  33.005  33.699  14.921
83398W        W55014  23.074  27.194   4.834
83399W        W55015  39.430  14.526   2.687
83400W        W55016  12.696  40.409  10.430
83401W        W55017  37.583  10.557   1.465
83402W        W55018  34.972  29.285   2.912
83403W        W55019   2.188  34.555  11.224
83404W        W55020  11.633  11.110   0.629
83405W        W55021  39.049  23.612   2.099
83406W        W55022  38.293  42.459  11.572
83407W        W55023  11.405   9.285   1.383
83408W        W55024  17.021  15.309  11.499
83409W        W55025  11.195  40.765   3.808
83410W        W55026  24.800   4.654  14.268
83411W        W55027   1.611  39.004   1.943
83412W        W55028  31.243  31.389   5.173
83413W        W55029   9.130   7.451   3.853
83414W        W55030  40.004  30.899   4.021
83415W        W55031  20.617  31.405  13.302
83416W        W55032   2.481   9.883   4.802
83417W        W55033  20.143  32.814  13.817
83418W        W55034  31.105   3.379   0.960
83419W        W55035  36.882  42.344   0.279
83420W        W55036   2.107   3.159   3.612
83421W        W55037  43.777  16.206   0.275
83422W        W55038  31.456  29.279  14.686
83423W        W55039  11.174  30.087  13.063
83424W        W55040  32.878  28.792  11.094
83425W        W55041  19.377  27.183   2.393
83426W        W55042  27.662  41.443  12.820
83427W        W55043   4.299  41.622  10.818
83428W        W55044  23.871  20.160  14.153
83429W        W55045  20.595  27.280  11.224
83430W        W55046  22.395  41.552  12.923
83431W        W55047  20.581  24.185   0.441
83432W        W55048  31.879  29.202   0.694
83433W        W55049  24.839  22.090  10.881
83434W        W55050  30.063  19.246  14.263
83435W        W55051  21.969  17.595   4.924
83436W        W55052  28.186   5.348  13.879
83437W        W55053   5.478  37.979  10.889
83438W        W55054  26.051  40.269  12.996
83439W        W55055  44.359  35.319   4.731
83440W        W55056  20.660   4.535  11.097
83441W        W55057  24.020  14.842   1.807
83442W        W55058  36.122  22.766  11.936
83443W        W55059   0.398  26.579  12.698
83444W        W55060  20.266  13.745  11.525
83445W        W55061  41.818  36.837   4.162
83446W        W55062  17.096  28.650   1.081
83447W        W55063  43.874  10.245   0.029
83448W        W55064   6.637  14.172  10.839
83449W        W55065  13.123   9.380  14.084
83450W        W55066  41.506  16.234  14.003
83451W        W55067   8.778  15.813  12.191
83452W        W55068   6.077  31.224   2.929
83453W        W55069  37.011  43.150   3.901
83454W        W55070  25.442  16.288   9.572
83455W        W55071  28.375  40.866   0.903
83456W        W55072  24.041  22.292  13.906
83457W        W55073   4.602  30.821  11.180
83458W        W55074  13.258  20.078   0.205
83459W        W55075  17.540  27.923  14.906
83460W        W55076  31.184  44.435   3.384
83461W        W55077  17.732  10.611   1.931
83462W        W55078  21.980  16.879   3.558
83463W        W55079  15.209   5.707  13.667
83464W        W55080  19.779  11.712  11.063
83465W        W55081  15.997  10.161   2.403
83466W        W55082  44.751  43.006   2.622
83467W        W55083  15.651  34.468  13.746
83468W        W55084   6.197  10.278  12.955
83469W        W55085  17.481   4.386   1.894
83470W        W55086  43.748   5.279  11.155
83471W        W55087   5.532  12.687   3.839
83472W        W55088  26.503  10.873   1.850
83473W        W55089  24.387  26.554  13.423
83474W        W55090  43.888  16.235   4.074
83475W        W55091  11.023  36.826   2.273
83476W        W55092  39.006  10.287   1.780
83477W        W55093  31.850  16.318   0.745
83478W        W55094  30.056   3.291  13.940
83479W        W55095  27.395  26.288  13.834
83480W        W55096  41.502  27.528   3.182
83481W        W55097  43.346  10.457   3.378
83482W        W55098  24.919   3.165   4.998
83483W        W55099  25.114  10.931   1.746
83484W        W55100  42.407  34.066  13.311
83485W        W55101   9.807  37.384   2.856
83486W        W55102  13.898  33.891  12.890
83487W        W55103  23.283   0.828  12.025
83488W        W55104  13.601  44.341   2.812
83489W        W55105  15.882  44.457   1.712
83490W        W55106   5.173   8.943  14.991
83491W        W55107  18.804  30.496   1.365
83492W        W55108   7.199   1.857  11.552
83493W        W55109  27.193  38.487  10.766
83494W        W55110   7.170  24.507  11.949
83495W        W55111  18.034  38.158   4.126
83496W        W55112   3.736  42.817   2.079
83497W        W55113  11.845   2.494  12.070
83498W        W55114   2.067   0.225  10.218
83499W        W55115  42.911  19.199   1.074
83500W        W55116  40.585   6.709   3.676
83501W        W55117  26.924   5.206  13.845
83502W        W55118  22.486  17.509   0.237
83503W        W55119  24.510  40.426   0.918
83504W        W55120   1.699  28.976  11.480
83505W        W55121  22.705   1.196   3.626
83506W        W55122  28.136  16.999  13.871
83507W        W55123  27.371  38.427  11.565
83508W        W55124  23.284   3.936  13.443
83509W        W55125  33.773  37.302   0.095
83510W        W55126  31.281  25.679   4.201
83511W        W55127  39.969  29.499   4.130
83512W        W55128  29.937  14.068  11.032
83513W        W55129  22.787  33.924   1.276
83514W        W55130  32.526  21.364  12.463
83515W        W55131  16.639  42.028  14.916
83516W        W55132  32.515   2.357   5.581
83517W        W55133  37.976   6.539  14.842
83518W        W55134  36.468  44.081  14.037
83519W        W55135   2.520  15.149  10.702
83520W        W55136  22.012  22.078   2.410
83521W        W55137  19.749   7.586  13.869
83522W        W55138  35.500  27.298  13.991
83523W        W55139  28.125  26.391  14.460
83524W        W55140  27.883  30.566  11.707
83525W        W55141  26.162  16.580  10.141
83526W        W55142  11.208   3.329  11.154
83527W        W55143   4.282  24.240   4.680
83528W        W55144  16.750  13.553   1.595
83529W        W55145  39.317   9.318  11.667
83530W        W55146  10.411   1.921  10.906
83531W        W55147  12.797  42.852  13.830
83532W        W55148  21.143   3.256   2.186
83533W        W55149   8.971   8.884  14.929
83534W        W55150  12.149  28.882  14.242
83535W        W55151  19.498  30.116  12.792
83536W        W55152  39.475   4.342   0.455
83537W        W55153  38.984  27.214   2.434
83538W        W55154  10.380  19.960   4.566
83539W        W55155   2.377  41.057  10.650
83540W        W55156  34.399   0.125  12.440
83541W        W55157  17.257  25.391  13.320
83542W        W55158  36.611   3.952   2.526
83543W        W55159   0.778  37.108  13.297
83544W        W55160  13.943  23.276  13.762
83545W        W55161   6.471  13.159   2.305
83546W        W55162  35.787  32.764   3.233
83547W        W55163  37.461  23.292  10.439
83548W        W55164   4.812  41.063  14.873
83549W        W55165  27.391  12.400   4.132
83550W        W55166  19.382  41.926  12.564
83551W        W55167  27.546  35.430  11.141
83552W        W55168  19.107  17.083   1.315
83553W        W55169  18.037   5.287  14.284
83554W        W55170  33.060  16.506   2.313
83555W        W55171  19.665  24.501  12.466
83556W        W55172   7.124   3.021   3.180
83557W        W55173  32.495  17.808   1.275
83558W        W55174  15.842  37.579  12.624
83559W        W55175  25.767  17.392  14.395
83560W        W55176  14.873  21.341  12.946
83561W        W55177  34.775  32.693   3.468
83562W        W55178  44.976  17.275   2.438
83563W        W55179  20.531  26.995   3.314
83564W        W55180   4.311  30.455  10.456
83565W        W55181   4.761  30.951   2.556
83566W        W55182   2.144  37.520   2.444
83567W        W55183  29.144  43.006   3.119
83568W        W55184  23.237  24.720   2.285
83569W        W55185  27.942   5.301  12.989
83570W        W55186   2.327  20.572   0.314
83571W        W55187  10.669  43.755   1.863
83572W        W55188  33.480  42.958   3.511
83573W        W55189   9.446  23.940  12.033
83574W        W55190   1.064  40.809  11.619
83575W        W55191  28.644  11.821   3.125
83576W        W55192  40.156  20.989   0.583
83577W        W55193  19.203   9.443   3.324
83578W        W55194  19.327  36.651   0.296
83579W        W55195   4.322  28.119  10.907
83580W        W55196  43.375  43.119   1.824
83581W        W55197  32.471  26.456  12.486
83582W        W55198   7.625   1.836   4.579
83583W        W55199   5.623  36.910   4.515
83584W        W55200  29.755  39.395   2.595
83585W        W55201   5.224  42.582   0.851
83586W        W55202  44.512   6.255   3.158
83587W        W55203   1.456   1.424  14.247
83588W        W55204  23.317  29.890  13.496
83589W        W55205   5.735  15.193   1.387
83590W        W55206   6.205   6.923  10.525
83591W        W55207  22.022  12.298   0.749
83592W        W55208  44.509   8.708   0.343
83593W        W55209   1.135  42.891   0.820
83594W        W55210  15.053   1.710   1.711
83595W        W55211   8.310  32.440   3.509
83596W        W55212  40.077  31.489  12.374
83597W        W55213   2.323   3.686  14.849
83598W        W55214  31.025  11.705   2.890
83599W        W55215  38.941  35.124  10.535
83600W        W55216  32.449  27.544   0.760
83601W        W55217  20.140  18.991  14.793
83602W        W55218  30.050  27.449  10.128
83603W        W55219   8.212  35.405   4.540
83604W        W55220  35.005   2.833  14.705
83605W        W55221  22.936   8.603  12.943
83606W        W55222  41.079  19.759   4.593
83607W        W55223  43.791  12.143  11.082
83608W        W55224  23.623  20.554  14.429
83609W        W55225  29.913  32.942  12.009
83610W        W55226  32.853  22.608   2.173
83611W        W55227  32.884  43.356  10.724
83612W        W55228  32.889  32.897  11.521
83613W        W55229  23.043  34.184  14.921
83614W        W55230  23.003  29.104   1.030
83615W        W55231  44.346  25.907   2.271
83616W        W55232  25.135  23.465  12.105
83617W        W55233  22.614  26.653   2.126
83618W        W55234  22.289  37.333   4.186
83619W        W55235  20.394  42.343   2.282
83620W        W55236  36.026  27.461  14.870
83621W        W55237  28.205   2.339   3.725
83622W        W55238  18.118  28.719  13.967
83623W        W55239  29.636   1.006   0.296
83624W        W55240   7.417  22.052   3.774
83625W        W55241   5.778   6.201  10.492
83626W        W55242  22.463  26.544  11.067
83627W        W55243   6.399  27.715   4.666
83628W        W55244  43.910  35.642  12.844
83629W        W55245   2.554   5.214  11.267
83630W        W55246   4.329  17.542   4.620
83631W        W55247  20.545   2.235  12.978
83632W        W55248   4.179  26.241  11.071
83633W        W55249  16.569  26.575   3.645
83634W        W55250   2.915  38.765  11.881
83635W        W55251  20.655  30.539   0.936
83636W        W55252  37.007  36.399   3.202
83637W        W55253  38.526   1.427  11.938
83638W        W55254  11.599  32.932   2.228
83639W        W55255  13.434   1.955   0.070
83640W        W55256   3.467  15.384   3.825
83641W        W55257   8.220   8.298  13.602
83642W        W55258   8.724  44.277  11.127
83643W        W55259  40.328   9.421  13.880
83644W        W55260   7.314  24.647  12.824
83645W        W55261   5.254  33.648   9.899
83646W        W55262  42.877  11.232  11.639
83647W        W55263  27.505  15.704  14.643
83648W        W55264   6.340  35.143   0.436
83649W        W55265  19.749  30.633   3.182
83650W        W55266  26.786  21.415  10.754
83651W        W55267  32.225  24.118   2.186
83652W        W55268  24.615  36.202   4.249
83653W        W55269   8.961   2.415   0.339
83654W        W55270   6.387  24.992  12.396
83655W        W55271  43.843  22.800   2.326
83656W        W55272  12.088  21.510  11.161
83657W        W55273   5.289  35.060  10.632
83658W        W55274   8.677  22.601   0.982
83659W        W55275   8.893   3.650   3.759
83660W        W55276  20.323   0.860   3.072
83661W        W55277  10.277  30.199  10.673
83662W        W55278  12.137  21.620   1.317
83663W        W55279   8.360  32.170   0.796
83664W        W55280  24.275   2.512   3.597
83665W        W55281  44.845  32.533  10.505
83666W        W55282  43.025  42.913   1.511
83667W        W55283  23.457   6.451   3.279
83668W        W55284  42.298  19.158   2.149
83669W        W55285  13.211  27.653   2.130
83670W        W55286  38.546   1.116  14.884
83671W        W55287  28.139  42.985  11.130
83672W        W55288  28.985  22.985   3.627
83673W        W55289  36.326  38.128  13.350
83674W        W55290  33.327  26.632  11.844
83675W        W55291  29.687   3.261   2.340
83676W        W55292   8.574   7.852  12.499
83677W        W55293  44.940  27.959  13.492
83678W        W55294  36.957  26.559  13.433
83679W        W55295  35.126  31.564   3.892
83680W        W55296  42.570  29.655   4.183
83681W        W55297  19.891  31.280  10.669
83682W        W55298  36.386   8.117   3.679
83683W        W55299  16.173  29.914   3.888
83684W        W55300  10.204   2.822  10.051
83685W        W55301  22.149   9.656   0.119
83686W        W55302  41.029   3.523  14.245
83687W        W55303   8.685  23.382   2.789
83688W        W55304  36.388  14.542   3.332
83689W        W55305  25.251  37.508  12.412
83690W        W55306  41.053  29.552  14.750
83691W        W55307   4.280   0.553   0.558
83692W        W55308  17.045  30.140  10.477
83693W        W55309  19.085  10.392   0.752
83694W        W55310  22.485   8.224  14.570
83695W        W55311  37.049  43.819  12.882
83696W        W55312  16.852  39.467  12.473
83697W        W55313  29.527  15.794   1.338
83698W        W55314  10.604  38.972  12.850
83699W        W55315  19.668  31.767  11.477
83700W        W55316  27.653  35.547   2.093
83701W        W55317  19.684  15.224  12.731
83702W        W55318  25.558  24.729  11.742
83703W        W55319  16.501  33.215  14.489
83704W        W55320  19.559   5.971   3.676
83705W        W55321  18.357  30.445  10.770
83706W        W55322   1.952  22.149  11.142
83707W        W55323  26.002  33.944   3.998
83708W        W55324  22.088  10.909   1.343
83709W        W55325  33.116   6.206  13.607
83710W        W55326  23.828  30.393   0.926
83711W        W55327  35.796  29.024   1.685
83712W        W55328  43.755  12.477  14.388
83713W        W55329  28.009  12.862   1.263
83714W        W55330  11.211  27.126   0.309
83715W        W55331  22.690  27.624   3.640
83716W        W55332  23.429  31.850  11.803
83717W        W55333  25.473  20.987   1.221
83718W        W55334   0.035  26.001   1.819
83719W        W55335  22.587  19.986  14.732
83720W        W55336   4.292   3.629  11.224
83721W        W55337   9.239  39.300  10.613
83722W        W55338  30.400  13.267  13.579
83723W        W55339  25.988  21.620   2.466
83724W        W55340  22.109  24.530   4.332
83725W        W55341  17.538  26.660  12.490
83726W        W55342   0.889  28.743  10.844
83727W        W55343  35.273  13.609   3.207
83728W        W55344  29.926  34.505  13.962
83729W        W55345   6.215  43.821  12.561
83730W        W55346  30.020   3.837   1.697
83731W        W55347  30.636   9.817  12.570
83732W        W55348  43.445  19.661   2.124
83733W        W55349  38.952   4.290  12.925
83734W        W55350  40.309   9.200   1.402
83735W        W55351   1.296  36.078  10.908
83736W        W55352  41.416  40.731   2.704
83737W        W55353  22.554  12.366   0.874
83738W        W55354  22.810  39.156   4.495
83739W        W55355   6.788  11.573  13.702
83740W        W55356  35.559  30.858   3.247
83741W        W55357  33.391  16.781  12.109
83742W        W55358  32.386   2.556  13.452
83743W        W55359  10.672   2.609   1.884
83744W        W55360   7.664  34.897  13.566
83745W        W55361  18.525  40.020   3.391
83746W        W55362   1.490  40.754   0.941
83747W        W55363   2.717  30.101  11.741
83748W        W55364  16.320  21.517   2.754
83749W        W55365   3.237  31.537   4.829
83750W        W55366  35.920   4.715   0.056
83751W        W55367  30.326  26.976  13.859
83752W        W55368  30.408  36.906   2.747
83753W        W55369  37.418  10.094   5.126
83754W        W55370  12.805  42.621   2.333
83755W        W55371   6.826  19.151   3.220
83756W        W55372  20.602   1.168  11.603
83757W        W55373  40.769  16.074   0.790
83758W        W55374   2.171  30.532   4.636
83759W        W55375  18.746  25.527  10.647
83760W        W55376   9.179  32.347   3.345
83761W        W55377  20.883  12.357   2.301
83762W        W55378   3.377  13.792  11.469
83763W        W55379  36.917  29.565  11.165
83764W        W55380  10.178   5.778  12.991
83765W        W55381   7.437  23.927  11.190
83766W        W55382  24.387  35.534  10.789
83767W        W55383  15.231  23.020   0.950
83768W        W55384  16.059   2.379  14.842
83769W        W55385  28.674   6.226   0.321
83770W        W55386  37.596  29.928   2.401
83771W        W55387  11.847  20.316   3.298
83772W        W55388  12.933  15.379  13.491
83773W        W55389   8.947   6.923  13.903
83774W        W55390  29.360  23.610  12.991
83775W        W55391  12.796  31.511  12.456
83776W        W55392  38.071   9.849  12.046
83777W        W55393  28.655  32.522  11.649
83778W        W55394  19.917  19.827   4.321
83779W        W55395  15.618  17.578  11.589
83780W        W55396  21.276  29.220  11.432
83781W        W55397  33.412  27.742   0.375
83782W        W55398   5.031  43.110  13.116
83783W        W55399   9.108  20.333  14.375
83784W        W55400  27.190  21.110   3.958
83785W        W55401  25.115  26.859   4.120
83786W        W55402  18.826  24.065  11.867
83787W        W55403   3.398   7.075  12.890
83788W        W55404  27.168   7.946  11.475
83789W        W55405  10.221  36.894  14.569
83790W        W55406  38.442  18.019   1.486
83791W        W55407  44.626  33.828  12.922
83792W        W55408  17.579  18.302  13.029
83793W        W55409  25.095  44.208   2.555
83794W        W55410   5.755  15.574   3.588
83795W        W55411  16.174  42.319  12.177
83796W        W55412  32.312  27.935   9.570
83797W        W55413  13.621  30.633  11.065
83798W        W55414   0.104  10.857  12.599
83799W        W55415  28.587  30.394  11.023
83800W        W55416  37.349  24.913  12.893
83801W        W55417  24.754  44.200  11.540
83802W        W55418   6.678  21.233  14.010
83803W        W55419   9.705  41.013  13.439
83804W        W55420  31.520  10.036  10.233
83805W        W55421   7.674  43.007  12.485
83806W        W55422   9.711  25.437  12.481
83807W        W55423  21.157  25.011   3.652
83808W        W55424  34.417  26.870   2.227
83809W        W55425  25.892   2.348  10.665
83810W        W55426  19.842   1.031   2.899
83811W        W55427  18.619   7.717  14.409
83812W        W55428  36.315  26.478   1.818
83813W        W55429  27.005  40.026   3.880
83814W        W55430   6.160  39.923   3.541
83815W        W55431  38.437  42.014   1.196
83816W        W55432  19.665  17.570   0.027
83817W        W55433  10.692  11.500  12.431
83818W        W55434  21.647   4.025  10.685
83819W        W55435  13.995  13.312   1.515
83820W        W55436  26.521  33.415   1.394
83821W        W55437  40.972   5.511  11.493
83822W        W55438  39.267  26.002   0.840
83823W        W55439   0.311  13.574  14.658
83824W        W55440  39.490   2.974   0.727
83825W        W55441  23.709  44.389  13.310
83826W        W55442  19.032  44.470   3.676
83827W        W55443  43.821  34.942  11.709
83828W        W55444  15.589   9.067  13.527
83829W        W55445  26.358  44.732   3.207
83830W        W55446  29.042   0.817   1.946
83831W        W55447  41.878  18.744  11.219
83832W        W55448  30.289  18.564  13.506
83833W        W55449   3.698  33.087   4.637
83834W        W55450  19.704   6.745  11.718
83835W        W55451  22.622   2.916   4.616
83836W        W55452  21.003  42.462  11.261
83837W        W55453  34.869  23.505  12.482
83838W        W55454  32.977  15.569   0.472
83839W        W55455  26.422   8.816  12.331
83840W        W55456  38.486  29.696  12.453
83841W        W55457  41.291  19.186  11.497
83842W        W55458  37.516   1.326   3.136
83843W        W55459  13.855  28.187  13.914
83844W        W55460  13.534  30.167  13.341
83845W        W55461   9.322  24.106  14.221
83846W        W55462   6.190  22.569  11.189
83847W        W55463  25.733  14.250   4.220
83848W        W55464  39.039   5.895   4.148
83849W        W55465  30.020  10.829   3.193
83850W        W55466  19.458  19.574   1.411
83851W        W55467  10.439  23.596  13.099
83852W        W55468  40.397  36.090   3.309
83853W        W55469  31.860  44.346   1.751
83854W        W55470  22.626  21.185   4.567
83855W        W55471  28.605  36.074  14.239
83856W        W55472  25.076  19.767   0.982
83857W        W55473   5.196  32.166   4.133
83858W        W55474  32.421  10.724   0.435
83859W        W55475  13.369  40.888   3.158
83860W        W55476  15.104   2.749  11.588
83861W        W55477  12.648   3.370   4.848
83862W        W55478  43.791  38.153   0.234
83863W        W55479  41.900  40.773  12.825
83864W        W55480  31.933  10.282   3.591
83865W        W55481  12.624  27.009   1.215
83866W        W55482  13.122  39.453   3.663
83867W        W55483   9.875   6.538   2.791
83868W        W55484  18.586  39.947  10.525
83869W        W55485  29.607  43.584  12.813
83870W        W55486  39.457  42.886  13.921
83871W        W55487  22.040   3.020   2.125
83872W        W55488  17.309  11.341   0.497
83873W        W55489  44.322   4.505  12.190
83874W        W55490  14.127  35.663  13.403
83875W        W55491  12.366   4.886   4.634
83876W        W55492   6.270   9.724  12.037
83877W        W55493  10.793  29.645   3.216
83878W        W55494   5.546  23.920  11.063
83879W        W55495  31.660   2.503   1.632
83880W        W55496   9.110  20.372  12.345
83881W        W55497  21.630  18.181  14.877
83882W        W55498  18.653  41.756  13.727
83883W        W55499  32.447  27.736   0.270
83884W        W55500  22.042  19.603  12.455
83885W        W55501  36.408  27.403  12.663
83886W        W55502   3.968  38.811  12.425
83887W        W55503  42.981  15.714  10.281
83888W        W55504   5.226  42.944  10.982
83889W        W55505  21.141  42.386   2.795
83890W        W55506   4.487   3.599  13.118
83891W        W55507  38.638  41.792   0.759
83892W        W55508  41.478   2.033   0.313
83893W        W55509  29.466  16.795  11.027
83894W        W55510  14.336  24.067  10.615
83895W        W55511  27.039  27.710  14.841
83896W        W55512  22.195  34.055   2.658
83897W        W55513  34.635  25.130  11.584
83898W        W55514  17.651  23.640  10.754
83899W        W55515  35.413  31.226   3.632
83900W        W55516  20.690  26.941   2.491
83901W        W55517   8.057   1.823  10.285
83902W        W55518   4.365   9.224   4.208
83903W        W55519   4.794  41.458   4.606
83904W        W55520   4.814  11.607  12.533
83905W        W55521  12.428  35.496   0.670
83906W        W55522  15.828  43.875   2.759
83907W        W55523  19.114  27.630  12.376
83908W        W55524  42.968  17.848  13.571
83909W        W55525  33.355   9.666   2.670
83910W        W55526  13.074   4.456  13.477
83911W        W55527  31.756   2.776   4.593
83912W        W55528   6.355  11.742   3.584
83913W        W55529  35.535   3.909  14.007
83914W        W55530  42.950   4.536  13.943
83915W        W55531  37.880  37.330   3.599
83916W        W55532   9.837   9.577   0.834
83917W        W55533  43.504   5.406  13.027
83918W        W55534  38.193  25.092  12.867
83919W        W55535  30.078  33.551   3.764
83920W        W55536  14.066  30.606  11.827
83921W        W55537  20.717  43.204  13.421
83922W        W55538  39.268  25.106  12.477
83923W        W55539   4.451  18.062   1.821
83924W        W55540  21.622  21.714  14.043
83925W        W55541  34.598   7.800  14.084
83926W        W55542  28.146   2.909  12.900
83927W        W55543  26.469  18.876   0.360
83928W        W55544   6.741  24.905  13.634
83929W        W55545   8.268  21.210   3.330
83930W        W55546   2.951   1.822   0.859
83931W        W55547  11.052   1.707  14.543
83932W        W55548   0.423  35.389  10.550
83933W        W55549  34.542  16.348  12.236
83934W        W55550  36.872  10.609   0.816
83935W        W55551  23.522  26.126   4.309
83936W        W55552   2.601  44.976   4.614
83937W        W55553  14.626  33.480  11.448
83938W        W55554  22.803  13.289   1.916
83939W        W55555  15.185  23.059  11.057
83940W        W55556  30.622  19.764  12.951
83941W        W55557  13.606  15.068  14.992
83942W        W55558  27.300  28.387   0.944
83943W        W55559  18.814  17.477  11.402
83944W        W55560   0.090   8.695  13.004
83945W        W55561  15.013  39.058   4.239
83946W        W55562   7.907  33.129  12.933
83947W        W55563  37.414  33.585   0.351
83948W        W55564   8.572   2.314  14.304
83949W        W55565  31.169  23.790   0.412
83950W        W55566   8.844   1.340   1.967
83951W        W55567  17.153  15.116  11.039
83952W        W55568  43.027  31.478   2.304
83953W        W55569  36.537  19.390  14.921
83954W        W55570  15.225  40.278  12.827
83955W        W55571  16.839  24.192   3.181
83956W        W55572  42.063  25.635   2.685
83957W        W55573  10.339  35.060   1.482
83958W        W55574  29.708   8.257  10.575
83959W        W55575  21.316  28.659   1.877
83960W        W55576  16.123   1.450  13.046
83961W        W55577  28.202  36.896  11.770
83962W        W55578   2.906  11.740   1.762
83963W        W55579  36.505  35.687   0.797
83964W        W55580  37.101  15.340   0.261
83965W        W55581  24.541   6.236   0.803
83966W        W55582  18.307   1.217  14.285
83967W        W55583  32.937  12.612   0.866
83968W        W55584  24.029  35.911  13.339
83969W        W55585  41.484  13.346   3.720
83970W        W55586  21.786  38.624   3.661
83971W        W55587  31.592  32.975  13.096
83972W        W55588  43.239  38.811   3.315
83973W        W55589  14.297   8.321  14.788
83974W        W55590  36.930  16.437  11.585
83975W        W55591  33.977  33.062   2.582
83976W        W55592  25.584  40.192  13.244
83977W        W55593  25.293   7.336  13.772
83978W        W55594  40.263   1.952  13.034
83979W        W55595   5.392  23.024  11.036
83980W        W55596  13.589  15.750   2.801
83981W        W55597  13.151  29.042   1.947
83982W        W55598  38.081  34.807  11.943
83983W        W55599  11.231   3.768   0.453
83984W        W55600  17.965  29.649   3.676
83985W        W55601  26.085  37.613   1.230
83986W        W55602  13.672  31.541   4.912
83987W        W55603  25.511  40.370  13.747
83988W        W55604   7.401  42.450  11.581
83989W        W55605  15.309  11.108  11.494
83990W        W55606  34.559   7.658  14.579
83991W        W55607   4.246  11.614  12.489
83992W        W55608  28.939   2.945  12.474
83993W        W55609  35.348  27.415   2.942
83994W        W55610  21.222  14.419  13.331
83995W        W55611  40.133  20.781  14.321
83996W        W55612  36.974  32.173   3.264
83997W        W55613  23.436  33.967  12.628
83998W        W55614  26.514  15.383  11.993
83999W        W55615   5.626  17.155  12.280
84000W        W55616   3.930  20.659  12.475
84001W        W55617  24.314  18.086  11.883
84002W        W55618  30.758   2.729   2.260
84003W        W55619  18.677  29.808   3.172
84004W        W55620  42.456  12.695  14.693
84005W        W55621   6.882   6.052   1.933
84006W        W55622  31.998  24.564   2.859
84007W        W55623  17.289  23.252  12.347
84008W        W55624  44.524  34.591  14.300
84009W        W55625   3.833  11.107  14.525
84010W        W55626   4.701   7.027   3.681
84011W        W55627  24.593  14.679   3.708
84012W        W55628  41.805  14.179   1.323
84013W        W55629  36.693  10.508   1.690
84014W        W55630  32.796   9.168  14.137
84015W        W55631   2.227  25.070   3.095
84016W        W55632  32.647  17.865   1.794
84017W        W55633  40.600  29.559   1.921
84018W        W55634  26.247  20.667  14.015
84019W        W55635  17.244  39.427   0.053
84020W        W55636   8.701  19.754  11.117
84021W        W55637  34.075   4.693   0.515
84022W        W55638   4.370   1.874  13.822
84023W        W55639  43.824   5.497   2.759
84024W        W55640   6.294  24.481   3.622
84025W        W55641  35.638  25.724  14.602
84026W        W55642  12.796  43.815   3.182
84027W        W55643  38.182  16.644   3.689
84028W        W55644  25.239  20.045   3.282
84029W        W55645  34.058   8.065   1.328
84030W        W55646  15.571  34.711  11.923
84031W        W55647  17.784  23.947   1.364
84032W        W55648   3.244  32.147   1.842
84033W        W55649  26.633  43.904  14.664
84034W        W55650  40.557  18.415   2.267
84035W        W55651  39.130  10.567  13.025
84036W        W55652   5.287   2.346   4.250
84037W        W55653  10.361  33.060  10.959
84038W        W55654   1.879   3.268   3.145
84039W        W55655  28.187  35.967  12.376
84040W        W55656  14.852  40.048  13.942
84041W        W55657  40.034  14.857   3.248
84042W        W55658   2.873   6.153   2.302
84043W        W55659  24.463  35.900   1.866
84044W        W55660  42.737  24.832  12.510
84045W        W55661  42.782  27.421  12.080
84046W        W55662  11.742   2.529  14.233
84047W        W55663  43.937  19.786   3.777
84048W        W55664  31.384  38.089   4.706
84049W        W55665  37.464  43.018   1.615
84050W        W55666  11.144  27.078  13.967
84051W        W55667   3.220   2.227   0.309
84052W        W55668  19.050  20.109  13.978
84053W        W55669  32.408  37.418  12.191
84054W        W55670  18.618   6.471  13.844
84055W        W55671  37.296  37.406  12.983
84056W        W55672  36.554  17.272  12.593
84057W        W55673  10.618  18.074  13.943
84058W        W55674  41.327   3.276   5.032
84059W        W55675  26.100   0.558  13.961
84060W        W55676  15.695  26.259   0.450
84061W        W55677  12.343  29.251  14.566
84062W        W55678  30.577  42.783  13.728
84063W        W55679  24.007  34.346   3.328
84064W        W55680  41.536  17.300  14.149
84065W        W55681  28.388  15.800   3.713
84066W        W55682  23.857  37.104   2.850
84067W        W55683   8.985  25.109  12.936
84068W        W55684  35.046  41.490   3.233
84069W        W55685  26.766  19.930   1.721
84070W        W55686   3.899  43.162   3.947
84071W        W55687  26.028  14.588  13.515
84072W        W55688  43.115  21.503  13.914
84073W        W55689   9.221  11.176   2.667
84074W        W55690  43.285  30.091  10.616
84075W        W55691  21.148  14.615   0.390
84076W        W55692  25.016  26.967   1.272
84077W        W55693  30.448  29.484   0.978
84078W        W55694   0.843   1.694   2.330
84079W        W55695  26.121  10.113  13.814
84080W        W55696  42.912  38.325   0.842
84081W        W55697  41.046  25.093   3.841
84082W        W55698  44.030  32.696   4.159
84083W        W55699  41.063  23.811  14.478
84084W        W55700  42.690   8.725  13.764
84085W        W55701  24.644  14.855   2.231
84086W        W55702  32.362  40.231   2.740
84087W        W55703  29.383  22.891  14.025
84088W        W55704  18.652   9.296  14.546
84089W        W55705  28.135  31.977   3.662
84090W        W55706  14.528  21.742   4.558
84091W        W55707   9.393  30.115   3.307
84092W        W55708   3.459   8.689  14.418
84093W        W55709  38.562  39.538   0.059
84094W        W55710  17.631  40.986   0.184
84095W        W55711  13.930  33.969  13.892
84096W        W55712   0.051  13.918  12.135
84097W        W55713  33.623   3.699   2.384
84098W        W55714  10.138  27.145  13.648
84099W        W55715  13.815  40.847   4.484
84100W        W55716  10.813  21.791   4.665
84101W        W55717  19.001   8.298  11.030
84102W        W55718  21.671  35.416  10.914
84103W        W55719  10.673  19.090  10.550
84104W        W55720   4.424  12.332  14.533
84105W        W55721   3.665  43.039   4.675
84106W        W55722   1.348  37.808  11.712
84107W        W55723  35.926   0.413   1.781
84108W        W55724   7.299  35.275   0.826
84109W        W55725   8.495   9.445   2.142
84110W        W55726  32.465   3.169  11.609
84111W        W55727  35.420  28.662  11.401
84112W        W55728  14.839   6.698   0.411
84113W        W55729  29.562  44.376   1.304
84114W        W55730   0.004   9.834  11.428
84115W        W55731   2.494  26.182   2.267
84116W        W55732   7.097  20.681  12.847
84117W        W55733  26.902  16.358   4.142
84118W        W55734  31.840  18.318   3.884
84119W        W55735  14.823   7.010  10.952
84120W        W55736  38.888   8.433  14.876
84121W        W55737  21.230  29.430  14.956
84122W        W55738   9.829   6.922  12.964
84123W        W55739  10.027  12.691   4.135
84124W        W55740  32.461   4.687  11.582
84125W        W55741  36.014  21.962   2.967
84126W        W55742  25.064  34.661   4.531
84127W        W55743   8.397  18.789  11.912
84128W        W55744   2.261  10.365   4.724
84129W        W55745  11.364  26.234   2.075
84130W        W55746   4.448  42.685   4.103
84131W        W55747  15.621  18.085   5.643
84132W        W55748  19.501  21.316  12.087
84133W        W55749  20.968  23.224  14.401
84134W        W55750  43.789   2.864   0.595
84135W        W55751  44.382  37.987   4.218
84136W        W55752  25.087  30.640  14.235
84137W        W55753  19.339   0.951   2.797
84138W        W55754  28.916  14.852   0.193
84139W        W55755  10.678  14.093  12.944
84140W        W55756  39.925  10.316  11.114
84141W        W55757  22.287   6.578   2.356
84142W        W55758   4.304  30.569  13.356
84143W        W55759  16.710  34.530   0.297
84144W        W55760  23.724   5.185  12.000
84145W        W55761  31.497   5.806  13.984
84146W        W55762  38.391  18.142  10.796
84147W        W55763  25.008  32.584  13.442
84148W        W55764  35.017  25.720   4.209
84149W        W55765  41.696  12.328  12.449
84150W        W55766  42.265   5.012  12.897
84151W        W55767   6.671   6.718  10.762
84152W        W55768   9.336  36.852  10.598
84153W        W55769   2.833  24.689   4.597
84154W        W55770  12.947  21.550   3.633
84155W        W55771   3.381  26.908   3.317
84156W        W55772  33.090  19.240  11.690
84157W        W55773  44.485  11.503  11.898
84158W        W55774  10.524  23.914   1.277
84159W        W55775  12.282  36.858   2.335
84160W        W55776   7.855  19.516  14.409
84161W        W55777   1.011  37.394   1.005
84162W        W55778   0.489  38.023  11.136
84163W        W55779  11.902  19.928   2.876
84164W        W55780  17.615  32.168   3.699
84165W        W55781  40.148  32.174   9.958
84166W        W55782  32.300  23.549  10.358
84167W        W55783  42.255   8.828  10.622
84168W        W55784  10.766  43.454  11.400
84169W        W55785  11.973   2.090   1.264
84170W        W55786  18.385  16.153  12.650
84171W        W55787  19.615  20.436   3.634
84172W        W55788  10.391   1.766  11.907
84173W        W55789  28.625   3.209  12.819
84174W        W55790  37.983   7.507  12.409
84175W        W55791  36.111  22.281  11.135
84176W        W55792  25.024  28.570   2.880
84177W        W55793  18.275  16.870  11.933
84178W        W55794   5.545  22.338   0.824
84179W        W55795   6.206   8.338  14.665
84180W        W55796   5.447  38.582   3.205
84181W        W55797  23.662   8.746   0.131
84182W        W55798   5.350  38.413  14.433
84183W        W55799   0.695  16.702  12.933
84184W        W55800   1.980  20.188  11.210
84185W        W55801  15.665  32.734  10.670
84186W        W55802  20.574  21.740   2.753
84187W        W55803  24.777  28.578   1.896
84188W        W55804  15.917  14.446   3.194
84189W        W55805  13.332   9.912   2.761
84190W        W55806   3.340  35.973   1.680
84191W        W55807  22.001  25.270  10.725
84192W        W55808  20.672  33.467  13.406
84193W        W55809  20.120  16.426   3.849
84194W        W55810  33.565  43.373   4.310
84195W        W55811   0.195  43.180  12.967
84196W        W55812  31.575  42.022   1.760
84197W        W55813  27.722  43.223  12.949
84198W        W55814  10.106  20.578   1.465
84199W        W55815  38.970  27.108  12.595
84200W        W55816  29.418  37.589  12.013
84201W        W55817  20.946  30.014   3.144
84202W        W55818  11.362  41.307   0.524
84203W        W55819   8.595   2.856   0.482
84204W        W55820  43.483  40.287  14.000
84205W        W55821  36.215   3.482  14.330
84206W        W55822   3.431  35.022   0.779
84207W        W55823  43.030  29.146   1.007
84208W        W55824  37.253   2.888  13.192
84209W        W55825  42.371  29.043   2.186
84210W        W55826  10.015  24.201   5.060
84211W        W55827   3.308  13.325  10.607
84212W        W55828  37.653  11.406   3.656
84213W        W55829  28.428  25.512  11.178
84214W        W55830  27.661   9.911  12.542
84215W        W55831  33.608   8.833   3.105
84216W        W55832   2.892  24.075   2.813
84217W        W55833   9.749  14.536  14.037
84218W        W55834  40.866  19.620  10.797
84219W        W55835  44.809  26.173  12.125
84220W        W55836  34.418  37.537   2.204
84221W        W55837   6.626   5.810   4.610
84222W        W55838  39.910  18.043  12.437
84223W        W55839  42.548   4.398   4.303
84224W        W55840  31.459  23.161   1.584
84225W        W55841  14.588  40.414  11.044
84226W        W55842  24.696   2.142   4.240
84227W        W55843  38.961  44.739   4.678
84228W        W55844  29.305   0.776  11.399
84229W        W55845   0.529  20.762   0.938
84230W        W55846  39.230   3.332   0.419
84231W        W55847  14.471  21.610  13.266
84232W        W55848  36.763  35.401  12.146
84233W        W55849   4.889  28.980   0.670
84234W        W55850   9.820  14.324  11.834
84235W        W55851  30.887  26.488   5.098
84236W        W55852  27.530   6.373  10.995
84237W        W55853  27.241  24.169  12.863
84238W        W55854  12.684  32.416   3.704
84239W        W55855  44.751  22.750  10.809
84240W        W55856  31.659  32.742   3.772
84241W        W55857   0.083   3.267   4.045
84242W        W55858  34.643  11.675  11.499
84243W        W55859  25.943  36.987  10.711
84244W        W55860  11.837  10.707  10.456
84245W        W55861   0.179  24.624   1.778
84246W        W55862  24.508   6.789   2.530
84247W        W55863  10.292   2.305   1.698
84248W        W55864   3.293  27.903  13.823
84249W        W55865   8.334   0.529  11.107
84250W        W55866  30.923  40.800  10.784
84251W        W55867  44.223   7.399  12.484
84252W        W55868   4.167   7.012   3.422
84253W        W55869  42.374  40.912   1.221
84254W        W55870  14.329  20.636   0.723
84255W        W55871   2.745  29.450   0.864
84256W        W55872  13.323  39.048   2.089
84257W        W55873  30.029  44.150  11.481
84258W        W55874   6.361   0.760   1.019
84259W        W55875  12.545  19.334  11.432
84260W        W55876  36.470  35.003   1.402
84261W        W55877  20.538   5.450  12.587
84262W        W55878   6.409  41.025   0.249
84263W        W55879   1.857   6.391   1.507
84264W        W55880  43.265   0.855   0.894
84265W        W55881  18.254  42.511  11.149
84266W        W55882  29.219  14.283  11.568
84267W        W55883  20.160  12.464  12.132
84268W        W55884   1.206  38.582  12.000
84269W        W55885  11.237  11.512   4.923
84270W        W55886  31.164  13.085  12.875
84271W        W55887  38.602  37.862  13.073
84272W        W55888  36.119   9.281   0.362
84273W        W55889  27.661  22.601  11.689
84274W        W55890  27.055  43.491   2.945
84275W        W55891   9.488  13.279   4.697
84276W        W55892  15.115  13.324  14.784
84277W        W55893  35.311   0.868  14.817
84278W        W55894  32.683  24.681  12.164
84279W        W55895  22.362   0.749   4.996
84280W        W55896   8.734  33.680  10.675
84281W        W55897   9.858  27.162   2.100
84282W        W55898  28.975  36.650  11.147
84283W        W55899  13.700  35.947   4.161
84284W        W55900   9.883  17.138   4.672
84285W        W55901  39.780   6.436  13.493
84286W        W55902  38.474  39.742   2.397
84287W        W55903  19.228   2.374   2.160
84288W        W55904  42.879  12.239  11.593
84289W        W55905  40.303   8.806  11.932
84290W        W55906  12.026  38.501   1.356
84291W        W55907  29.364   5.420   0.302
84292W        W55908  32.471  43.288  12.006
84293W        W55909  30.914  30.400   0.468
84294W        W55910  16.595   8.722  13.087
84295W        W55911  16.826  39.398  10.863
84296W        W55912  32.850  14.813  13.078
84297W        W55913  41.851  26.513   0.049
84298W        W55914   3.518  20.943  14.258
84299W        W55915  18.335  11.628   3.200
84300W        W55916   1.224  34.015  13.055
84301W        W55917  28.453  11.779  10.674
84302W        W55918  41.435  33.569  13.689
84303W        W55919  14.103  12.822  13.763
84304W        W55920  38.129  22.751  11.527
84305W        W55921  25.585  19.557   9.832
84306W        W55922  39.755  27.301  14.741
84307W        W55923  32.640  35.032  13.795
84308W        W55924  27.109  43.358   1.972
84309W        W55925  38.812  35.686   1.680
84310W        W55926  31.009  33.657   0.830
84311W        W55927  26.745  35.961   1.969
84312W        W55928   9.324  36.027   1.262
84313W        W55929  30.013  26.437   1.435
84314W        W55930  33.103  43.443  11.173
84315W        W55931  13.258  44.922   3.095
84316W        W55932  17.322  40.990  13.321
84317W        W55933  14.663  20.582   0.241
84318W        W55934  16.248  34.980  13.399
84319W        W55935   8.649  39.566   0.109
84320W        W55936  41.879  27.896   3.202
84321W        W55937   6.149  30.549   5.006
84322W        W55938  29.515  30.401  14.542
84323W        W55939  31.059  23.185  12.367
84324W        W55940  38.392   8.493  14.311
84325W        W55941  13.243  11.280   4.604
84326W        W55942  23.921   8.202   4.230
84327W        W55943  19.072  20.129  11.977
84328W        W55944   8.375   8.158   3.594
84329W        W55945  30.685  17.976   1.111
84330W        W55946  20.489   1.649  13.044
84331W        W55947   7.528  29.722   3.672
84332W        W55948   4.300  41.567   4.771
84333W        W55949  21.044  24.464   5.033
84334W        W55950  11.347   0.939   3.866
84335W        W55951  15.566  17.781   4.701
84336W        W55952  25.097  38.468  14.431
84337W        W55953  41.878  27.926   1.824
84338W        W55954   4.246  22.774   4.655
84339W        W55955  22.069   3.813   0.461
84340W        W55956  24.882  38.640  11.576
84341W        W55957   5.943  43.686  13.004
84342W        W55958  27.015  38.234  12.170
84343W        W55959  26.681  32.205   1.791
84344W        W55960  21.645  30.856  12.655
84345W        W55961  30.114   4.095   0.217
84346W        W55962  33.089  41.502   0.894
84347W        W55963  28.779   9.107   1.370
84348W        W55964  10.076  28.358  14.849
84349W        W55965  14.227  29.141  12.873
84350W        W55966   9.093  11.205   2.166
84351W        W55967  40.923  21.307   2.348
84352W        W55968  42.937  36.459   2.855
84353W        W55969  40.389  38.541   3.075
84354W        W55970  21.062  12.285   0.971
84355W        W55971  16.550   4.786   1.084
84356W        W55972  39.289  31.945   0.269
84357W        W55973  44.246  30.627   0.446
84358W        W55974  44.712  39.854  13.581
84359W        W55975  27.208  37.238   4.181
84360W        W55976  34.618   2.885   3.829
84361W        W55977   7.102   3.234  13.394
84362W        W55978  25.094  36.964  12.329
84363W        W55979  23.816  15.703  14.447
84364W        W55980  36.348  24.027   3.838
84365W        W55981   9.301  11.273   4.532
84366W        W55982   1.786  12.677   0.223
84367W        W55983  32.416  19.766  10.423
84368W        W55984  36.813  19.185  14.500
84369W        W55985  38.453   9.653  14.843
84370W        W55986  22.353  21.917  14.032
84371W        W55987  11.910   1.873   1.825
84372W        W55988  15.006  41.512   2.687
84373W        W55989  44.254   3.882   1.090
84374W        W55990  10.108  15.076  12.930
84375W        W55991  16.842  18.281  14.409
84376W        W55992  18.184  43.372  11.153
84377W        W55993  41.501  15.172  12.511
84378W        W55994   1.167  22.722   1.834
84379W        W55995  23.099   1.376  11.410
84380W        W55996  33.630  18.122  11.506
84381W        W55997   5.186  32.173   2.773
84382W        W55998  12.871  43.907  12.548
84383W        W55999   4.606  30.851  12.372
84384W        W56000  33.924   8.051  13.584
84385W        W56001  24.501  17.588   1.742
84386W        W56002  33.919  19.074   0.848
84387W        W56003  38.566  22.137   2.880
84388W        W56004  12.346  43.948  12.578
84389W        W56005  30.365  23.106   4.745
84390W        W56006  11.690  17.088  10.714
84391W        W56007  12.949  38.286   3.682
84392W        W56008  38.599  20.976  13.759
84393W        W56009   7.328  32.194  11.167
84394W        W56010  26.900  10.628   4.581
84395W        W56011  33.475  33.126   4.950
84396W        W56012  16.896   2.542  14.415
84397W        W56013   8.906  24.567   1.868
84398W        W56014  34.183  16.876  11.508
84399W        W56015  18.742   3.798  14.438
84400W        W56016   5.493  10.998  11.949
84401W        W56017  39.891   6.401   0.439
84402W        W56018   0.297   0.380   2.676
84403W        W56019  42.197  10.600   3.305
84404W        W56020  29.420  31.244  14.204
84405W        W56021  16.902  32.415   0.776
84406W        W56022  12.812  20.170  11.335
84407W        W56023  19.883  10.233   2.894
84408W        W56024  20.212  41.161   2.701
84409W        W56025  16.540   5.480  14.551
84410W        W56026  41.014   7.814  12.144
84411W        W56027  33.022  20.983   0.821
84412W        W56028   2.947   9.776  12.862
84413W        W56029  21.918   1.829  12.095
84414W        W56030  27.501  15.847   1.874
84415W        W56031  36.872  21.349  13.995
84416W        W56032  32.371  43.911  11.716
84417W        W56033   9.118  12.630  10.583
84418W        W56034  21.753  35.461  11.416
84419W        W56035  32.182  36.536  12.556
84420W        W56036   2.251  18.541  13.774
84421W        W56037  36.413  41.049   1.370
84422W        W56038  32.301  17.386  12.373
84423W        W56039  13.808  14.601   1.452
84424W        W56040  29.462  11.590   4.488
84425W        W56041  35.526   5.693   2.376
84426W        W56042  38.958  13.639  10.564
84427W        W56043  34.235   8.058   4.297
84428W        W56044  13.185  28.525  11.831
84429W        W56045  40.632  17.907   4.536
84430W        W56046  35.794   2.958   3.814
84431W        W56047  36.056  43.866   1.185
84432W        W56048  31.392   3.320   3.377
84433W        W56049   2.704  24.905  11.012
84434W        W56050  13.500  34.025  14.203
84435W        W56051  11.173  25.781   2.306
84436W        W56052  13.710   7.456   4.285
84437W        W56053  25.747  32.995   2.247
84438W        W56054  25.178  41.871  11.847
84439W        W56055   9.817   0.073   0.437
84440W        W56056  12.907  28.833   0.007
84441W        W56057  12.670   4.857   3.279
84442W        W56058   5.280  15.242   2.293
84443W        W56059  21.736  39.976   4.758
84444W        W56060  19.753  30.597  12.989
84445W        W56061  23.968   6.000  14.932
84446W        W56062   0.940  21.074   1.751
84447W        W56063  24.015  27.580   2.875
84448W        W56064  38.111  14.047   3.759
84449W        W56065   4.815  32.902  12.030
84450W        W56066   4.711   3.530   4.160
84451W        W56067   2.346  38.785   1.506
84452W        W56068   6.617  29.460  10.640
84453W        W56069  20.411   8.570  12.863
84454W        W56070   7.866  27.943  13.063
84455W        W56071  18.957  40.227   3.618
84456W        W56072  16.556   7.753  14.948
84457W        W56073  18.241  37.838   1.925
84458W        W56074  37.107  38.022   2.382
84459W        W56075  31.179   9.743   3.770
84460W        W56076  15.220  14.739   4.631
84461W        W56077   5.385  10.867   1.790
84462W        W56078  42.705  29.534  13.603
84463W        W56079  37.093  15.483  11.160
84464W        W56080  30.494  12.724  12.926
84465W        W56081   9.353   3.245   0.231
84466W        W56082  11.689  32.655   2.667
84467W        W56083  43.825  18.946  12.956
84468W        W56084  27.543  29.465  11.123
84469W        W56085  22.617   0.448  13.318
84470W        W56086   4.712  26.750   0.590
84471W        W56087  12.288  42.614   3.323
84472W        W56088   5.486  40.956  13.167
84473W        W56089  32.025  32.373  12.563
84474W        W56090   7.084  24.861  11.057
84475W        W56091  17.237   5.362   4.803
84476W        W56092  11.749   7.728   1.092
84477W        W56093  25.255  32.451   0.514
84478W        W56094  14.694  11.364   2.352
84479W        W56095  35.577   2.870   0.380
84480W        W56096  44.151  33.132   4.416
84481W        W56097   3.892  26.424   1.217
84482W        W56098  10.153   1.194   1.813
84483W        W56099  21.245  11.002   3.626
84484W        W56100  24.115  37.556   4.531
84485W        W56101  19.619   7.063  12.580
84486W        W56102  25.477  20.700   0.802
84487W        W56103   1.442  25.025   4.421
84488W        W56104  38.464  11.639  11.139
84489W        W56105  34.515  12.174  14.527
84490W        W56106  40.468   9.621  11.483
84491W        W56107  26.176  37.284  10.349
84492W        W56108  35.311  21.426  12.042
84493W        W56109   1.188  43.354  12.146
84494W        W56110  13.558  29.050  10.752
84495W        W56111  18.834  36.711  11.994
84496W        W56112  29.896  18.705  11.537
84497W        W56113  19.773  22.674   3.633
84498W        W56114  42.621  35.523   4.925
84499W        W56115  30.349  25.192  11.103
84500W        W56116   4.945  11.288  13.534
84501W        W56117  40.996  14.556  13.474
84502W        W56118  44.944  10.167  10.606
84503W        W56119  29.015   4.024  12.338
84504W        W56120   0.985  19.630  11.603
84505W        W56121  15.837  25.096  13.648
84506W        W56122  16.994  28.472  13.481
84507W        W56123   0.930  44.792   2.230
84508W        W56124  17.809  27.398  13.833
84509W        W56125  26.573  32.189   0.299
84510W        W56126  20.846  32.414  12.400
84511W        W56127  40.397  37.436  13.822
84512W        W56128  23.178   5.711   3.640
84513W        W56129  41.899  16.457   3.606
84514W        W56130  18.481  21.623   1.749
84515W        W56131  10.325  27.026   2.927
84516W        W56132  15.176  41.995  13.174
84517W        W56133  31.945  14.644  11.618
84518W        W56134  15.615  13.633  12.461
84519W        W56135  34.531   2.975  10.950
84520W        W56136  14.079  36.366  14.202
84521W        W56137   8.556  36.034   0.552
84522W        W56138  40.140  35.480  11.105
84523W        W56139   4.424   5.615   0.415
84524W        W56140   7.619  18.166  12.617
84525W        W56141  17.824  17.343  13.264
84526W        W56142  13.874  41.849  13.737
84527W        W56143  32.658  40.801  14.245
84528W        W56144   9.813  11.336  11.938
84529W        W56145  42.862  41.976   1.625
84530W        W56146  32.344  31.961  13.973
84531W        W56147  31.639   3.579  14.035
84532W        W56148  39.984  17.680   2.775
84533W        W56149   3.349  39.569   1.847
84534W        W56150  35.955   9.641   4.090
84535W        W56151  10.154  36.110   0.266
84536W        W56152  25.594  18.278   4.147
84537W        W56153   2.349  23.060  11.266
84538W        W56154  21.691  21.810   0.510
84539W        W56155  24.032  18.676  12.500
84540W        W56156  37.825  24.718  12.843
84541W        W56157  35.478  10.781  12.770
84542W        W56158  28.416  14.291   2.286
84543W        W56159  34.512  42.972  12.603
84544W        W56160  44.529   2.181   2.078
84545W        W56161  17.076  20.752  12.206
84546W        W56162  10.692  36.378   0.371
84547W        W56163  24.473  18.957  14.159
84548W        W56164  26.090  20.710   1.664
84549W        W56165   5.353  23.690  11.879
84550W        W56166  10.760  18.556   1.728
84551W        W56167  30.090  11.869  14.274
84552W        W56168  30.847  33.155   0.896
84553W        W56169   0.054   6.370  13.099
84554W        W56170  36.849  33.598  14.841
84555W        W56171  44.714  43.378  12.937
84556W        W56172  37.733  15.262  14.989
84557W        W56173   8.649   5.886   2.401
84558W        W56174  16.663  35.034  14.529
84559W        W56175  22.792   5.298   1.319
84560W        W56176  20.051  18.611   0.148
84561W        W56177  10.883  17.234   4.442
84562W        W56178  36.083  24.969   4.112
84563W        W56179  24.362  25.401   0.426
84564W        W56180  15.526  39.478   2.803
84565W        W56181  33.652  39.916   2.928
84566W        W56182  23.102   5.348   4.928
84567W        W56183  11.507  20.828  12.467
84568W        W56184  14.312  43.521   2.097
84569W        W56185  34.240  37.288  11.336
84570W        W56186  26.997  33.493  13.470
84571W        W56187  17.127  35.393   3.695
84572W        W56188  20.530  43.266   0.962
84573W        W56189  21.113   3.236   1.263
84574W        W56190  27.084  32.396   4.502
84575W        W56191   4.949  41.554   5.078
84576W        W56192   9.945  36.074  10.019
84577W        W56193  21.760  12.367   3.277
84578W        W56194  21.107  28.118   3.207
84579W        W56195  37.053  26.087  11.255
84580W        W56196  39.303  35.054  13.558
84581W        W56197  24.649  27.788   3.068
84582W        W56198   0.423  10.472   1.865
84583W        W56199   7.269  40.898  14.857
84584W        W56200  43.194   9.667  12.034
84585W        W56201  37.414  20.685   3.337
84586W        W56202  40.811  25.203  12.521
84587W        W56203   1.931  33.230  11.146
84588W        W56204  30.407   4.733  10.686
84589W        W56205  23.520  37.502  12.463
84590W        W56206  27.699  14.790   2.158
84591W        W56207  43.921   4.473  10.771
84592W        W56208  27.473  17.734  11.548
84593W        W56209  18.192   1.324  10.726
84594W        W56210  42.948  31.475   1.334
84595W        W56211  14.084  13.714  12.496
84596W        W56212  34.104   4.112  11.487
84597W        W56213  22.178  38.371   3.404
84598W        W56214  10.156   8.402  14.858
84599W        W56215  10.119   5.447  10.777
84600W        W56216  14.564   6.860   0.908
84601W        W56217  27.918  42.075   4.115
84602W        W56218  31.817  43.869   2.073
84603W        W56219   4.201  25.853   3.905
84604W        W56220  30.545   0.874   4.505
84605W        W56221  20.312   9.695  11.194
84606W        W56222  12.934  38.997  10.741
84607W        W56223   7.448   1.959   3.741
84608W        W56224  26.121  25.597   4.503
84609W        W56225  33.864  32.157   2.680
84610W        W56226  19.911  43.024   0.371
84611W        W56227  23.467   9.689  13.141
84612W        W56228  10.497  22.584   2.197
84613W        W56229  39.245  13.255   9.790
84614W        W56230  31.206  28.878  10.352
84615W        W56231   5.193  10.387   1.628
84616W        W56232   8.578   3.531   4.158
84617W        W56233   3.281  19.732   2.153
84618W        W56234  44.639  35.370   5.190
84619W        W56235  30.487  18.952  14.969
84620W        W56236   3.794  40.896  11.684
84621W        W56237  13.012  41.048  12.613
84622W        W56238  13.709  12.842   0.446
84623W        W56239  19.071  10.909   3.466
84624W        W56240  10.718  12.221  12.394
84625W        W56241  17.294  38.004  13.440
84626W        W56242  24.188  15.616  12.509
84627W        W56243  17.222  25.970   2.073
84628W        W56244  30.006  13.654  12.976
84629W        W56245   2.409   9.801  12.080
84630W        W56246  35.039  39.374   2.645
84631W        W56247  42.873   8.364  13.043
84632W        W56248   2.191  25.119   0.325
84633W        W56249  15.217  36.460   4.807
84634W        W56250  26.004  30.917  14.353
84635W        W56251  35.518   6.209  13.165
84636W        W56252  17.984  32.421   0.829
84637W        W56253   2.225  39.714   0.527
84638W        W56254  39.925  15.837   1.716
84639W        W56255  32.132  25.070  12.891
84640W        W56256  37.812  23.952   1.361
84641W        W56257   7.482  19.045  12.440
84642W        W56258  28.532  22.231   3.161
84643W        W56259  39.490  24.624  12.566
84644W        W56260   4.371  14.014   1.820
84645W        W56261  39.072   7.334  12.797
84646W        W56262  22.503  33.179  14.161
84647W        W56263  28.605   4.701  10.895
84648W        W56264  42.780  30.076  10.719
84649W        W56265  34.547  27.684   3.794
84650W        W56266  24.233  34.076   4.608
84651W        W56267  35.419  36.063  11.065
84652W        W56268  23.288  17.257   0.352
84653W        W56269  10.217  31.497  13.916
84654W        W56270  41.837  22.812  11.130
84655W        W56271  30.844   3.175   1.809
84656W        W56272  30.647   0.410  10.427
84657W        W56273  28.060   7.691   3.513
84658W        W56274  32.882  14.152  11.596
84659W        W56275  13.952  22.986   4.078
84660W        W56276  11.536  22.103   0.866
84661W        W56277  13.211  33.491  11.766
84662W        W56278  33.434  42.217   0.359
84663W        W56279   3.878  31.964  14.441
84664W        W56280  22.427  12.785  14.155
84665W        W56281  32.645  41.977   0.367
84666W        W56282   5.744  16.066  13.192
84667W        W56283   1.943   5.794  11.294
84668W        W56284  29.096  14.012   0.072
84669W        W56285  15.568  12.001  11.631
84670W        W56286  17.607  10.140   4.815
84671W        W56287  28.875  21.311   2.738
84672W        W56288  22.408  11.908   0.655
84673W        W56289  44.710  10.682  11.155
84674W        W56290   6.423  41.038   2.906
84675W        W56291  29.678  26.659  12.579
84676W        W56292   0.852  15.330   4.981
84677W        W56293   1.266  30.415   2.323
84678W        W56294   1.554   6.089  11.133
84679W        W56295   6.639  44.020  11.408
84680W        W56296  15.155  29.254   1.202
84681W        W56297  23.622   1.227  12.114
84682W        W56298  25.574  36.256   2.665
84683W        W56299  38.912  33.500  12.259
84684W        W56300  28.271  11.554   1.784
84685W        W56301  15.040  18.713  11.695
84686W        W56302  18.825  12.289   1.952
84687W        W56303  14.916   7.766  12.917
84688W        W56304  40.741  12.936   3.641
84689W        W56305  30.085   7.955   0.835
84690W        W56306  26.206  19.796  14.021
84691W        W56307   3.545  24.545  11.557
84692W        W56308  38.002  26.394  14.798
84693W        W56309  13.151  30.831   4.373
84694W        W56310  16.098  27.068  13.283
84695W        W56311   9.138  34.908   0.930
84696W        W56312  32.282  41.600  12.563
84697W        W56313  12.285  27.086   1.618
84698W        W56314  11.861  30.675  12.912
84699W        W56315  19.788  40.861   2.648
84700W        W56316  40.815   4.234   3.813
84701W        W56317  14.217  41.251  14.448
84702W        W56318  35.778  22.490   1.918
84703W        W56319  16.563  22.210   0.676
84704W        W56320  14.776  11.809  14.468
84705W        W56321  13.522  17.283   0.091
84706W        W56322   9.862  31.139   4.148
84707W        W56323  12.531   9.813  13.324
84708W        W56324  38.730  16.351   4.674
84709W        W56325  13.594  32.063   2.177
84710W        W56326  31.496  29.643   3.170
84711W        W56327  19.086  27.461   4.506
84712W        W56328  39.189  12.604   4.603
84713W        W56329  12.239   2.286  11.485
84714W        W56330   7.730  32.835  14.388
84715W        W56331  22.210  13.701   0.798
84716W        W56332  26.007  26.646   0.916
84717W        W56333  35.596  22.071   2.683
84718W        W56334  10.226   6.350   3.121
84719W        W56335  32.449  19.288   3.285
84720W        W56336   4.894  33.672  13.395
84721W        W56337  19.924  43.402   4.161
84722W        W56338  22.208  33.746  14.004
84723W        W56339   8.873  22.566  12.126
84724W        W56340   5.257  22.027  11.070
84725W        W56341   3.795   8.746   0.005
84726W        W56342   8.293  42.862   0.704
84727W        W56343   4.201  12.601  12.213
84728W        W56344  34.322  10.118   1.650
84729W        W56345  19.574  13.117  11.406
84730W        W56346  10.931  17.584   0.308
84731W        W56347  39.696   5.229   4.035
84732W        W56348  11.799  28.259   3.585
84733W        W56349  17.841  27.511   1.797
84734W        W56350  13.718  22.818  12.149
84735W        W56351  15.610  29.075  10.792
84736W        W56352  13.527  25.862   2.371
84737W        W56353  33.227  21.011   3.606
84738W        W56354  24.694  25.534  11.515
84739W        W56355  35.298  30.618   4.225
84740W        W56356   7.702  40.525  14.265
84741W        W56357  24.006  42.538   3.217
84742W        W56358   1.391   5.412   3.382
84743W        W56359  25.220  22.730  13.887
84744W        W56360  31.102  11.397   0.961
84745W        W56361  37.223  29.152  14.358
84746W        W56362  13.775  16.180   1.128
84747W        W56363  10.904  44.733   1.920
84748W        W56364  31.087   4.194   3.659
84749W        W56365  44.218  32.925   3.715
84750W        W56366  25.730  13.649   5.079
84751W        W56367  44.168  40.629  11.565
84752W        W56368  41.951   9.863  12.568
84753W        W56369  32.895  44.411   2.827
84754W        W56370  33.972  24.723   3.355
84755W        W56371  33.828   3.946   0.506
84756W        W56372  27.050  19.704  11.219
84757W        W56373  17.313   0.165  13.265
84758W        W56374  28.147  13.156   1.666
84759W        W56375   3.747  34.603   0.131
84760W        W56376  42.790  38.336  11.254
84761W        W56377  16.067  44.385  14.922
84762W        W56378  33.333  19.272   3.222
84763W        W56379  39.861  30.071   1.793
84764W        W56380   5.205  22.213  10.591
84765W        W56381  39.520  25.589   2.866
84766W        W56382   8.788  37.847   4.514
84767W        W56383  34.541  22.788  11.002
84768W        W56384  18.344  12.224  11.195
84769W        W56385   3.302  38.881   3.725
84770W        W56386  41.123   6.063  13.834
84771W        W56387   8.049  25.532  13.821
84772W        W56388  34.742   0.606   0.777
84773W        W56389  38.449  44.941   4.559
84774W        W56390   2.237  11.623  14.998
84775W        W56391  38.074  43.278  11.360
84776W        W56392   7.029  28.085  12.808
84777W        W56393  26.099  38.973   4.181
84778W        W56394  22.503  11.275  14.884
84779W        W56395  26.030  30.564   1.037
84780W        W56396   0.345  13.027   4.806
84781W        W56397  22.023  12.781   0.971
84782W        W56398  37.557   9.900  11.945
84783W        W56399  23.916  13.576  12.919
84784W        W56400   4.706  13.333  14.513
84785W        W56401  20.522  31.881   2.195
84786W        W56402   3.794   7.135   4.851
84787W        W56403  41.385   0.964  13.396
84788W        W56404  10.897  33.404   0.884
84789W        W56405  27.517   2.330   1.361
84790W        W56406   4.162  31.077  11.149
84791W        W56407   4.417  38.612   2.670
84792W        W56408   7.999  10.319  13.097
84793W        W56409   3.197  42.828   3.890
84794W        W56410  31.729  16.767   4.138
84795W        W56411   2.508   9.687   1.026
84796W        W56412  23.947  32.514   1.284
84797W        W56413  22.929   9.704   0.685
84798W        W56414  41.928  18.988  10.748
84799W        W56415  26.550  25.305  13.558
84800W        W56416  38.499  15.469   4.905
84801W        W56417   9.236  36.661  13.858
84802W        W56418  33.932   7.710   1.978
84803W        W56419  30.367  35.842  14.410
84804W        W56420  34.576  33.056  11.552
84805W        W56421  42.939  37.582   2.028
84806W        W56422  24.116  38.381  13.303
84807W        W56423  24.202  12.657  12.900
84808W        W56424  11.476  39.024   0.841
84809W        W56425  37.986  24.267  14.531
84810W        W56426  37.438  21.628   1.580
84811W        W56427  44.382  25.726   4.144
84812W        W56428  31.199  33.900   1.263
84813W        W56429  29.624   2.172   3.610
84814W        W56430  41.362  27.211   4.528
84815W        W56431  37.495  30.346   4.885
84816W        W56432   0.175  42.506  10.472
84817W        W56433   2.241   2.925   4.547
84818W        W56434  44.111  33.469  11.495
84819W        W56435  41.918  36.332  12.852
84820W        W56436  18.728  36.620  14.081
84821W        W56437  11.681  31.839  11.928
84822W        W56438  43.847  26.356  12.421
84823W        W56439  12.810  24.989  12.047
84824W        W56440  38.046  11.559   1.876
84825W        W56441  35.359   2.376  11.192
84826W        W56442   4.484  26.994  13.424
84827W        W56443  43.808  40.112  10.931
84828W        W56444  29.493  26.444   2.768
84829W        W56445  44.942  18.153   0.902
84830W        W56446  43.818   2.870   3.811
84831W        W56447  29.036  36.897  13.905
84832W        W56448  44.501   4.939  14.460
84833W        W56449   6.910  22.529  13.477
84834W        W56450  35.508   7.775   4.061
84835W        W56451  11.069  24.547  11.050
84836W        W56452   8.429   0.215   3.226
84837W        W56453  31.170  39.498  12.949
84838W        W56454  24.191  41.013  10.439
84839W        W56455  32.556   1.973   4.954
84840W        W56456  28.493  40.028  11.005
84841W        W56457  42.241  21.121  12.466
84842W        W56458  26.521  29.434  11.574
84843W        W56459  40.475   8.652  11.356
84844W        W56460   3.962  10.835  12.080
84845W        W56461  38.744  39.891  13.870
84846W        W56462  41.538  12.663  11.204
84847W        W56463  19.270  14.415   2.093
84848W        W56464  11.728  44.480  12.439
84849W        W56465  11.575  42.752   4.990
84850W        W56466  29.425   9.676   3.342
84851W        W56467  28.650  14.782   3.318
84852W        W56468  19.583   7.232   1.825
84853W        W56469  35.843  31.965  10.771
84854W        W56470  43.688  20.670  12.127
84855W        W56471  23.099  31.820   4.963
84856W        W56472  36.123  21.152  13.483
84857W        W56473   8.318  16.156   1.652
84858W        W56474   1.650   4.021  13.823
84859W        W56475  43.305  33.801  14.310
84860W        W56476   5.393  13.355   0.106
84861W        W56477  44.989   3.515   2.662
84862W        W56478  16.190  25.293   1.055
84863W        W56479  25.889  37.385   4.154
84864W        W56480  25.267   3.937  12.075
84865W        W56481  42.961  22.726   0.334
84866W        W56482  14.408  14.628  14.910
84867W        W56483   4.199   8.396   1.684
84868W        W56484  13.106   8.661  12.494
84869W        W56485  42.810  29.487   4.676
84870W        W56486  26.828   4.709  11.200
84871W        W56487   5.120  43.783   4.582
84872W        W56488  23.042   8.389  12.487
84873W        W56489  37.056  11.724  12.885
84874W        W56490  28.592  28.573   4.645
84875W        W56491   0.477  23.304   1.741
84876W        W56492   5.221   3.691   4.644
84877W        W56493   1.872  22.487  10.632
84878W        W56494  39.279  26.491   2.277
84879W        W56495   3.301  19.597  11.146
84880W        W56496  21.996  35.070  11.062
84881W        W56497   0.470  31.117   4.593
84882W        W56498   5.370  42.054  12.443
84883W        W56499  38.470  40.853  14.299
84884W        W56500  12.780  28.118  12.972
84885W        W56501  42.776  19.786   3.236
84886W        W56502  10.274  35.139   0.503
84887W        W56503  14.164   2.257   3.703
84888W        W56504   5.763  34.390   3.796
84889W        W56505  28.663  35.600   4.453
84890W        W56506   1.618   4.533  12.052
84891W        W56507  34.994  35.424   5.259
84892W        W56508  20.058  32.611  14.388
84893W        W56509  25.064  22.337   3.639
84894W        W56510  44.361  26.447   0.480
84895W        W56511  29.698  20.527   3.149
84896W        W56512   4.221  17.573  11.673
84897W        W56513  29.524   2.712   1.799
84898W        W56514   2.854   9.026   4.493
84899W        W56515  17.088  35.397   4.228
84900W        W56516  37.009  26.413  13.939
84901W        W56517  32.427  20.702  14.645
84902W        W56518  41.097  26.652  11.673
84903W        W56519  17.062  44.337   2.813
84904W        W56520   4.683  23.168   0.308
84905W        W56521   2.173  38.931  11.524
84906W        W56522  10.347  29.406  14.885
84907W        W56523   0.668  37.497   0.624
84908W        W56524  24.510  19.920   1.846
84909W        W56525  34.921   7.839  10.386
84910W        W56526  10.756   7.891   2.446
84911W        W56527  34.346  20.968   0.411
84912W        W56528  18.701   9.169  10.770
84913W        W56529  34.981  26.464  11.554
84914W        W56530  33.528  17.647  11.999
84915W        W56531  15.588  14.499   1.687
84916W        W56532  26.575  35.911  10.487
84917W        W56533   0.053  28.056   3.173
84918W        W56534  38.069  29.872  11.632
84919W        W56535  22.201  22.915  13.300
84920W        W56536  15.349  29.163  13.535
84921W        W56537   3.293  38.928   0.044
84922W        W56538  35.851  20.280   0.932
84923W        W56539  13.243   9.325  13.578
84924W        W56540  22.009  43.817   3.118
84925W        W56541  31.433   9.740   4.225
84926W        W56542  25.696   3.267  14.516
84927W        W56543  13.866  11.172  12.063
84928W        W56544  40.314   4.318  11.250
84929W        W56545   8.966  24.982  14.926
84930W        W56546  41.587  38.406   2.669
84931W        W56547  34.690  42.724  13.690
84932W        W56548  39.320   9.279  12.600
84933W        W56549   0.473  16.316   1.715
84934W        W56550   8.187  25.609   1.889
84935W        W56551   7.788   1.227  14.009
84936W        W56552  17.740  10.159  14.751
84937W        W56553   3.962  24.180   0.691
84938W        W56554  16.356  14.766   2.124
84939W        W56555   9.784  32.488  13.795
84940W        W56556  39.600  22.791   3.329
84941W        W56557  26.167  43.286  10.521
84942W        W56558  26.237   9.279  13.064
84943W        W56559   8.160   1.229   3.297
84944W        W56560  43.252  10.364   0.811
84945W        W56561  41.049  30.487  14.956
84946W        W56562   9.245  33.115  11.525
84947W        W56563  12.680   3.732   0.655
84948W        W56564  40.016  20.276   1.274
84949W        W56565  44.935   4.752   4.135
84950W        W56566   0.564  39.893  12.963
84951W        W56567  36.456   2.043   1.425
84952W        W56568  40.275   6.961   3.362
84953W        W56569  38.412  30.368   2.701
84954W        W56570  40.426   4.722   1.484
84955W        W56571  27.568  33.183  13.046
84956W        W56572  30.957  40.922   1.372
84957W        W56573  19.962  38.017  11.554
84958W        W56574  27.377  34.346  13.958
84959W        W56575  17.863   8.751   4.179
84960W        W56576  34.801  19.637   2.488
84961W        W56577  33.488  33.507   4.204
84962W        W56578  35.629  39.578  11.982
84963W        W56579  29.065   3.589  14.267
84964W        W56580  33.127  17.017   2.347
84965W        W56581  26.921  33.311  11.944
84966W        W56582   3.803   0.590   4.753
84967W        W56583  20.012  10.176   0.860
84968W        W56584  41.902  31.823   3.619
84969W        W56585   3.780  37.367  12.736
84970W        W56586  10.644  12.296   3.049
84971W        W56587  11.836  25.434   4.195
84972W        W56588  23.021  20.735  10.758
84973W        W56589  32.717   7.458  13.896
84974W        W56590  40.625   1.761  14.402
84975W        W56591  11.012  16.184   1.157
84976W        W56592  13.903   2.531  13.033
84977W        W56593   8.601  17.791  14.073
84978W        W56594  24.828  19.619  12.012
84979W        W56595  17.347  38.508   2.703
84980W        W56596   0.564  28.060   1.240
84981W        W56597  40.966  11.051   3.619
84982W        W56598  16.242  28.623  11.963
84983W        W56599  28.610  28.361   4.141
84984W        W56600  32.032  17.997   1.465
84985W        W56601  12.935  31.864  11.201
84986W        W56602  31.021  36.276  13.473
84987W        W56603  29.048  44.320   2.913
84988W        W56604   4.922  12.251   4.439
84989W        W56605  43.703   3.960  14.329
84990W        W56606  25.222  32.917  12.518
84991W        W56607  35.518  18.475   4.274
84992W        W56608  30.933  38.010  14.914
84993W        W56609  19.623  44.655  12.459
84994W        W56610  24.697  14.185  10.572
84995W        W56611  18.059  44.721  12.015
84996W        W56612  19.149  10.589   2.448
84997W        W56613  40.412  28.557   4.282
84998W        W56614   2.748  26.488  11.064
84999W        W56615   0.009  25.223   2.388
85000W        W56616  33.589  34.372   3.681
85001W        W56617  44.992   6.192   0.492
85002W        W56618  37.641  14.679   2.704
85003W        W56619  14.250  36.515  13.373
85004W        W56620   6.103   3.455   3.839
85005W        W56621  33.682  20.802  14.758
85006W        W56622  34.036  30.939   0.064
85007W        W56623  33.694  25.867   0.291
85008W        W56624  22.664  42.021  14.377
85009W        W56625  17.050  14.361   3.849
85010W        W56626  27.353  39.586  14.038
85011W        W56627  11.068  40.471   2.220
85012W        W56628  15.227  13.791   2.795
85013W        W56629   8.101  11.615  12.653
85014W        W56630  43.991   9.230   0.453
85015W        W56631  39.930  19.648  11.940
85016W        W56632   4.846  28.380   2.361
85017W        W56633  29.518  43.748  14.361
85018W        W56634  15.089   2.417   2.101
85019W        W56635  40.557  18.765  11.939
85020W        W56636   9.358  39.619  12.371
85021W        W56637  39.195  31.128   0.099
85022W        W56638  10.215  10.399  14.792
85023W        W56639  29.016  18.866  10.436
85024W        W56640  38.322  25.179  14.552
85025W        W56641  37.267  23.585  12.019
85026W        W56642  37.101   1.527  14.716
85027W        W56643  30.621   6.154  13.922
85028W        W56644  13.293   3.741  11.927
85029W        W56645   2.476  35.915  11.200
85030W        W56646   8.618   9.355   0.771
85031W        W56647  16.192  20.197   1.923
85032W        W56648  12.082  37.065  14.051
85033W        W56649  33.378  42.916   4.533
85034W        W56650  38.449  22.577  13.530
85035W        W56651  43.927  17.214   1.148
85036W        W56652  42.263  37.538  10.248
85037W        W56653  15.208  20.929  12.894
85038W        W56654   1.889  28.679   2.283
85039W        W56655  20.702  19.035  13.520
85040W        W56656   4.204   2.521   0.292
85041W        W56657  29.356  30.451   0.439
85042W        W56658  20.608  27.799   1.269
85043W        W56659  41.312  25.927   1.392
85044W        W56660  12.141   3.356   1.643
85045W        W56661   4.147   7.925  12.823
85046W        W56662  17.225  43.961   5.225
85047W        W56663  20.467  10.554  12.014
85048W        W56664  44.460   7.351   2.807
85049W        W56665  12.809  16.723   2.426
85050W        W56666  11.207  33.129   0.419
85051W        W56667   4.977  18.579  11.584
85052W        W56668  32.058   5.708   3.655
85053W        W56669  43.877  25.638   2.235
85054W        W56670  38.666  24.443   4.770
85055W        W56671  29.576   4.462   1.426
85056W        W56672  17.674  41.871   0.240
85057W        W56673  26.564  36.331   3.177
85058W        W56674  28.484  10.359   0.939
85059W        W56675  42.348  31.268  10.936
85060W        W56676  34.345   8.697   1.578
85061W        W56677   5.355  17.502   2.861
85062W        W56678  24.530  40.346   3.687
85063W        W56679  30.076  12.119   2.820
85064W        W56680  28.103  43.278   4.683
85065W        W56681  21.488   6.005  13.738
85066W        W56682  24.392  20.333  13.958
85067W        W56683  16.133  42.180  10.835
85068W        W56684  16.697  44.748   2.635
85069W        W56685  11.618  19.392   4.227
85070W        W56686   6.279  37.440   0.529
85071W        W56687  12.686  39.901  11.213
85072W        W56688  35.417  44.569  11.547
85073W        W56689  16.565   2.359  14.904
85074W        W56690  14.683  39.357  13.340
85075W        W56691  26.633  43.287   1.787
85076W        W56692  36.502  44.368  12.391
85077W        W56693  30.535   0.168  12.016
85078W        W56694  20.108  18.434  13.923
85079W        W56695  37.433  43.801   2.173
85080W        W56696   0.179  21.774   0.718
85081W        W56697  38.798  35.945   0.047
85082W        W56698  32.976   3.556   2.792
85083W        W56699  26.576  16.265  10.906
85084W        W56700  36.627  22.306  11.130
85085W        W56701  17.462   4.697   4.654
85086W        W56702  37.729  17.826   2.448
85087W        W56703  33.973  36.413  13.589
85088W        W56704  10.209  11.639   0.756
85089W        W56705  36.499   4.652   4.504
85090W        W56706   7.328  19.507  12.632
85091W        W56707  15.884  10.202   5.000
85092W        W56708  33.913  21.356   2.241
85093W        W56709  35.400  31.717   0.317
85094W        W56710  17.185   0.453   3.343
85095W        W56711   8.337   4.830   0.399
85096W        W56712  18.837  17.597   3.097
85097W        W56713   4.467  14.640   0.358
85098W        W56714   3.404  26.136   2.344
85099W        W56715   8.906  17.931   4.134
85100W        W56716  25.077  10.374  11.952
85101W        W56717  29.969  15.162   0.800
85102W        W56718  14.851  15.816  11.205
85103W        W56719  44.962  18.740   1.587
85104W        W56720  13.618   4.410   0.381
85105W        W56721  32.458   3.042   0.759
85106W        W56722  36.011  25.914   3.156
85107W        W56723   4.329  23.705   5.426
85108W        W56724  24.055   6.778   1.737
85109W        W56725   2.978   1.487  11.918
85110W        W56726  24.223  35.469   2.029
85111W        W56727   9.703  22.787   2.321
85112W        W56728  23.753   0.835   0.326
85113W        W56729  41.961  42.121   0.323
85114W        W56730  40.440   2.479   0.932
85115W        W56731  35.089  44.485  12.547
85116W        W56732   9.609  29.275   3.803
85117W        W56733  31.632  31.134   2.188
85118W        W56734  32.068  22.285  12.416
85119W        W56735  42.070   1.417  13.025
85120W        W56736   5.221  12.210   2.643
85121W        W56737  18.708   6.178   4.728
85122W        W56738  22.545  34.719   0.284
85123W        W56739   6.326   9.823   2.175
85124W        W56740  32.491   5.431   1.854
85125W        W56741  37.382  36.312  13.438
85126W        W56742   7.176  14.839   2.734
85127W        W56743   7.212  12.019   0.724
85128W        W56744   1.057  13.200  11.271
85129W        W56745  16.347  12.630   4.125
85130W        W56746  20.649  23.964   4.150
85131W        W56747  24.013   3.498  13.312
85132W        W56748   8.685   0.341   4.165
85133W        W56749  25.393  44.616   0.810
85134W        W56750  22.697  35.824   4.841
85135W        W56751  17.004  38.476   0.467
85136W        W56752  20.613  13.412   3.082
85137W        W56753  16.602  38.814   0.360
85138W        W56754  10.157  25.518   0.427
85139W        W56755  23.692  35.551  11.675
85140W        W56756  11.705  37.012   4.994
85141W        W56757   5.207  19.315  10.977
85142W        W56758  10.866  16.575  13.959
85143W        W56759  25.123  24.249   3.313
85144W        W56760  35.825  25.399  13.463
85145W        W56761   7.701  19.695  12.959
85146W        W56762  38.597   0.824  14.448
85147W        W56763  25.196   0.066  10.540
85148W        W56764  23.700  16.403   3.648
85149W        W56765   1.913  25.180   4.136
85150W        W56766  42.939  17.543  11.083
85151W        W56767  26.018   2.547   3.377
85152W        W56768  18.210  33.333  14.507
85153W        W56769   7.190   0.028  13.357
85154W        W56770  41.363  26.012  14.971
85155W        W56771  39.081  26.710  11.662
85156W        W56772  30.982  22.657   2.178
85157W        W56773  43.020  35.823  14.914
85158W        W56774  31.014  36.945   3.388
85159W        W56775   5.308   9.905   1.779
85160W        W56776   3.564  25.089  13.582
85161W        W56777  16.993  44.438  11.931
85162W        W56778  40.976  15.256  10.705
85163W        W56779  10.820  37.386  14.349
85164W        W56780  36.051  44.859  12.076
85165W        W56781   2.347  42.872   5.094
85166W        W56782  34.580  43.715  11.133
85167W        W56783  12.734  34.118   4.734
85168W        W56784   3.124  35.510   1.733
85169W        W56785  15.782   7.485   1.865
85170W        W56786  41.807   9.419   3.666
85171W        W56787   3.395   9.221  11.174
85172W        W56788   7.228  31.376   4.078
85173W        W56789   7.880   7.929   4.211
85174W        W56790  26.151  20.520   2.175
85175W        W56791  44.998  36.075  11.515
85176W        W56792   8.619  12.169   2.256
85177W        W56793   4.203  17.086  12.911
85178W        W56794  37.665  14.259  12.401
85179W        W56795  44.655  21.678  13.752
85180W        W56796  21.689  27.192  14.315
85181W        W56797  21.530  30.722  13.125
85182W        W56798  14.104  24.929  10.858
85183W        W56799  25.280   8.142  14.067
85184W        W56800  24.044  42.403  12.057
85185W        W56801   5.832   2.017   3.116
85186W        W56802  14.222  24.237  12.130
85187W        W56803  30.037  35.637   3.247
85188W        W56804  30.789  41.796   2.284
85189W        W56805  31.412   0.239  12.622
85190W        W56806   0.315  29.765  13.519
85191W        W56807   6.221  28.183  10.282
85192W        W56808   4.156  18.584   4.142
85193W        W56809   7.320   9.782  13.412
85194W        W56810  11.279  44.888   3.350
85195W        W56811  39.012  10.320  12.587
85196W        W56812  16.805  24.386   1.450
85197W        W56813  10.738  43.288  13.945
85198W        W56814  20.629   4.302   3.860
85199W        W56815   3.838  44.309  13.953
85200W        W56816  14.578  17.782   3.130
85201W        W56817  40.042  26.418   1.900
85202W        W56818  14.314  44.524  13.034
85203W        W56819   5.419  26.327  11.347
85204W        W56820  10.614   1.969  13.407
85205W        W56821  14.342  10.820   4.118
85206W        W56822   1.941  34.866  11.875
85207W        W56823  29.177  19.791  13.883
85208W        W56824   0.094  43.016  10.326
85209W        W56825  24.624   4.932  11.535
85210W        W56826  31.257  34.094   3.690
85211W        W56827  43.901  30.800   3.827
85212W        W56828  14.318  39.118  13.002
85213W        W56829  30.991   5.914   4.790
85214W        W56830  16.584  40.552   3.663
85215W        W56831   2.946  11.281  11.139
85216W        W56832  37.519  22.167  14.467
85217W        W56833  29.450  29.002  12.875
85218W        W56834   3.144  12.188   1.659
85219W        W56835  21.093  37.077  13.983
85220W        W56836  27.123  38.895  11.577
85221W        W56837  12.331  41.861   1.481
85222W        W56838  42.755  28.698  13.733
85223W        W56839  33.614  43.931   1.863
85224W        W56840  16.985   3.141  10.175
85225W        W56841  39.746  10.913   1.907
85226W        W56842  23.209  11.749   3.325
85227W        W56843   8.093  22.612  11.649
85228W        W56844  36.628   1.798   1.902
85229W        W56845  29.601  39.401  14.903
85230W        W56846  35.025  35.392  11.580
85231W        W56847  32.193  41.020  12.004
85232W        W56848  23.239  15.628   3.696
85233W        W56849   4.365  22.853  12.871
85234W        W56850  34.168   6.411   1.442
85235W        W56851   1.446  10.590   0.111
85236W        W56852   3.052  41.398  11.181
85237W        W56853   6.129  34.568  11.489
85238W        W56854   9.868  25.024  10.549
85239W        W56855  26.511  16.293  14.892
85240W        W56856  30.536   1.989  11.898
85241W        W56857   3.436   7.303   0.875
85242W        W56858  42.290  24.549  12.428
85243W        W56859  22.773  26.904  11.299
85244W        W56860  32.455  44.996   1.105
85245W        W56861   6.921   6.173   3.703
85246W        W56862  40.597  29.249  13.123
85247W        W56863  40.988  14.698   0.910
85248W        W56864  33.082   3.162   4.176
85249W        W56865  22.341  40.886   1.005
85250W        W56866  36.495   5.412  13.574
85251W        W56867  19.491  13.958   2.839
85252W        W56868  26.574  33.282   4.551
85253W        W56869  31.502  39.056   3.154
85254W        W56870  39.559  26.076  14.543
85255W        W56871   3.847  23.828  14.236
85256W        W56872  38.732  15.232  12.061
85257W        W56873  15.312  37.235   1.804
85258W        W56874  44.758   7.710   0.362
85259W        W56875  15.566  23.535   4.643
85260W        W56876  31.465  24.199   3.464
85261W        W56877  31.997  36.572   1.408
85262W        W56878  15.101  19.560   0.755
85263W        W56879  33.126  31.875  14.894
85264W        W56880  19.153  12.761  10.680
85265W        W56881  24.642  23.746   2.488
85266W        W56882  37.422  13.821   5.567
85267W        W56883  13.349  35.311   4.580
85268W        W56884  21.802  16.837   1.684
85269W        W56885  13.607  14.270  13.291
85270W        W56886   5.794  21.231  14.334
85271W        W56887  23.826  21.234  11.749
85272W        W56888  42.915  35.219   9.613
85273W        W56889  29.649  19.614  13.796
85274W        W56890  26.192   8.285   4.183
85275W        W56891  12.531  21.187   0.281
85276W        W56892  36.044  26.447  13.489
85277W        W56893   9.685  10.328  12.690
85278W        W56894  29.290  38.354   3.808
85279W        W56895   2.872  20.881  14.878
85280W        W56896  41.271  17.273  14.937
85281W        W56897  11.674  23.716  14.424
85282W        W56898  30.622  35.082  14.919
85283W        W56899  17.291  16.911   5.470
85284W        W56900  14.323  40.761  14.327
85285W        W56901  14.580  13.678  12.656
85286W        W56902  12.738  10.646   4.056
85287W        W56903  20.663  14.051  11.370
85288W        W56904  22.550  27.760   1.922
85289W        W56905  39.514  18.102   2.712
85290W        W56906  27.950  38.425   1.665
85291W        W56907   3.964   8.429   2.787
85292W        W56908  26.488  11.330  11.478
85293W        W56909  41.312  35.849   1.682
85294W        W56910   1.378  25.520  14.610
85295W        W56911  25.205  16.299   1.943
85296W        W56912   1.829   0.357  13.151
85297W        W56913  40.523  12.835  11.098
85298W        W56914  19.298  17.747  14.508
85299W        W56915  10.869  16.589   0.829
85300W        W56916  22.649  14.925  13.887
85301W        W56917   6.308  15.829   0.942
85302W        W56918   5.903  40.284   4.103
85303W        W56919  10.846   1.730  11.608
85304W        W56920   4.226  17.577  13.014
85305W        W56921  14.647  21.727  13.766
85306W        W56922   0.439   1.983   0.754
85307W        W56923  14.942   4.562   0.838
85308W        W56924  28.621  17.087  12.521
85309W        W56925  32.875  43.788  14.950
85310W        W56926  23.243  39.504   0.159
85311W        W56927  40.690  12.754   4.831
85312W        W56928  42.865  27.616   1.778
85313W        W56929  37.967   2.810   0.016
85314W        W56930  24.209  30.852  12.176
85315W        W56931  32.085  36.595  14.117
85316W        W56932  13.737  33.882   2.348
85317W        W56933   0.455  35.806   1.420
85318W        W56934  17.750  14.797  11.041
85319W        W56935  27.230  14.219   3.818
85320W        W56936  37.102  13.716  11.589
85321W        W56937  24.621   1.041  12.055
85322W        W56938  41.684  10.474  11.147
85323W        W56939   0.529  26.044   0.815
85324W        W56940  11.600  17.470   1.731
85325W        W56941  17.774  39.800  11.654
85326W        W56942  26.405  35.904   2.361
85327W        W56943  36.348  10.506  12.074
85328W        W56944  40.141  31.540  10.937
85329W        W56945   5.161   5.273   3.320
85330W        W56946  30.052  33.451   5.157
85331W        W56947  27.586   0.592   3.758
85332W        W56948  18.300  18.063   3.242
85333W        W56949  26.662  14.164   2.708
85334W        W56950   3.700   9.010   4.893
85335W        W56951  16.362  21.585  11.464
85336W        W56952   5.237  15.968   2.857
85337W        W56953  44.332  25.415   4.561
85338W        W56954  36.065  32.105   0.951
85339W        W56955  22.309  12.990  12.069
85340W        W56956  43.084  35.850  13.558
85341W        W56957   0.883   6.112   0.398
85342W        W56958  16.705   4.270   4.615
85343W        W56959  13.666  23.315  14.687
85344W        W56960  40.864   6.240   2.244
85345W        W56961  44.893  18.709  10.367
85346W        W56962   7.640  10.553   2.699
85347W        W56963  42.903   1.397   1.152
85348W        W56964  10.484   1.709  12.970
85349W        W56965   8.811  37.316  11.616
85350W        W56966   1.180  34.162  13.554
85351W        W56967  17.613  34.008  10.309
85352W        W56968   9.104  18.775  13.439
85353W        W56969  36.007  30.017   0.140
85354W        W56970  14.008   9.964  11.588
85355W        W56971  27.725  30.410   3.165
85356W        W56972  40.059   1.477  12.076
85357W        W56973  44.446  10.692  11.593
85358W        W56974  13.458  19.877  14.369
85359W        W56975  21.017  37.005   3.223
85360W        W56976  13.326   2.803   0.077
85361W        W56977   8.948  24.691   2.738
85362W        W56978  26.505  27.496   3.697
85363W        W56979  33.505  34.551   0.686
85364W        W56980  12.574  28.017  14.496
85365W        W56981  31.576  38.370  13.091
85366W        W56982  14.827   1.329  12.336
85367W        W56983  25.067  34.934  12.388
85368W        W56984   5.337  33.921  13.524
85369W        W56985  11.733  32.358  12.027
85370W        W56986   9.869  27.043   3.982
85371W        W56987   0.023  27.227  12.270
85372W        W56988  28.883  26.116  11.284
85373W        W56989  23.427  12.239   3.262
85374W        W56990  24.404  29.886   4.589
85375W        W56991   3.660   3.416  12.907
85376W        W56992   8.187   6.598   2.119
85377W        W56993  32.593  10.724  13.542
85378W        W56994   3.716  36.459  13.222
85379W        W56995  15.580  24.875  11.152
85380W        W56996  16.498  14.083  13.599
85381W        W56997   1.469  39.886   2.229
85382W        W56998  28.835   1.869  13.912
85383W        W56999  18.086  14.174   3.170
85384W        W57000  10.111  20.367  13.457
85385W        W57001   5.402   0.800  10.054
85386W        W57002  10.101  22.375   1.936
85387W        W57003  39.948  14.108  11.366
85388W        W57004  15.599  11.344   3.037
85389W        W57005  37.348  19.852  13.412
85390W        W57006  31.928  32.908  14.526
85391W        W57007   0.069   3.995  13.093
85392W        W57008  39.376  39.533   0.830
85393W        W57009  15.705  25.947  13.134
85394W        W57010  29.455  25.956  13.054
85395W        W57011  31.044  11.902  13.800
85396W        W57012   2.939   6.965   4.180
85397W        W57013  29.525  41.830  14.312
85398W        W57014   5.948  34.022  14.295
85399W        W57015   2.297  34.032   1.434
85400W        W57016  24.596  24.020  10.631
85401W        W57017  34.656  44.776  13.313
85402W        W57018   0.505  44.401   3.416
85403W        W57019  33.179  24.337  12.808
85404W        W57020   6.931  41.856  14.416
85405W        W57021  19.701  30.936  12.531
85406W        W57022  16.763  30.727  14.426
85407W        W57023  35.553  21.051  10.800
85408W        W57024  35.831   6.833  11.045
85409W        W57025   9.116   2.762  13.521
85410W        W57026  38.424   2.365   1.261
85411W        W57027  41.934  15.721   4.636
85412W        W57028   8.014  13.070   4.725
85413W        W57029  27.054  33.457   4.355
85414W        W57030  10.453  26.909  13.310
85415W        W57031  26.580  44.325   3.988
85416W        W57032  30.785  43.198  14.973
85417W        W57033  28.028  30.176  14.683
85418W        W57034  21.638   5.601   1.913
85419W        W57035  26.057  26.037  11.953
85420W        W57036  30.586  13.177   4.824
85421W        W57037  42.849  40.307   0.960
85422W        W57038  35.035  23.217   4.504
85423W        W57039  28.161  42.492  14.741
85424W        W57040  18.012  35.628   3.745
85425W        W57041  43.903  13.384  11.493
85426W        W57042  17.814   1.743   0.013
85427W        W57043  27.352  29.513  13.439
85428W        W57044  22.979   5.432   1.803
85429W        W57045  35.178  34.483   1.533
85430W        W57046  41.096  27.547  11.545
85431W        W57047  21.185  38.552  11.428
85432W        W57048   1.884   8.001   1.651
85433W        W57049   1.261  23.679   4.091
85434W        W57050   3.666   8.597   3.608
85435W        W57051  26.484  19.416  11.872
85436W        W57052  10.303  28.144   3.578
85437W        W57053  20.159  22.816   0.405
85438W        W57054  36.356  38.420  12.868
85439W        W57055  19.304   3.921  11.072
85440W        W57056  39.824  42.460   1.064
85441W        W57057  43.064  43.048   4.219
85442W        W57058   3.353  10.101   1.435
85443W        W57059  41.054   6.548   3.205
85444W        W57060  34.470  20.870   4.286
85445W        W57061   8.667  34.571   4.389
85446W        W57062   6.179  23.193  13.306
85447W        W57063  42.498  43.451   0.376
85448W        W57064  17.836  38.481  12.644
85449W        W57065  31.922   0.041   1.112
85450W        W57066  11.279  37.650  14.421
85451W        W57067  31.306  22.040  12.409
85452W        W57068  36.386  11.689   1.177
85453W        W57069  19.468   0.829   0.764
85454W        W57070  42.806  38.755  11.611
85455W        W57071  30.426   5.643  11.089
85456W        W57072  41.106   1.354  14.010
85457W        W57073  24.621  31.676   1.886
85458W        W57074  34.451  39.608  11.195
85459W        W57075  29.232  11.189   1.900
85460W        W57076  38.521  29.842   2.634
85461W        W57077  12.350  44.783   2.646
85462W        W57078   7.885  38.074   0.946
85463W        W57079  40.004  10.992   0.720
85464W        W57080  22.737  38.325   3.588
85465W        W57081  30.212   0.267   4.539
85466W        W57082  11.588   2.768   1.819
85467W        W57083   8.664  19.163   3.625
85468W        W57084  22.436  36.048   0.837
85469W        W57085  38.105  28.499   0.953
85470W        W57086  11.050  33.379  13.306
85471W        W57087   4.752   1.286   0.378
85472W        W57088  30.350   9.612  14.839
85473W        W57089  43.442  27.879  13.305
85474W        W57090   7.578  14.020   1.293
85475W        W57091   0.963   6.723   2.214
85476W        W57092  24.638   6.825  14.975
85477W        W57093  40.006  38.004  12.345
85478W        W57094  22.105  26.634   2.272
85479W        W57095  22.805   3.308  10.454
85480W        W57096  22.798   6.209   1.440
85481W        W57097  20.613   5.347   0.291
85482W        W57098   4.637   5.970  10.313
85483W        W57099   5.269  34.021  14.034
85484W        W57100  27.173  29.773   1.275
85485W        W57101  27.159  35.566  13.028
85486W        W57102  31.960  36.087  12.105
85487W        W57103  15.094  42.948  14.731
85488W        W57104  30.508  42.531  12.309
85489W        W57105  12.081  18.986   4.435
85490W        W57106   8.822  15.081   2.383
85491W        W57107  36.903  18.728  11.976
85492W        W57108  12.166  22.827   3.157
85493W        W57109  28.978  15.760  12.451
85494W        W57110  12.280  12.867   0.547
85495W        W57111  35.971  21.530  10.719
85496W        W57112  18.178   7.760  12.454
85497W        W57113  19.715  29.137   0.565
85498W        W57114   4.728  13.865  11.474
85499W        W57115   5.835   8.170   2.994
85500W        W57116  17.258  33.750  10.025
85501W        W57117   6.791  18.552   1.186
85502W        W57118  13.791   6.649   4.750
85503W        W57119   7.895  43.251   1.879
85504W        W57120  21.088  43.740   3.150
85505W        W57121  24.213  23.145  10.829
85506W        W57122  38.397   2.942   4.841
85507W        W57123   4.460  19.744  11.986
85508W        W57124  10.600  14.625  13.902
85509W        W57125   5.638   7.757   2.643
85510W        W57126  32.194  23.809   3.378
85511W        W57127  39.545  26.266  11.846
85512W        W57128  30.547   3.337  11.227
85513W        W57129   0.748  22.162  14.934
85514W        W57130  28.712   7.623   4.155
85515W        W57131  39.314  38.545  10.385
85516W        W57132   9.913  14.903   0.997
85517W        W57133  27.011   6.307  14.085
85518W        W57134  15.479  22.816  10.653
85519W        W57135   0.963  27.502   4.053
85520W        W57136  33.631  11.752   1.856
85521W        W57137  39.724   4.802  12.075
85522W        W57138  31.943  24.107   2.616
85523W        W57139  34.171   1.159   2.641
85524W        W57140  28.703  35.391   0.554
85525W        W57141   1.076  26.148   4.073
85526W        W57142   0.078  23.808   3.411
85527W        W57143  29.578  39.256   3.741
85528W        W57144  35.439  34.176  11.274
85529W        W57145  32.489  33.658  13.645
85530W        W57146  30.605  28.060   9.941
85531W        W57147  13.707   5.949  12.679
85532W        W57148  24.615  38.566   2.269
85533W        W57149   5.605  38.926   4.282
85534W        W57150  11.325  17.217  14.247
85535W        W57151   5.191  25.191  11.480
85536W        W57152  31.883  10.379  10.409
85537W        W57153   7.643   5.014  10.219
85538W        W57154  25.634   0.424  12.544
85539W        W57155  37.836  24.464   3.650
85540W        W57156  24.772  27.260   4.158
85541W        W57157   0.417  11.496   3.094
85542W        W57158   0.690  37.046   1.248
85543W        W57159  29.366  14.617  12.823
85544W        W57160   9.688   7.637  13.803
85545W        W57161  26.681   2.904   4.190
85546W        W57162  34.744  27.573  12.073
85547W        W57163   0.293   9.822  14.586
85548W        W57164  44.147  39.650   2.431
85549W        W57165   9.375  43.154  12.085
85550W        W57166  12.525  38.833   4.967
85551W        W57167  44.779  24.101   3.732
85552W        W57168  24.090  16.315  13.843
85553W        W57169  44.170  38.148  14.888
85554W        W57170  16.671  40.959   1.497
85555W        W57171  39.405  39.981   1.769
85556W        W57172  32.546  29.899   1.289
85557W        W57173   1.226  34.790   1.117
85558W        W57174  36.143  27.654   3.529
85559W        W57175  35.033  38.882  13.493
85560W        W57176  36.329   9.892   4.651
85561W        W57177  37.455  37.310  14.376
85562W        W57178   0.721   4.733   0.306
85563W        W57179  10.315  24.130  11.978
85564W        W57180  34.561  30.752  14.519
85565W        W57181  37.036  37.012  14.473
85566W        W57182  35.550  37.435   1.822
85567W        W57183  19.969  35.224  13.601
85568W        W57184  32.598  39.750  11.094
85569W        W57185  22.369  28.832   2.241
85570W        W57186  41.520   0.342  12.477
85571W        W57187  29.981  43.613   0.672
85572W        W57188   2.733  24.054   1.654
85573W        W57189  44.835  17.599   1.671
85574W        W57190   9.755  19.306   4.940
85575W        W57191  25.340  14.541  10.199
85576W        W57192   7.163  38.466  11.630
85577W        W57193  41.136  25.673   5.098
85578W        W57194  42.821  17.873   4.093
85579W        W57195  28.686  29.841  10.357
85580W        W57196   1.828  31.364  12.349
85581W        W57197   4.980  26.971  14.825
85582W        W57198  26.088  16.648  14.889
85583W        W57199  33.759  26.955   4.342
85584W        W57200  16.183  43.932   5.370
85585W        W57201   9.933  26.043  11.285
85586W        W57202   1.231  31.154  13.039
85587W        W57203  43.517  25.510   1.810
85588W        W57204  22.605  16.291  12.378
85589W        W57205  38.601  34.454  14.483
85590W        W57206   6.667   5.837  10.687
85591W        W57207  38.918  38.541   1.337
85592W        W57208  19.642  12.801   2.420
85593W        W57209  29.204  28.513  13.001
85594W        W57210   1.743  41.923  12.034
85595W        W57211  39.354   8.195  13.566
85596W        W57212   1.769  12.486   3.044
85597W        W57213  15.248  18.110   1.316
85598W        W57214  44.022  14.676   2.764
85599W        W57215  25.297   5.300  12.075
85600W        W57216   2.428   7.924   2.240
85601W        W57217  43.639   8.768  10.455
85602W        W57218  27.469  21.565   4.757
85603W        W57219  43.406  34.456   0.804
85604W        W57220  36.035  11.158   5.148
85605W        W57221  21.625  28.348  11.161
85606W        W57222  18.255  34.946  10.610
85607W        W57223  21.772  21.217   3.664
85608W        W57224  43.360   9.820  12.500
85609W        W57225   3.310   8.133  14.456
85610W        W57226  41.632  24.749   1.646
85611W        W57227  33.111  26.168   1.206
85612W        W57228  10.703   5.437   4.364
85613W        W57229   3.781  25.135  13.070
85614W        W57230  40.087  41.095  10.729
85615W        W57231  26.694   0.772  12.852
85616W        W57232  13.203  30.846   0.379
85617W        W57233  44.680   4.616  13.253
85618W        W57234  32.404  41.374  13.453
85619W        W57235  39.297   8.327  12.545
85620W        W57236  17.209  39.525  10.537
85621W        W57237  32.026  21.340  10.851
85622W        W57238  35.116   9.887  14.874
85623W        W57239  24.491  39.986   1.291
85624W        W57240   8.375  14.416  13.145
85625W        W57241   3.767  10.125   0.352
85626W        W57242  33.334  42.030  13.971
85627W        W57243   2.486  24.041  12.968
85628W        W57244  24.317   7.381   3.385
85629W        W57245  32.099  34.826   1.217
85630W        W57246   4.251  28.549  12.985
85631W        W57247  36.777   2.368  11.466
85632W        W57248  19.653   4.747   3.160
85633W        W57249  36.390  12.410  14.494
85634W        W57250  22.622   5.682  12.028
85635W        W57251  13.628  18.015   2.722
85636W        W57252  18.885   8.035   3.639
85637W        W57253  34.157  19.680  10.781
85638W        W57254  16.063  19.256   9.926
85639W        W57255  16.816  19.093   0.770
85640W        W57256  41.074  40.740   4.613
85641W        W57257  26.855  42.570  12.878
85642W        W57258  13.137   3.637  10.964
85643W        W57259  17.667  21.187  14.004
85644W        W57260  18.764  29.927   2.225
85645W        W57261  21.524  23.721   1.160
85646W        W57262  11.163  29.625  14.616
85647W        W57263   3.882   4.945  14.838
85648W        W57264  21.023   1.844   0.845
85649W        W57265  27.857  12.750  12.071
85650W        W57266  21.718   6.899  13.625
85651W        W57267  24.750  39.332  12.506
85652W        W57268   3.757  30.425  11.213
85653W        W57269  10.400  11.139   2.612
85654W        W57270  19.179  37.481   4.230
85655W        W57271  16.128  43.797   4.881
85656W        W57272  10.658  22.438   3.447
85657W        W57273   3.909  11.788  10.655
85658W        W57274  37.478  38.132   0.696
85659W        W57275  36.498  21.751  14.044
85660W        W57276   8.914  16.291   2.819
85661W        W57277  39.611  21.451  13.936
85662W        W57278  32.667  44.536   4.978
85663W        W57279  42.777  39.972  12.066
85664W        W57280  14.628   3.211  11.578
85665W        W57281  32.900  11.118   4.124
85666W        W57282  29.147  40.923   4.642
85667W        W57283  35.839  12.256   1.915
85668W        W57284   3.964  24.362   1.196
85669W        W57285  25.045   1.705  13.122
85670W        W57286  23.248  22.745   1.037
85671W        W57287  35.112  25.626  12.440
85672W        W57288  44.200  43.896  13.631
85673W        W57289  17.718  11.633  12.201
85674W        W57290  15.064  18.114   4.084
85675W        W57291  10.338   1.983   4.232
85676W        W57292  32.138  38.429   5.020
85677W        W57293  14.502  14.448   4.127
85678W        W57294  16.557   5.857  10.535
85679W        W57295  11.094  34.875   3.844
85680W        W57296  16.003  33.493   3.460
85681W        W57297   9.995  25.156  11.594
85682W        W57298   7.670  40.789  13.425
85683W        W57299  44.195  31.538   2.754
85684W        W57300   4.910  42.647   2.840
85685W        W57301  20.294  43.928   3.003
85686W        W57302  30.543  32.767   3.623
85687W        W57303  44.690   8.864   1.409
85688W        W57304  35.902   1.222   1.104
85689W        W57305  18.690   0.084  10.595
85690W        W57306  41.847  31.019  13.579
85691W        W57307  12.211   6.385  11.520
85692W        W57308  33.414  44.728   3.444
85693W        W57309  12.879  17.615  12.499
85694W        W57310  17.077  34.087   0.210
85695W        W57311  10.295  39.433  13.836
85696W        W57312  32.389   4.743  14.503
85697W        W57313  13.789  41.275   2.096
85698W        W57314  23.525  11.252  14.648
85699W        W57315  41.278  31.865  10.518
85700W        W57316   0.198  38.314   0.405
85701W        W57317  40.141  42.778   2.317
85702W        W57318  43.596  35.952  13.510
85703W        W57319  33.179  35.880   3.670
85704W        W57320  21.903  20.697  13.933
85705W        W57321  13.201  14.612   1.737
85706W        W57322  25.035  34.861  10.673
85707W        W57323   7.597  34.141   0.789
85708W        W57324  19.013  38.908  11.168
85709W        W57325  31.777  15.745  11.323
85710W        W57326  13.564  12.861  11.118
85711W        W57327  30.537  11.712  14.512
85712W        W57328  33.141  12.833   3.775
85713W        W57329   3.453   7.325  13.340
85714W        W57330  37.653  25.361  14.020
85715W        W57331   5.996  14.822   0.803
85716W        W57332  21.163  27.625  10.672
85717W        W57333  11.201  20.174   4.092
85718W        W57334   4.242   0.769  14.284
85719W        W57335  41.358  13.623  11.679
85720W        W57336  41.123  26.437  13.046
85721W        W57337   4.344  38.406  10.745
85722W        W57338   0.290  36.471   2.215
85723W        W57339  11.750  21.159   2.755
85724W        W57340  24.918  37.858  10.609
85725W        W57341  15.676  23.693   2.079
85726W        W57342  35.319  34.163   0.258
85727W        W57343  42.117  36.479   2.942
85728W        W57344  12.549  24.812   4.098
85729W        W57345  42.277  33.576   1.845
85730W        W57346  21.673  27.097  13.283
85731W        W57347  33.522   2.796   1.912
85732W        W57348   1.284  23.112  10.189
85733W        W57349   3.914   7.166  10.775
85734W        W57350  27.534  41.899   2.858
85735W        W57351   1.642  34.684   0.835
85736W        W57352  25.774  15.754   1.190
85737W        W57353   9.855  11.717  12.836
85738W        W57354  38.700  39.846   4.961
85739W        W57355  25.897  12.826  13.004
85740W        W57356  26.196  19.766  12.107
85741W        W57357   5.863   8.646   2.784
85742W        W57358   2.249  26.768   1.996
85743W        W57359  25.185  30.136  13.980
85744W        W57360  43.753   1.040  11.557
85745W        W57361  41.073  28.153  12.785
85746W        W57362   4.308   6.830   4.332
85747W        W57363  37.115  32.017   2.292
85748W        W57364  13.482  27.659  12.622
85749W        W57365  33.503  24.429   2.427
85750W        W57366  40.917  34.392   3.172
85751W        W57367  41.547  27.947   4.234
85752W        W57368   7.559  43.465   2.230
85753W        W57369  36.017  23.340   1.496
85754W        W57370  30.705  27.886   3.544
85755W        W57371  31.128  37.272  14.340
85756W        W57372  41.583  13.625  12.533
85757W        W57373   4.718  17.529   2.270
85758W        W57374  20.170  22.288  12.061
85759W        W57375   3.665  10.399  12.046
85760W        W57376  27.535  18.858   3.907
85761W        W57377   2.959  22.661   1.407
85762W        W57378   7.433  41.996   0.759
85763W        W57379  23.165   5.463  10.727
85764W        W57380  29.370  39.681   2.825
85765W        W57381  20.638   8.140  10.781
85766W        W57382  22.317  38.260   4.319
85767W        W57383  35.146   2.644   2.795
85768W        W57384  29.603   3.133   0.820
85769W        W57385  13.494   8.330  11.133
85770W        W57386   6.913  32.189   0.456
85771W        W57387  33.515  12.679   4.861
85772W        W57388  24.745  14.889  14.855
85773W        W57389  41.086  39.368   1.912
85774W        W57390   3.183   5.148   3.404
85775W        W57391  36.852  24.873   3.648
85776W        W57392  16.660  32.924   4.606
85777W        W57393  40.063  18.510  12.596
85778W        W57394   2.862  13.848   4.639
85779W        W57395  16.486  30.521   0.446
85780W        W57396   2.770  32.103  11.400
85781W        W57397  41.489  37.000   0.291
85782W        W57398  32.414  32.452  12.153
85783W        W57399  26.457   4.673   3.301
85784W        W57400  14.089  24.707  12.410
85785W        W57401  30.589  30.431  13.965
85786W        W57402   4.329   1.495  13.386
85787W        W57403  37.412  35.598   4.881
85788W        W57404  15.217  34.392  10.941
85789W        W57405  14.521   9.299  14.313
85790W        W57406  34.761  39.289   0.850
85791W        W57407  21.151   7.438   0.941
85792W        W57408  23.797  17.760   0.882
85793W        W57409   6.438   4.981  11.779
85794W        W57410  39.790  23.742   3.284
85795W        W57411  13.498  42.735   5.054
85796W        W57412  30.972   5.000   4.543
85797W        W57413  29.323  40.241  13.019
85798W        W57414  37.011  38.351   2.939
85799W        W57415  22.313  38.216   2.363
85800W        W57416  32.005  14.897   3.604
85801W        W57417  42.410   6.034   0.287
85802W        W57418  14.467  32.451   4.660
85803W        W57419   3.997  16.988  14.432
85804W        W57420  29.439   5.982  11.270
85805W        W57421  34.030  41.855   1.794
85806W        W57422  43.184  33.536   5.274
85807W        W57423  30.784  18.255  11.452
85808W        W57424  34.684  20.530   4.636
85809W        W57425  18.298   3.106   3.253
85810W        W57426   6.324  39.428   3.831
85811W        W57427  35.472   0.502   4.234
85812W        W57428  41.562   4.334  13.762
85813W        W57429  25.331  29.682   1.509
85814W        W57430  14.504   6.813   4.112
85815W        W57431  12.114  42.514   1.878
85816W        W57432  32.030   8.891  14.317
85817W        W57433  32.073  22.302   3.870
85818W        W57434  35.527  21.869   0.257
85819W        W57435  34.705  18.097   0.858
85820W        W57436   1.464  33.477  11.964
85821W        W57437   9.327   9.809  10.654
85822W        W57438   7.278   9.659  10.507
85823W        W57439  43.213  39.960  13.328
85824W        W57440   6.225  36.848   3.803
85825W        W57441  23.978  11.851   1.852
85826W        W57442  31.435  13.167   1.247
85827W        W57443  32.604  42.783  12.037
85828W        W57444   0.986   8.086  12.409
85829W        W57445  17.281   3.190   2.753
85830W        W57446  17.728  21.803  14.360
85831W        W57447   7.176  34.839  11.794
85832W        W57448  23.035   7.348  10.282
85833W        W57449  32.647   0.365   1.400
85834W        W57450   5.274   6.228   1.381
85835W        W57451  43.247  44.868   2.803
85836W        W57452  24.786  27.936  13.377
85837W        W57453  20.508  31.007  13.591
85838W        W57454  44.901  37.605   1.778
85839W        W57455  15.169  31.086  11.480
85840W        W57456  28.969  35.488   4.057
85841W        W57457  26.694  34.697   1.605
85842W        W57458  10.213  32.652  10.693
85843W        W57459  13.927  42.182  14.787
85844W        W57460  16.607   9.696  13.867
85845W        W57461  27.591  13.204   4.548
85846W        W57462   8.627   3.229  12.010
85847W        W57463   3.274  18.682  11.117
85848W        W57464  18.086   4.718  14.957
85849W        W57465  41.537  44.009   0.757
85850W        W57466  39.938   3.522   3.354
85851W        W57467  40.225  37.110   3.206
85852W        W57468  10.318   6.774  10.671
85853W        W57469  22.677  38.299   2.716
85854W        W57470  13.469  32.652  11.808
85855W        W57471   1.770  18.247  13.066
85856W        W57472  32.148  22.147   1.885
85857W        W57473  23.239  15.120   3.728
85858W        W57474  29.035  25.153   3.147
85859W        W57475  36.829  40.787  13.865
85860W        W57476   8.359  36.673   0.246
85861W        W57477  33.592  24.227  12.454
85862W        W57478  35.015  28.968  11.416
85863W        W57479   3.646  44.321  13.017
85864W        W57480  25.529   1.501   1.420
85865W        W57481  10.367  30.764   5.129
85866W        W57482  26.456  25.924  13.890
85867W        W57483  35.635   7.274   4.082
85868W        W57484  15.506  14.549   0.827
85869W        W57485   9.244   0.279  11.964
85870W        W57486   0.447  20.912   1.810
85871W        W57487   7.263  32.094  10.207
85872W        W57488  30.640  33.602  12.528
85873W        W57489  16.819  17.790  11.155
85874W        W57490  20.804  14.274   3.642
85875W        W57491  39.038   3.995   4.007
85876W        W57492   9.607  37.408  11.033
85877W        W57493  18.261  36.232   4.218
85878W        W57494  20.350   9.876   2.248
85879W        W57495  28.967  14.318   4.069
85880W        W57496  11.091  19.885   0.236
85881W        W57497  14.802  33.781  14.894
85882W        W57498  21.679  43.145  11.026
85883W        W57499  43.710  44.727  11.306
85884W        W57500  21.943  25.969  13.545
85885W        W57501  27.379  10.290  11.181
85886W        W57502  12.461  36.915   1.854
85887W        W57503   4.305  37.973   0.896
85888W        W57504   2.171  23.507   4.576
85889W        W57505  27.653  35.866  13.833
85890W        W57506  17.460  41.691  10.848
85891W        W57507  40.070   8.375   3.092
85892W        W57508   4.221  14.553   4.945
85893W        W57509  30.209   1.759   0.676
85894W        W57510  31.545  19.584  10.875
85895W        W57511   6.695   3.868   0.224
85896W        W57512  19.284  36.014  14.578
85897W        W57513   8.340   6.715  11.933
85898W        W57514  19.611  29.109  11.747
85899W        W57515  28.014  36.432   1.881
85900W        W57516   5.018   3.161  11.522
85901W        W57517  40.275  20.141  13.135
85902W        W57518  29.021   9.151   0.363
85903W        W57519  26.055   6.493  14.515
85904W        W57520   1.309  35.816  13.867
85905W        W57521  26.464  33.451   3.200
85906W        W57522   0.084  10.163   2.108
85907W        W57523  28.517  41.963  14.458
85908W        W57524   3.333   0.288   2.172
85909W        W57525  30.576  29.362   3.702
85910W        W57526  43.199  23.127  14.777
85911W        W57527  15.664  27.095   2.389
85912W        W57528  25.247  27.157   3.672
85913W        W57529  23.585  20.489   2.769
85914W        W57530  26.235  17.221   5.157
85915W        W57531  17.315  42.802  14.509
85916W        W57532  12.817  25.109   0.771
85917W        W57533  10.858  24.650   2.651
85918W        W57534  42.150  16.793   1.846
85919W        W57535  12.699   5.187  13.573
85920W        W57536  14.534  34.920  13.048
85921W        W57537  16.999  34.806  11.152
85922W        W57538  44.800   0.039  14.316
85923W        W57539  14.342   4.333  12.346
85924W        W57540  16.553  23.309   2.609
85925W        W57541   8.365  15.794  13.949
85926W        W57542  32.983  37.702   2.278
85927W        W57543  31.998  13.832  10.706
85928W        W57544  44.332   0.738  10.059
85929W        W57545  39.751  36.001  14.017
85930W        W57546  22.564  12.751   4.531
85931W        W57547  11.091  16.661  11.300
85932W        W57548  14.890  39.311   0.260
85933W        W57549  30.851  38.497  14.854
85934W        W57550  35.636   7.279   2.779
85935W        W57551  35.593  39.393   1.742
85936W        W57552  17.182  40.775   0.312
85937W        W57553  10.294  28.179   0.736
85938W        W57554  34.919  30.616   1.370
85939W        W57555  33.063  13.635  11.568
85940W        W57556   3.757  39.401   4.657
85941W        W57557  17.372   3.531   3.128
85942W        W57558  25.030  35.974  12.829
85943W        W57559  31.419  31.092  11.969
85944W        W57560  18.079  26.470   3.722
85945W        W57561  43.248  20.999  11.109
85946W        W57562  12.354  23.180  13.726
85947W        W57563  20.124  25.239  10.526
85948W        W57564  39.809  27.632   3.783
85949W        W57565  44.460  27.487  11.932
85950W        W57566  44.568  30.370  13.093
85951W        W57567  25.575  23.464  12.374
85952W        W57568  34.934   8.186  12.467
85953W        W57569  23.013  26.986   0.808
85954W        W57570   8.989  12.823   2.414
85955W        W57571  25.569  12.684   2.455
85956W        W57572  12.724   3.965   1.241
85957W        W57573   2.235  35.017   4.800
85958W        W57574  31.552  12.214  13.955
85959W        W57575  42.373  31.670   4.526
85960W        W57576  35.853   5.633  14.167
85961W        W57577  38.032  22.298  14.275
85962W        W57578  43.877   7.937  13.775
85963W        W57579  23.654  43.981   1.560
85964W        W57580  33.416  22.299  10.257
85965W        W57581   6.723   1.300  12.096
85966W        W57582  12.287   2.814   3.273
85967W        W57583  13.613   4.473  11.140
85968W        W57584  43.944  18.293   3.371
85969W        W57585   1.288  34.585  13.144
85970W        W57586   3.166  27.263   0.324
85971W        W57587  34.483  44.508  13.838
85972W        W57588   2.325  12.420  11.977
85973W        W57589  10.334   5.577   1.818
85974W        W57590  42.796  11.764   4.669
85975W        W57591   9.290   0.427   1.066
85976W        W57592  10.787  19.020   3.320
85977W        W57593  26.932   7.662  11.975
85978W        W57594  20.169  23.293  12.114
85979W        W57595  34.562  37.443   3.517
85980W        W57596  13.823  10.356   0.332
85981W        W57597  43.404  12.889  14.273
85982W        W57598  27.216  32.045   3.418
85983W        W57599  40.243  10.318   0.415
85984W        W57600  15.464  31.790   4.471
85985W        W57601  24.809  10.810  10.548
85986W        W57602  10.080  22.484  13.485
85987W        W57603  14.897   6.928   2.759
85988W        W57604  18.473  16.590   1.090
85989W        W57605  10.142  27.015  10.609
85990W        W57606  31.386  44.545   1.894
85991W        W57607  28.882   9.833  14.788
85992W        W57608   9.762   6.882  12.042
85993W        W57609  12.651  22.527   3.844
85994W        W57610  26.590  34.220   1.813
85995W        W57611  29.938  44.974  11.988
85996W        W57612  11.304  38.912  14.276
85997W        W57613   9.089  24.974   3.350
85998W        W57614   4.062  21.609  13.362
85999W        W57615  33.929  36.434  12.584
86000W        W57616   5.008   8.561   2.737
86001W        W57617  22.159  38.797   0.887
86002W        W57618  39.929  13.902   0.044
86003W        W57619   4.294  44.908  11.146
86004W        W57620  18.115  25.506  14.741
86005W        W57621   4.530  24.694   4.622
86006W        W57622  34.406  33.582   0.256
86007W        W57623  36.271  39.797  11.152
86008W        W57624  39.066   8.857  13.819
86009W        W57625  40.568  39.471   1.849
86010W        W57626   6.992   2.836   3.652
86011W        W57627  35.930  14.578  11.052
86012W        W57628  13.285  24.090   4.024
86013W        W57629  38.363  25.027   3.542
86014W        W57630  33.078  31.054  14.389
86015W        W57631  11.382   7.397  13.919
86016W        W57632  17.198  29.562   0.426
86017W        W57633  22.125  28.919   2.677
86018W        W57634  27.160  27.067   0.468
86019W        W57635  37.488   6.304  11.186
86020W        W57636  38.464  41.532   2.653
86021W        W57637  37.091  27.518   3.729
86022W        W57638   5.879  44.167  13.956
86023W        W57639  30.624  11.909  10.472
86024W        W57640   2.154   1.480   2.574
86025W        W57641  11.749   9.636  11.603
86026W        W57642  29.668   5.974   2.227
86027W        W57643  10.029  30.003  11.059
86028W        W57644  23.636   8.721  14.628
86029W        W57645  21.674  34.326   4.514
86030W        W57646   8.483   2.805  14.962
86031W        W57647  11.727  19.362   3.708
86032W        W57648  22.824   0.491   4.993
86033W        W57649  21.421  35.191   3.764
86034W        W57650  20.317  27.853   3.793
86035W        W57651   0.314  23.931   4.233
86036W        W57652   1.981  38.412  11.563
86037W        W57653  16.517  15.237   4.586
86038W        W57654   6.305  11.364   2.628
86039W        W57655  11.836  38.043   0.399
86040W        W57656  12.147   2.497   4.892
86041W        W57657  14.679  29.433   3.666
86042W        W57658   5.111  37.489  14.443
86043W        W57659  39.298  33.118  10.854
86044W        W57660  35.415  23.695   0.892
86045W        W57661   9.272   5.348   3.123
86046W        W57662  30.253  34.046  14.905
86047W        W57663  36.006  42.000   5.086
86048W        W57664  31.276  41.393  12.561
86049W        W57665   2.793  11.662  14.315
86050W        W57666  17.478  43.198  12.482
86051W        W57667   6.425   6.816  13.973
86052W        W57668   4.476  12.886  12.533
86053W        W57669   4.453  38.574   3.196
86054W        W57670  36.997  20.590  13.455
86055W        W57671  30.571  16.205  10.663
86056W        W57672   5.861  15.575   3.070
86057W        W57673  12.284   4.647   4.171
86058W        W57674  42.342  36.879   4.297
86059W        W57675   6.571  34.460  12.980
86060W        W57676  33.469  35.530   2.842
86061W        W57677  37.628  23.786   4.263
86062W        W57678  41.256  19.736  11.535
86063W        W57679  13.395   1.894   4.648
86064W        W57680  24.277  39.492  14.416
86065W        W57681   9.209  24.431  12.062
86066W        W57682  23.536   0.239  12.888
86067W        W57683  27.636  20.217  13.138
86068W        W57684  44.818   8.988  12.444
86069W        W57685  19.605  23.004  10.728
86070W        W57686  22.476  43.037  13.730
86071W        W57687  13.162  37.993  12.330
86072W        W57688  18.843  41.170  11.093
86073W        W57689  33.039  41.435   2.946
86074W        W57690  43.426  31.263  11.950
86075W        W57691  22.626   3.299  13.775
86076W        W57692  44.518   2.188  11.540
86077W        W57693   7.778  16.888  10.723
86078W        W57694  22.291   7.150   3.189
86079W        W57695  40.733   4.873  12.971
86080W        W57696   8.262  31.868   3.252
86081W        W57697   2.504  31.526   1.168
86082W        W57698  17.474   5.029   0.670
86083W        W57699  34.482  11.588   4.118
86084W        W57700   7.842   7.370   1.323
86085W        W57701   6.027  39.582  14.944
86086W        W57702  33.208  39.285  10.607
86087W        W57703   3.801   7.640   3.254
86088W        W57704  11.158  35.441   1.255
86089W        W57705  37.057  25.530  13.380
86090W        W57706   5.833   1.977  14.962
86091W        W57707   2.815  34.457   0.214
86092W        W57708  36.107  22.560  12.779
86093W        W57709  42.044  18.994   4.389
86094W        W57710  28.156   3.327  12.589
86095W        W57711  30.738  14.788  14.865
86096W        W57712  19.149  14.079  14.614
86097W        W57713   4.457  15.237  13.915
86098W        W57714   0.409  10.703   4.314
86099W        W57715  21.044  31.131  13.526
86100W        W57716  35.539  39.503   2.665
86101W        W57717   7.849  12.631  11.149
86102W        W57718  28.638  29.603   3.800
86103W        W57719  16.028  35.580  13.435
86104W        W57720  21.985   2.027   3.653
86105W        W57721   8.340  38.450  13.151
86106W        W57722  18.557  19.940   4.227
86107W        W57723  21.268  14.323  12.811
86108W        W57724  26.180  24.677   1.767
86109W        W57725  14.678  36.255   1.248
86110W        W57726  37.561  26.112  11.070
86111W        W57727  39.157   1.006   0.797
86112W        W57728  34.686  33.407   2.797
86113W        W57729  37.632  21.362  11.706
86114W        W57730  27.701   6.008   0.373
86115W        W57731  42.823  17.404   1.791
86116W        W57732  44.856  41.764   4.079
86117W        W57733  27.137   0.356   3.943
86118W        W57734  31.921  27.783   2.002
86119W        W57735  10.826   3.782   4.833
86120W        W57736  44.498  44.653   2.215
86121W        W57737  30.457  24.315  11.384
86122W        W57738   0.408   3.452   1.072
86123W        W57739  32.919  16.703  13.399
86124W        W57740  36.630   9.831  11.496
86125W        W57741  40.457  39.291   1.374
86126W        W57742  21.637  36.003  13.016
86127W        W57743  26.070  21.153  13.815
86128W        W57744  26.002  29.672   2.124
86129W        W57745  31.432  18.130   3.511
86130W        W57746  26.723  12.321  13.387
86131W        W57747  10.720  36.086   3.863
86132W        W57748  16.715  27.800   3.337
86133W        W57749  23.230  27.735  10.541
86134W        W57750  14.413   4.234   2.565
86135W        W57751  32.287  15.026  11.497
86136W        W57752  21.227   1.504   3.741
86137W        W57753  38.089  12.704   0.469
86138W        W57754  30.120   3.610  13.020
86139W        W57755  32.485  15.287   1.139
86140W        W57756  30.439   9.600   3.323
86141W        W57757  22.377  15.844   3.538
86142W        W57758  38.608  31.351   3.562
86143W        W57759  11.214   4.689   1.336
86144W        W57760   6.695  25.626   3.346
86145W        W57761  20.478  39.767   4.026
86146W        W57762  30.517  36.732   5.036
86147W        W57763  34.408   9.820   3.598
86148W        W57764  13.553  41.130  12.498
86149W        W57765  13.526   6.897   2.746
86150W        W57766  27.642  25.154   2.713
86151W        W57767  30.805  22.362   0.305
86152W        W57768  11.713  12.646   4.445
86153W        W57769  26.481  31.187  10.930
86154W        W57770  26.479  35.282  10.416
86155W        W57771  23.122  31.677   2.866
86156W        W57772  43.322  29.032   1.425
86157W        W57773  33.395  32.672  11.603
86158W        W57774  14.705  40.679  12.128
86159W        W57775   8.355  16.324   0.251
86160W        W57776  21.071  14.876  10.966
86161W        W57777  44.396  28.140   1.418
86162W        W57778  16.562  20.172   2.373
86163W        W57779   8.718   4.665   0.724
86164W        W57780   9.779  41.320  11.064
86165W        W57781   2.652  28.016   2.303
86166W        W57782  40.833  11.302   1.666
86167W        W57783  35.061  22.286   4.540
86168W        W57784  26.962   4.461   4.028
86169W        W57785   8.881   0.826   3.621
86170W        W57786   2.014  40.729  14.004
86171W        W57787  41.284   0.256  11.991
86172W        W57788   7.630  28.106   2.489
86173W        W57789   2.512  39.073  11.968
86174W        W57790  33.661  19.705  10.683
86175W        W57791  15.645  36.220  12.076
86176W        W57792   7.466  15.699   4.142
86177W        W57793  31.631   6.708  13.786
86178W        W57794  32.126  31.443   0.976
86179W        W57795   2.740  16.147  10.802
86180W        W57796  25.401   8.311  11.421
86181W        W57797  38.781  17.724   4.545
86182W        W57798  42.530  23.147   2.823
86183W        W57799  13.637  33.135  13.907
86184W        W57800   1.881  15.567  12.985
86185W        W57801  30.928   9.233  11.647
86186W        W57802  23.508  44.523   3.206
86187W        W57803   2.892  36.510  12.968
86188W        W57804  27.972  17.244   3.796
86189W        W57805  10.624  34.408  14.357
86190W        W57806  10.990  41.275   3.895
86191W        W57807  17.836   3.942  14.934
86192W        W57808   3.336  19.590   4.888
86193W        W57809  42.019  23.689  13.004
86194W        W57810  22.567  40.750  13.818
86195W        W57811   6.477  10.283  12.483
86196W        W57812  19.128  30.850  14.245
86197W        W57813  43.459  37.012  14.482
86198W        W57814  43.025  20.836  14.869
86199W        W57815   5.872  15.421  11.155
86200W        W57816  27.617  24.561  10.331
86201W        W57817   1.007  14.102   2.415
86202W        W57818  17.526  13.759  13.389
86203W        W57819  40.838  26.360   4.111
86204W        W57820  40.825  38.398  13.611
86205W        W57821  30.974  37.861   3.422
86206W        W57822  31.040  37.904   1.410
86207W        W57823  39.988  36.051   1.507
86208W        W57824  44.933  29.422   3.245
86209W        W57825  43.480  42.759  13.939
86210W        W57826   1.497  32.584  10.762
86211W        W57827   7.892  22.231   3.728
86212W        W57828   5.116   6.845   3.284
86213W        W57829  41.943   3.794  13.313
86214W        W57830   9.277  17.628   3.536
86215W        W57831  20.024  23.010  13.569
86216W        W57832  15.330  17.113  10.686
86217W        W57833   2.166  24.652  13.748
86218W        W57834  19.103  34.465   3.208
86219W        W57835  38.775  28.498  12.462
86220W        W57836  11.197   8.870   1.713
86221W        W57837  13.206  18.737  13.411
86222W        W57838   6.776   9.419  13.123
86223W        W57839  41.580  37.476  13.565
86224W        W57840  10.344  40.100   4.130
86225W        W57841  38.428  33.339   3.572
86226W        W57842  44.285  25.457   3.164
86227W        W57843  22.049  24.576  12.874
86228W        W57844  34.873  19.845  12.455
86229W        W57845  21.162  31.303   4.074
86230W        W57846  28.624  40.062   0.322
86231W        W57847  27.211  41.291   4.867
86232W        W57848  38.143   7.149  10.595
86233W        W57849  12.660  30.142   2.231
86234W        W57850  14.127  18.671  12.993
86235W        W57851  21.171  40.779  11.512
86236W        W57852  44.335   4.817   4.635
86237W        W57853  17.736  27.889   4.861
86238W        W57854   3.766  37.460  10.368
86239W        W57855  10.105  20.745  11.513
86240W        W57856  44.697   2.960   1.688
86241W        W57857   8.398  10.182  13.375
86242W        W57858  39.419  23.281   4.204
86243W        W57859   9.315   3.795   1.383
86244W        W57860   5.322  34.798   1.298
86245W        W57861  30.694   6.466  10.983
86246W        W57862  16.833  33.450  11.938
86247W        W57863  37.788  35.643   4.517
86248W        W57864   2.534  15.859  14.573
86249W        W57865  26.679  33.916  11.549
86250W        W57866  28.512   1.466   0.967
86251W        W57867   3.926  18.876   4.587
86252W        W57868  15.605  14.352   0.347
86253W        W57869  31.008  28.692   4.017
86254W        W57870  28.482  26.318   4.681
86255W        W57871   2.854  34.382   2.961
86256W        W57872   4.780  43.804  13.332
86257W        W57873  26.240   8.212   0.794
86258W        W57874  22.777   3.059   2.604
86259W        W57875  39.569  25.510  13.005
86260W        W57876  10.104  33.054  14.440
86261W        W57877   7.881  36.009  12.492
86262W        W57878  27.007  16.533   2.810
86263W        W57879   5.580   1.330  12.016
86264W        W57880   3.466  43.840  13.040
86265W        W57881   6.490  10.746  12.040
86266W        W57882   1.345  29.523   4.522
86267W        W57883  12.865  20.671  11.514
86268W        W57884  24.710   6.368   3.749
86269W        W57885  18.778  10.582  11.001
86270W        W57886  16.622  14.849   1.659
86271W        W57887  13.592  29.894   0.246
86272W        W57888  14.833  34.389   1.761
86273W        W57889  21.504   1.793   2.214
86274W        W57890  29.882   9.298  11.601
86275W        W57891  41.771  43.086  14.391
86276W        W57892  31.193   8.413   3.743
86277W        W57893  15.888   9.269  14.732
86278W        W57894  19.208  42.873  12.321
86279W        W57895  39.569  39.825  14.666
86280W        W57896  15.810  32.913  11.133
86281W        W57897  35.390  34.021   3.232
86282W        W57898  17.670  36.101   2.686
86283W        W57899  23.171  27.491  11.022
86284W        W57900  43.255  34.393   3.130
86285W        W57901  34.975  41.080  13.781
86286W        W57902  20.202  36.474   4.548
86287W        W57903  20.486  22.967  10.758
86288W        W57904   7.058  17.837   4.201
86289W        W57905  20.805  32.663  13.756
86290W        W57906  21.067   3.933  13.382
86291W        W57907  20.633  12.643  12.347
86292W        W57908   5.546  12.802  14.448
86293W        W57909  34.303  23.135   4.224
86294W        W57910  18.740  23.443  11.651
86295W        W57911   3.756   6.490  10.336
86296W        W57912  15.128  26.110   0.445
86297W        W57913  10.474  31.875   4.811
86298W        W57914  38.804  13.338  11.028
86299W        W57915  19.811  12.430  13.394
86300W        W57916  27.093   0.882   4.673
86301W        W57917  40.431   5.310  13.154
86302W        W57918  32.268   5.879  10.617
86303W        W57919  27.980  17.158   4.665
86304W        W57920  35.822  11.998  14.873
86305W        W57921  19.719  18.893  14.532
86306W        W57922  10.009  41.557   4.987
86307W        W57923  33.495  33.878  12.827
86308W        W57924  23.740  11.096   1.712
86309W        W57925  21.218   0.532  14.329
86310W        W57926   4.693   2.621  13.049
86311W        W57927  37.105  10.926  12.548
86312W        W57928  38.116   4.369   1.376
86313W        W57929  23.841  41.085   0.794
86314W        W57930  18.066  10.728   1.443
86315W        W57931   6.710  26.895  14.544
86316W        W57932  21.065  40.099   2.601
86317W        W57933   5.876  36.336   2.271
86318W        W57934  37.488  32.465  14.300
86319W        W57935  39.384  19.613  10.694
86320W        W57936  43.469  25.043  13.533
86321W        W57937  27.366  20.621  13.336
86322W        W57938   0.899  27.001  10.689
86323W        W57939  30.147  24.179   3.130
86324W        W57940  35.098   4.148  12.766
86325W        W57941  20.106  28.712  12.009
86326W        W57942  25.309  38.947  14.759
86327W        W57943  32.971  42.332  12.362
86328W        W57944   8.698  31.451   2.531
86329W        W57945  23.665  15.130  11.615
86330W        W57946  44.967  44.378   2.102
86331W        W57947   0.022  22.587  13.886
86332W        W57948  16.840  39.482  13.802
86333W        W57949  40.238   6.598  11.180
86334W        W57950  41.021  42.934  10.065
86335W        W57951   9.207  22.313   4.102
86336W        W57952  42.380  31.953   3.571
86337W        W57953  28.690  19.649   3.210
86338W        W57954  18.887  42.935   0.241
86339W        W57955  36.087  25.213  13.065
86340W        W57956  38.360  24.250  13.353
86341W        W57957   5.776  23.409   4.677
86342W        W57958  16.926  16.172  14.348
86343W        W57959  44.436  32.456  13.107
86344W        W57960  37.586   1.500  14.869
86345W        W57961  37.598  31.039  13.073
86346W        W57962  41.879  36.509  12.375
86347W        W57963  29.082  44.931  12.547
86348W        W57964  25.620   8.477  12.311
86349W        W57965  30.398  18.171   1.498
86350W        W57966  22.979   3.349   3.601
86351W        W57967  20.959  36.441  10.752
86352W        W57968  21.981  10.297   3.633
86353W        W57969  19.709   0.886   0.241
86354W        W57970  34.099  26.390  11.907
86355W        W57971   0.385  21.553  12.446
86356W        W57972  42.982  38.653   9.899
86357W        W57973  24.076  17.211  12.392
86358W        W57974  24.680  23.313  11.945
86359W        W57975   8.351   8.779  11.459
86360W        W57976  38.145  39.080   3.540
86361W        W57977  13.825  23.720  14.971
86362W        W57978  26.041  36.990   0.944
86363W        W57979  43.954  22.558   4.963
86364W        W57980  20.131   8.526   5.221
86365W        W57981  39.402  10.144  12.296
86366W        W57982   9.614  20.181   2.728
86367W        W57983  41.264  16.694  11.371
86368W        W57984   7.753  22.000   3.226
86369W        W57985  44.446  21.733  10.784
86370W        W57986  42.296  27.642  13.862
86371W        W57987  43.889  13.332   3.226
86372W        W57988  39.625  24.510   4.540
86373W        W57989  15.361  19.171  12.972
86374W        W57990  42.313  28.969   1.669
86375W        W57991   3.115   8.200   0.234
86376W        W57992  33.649  36.037  11.637
86377W        W57993  43.819  19.966  10.418
86378W        W57994  18.169  41.582  11.575
86379W        W57995   9.279  44.488  10.697
86380W        W57996  28.428   7.134   4.658
86381W        W57997  39.543  38.525   1.961
86382W        W57998  22.486   0.850  11.478
86383W        W57999  25.724  36.577  13.803
86384W        W58000   1.318  27.069  14.112
86385W        W58001   7.102  33.053  12.430
86386W        W58002  39.264   9.404   3.580
86387W        W58003  15.785  10.341  13.354
86388W        W58004  27.536  40.940  12.857
86389W        W58005  18.774  22.090  13.871
86390W        W58006  44.464  25.803  12.071
86391W        W58007  28.149  19.119   0.368
86392W        W58008   8.141   1.538  14.886
86393W        W58009  20.546  37.903  13.360
86394W        W58010  10.314  16.081   3.985
86395W        W58011  22.584  36.464  14.350
86396W        W58012  28.715   2.488   3.173
86397W        W58013  35.677  29.993  11.572
86398W        W58014   5.526  16.426  12.440
86399W        W58015   4.877   9.690  13.935
86400W        W58016  12.787  41.431  11.561
86401W        W58017  36.520  31.026   4.890
86402W        W58018   0.085  44.761   1.204
86403W        W58019  39.479  36.537  13.339
86404W        W58020  40.444  10.744   0.699
86405W        W58021  36.868   9.478   1.959
86406W        W58022  34.974   2.001  11.424
86407W        W58023   1.888  33.737  11.119
86408W        W58024  15.186  23.689  12.341
86409W        W58025   2.272  30.203   0.421
86410W        W58026  35.450  38.908   1.811
86411W        W58027   9.481  29.953   0.918
86412W        W58028  21.896  35.348   1.172
86413W        W58029  44.817  44.236  14.818
86414W        W58030  26.596  13.474  10.790
86415W        W58031  20.141  27.144  10.667
86416W        W58032  12.810  12.253   1.881
86417W        W58033  22.641  16.411  14.022
86418W        W58034  20.096  40.027   0.863
86419W        W58035  15.701   7.332  13.781
86420W        W58036  16.045   1.021   3.479
86421W        W58037  10.721  22.039   0.834
86422W        W58038  42.036   1.414   4.849
86423W        W58039  22.838   8.819   1.220
86424W        W58040   9.310  16.735   3.170
86425W        W58041  36.026  26.432  14.929
86426W        W58042  21.075   5.938   0.993
86427W        W58043  42.548  44.343  13.020
86428W        W58044  37.506  17.289   3.287
86429W        W58045  44.854  30.692   3.763
86430W        W58046  29.998   7.435   2.244
86431W        W58047  21.956   1.535  13.829
86432W        W58048  13.360  25.156  13.895
86433W        W58049  27.615  28.024  11.395
86434W        W58050  36.067   9.470  12.360
86435W        W58051   4.774  20.154   0.280
86436W        W58052   1.888  23.045  11.005
86437W        W58053   9.618   7.290  14.994
86438W        W58054  22.178  24.452   4.840
86439W        W58055  26.231   9.308   2.731
86440W        W58056  36.623   1.375  13.826
86441W        W58057  25.069  30.000  13.466
86442W        W58058  29.377   7.547  14.381
86443W        W58059  44.775  42.969   4.598
86444W        W58060  30.956  12.222   1.612
86445W        W58061  27.743  21.200   1.765
86446W        W58062  18.555   4.746  13.576
86447W        W58063  38.489  44.494   1.841
86448W        W58064   7.185  24.236   0.396
86449W        W58065  31.349   3.782  12.405
86450W        W58066   2.890  41.039   3.842
86451W        W58067  22.229   4.149  12.482
86452W        W58068  39.369  12.874  10.582
86453W        W58069  15.046  27.063   2.413
86454W        W58070  11.250   6.658   3.806
86455W        W58071  29.376  37.494  13.572
86456W        W58072  32.957  30.875  14.872
86457W        W58073   4.304  12.208   2.735
86458W        W58074  34.502  33.404   3.285
86459W        W58075   0.737   9.224  14.444
86460W        W58076  42.492  18.278   4.593
86461W        W58077   2.009  33.462   3.820
86462W        W58078  35.099  42.264   3.815
86463W        W58079  23.910  38.941  11.712
86464W        W58080  39.633   0.365  11.588
86465W        W58081  15.029  10.343  11.672
86466W        W58082  33.900  42.594  12.978
86467W        W58083  32.057   8.980   0.862
86468W        W58084  32.675  30.491  10.785
86469W        W58085   9.178   0.363  13.294
86470W        W58086  10.953  19.615   3.789
86471W        W58087  28.059  35.176   1.353
86472W        W58088  28.167  37.778   4.833
86473W        W58089  36.783  13.070  10.218
86474W        W58090  22.251   5.109  14.907
86475W        W58091  12.661   7.880  11.549
86476W        W58092  38.411  13.841   0.343
86477W        W58093   5.907  18.803  11.609
86478W        W58094  35.719  40.522   5.006
86479W        W58095  23.382  40.195  13.922
86480W        W58096   3.330   2.859   3.179
86481W        W58097  12.797  43.537   4.564
86482W        W58098   6.939  24.196  14.940
86483W        W58099  43.001   7.371   4.611
86484W        W58100  35.936  43.526  11.083
86485W        W58101   6.358  17.714  12.499
86486W        W58102  33.515  35.051   1.397
86487W        W58103  26.155   3.000   3.580
86488W        W58104  13.575  38.065  11.152
86489W        W58105  38.603  11.138  11.153
86490W        W58106   3.657  43.429  13.950
86491W        W58107  44.116  27.350   9.928
86492W        W58108  15.524  29.374  11.197
86493W        W58109  35.022  43.032  14.320
86494W        W58110  41.988  36.746  11.934
86495W        W58111  44.939   6.655   0.264
86496W        W58112  44.272  10.401   3.687
86497W        W58113  40.964   6.471  14.116
86498W        W58114   4.367   3.677   2.756
86499W        W58115  31.611   9.910   1.045
86500W        W58116  14.577  13.570   2.162
86501W        W58117  10.285   9.689   1.071
86502W        W58118  42.871  39.001  12.385
86503W        W58119  36.026  42.592   2.242
86504W        W58120   2.717  39.451  13.060
86505W        W58121   7.275  41.097  13.342
86506W        W58122  27.295  38.718   0.237
86507W        W58123  33.497  31.624  10.367
86508W        W58124  32.466   2.079   9.843
86509W        W58125  28.647  19.792  14.967
86510W        W58126  18.776   4.861  14.019
86511W        W58127  26.171  42.561   1.698
86512W        W58128  27.716  28.196  10.381
86513W        W58129  30.571   7.004  14.996
86514W        W58130  28.865   5.360  10.633
86515W        W58131  26.619  43.452  12.932
86516W        W58132  24.770  34.348  13.384
86517W        W58133  20.190  15.064   4.146
86518W        W58134  26.648   3.393   1.850
86519W        W58135   2.375  24.607  12.333
86520W        W58136   9.469  34.649  10.824
86521W        W58137  28.640  23.384   0.436
86522W        W58138  44.700  34.003   3.973
86523W        W58139   0.060   6.245   3.996
86524W        W58140  14.605  34.325  13.805
86525W        W58141  41.819  36.405  13.370
86526W        W58142  13.092  12.628  13.912
86527W        W58143  22.517  37.358   2.866
86528W        W58144  42.017   6.533  13.940
86529W        W58145  13.792  32.553   3.073
86530W        W58146  39.878  24.213  13.173
86531W        W58147   6.435  43.024   2.838
86532W        W58148  26.493  13.437  13.077
86533W        W58149  11.155  24.458  14.470
86534W        W58150  11.878  10.314   0.256
86535W        W58151   4.295  37.771  14.755
86536W        W58152   6.438  11.378   4.569
86537W        W58153  35.645  44.789  11.112
86538W        W58154   8.573  11.221   1.514
86539W        W58155  11.741  37.508  12.147
86540W        W58156  44.664   5.366  11.173
86541W        W58157  35.841   7.392   0.382
86542W        W58158   3.479  31.505  12.505
86543W        W58159   0.781  22.797   2.186
86544W        W58160  13.100  15.854  11.737
86545W        W58161  22.252  37.988   2.828
86546W        W58162  20.872  38.346   0.343
86547W        W58163  41.876  11.793   4.627
86548W        W58164  22.662  10.640   3.169
86549W        W58165   9.679  38.743  11.388
86550W        W58166  38.815   2.817  12.442
86551W        W58167  15.677   7.826  14.052
86552W        W58168  15.278  22.519   0.878
86553W        W58169   6.263  16.035   4.654
86554W        W58170  37.365   9.695   2.852
86555W        W58171  27.025  41.412   2.132
86556W        W58172   1.924  18.694   3.760
86557W        W58173  21.809  41.046  11.218
86558W        W58174  38.537  29.833   5.053
86559W        W58175  25.610  40.443   0.218
86560W        W58176  27.869  19.535  11.157
86561W        W58177  21.612  44.356   1.246
86562W        W58178  18.479  21.213   4.518
86563W        W58179  30.117   0.986  13.634
86564W        W58180  27.536  18.789   1.885
86565W        W58181   0.028   6.210   2.357
86566W        W58182  30.012  32.111  14.309
86567W        W58183  13.580   3.833  14.416
86568W        W58184  39.070   9.589   2.220
86569W        W58185  16.101   3.574  11.994
86570W        W58186  14.114   5.436  11.492
86571W        W58187  34.457  17.275   1.449
86572W        W58188   5.745  20.404   2.636
86573W        W58189  26.455  43.445   4.215
86574W        W58190  42.299  30.497   2.656
86575W        W58191   8.672  36.341   5.317
86576W        W58192   2.815  37.590  14.982
86577W        W58193  21.582  43.037   3.312
86578W        W58194  23.576  24.642  11.999
86579W        W58195   6.337  12.556   3.185
86580W        W58196  34.377  42.503   0.011
86581W        W58197  24.642  20.941  12.573
86582W        W58198  10.725  37.026   3.546
86583W        W58199   1.204  41.383  12.265
86584W        W58200  14.980  41.970   3.448
86585W        W58201  22.120  17.150   2.576
86586W        W58202  22.581   0.375   2.745
86587W        W58203  29.134  13.335  14.323
86588W        W58204  34.166  31.041   1.327
86589W        W58205  33.381   7.808  13.026
86590W        W58206  19.262  26.549  13.816
86591W        W58207  41.689  24.233   2.638
86592W        W58208  44.808  16.729   0.287
86593W        W58209  22.641  31.391  11.197
86594W        W58210  12.385  27.430  12.043
86595W        W58211  12.253  37.623   3.174
86596W        W58212  39.967   7.037  12.466
86597W        W58213  39.151   0.001  10.722
86598W        W58214  14.520  39.079  10.410
86599W        W58215  18.792   6.145  12.909
86600W        W58216   6.389  13.237   1.168
86601W        W58217  37.391   0.360   2.255
86602W        W58218  15.060  24.673  13.037
86603W        W58219  17.955   0.042  10.231
86604W        W58220   1.871  18.552   4.241
86605W        W58221  40.861   0.974   0.773
86606W        W58222  29.959  33.097  14.710
86607W        W58223  27.583  17.808  12.888
86608W        W58224  41.752  13.717  12.053
86609W        W58225  23.472  14.770  13.440
86610W        W58226  30.176  15.623   0.831
86611W        W58227  12.839  10.121  12.012
86612W        W58228  16.486  14.647  12.350
86613W        W58229  33.940  32.547  13.609
86614W        W58230  20.547   6.443  12.468
86615W        W58231  43.317  40.583  11.854
86616W        W58232  17.024   0.932   3.210
86617W        W58233  32.615  41.472   1.175
86618W        W58234  41.784  24.949   0.591
86619W        W58235  12.125  37.533  10.489
86620W        W58236  30.678  31.612  14.361
86621W        W58237  16.900  44.383  13.026
86622W        W58238  22.025   3.332   0.671
86623W        W58239   6.751   9.470  14.065
86624W        W58240  31.378  30.824   1.341
86625W        W58241   9.671  26.841  10.722
86626W        W58242  43.985  28.993  13.503
86627W        W58243  29.484  44.619  12.587
86628W        W58244  44.086  19.759  11.262
86629W        W58245  12.700  28.116   1.273
86630W        W58246  43.594  37.500   3.684
86631W        W58247  33.137  39.981   2.818
86632W        W58248  42.218  24.766  13.225
86633W        W58249  36.471  15.145  10.440
86634W        W58250  22.744   9.191   2.406
86635W        W58251  19.173   6.403   3.300
86636W        W58252   2.876  32.568   4.110
86637W        W58253  26.050   5.278   1.148
86638W        W58254  28.210  38.103  12.126
86639W        W58255  41.823  27.019  11.123
86640W        W58256   8.259  23.934  12.434
86641W        W58257   1.136  40.866   1.336
86642W        W58258   0.505  23.464   0.291
86643W        W58259  43.982  13.282  10.447
86644W        W58260  33.770  21.540  13.550
86645W        W58261  42.045   0.179  12.367
86646W        W58262  25.640  15.025   3.756
86647W        W58263  17.696  40.926   4.262
86648W        W58264  14.165  37.094  12.477
86649W        W58265  23.240   7.404   1.172
86650W        W58266  24.956   4.976   3.446
86651W        W58267  22.801  23.921   3.333
86652W        W58268  42.583  41.839   4.745
86653W        W58269   6.399   9.787   0.411
86654W        W58270  36.498  35.040  11.911
86655W        W58271  31.347  17.231  11.194
86656W        W58272  10.321  42.778  14.440
86657W        W58273   5.521  15.160   1.855
86658W        W58274  35.827  40.152  12.019
86659W        W58275  41.900  15.355  12.782
86660W        W58276  33.462  38.925  10.308
86661W        W58277  27.661  23.705  11.797
86662W        W58278   5.331   8.402   0.864
86663W        W58279   6.961  34.370  11.992
86664W        W58280  23.616  39.736   3.318
86665W        W58281   8.168  11.142  12.449
86666W        W58282  19.179   7.913   1.708
86667W        W58283  36.859  40.051   1.784
86668W        W58284  17.190  17.077   3.241
86669W        W58285  31.911  23.653  12.926
86670W        W58286  29.179  32.584  14.391
86671W        W58287   4.249  18.071   3.484
86672W        W58288   7.805  33.346  14.493
86673W        W58289  32.822  19.542  10.992
86674W        W58290  31.951  43.387  11.960
86675W        W58291  10.852  41.032   4.347
86676W        W58292   2.094  10.913   3.659
86677W        W58293  10.634  44.909   2.334
86678W        W58294  14.548  20.658  10.653
86679W        W58295   1.854  10.211   3.909
86680W        W58296   6.457  41.397  10.652
86681W        W58297  38.375   5.050   1.868
86682W        W58298  12.773   0.431   2.612
86683W        W58299  42.839   7.765   0.259
86684W        W58300   0.577  19.272   2.054
86685W        W58301  33.793  44.870  13.716
86686W        W58302  42.925  22.494   4.089
86687W        W58303  32.948  10.663  13.949
86688W        W58304  20.140   9.931  10.774
86689W        W58305   4.384  31.852   4.482
86690W        W58306  23.645  26.756  12.818
86691W        W58307  30.513  26.624  11.008
86692W        W58308  28.652  32.115  11.953
86693W        W58309  17.235  40.343   0.585
86694W        W58310  19.141  25.086   1.915
86695W        W58311  30.591   6.194  11.806
86696W        W58312  36.962  20.442   1.712
86697W        W58313  14.076   2.871  12.580
86698W        W58314  39.859  14.931  14.974
86699W        W58315  14.843  27.111  13.867
86700W        W58316  21.844  15.845  14.381
86701W        W58317  32.062  34.967   0.233
86702W        W58318  18.122   6.993  14.293
86703W        W58319  41.960  20.602   2.405
86704W        W58320  16.652  42.489   3.387
86705W        W58321   9.702  19.535  11.436
86706W        W58322   5.158  12.383   0.252
86707W        W58323  33.887   2.428   5.049
86708W        W58324  30.437  11.351   2.605
86709W        W58325  30.658   1.163  11.588
86710W        W58326  20.789   0.530   2.719
86711W        W58327  26.389  19.098  11.172
86712W        W58328   1.911   4.906  11.852
86713W        W58329  30.242  42.301  10.972
86714W        W58330   5.172  18.838  11.191
86715W        W58331  39.550   8.172   4.747
86716W        W58332  23.069  25.455  12.072
86717W        W58333  19.104  14.511   3.572
86718W        W58334  36.023  30.867  14.211
86719W        W58335  33.483  22.721   2.923
86720W        W58336   7.996  32.498   4.329
86721W        W58337  14.729  25.603   4.094
86722W        W58338  15.034  20.448   2.954
86723W        W58339  26.159  11.430  14.277
86724W        W58340  11.841  15.604   0.390
86725W        W58341  36.865  25.750   1.720
86726W        W58342  13.663  37.221   1.166
86727W        W58343  35.475   8.202   3.771
86728W        W58344  27.488  13.439   4.097
86729W        W58345  19.220  26.643  11.182
86730W        W58346  41.545  28.727   1.727
86731W        W58347  30.365  34.452  11.935
86732W        W58348  37.241  24.675  11.001
86733W        W58349  20.778   6.277   1.310
86734W        W58350  30.970  44.247  14.632
86735W        W58351  41.558  12.014   4.235
86736W        W58352   2.512  22.524   4.600
86737W        W58353   4.782  30.564  14.159
86738W        W58354  43.746  26.707  11.589
86739W        W58355  11.837  32.014   3.535
86740W        W58356   5.258  34.501  11.838
86741W        W58357   9.830  26.154   4.061
86742W        W58358  14.852  10.931  11.135
86743W        W58359  10.222  29.540  12.693
86744W        W58360  39.429   6.701  13.749
86745W        W58361  40.927  14.257   3.648
86746W        W58362  15.450  18.630  14.366
86747W        W58363   0.309  16.537  11.637
86748W        W58364  21.101  21.051  13.852
86749W        W58365  37.762   7.458  10.305
86750W        W58366   5.809  39.298  14.576
86751W        W58367  36.602  15.106   1.872
86752W        W58368   1.319  38.875  13.417
86753W        W58369   8.694  35.207   0.779
86754W        W58370  26.984  37.061  10.712
86755W        W58371  32.123  36.236   2.396
86756W        W58372  22.544  41.064   2.409
86757W        W58373   5.727  30.289  14.928
86758W        W58374  23.847   0.934  13.790
86759W        W58375   2.981  38.109  14.559
86760W        W58376  23.354  37.281   4.101
86761W        W58377  24.053  27.137  13.782
86762W        W58378  28.959  17.622  10.998
86763W        W58379  42.532  33.516   4.668
86764W        W58380  41.097  41.539   4.155
86765W        W58381   3.321   6.726   0.705
86766W        W58382  42.277  30.129   4.250
86767W        W58383  17.987  12.317  12.974
86768W        W58384   6.102  32.155   1.634
86769W        W58385  22.665  19.800   0.435
86770W        W58386  17.193  11.376   2.814
86771W        W58387  30.540  35.528  11.189
86772W        W58388  34.794  41.448   0.445
86773W        W58389  25.757  17.392   5.044
86774W        W58390  44.100  14.782   4.129
86775W        W58391  28.973  27.512  11.042
86776W        W58392  27.515  19.160   2.687
86777W        W58393  22.871  21.034  12.662
86778W        W58394  13.132   7.765  14.342
86779W        W58395  18.258  43.497   5.567
86780W        W58396   5.334  34.439   4.672
86781W        W58397  26.652  41.255  11.944
86782W        W58398  28.639   4.881  14.906
86783W        W58399  30.239  29.691  12.025
86784W        W58400  37.075  33.584   2.571
86785W        W58401  13.595  36.908  12.613
86786W        W58402  13.163  26.140  10.613
86787W        W58403  25.219  13.328  13.538
86788W        W58404  23.023  21.853  13.818
86789W        W58405  28.667  17.750  14.808
86790W        W58406  44.222  35.153   2.092
86791W        W58407  25.637  38.595   1.250
86792W        W58408  42.315   6.741   4.144
86793W        W58409  35.983  18.060   4.004
86794W        W58410  27.621  23.095  14.424
86795W        W58411  14.772   9.136  10.482
86796W        W58412  27.019  25.254  10.763
86797W        W58413   3.882  41.957  11.667
86798W        W58414  31.527  37.063   3.235
86799W        W58415  11.694  15.135  12.030
86800W        W58416  24.268  25.710   2.083
86801W        W58417  13.286  18.541  14.732
86802W        W58418  21.907  12.632  14.979
86803W        W58419  35.911   3.353  11.901
86804W        W58420  24.985  15.503   3.251
86805W        W58421  33.219   2.361   4.539
86806W        W58422  38.935  39.963   0.369
86807W        W58423  19.975   1.450  13.023
86808W        W58424  15.045  14.579  14.117
86809W        W58425   3.968  20.340   0.882
86810W        W58426  31.618  44.730   1.439
86811W        W58427   3.773  39.088  14.960
86812W        W58428  12.738  41.076   0.329
86813W        W58429  29.951  13.887  13.934
86814W        W58430  27.127  28.460   4.618
86815W        W58431  21.259  40.367   1.717
86816W        W58432  28.144  41.690  10.594
86817W        W58433   6.707  21.777  14.373
86818W        W58434  27.039  25.131   0.176
86819W        W58435   7.754  28.158   2.003
86820W        W58436  39.457  42.013   1.882
86821W        W58437  40.290  14.944  13.369
86822W        W58438  27.236  34.988  10.991
86823W        W58439  44.509   3.431  14.292
86824W        W58440   0.707  13.718  11.058
86825W        W58441  23.499  10.148   4.410
86826W        W58442  26.397  11.645  12.982
86827W        W58443  19.690  33.521   4.568
86828W        W58444  34.563  21.796  11.190
86829W        W58445  18.486  34.212  14.298
86830W        W58446   0.356  11.169   1.241
86831W        W58447  17.512  20.272  11.072
86832W        W58448  11.957  34.921  13.334
86833W        W58449  33.903   3.834  13.513
86834W        W58450  11.212  30.054  10.655
86835W        W58451  20.973  44.635  11.292
86836W        W58452  12.311   2.881  12.265
86837W        W58453  42.894  13.826   4.146
86838W        W58454   4.571   8.429   0.363
86839W        W58455  28.474  24.628  13.517
86840W        W58456  12.776  41.549   1.038
86841W        W58457  19.320  39.342  13.242
86842W        W58458  40.831   5.386  13.503
86843W        W58459   3.222  25.159  14.935
86844W        W58460  26.455   0.875  14.205
86845W        W58461  41.520  35.508   2.113
86846W        W58462  16.080  23.696   1.745
86847W        W58463  22.552  39.871   2.776
86848W        W58464  18.288  30.485   3.249
86849W        W58465   9.843  40.834   4.228
86850W        W58466  24.200  27.623  13.904
86851W        W58467  19.665   0.204  11.271
86852W        W58468   9.365  43.990  12.318
86853W        W58469  25.737  13.849  12.410
86854W        W58470  34.367  23.161   0.468
86855W        W58471  40.557  36.898  12.027
86856W        W58472  27.024  15.784  10.743
86857W        W58473  20.584  17.751   3.143
86858W        W58474  10.209  22.683   1.182
86859W        W58475  10.151  42.418   3.596
86860W        W58476  16.308  40.234  13.949
86861W        W58477  14.277  17.673  13.968
86862W        W58478   2.459  15.688   0.975
86863W        W58479  23.303  18.099  13.488
86864W        W58480   6.891  13.853   0.827
86865W        W58481  20.508   0.323  13.813
86866W        W58482   8.209   4.859  14.532
86867W        W58483  38.852  42.097   0.378
86868W        W58484  25.231  44.894  13.284
86869W        W58485   2.492   0.716   0.609
86870W        W58486  39.691   0.016   0.290
86871W        W58487  28.359  19.514  11.270
86872W        W58488  27.031  10.453   0.302
86873W        W58489   6.790  15.722   2.744
86874W        W58490  31.519   4.632  11.590
86875W        W58491   6.403  28.953  10.691
86876W        W58492  35.245  39.967   3.570
86877W        W58493  43.657  19.901  14.230
86878W        W58494  29.218   0.424   2.242
86879W        W58495  10.469  38.311   1.244
86880W        W58496   9.183  15.368  12.412
86881W        W58497  17.863   0.884   0.411
86882W        W58498  40.861  18.565   5.223
86883W        W58499  17.221   4.772   4.127
86884W        W58500   7.547  26.698  11.203
86885W        W58501  15.919  17.988  11.423
86886W        W58502  13.783  15.022  10.753
86887W        W58503  22.723  32.577  11.573
86888W        W58504  43.837  32.714  11.085
86889W        W58505  32.438  24.656  11.047
86890W        W58506  21.067  32.779  13.255
86891W        W58507  25.003  39.943   1.258
86892W        W58508   4.857  25.959   0.358
86893W        W58509  18.716  40.914  10.659
86894W        W58510  27.321  19.552   4.826
86895W        W58511  28.675  17.635   4.720
86896W        W58512   1.204  12.823   4.271
86897W        W58513  25.684   2.829   1.223
86898W        W58514  25.919  23.639   3.637
86899W        W58515  33.348  28.433   3.294
86900W        W58516  41.568  12.706   1.789
86901W        W58517  20.239   4.343   1.435
86902W        W58518   2.759  28.051  11.623
86903W        W58519  42.251  18.169  12.543
86904W        W58520  30.398  42.364  12.777
86905W        W58521   3.374  37.066   3.674
86906W        W58522   6.842  44.729  13.893
86907W        W58523  40.802  40.273  12.017
86908W        W58524  27.619   8.430  13.758
86909W        W58525   7.361  42.426  14.772
86910W        W58526  14.121   7.194   0.365
86911W        W58527  30.586   6.737   1.728
86912W        W58528  16.240  24.184   3.117
86913W        W58529  10.280  42.264  14.353
86914W        W58530  40.498  16.129   0.357
86915W        W58531  31.461   8.395   1.479
86916W        W58532   1.220  24.076   4.729
86917W        W58533  41.478  11.854  13.255
86918W        W58534  20.075  34.118  10.887
86919W        W58535  38.299  37.050  14.908
86920W        W58536  35.584  36.593   2.275
86921W        W58537  33.978  37.972  12.503
86922W        W58538  40.528  35.410   1.852
86923W        W58539   4.573   2.770  12.126
86924W        W58540  38.023  38.099   1.327
86925W        W58541  11.635  41.345   2.355
86926W        W58542  31.679   9.272  14.728
86927W        W58543  21.016   5.498  11.061
86928W        W58544  21.060  23.192   1.873
86929W        W58545   7.255  17.634  10.704
86930W        W58546   4.651   5.019   4.126
86931W        W58547  27.733  17.531  11.935
86932W        W58548  43.870  41.336  11.921
86933W        W58549  35.519   5.872  10.932
86934W        W58550  30.117  28.123   4.009
86935W        W58551  37.375  23.398   1.758
86936W        W58552   9.706   1.907  13.591
86937W        W58553  35.064   4.676   5.175
86938W        W58554   2.041  27.649   4.570
86939W        W58555  18.016  27.566   4.547
86940W        W58556  19.027  40.543   1.410
86941W        W58557  29.590  43.116  10.179
86942W        W58558  17.622  44.546   0.160
86943W        W58559  10.233  41.537  13.367
86944W        W58560   2.276   4.839   3.087
86945W        W58561  20.062  17.495  13.204
86946W        W58562  32.159  10.373   4.042
86947W        W58563  29.428  42.855   2.704
86948W        W58564   8.158  32.365   2.490
86949W        W58565  22.654   0.733   4.549
86950W        W58566  14.756  17.481  14.049
86951W        W58567  40.032   7.353   1.321
86952W        W58568  22.512  32.978  14.655
86953W        W58569  11.632  22.123  13.572
86954W        W58570  33.788  25.487  12.858
86955W        W58571  30.568  40.874  13.006
86956W        W58572   8.325  31.726   2.744
86957W        W58573   4.614  21.828  13.325
86958W        W58574  28.502   2.698   3.902
86959W        W58575  17.779  40.328   1.936
86960W        W58576   6.080  33.063  12.398
86961W        W58577  13.254  33.181   3.685
86962W        W58578  13.392  43.296  11.579
86963W        W58579  16.318  38.934   3.237
86964W        W58580   0.345   9.015   3.726
86965W        W58581  43.285   9.128  14.453
86966W        W58582  23.709   1.563  11.483
86967W        W58583  36.537   9.146   2.922
86968W        W58584  33.444  13.072  10.946
86969W        W58585  13.565  32.918   3.334
86970W        W58586  27.159  12.095   0.501
86971W        W58587  23.752  40.110   1.846
86972W        W58588   8.809  24.327  12.366
86973W        W58589  40.316  29.099  11.791
86974W        W58590   4.169  22.450   5.123
86975W        W58591  31.938  42.764  10.995
86976W        W58592  12.591  19.520  14.349
86977W        W58593  22.067  21.033   2.330
86978W        W58594  38.078  10.691   2.332
86979W        W58595  10.435  10.695  11.747
86980W        W58596  31.358  21.097   1.670
86981W        W58597  22.155   3.375  11.029
86982W        W58598  21.917  11.772  13.909
86983W        W58599  27.273   6.717  14.299
86984W        W58600  39.968   7.948  13.428
86985W        W58601  36.414  41.898  14.731
86986W        W58602   2.334  40.024  10.614
86987W        W58603   2.403  11.294   4.509
86988W        W58604  24.258   7.176   1.422
86989W        W58605  13.589  17.604   1.724
86990W        W58606  16.933  18.302  11.344
86991W        W58607  43.395  22.569   2.498
86992W        W58608   0.325  34.737  14.719
86993W        W58609  39.304  16.649  12.536
86994W        W58610   0.504  31.871  14.339
86995W        W58611  35.834   4.299   1.252
86996W        W58612  39.647   1.057   0.875
86997W        W58613  38.370  31.869   2.691
86998W        W58614  32.325  28.675   3.359
86999W        W58615  34.374  41.203   3.636
87000W        W58616  34.602   6.332  14.325
87001W        W58617  38.144  29.918   1.535
87002W        W58618  12.733  14.686   2.964
87003W        W58619   1.271  21.616   4.644
87004W        W58620  29.658  28.232  11.009
87005W        W58621  11.854   2.780   4.054
87006W        W58622  40.761  23.176   3.202
87007W        W58623  23.582  10.904  13.024
87008W        W58624  15.685  11.468   3.550
87009W        W58625   5.486  33.146  14.506
87010W        W58626  33.117  22.506  11.067
87011W        W58627   8.755  17.648  11.939
87012W        W58628   4.876   1.778  10.192
87013W        W58629   8.742   3.258  14.801
87014W        W58630  14.184  36.861  12.943
87015W        W58631  10.820  25.951   4.088
87016W        W58632  11.712  20.456  14.855
87017W        W58633  18.590  13.964  11.406
87018W        W58634  19.740  44.390   1.249
87019W        W58635  19.691  14.419   2.841
87020W        W58636   6.243  41.815  13.956
87021W        W58637   2.863  23.896  11.118
87022W        W58638  38.837  36.590  12.497
87023W        W58639  30.663  43.713  14.870
87024W        W58640  29.976   4.709  13.883
87025W        W58641  25.661  16.323  11.423
87026W        W58642  10.986  40.470  13.041
87027W        W58643  23.600  23.710   0.792
87028W        W58644  14.189  10.287   0.718
87029W        W58645  15.835  44.490   3.416
87030W        W58646  34.330  29.819  10.630
87031W        W58647  16.627   9.621   3.447
87032W        W58648  22.237  40.870   4.358
87033W        W58649  28.103  14.529   0.747
87034W        W58650  10.920  27.878   4.254
87035W        W58651  20.644  23.789   3.144
87036W        W58652  33.137  26.509   3.933
87037W        W58653   0.796  19.566   2.430
87038W        W58654   6.813  40.772   3.441
87039W        W58655  41.881  32.638   3.878
87040W        W58656  13.813  17.970   0.373
87041W        W58657   4.829   6.132   3.185
87042W        W58658   4.758   9.244  10.907
87043W        W58659  28.785  13.319   4.566
87044W        W58660  37.582  10.084   1.246
87045W        W58661   8.316   6.526   4.104
87046W        W58662   8.797  10.960   3.041
87047W        W58663  16.805  27.675   2.310
87048W        W58664   8.441  23.908  11.100
87049W        W58665  19.954   3.234   0.534
87050W        W58666  16.730  19.344   0.327
87051W        W58667  28.442   2.736   4.826
87052W        W58668  23.028   2.033   1.668
87053W        W58669  37.416  13.811  12.025
87054W        W58670   4.671   4.209  13.948
87055W        W58671  27.929  17.373   1.333
87056W        W58672  20.600  42.439   2.761
87057W        W58673  29.031  21.502   3.705
87058W        W58674  17.423  12.769  13.060
87059W        W58675  40.288   4.334  10.746
87060W        W58676  33.565  22.000  12.937
87061W        W58677  10.594   5.449   2.761
87062W        W58678  34.821   4.174   2.772
87063W        W58679  33.416  26.647  10.601
87064W        W58680  30.137  12.281  11.239
87065W        W58681  10.823   9.728  13.869
87066W        W58682   3.149  25.955   2.777
87067W        W58683  41.009   2.775   3.736
87068W        W58684  43.935   3.424  12.327
87069W        W58685  36.083   8.115  12.819
87070W        W58686  18.515  22.566  12.548
87071W        W58687   8.352   0.881   3.697
87072W        W58688  25.975  27.555  10.537
87073W        W58689  17.969  27.340  13.321
87074W        W58690  14.665  41.304  10.983
87075W        W58691  34.273   1.819  14.842
87076W        W58692  39.548  26.127   1.769
87077W        W58693  43.386   4.287  14.064
87078W        W58694   3.257   9.218   0.725
87079W        W58695  40.837  25.285   4.499
87080W        W58696  36.880  17.219  14.150
87081W        W58697   6.139  12.891  14.007
87082W        W58698   1.759  12.012  13.261
87083W        W58699  15.788  26.550   2.375
87084W        W58700  11.901   0.939   1.300
87085W        W58701  32.321  24.215  14.528
87086W        W58702  17.542  28.710   1.440
87087W        W58703  15.665  25.659   3.636
87088W        W58704  43.976   9.563   3.796
87089W        W58705  21.198  30.917   1.686
87090W        W58706  11.304   6.383  13.992
87091W        W58707  39.916   9.005   2.942
87092W        W58708   1.963  31.831  14.307
87093W        W58709  26.621  27.534   4.583
87094W        W58710  38.959   9.851   0.508
87095W        W58711  35.859   6.209   3.687
87096W        W58712  39.237  34.153  14.753
87097W        W58713   0.390  36.597  13.799
87098W        W58714  32.182  10.914  12.572
87099W        W58715  23.095  19.202  12.935
87100W        W58716  23.973  21.011   2.178
87101W        W58717  42.437  36.852   1.818
87102W        W58718  25.103  25.709  11.203
87103W        W58719  40.988  43.395   1.739
87104W        W58720   3.341  34.848  11.932
87105W        W58721  26.074  40.271   0.338
87106W        W58722  40.034   7.677  13.883
87107W        W58723  20.055  34.698  13.459
87108W        W58724  32.068  18.688   2.727
87109W        W58725  28.036  25.855  11.057
87110W        W58726  17.050  37.938  12.606
87111W        W58727  16.657  44.408  10.968
87112W        W58728  22.133  17.868  10.318
87113W        W58729  44.581  19.579   4.570
87114W        W58730  43.453  41.690  13.931
87115W        W58731   9.924  13.120   4.930
87116W        W58732  32.493  10.049   2.646
87117W        W58733  23.473  44.426   0.863
87118W        W58734  28.588  38.478  12.107
87119W        W58735  21.486  44.826   3.691
87120W        W58736  12.031   5.950   3.761
87121W        W58737  28.972  33.499   3.209
87122W        W58738   8.204  35.834  14.370
87123W        W58739  14.793  43.782  11.919
87124W        W58740  14.938  36.096   3.822
87125W        W58741   7.441  16.282  11.214
87126W        W58742   1.841  40.951  14.470
87127W        W58743   5.097  14.176   1.447
87128W        W58744  22.439  10.108  12.716
87129W        W58745  31.443  37.937  10.538
87130W        W58746  28.009  40.550  12.075
87131W        W58747  10.374  34.353  10.534
87132W        W58748  17.693  44.188  12.423
87133W        W58749  40.061  34.453   0.573
87134W        W58750  44.528  19.006  13.414
87135W        W58751  39.785  13.091   1.226
87136W        W58752  36.216  10.580  13.048
87137W        W58753  32.452   9.910  12.989
87138W        W58754  14.657  10.190   4.165
87139W        W58755  39.294  11.389  13.896
87140W        W58756  12.828  18.310   2.306
87141W        W58757  19.072  21.645   0.668
87142W        W58758  41.798   1.919  10.752
87143W        W58759  40.232  35.962  13.868
87144W        W58760  19.277  26.059  14.442
87145W        W58761  28.638  42.365  11.484
87146W        W58762  14.327  29.448   1.167
87147W        W58763   9.267   7.778   4.256
87148W        W58764  18.805  40.413   0.433
87149W        W58765  29.059  32.142   3.685
87150W        W58766   2.723  16.140   0.901
87151W        W58767  18.269  21.221  14.773
87152W        W58768  35.671   1.013  11.513
87153W        W58769  25.048  30.666   0.294
87154W        W58770  31.442   1.430   0.163
87155W        W58771  16.843  42.902  13.558
87156W        W58772   7.093   0.825   5.423
87157W        W58773  20.885  24.497  11.173
87158W        W58774  22.943  18.639  10.146
87159W        W58775  32.510  22.728  11.113
87160W        W58776  13.391  15.983   0.371
87161W        W58777  22.332  13.788  12.672
87162W        W58778  38.957  32.161   3.606
87163W        W58779  14.028  33.866   1.303
87164W        W58780   6.870  14.035  14.906
87165W        W58781  17.738   2.161  14.315
87166W        W58782  40.967  37.493   4.535
87167W        W58783  26.515  20.818   1.926
87168W        W58784  27.942  23.192   2.277
87169W        W58785   0.397   6.425  13.902
87170W        W58786  14.929  28.793  10.219
87171W        W58787  10.421  20.577   2.818
87172W        W58788  40.687  41.600   0.387
87173W        W58789   8.461  15.684   0.370
87174W        W58790  28.069  36.984  11.300
87175W        W58791  41.450  35.852   2.508
87176W        W58792  32.367  11.628   0.348
87177W        W58793  10.701  16.066  10.709
87178W        W58794  44.892  35.431  12.968
87179W        W58795   8.729  43.297  13.761
87180W        W58796  33.524  25.517  13.290
87181W        W58797  21.631  29.455   2.155
87182W        W58798  38.259  42.352  13.990
87183W        W58799  38.809  26.698   0.417
87184W        W58800  31.558  25.550   0.480
87185W        W58801  24.084  22.689  10.625
87186W        W58802  24.256  26.350   0.190
87187W        W58803  15.069  32.124   3.193
87188W        W58804  25.706  40.410  14.223
87189W        W58805  38.396  13.701  14.115
87190W        W58806  10.592  20.722   1.273
87191W        W58807   8.703  16.629   3.555
87192W        W58808  16.229  31.880  13.582
87193W        W58809  20.546  17.294  13.299
87194W        W58810  16.354   5.308   0.022
87195W        W58811  40.147  11.372  13.341
87196W        W58812  38.469  37.823   1.353
87197W        W58813  18.252  36.010  14.547
87198W        W58814   9.848  44.498  13.014
87199W        W58815  31.770  40.549  12.571
87200W        W58816   0.685   8.133   0.486
87201W        W58817  25.570  12.669  12.205
87202W        W58818   6.338   1.046  11.875
87203W        W58819   3.891  13.649   3.230
87204W        W58820  18.164  22.573  10.405
87205W        W58821  19.257  21.766   2.257
87206W        W58822   9.930  19.646   0.934
87207W        W58823  38.298  39.682   2.872
87208W        W58824   9.791  36.964  14.898
87209W        W58825   2.831  35.379   3.173
87210W        W58826   4.714  12.691   0.249
87211W        W58827   1.394  37.106   2.607
87212W        W58828  44.447   2.392   1.027
87213W        W58829  32.717  17.335  13.671
87214W        W58830  39.446  34.296  12.973
87215W        W58831  26.042  28.959  10.959
87216W        W58832   7.340  30.688   1.627
87217W        W58833  34.291  34.637  11.547
87218W        W58834  22.315  27.210   3.715
87219W        W58835   9.466   2.260   0.288
87220W        W58836  26.962  32.263  11.928
87221W        W58837  39.516   5.636  13.517
87222W        W58838   4.721  32.149  14.566
87223W        W58839   5.090   8.225   0.449
87224W        W58840  23.570  32.908   4.307
87225W        W58841   9.901  35.284  12.107
87226W        W58842  39.623  25.704  10.758
87227W        W58843  17.411  17.156  10.871
87228W        W58844  18.250  32.906  11.106
87229W        W58845  13.719  25.492   2.761
87230W        W58846   6.820  35.140  11.029
87231W        W58847  31.029  11.730  14.313
87232W        W58848  31.995   1.787  14.110
87233W        W58849   8.449  39.210  11.445
87234W        W58850  34.911  11.573   0.357
87235W        W58851  41.423   0.331   2.910
87236W        W58852  38.884  41.063   1.303
87237W        W58853   3.787   7.033  13.577
87238W        W58854  31.519   3.201  14.353
87239W        W58855  21.567  43.569   4.257
87240W        W58856  13.181  17.304   1.455
87241W        W58857  36.513  38.820  14.633
87242W        W58858  43.361  13.156   2.144
87243W        W58859   0.546  25.641  11.268
87244W        W58860   6.071  34.061  11.912
87245W        W58861  14.259  21.595   1.982
87246W        W58862   9.938   5.283   1.044
87247W        W58863  16.591  26.403  11.603
87248W        W58864   8.447  25.192  13.927
87249W        W58865  42.316  26.428   4.182
87250W        W58866  16.241  17.575   2.593
87251W        W58867  15.054  35.808  13.307
87252W        W58868  25.208  10.633  11.519
87253W        W58869  14.630  16.259   2.277
87254W        W58870  15.728  20.716   9.980
87255W        W58871  28.589  22.247  13.049
87256W        W58872  15.160  11.628  11.563
87257W        W58873  10.072  10.095  12.451
87258W        W58874  26.933  18.750   4.579
87259W        W58875   7.302   5.497   2.362
87260W        W58876  21.044  41.511   3.580
87261W        W58877  35.798   4.548  11.219
87262W        W58878  32.039  31.894  12.408
87263W        W58879  20.749  37.206  12.963
87264W        W58880   3.893  33.490   1.892
87265W        W58881  43.828  35.036  12.612
87266W        W58882  44.630  12.348  14.583
87267W        W58883  25.553   0.815  10.567
87268W        W58884  11.858  29.199  11.162
87269W        W58885  35.893  16.373  14.113
87270W        W58886  17.331  18.040  12.651
87271W        W58887  29.955  25.269   2.733
87272W        W58888  23.629  19.184  11.067
87273W        W58889  19.132   8.940   3.047
87274W        W58890  37.985  31.917   0.961
87275W        W58891  21.615   5.338   0.571
87276W        W58892  42.936  28.548   2.876
87277W        W58893  41.922  16.422   1.563
87278W        W58894  39.437  35.406   1.913
87279W        W58895  14.431  34.439   2.733
87280W        W58896  22.229  42.877   2.203
87281W        W58897  11.787  27.372  11.462
87282W        W58898  18.889   6.190   4.241
87283W        W58899  23.611  13.353   3.535
87284W        W58900  10.313  44.423   3.731
87285W        W58901  12.721  39.540   1.845
87286W        W58902  35.033  23.436   2.907
87287W        W58903  12.265  35.351   2.169
87288W        W58904  23.418  23.452  12.060
87289W        W58905   8.756  15.168   2.900
87290W        W58906  12.266  24.023  13.760
87291W        W58907  19.121   0.333  12.914
87292W        W58908  38.753  37.481   1.940
87293W        W58909  12.957  37.352   3.546
87294W        W58910  16.942  17.773  12.867
87295W        W58911   5.557   5.601   2.206
87296W        W58912   6.434   0.497   4.622
87297W        W58913   6.715  36.459  12.851
87298W        W58914  25.441  28.855  11.247
87299W        W58915  39.773  34.298   2.060
87300W        W58916   0.944  27.007  14.978
87301W        W58917  24.241  33.035   2.284
87302W        W58918  21.926   9.881  13.204
87303W        W58919  43.858   1.745  12.016
87304W        W58920  44.791   1.560   3.768
87305W        W58921  16.714  10.590  14.963
87306W        W58922  30.669  19.662  12.462
87307W        W58923  38.397   1.626  14.978
87308W        W58924  20.514  33.650  11.564
87309W        W58925   9.616   9.089  14.404
87310W        W58926  18.999  28.981   4.356
87311W        W58927  37.678   8.863  13.059
87312W        W58928  23.817   7.938  11.649
87313W        W58929   0.222  37.359   2.088
87314W        W58930  26.091  29.461   0.127
87315W        W58931  31.513  33.150   2.283
87316W        W58932  10.880  37.920   4.973
87317W        W58933  28.914  33.459  14.926
87318W        W58934  42.271  19.320  14.374
87319W        W58935   8.912  12.326   2.650
87320W        W58936  31.615  43.857  14.437
87321W        W58937  43.187   6.732  12.170
87322W        W58938  10.818  29.500   1.374
87323W        W58939  35.444  21.525  14.859
87324W        W58940  43.589  43.975   0.303
87325W        W58941  14.232  33.538  14.983
87326W        W58942   4.168  22.457   4.164
87327W        W58943  36.869  20.221  10.532
87328W        W58944  13.326  29.123   0.035
87329W        W58945  40.960   4.298   4.749
87330W        W58946  43.014   1.388  11.010
87331W        W58947  10.426  13.139   3.279
87332W        W58948  19.927  43.219   4.967
87333W        W58949  28.160  28.200   3.922
87334W        W58950  13.849   9.336  13.552
87335W        W58951  31.347  20.046  13.344
87336W        W58952  28.644   3.311  10.896
87337W        W58953  27.898  19.746   1.889
87338W        W58954   9.771  24.114  10.736
87339W        W58955   4.681  24.808   5.521
87340W        W58956  31.551  29.966  10.086
87341W        W58957   2.170  11.773   4.435
87342W        W58958  26.083  27.268   3.089
87343W        W58959   9.072   1.775   2.115
87344W        W58960  23.245   9.105   2.437
87345W        W58961  10.895  10.151   1.081
87346W        W58962  40.526   4.244  14.727
87347W        W58963  17.308   7.879  10.937
87348W        W58964  41.504  31.604  12.491
87349W        W58965  13.653   0.245   0.465
87350W        W58966  26.066  33.593  14.505
87351W        W58967   0.474  19.309   0.853
87352W        W58968  34.544   4.692   3.213
87353W        W58969   0.428  30.665   1.803
87354W        W58970  30.123  27.597   4.101
87355W        W58971  36.418  36.045   3.156
87356W        W58972  28.192  28.353  14.336
87357W        W58973  18.204  39.897   0.717
87358W        W58974  40.079  23.902   1.928
87359W        W58975  26.137  24.232   3.512
87360W        W58976  28.366  40.999  14.770
87361W        W58977  37.553   6.818   2.305
87362W        W58978  16.817   1.822   2.551
87363W        W58979   5.198   2.430  10.922
87364W        W58980  13.498  22.535   4.262
87365W        W58981   4.316   6.103   1.524
87366W        W58982   6.705  32.273   2.392
87367W        W58983  35.393  19.337  11.062
87368W        W58984  29.748   2.933  12.733
87369W        W58985  11.532  44.292  14.405
87370W        W58986  28.445   1.048  11.731
87371W        W58987  31.590   2.726   1.153
87372W        W58988  44.794   8.000  12.449
87373W        W58989  37.164  14.200  12.351
87374W        W58990  16.295  13.135   3.284
87375W        W58991  25.565  33.469  14.651
87376W        W58992  32.260  31.044   3.615
87377W        W58993  42.092  16.198  11.636
87378W        W58994  19.272  32.964   3.331
87379W        W58995   0.680  44.374  10.660
87380W        W58996   0.937  36.115   2.745
87381W        W58997  30.152   3.324   2.130
87382W        W58998  30.324  17.421   1.924
87383W        W58999   8.754   9.908  10.652
87384W        W59000  30.594  44.714   2.233
87385W        W59001  26.539   6.334  14.330
87386W        W59002  44.861  27.208   1.222
87387W        W59003  10.316  19.465   4.808
87388W        W59004  11.257  37.389  10.868
87389W        W59005  29.800  33.888  11.631
87390W        W59006  28.443  44.020  13.535
87391W        W59007  14.908  42.528  10.675
87392W        W59008  18.109  25.018   1.916
87393W        W59009  18.322  43.189   3.194
87394W        W59010  26.912  25.208   2.175
87395W        W59011  25.181  10.122  11.523
87396W        W59012  25.547   7.311   2.250
87397W        W59013  25.221  25.601   1.739
87398W        W59014  12.770  16.591  11.060
87399W        W59015  19.905   5.342  13.422
87400W        W59016  34.323  29.081  12.480
87401W        W59017  42.667  38.472   5.188
87402W        W59018  41.585  32.478  12.297
87403W        W59019  38.609  20.818  12.580
87404W        W59020  26.754  18.698   5.123
87405W        W59021  41.079  44.492  11.106
87406W        W59022   9.694  32.901   4.756
87407W        W59023  14.834  27.290  12.147
87408W        W59024  39.752  42.823  12.019
87409W        W59025  11.868  13.200   4.553
87410W        W59026  22.663  39.339  12.942
87411W        W59027  42.239  14.066   3.124
87412W        W59028  31.970  39.511  11.687
87413W        W59029  25.023  40.480   0.844
87414W        W59030  25.390  33.396   4.186
87415W        W59031  24.589  20.102   3.895
87416W        W59032  19.239  14.356   2.598
87417W        W59033  13.567  36.055  14.979
87418W        W59034   9.552  40.735   2.392
87419W        W59035  23.543  39.218  13.849
87420W        W59036  28.479  24.113  10.985
87421W        W59037  10.549  27.719  12.117
87422W        W59038  44.426  22.009  11.212
87423W        W59039  40.759  31.513   0.860
87424W        W59040  20.177  18.769  14.312
87425W        W59041   4.244  10.841   4.069
87426W        W59042  27.523  38.123  12.043
87427W        W59043  39.341  31.243  10.617
87428W        W59044  15.896  22.732  10.943
87429W        W59045  29.534   7.230  13.539
87430W        W59046  19.548  30.467  14.813
87431W        W59047  41.591  23.657  10.596
87432W        W59048  19.706  17.485  11.554
87433W        W59049   0.378  33.902  11.406
87434W        W59050  25.446  14.319  12.884
87435W        W59051  43.672   1.989   0.978
87436W        W59052  24.383  38.399  14.805
87437W        W59053  28.081  16.546   1.913
87438W        W59054  36.110  32.006   3.640
87439W        W59055  13.348  43.513  13.862
87440W        W59056  12.397  39.610  12.791
87441W        W59057  20.592  26.430  13.395
87442W        W59058  16.039  27.162  10.748
87443W        W59059  29.697  15.252  14.009
87444W        W59060   8.921   7.429   2.917
87445W        W59061   4.452  43.250   3.203
87446W        W59062  29.449  41.477   2.470
87447W        W59063  34.972   1.201   2.928
87448W        W59064  14.357   6.777   2.729
87449W        W59065  16.806  14.481  13.579
87450W        W59066  40.898  13.611   1.930
87451W        W59067  19.617  13.392   1.604
87452W        W59068  28.007   8.865   0.948
87453W        W59069  41.334  34.525   2.881
87454W        W59070  26.587  40.346   3.858
87455W        W59071  20.909  36.654  13.371
87456W        W59072  18.501  27.114   2.734
87457W        W59073  16.586  17.329  11.131
87458W        W59074  22.236  31.662   1.316
87459W        W59075   7.817  23.167   3.217
87460W        W59076   9.190   6.432   0.934
87461W        W59077   9.851  28.551   1.148
87462W        W59078  33.544  30.192   0.385
87463W        W59079  31.952  27.536   0.119
87464W        W59080   7.850   7.435  13.358
87465W        W59081  44.885  18.870   3.830
87466W        W59082  15.955  13.174  11.147
87467W        W59083  39.950  31.242   1.184
87468W        W59084  33.141   1.378   4.616
87469W        W59085  27.985  13.261   2.596
87470W        W59086  26.985  25.558  11.184
87471W        W59087  10.186   9.554   2.023
87472W        W59088  28.238  30.657   2.893
87473W        W59089  29.455  14.905   3.706
87474W        W59090  41.274  33.414   1.983
87475W        W59091  16.553  15.718   1.448
87476W        W59092  41.322  24.735  10.665
87477W        W59093  30.352   9.414  12.391
87478W        W59094  23.520  31.228   2.679
87479W        W59095  38.845   8.361  10.699
87480W        W59096   3.726  37.985   3.174
87481W        W59097  25.221  36.781  14.442
87482W        W59098  35.923  36.156  12.466
87483W        W59099  41.096  16.409   4.025
87484W        W59100  21.222  37.537  14.203
87485W        W59101  34.476  34.988   2.750
87486W        W59102  25.688  16.790   3.346
87487W        W59103  28.625  37.851  13.956
87488W        W59104  14.836   9.182  14.707
87489W        W59105   4.711   6.957   0.212
87490W        W59106  36.367  38.063  10.725
87491W        W59107  37.914   3.138  13.822
87492W        W59108  31.392   1.946  12.373
87493W        W59109  24.759  39.102   0.946
87494W        W59110   7.921  22.768  10.425
87495W        W59111  27.522  39.506   0.495
87496W        W59112  27.970   6.893   4.602
87497W        W59113  23.335  18.597  12.154
87498W        W59114   2.652  20.965   4.753
87499W        W59115  22.545  37.054  13.890
87500W        W59116  24.339   0.426   2.250
87501W        W59117   1.909  41.037   1.040
87502W        W59118  25.656  10.374  13.889
87503W        W59119   9.292  35.144   1.378
87504W        W59120  44.796  38.936   4.561
87505W        W59121   8.202  26.442   3.624
87506W        W59122  30.901  33.188   2.714
87507W        W59123  42.305  36.887   4.810
87508W        W59124  26.665  14.379  10.514
87509W        W59125  20.701  32.869   1.699
87510W        W59126  43.450  19.424  12.527
87511W        W59127  14.561  12.285  11.572
87512W        W59128  37.866  26.909  11.935
87513W        W59129   5.410  20.539  12.123
87514W        W59130   9.357   9.659   0.650
87515W        W59131  39.960   0.665   0.793
87516W        W59132  27.084  24.595   0.892
87517W        W59133  13.614  23.005   4.483
87518W        W59134   6.027  22.133  11.387
87519W        W59135  36.056  23.053   0.899
87520W        W59136  38.787  10.360   4.741
87521W        W59137  12.888  38.031  10.558
87522W        W59138  24.760  19.093   0.171
87523W        W59139  30.220   4.471  14.880
87524W        W59140  34.078  33.139   4.035
87525W        W59141  28.202  16.736  11.580
87526W        W59142   0.900  43.913  12.913
87527W        W59143  41.367  22.655  10.713
87528W        W59144  41.728   4.821  10.350
87529W        W59145  25.740  36.116  14.073
87530W        W59146  36.347   4.717  13.963
87531W        W59147  34.331  10.373   0.749
87532W        W59148  23.555   1.751  11.943
87533W        W59149  28.919  13.152   4.086
87534W        W59150   1.867   8.770  12.571
87535W        W59151  19.465  29.938   3.258
87536W        W59152  27.222  29.981   2.742
87537W        W59153  13.342   0.510   0.173
87538W        W59154  12.258  34.383  10.935
87539W        W59155   5.763   5.185  11.466
87540W        W59156  15.356  35.693   2.941
87541W        W59157  32.413  43.630   9.786
87542W        W59158  16.703  30.436   4.737
87543W        W59159  32.127  20.033   0.013
87544W        W59160  33.531  15.799   3.230
87545W        W59161  28.083  35.420  10.012
87546W        W59162  25.196   6.429  14.288
87547W        W59163  22.561   2.756   1.312
87548W        W59164  15.821  43.438  10.771
87549W        W59165  16.016  37.546  14.363
87550W        W59166  13.417  19.094   3.128
87551W        W59167  19.576   4.488   1.684
87552W        W59168  43.547  19.750  14.823
87553W        W59169  21.586   5.693  10.416
87554W        W59170  28.230   9.220  13.406
87555W        W59171   8.398  13.799   1.410
87556W        W59172  25.999  27.696  11.936
87557W        W59173  21.230   4.764  11.623
87558W        W59174   6.736   2.430   2.792
87559W        W59175   0.764  36.092  13.855
87560W        W59176  34.235  28.697   4.198
87561W        W59177  19.178   3.163   1.690
87562W        W59178  11.890  28.292   2.367
87563W        W59179  36.412  35.824  10.841
87564W        W59180   4.212  17.704  14.391
87565W        W59181   2.016   5.332  12.601
87566W        W59182  23.922  26.289  13.451
87567W        W59183  39.102  35.037  12.655
87568W        W59184  35.362   3.513  14.265
87569W        W59185  17.726  29.872  11.586
87570W        W59186   5.199   8.161  10.970
87571W        W59187  17.750  24.721   3.199
87572W        W59188  41.845  25.454  13.357
87573W        W59189  12.118   0.917   4.616
87574W        W59190  14.442  29.101  13.390
87575W        W59191  25.784  22.176   2.363
87576W        W59192   7.197  20.164  13.459
87577W        W59193   0.818   0.791   0.452
87578W        W59194  36.698   0.836   1.015
87579W        W59195  32.012  29.258  10.905
87580W        W59196  22.310  24.614  13.362
87581W        W59197  33.894  15.156  10.778
87582W        W59198   7.285  28.877   1.454
87583W        W59199  28.451   7.388   3.752
87584W        W59200  34.842   0.691  13.508
87585W        W59201  14.369  31.914   2.412
87586W        W59202  38.111  29.216   1.294
87587W        W59203  31.413  30.105  11.049
87588W        W59204   7.405  39.752   2.713
87589W        W59205  20.778   8.210   4.142
87590W        W59206  24.984   8.223  11.738
87591W        W59207  33.399  36.790  11.501
87592W        W59208   4.309  16.181  13.055
87593W        W59209  31.526   3.651  11.485
87594W        W59210   2.645  44.306   2.285
87595W        W59211   1.993  21.963   0.191
87596W        W59212  21.493  40.106   1.280
87597W        W59213  30.048  27.668  13.296
87598W        W59214   4.556  42.598  11.619
87599W        W59215   8.206   1.756   3.283
87600W        W59216  13.411  27.280   1.291
87601W        W59217  10.822  33.242  10.072
87602W        W59218  37.372   8.856   4.624
87603W        W59219  33.001  26.631   2.436
87604W        W59220  26.247  37.418   2.074
87605W        W59221  27.698   3.233   3.526
87606W        W59222  34.946  23.552  13.360
87607W        W59223  39.050  26.488   4.619
87608W        W59224  33.491  39.872   2.447
87609W        W59225  18.723  42.265   3.351
87610W        W59226  21.241  37.097   1.003
87611W        W59227  26.125  27.907   2.448
87612W        W59228   4.479  21.329  13.391
87613W        W59229  14.689   8.681   4.970
87614W        W59230  42.302  33.855   3.808
87615W        W59231  25.635   7.339   0.759
87616W        W59232  18.628  27.772  14.936
87617W        W59233  15.667  17.714  14.033
87618W        W59234   3.834  18.615   2.271
87619W        W59235   6.919  12.289  14.065
87620W        W59236  32.478  25.089   0.354
87621W        W59237  27.470  34.926   2.326
87622W        W59238  23.141   8.455   0.386
87623W        W59239  24.003  13.683  10.305
87624W        W59240  41.853   3.253   4.180
87625W        W59241  43.187   2.743   2.858
87626W        W59242   9.283   7.692  14.279
87627W        W59243   7.759  41.042   2.706
87628W        W59244   0.017  26.394   4.095
87629W        W59245  16.292  18.626  13.970
87630W        W59246  35.971  16.467   4.263
87631W        W59247  13.396   7.492  13.401
87632W        W59248  28.289  24.991  11.097
87633W        W59249  12.782  25.311  11.637
87634W        W59250   0.213   4.487   3.758
87635W        W59251   1.811  36.558   2.316
87636W        W59252   7.135  18.760  11.081
87637W        W59253  35.581  20.722   4.218
87638W        W59254   0.399  35.283  13.000
87639W        W59255  10.203  35.089   4.458
87640W        W59256   6.040  23.724   3.155
87641W        W59257  10.760  15.296  12.486
87642W        W59258  18.199  23.523  12.409
87643W        W59259  39.822  32.123   0.730
87644W        W59260  14.197   2.997  14.868
87645W        W59261  34.433  44.054   1.873
87646W        W59262  20.988   2.700   1.346
87647W        W59263   6.197  41.839  10.694
87648W        W59264  19.293  19.680   1.886
87649W        W59265   9.520  37.965  12.532
87650W        W59266  24.985  34.081   3.750
87651W        W59267  39.010  20.519  14.387
87652W        W59268  30.808  13.139  11.606
87653W        W59269   9.615   2.936  14.018
87654W        W59270  19.684  39.838  13.464
87655W        W59271   5.405  28.091   0.518
87656W        W59272  40.973  22.283   3.232
87657W        W59273  40.087  38.971  12.647
87658W        W59274  26.515  41.605   1.445
87659W        W59275  31.555   7.006  14.815
87660W        W59276  12.318  13.668  14.858
87661W        W59277   7.790   2.626   2.377
87662W        W59278  18.695   5.826  13.488
87663W        W59279  40.722  37.202   3.201
87664W        W59280   6.824   7.736   3.410
87665W        W59281  20.606  43.814  11.803
87666W        W59282  19.484  21.417   1.005
87667W        W59283  36.111   4.716  12.157
87668W        W59284   7.217  43.853  13.876
87669W        W59285  16.757  40.777  11.670
87670W        W59286  12.629  44.957   2.213
87671W        W59287  27.465  30.919  12.166
87672W        W59288  17.481  36.631  11.921
87673W        W59289  25.477  19.832  13.481
87674W        W59290  38.466  32.515   2.242
87675W        W59291   9.607  43.243   3.129
87676W        W59292   6.623  44.978   4.580
87677W        W59293  11.421  17.766   0.383
87678W        W59294  11.255  15.225  12.326
87679W        W59295  25.651  32.794  14.074
87680W        W59296  23.277  37.047   1.434
87681W        W59297  14.615  18.713  13.174
87682W        W59298   5.721  28.468   4.522
87683W        W59299   2.418  41.020  11.562
87684W        W59300  18.326  26.522   2.874
87685W        W59301  22.427   5.039  10.403
87686W        W59302  43.869  23.191  13.655
87687W        W59303  17.330  35.361   4.689
87688W        W59304  21.204  22.599  13.804
87689W        W59305  14.232  34.626   1.460
87690W        W59306  36.782  39.140   1.352
87691W        W59307  19.779  35.136   2.077
87692W        W59308  18.761  29.388  13.518
87693W        W59309   2.513  19.733  11.529
87694W        W59310  11.049   8.037  11.042
87695W        W59311  36.370  38.767  11.964
87696W        W59312  28.561  22.609   1.885
87697W        W59313   7.194  19.180  11.661
87698W        W59314   3.827  12.226   0.843
87699W        W59315   6.132  43.973   4.555
87700W        W59316  10.593  27.449   4.373
87701W        W59317  27.588  20.107   2.575
87702W        W59318   4.978  35.890   3.874
87703W        W59319  28.120  15.524   0.948
87704W        W59320   1.271  38.739   3.643
87705W        W59321  26.523  19.600  13.422
87706W        W59322   3.396  16.696  10.331
87707W        W59323  26.568  11.086  14.325
87708W        W59324  29.372  24.984  10.268
87709W        W59325   0.513  39.531  13.341
87710W        W59326  18.265  33.601  12.364
87711W        W59327  34.605  10.210   0.311
87712W        W59328  38.867  40.428  12.601
87713W        W59329  13.068  19.468   2.364
87714W        W59330  11.784  10.219  11.315
87715W        W59331  10.851  38.278  14.973
87716W        W59332  12.404  25.394  14.803
87717W        W59333  24.493  39.695  13.974
87718W        W59334  14.273  23.937  14.866
87719W        W59335  22.695  30.168  14.286
87720W        W59336  25.108   7.765   3.181
87721W        W59337   8.140   6.339   0.204
87722W        W59338   8.920  42.551  13.031
87723W        W59339   4.482   9.163  11.723
87724W        W59340  21.431   1.614  11.947
87725W        W59341  17.997  11.147   3.227
87726W        W59342  41.653  38.924  12.082
87727W        W59343   1.771  21.202  11.155
87728W        W59344  21.518  41.581  14.501
87729W        W59345  36.909  13.085  11.137
87730W        W59346   8.455  16.234   4.129
87731W        W59347  22.544  15.172  11.271
87732W        W59348  13.261  32.806  10.744
87733W        W59349  25.216  16.170  12.199
87734W        W59350  36.292  12.868  12.564
87735W        W59351   4.494  18.786   0.009
87736W        W59352  16.219  30.928  13.857
87737W        W59353  10.662  14.708  14.456
87738W        W59354  14.735  21.505   2.836
87739W        W59355  38.581   0.443   4.282
87740W        W59356   7.787  22.671  14.993
87741W        W59357  37.579  20.226  14.289
87742W        W59358  41.571   7.460   3.236
87743W        W59359  28.998  41.260  13.917
87744W        W59360  31.191  11.642  12.546
87745W        W59361  17.031  24.539  11.878
87746W        W59362  40.865  26.266   4.820
87747W        W59363  34.602  10.584   4.192
87748W        W59364  32.653  25.476  13.488
87749W        W59365  18.170  21.276  13.878
87750W        W59366   6.137  26.949   2.118
87751W        W59367  29.602  11.675   3.154
87752W        W59368   5.845  11.685  11.218
87753W        W59369   4.093  36.515   1.724
87754W        W59370  15.095  19.861   3.281
87755W        W59371  21.762  20.570   0.851
87756W        W59372  26.521  31.712   2.756
87757W        W59373  36.469  13.220   0.441
87758W        W59374  21.470   9.104  12.727
87759W        W59375  30.824  19.239  13.383
87760W        W59376   2.140  39.930   3.411
87761W        W59377   3.888  25.703  13.077
87762W        W59378  28.926   3.849  11.498
87763W        W59379  42.688  33.450   0.853
87764W        W59380  32.629  22.566  13.436
87765W        W59381  19.257   7.753  13.173
87766W        W59382  40.942   4.328   0.897
87767W        W59383  13.806   4.256  10.607
87768W        W59384  23.977  17.080   2.332
87769W        W59385  21.303  38.548  12.298
87770W        W59386   6.181  39.926  11.158
87771W        W59387  31.574  26.321  13.619
87772W        W59388  37.947  38.348   0.825
87773W        W59389  20.790  42.018   5.064
87774W        W59390  23.001  30.632  13.836
87775W        W59391  28.309  18.071   2.600
87776W        W59392  37.876  10.142   5.411
87777W        W59393  25.249  15.722  14.430
87778W        W59394  19.438  23.991  12.553
87779W        W59395   1.814   1.307  12.636
87780W        W59396  43.992  19.029  10.809
87781W        W59397  12.567  14.726   1.756
87782W        W59398  20.105   1.230  12.528
87783W        W59399   6.621  18.373   0.372
87784W        W59400  19.422  31.688  10.544
87785W        W59401  20.768   9.437  11.130
87786W        W59402  32.018  15.360  14.271
87787W        W59403   2.108  23.726   3.838
87788W        W59404  22.503  15.734  13.429
87789W        W59405   4.696  44.436   1.106
87790W        W59406   7.844  43.290  10.426
87791W        W59407  17.617   6.366  10.500
87792W        W59408  22.312  30.720  12.465
87793W        W59409  42.352   1.807  10.408
87794W        W59410  41.646  30.069  10.839
87795W        W59411  13.417   4.056  10.875
87796W        W59412   3.613   8.375   0.279
87797W        W59413  15.168  17.906   0.267
87798W        W59414   4.216  20.245  12.409
87799W        W59415  11.457  21.088   5.055
87800W        W59416  25.181  20.804   3.772
87801W        W59417  17.739  33.545   1.467
87802W        W59418  42.094  43.864   2.691
87803W        W59419  13.796  26.599  14.576
87804W        W59420  33.518  19.535   4.977
87805W        W59421  13.284  24.176  12.001
87806W        W59422  30.711  30.483  11.027
87807W        W59423  40.912  22.754   4.098
87808W        W59424  43.454  22.359  11.094
87809W        W59425   0.249  43.278   1.253
87810W        W59426  17.698  13.553  12.446
87811W        W59427  34.363  38.242  14.482
87812W        W59428   9.146  10.844   4.851
87813W        W59429  43.937  21.178  13.618
87814W        W59430   7.420  33.692   4.328
87815W        W59431  33.042  13.176  13.991
87816W        W59432  21.305  11.261   0.044
87817W        W59433   9.699   4.198  12.004
87818W        W59434  32.999  13.117  11.709
87819W        W59435   1.844  33.268  14.521
87820W        W59436  43.918  40.887   0.517
87821W        W59437   9.702   0.825   0.889
87822W        W59438  31.471  16.875   4.600
87823W        W59439  16.108  24.946  11.091
87824W        W59440  26.978   9.423   4.151
87825W        W59441  13.764  10.586  14.396
87826W        W59442  43.395  18.725   0.013
87827W        W59443  44.743  14.506   2.398
87828W        W59444   6.648   2.489   0.190
87829W        W59445   7.599  39.161  14.506
87830W        W59446  19.005  15.634  13.041
87831W        W59447   3.395   3.900   5.201
87832W        W59448  14.128  27.715   1.057
87833W        W59449  41.761  37.907   2.789
87834W        W59450   9.627  14.744   2.941
87835W        W59451  27.841   1.363   2.241
87836W        W59452  21.172  20.554   4.346
87837W        W59453  24.946  31.861  14.784
87838W        W59454  24.180  29.638  13.843
87839W        W59455  31.159   0.910   0.982
87840W        W59456  16.926  10.720   2.295
87841W        W59457  29.980  19.190  11.676
87842W        W59458  10.580  36.775   2.552
87843W        W59459   1.222  24.220   3.190
87844W        W59460  23.716  39.588  12.565
87845W        W59461  29.205   5.713  14.895
87846W        W59462  21.984  31.548   0.355
87847W        W59463  35.955  21.561   1.416
87848W        W59464  12.226  11.098  10.697
87849W        W59465   7.224  29.449  14.931
87850W        W59466  37.380  42.544  13.448
87851W        W59467  34.406  19.373   1.342
87852W        W59468  43.053  11.482   2.874
87853W        W59469  33.989  43.805  11.020
87854W        W59470  40.353   5.007   0.858
87855W        W59471  26.827  21.177  11.222
87856W        W59472  42.202   4.756   0.690
87857W        W59473  39.079  17.838   1.197
87858W        W59474  24.997   7.855   4.671
87859W        W59475  27.777  42.341   2.758
87860W        W59476  19.557  41.918   4.068
87861W        W59477  11.048  38.080   0.751
87862W        W59478  10.570  20.501  10.928
87863W        W59479  18.531  29.142  10.989
87864W        W59480  31.655  23.308   0.690
87865W        W59481  18.345   9.371  12.384
87866W        W59482   6.399  26.072  13.093
87867W        W59483  11.878  44.242   2.155
87868W        W59484  33.469  44.326  14.063
87869W        W59485  36.037  36.001   4.205
87870W        W59486  30.086  21.272   3.289
87871W        W59487   5.575  25.068  14.397
87872W        W59488  19.894  28.116   0.910
87873W        W59489  38.978  40.995   3.716
87874W        W59490  29.203  24.074  12.781
87875W        W59491  32.739   0.009  14.850
87876W        W59492  34.835  13.352  11.429
87877W        W59493  21.107   0.879  12.493
87878W        W59494  11.713  16.092  14.089
87879W        W59495   5.067  17.221  13.462
87880W        W59496  30.951   4.175  11.082
87881W        W59497  27.785  22.340  12.150
87882W        W59498  22.030  30.729   3.852
87883W        W59499   3.939  13.529   0.846
87884W        W59500   5.414  36.337   1.250
87885W        W59501   9.585  12.877  14.235
87886W        W59502   4.653  23.535  11.204
87887W        W59503  25.757  30.988  13.888
87888W        W59504   4.145  42.972  10.422
87889W        W59505  10.010  28.078  14.416
87890W        W59506  35.907  30.166  12.416
87891W        W59507  16.099   9.017  13.465
87892W        W59508  21.254   3.774  11.333
87893W        W59509  19.697   6.623  12.888
87894W        W59510  32.594   8.638  13.536
87895W        W59511  10.738   4.947   0.391
87896W        W59512  34.203  25.951   0.323
87897W        W59513  26.172   0.442  12.497
87898W        W59514  31.194  33.507  13.501
87899W        W59515  36.569  30.682   3.146
87900W        W59516  30.686  32.543   0.393
87901W        W59517   1.496   7.766  11.584
87902W        W59518  38.084  33.923   0.303
87903W        W59519   1.976  28.600  11.757
87904W        W59520  13.714  21.694   1.187
87905W        W59521  33.877  15.210  14.315
87906W        W59522   2.367   1.441  13.217
87907W        W59523   9.708  28.542   0.147
87908W        W59524   0.896  19.086   3.244
87909W        W59525  27.322  19.141   2.202
87910W        W59526  36.007  40.822  11.336
87911W        W59527  36.402  36.266  11.117
87912W        W59528  18.365   5.592   3.173
87913W        W59529   0.887  38.147   2.799
87914W        W59530  19.088  11.924  12.858
87915W        W59531  15.248  33.161   3.275
87916W        W59532  34.067  38.402  10.339
87917W        W59533  27.674  23.648  11.274
87918W        W59534  22.040   3.447   3.552
87919W        W59535  39.826  22.523   3.708
87920W        W59536   0.452  20.223  11.989
87921W        W59537  32.979  39.261   1.349
87922W        W59538  44.483   7.882   2.855
87923W        W59539   0.333  23.543   2.611
87924W        W59540  21.161  15.835   3.696
87925W        W59541  26.195  17.802  13.842
87926W        W59542   4.229  41.068  14.282
87927W        W59543  37.667  40.729  14.566
87928W        W59544  17.813  43.319  13.395
87929W        W59545   0.462  38.560   0.862
87930W        W59546   4.409  44.707   4.164
87931W        W59547  15.200  24.181  14.979
87932W        W59548   3.776  25.882   3.606
87933W        W59549  39.107  31.720  10.685
87934W        W59550  42.698  43.929   2.268
87935W        W59551  30.691  40.361  12.932
87936W        W59552  39.448   5.277   0.281
87937W        W59553  16.342  33.077   1.227
87938W        W59554  23.530   1.014   2.642
87939W        W59555   8.368  16.730  13.832
87940W        W59556  40.301  39.422   3.203
87941W        W59557  37.483  31.964   0.872
87942W        W59558  42.969  21.962  13.049
87943W        W59559  10.604  41.901  12.988
87944W        W59560  27.274  16.767  10.665
87945W        W59561   7.748   9.282   0.950
87946W        W59562  42.317  17.257  14.081
87947W        W59563  42.041  31.777  14.811
87948W        W59564  20.225  21.135  12.984
87949W        W59565  41.846  16.014   3.883
87950W        W59566   8.802  14.080   0.210
87951W        W59567  38.309  15.162   2.663
87952W        W59568  12.989  40.514  12.808
87953W        W59569  27.614   8.944  12.875
87954W        W59570  37.856  18.826  12.915
87955W        W59571  22.871  16.246   0.290
87956W        W59572  43.720  20.307  13.425
87957W        W59573  19.322   8.835  10.844
87958W        W59574  31.696  21.722  14.035
87959W        W59575  15.765   8.612  13.370
87960W        W59576  35.057  10.715  13.772
87961W        W59577   7.829  21.151   3.697
87962W        W59578  24.638  23.376   4.606
87963W        W59579  14.704  34.844   2.577
87964W        W59580  16.321  22.134  13.378
87965W        W59581   9.656  24.216   0.403
87966W        W59582   9.832  39.842   2.025
87967W        W59583  40.383  40.142   2.426
87968W        W59584  29.661   1.675   4.550
87969W        W59585  42.070  16.114  12.412
87970W        W59586  10.297  12.944  13.939
87971W        W59587  27.380  13.073   5.026
87972W        W59588  21.699  24.042  13.964
87973W        W59589  26.639   7.700  13.866
87974W        W59590  22.988  13.814   3.280
87975W        W59591  11.263  14.245  12.860
87976W        W59592  44.211  28.387   3.315
87977W        W59593  31.379  41.412   4.236
87978W        W59594  20.203  24.013   0.011
87979W        W59595  30.511  23.820  11.503
87980W        W59596  17.804  24.128  14.962
87981W        W59597  14.280   5.700  13.982
87982W        W59598  35.049  21.672   0.349
87983W        W59599  29.859   6.812  14.345
87984W        W59600   0.867  44.599  13.672
87985W        W59601  33.578   5.231  13.132
87986W        W59602   9.723  30.189  12.631
87987W        W59603  38.930  38.755   0.880
87988W        W59604  33.370  33.518   2.419
87989W        W59605  19.834  31.424   3.969
87990W        W59606   8.722   1.019   4.074
87991W        W59607  23.057  30.511   1.979
87992W        W59608   7.755  32.173   2.203
87993W        W59609  41.571  16.209  11.566
87994W        W59610  38.928  31.581   0.280
87995W        W59611   7.651  41.527   2.880
87996W        W59612  34.024  37.505   3.158
87997W        W59613  18.338  10.324  12.928
87998W        W59614  36.765  37.044   3.966
87999W        W59615  17.377  31.604  14.424
88000W        W59616  32.666  24.553  13.441
88001W        W59617  17.062   8.705   0.833
88002W        W59618   8.483   9.714   3.727
88003W        W59619  32.363  24.033  12.628
88004W        W59620   0.059   7.260   4.588
88005W        W59621  24.047   8.386   0.325
88006W        W59622  17.149  39.305   3.290
88007W        W59623  27.097   8.860   3.140
88008W        W59624   2.966  13.605   3.104
88009W        W59625  23.248  27.977  11.203
88010W        W59626  19.572  31.259  11.491
88011W        W59627  19.174  29.095   3.365
88012W        W59628   0.214   5.834   2.763
88013W        W59629  12.459  12.245   2.680
88014W        W59630  29.656  17.800   0.900
88015W        W59631  18.542   6.605   4.138
88016W        W59632  25.900  16.288   3.327
88017W        W59633  20.487  44.312   2.654
88018W        W59634  21.652  38.120  14.855
88019W        W59635  17.775  23.715  12.582
88020W        W59636  12.358   4.844   1.833
88021W        W59637  25.835  14.025  10.185
88022W        W59638  42.929  39.300  14.041
88023W        W59639  24.040  37.559   3.010
88024W        W59640  10.825  28.666  13.475
88025W        W59641  29.067  44.001  11.107
88026W        W59642   1.976   5.420   1.212
88027W        W59643  27.413  16.267  13.941
88028W        W59644  20.781  26.532  10.600
88029W        W59645   7.701   5.498  12.052
88030W        W59646  42.531   9.356   0.393
88031W        W59647  36.967   2.252   0.288
88032W        W59648  28.691   8.804  12.284
88033W        W59649  15.796  36.140  13.501
88034W        W59650  36.215  23.834   1.319
88035W        W59651  34.887  44.087  13.878
88036W        W59652  41.290   8.461   4.101
88037W        W59653  28.196  20.141   1.718
88038W        W59654  28.074   6.099  13.594
88039W        W59655  32.101  27.613  14.010
88040W        W59656  21.209  40.058  10.122
88041W        W59657   6.953  13.168   1.366
88042W        W59658  18.286   7.015   2.465
88043W        W59659  40.853  31.701   4.207
88044W        W59660  13.858  27.000   1.163
88045W        W59661   7.354  17.543  12.151
88046W        W59662  26.694   4.996  13.426
88047W        W59663  43.608  42.289  14.809
88048W        W59664  25.231   1.493   0.904
88049W        W59665  22.098   5.810   1.709
88050W        W59666  35.372  22.137   3.155
88051W        W59667  43.879   3.419   4.571
88052W        W59668   2.652  44.026   4.581
88053W        W59669  41.208  29.434   0.817
88054W        W59670  40.036  38.082   1.358
88055W        W59671  37.405  23.116   2.619
88056W        W59672  39.338  25.175  14.722
88057W        W59673  28.189  26.091   3.894
88058W        W59674   6.852  23.026   1.474
88059W        W59675  35.629   5.523   0.363
88060W        W59676   9.862  41.124   4.683
88061W        W59677   0.259   9.188  13.440
88062W        W59678   6.107  34.843  12.584
88063W        W59679  36.543  30.029   1.043
88064W        W59680   4.412  23.911   0.681
88065W        W59681  15.793  37.093  14.249
88066W        W59682   6.246  25.558   3.051
88067W        W59683   5.451  26.428   2.353
88068W        W59684  39.379  36.430   4.616
88069W        W59685   9.103  16.254  13.896
88070W        W59686  13.068   3.503  11.548
88071W        W59687  22.205   2.253  14.940
88072W        W59688  15.965   5.889  12.766
88073W        W59689   5.231  40.819   3.613
88074W        W59690  22.486  25.919  10.098
88075W        W59691  41.456  21.655  12.501
88076W        W59692  37.337   1.267   1.629
88077W        W59693  14.270  44.042   2.109
88078W        W59694  39.037   2.459   0.780
88079W        W59695   3.348  32.524  13.726
88080W        W59696  17.655   3.302   1.350
88081W        W59697   9.300  17.720   3.030
88082W        W59698  42.815   9.040   1.336
88083W        W59699  19.016  25.490   1.113
88084W        W59700  23.785  26.223   3.881
88085W        W59701  12.158  41.872  12.898
88086W        W59702  35.259  18.638  10.613
88087W        W59703  11.792  37.744   4.274
88088W        W59704  11.615  27.189  11.961
88089W        W59705   9.134  22.414  10.362
88090W        W59706  26.064  22.577   1.031
88091W        W59707   2.897   1.984   2.656
88092W        W59708  29.253   6.858  12.943
88093W        W59709  31.370  13.767   0.824
88094W        W59710  14.147  32.946   1.314
88095W        W59711  29.932  34.119  11.149
88096W        W59712  23.148   3.704   2.017
88097W        W59713  21.016  12.717   2.710
88098W        W59714  35.549  36.531  11.587
88099W        W59715  26.496  16.628  12.564
88100W        W59716   4.348  26.394  10.620
88101W        W59717  43.556  39.400   0.827
88102W        W59718  14.152  28.449   3.219
88103W        W59719  44.234  29.750   1.447
88104W        W59720  27.427  29.951   3.224
88105W        W59721  31.872  31.287  12.083
88106W        W59722  22.292  40.901   2.844
88107W        W59723  20.347  42.843  14.088
88108W        W59724   7.712   4.546  12.088
88109W        W59725   8.689   0.323   0.229
88110W        W59726  31.863  11.203   3.760
88111W        W59727  39.033  12.426   1.340
88112W        W59728  44.151  21.739   1.370
88113W        W59729  40.101  34.912   2.648
88114W        W59730  36.720  25.278   1.510
88115W        W59731  43.751  37.848  14.797
88116W        W59732  40.348   9.499   0.987
88117W        W59733  40.515   4.763  10.954
88118W        W59734   5.644   5.798   4.729
88119W        W59735  34.477   2.294  14.922
88120W        W59736  10.851  26.221  10.731
88121W        W59737  12.477  39.441   4.892
88122W        W59738  18.881  18.287   4.681
88123W        W59739  19.718  27.039   3.373
88124W        W59740   9.723  10.719   3.725
88125W        W59741  18.654  16.418  11.363
88126W        W59742  12.236  43.448  13.426
88127W        W59743  25.322  18.926   2.176
88128W        W59744  29.038  33.741  10.499
88129W        W59745  25.181  38.598  11.111
88130W        W59746   4.393   8.942   3.774
88131W        W59747  16.229   5.730   3.291
88132W        W59748  25.948   9.319  13.492
88133W        W59749  28.064  24.031  14.501
88134W        W59750  17.358  23.629   2.630
88135W        W59751   6.019  42.478   0.369
88136W        W59752   1.233  10.411  13.920
88137W        W59753  12.615  37.278   1.315
88138W        W59754  27.448   1.994   3.367
88139W        W59755  34.892  22.485  12.520
88140W        W59756  15.311  34.319  13.401
88141W        W59757   1.712  25.581   4.740
88142W        W59758  17.081  15.544   4.086
88143W        W59759  14.593  21.058   4.108
88144W        W59760  36.023  43.495   0.559
88145W        W59761  43.071  15.053   3.610
88146W        W59762  11.273  38.540   0.902
88147W        W59763  36.036   7.934  13.302
88148W        W59764  18.246  41.492   2.836
88149W        W59765  37.444  30.733   4.175
88150W        W59766  24.672  12.154  10.481
88151W        W59767  34.901  34.385   0.047
88152W        W59768   7.569  26.244  14.030
88153W        W59769   8.891  23.586  11.474
88154W        W59770   2.260  26.040   0.440
88155W        W59771  41.654  42.069  14.376
88156W        W59772  22.967  18.158   2.455
88157W        W59773  44.807   1.215  13.441
88158W        W59774  38.464  24.719  10.676
88159W        W59775  34.428  39.053  12.061
88160W        W59776  28.238  35.065  13.337
88161W        W59777  18.523  15.677  13.968
88162W        W59778  16.771   9.693   0.750
88163W        W59779  25.342  40.081  11.180
88164W        W59780  42.527  25.070   2.897
88165W        W59781  42.877  15.116   4.599
88166W        W59782  37.067  15.849  14.472
88167W        W59783  30.659  15.724  13.983
88168W        W59784  31.868  15.849   1.894
88169W        W59785  16.630   3.253  13.174
88170W        W59786   2.423  15.792  11.142
88171W        W59787  12.173   2.427  12.467
88172W        W59788   0.432  39.543   4.494
88173W        W59789  41.383   7.589   0.336
88174W        W59790  20.522  15.735  12.971
88175W        W59791   6.272   3.678   1.789
88176W        W59792   7.684  20.645   0.023
88177W        W59793  43.265  32.134  12.599
88178W        W59794  23.627   4.979   3.177
88179W        W59795  23.655   0.747  12.390
88180W        W59796  17.315  36.558  10.602
88181W        W59797  10.281  20.694  10.547
88182W        W59798  14.031  34.598   4.054
88183W        W59799  31.006   3.905   1.406
88184W        W59800  22.195   3.009  11.391
88185W        W59801  31.469  18.383   4.500
88186W        W59802  19.177  15.015  12.590
88187W        W59803  26.574  29.056   1.179
88188W        W59804  16.637  24.055  14.492
88189W        W59805  42.475  35.761  12.547
88190W        W59806   5.624  26.925   1.995
88191W        W59807  26.782  44.464   3.121
88192W        W59808  17.701  27.081   3.304
88193W        W59809   8.208  13.846   4.919
88194W        W59810  32.544  37.762   1.964
88195W        W59811  29.250   8.310   4.876
88196W        W59812  41.524   9.108   4.949
88197W        W59813  10.897  23.006  11.531
88198W        W59814   9.270  44.379   3.390
88199W        W59815  38.859  10.883   0.952
88200W        W59816  23.561  12.583   1.420
88201W        W59817  36.538  20.746  14.838
88202W        W59818  38.332  17.505   1.364
88203W        W59819  14.081  18.500  11.558
88204W        W59820   2.525  32.418  13.040
88205W        W59821  25.119  38.586   3.754
88206W        W59822  24.775  32.355  13.045
88207W        W59823   0.812  41.461   9.856
88208W        W59824  31.526  33.925   4.176
88209W        W59825  29.013   7.146  13.395
88210W        W59826  28.464  18.393   2.991
88211W        W59827  22.288  40.847  11.186
88212W        W59828  27.010   5.341  11.482
88213W        W59829  15.016   9.801  13.894
88214W        W59830   4.978  16.247  10.888
88215W        W59831  34.472  40.567   2.832
88216W        W59832  25.697  25.005   3.323
88217W        W59833  40.857  42.610  13.358
88218W        W59834  16.895  37.880   4.292
88219W        W59835  19.555  32.908  12.549
88220W        W59836  19.699  44.017   4.692
88221W        W59837  24.560  32.922  11.970
88222W        W59838  22.292  38.587   3.866
88223W        W59839  34.503  11.247   2.841
88224W        W59840   6.216  37.912   1.421
88225W        W59841  25.384  39.084  13.332
88226W        W59842  26.185  17.689  13.354
88227W        W59843  37.021  37.909   0.773
88228W        W59844   4.119  21.229   0.522
88229W        W59845  15.586   8.011   0.970
88230W        W59846  22.994  18.653  10.674
88231W        W59847  22.014  31.244   3.706
88232W        W59848  41.492  16.761   1.637
88233W        W59849  33.564   7.455   0.668
88234W        W59850  10.796  35.862   1.084
88235W        W59851  20.701  38.476  14.389
88236W        W59852  17.055  35.511   0.251
88237W        W59853   4.436  10.901   2.105
88238W        W59854   4.756  39.323  11.722
88239W        W59855  12.305  37.617   4.117
88240W        W59856  10.263   8.235  12.450
88241W        W59857  39.325  41.826   2.726
88242W        W59858  27.208  42.941   2.248
88243W        W59859   3.234   1.510  14.808
88244W        W59860  31.972  44.359  11.371
88245W        W59861  29.067  31.076  10.600
88246W        W59862  22.212  33.905   0.399
88247W        W59863  26.646  34.998   3.653
88248W        W59864   5.406   7.282   2.639
88249W        W59865  35.040  10.874  10.663
88250W        W59866  37.587  29.997   1.461
88251W        W59867  21.011  43.706   1.776
88252W        W59868  22.650  15.679   3.936
88253W        W59869   4.987   7.871   2.448
88254W        W59870  18.642  42.454  12.870
88255W        W59871   3.290  37.411  10.627
88256W        W59872  34.042   7.650  12.448
88257W        W59873  42.602  16.249  11.499
88258W        W59874  35.611  15.900  11.266
88259W        W59875  19.786  15.189  13.233
88260W        W59876  37.851  14.138  14.787
88261W        W59877   3.762  32.477   0.044
88262W        W59878   7.823   7.403   4.143
88263W        W59879  37.091  28.032   3.653
88264W        W59880  25.018   0.507  12.468
88265W        W59881   7.744   2.861   0.808
88266W        W59882  26.154  33.654   4.588
88267W        W59883   7.626  37.333   2.176
88268W        W59884  44.535  13.432  12.942
88269W        W59885  24.929  25.227  12.322
88270W        W59886   3.245   5.793   1.004
88271W        W59887   9.843  27.918   3.832
88272W        W59888  17.554  13.316   3.684
88273W        W59889  34.555  26.455  12.611
88274W        W59890   6.862  35.047  14.051
88275W        W59891  21.498  25.686  11.536
88276W        W59892  30.844   6.685   4.477
88277W        W59893  23.581  34.941   0.712
88278W        W59894  42.484  29.055  11.135
88279W        W59895  25.265  44.876  11.013
88280W        W59896   7.770  27.881   3.811
88281W        W59897  33.354  24.929   4.076
88282W        W59898  40.346  36.974   0.830
88283W        W59899  32.673  43.598  14.001
88284W        W59900  16.747  42.957   4.281
88285W        W59901  18.214  38.606   0.308
88286W        W59902   9.059  43.791   0.994
88287W        W59903   6.669  37.570   2.181
88288W        W59904  25.699  22.131  13.488
88289W        W59905  18.040  28.776  13.459
88290W        W59906  28.941  20.095   3.171
88291W        W59907  33.608  15.245   2.498
88292W        W59908  37.694  37.523  13.931
88293W        W59909   5.107  28.753  12.497
88294W        W59910  22.694  23.912  12.429
88295W        W59911  23.254  22.660   2.352
88296W        W59912  31.664  17.377   4.582
88297W        W59913  41.527  17.602   2.905
88298W        W59914   8.645  32.019   2.430
88299W        W59915  37.888  10.574   4.506
88300W        W59916  13.313  10.701  11.523
88301W        W59917  15.843   3.256  10.192
88302W        W59918   8.453  11.823  11.190
88303W        W59919  42.103  25.838  11.606
88304W        W59920  38.089  30.147  13.297
88305W        W59921  14.587   7.662  14.486
88306W        W59922  39.548  26.661  10.912
88307W        W59923  13.335  32.508   2.216
88308W        W59924   9.311  42.129  12.009
88309W        W59925  31.732  30.530  11.027
88310W        W59926  39.393  19.648  14.488
88311W        W59927  24.694  11.213  11.197
88312W        W59928  14.025   2.434   2.840
88313W        W59929   0.899   6.266  13.114
88314W        W59930  17.953  42.963  13.971
88315W        W59931  13.571  12.327   4.727
88316W        W59932   7.080   8.225  14.565
88317W        W59933  37.570   3.756   2.222
88318W        W59934  38.312  21.515   0.446
88319W        W59935  40.940  39.833   1.700
88320W        W59936  35.519  17.284   0.420
88321W        W59937  16.080  14.732   2.571
88322W        W59938  14.956  13.823  14.833
88323W        W59939   2.817  31.554  13.168
88324W        W59940  11.378  26.550  12.981
88325W        W59941   1.801  22.569   4.027
88326W        W59942  10.814  31.894  12.769
88327W        W59943  32.376  13.799  13.852
88328W        W59944  24.385  31.899  12.025
88329W        W59945  32.333  12.801   0.068
88330W        W59946  17.279  34.178  12.614
88331W        W59947  40.760  22.881  11.889
88332W        W59948  20.100  40.552   0.939
88333W        W59949  33.521  32.069   0.172
88334W        W59950  23.320   5.277   2.827
88335W        W59951  25.908  29.746   1.614
88336W        W59952  16.052  38.047   0.318
88337W        W59953  33.702  17.691  13.888
88338W        W59954   1.888  32.328  12.442
88339W        W59955  38.933  15.153   5.234
88340W        W59956  19.850   2.550  14.721
88341W        W59957  10.301   2.066   9.787
88342W        W59958  29.662   3.663   2.014
88343W        W59959  24.183  17.561  11.093
88344W        W59960  17.574  19.523   2.272
88345W        W59961  18.773  42.222  11.876
88346W        W59962   3.403   8.316   1.173
88347W        W59963  15.729  16.250  13.921
88348W        W59964  37.885   9.386   1.696
88349W        W59965  38.363  10.042   2.725
88350W        W59966  38.919   9.894  14.920
88351W        W59967  21.505   1.751   3.135
88352W        W59968   7.004  22.583  12.565
88353W        W59969   6.695  41.777   0.297
88354W        W59970  11.979  20.680  12.566
88355W        W59971   9.935  34.137   2.704
88356W        W59972  36.859   9.765  12.272
88357W        W59973  41.083  43.672  10.693
88358W        W59974  23.963  42.074  13.350
88359W        W59975  31.080  23.439   1.810
88360W        W59976  14.352   6.239  14.417
88361W        W59977  18.162  17.622  13.527
88362W        W59978  29.352  16.532  11.827
88363W        W59979   3.501  18.439  14.866
88364W        W59980  43.895  30.068  11.315
88365W        W59981   4.416   6.665  10.986
88366W        W59982  16.383  21.798  11.975
88367W        W59983  44.815   9.871   0.510
88368W        W59984  31.356  34.574   3.819
88369W        W59985  34.478  20.100  12.786
88370W        W59986  31.268  28.418   4.983
88371W        W59987  16.496  19.013  11.550
88372W        W59988  33.890  20.030   0.887
88373W        W59989  19.344  29.432   1.598
88374W        W59990  26.572   0.166   0.250
88375W        W59991  36.906  37.840  10.661
88376W        W59992   8.388   9.111   3.112
88377W        W59993  20.294  22.002  13.666
88378W        W59994  28.373  27.825   1.273
88379W        W59995  40.726  11.780   4.265
88380W        W59996  33.472  41.728   0.506
88381W        W59997   6.952   1.260   2.622
88382W        W59998  17.580   8.738  12.454
88383W        W59999  42.934  18.684   0.324
88384W        W60000  33.388  11.585   2.375
88385W        W60001   2.300  28.936  12.908
88386W        W60002  41.079  28.035   2.782
88387W        W60003  40.771  32.898  12.055
88388W        W60004  44.285   6.860  13.591
88389W        W60005  21.261  26.753   0.505
88390W        W60006  41.854   9.148  12.643
88391W        W60007  18.296  35.915  11.119
88392W        W60008  38.124  20.327  14.251
88393W        W60009  42.477  13.227   3.781
88394W        W60010  31.128   5.652   2.627
88395W        W60011   7.395  31.966   3.634
88396W        W60012  16.338  40.184   0.826
88397W        W60013  20.512  29.469   2.338
88398W        W60014  20.550  20.535   3.831
88399W        W60015  44.771  43.425  11.138
88400W        W60016   4.877  31.004  12.825
88401W        W60017  43.971  10.295   2.265
88402W        W60018   2.254  20.611  11.959
88403W        W60019   3.073   1.978  13.056
88404W        W60020   9.789  14.795  11.096
88405W        W60021  16.152   0.831  14.977
88406W        W60022   8.169  44.479  11.997
88407W        W60023  29.143  39.891   3.649
88408W        W60024  18.800  34.645   1.351
88409W        W60025  36.030  43.971  14.289
88410W        W60026  40.121  25.449  12.518
88411W        W60027  37.923  31.566   2.924
88412W        W60028  26.344   1.472  13.015
88413W        W60029  23.319  22.119   4.491
88414W        W60030  35.805  13.292  13.800
88415W        W60031  36.610   9.428   2.398
88416W        W60032   0.288   8.633   2.202
88417W        W60033   1.225  31.385  14.867
88418W        W60034  20.689  26.381  11.082
88419W        W60035  15.800   5.350   5.067
88420W        W60036   3.404   4.293   3.394
88421W        W60037  34.584  36.564   3.081
88422W        W60038  12.891   5.309   2.595
88423W        W60039  35.495  44.357   3.708
88424W        W60040  38.718  41.978   2.522
88425W        W60041  44.135  30.349  13.878
88426W        W60042  36.147   7.589  12.102
88427W        W60043  17.055  15.186   1.069
88428W        W60044  29.636  42.506  11.191
88429W        W60045  15.802   5.888  11.159
88430W        W60046  13.867  34.894   3.179
88431W        W60047  18.681  27.099  13.026
88432W        W60048  40.816   0.966  10.552
88433W        W60049  23.693   3.705  12.972
88434W        W60050  17.395   4.168  13.330
88435W        W60051  32.061  43.034  10.584
88436W        W60052  28.493  43.009  10.666
88437W        W60053  10.943  23.391  13.040
88438W        W60054  12.345  10.079  10.686
88439W        W60055  12.701   6.631  12.069
88440W        W60056   6.625  40.051  12.523
88441W        W60057   8.223   2.457  11.987
88442W        W60058  37.189  21.583  11.333
88443W        W60059   3.584  27.433   2.687
88444W        W60060  25.545  31.632  14.829
88445W        W60061  36.786  11.641  14.839
88446W        W60062  44.737  14.626   3.273
88447W        W60063  35.548  17.809  11.120
88448W        W60064  31.957  26.476   1.711
88449W        W60065   4.210  32.912  10.271
88450W        W60066   1.247  13.126   4.732
88451W        W60067  10.215  17.782  13.136
88452W        W60068  40.998   2.994   3.274
88453W        W60069  35.111   2.422   4.096
88454W        W60070  28.437  16.717   9.859
88455W        W60071  44.456  35.878   4.067
88456W        W60072  30.707  10.229   0.268
88457W        W60073  25.612  11.678   1.581
88458W        W60074   7.639  37.325  11.146
88459W        W60075  22.714  13.649  11.356
88460W        W60076  36.664  36.685  10.961
88461W        W60077  11.866  26.166   2.755
88462W        W60078   8.307  27.549  12.106
88463W        W60079  31.035  26.956  11.460
88464W        W60080  21.278   2.947  14.418
88465W        W60081   9.270  22.774   1.760
88466W        W60082  12.307  17.264  12.911
88467W        W60083   8.655  29.600  14.107
88468W        W60084  23.606  35.859   4.281
88469W        W60085  15.565  39.844  12.543
88470W        W60086  16.102  25.950  13.478
88471W        W60087  28.397  23.256  10.388
88472W        W60088   1.739  29.621  13.880
88473W        W60089   5.663  28.947  11.270
88474W        W60090  37.825  39.016   3.127
88475W        W60091  26.998  24.628  13.023
88476W        W60092  16.716  31.471   2.522
88477W        W60093   6.514  22.474   4.101
88478W        W60094  40.518  16.774  14.922
88479W        W60095   9.291  26.517   4.514
88480W        W60096  39.645  36.434   1.728
88481W        W60097   1.260   4.251   0.073
88482W        W60098  44.845  42.550  13.573
88483W        W60099  16.395  20.403  13.998
88484W        W60100   1.498  40.258  14.705
88485W        W60101   2.062  40.960   4.285
88486W        W60102  10.808  23.760   0.413
88487W        W60103  14.687  30.644  12.127
88488W        W60104  41.381  12.328  13.402
88489W        W60105  22.171  13.927  14.471
88490W        W60106  43.677   0.191  11.100
88491W        W60107  26.595  40.047  11.571
88492W        W60108   3.365   2.768  12.580
88493W        W60109   2.910  42.508   1.257
88494W        W60110  41.978   6.187  14.910
88495W        W60111  22.618   3.411   4.820
88496W        W60112  41.780  33.503   4.071
88497W        W60113  44.279  42.537  14.279
88498W        W60114  13.419  26.724  13.934
88499W        W60115   3.926  15.914  12.770
88500W        W60116  35.029   7.940   3.856
88501W        W60117  11.363  24.528  10.629
88502W        W60118  26.639   8.845  10.484
88503W        W60119  11.044   1.843  13.165
88504W        W60120   3.804  39.638   0.007
88505W        W60121   3.354   8.212  12.107
88506W        W60122  35.301  13.571  11.474
88507W        W60123  23.297  36.353   4.158
88508W        W60124  43.819  42.984  11.008
88509W        W60125  37.297  19.778   3.770
88510W        W60126   3.945  10.800  12.962
88511W        W60127  34.596  39.754  14.946
88512W        W60128   3.856  23.223  14.074
88513W        W60129  38.606  11.724  12.987
88514W        W60130  27.095  38.622  12.525
88515W        W60131  13.107  11.802   1.005
88516W        W60132  31.368  36.334   2.611
88517W        W60133   3.058  20.625  12.417
88518W        W60134  35.645  43.916  13.389
88519W        W60135  37.146  29.287  10.771
88520W        W60136   2.467  43.580  10.287
88521W        W60137   4.476   3.379  12.558
88522W        W60138  21.476   4.820   3.636
88523W        W60139  15.526   5.778   2.829
88524W        W60140  30.553   2.735   1.793
88525W        W60141  15.592  34.269   4.909
88526W        W60142   7.187  44.289  12.985
88527W        W60143  11.382  23.108  11.604
88528W        W60144  37.895  43.555  14.385
88529W        W60145   1.995  34.411  11.667
88530W        W60146   0.720   5.999  11.827
88531W        W60147  29.740  24.292   0.783
88532W        W60148  25.521  24.236  11.639
88533W        W60149  10.885  36.371  11.150
88534W        W60150   7.127  18.845  12.088
88535W        W60151  36.548  10.980  12.144
88536W        W60152  15.261   0.454  13.272
88537W        W60153   7.811  41.193   0.967
88538W        W60154   3.896   9.958  11.256
88539W        W60155  28.922   6.988   4.645
88540W        W60156  18.173  20.505  14.312
88541W        W60157   7.692  21.669   4.599
88542W        W60158  22.775  17.101   0.377
88543W        W60159   6.160  12.525  11.634
88544W        W60160  36.132  14.820   3.688
88545W        W60161  11.161  32.523   3.918
88546W        W60162  21.581  28.948   0.875
88547W        W60163  32.490  44.951   5.322
88548W        W60164   8.294   8.283  13.103
88549W        W60165  29.268  23.403  13.867
88550W        W60166  10.864  11.064   1.349
88551W        W60167  13.353  33.938  11.082
88552W        W60168  22.824  30.003   4.653
88553W        W60169  35.551  24.417   0.401
88554W        W60170   1.381  28.022   2.727
88555W        W60171  39.299  16.247   2.334
88556W        W60172  14.801  44.781   1.890
88557W        W60173  11.149   4.371  13.969
88558W        W60174  21.370  23.493  10.645
88559W        W60175  26.283  35.440  14.068
88560W        W60176  14.643  29.861   4.179
88561W        W60177   9.887  15.546  12.098
88562W        W60178   9.725  23.976  12.518
88563W        W60179  20.752  15.032  13.315
88564W        W60180  10.561  14.284   4.659
88565W        W60181   6.401  19.915   1.982
88566W        W60182   0.276  34.536  12.585
88567W        W60183  10.223  44.321   4.259
88568W        W60184  37.133  17.274   2.050
88569W        W60185  33.587  22.455   3.836
88570W        W60186  42.907  35.630   4.518
88571W        W60187  29.776  29.521   2.294
88572W        W60188   1.435  40.023  11.881
88573W        W60189  24.628  32.706  13.902
88574W        W60190  26.015  28.202   0.942
88575W        W60191  15.254  23.919   0.795
88576W        W60192   6.332  12.287   4.090
88577W        W60193  22.094  19.786  14.790
88578W        W60194   3.309  16.560  13.932
88579W        W60195   0.540  14.485  11.429
88580W        W60196  12.547  10.883   0.826
88581W        W60197  40.296  34.089  13.471
88582W        W60198  16.277  36.388   2.722
88583W        W60199   1.053   5.272  12.453
88584W        W60200  28.982  42.113  12.164
88585W        W60201  18.793  26.957   3.759
88586W        W60202  26.536  36.602   4.501
88587W        W60203  27.976  29.533   0.874
88588W        W60204   4.784   8.119   2.835
88589W        W60205  24.114  31.697  13.000
88590W        W60206  20.266   1.260  14.799
88591W        W60207   3.194  37.210  14.904
88592W        W60208  19.125   3.193   4.402
88593W        W60209  15.352  15.429   0.888
88594W        W60210  29.919  29.690  12.572
88595W        W60211  16.234   4.387   9.798
88596W        W60212   5.167   9.397   1.389
88597W        W60213  43.209  19.714   4.180
88598W        W60214   8.438  38.448  12.655
88599W        W60215  30.173   3.516   3.680
88600W        W60216  29.921   3.727  12.338
88601W        W60217  23.401  27.992   1.834
88602W        W60218  25.296  19.010   3.363
88603W        W60219   4.856  31.880  12.149
88604W        W60220  31.869  26.159  11.108
88605W        W60221  22.521   5.408  12.488
88606W        W60222  30.188  21.130  12.971
88607W        W60223  33.539   9.604   4.152
88608W        W60224  30.008  41.304  11.403
88609W        W60225   9.580  39.463   1.764
88610W        W60226  33.423  26.926   2.276
88611W        W60227  38.079  27.235   4.250
88612W        W60228  42.376  13.797   1.850
88613W        W60229  12.346  33.028  14.426
88614W        W60230  23.507  19.600   4.668
88615W        W60231  31.381  31.004  14.832
88616W        W60232  23.040  34.779   3.356
88617W        W60233  14.772  42.716  11.122
88618W        W60234  15.899  28.940  11.774
88619W        W60235  42.935   0.925  10.709
88620W        W60236  26.507   0.987   1.408
88621W        W60237  42.972   5.785   4.182
88622W        W60238  20.204  41.415   4.505
88623W        W60239  36.479  17.162   4.793
88624W        W60240  29.560  29.093   2.145
88625W        W60241   4.982  21.622   2.578
88626W        W60242  26.454  12.555   4.996
88627W        W60243  36.448  32.916   2.768
88628W        W60244   2.608  18.785  14.051
88629W        W60245  24.561  19.197   4.092
88630W        W60246  27.635  24.582   4.712
88631W        W60247  33.696  10.636   3.643
88632W        W60248  17.764  40.136  12.049
88633W        W60249   0.923  15.558   3.300
88634W        W60250  13.336  27.062   3.284
88635W        W60251  38.509  23.182  14.226
88636W        W60252   5.994   1.385   0.845
88637W        W60253   1.300  12.691  14.428
88638W        W60254  10.860   7.898   0.412
88639W        W60255  27.981  39.042   3.144
88640W        W60256   7.498  36.075  10.755
88641W        W60257  40.402  22.231  11.200
88642W        W60258  14.635  20.145   3.715
88643W        W60259  34.419  33.323  10.677
88644W        W60260  15.625  31.699   5.308
88645W        W60261  10.580   1.207  12.974
88646W        W60262  18.542   7.739   4.525
88647W        W60263   7.890  17.524   2.162
88648W        W60264  29.881  41.364   4.128
88649W        W60265  31.514  16.220  13.372
88650W        W60266  22.839   1.970   0.765
88651W        W60267   2.424   2.236  11.140
88652W        W60268  43.267   1.756   1.260
88653W        W60269  27.242  39.036  14.744
88654W        W60270   2.983  37.500  11.096
88655W        W60271   7.208  24.147   3.834
88656W        W60272  29.564  43.109  11.100
88657W        W60273  35.542  29.005   3.884
88658W        W60274  12.310   7.329  14.764
88659W        W60275  15.617   0.412  10.813
88660W        W60276  19.998  37.851  12.622
88661W        W60277   7.280  41.282   2.587
88662W        W60278   4.882   6.577   2.891
88663W        W60279  18.661  37.171   2.786
88664W        W60280  41.319  30.395  14.467
88665W        W60281   0.388   4.454   0.654
88666W        W60282  33.640  44.002   3.009
88667W        W60283  16.971  21.766  13.768
88668W        W60284   8.778   4.999   1.121
88669W        W60285  20.179   4.780   1.154
88670W        W60286  31.906  16.394   4.547
88671W        W60287  44.225  23.589  11.020
88672W        W60288   2.032   7.663   0.775
88673W        W60289  24.257   9.359   2.239
88674W        W60290  36.571   5.367  14.481
88675W        W60291  30.673  40.835   3.609
88676W        W60292  10.271  34.016  13.556
88677W        W60293  18.367  14.759  14.579
88678W        W60294  42.341  33.033  11.425
88679W        W60295  29.174  22.253   2.547
88680W        W60296  13.589  13.226   1.856
88681W        W60297  17.731  10.691   4.086
88682W        W60298   8.856  29.169  14.997
88683W        W60299  35.816  18.913  14.315
88684W        W60300  35.793  31.489  11.089
88685W        W60301  23.619  22.932  10.631
88686W        W60302   6.324  39.210  12.602
88687W        W60303  32.593  29.438  10.309
88688W        W60304  27.361  35.068  12.883
88689W        W60305  40.914  39.107  11.449
88690W        W60306  28.504  16.347  13.493
88691W        W60307  29.357   9.902   1.557
88692W        W60308   3.826   3.211  13.353
88693W        W60309   7.978  20.741  10.829
88694W        W60310  41.387  38.247   0.232
88695W        W60311  13.719  28.398   3.484
88696W        W60312  37.499  16.560   0.861
88697W        W60313  24.599  17.173   1.068
88698W        W60314  29.447  26.961   1.750
88699W        W60315  34.569  20.493  14.934
88700W        W60316  16.354  31.004   1.155
88701W        W60317  17.265  21.989  11.582
88702W        W60318  20.669   4.477  12.477
88703W        W60319  12.309  15.711   1.332
88704W        W60320  44.068  21.983  10.548
88705W        W60321   7.519   7.177  11.543
88706W        W60322  17.015  12.763   4.872
88707W        W60323  39.228  17.534   3.982
88708W        W60324  23.434   2.171  10.603
88709W        W60325   4.812   6.680  10.655
88710W        W60326   1.624   1.496  13.736
88711W        W60327   3.718  20.229   3.662
88712W        W60328  35.040   2.782   4.911
88713W        W60329  35.070  17.851   0.032
88714W        W60330  35.895  37.822  10.586
88715W        W60331   7.832  41.704   0.947
88716W        W60332  25.542  27.040  12.417
88717W        W60333   5.814  26.526  13.989
88718W        W60334  28.681  17.072  13.917
88719W        W60335  27.773  33.028   2.310
88720W        W60336  34.926  41.049   5.061
88721W        W60337  11.818   4.964   3.611
88722W        W60338  28.148  18.492  10.358
88723W        W60339  17.918   3.152  12.369
88724W        W60340   2.785   0.847  10.220
88725W        W60341  15.760  21.052  10.809
88726W        W60342   8.388   8.284   2.587
88727W        W60343  18.707  26.739  11.150
88728W        W60344  20.526   8.347  12.020
88729W        W60345  35.903  19.471   1.417
88730W        W60346   8.192  12.016   3.067
88731W        W60347   2.584   9.557  13.144
88732W        W60348  23.196  20.039  11.298
88733W        W60349   0.765  29.690   3.034
88734W        W60350  38.924  11.869   2.792
88735W        W60351  22.603  44.875   2.329
88736W        W60352   6.716  14.100   2.113
88737W        W60353  43.862   2.073   0.243
88738W        W60354  30.753  38.411  10.353
88739W        W60355  27.900   0.659   1.894
88740W        W60356  42.489  44.295  14.950
88741W        W60357  20.465  24.242  13.943
88742W        W60358  25.212   1.893   1.249
88743W        W60359  36.759  26.855   1.795
88744W        W60360   7.928  38.549  12.849
88745W        W60361  32.931  33.455   3.354
88746W        W60362  35.148   2.071   5.071
88747W        W60363  41.393  26.337  13.784
88748W        W60364  17.373  13.331   0.987
88749W        W60365   3.994  35.138   1.419
88750W        W60366  43.384  25.850  10.572
88751W        W60367   0.487  35.630  11.003
88752W        W60368  36.949  43.420  14.225
88753W        W60369   8.161  44.371   4.227
88754W        W60370  32.945  37.084  13.990
88755W        W60371  28.015  13.948  14.881
88756W        W60372  17.781  30.595  10.718
88757W        W60373  18.749  29.184   0.849
88758W        W60374  31.703  22.516  14.998
88759W        W60375  20.528  10.360   2.252
88760W        W60376   4.199  38.993   3.001
88761W        W60377  16.797  20.086  11.742
88762W        W60378  16.327  42.768  13.568
88763W        W60379   3.328  32.916  10.577
88764W        W60380  22.162   4.836   1.293
88765W        W60381   0.742   8.814  14.777
88766W        W60382  19.683   4.223  12.177
88767W        W60383  37.591  13.342  10.612
88768W        W60384  18.369  41.332  12.606
88769W        W60385   1.744  24.228   3.162
88770W        W60386  25.261  14.706   3.569
88771W        W60387  44.813  10.441  12.581
88772W        W60388  28.867   6.313   4.207
88773W        W60389  35.361  10.780   1.429
88774W        W60390  36.999  27.135   2.198
88775W        W60391  21.077  31.483  12.528
88776W        W60392   7.657  29.158  14.858
88777W        W60393   0.045   9.629  12.020
88778W        W60394  12.207  36.012   4.392
88779W        W60395  33.558  32.077  11.601
88780W        W60396  33.578  12.203  13.581
88781W        W60397  15.261  19.515  10.460
88782W        W60398  34.486  10.581   1.243
88783W        W60399  24.942  38.318   0.402
88784W        W60400   9.681  32.980   4.236
88785W        W60401  22.758  29.465   4.543
88786W        W60402  32.512   2.540   0.778
88787W        W60403  17.277  17.331   0.254
88788W        W60404  11.836  12.685  11.261
88789W        W60405  22.581  24.095   2.026
88790W        W60406  37.642  37.316  12.593
88791W        W60407   1.828   4.236  13.399
88792W        W60408  23.449  21.004  12.061
88793W        W60409  34.894  21.012   2.428
88794W        W60410  24.007  28.543   3.039
88795W        W60411  29.898  35.399   3.695
88796W        W60412   8.136  33.959   3.727
88797W        W60413  12.409  31.173  12.421
88798W        W60414  23.454  26.273  11.152
88799W        W60415  12.220  19.001  13.318
88800W        W60416  14.761  40.557   1.807
88801W        W60417  26.220  42.337  12.069
88802W        W60418  17.465   2.740   2.327
88803W        W60419  33.582  41.067   2.851
88804W        W60420  18.218  44.022  13.529
88805W        W60421  30.029   1.533  13.753
88806W        W60422  32.479  21.141  13.351
88807W        W60423   9.417  11.065  11.064
88808W        W60424  40.261  34.547   1.933
88809W        W60425  21.156  31.202  10.935
88810W        W60426  37.501  42.772  12.477
88811W        W60427  18.357   4.694   1.891
88812W        W60428  22.694  11.695  11.185
88813W        W60429  30.616  21.070  10.643
88814W        W60430  14.338  17.224  10.614
88815W        W60431   4.127  13.240   0.392
88816W        W60432  29.558   5.341   4.688
88817W        W60433  36.386  27.540   4.534
88818W        W60434  21.625   3.748  14.569
88819W        W60435  31.638  17.702   0.889
88820W        W60436   8.029  35.908   4.481
88821W        W60437  40.703  21.167   1.430
88822W        W60438  38.725   8.713  12.123
88823W        W60439  29.782  16.351   3.658
88824W        W60440   5.762  37.136  13.876
88825W        W60441   0.690  25.534   4.681
88826W        W60442  28.132   9.335  14.263
88827W        W60443  22.430  17.569   2.654
88828W        W60444  38.966  36.604  11.589
88829W        W60445  32.121   5.403  13.463
88830W        W60446  16.666  14.884  14.722
88831W        W60447  38.236  37.638  11.592
88832W        W60448  41.279   9.777  12.093
88833W        W60449   4.674  43.948  12.423
88834W        W60450   0.687  34.264  11.177
88835W        W60451  40.080  15.464   3.569
88836W        W60452  28.612  20.829  10.985
88837W        W60453  44.920  22.933   2.137
88838W        W60454  39.176  44.225   2.614
88839W        W60455   9.993  36.410  11.345
88840W        W60456   3.796   3.511   1.300
88841W        W60457  43.464   0.059  14.433
88842W        W60458  41.498  18.071  13.420
88843W        W60459  25.517  11.608   3.066
88844W        W60460  36.474   5.207  11.509
88845W        W60461  39.409  41.961  14.814
88846W        W60462  20.547  12.152  10.463
88847W        W60463  12.732   1.306   1.692
88848W        W60464   3.777  10.394   1.795
88849W        W60465  13.061  26.830  14.312
88850W        W60466  29.675   7.449  12.935
88851W        W60467   2.369  37.362   0.969
88852W        W60468   5.243  30.490  14.370
88853W        W60469  12.350  38.075   0.445
88854W        W60470  27.650  22.050   3.880
88855W        W60471  28.958  11.155  12.409
88856W        W60472  41.390  38.021  12.321
88857W        W60473   7.323  36.940  12.512
88858W        W60474   3.855  28.489  11.351
88859W        W60475  41.368   8.745   1.735
88860W        W60476  33.909   0.009  14.518
88861W        W60477  13.061  35.456  13.802
88862W        W60478  22.241  13.658  10.682
88863W        W60479  34.153  43.289   2.053
88864W        W60480  15.768  12.880  13.986
88865W        W60481   5.684  30.904   1.640
88866W        W60482  21.032  10.841   0.877
88867W        W60483  42.477  36.373   2.599
88868W        W60484   8.402  28.056   2.782
88869W        W60485  30.655   7.091  14.048
88870W        W60486  44.450  18.133  10.673
88871W        W60487  19.567  40.468   1.413
88872W        W60488  15.731   5.474  11.945
88873W        W60489  38.311  21.177   1.415
88874W        W60490  19.094  37.099  10.799
88875W        W60491   1.257   3.661  11.076
88876W        W60492  12.736  34.959  14.444
88877W        W60493   4.263  28.564  14.860
88878W        W60494  33.528  39.303   0.690
88879W        W60495  11.163  17.155  10.733
88880W        W60496  16.774  21.727   2.537
88881W        W60497   4.446  20.125   3.300
88882W        W60498  25.471  44.092  12.490
88883W        W60499  41.990  18.320   2.245
88884W        W60500  21.631  18.616  13.511
88885W        W60501  30.532  14.852  10.755
88886W        W60502  41.528   8.968   3.716
88887W        W60503   4.901  40.370   4.244
88888W        W60504   8.653  36.601  11.202
88889W        W60505  15.273   0.708   3.743
88890W        W60506  20.624  28.831  12.580
88891W        W60507  38.855   3.826   1.327
88892W        W60508   9.081   2.904   1.900
88893W        W60509  30.000  19.831   2.692
88894W        W60510  42.409  13.023   4.315
88895W        W60511   9.083  18.433  11.705
88896W        W60512   4.963  29.466   1.293
88897W        W60513  38.366   7.910  11.744
88898W        W60514   0.019  10.765   2.908
88899W        W60515  13.792  28.616   0.833
88900W        W60516  31.904  38.965   0.579
88901W        W60517   9.787   2.455  13.881
88902W        W60518  10.063  24.688  12.522
88903W        W60519  37.618  38.058  13.920
88904W        W60520  16.645   6.007   1.911
88905W        W60521  16.191  38.453   4.321
88906W        W60522  29.524  40.131  11.137
88907W        W60523  38.755  25.047  12.526
88908W        W60524  14.908  35.768   1.080
88909W        W60525   3.470  34.445  10.599
88910W        W60526  44.842   2.425   1.696
88911W        W60527  22.660  25.663   2.970
88912W        W60528  41.886  12.337   4.017
88913W        W60529  13.761  25.093  13.018
88914W        W60530  40.717  23.862  13.031
88915W        W60531  33.913   8.557  12.897
88916W        W60532  41.314  35.778   4.949
88917W        W60533  22.279   9.696  12.400
88918W        W60534  31.698   5.126  12.510
88919W        W60535  14.078   5.998  14.905
88920W        W60536  41.800  33.543  10.635
88921W        W60537  19.085  27.477  14.925
88922W        W60538   9.157  12.457  12.187
88923W        W60539  44.555  30.567  10.765
88924W        W60540  43.694  33.336   0.859
88925W        W60541  39.901  27.133   4.578
88926W        W60542  11.905   2.574  11.214
88927W        W60543  28.859   1.832   4.166
88928W        W60544  35.487  14.346   4.995
88929W        W60545   3.823  40.107  14.765
88930W        W60546  12.078  18.005   2.285
88931W        W60547  28.142  15.530  10.276
88932W        W60548   5.262  44.920   2.792
88933W        W60549   5.273  28.635  14.415
88934W        W60550  36.872  15.339  13.379
88935W        W60551  43.111  43.270   1.134
88936W        W60552  38.799  23.254  10.423
88937W        W60553   3.770  31.865   2.707
88938W        W60554  41.034  11.088  13.456
88939W        W60555   6.505  39.564   1.204
88940W        W60556  44.973  27.639   1.487
88941W        W60557  17.801  30.626  14.448
88942W        W60558   9.564  32.477   1.362
88943W        W60559  18.530  19.304   0.862
88944W        W60560  34.359  36.574   2.608
88945W        W60561   1.043  29.989  14.918
88946W        W60562  24.648  28.207   2.771
88947W        W60563   7.901   5.288  14.527
88948W        W60564  44.353  28.903   3.234
88949W        W60565   4.631  16.812  13.067
88950W        W60566  24.705   4.422  11.652
88951W        W60567  27.557  27.517   4.403
88952W        W60568  39.141  17.488  14.733
88953W        W60569   2.969  32.535  10.706
88954W        W60570  20.727  22.271   2.775
88955W        W60571  44.659  19.572  11.175
88956W        W60572  21.091   0.541   1.680
88957W        W60573  21.840  23.675   4.323
88958W        W60574  11.666  17.226  11.607
88959W        W60575   7.170  37.587   2.226
88960W        W60576   6.206  35.839  12.401
88961W        W60577   1.334  27.645  14.358
88962W        W60578  10.252  21.137   0.847
88963W        W60579   9.673  42.201   3.849
88964W        W60580  43.275  12.395  14.170
88965W        W60581  10.832  39.852   4.045
88966W        W60582  43.493  32.513  12.284
88967W        W60583  34.560  20.439   2.880
88968W        W60584   8.211  16.501   2.384
88969W        W60585   9.042  41.574  11.497
88970W        W60586   8.394  20.038   2.242
88971W        W60587  23.654   6.902  14.774
88972W        W60588  32.505  37.006  10.625
88973W        W60589  11.655  33.441   0.361
88974W        W60590  27.472  40.233   4.274
88975W        W60591  28.451   4.452  11.699
88976W        W60592  25.694  44.023   4.159
88977W        W60593  41.495  34.550  13.399
88978W        W60594  20.078  24.333   0.446
88979W        W60595  16.497  11.361   3.422
88980W        W60596  22.471  28.428  11.149
88981W        W60597  19.564  28.156   0.492
88982W        W60598  10.251  32.885   1.853
88983W        W60599  17.534  37.327  12.909
88984W        W60600  35.452   1.452   2.315
88985W        W60601   5.800  21.074  12.429
88986W        W60602  44.387   3.279   4.521
88987W        W60603  14.879  34.011  13.491
88988W        W60604  20.993  41.370  12.427
88989W        W60605   6.709   8.181  11.187
88990W        W60606  15.553   3.765   4.521
88991W        W60607  11.432  24.874   1.851
88992W        W60608   5.306  21.080   4.597
88993W        W60609  24.799  15.278   1.915
88994W        W60610  35.344   5.324  12.092
88995W        W60611  31.519  18.865   4.706
88996W        W60612  11.957  14.180   2.269
88997W        W60613  23.979  15.295  12.984
88998W        W60614  10.211  30.189  13.378
88999W        W60615   9.346   0.543  12.400
89000W        W60616  13.222  28.598   1.676
89001W        W60617   2.797  19.166   3.271
89002W        W60618  29.108  19.187  12.704
89003W        W60619  26.066  17.222  10.796
89004W        W60620   3.532  15.040  10.209
89005W        W60621  23.084  15.882   4.116
89006W        W60622  39.782   7.633  11.563
89007W        W60623  31.391  39.553  14.408
89008W        W60624  40.290  34.741   3.411
89009W        W60625  32.592  12.538   1.278
89010W        W60626  14.925  33.965  14.030
89011W        W60627  43.335  30.379   2.659
89012W        W60628   9.074  38.571   1.710
89013W        W60629  44.843   9.153   0.872
89014W        W60630  13.607   9.329   0.900
89015W        W60631  14.795  43.274  12.061
89016W        W60632  24.065  32.628  12.652
89017W        W60633  32.079  14.926   2.680
89018W        W60634   1.054  19.292   3.678
89019W        W60635   5.513   2.424   2.305
89020W        W60636   2.002  17.069   3.353
89021W        W60637   8.856   1.719   1.607
89022W        W60638   5.432  10.088  12.051
89023W        W60639  39.028  31.119   2.207
89024W        W60640  16.971  44.245  10.162
89025W        W60641  36.856   1.491  14.264
89026W        W60642  33.432  33.473  10.865
89027W        W60643  43.451  16.999   1.290
89028W        W60644  15.998  28.654   2.688
89029W        W60645  38.645  11.268  10.333
89030W        W60646  26.680  39.025  12.489
89031W        W60647   1.295   0.004   0.632
89032W        W60648  14.665  33.938  12.530
89033W        W60649  40.902  24.318  14.478
89034W        W60650  26.131   8.740  14.912
89035W        W60651  42.047   4.938  13.442
89036W        W60652  28.984  30.032   0.475
89037W        W60653   2.213  11.505   3.758
89038W        W60654  29.189   9.180   2.755
89039W        W60655  19.477  16.689   1.239
89040W        W60656  12.213   6.931   0.845
89041W        W60657   5.182   2.776   1.781
89042W        W60658   1.449  36.180  14.247
89043W        W60659  29.896  33.351  12.892
89044W        W60660   4.102  25.932   1.825
89045W        W60661   5.339   0.291  14.379
89046W        W60662  36.039  36.982  14.836
89047W        W60663   2.556   1.500  12.227
89048W        W60664  36.823  31.317  12.203
89049W        W60665  15.554   2.211  11.952
89050W        W60666  14.307  28.177   0.923
89051W        W60667  29.491  17.328   3.660
89052W        W60668   9.779  16.531  13.782
89053W        W60669  38.066   2.197   0.919
89054W        W60670  38.954  14.810   0.797
89055W        W60671  32.990  25.956  13.801
89056W        W60672   7.007  15.073   4.053
89057W        W60673  13.213   4.683   4.152
89058W        W60674  41.494  31.762  11.120
89059W        W60675  28.599  26.615  10.190
89060W        W60676  40.494  41.120   3.792
89061W        W60677   2.351  21.991   1.443
89062W        W60678  30.674  15.386   0.387
89063W        W60679  22.677   2.715   2.982
89064W        W60680   2.510  27.665  12.414
89065W        W60681  38.640  38.845  14.319
89066W        W60682  28.401  41.449  11.039
89067W        W60683  12.054  12.728  10.393
89068W        W60684  29.041   4.471   4.639
89069W        W60685  18.842  28.436   2.479
89070W        W60686  17.415  31.692   3.682
89071W        W60687  19.713  39.507   3.374
89072W        W60688  40.384  27.707   0.354
89073W        W60689  22.675  36.626  11.782
89074W        W60690  29.084  40.901  11.141
89075W        W60691  25.554   8.947   1.703
89076W        W60692  17.291  29.097   1.749
89077W        W60693  16.926  40.321  10.794
89078W        W60694  13.315  40.311   0.445
89079W        W60695   1.053  37.077   0.297
89080W        W60696   4.812  44.507  10.531
89081W        W60697  24.903   3.651  14.775
89082W        W60698  12.714  17.223   0.735
89083W        W60699   5.358  44.767  14.364
89084W        W60700  10.584  44.007  12.703
89085W        W60701  20.375  18.723   3.493
89086W        W60702  36.996  31.088   5.089
89087W        W60703  11.074   3.544  11.672
89088W        W60704  10.175   8.357   4.488
89089W        W60705  13.137  11.725  10.689
89090W        W60706  12.845  21.994  12.055
89091W        W60707  20.199  26.520  11.039
89092W        W60708   1.318   9.155  13.417
89093W        W60709  16.825  21.327  14.381
89094W        W60710   1.099  19.915   2.212
89095W        W60711   3.867  29.544  12.317
89096W        W60712  10.856  39.524  12.002
89097W        W60713  36.625  39.873   3.612
89098W        W60714  37.573  22.753  14.993
89099W        W60715  33.617   6.192  10.267
89100W        W60716  23.116  32.513  11.899
89101W        W60717  34.003  37.520  14.234
89102W        W60718  26.901  11.780   2.707
89103W        W60719  14.524  23.140  10.365
89104W        W60720  34.440  13.362   0.315
89105W        W60721  25.452   9.044  12.510
89106W        W60722  24.079  33.808  14.429
89107W        W60723  33.806  33.842  11.851
89108W        W60724  22.070  36.496   4.698
89109W        W60725  11.891  28.393  12.917
89110W        W60726  44.885  21.979  14.768
89111W        W60727  35.370  37.015   3.210
89112W        W60728  27.998   2.847   2.817
89113W        W60729  39.005  10.717   4.154
89114W        W60730  26.091  16.747   0.430
89115W        W60731  26.111  31.544   2.478
89116W        W60732  18.131  10.106  14.337
89117W        W60733   4.458  37.068   4.130
89118W        W60734  44.151   1.004  13.731
89119W        W60735  11.869  12.760  13.071
89120W        W60736   1.103   8.903   4.077
89121W        W60737   6.919  12.278  12.074
89122W        W60738  24.633  38.296   1.271
89123W        W60739  20.100  41.911   4.938
89124W        W60740  33.290  34.028  10.087
89125W        W60741  39.944  14.813  10.895
89126W        W60742  34.642   7.362   3.280
89127W        W60743   1.723  10.468  13.082
89128W        W60744  30.930  42.793  10.538
89129W        W60745  10.497  41.327   4.068
89130W        W60746   1.971  29.159  13.869
89131W        W60747   7.968  24.249  10.270
89132W        W60748   1.011  37.084   3.646
89133W        W60749  34.356  44.872  12.909
89134W        W60750  32.407  19.761  12.571
89135W        W60751  15.341  10.190  13.587
89136W        W60752  23.087  42.554   2.696
89137W        W60753   0.008   1.885  14.877
89138W        W60754  21.873  13.809  11.151
89139W        W60755  11.288  10.860  12.627
89140W        W60756  37.088  11.406  14.465
89141W        W60757  20.517   0.888   3.615
89142W        W60758  42.388  15.208   1.458
89143W        W60759  10.793  28.376   4.198
89144W        W60760  32.604   8.422  12.059
89145W        W60761  18.348   2.975  11.660
89146W        W60762  28.225  20.876  14.337
89147W        W60763  27.085  15.319   4.068
89148W        W60764  14.590  28.119  14.281
89149W        W60765  40.433  26.447  11.964
89150W        W60766  28.217  42.494  10.205
89151W        W60767  15.114  33.888   3.756
89152W        W60768  37.414  27.224   1.306
89153W        W60769  16.753  36.976   0.195
89154W        W60770  13.754   4.580   4.532
89155W        W60771  30.937  23.643   3.177
89156W        W60772  24.122  43.841  10.933
89157W        W60773  37.263  34.694  11.168
89158W        W60774  33.133  39.159  12.405
89159W        W60775  20.247  43.261   3.764
89160W        W60776  31.571  34.435  13.313
89161W        W60777  14.868  13.206  13.340
89162W        W60778  18.791   5.846   2.182
89163W        W60779  32.954   2.463   0.356
89164W        W60780  11.294   6.454   4.272
89165W        W60781  38.150  36.556  13.013
89166W        W60782   4.929  28.661  10.444
89167W        W60783  11.738  42.162   2.134
89168W        W60784  40.871  11.812  13.941
89169W        W60785  36.804  27.511   0.895
89170W        W60786  23.135  28.513   1.173
89171W        W60787  38.084  23.141   1.026
89172W        W60788  22.020  22.700  10.826
89173W        W60789  18.746  33.560   0.910
89174W        W60790  29.583  42.444   2.407
89175W        W60791  16.251  20.870  13.823
89176W        W60792  38.089  18.823  13.362
89177W        W60793  26.503  38.560  14.541
89178W        W60794   1.656   0.888  12.912
89179W        W60795  17.556   5.629   3.689
89180W        W60796  36.192   9.250   2.126
89181W        W60797  38.486  28.181   4.283
89182W        W60798  22.600  41.569   3.319
89183W        W60799  37.813  35.078  11.604
89184W        W60800  34.770  37.909   3.211
89185W        W60801   1.872  25.237  11.825
89186W        W60802  36.071   4.924   3.799
89187W        W60803   4.759  18.275  11.950
89188W        W60804  29.024  28.066   9.866
89189W        W60805  31.883  25.471   1.776
89190W        W60806  13.179  37.493   2.742
89191W        W60807  19.232  43.380  13.573
89192W        W60808  13.819   3.777   5.136
89193W        W60809  21.922  26.541  11.823
89194W        W60810  25.781  26.525   2.778
89195W        W60811  29.649  18.346   3.777
89196W        W60812  26.170  10.828  14.877
89197W        W60813  11.565  21.133  13.815
89198W        W60814  31.951  44.740  10.991
89199W        W60815  16.377  16.747  12.082
89200W        W60816  30.404  13.695  14.291
89201W        W60817  37.129  15.219  11.605
89202W        W60818  37.619  29.559  14.302
89203W        W60819   5.452  19.727   4.553
89204W        W60820  27.449  10.359  14.517
89205W        W60821  38.243  30.432   3.615
89206W        W60822  19.214   4.189  10.424
89207W        W60823  30.523   7.218   0.900
89208W        W60824  43.469   4.961   2.119
89209W        W60825  19.313  13.684   1.907
89210W        W60826  18.557  28.003   2.636
89211W        W60827  26.036   9.539  11.513
89212W        W60828  21.381  41.498   9.861
89213W        W60829  11.666  26.486   0.291
89214W        W60830   5.856   3.017  12.631
89215W        W60831  25.238  29.077   2.766
89216W        W60832  42.260   4.842  11.977
89217W        W60833  17.322  17.150   1.624
89218W        W60834  34.864   9.180  14.414
89219W        W60835  18.089  25.034   0.929
89220W        W60836  14.152  16.351   5.423
89221W        W60837   2.180  27.147   2.809
89222W        W60838  39.680  16.612   2.239
89223W        W60839  24.466  33.153   4.030
89224W        W60840  12.017  41.090  14.849
89225W        W60841  25.223  39.125  12.430
89226W        W60842  38.452  35.052   2.302
89227W        W60843  35.362   4.240   4.076
89228W        W60844  13.366  10.567   1.395
89229W        W60845  44.983  15.645  12.466
89230W        W60846  42.843  14.942  12.983
89231W        W60847   0.791  25.135   5.082
89232W        W60848  25.694  39.543  12.465
89233W        W60849  13.089  24.801   0.459
89234W        W60850  21.008   9.241   4.350
89235W        W60851  16.591   0.578  12.054
89236W        W60852   2.949  36.212  12.521
89237W        W60853  13.617  17.630   3.081
89238W        W60854  17.755  17.234   2.704
89239W        W60855  29.636  32.355  10.759
89240W        W60856  31.644  12.747  12.413
89241W        W60857  29.620   2.651   3.352
89242W        W60858  25.550  12.002   4.586
89243W        W60859  43.367   2.014   0.367
89244W        W60860  44.770  11.621   1.809
89245W        W60861  24.615  34.872   3.668
89246W        W60862   3.281  36.175   3.526
89247W        W60863  34.143  38.002  12.010
89248W        W60864   7.392   7.778   4.110
89249W        W60865  37.183  31.351  12.983
89250W        W60866  33.559  13.788  14.414
89251W        W60867  40.107   3.349  12.082
89252W        W60868  18.322  23.088   4.959
89253W        W60869  36.147  16.271   1.959
89254W        W60870  14.570   0.876  13.515
89255W        W60871  38.327   0.951  13.599
89256W        W60872  29.756  44.567  11.358
89257W        W60873   0.259  14.900  11.319
89258W        W60874  29.580  22.785   1.718
89259W        W60875  12.588  20.095  14.458
89260W        W60876  43.302  39.719   2.133
89261W        W60877  29.434   7.356   0.429
89262W        W60878  34.899  24.589   4.626
89263W        W60879  10.960  11.231   3.685
89264W        W60880  17.625  43.782   1.385
89265W        W60881   9.882   7.774   2.253
89266W        W60882  34.974  26.018  14.048
89267W        W60883   7.622  30.155   3.955
89268W        W60884  33.757  38.303   3.666
89269W        W60885   7.256  39.509   2.295
89270W        W60886  35.614  19.119  14.839
89271W        W60887  28.959  13.088   2.720
89272W        W60888  12.556  10.197   3.918
89273W        W60889   1.211  29.605  13.803
89274W        W60890  36.459   8.393   4.158
89275W        W60891  13.134  10.351   1.799
89276W        W60892  20.976  39.965   3.149
89277W        W60893  43.027  41.939  14.053
89278W        W60894   9.907  28.180  12.652
89279W        W60895  14.945  30.761  10.646
89280W        W60896   4.218  29.852  12.559
89281W        W60897  27.220  12.194   2.818
89282W        W60898  27.554  22.765  10.781
89283W        W60899  10.930  11.669   3.390
89284W        W60900   2.228  26.011  12.655
89285W        W60901  19.761   2.800  10.657
89286W        W60902  28.530  42.506  10.638
89287W        W60903   6.896  15.694  11.070
89288W        W60904  11.157  38.999  12.973
89289W        W60905  22.528  28.992  13.696
89290W        W60906  21.523  44.035   3.284
89291W        W60907  37.061  37.882  13.038
89292W        W60908  25.542   9.732   2.899
89293W        W60909  12.203  28.857   3.413
89294W        W60910  12.275   1.491   1.889
89295W        W60911  27.033   8.342   1.309
89296W        W60912  16.585   7.332   3.275
89297W        W60913  12.861  31.414  10.506
89298W        W60914  23.644  35.598  13.508
89299W        W60915  15.642  39.841  14.448
89300W        W60916  15.855   8.816   4.121
89301W        W60917   3.248   4.236  13.949
89302W        W60918  27.891  16.056  13.945
89303W        W60919  41.489  40.828  12.473
89304W        W60920  27.979   6.106   1.868
89305W        W60921  30.575  40.314   3.763
89306W        W60922  27.275   6.466  13.109
89307W        W60923  41.745  40.360   1.227
89308W        W60924   0.302  16.763   3.150
89309W        W60925  25.942  33.429   3.140
89310W        W60926  35.631  22.059   3.610
89311W        W60927  37.649  28.009   2.343
89312W        W60928  19.291  15.886  13.439
89313W        W60929  35.018   4.932   3.195
89314W        W60930  23.585  41.440   0.377
89315W        W60931  32.407  10.900  13.075
89316W        W60932  38.882  23.957   3.054
89317W        W60933  16.011  14.606   0.784
89318W        W60934  42.875   0.520  12.890
89319W        W60935  42.808   1.535   2.194
89320W        W60936  40.781   6.387  13.625
89321W        W60937  25.489   1.002  14.747
89322W        W60938  19.254  40.022   3.990
89323W        W60939  30.144  35.621  13.323
89324W        W60940  18.654  14.747  11.383
89325W        W60941  30.933  14.367  12.868
89326W        W60942   9.109   3.041   3.189
89327W        W60943  42.048  41.558   2.762
89328W        W60944  24.054  15.206  14.406
89329W        W60945   4.530  44.744   0.507
89330W        W60946   1.691  36.597  14.439
89331W        W60947  33.084   1.199  14.869
89332W        W60948  15.276  10.818   1.068
89333W        W60949  26.550   1.927  13.940
89334W        W60950   0.380  12.900  10.702
89335W        W60951  24.884  12.822   1.340
89336W        W60952   5.353  16.370  13.314
89337W        W60953  11.688  13.678   1.622
89338W        W60954  21.880  27.317   1.500
89339W        W60955  32.165  42.138  12.405
89340W        W60956  13.808   7.952   2.859
89341W        W60957  33.156  30.198   3.716
89342W        W60958  13.727   4.889   2.180
89343W        W60959   5.739  10.931  12.430
89344W        W60960  15.308  21.042   9.755
89345W        W60961  30.500  41.548  10.634
89346W        W60962  31.203  20.804   1.250
89347W        W60963   5.363  14.013   2.717
89348W        W60964  25.058  20.177  14.353
89349W        W60965   0.176   8.907   3.248
89350W        W60966   1.807  30.908   0.680
89351W        W60967   3.670  38.902  11.466
89352W        W60968  44.795  13.531  12.337
89353W        W60969  31.248  22.153  14.054
89354W        W60970  24.458  24.607  12.408
89355W        W60971  20.104  31.853  14.904
89356W        W60972  19.033   0.950   3.205
89357W        W60973  19.582  11.125  14.883
89358W        W60974  43.035  39.339   0.847
89359W        W60975   2.449  44.082   3.736
89360W        W60976  30.039  29.216   3.788
89361W        W60977  17.053  42.429  14.270
89362W        W60978  27.500   3.669   3.787
89363W        W60979  15.076  23.558  10.917
89364W        W60980   5.706  33.904   2.367
89365W        W60981  15.157  27.680   1.722
89366W        W60982  37.660  42.294  12.331
89367W        W60983   5.171  18.509   1.257
89368W        W60984  36.367  23.422  13.021
89369W        W60985  25.024  42.289  13.995
89370W        W60986  35.461  16.283   1.241
89371W        W60987  13.815  12.137   0.956
89372W        W60988   6.208  31.860  14.333
89373W        W60989   9.200  44.395  12.016
89374W        W60990  37.774  27.691   4.208
89375W        W60991  30.100  19.229   0.229
89376W        W60992  32.582  33.627  10.832
89377W        W60993   3.322  20.973  10.962
89378W        W60994  38.064  27.081   2.398
89379W        W60995  40.793  17.188  11.997
89380W        W60996  38.117   4.430  11.419
89381W        W60997  11.700  36.867  14.336
89382W        W60998   3.067  32.444  11.707
89383W        W60999  28.667   7.280   2.854
89384W        W61000  41.192  21.978   0.357
89385W        W61001  31.523  26.769   1.705
89386W        W61002   4.180  23.168   5.453
89387W        W61003  23.778   6.229  13.860
89388W        W61004  44.108   2.483  11.462
89389W        W61005  15.295  37.109  13.985
89390W        W61006  35.912  11.594   3.989
89391W        W61007   2.430  23.273   2.748
89392W        W61008  12.409  33.450   0.299
89393W        W61009  32.865  35.363   1.669
89394W        W61010  16.353   4.793   0.536
89395W        W61011  41.857  29.673  14.430
89396W        W61012  16.307   1.227   2.338
89397W        W61013  20.313  18.210   3.219
89398W        W61014  23.635  28.542   2.272
89399W        W61015  15.324  19.065   2.870
89400W        W61016  34.852   5.557  14.746
89401W        W61017  26.545  16.122  11.400
89402W        W61018   2.888   6.853   0.180
89403W        W61019  18.762  22.115  12.450
89404W        W61020   8.127  37.160   2.235
89405W        W61021  14.115  14.596  10.656
89406W        W61022  43.471  23.670   4.451
89407W        W61023  37.708  25.281  12.818
89408W        W61024  18.653   0.566  13.564
89409W        W61025  18.113   6.145   1.346
89410W        W61026  42.082  35.401  12.449
89411W        W61027  15.515  13.402   3.732
89412W        W61028  14.185  19.586   0.919
89413W        W61029  17.833  13.080   0.056
89414W        W61030  27.551  23.656   3.584
89415W        W61031   1.423   2.869   0.364
89416W        W61032  26.595  32.129  10.997
89417W        W61033  42.346  19.084  12.755
89418W        W61034  26.830  42.873   0.229
89419W        W61035  29.522  36.983  13.519
89420W        W61036  34.523   7.287  13.936
89421W        W61037   2.053  21.809  11.558
89422W        W61038  21.842  42.356  10.850
89423W        W61039  19.813  13.092   2.021
89424W        W61040  25.624  26.389   1.945
89425W        W61041   8.951  42.509   2.851
89426W        W61042  27.578   1.743  13.053
89427W        W61043   2.628  16.951   3.945
89428W        W61044   4.003  21.191  14.289
89429W        W61045  44.195  35.512   4.289
89430W        W61046  23.028  32.788   4.619
89431W        W61047  30.942  37.441  11.210
89432W        W61048  43.944  35.962   4.152
89433W        W61049   4.830  39.892  13.380
89434W        W61050  13.230   6.300  10.700
89435W        W61051  44.979  35.120   2.291
89436W        W61052  43.257  29.965  13.075
89437W        W61053  41.763  17.707   0.404
89438W        W61054  29.984  41.109  14.033
89439W        W61055  42.139  29.449  11.195
89440W        W61056   9.842  24.569   3.249
89441W        W61057  39.495  37.122  13.381
89442W        W61058  12.896  19.197   1.791
89443W        W61059   8.765  21.990  12.948
89444W        W61060  14.121  43.081   0.026
89445W        W61061  41.265   7.360   1.775
89446W        W61062   5.352   9.700   0.314
89447W        W61063  30.449  38.008  11.678
89448W        W61064   2.716  39.328   2.235
89449W        W61065  34.491  23.963   4.608
89450W        W61066  19.638  36.480   3.352
89451W        W61067   2.186  35.366   1.354
89452W        W61068  14.614  27.834  10.368
89453W        W61069  33.275   6.166  12.906
89454W        W61070  36.047   3.844   3.833
89455W        W61071  30.455  37.875  12.918
89456W        W61072  40.839  22.620   1.893
89457W        W61073   6.178   6.461  11.200
89458W        W61074  20.815  15.491  14.764
89459W        W61075  31.129  43.381  14.633
89460W        W61076  42.312  42.493   0.351
89461W        W61077  44.894  16.247   0.518
89462W        W61078  36.660  19.139   1.448
89463W        W61079   8.825   9.985  13.583
89464W        W61080  41.711  20.435   4.253
89465W        W61081  17.323   9.856  14.765
89466W        W61082  13.129  35.162   2.752
89467W        W61083  18.728  11.544  11.281
89468W        W61084  43.869   5.189  13.373
89469W        W61085   6.446  34.547  10.719
89470W        W61086  39.395  22.170   2.214
89471W        W61087   3.715  17.698   0.286
89472W        W61088  25.864  38.881   2.138
89473W        W61089   0.969  27.976   4.977
89474W        W61090  33.388  24.247   2.891
89475W        W61091  31.386  38.126   0.668
89476W        W61092  28.199  28.629   0.001
89477W        W61093  17.123   6.001  13.491
89478W        W61094   9.852  42.127  11.712
89479W        W61095  16.217  30.172  12.933
89480W        W61096  32.412  34.519   4.223
89481W        W61097  36.668  20.650   0.838
89482W        W61098  20.644  35.564   0.413
89483W        W61099  26.024  42.643  14.048
89484W        W61100  15.185  17.835  12.775
89485W        W61101   9.751  18.633   0.777
89486W        W61102  10.301  29.481  11.709
89487W        W61103  10.094  33.358   3.200
89488W        W61104  22.111  34.624   4.779
89489W        W61105  35.118  40.860   3.496
89490W        W61106  40.327  37.487   0.632
89491W        W61107   1.334  26.549  10.720
89492W        W61108  34.128   5.285  14.333
89493W        W61109   1.761   3.517   2.719
89494W        W61110  10.874   5.002   3.656
89495W        W61111   8.439  20.725   1.796
89496W        W61112   7.665   3.069   0.254
89497W        W61113  13.265  19.738   1.455
89498W        W61114  37.824  37.885  11.116
89499W        W61115  28.384   1.875   3.802
89500W        W61116   2.087  23.797  13.904
89501W        W61117  13.798   3.286  13.526
89502W        W61118   5.473   0.363   9.771
89503W        W61119  26.664   3.237  11.082
89504W        W61120  28.403  15.830  11.188
89505W        W61121  15.800   7.405  12.082
89506W        W61122  19.511   6.394  10.898
89507W        W61123  24.928   5.149  14.081
89508W        W61124  29.374  17.149  10.661
89509W        W61125  13.584   2.686  13.432
89510W        W61126  21.079  21.652   3.622
89511W        W61127   9.115  23.622   3.023
89512W        W61128  15.052   4.152  11.878
89513W        W61129  28.990   1.880  12.018
89514W        W61130   8.991  31.914   3.760
89515W        W61131   9.284   8.182  14.627
89516W        W61132  33.378  23.430  11.277
89517W        W61133  18.110  41.562   2.344
89518W        W61134  26.836  20.179  12.462
89519W        W61135   5.352  20.682  10.767
89520W        W61136  21.095  27.339   4.434
89521W        W61137  18.535  38.523  14.600
89522W        W61138  34.939   4.392   2.326
89523W        W61139  19.710  21.267   2.770
89524W        W61140  24.992  29.709  13.041
89525W        W61141  22.080  20.374  12.144
89526W        W61142  28.863  27.030  13.843
89527W        W61143  10.399  43.613  13.008
89528W        W61144  20.896  23.648   1.670
89529W        W61145  41.431  29.067  11.102
89530W        W61146  39.992  14.297   0.965
89531W        W61147  38.069  42.236   2.667
89532W        W61148  37.349   1.746  12.014
89533W        W61149  40.010  28.149   3.830
89534W        W61150  35.571   5.304  14.517
89535W        W61151   7.311  32.178   0.817
89536W        W61152  11.606  11.202  11.270
89537W        W61153  28.045  42.335  12.376
89538W        W61154  10.150  29.082  13.033
89539W        W61155   2.175  35.294  13.556
89540W        W61156  10.128  43.381  12.623
89541W        W61157  25.268  41.651  13.396
89542W        W61158  10.230  20.825   4.095
89543W        W61159   5.711  35.055  12.860
89544W        W61160  28.201  31.656  12.122
89545W        W61161  34.933  38.902  11.972
89546W        W61162  12.108  39.438   0.973
89547W        W61163   5.714  38.566   3.678
89548W        W61164  35.545  32.383   2.966
89549W        W61165  39.418  27.741   4.129
89550W        W61166  28.701  10.291   3.238
89551W        W61167   5.476  28.687   2.780
89552W        W61168  19.630  14.177  12.565
89553W        W61169   5.624  26.066   3.198
89554W        W61170   7.421   2.174   3.267
89555W        W61171  28.572  29.446  14.816
89556W        W61172  39.452  36.317  11.528
89557W        W61173   3.363   5.981   1.474
89558W        W61174  27.957  28.125  13.914
89559W        W61175  28.037  44.888  13.547
89560W        W61176  43.435  14.381  14.359
89561W        W61177   2.288  22.036   2.487
89562W        W61178  12.333  43.950  13.541
89563W        W61179  18.934   9.162  14.980
89564W        W61180  25.547  26.365   0.921
89565W        W61181  18.010  24.580  14.745
89566W        W61182  34.017  40.214   3.658
89567W        W61183  38.497   3.411  13.454
89568W        W61184  31.834  35.521   3.657
89569W        W61185  31.621  14.379   1.900
89570W        W61186  24.691  22.107  13.333
89571W        W61187  17.733   3.009   1.813
89572W        W61188   9.731  40.504  10.470
89573W        W61189  37.295  33.039   1.203
89574W        W61190  33.680  42.483   0.704
89575W        W61191  34.469  30.009  14.784
89576W        W61192  11.904  13.733   4.659
89577W        W61193  24.714  34.033  14.246
89578W        W61194  38.405  28.972   1.831
89579W        W61195   0.740  40.106   2.897
89580W        W61196   7.014  12.539   3.662
89581W        W61197  42.265  32.927  12.578
89582W        W61198  40.241  33.123   4.036
89583W        W61199  37.763  14.677  13.991
89584W        W61200  43.355  22.806   4.203
89585W        W61201  37.838   5.295  11.590
89586W        W61202   4.031  43.845   0.803
89587W        W61203  28.661  17.079   0.703
89588W        W61204   7.973  33.959  12.175
89589W        W61205  11.578  23.330   3.356
89590W        W61206  32.907  29.835   4.018
89591W        W61207   4.761   1.531   5.421
89592W        W61208  39.830  33.633  14.954
89593W        W61209  31.957   1.940   3.300
89594W        W61210  40.966  37.043  11.367
89595W        W61211  39.468   3.425  13.885
89596W        W61212  34.402  27.177   4.305
89597W        W61213  44.271  22.217  12.996
89598W        W61214  17.464  32.460  14.974
89599W        W61215   9.720   4.242  13.450
89600W        W61216  32.773  12.175   1.811
89601W        W61217   3.213  24.126   0.074
89602W        W61218   2.511  35.298  14.957
89603W        W61219   1.470  42.451   2.295
89604W        W61220   6.226   4.360  13.070
89605W        W61221  43.347  23.546   2.673
89606W        W61222   4.582   6.714  13.652
89607W        W61223  42.082   8.339   1.806
89608W        W61224   8.637   1.249   1.499
89609W        W61225  20.598  13.168  14.708
89610W        W61226  16.789  17.481  13.401
89611W        W61227  28.448  23.237   2.221
89612W        W61228  32.132  41.299   1.859
89613W        W61229  36.111  15.770   2.529
89614W        W61230   0.423  25.482  10.806
89615W        W61231  18.644  28.684   0.757
89616W        W61232  44.979  15.520   2.336
89617W        W61233  29.754  18.432   4.559
89618W        W61234  37.930  34.664   3.674
89619W        W61235  21.994  31.787   3.676
89620W        W61236  17.671  16.550  12.344
89621W        W61237  36.436   9.644   2.837
89622W        W61238  41.612  38.059  13.749
89623W        W61239  21.804  29.597   3.096
89624W        W61240  37.613  14.214  11.023
89625W        W61241  44.590  37.216  10.228
89626W        W61242  34.924  22.641  13.861
89627W        W61243   7.154  34.957   1.717
89628W        W61244  11.722   8.939  12.670
89629W        W61245   9.846  24.376   3.756
89630W        W61246  27.735  32.578  14.290
89631W        W61247  38.567  17.577  13.490
89632W        W61248  16.609   6.384   3.302
89633W        W61249  31.498   4.845   4.543
89634W        W61250  14.653  11.310  13.333
89635W        W61251  38.407   4.790   2.782
89636W        W61252  36.568  27.966  10.168
89637W        W61253   9.467  19.825  10.400
89638W        W61254  42.520  17.565   0.061
89639W        W61255  37.544  15.829  13.108
89640W        W61256  42.747   0.029  12.987
89641W        W61257   7.763  15.839  10.485
89642W        W61258  11.540  16.543   1.825
89643W        W61259  15.099  29.912   0.467
89644W        W61260  14.001  15.848  14.623
89645W        W61261   1.748  22.657   4.919
89646W        W61262  33.118  26.751   4.816
89647W        W61263   2.817   2.865  14.374
89648W        W61264  27.452  12.075  12.038
89649W        W61265  24.891  43.005  11.630
89650W        W61266  29.104  41.481   2.849
89651W        W61267  13.691  24.560   1.951
89652W        W61268  12.117  36.536   1.735
89653W        W61269   3.733   4.425  13.722
89654W        W61270  28.465  39.376   1.655
89655W        W61271   2.956   6.456   4.206
89656W        W61272   6.464  35.616   2.166
89657W        W61273  19.332  14.921   2.170
89658W        W61274  28.095   0.757  11.934
89659W        W61275  22.099  20.671  12.607
89660W        W61276  29.651  24.853   2.775
89661W        W61277  25.658  33.423   4.634
89662W        W61278  18.228  17.397  13.971
89663W        W61279  15.572  24.977  12.448
89664W        W61280  14.127  19.280   3.878
89665W        W61281   6.084   8.276  11.638
89666W        W61282  18.157   0.238  12.874
89667W        W61283  12.318   6.289  12.015
89668W        W61284  13.072  30.110  14.137
89669W        W61285  23.769  32.338   1.926
89670W        W61286   3.636  31.019  12.444
89671W        W61287  27.166  21.065  11.614
89672W        W61288  33.692  12.442   3.109
89673W        W61289   8.355  34.663   0.240
89674W        W61290  11.677  19.098   2.235
89675W        W61291  38.055   4.265   2.954
89676W        W61292   2.708  15.579   2.892
89677W        W61293  14.558  38.931   4.510
89678W        W61294  16.073  29.196   0.203
89679W        W61295  25.570  23.451   9.763
89680W        W61296   6.961  40.494   0.682
89681W        W61297  35.994  26.979   0.813
89682W        W61298   6.276  24.225  12.899
89683W        W61299  24.049  11.334   3.739
89684W        W61300  29.374  13.647  13.505
89685W        W61301  35.993  39.483   2.394
89686W        W61302   9.727  41.080   2.904
89687W        W61303  15.578  17.182   0.856
89688W        W61304  15.619  33.344  11.351
89689W        W61305   3.399  26.782   0.378
89690W        W61306  35.682   9.347   2.886
89691W        W61307  11.358  17.088   0.896
89692W        W61308  27.631  13.367   1.640
89693W        W61309  22.851   7.189  14.814
89694W        W61310   3.410   4.762  13.984
89695W        W61311   7.452  14.296  11.117
89696W        W61312  16.358   4.858  13.791
89697W        W61313  25.466   8.203   3.174
89698W        W61314  20.165   1.555  14.376
89699W        W61315  10.378  25.125   2.728
89700W        W61316  26.727  26.989  12.857
89701W        W61317   1.896   7.654   3.152
89702W        W61318   6.078   9.931  12.610
89703W        W61319  15.894  15.131  13.052
89704W        W61320   2.760  19.298  12.878
89705W        W61321  43.220   5.973   3.297
89706W        W61322  38.162  43.948   3.355
89707W        W61323  24.943  36.819   1.420
89708W        W61324   8.999  29.102   0.490
89709W        W61325  40.032  36.929   1.861
89710W        W61326  18.041   0.804  14.499
89711W        W61327   6.643  16.628  11.613
89712W        W61328  38.577  30.187  12.496
89713W        W61329  14.606   4.412  10.216
89714W        W61330   8.649  39.318  13.565
89715W        W61331  31.110  30.150  13.912
89716W        W61332  34.506  36.291   2.189
89717W        W61333  18.622   8.632   0.866
89718W        W61334  13.397  30.364   0.456
89719W        W61335  39.369   3.815  14.878
89720W        W61336  19.515  44.746   0.903
89721W        W61337  39.229  41.405  14.180
89722W        W61338   7.122   3.630  10.326
89723W        W61339  16.395  29.306  13.567
89724W        W61340  10.824  24.312  11.945
89725W        W61341  39.596  29.414  14.274
89726W        W61342  31.564  37.619   0.680
89727W        W61343   2.326   9.130   3.675
89728W        W61344   0.230  29.545   1.331
89729W        W61345   3.758  37.369   3.379
89730W        W61346  14.129  41.835  11.567
89731W        W61347   4.182  32.928   0.256
89732W        W61348  35.127  16.590  11.527
89733W        W61349  29.859  24.105   3.862
89734W        W61350   4.619  12.386  12.509
89735W        W61351  30.323  22.123  12.906
89736W        W61352  44.462  36.500  12.048
89737W        W61353  35.063  17.800  13.707
89738W        W61354   5.573  10.729   0.299
89739W        W61355  43.507  33.940  11.594
89740W        W61356  32.744  23.007   4.083
89741W        W61357  42.980  17.039  11.024
89742W        W61358   7.379   5.968  13.650
89743W        W61359  16.882  16.080   4.160
89744W        W61360  39.565  32.365   3.217
89745W        W61361  24.452   9.851   3.888
89746W        W61362   5.285  42.945  12.154
89747W        W61363  31.619  36.837   3.720
89748W        W61364   0.186  13.882   0.074
89749W        W61365  31.430  32.645  11.167
89750W        W61366   8.429   1.480   2.906
89751W        W61367  18.341  14.789   0.896
89752W        W61368  22.642  11.742  13.581
89753W        W61369  37.104   0.480  13.417
89754W        W61370  37.549  14.053  13.441
89755W        W61371  30.627  20.127   3.913
89756W        W61372  39.586   8.126   1.729
89757W        W61373  11.402  26.014   3.058
89758W        W61374  38.889  32.151  14.426
89759W        W61375  14.789   7.931  13.455
89760W        W61376  44.899   8.104  11.915
89761W        W61377  31.618   0.097  12.160
89762W        W61378  13.542   9.672  14.157
89763W        W61379  18.001  25.695  14.274
89764W        W61380  42.022   7.136   3.213
89765W        W61381  37.511  36.795  14.357
89766W        W61382  34.522   6.969   2.720
89767W        W61383  43.069  44.740  14.421
89768W        W61384  17.597  17.327   9.990
89769W        W61385  18.704  39.130  11.953
89770W        W61386  26.729  29.402  12.925
89771W        W61387   1.325  28.222   1.839
89772W        W61388  10.901  25.285   1.450
89773W        W61389  16.730   2.610   0.438
89774W        W61390   0.878   7.996  12.895
89775W        W61391  19.622  14.119   4.939
89776W        W61392  26.515  21.466   5.008
89777W        W61393  25.583  30.226   3.680
89778W        W61394  43.885  21.606  11.809
89779W        W61395   9.668  25.544   2.846
89780W        W61396  14.301  25.073  14.339
89781W        W61397  33.217   4.216  11.129
89782W        W61398  13.182   4.046   1.040
89783W        W61399  29.016  37.796  14.283
89784W        W61400  44.332  16.020  13.512
89785W        W61401  11.130   0.926  10.532
89786W        W61402  37.385  40.129  13.816
89787W        W61403  14.161  24.410   4.424
89788W        W61404   1.976  29.917  12.518
89789W        W61405  36.557  38.377   0.408
89790W        W61406  37.072  44.342  12.958
89791W        W61407  28.422  14.526  13.008
89792W        W61408  43.834   0.178   2.156
89793W        W61409   3.391  16.881  10.807
89794W        W61410  21.536   6.928   0.258
89795W        W61411  44.041  19.633   2.896
89796W        W61412  24.609   7.253  12.034
89797W        W61413  27.923  14.885  12.649
89798W        W61414  16.828  31.670  12.394
89799W        W61415  38.065   4.717  12.558
89800W        W61416  15.683  19.016  10.179
89801W        W61417   5.741  13.649   4.728
89802W        W61418  13.537  43.039  12.864
89803W        W61419  32.567  23.649  13.749
89804W        W61420  36.102  25.975   2.205
89805W        W61421  26.584  11.295   0.195
89806W        W61422  28.521   2.275  13.776
89807W        W61423  16.450   2.213   3.574
89808W        W61424  13.181   7.678   4.800
89809W        W61425  41.271  41.579  11.024
89810W        W61426  26.800  23.511  12.903
89811W        W61427   5.017  30.069   1.827
89812W        W61428  21.701  44.398  12.434
89813W        W61429   2.991  11.801   1.271
89814W        W61430  35.430  36.287  12.430
89815W        W61431   4.903  10.704   1.904
89816W        W61432  29.429  24.672  14.034
89817W        W61433  24.711   6.476  14.114
89818W        W61434  32.326  25.561   3.077
89819W        W61435  29.392   4.924  14.468
89820W        W61436  16.785   5.772   2.389
89821W        W61437  38.525   5.217  14.968
89822W        W61438  22.028  44.331   3.209
89823W        W61439  40.783  23.784   4.117
89824W        W61440  42.993   0.268  14.340
89825W        W61441  44.064  27.892   0.288
89826W        W61442  23.054  18.187  12.491
89827W        W61443  42.812  39.639   1.262
89828W        W61444   7.743  31.626   3.910
89829W        W61445  20.731   7.683   4.217
89830W        W61446  15.559  37.641  10.256
89831W        W61447  21.197  23.587  12.621
89832W        W61448  25.656  39.019   0.938
89833W        W61449  14.673   3.787   1.301
89834W        W61450   3.484  33.793   4.223
89835W        W61451   2.307  18.194   2.452
89836W        W61452  13.205   1.420   4.680
89837W        W61453  44.255  41.369   3.737
89838W        W61454  12.699  39.803   3.366
89839W        W61455   5.686  37.811   2.845
89840W        W61456  14.003   0.615   0.296
89841W        W61457  43.106  12.953  11.151
89842W        W61458  22.183  20.122  11.061
89843W        W61459   1.944  28.633  13.126
89844W        W61460  19.221   7.649  14.502
89845W        W61461  36.054   6.236  10.400
89846W        W61462  44.681  10.345  12.024
89847W        W61463  40.327  23.259  11.997
89848W        W61464  30.410  44.286   3.146
89849W        W61465  19.972  35.452  12.433
89850W        W61466  17.697  17.903   3.769
89851W        W61467  37.635  27.131   0.872
89852W        W61468  42.552  44.784   2.144
89853W        W61469  37.505  14.057   0.250
89854W        W61470  33.818  26.918  12.651
89855W        W61471  18.705  31.856  11.117
89856W        W61472  26.098  44.318  12.092
89857W        W61473  28.465  19.195   3.138
89858W        W61474  39.085   3.418   2.890
89859W        W61475   1.757  19.052   3.190
89860W        W61476  23.162  41.365   1.819
89861W        W61477  14.532  31.612  12.145
89862W        W61478  11.779  32.885   0.913
89863W        W61479  18.183   7.729  11.141
89864W        W61480   3.375  19.708   1.124
89865W        W61481  22.465   9.337   2.806
89866W        W61482  20.643  27.394  10.723
89867W        W61483  15.210  21.314   2.256
89868W        W61484  10.306  33.689   0.434
89869W        W61485   7.976   0.354   2.881
89870W        W61486  32.188  22.582  14.847
89871W        W61487  33.630  33.111  12.366
89872W        W61488   8.530  41.661  11.559
89873W        W61489  13.421  31.209  14.374
89874W        W61490  19.064   4.827  14.485
89875W        W61491  41.926  28.647  14.004
89876W        W61492  41.958   5.697  11.377
89877W        W61493  28.044   2.010  11.183
89878W        W61494  30.530  38.214   2.150
89879W        W61495  40.306   0.313   1.355
89880W        W61496  40.277  19.537   1.559
89881W        W61497  27.298  35.619  10.130
89882W        W61498  22.116   0.984   1.333
89883W        W61499  14.566   3.030  12.566
89884W        W61500  23.822  29.026   2.328
89885W        W61501  21.770  37.354   4.186
89886W        W61502  40.288  11.254   2.557
89887W        W61503  40.911   6.344   0.164
89888W        W61504  27.016  17.111  14.968
89889W        W61505   2.404  26.318   4.813
89890W        W61506  32.487  17.661   4.858
89891W        W61507  42.806   7.831   4.649
89892W        W61508  13.330  43.562   0.917
89893W        W61509  16.019  14.742  13.874
89894W        W61510   2.988  11.264   0.002
89895W        W61511  44.153  13.857   4.496
89896W        W61512  12.698  37.984   4.852
89897W        W61513  23.655  12.835  12.296
89898W        W61514  18.789  15.914   5.039
89899W        W61515  30.652  41.461  14.021
89900W        W61516   8.782  15.672  12.691
89901W        W61517   1.960  34.204  13.606
89902W        W61518   3.720   7.760  14.028
89903W        W61519  14.293  16.577   3.668
89904W        W61520  43.471   4.621   0.372
89905W        W61521  23.143  23.770   4.035
89906W        W61522  20.652  20.997   1.423
89907W        W61523  19.724   2.269  10.706
89908W        W61524  37.499  18.672  10.802
89909W        W61525  13.888  24.238   3.183
89910W        W61526  43.017  13.035   1.636
89911W        W61527   6.430   3.235   2.021
89912W        W61528  25.018   2.534   4.264
89913W        W61529  10.161  37.023   4.979
89914W        W61530  44.526  13.889  12.045
89915W        W61531   0.234  29.070   4.114
89916W        W61532  24.689   7.382   1.218
89917W        W61533  11.879  36.513   2.248
89918W        W61534  23.917  34.401  14.725
89919W        W61535  13.251  31.307   1.933
89920W        W61536  42.496  37.363   4.621
89921W        W61537  40.788  28.331  11.677
89922W        W61538  40.720   2.328   3.775
89923W        W61539  32.638  44.450  13.738
89924W        W61540  41.566  37.799   1.873
89925W        W61541  29.656   8.571   4.499
89926W        W61542  20.035   3.856   1.308
89927W        W61543  39.408   7.623   3.700
89928W        W61544  43.846  28.149   2.310
89929W        W61545  28.092  28.621   4.866
89930W        W61546  39.267   3.120   3.861
89931W        W61547  16.069  12.285   1.791
89932W        W61548   7.661   1.703   1.487
89933W        W61549   6.537  44.461   2.851
89934W        W61550  26.151   3.250  14.283
89935W        W61551  28.020  40.287   0.724
89936W        W61552   8.395   8.295   1.257
89937W        W61553  10.123  42.373  11.369
89938W        W61554  44.076   7.887  11.055
89939W        W61555  24.213  31.555  11.509
89940W        W61556  17.003   6.883   0.960
89941W        W61557   9.236  38.578  11.150
89942W        W61558  24.861   0.654  13.247
89943W        W61559  18.791  31.067   0.148
89944W        W61560   1.778  12.051   5.035
89945W        W61561  22.803   9.845  11.600
89946W        W61562  25.552   2.736   3.787
89947W        W61563  26.488  31.434   5.013
89948W        W61564  16.246   8.687   3.694
89949W        W61565  37.347  44.388  12.472
89950W        W61566  32.203  38.553  13.159
89951W        W61567   2.986   5.758  11.730
89952W        W61568  12.709   3.225  13.014
89953W        W61569  11.613   9.161   0.908
89954W        W61570  29.423   8.358   0.329
89955W        W61571  12.287  41.372  11.565
89956W        W61572  29.899  21.798   3.272
89957W        W61573  41.580  43.083  11.887
89958W        W61574  39.469  19.303   0.690
89959W        W61575  44.301  43.367   1.352
89960W        W61576  27.029  44.414  12.937
89961W        W61577  41.595   5.258   3.438
89962W        W61578  37.805  10.089  14.309
89963W        W61579  10.711  20.489   3.244
89964W        W61580  23.451  14.760   0.543
89965W        W61581  13.919  21.588  13.374
89966W        W61582  26.932  35.885   1.099
89967W        W61583   0.793  23.548  14.310
89968W        W61584  20.227  43.198   4.546
89969W        W61585  26.567  33.089   2.679
89970W        W61586  25.664  22.491   2.893
89971W        W61587   3.027  29.520  11.697
89972W        W61588   4.937   3.419  13.312
89973W        W61589  32.596  40.294  12.918
89974W        W61590  20.993  11.695   4.075
89975W        W61591  35.039  17.090  12.995
89976W        W61592  42.323  24.872  11.566
89977W        W61593  16.541  29.553   3.818
89978W        W61594  42.279  27.619   4.583
89979W        W61595  30.083   3.288   4.385
89980W        W61596  41.256  25.568   4.602
89981W        W61597  23.467   8.388  11.607
89982W        W61598  40.551  28.561   3.263
89983W        W61599   1.667  15.946   0.754
89984W        W61600  12.722   3.949  13.892
89985W        W61601   4.877  26.579   3.624
89986W        W61602  10.367  39.996  13.483
89987W        W61603   7.715   8.251   1.803
89988W        W61604  31.399  17.247  12.081
89989W        W61605  44.966  10.073  10.084
89990W        W61606  28.966   5.118  12.107
89991W        W61607  41.879  41.389   0.816
89992W        W61608  24.434  15.647  13.306
89993W        W61609   9.664  36.030  12.062
89994W        W61610  37.103  31.899  14.797
89995W        W61611  14.880  11.026   0.822
89996W        W61612  23.061  32.386  10.542
89997W        W61613  12.818  18.532  13.113
89998W        W61614  16.842  17.001  13.581
89999W        W61615  34.281   1.376   3.504
90000W        W61616  26.115  26.080   4.276
90001W        W61617  40.797  12.435  14.589
90002W        W61618  14.824  27.995  13.822
90003W        W61619  22.694  28.424   2.334
90004W        W61620   1.315   1.681   3.710
90005W        W61621  42.891  21.014   4.529
90006W        W61622  38.575   7.298  13.020
90007W        W61623  19.260  12.617   3.428
90008W        W61624  31.970  22.756  12.803
90009W        W61625  17.781  31.954   0.786
90010W        W61626  20.103  33.911   3.731
90011W        W61627   1.905   4.412  11.624
90012W        W61628   0.843  10.648  10.497
90013W        W61629  36.055   5.227   0.390
90014W        W61630  27.675  35.477  13.017
90015W        W61631  30.892   4.394   1.460
90016W        W61632   0.810  26.970   9.929
90017W        W61633  23.121  40.696   4.538
90018W        W61634  38.002  42.716   2.815
90019W        W61635  44.972  30.206   2.450
90020W        W61636  30.794  15.898   0.471
90021W        W61637  38.476  18.930   3.751
90022W        W61638  19.749  21.616   2.340
90023W        W61639  12.563  36.944  14.290
90024W        W61640   4.920  22.226  11.932
90025W        W61641  39.269  32.656   2.787
90026W        W61642  41.187  13.108  14.075
90027W        W61643  23.315  44.254   3.753
90028W        W61644  36.735  12.016   1.913
90029W        W61645  44.408  24.630  10.898
90030W        W61646  35.346  29.165   1.938
90031W        W61647  38.071  18.890  14.148
90032W        W61648  27.206  14.994   0.688
90033W        W61649   3.342   8.804   4.544
90034W        W61650  12.447   2.778   0.244
90035W        W61651  36.580  36.817   0.298
90036W        W61652  10.299  18.993   4.579
90037W        W61653  18.577  38.985   0.272
90038W        W61654  42.884  18.123  13.152
90039W        W61655  14.433  15.803   2.112
90040W        W61656   2.659  43.435  12.006
90041W        W61657   7.307  15.988   3.347
90042W        W61658  32.137  27.499  13.004
90043W        W61659  13.198  11.873   2.014
90044W        W61660  17.183  43.382  14.479
90045W        W61661  32.163  22.286  12.924
90046W        W61662   8.793  29.715  12.593
90047W        W61663  18.588   8.435   3.793
90048W        W61664  23.702  22.268  13.488
90049W        W61665  30.194  34.603  11.132
90050W        W61666  41.082  42.242   2.304
90051W        W61667   0.464  34.054  12.633
90052W        W61668   5.616  32.356   3.073
90053W        W61669  44.745   6.598   0.749
90054W        W61670  34.812  13.849   3.129
90055W        W61671  28.087  31.929   1.659
90056W        W61672  27.418  24.130   4.890
90057W        W61673  44.921  17.278   0.994
90058W        W61674  35.316  17.369   5.075
90059W        W61675   9.899  26.985  14.863
90060W        W61676  19.185   6.827  11.625
90061W        W61677  17.295  10.329   2.776
90062W        W61678   3.162  43.499  13.941
90063W        W61679  36.014  31.452   2.736
90064W        W61680   9.629  36.114  14.262
90065W        W61681   6.637  10.257   0.363
90066W        W61682   5.340  38.900  13.805
90067W        W61683  29.017  39.875  10.967
90068W        W61684  43.923  43.929   2.759
90069W        W61685   6.427  18.143   2.702
90070W        W61686  16.723  20.175   4.656
90071W        W61687   3.879  15.339  13.274
90072W        W61688  29.673  43.903  14.829
90073W        W61689  14.667  17.635   4.899
90074W        W61690  13.406  44.032   4.119
90075W        W61691  28.411  19.642  13.661
90076W        W61692  19.107   0.468   1.021
90077W        W61693  16.358  39.968   2.266
90078W        W61694  19.766  19.413  14.464
90079W        W61695  16.732  33.725   4.027
90080W        W61696  16.962  20.490   1.447
90081W        W61697   8.387  24.248  14.705
90082W        W61698  11.420  44.347   3.147
90083W        W61699  10.456  27.225  10.943
90084W        W61700  25.784  19.695   0.267
90085W        W61701  24.719  21.193  13.510
90086W        W61702   3.024  11.363  10.647
90087W        W61703  10.793  42.790   0.001
90088W        W61704  36.933  37.350   3.120
90089W        W61705  41.322  26.940  14.813
90090W        W61706  28.889   0.015  11.154
90091W        W61707  35.006   3.145   0.749
90092W        W61708  34.840  15.161   3.793
90093W        W61709   4.329  28.575  11.169
90094W        W61710  35.497  20.260   1.324
90095W        W61711  14.815   8.132  14.522
90096W        W61712   0.988  22.757  12.002
90097W        W61713   6.486  36.476   2.102
90098W        W61714   4.271  26.465  12.797
90099W        W61715   7.192  29.608   4.235
90100W        W61716  43.201   9.669   4.236
90101W        W61717   0.574  14.213   2.114
90102W        W61718  30.085   6.898   0.948
90103W        W61719   5.250  12.790   4.729
90104W        W61720  42.952  10.106   4.068
90105W        W61721  36.068  26.797  11.948
90106W        W61722   8.850  31.373   3.030
90107W        W61723  30.699  11.233   2.171
90108W        W61724  27.500  22.052  12.450
90109W        W61725  40.734  22.676  10.605
90110W        W61726  21.764  12.888   3.218
90111W        W61727  14.778  21.119  10.667
90112W        W61728  20.093  10.134  14.506
90113W        W61729  44.490   8.345  13.648
90114W        W61730   3.277  20.186  10.616
90115W        W61731  16.808  34.516   4.576
90116W        W61732  32.541  23.461   3.248
90117W        W61733  39.782  14.818  14.468
90118W        W61734  38.387  10.898   5.555
90119W        W61735  37.422  22.353   0.914
90120W        W61736  10.209  24.212  12.482
90121W        W61737  14.747  11.801   3.859
90122W        W61738  35.440  17.148  13.851
90123W        W61739  23.504  20.061  14.522
90124W        W61740   8.748  18.520   0.476
90125W        W61741  29.001  20.541  10.677
90126W        W61742  19.583  27.456   4.665
90127W        W61743   4.561  18.645   3.205
90128W        W61744  35.354  20.114  13.316
90129W        W61745   0.409  32.797   1.997
90130W        W61746   8.295  28.203  12.899
90131W        W61747  24.084  35.555  12.324
90132W        W61748  33.670  17.336  11.000
90133W        W61749  11.843  20.706  13.883
90134W        W61750  40.961  36.670  13.067
90135W        W61751  21.517   7.878   1.343
90136W        W61752  29.740  11.179  13.392
90137W        W61753  26.633  43.635   3.335
90138W        W61754  16.580  17.746  14.392
90139W        W61755  31.585  43.536  14.865
90140W        W61756  36.121   7.158  10.719
90141W        W61757  40.331  23.800  14.010
90142W        W61758  19.312   1.851  13.826
90143W        W61759  24.643  28.817  10.676
90144W        W61760  31.540  25.235   4.169
90145W        W61761  31.855   9.128   1.326
90146W        W61762  15.765  10.847   0.885
90147W        W61763  38.338  37.312   3.315
90148W        W61764   2.154  31.535  14.919
90149W        W61765  12.784  29.618   4.760
90150W        W61766   1.909  38.856  14.150
90151W        W61767   0.296   7.730   4.385
90152W        W61768   6.708   6.719   1.127
90153W        W61769  10.032   5.258   2.092
90154W        W61770   8.322  20.630   3.358
90155W        W61771  38.751  38.325  14.406
90156W        W61772  44.512  10.385  13.383
90157W        W61773   9.022  13.816  11.369
90158W        W61774  41.900  24.133   0.224
90159W        W61775  16.288   3.900   0.892
90160W        W61776  35.474  18.636   0.005
90161W        W61777  11.380  26.047   0.269
90162W        W61778  17.473  25.520   2.896
90163W        W61779   1.945  10.386   0.323
90164W        W61780  21.605  31.991   3.022
90165W        W61781  37.421  34.139  12.908
90166W        W61782  25.649  26.835  10.051
90167W        W61783  12.737  12.797   3.308
90168W        W61784  29.872   2.576   0.287
90169W        W61785  31.919   8.608   1.315
90170W        W61786   5.139  40.669  14.900
90171W        W61787  17.484  22.784  12.463
90172W        W61788  19.673  19.144   2.924
90173W        W61789  20.126  21.864  12.450
90174W        W61790  20.056  26.691  14.527
90175W        W61791   8.562  23.946  11.596
90176W        W61792  26.613  44.282   0.833
90177W        W61793   1.070  26.069  13.294
90178W        W61794  23.550  21.618   4.599
90179W        W61795   7.270  10.054  11.955
90180W        W61796  22.317  31.084   4.091
90181W        W61797  38.135   1.219  14.012
90182W        W61798  33.811   7.054   3.234
90183W        W61799   9.850  42.575   0.825
90184W        W61800  21.137  31.378   4.566
90185W        W61801  17.325  19.816  10.899
90186W        W61802  29.422  22.099   0.009
90187W        W61803  37.189  42.656   1.331
90188W        W61804  32.364  41.549  10.787
90189W        W61805   0.485  21.219  12.837
90190W        W61806  33.641  27.246   2.644
90191W        W61807  17.998  11.684   1.354
90192W        W61808   8.127   8.194  14.916
90193W        W61809  21.607  14.206   4.578
90194W        W61810  20.743  15.157  11.213
90195W        W61811   2.626  19.362   1.162
90196W        W61812  20.576   5.581   5.027
90197W        W61813   5.443  36.024   0.013
90198W        W61814  17.298  23.666   1.242
90199W        W61815  11.787   2.936   3.230
90200W        W61816  39.468   9.653   3.180
90201W        W61817  33.605  11.820  11.611
90202W        W61818  27.353  25.961  11.536
90203W        W61819  33.361  11.382   1.344
90204W        W61820  12.139  31.525  13.642
90205W        W61821  22.767  12.672   2.360
90206W        W61822  13.768  32.593  14.534
90207W        W61823  14.867  23.780  14.845
90208W        W61824  38.979  27.452  11.084
90209W        W61825   7.267  15.423  11.854
90210W        W61826   3.449   3.713  10.502
90211W        W61827  11.149   7.355  11.893
90212W        W61828  10.318  25.717   4.087
90213W        W61829  20.747  11.180  12.534
90214W        W61830  16.924  18.921  14.541
90215W        W61831  34.947  25.719   1.749
90216W        W61832   8.553   1.874   2.006
90217W        W61833  30.489  11.159  12.792
90218W        W61834   8.263  33.463  10.627
90219W        W61835  37.810  35.994  14.625
90220W        W61836  20.021  37.323  11.154
90221W        W61837  43.242   2.348  12.652
90222W        W61838  13.220  24.583   4.954
90223W        W61839   6.161  44.340   1.440
90224W        W61840   3.268  39.872   4.155
90225W        W61841  35.124  28.486   0.872
90226W        W61842   0.318  24.875   0.821
90227W        W61843  24.562   5.845  13.098
90228W        W61844  36.666   2.771  11.775
90229W        W61845  21.197  22.477   1.285
90230W        W61846  35.118  32.891  12.357
90231W        W61847  30.875  42.891  12.416
90232W        W61848  40.010   0.674   4.965
90233W        W61849  40.730  39.121   3.878
90234W        W61850  14.554  13.741  10.428
90235W        W61851   0.957  18.002   0.864
90236W        W61852  37.135  16.601  12.021
90237W        W61853  25.066  21.867   1.526
90238W        W61854   9.861   3.078   2.986
90239W        W61855  16.753  19.179   4.910
90240W        W61856  20.148  17.565   4.431
90241W        W61857  21.288  29.461   1.743
90242W        W61858  41.812  11.741  12.129
90243W        W61859  21.237  28.896  14.993
90244W        W61860  38.351  38.040   0.894
90245W        W61861  28.356  37.550   1.288
90246W        W61862   8.778  25.336  14.559
90247W        W61863  10.392  31.621   1.359
90248W        W61864   1.723  11.271  10.760
90249W        W61865  35.868  10.656  13.427
90250W        W61866  13.194   3.743   1.466
90251W        W61867   8.271   7.927  11.647
90252W        W61868  19.532  12.928   4.296
90253W        W61869  34.545  19.631  13.626
90254W        W61870  28.443   5.239   0.245
90255W        W61871  33.246  21.853   2.579
90256W        W61872  17.654  38.308   1.300
90257W        W61873  33.687  44.746   1.761
90258W        W61874  14.175   5.363  14.390
90259W        W61875  20.171  43.373   2.883
90260W        W61876  15.826   4.838  14.748
90261W        W61877  39.054   3.563   5.106
90262W        W61878  28.225   9.195  10.512
90263W        W61879  33.949   2.067  10.346
90264W        W61880   9.209  40.365  14.531
90265W        W61881  31.837  18.036  11.258
90266W        W61882   4.276   0.192  14.900
90267W        W61883  29.721  28.389   1.661
90268W        W61884  23.195  37.636   1.381
90269W        W61885  12.822  40.029  13.634
90270W        W61886  29.975  10.220   0.334
90271W        W61887  10.277  30.599  13.029
90272W        W61888  14.071  43.421   3.786
90273W        W61889  24.678  38.485  13.496
90274W        W61890   0.964  21.721  14.348
90275W        W61891  17.735  44.732  10.641
90276W        W61892  29.482  41.598  10.722
90277W        W61893   2.829   1.486   3.843
90278W        W61894  15.138  38.717  13.846
90279W        W61895  10.795  19.078  11.049
90280W        W61896  31.525  15.611  13.509
90281W        W61897   4.739  29.492   0.804
90282W        W61898  18.795  39.442  12.413
90283W        W61899  38.360  36.838   3.120
90284W        W61900  30.020  13.789  12.468
90285W        W61901  29.158  30.992  11.542
90286W        W61902   8.932  44.241  12.427
90287W        W61903  18.589   5.654   2.656
90288W        W61904  44.231   8.892  11.099
90289W        W61905  13.560  16.501   0.346
90290W        W61906  35.878  11.120   4.217
90291W        W61907  17.619   1.433   4.134
90292W        W61908  15.637   4.343  12.003
90293W        W61909   0.682  17.230   1.664
90294W        W61910   9.573   9.743   2.851
90295W        W61911   8.405  43.227  14.196
90296W        W61912  31.368  24.471  12.891
90297W        W61913  13.083  16.604   3.668
90298W        W61914   7.288  17.294   2.587
90299W        W61915  31.729   9.079  13.340
90300W        W61916  21.024  36.077   3.146
90301W        W61917  13.153  30.184  11.544
90302W        W61918   5.553  35.071   2.761
90303W        W61919  21.285  27.934  14.748
90304W        W61920  16.886   3.928   2.220
90305W        W61921  38.427  23.618   0.291
90306W        W61922  43.536  40.749  13.775
90307W        W61923   5.653   1.517   2.290
90308W        W61924  34.832  10.672  13.310
90309W        W61925   5.724  34.449  12.567
90310W        W61926  12.863   0.298   3.107
90311W        W61927  18.973   0.027  10.172
90312W        W61928  40.399  43.441   2.510
90313W        W61929   3.106  25.587  14.663
90314W        W61930  24.772  42.079   0.797
90315W        W61931  42.385  13.440   4.819
90316W        W61932  43.978  30.375  13.396
90317W        W61933  25.458   2.659  13.984
90318W        W61934  16.187  33.374   4.705
90319W        W61935  34.846  16.104   4.083
90320W        W61936   8.333  35.631   3.296
90321W        W61937  22.807   3.069  14.519
90322W        W61938  11.800   1.512  11.998
90323W        W61939   4.902  43.290  10.490
90324W        W61940   3.677  43.700   1.146
90325W        W61941  44.001   7.505   0.839
90326W        W61942  41.613   5.254  14.235
90327W        W61943  18.130  19.613  13.041
90328W        W61944  35.289   9.024  14.119
90329W        W61945  16.520  15.773  10.632
90330W        W61946  26.131  38.696  12.417
90331W        W61947  31.436  26.030  14.542
90332W        W61948   7.441   2.305  13.059
90333W        W61949  34.308  44.881  10.653
90334W        W61950   3.664  36.042   4.592
90335W        W61951  14.226   7.967  12.161
90336W        W61952  25.135   5.447   3.572
90337W        W61953  26.211  43.789  12.029
90338W        W61954   4.882  27.866   1.473
90339W        W61955  39.986  20.179   4.178
90340W        W61956  12.663  21.262   0.770
90341W        W61957  10.206  22.954   2.438
90342W        W61958   2.963  43.366   1.789
90343W        W61959  38.732  20.993  14.284
90344W        W61960  18.461  30.567  14.022
90345W        W61961  11.540  16.602   4.331
90346W        W61962  10.812   2.272  12.453
90347W        W61963  19.241   9.484  12.334
90348W        W61964  14.406  28.584   4.149
90349W        W61965   6.624  23.311  14.493
90350W        W61966  29.534  24.729  10.689
90351W        W61967  40.076  22.992  14.014
90352W        W61968  42.607  35.109   2.750
90353W        W61969  13.829  16.956   0.415
90354W        W61970  35.394   3.838  11.456
90355W        W61971   0.676   0.938  14.958
90356W        W61972  19.757   5.909  11.534
90357W        W61973   6.961  18.796  12.985
90358W        W61974  12.695  41.472  12.471
90359W        W61975  33.790  25.576  10.635
90360W        W61976  28.485  22.734  10.630
90361W        W61977  34.157  10.334  12.095
90362W        W61978  31.104  25.251   4.462
90363W        W61979  36.357   1.336  14.309
90364W        W61980  32.839  42.454  10.653
90365W        W61981   7.214  11.695   4.867
90366W        W61982  31.061   5.970  11.821
90367W        W61983   7.099  15.239   3.067
90368W        W61984  25.098   7.372  14.245
90369W        W61985  42.225  35.435   4.001
90370W        W61986  17.353  41.318   4.160
90371W        W61987   8.351  18.160   4.566
90372W        W61988  25.590   1.330   2.444
90373W        W61989  36.063  20.855  10.688
90374W        W61990  24.187   5.076  13.013
90375W        W61991  19.912  20.115  11.654
90376W        W61992  22.221  12.482  12.538
90377W        W61993   2.457  13.553   2.866
90378W        W61994  40.506   4.405   3.320
90379W        W61995  31.677   3.977  14.353
90380W        W61996  10.585  24.664  11.017
90381W        W61997   2.833  28.108   4.521
90382W        W61998  35.003   7.520  13.979
90383W        W61999  12.042  38.114   3.219
90384W        W62000  32.610  12.723  12.076
90385W        W62001  32.108  17.458  11.513
90386W        W62002  31.382  37.509   1.404
90387W        W62003  28.604   8.195  12.470
90388W        W62004  34.889  34.677   4.588
90389W        W62005  31.647  21.188  13.953
90390W        W62006  22.328  10.041  11.484
90391W        W62007  26.941  20.450  12.976
90392W        W62008  26.981  19.508   2.950
90393W        W62009  32.958  35.928  11.258
90394W        W62010  34.718  19.537   4.113
90395W        W62011  32.348   1.247  14.350
90396W        W62012  11.933  36.924  13.423
90397W        W62013  37.919  20.703   0.866
90398W        W62014   6.407  16.755   2.997
90399W        W62015  32.606  35.151   4.674
90400W        W62016  20.542  15.871   3.190
90401W        W62017   5.249  34.843  12.714
90402W        W62018   0.420  20.045  11.119
90403W        W62019  41.028  32.465  14.365
90404W        W62020  13.013   6.891   2.767
90405W        W62021  24.108   5.318   4.852
90406W        W62022   1.913  36.718  11.937
90407W        W62023  20.197  15.438   3.661
90408W        W62024   7.950  19.557   0.761
90409W        W62025  39.054  39.957  14.306
90410W        W62026  37.620   3.041  12.122
90411W        W62027  37.093  30.165  14.242
90412W        W62028  40.938  38.554   1.393
90413W        W62029  33.228  42.432   0.951
90414W        W62030   9.773  34.893  11.265
90415W        W62031  35.007  43.024  12.460
90416W        W62032  25.903  19.712   4.137
90417W        W62033   0.774  18.252   2.799
90418W        W62034   0.880  41.659   2.356
90419W        W62035   2.675  27.883   4.081
90420W        W62036   7.840   4.694   1.379
90421W        W62037  16.021  34.663   0.894
90422W        W62038  39.858  31.603  14.668
90423W        W62039  38.254  19.959   4.610
90424W        W62040   6.377  31.667   4.653
90425W        W62041  30.497   4.489   3.763
90426W        W62042  38.931  15.187  14.545
90427W        W62043  32.466   2.833  11.122
90428W        W62044  31.309  22.530   3.821
90429W        W62045   2.526  28.214  12.388
90430W        W62046  23.694  14.323   5.062
90431W        W62047   0.455  31.058   2.140
90432W        W62048  44.877  36.062  10.218
90433W        W62049   9.575  38.598   3.769
90434W        W62050  37.817  41.886  11.154
90435W        W62051  32.030  36.770  14.831
90436W        W62052   9.269  35.477  10.528
90437W        W62053  15.302  22.813   3.714
90438W        W62054   3.661  38.974  13.876
90439W        W62055  33.705   3.333  11.055
90440W        W62056  21.519  21.463   4.116
90441W        W62057  43.286  30.858   1.726
90442W        W62058   6.331  18.683  14.214
90443W        W62059  31.875  21.068   1.701
90444W        W62060  43.959   1.229   3.065
90445W        W62061  41.516  31.710   1.976
90446W        W62062  43.671  38.508  10.312
90447W        W62063  44.588  40.956  11.619
90448W        W62064  30.885  32.389  12.018
90449W        W62065   2.649   2.432   4.566
90450W        W62066   9.581  15.716  11.159
90451W        W62067   5.258  28.260   4.431
90452W        W62068  41.919  32.517   4.887
90453W        W62069  20.633  41.939  14.595
90454W        W62070  44.407  12.558   3.203
90455W        W62071  20.194  40.853  14.819
90456W        W62072  14.100  34.491  13.854
90457W        W62073   3.615  16.156  11.586
90458W        W62074   9.667  38.941   0.042
90459W        W62075  38.629   0.656   0.737
90460W        W62076  41.919  31.455   3.276
90461W        W62077  37.820  39.099   0.369
90462W        W62078  35.114  39.385   4.842
90463W        W62079  25.477   9.974   3.757
90464W        W62080  35.476  26.312  14.801
90465W        W62081  19.180   1.197   2.203
90466W        W62082   4.235  40.477   2.797
90467W        W62083   3.313   9.574   1.474
90468W        W62084  30.904  32.525   3.326
90469W        W62085  35.919  42.855   0.750
90470W        W62086  32.667  41.570   4.441
90471W        W62087   9.414  35.547  11.996
90472W        W62088  42.400   0.739  14.305
90473W        W62089  18.286  18.199   0.351
90474W        W62090  14.121   0.595  12.610
90475W        W62091  32.966  34.639  11.863
90476W        W62092  33.954  21.009   0.744
90477W        W62093  41.733  34.940   0.303
90478W        W62094  42.992  16.139  12.118
90479W        W62095  40.406  26.539  12.878
90480W        W62096  22.325  20.725  14.367
90481W        W62097  16.794  19.005  11.961
90482W        W62098  38.230  17.295  11.110
90483W        W62099   2.397   2.706  13.978
90484W        W62100  16.287  41.894   1.229
90485W        W62101  11.364  34.330  14.253
90486W        W62102  23.696  34.177   4.521
90487W        W62103  22.051   1.213   1.807
90488W        W62104  42.404  21.313  13.010
90489W        W62105  24.979  12.814   3.143
90490W        W62106  10.607  44.430  10.494
90491W        W62107  33.987  19.747   5.065
90492W        W62108  15.285  12.162  12.444
90493W        W62109  21.177  10.375  12.774
90494W        W62110   6.833  22.266   4.573
90495W        W62111   0.274  29.957   4.669
90496W        W62112  42.947  31.442   4.657
90497W        W62113  36.434  35.512  11.632
90498W        W62114  16.733   2.572   3.818
90499W        W62115  10.436   1.632   1.806
90500W        W62116  28.549   6.740   0.287
90501W        W62117  27.394  13.493   5.321
90502W        W62118  13.684  27.149  13.766
90503W        W62119  25.598  23.717   2.123
90504W        W62120  15.313  32.953  11.407
90505W        W62121   4.270   6.903   4.856
90506W        W62122  27.664  26.875  12.567
90507W        W62123  13.111   4.897   0.926
90508W        W62124  38.116  30.076   2.408
90509W        W62125  26.059  42.865   4.780
90510W        W62126   6.343  38.097  13.564
90511W        W62127  37.962  17.462   4.642
90512W        W62128  19.534   8.186   3.019
90513W        W62129  11.101  37.069  13.821
90514W        W62130  38.770  42.526  11.827
90515W        W62131   9.044  39.254   4.276
90516W        W62132  18.759   3.908   2.010
90517W        W62133   5.202  15.790  13.788
90518W        W62134   6.297  38.621  10.433
90519W        W62135  42.491  37.798   4.314
90520W        W62136  32.092  26.569   4.615
90521W        W62137  14.278  35.158  13.475
90522W        W62138  29.417  17.319   2.296
90523W        W62139  12.786  11.871  14.731
90524W        W62140   9.313  18.620   2.234
90525W        W62141  22.987  11.204   2.182
90526W        W62142  21.605   7.722  14.931
90527W        W62143  12.214  40.632  11.133
90528W        W62144  19.518   4.289   4.610
90529W        W62145  29.684  40.943  14.391
90530W        W62146  33.262   0.919   2.190
90531W        W62147  40.830  20.628   4.550
90532W        W62148  43.047  41.683   4.532
90533W        W62149  28.045   7.878   0.920
90534W        W62150  32.157  39.640   1.781
90535W        W62151  32.054  34.276  13.388
90536W        W62152   6.184   6.556   2.462
90537W        W62153  18.566  36.270  13.337
90538W        W62154   3.804  24.092  10.263
90539W        W62155  10.175   9.475  10.752
90540W        W62156  25.191  23.168   3.178
90541W        W62157  33.050  30.066   1.261
90542W        W62158   3.683  26.668  11.864
90543W        W62159   6.215   1.907  13.362
90544W        W62160  19.755  39.872   2.675
90545W        W62161  17.033   3.354   1.941
90546W        W62162  38.411  33.516  12.095
90547W        W62163  39.897  20.718  11.917
90548W        W62164  22.557  17.107  14.912
90549W        W62165  34.472  32.668   2.133
90550W        W62166  27.119  37.590  13.988
90551W        W62167   5.720   3.392  12.206
90552W        W62168  35.064  13.206  12.671
90553W        W62169  36.072  24.960   2.326
90554W        W62170  10.425  20.207   1.215
90555W        W62171  18.827  19.660  13.824
90556W        W62172  41.323  23.033   4.828
90557W        W62173   6.650   9.597   0.009
90558W        W62174  41.985  30.051   1.014
90559W        W62175  35.513  10.877   1.986
90560W        W62176  24.444   3.484  14.993
90561W        W62177  19.601  42.926  10.770
90562W        W62178  29.526  36.699  13.952
90563W        W62179  24.728  22.599  11.590
90564W        W62180  32.069  29.987  12.813
90565W        W62181  42.512  23.460  14.732
90566W        W62182  19.981   8.275   1.780
90567W        W62183  32.909  28.561  11.560
90568W        W62184  44.444  10.584  12.893
90569W        W62185  26.335   8.361   2.868
90570W        W62186  44.843  38.357  12.036
90571W        W62187  37.271  14.648  12.593
90572W        W62188  40.780  42.908  14.737
90573W        W62189   5.308  18.393  12.869
90574W        W62190  14.314  21.000  14.894
90575W        W62191  27.015  43.292  11.389
90576W        W62192   1.544  29.401  13.450
90577W        W62193  30.100  42.146  12.378
90578W        W62194  17.430  40.289  10.907
90579W        W62195  20.031  38.135   0.436
90580W        W62196   5.697  21.403   3.701
90581W        W62197  12.500   9.774   0.185
90582W        W62198  33.876  23.717   0.739
90583W        W62199  37.940  31.320  14.024
90584W        W62200   1.356   8.090  11.209
90585W        W62201  28.410   2.856  12.469
90586W        W62202   4.073  21.920   4.041
90587W        W62203   5.398   2.883  11.070
90588W        W62204  27.552   4.754  10.713
90589W        W62205  13.459  34.970   5.041
90590W        W62206   4.318  34.015   4.131
90591W        W62207  35.339   3.343  14.750
90592W        W62208  12.798  35.344  12.927
90593W        W62209   5.495  32.953   1.479
90594W        W62210  12.668  42.418   0.466
90595W        W62211  36.607  37.349   0.260
90596W        W62212   8.393  11.353   1.042
90597W        W62213  26.538  39.923   2.113
90598W        W62214  28.549  21.718  12.958
90599W        W62215  38.925  17.874   3.729
90600W        W62216  36.978  38.491  13.553
90601W        W62217  19.723   9.747  10.527
90602W        W62218  33.803   6.813  11.037
90603W        W62219  15.053  37.818  10.939
90604W        W62220  17.931   8.259  12.553
90605W        W62221  19.543  18.797   3.307
90606W        W62222  41.587   3.441  10.780
90607W        W62223  23.577  30.032  14.363
90608W        W62224   8.240   4.972  11.624
90609W        W62225  40.394  19.089   3.170
90610W        W62226  32.771  20.043  10.672
90611W        W62227   4.180   6.301   0.035
90612W        W62228  14.172   7.695   0.451
90613W        W62229  37.998   2.890  14.459
90614W        W62230   4.724  13.338  11.699
90615W        W62231  32.979   2.135   9.714
90616W        W62232  39.596  28.149  14.022
90617W        W62233  36.106  13.670  14.435
90618W        W62234   4.419  10.384   2.056
90619W        W62235  23.227  43.335  14.111
90620W        W62236   2.763   9.319   2.959
90621W        W62237   5.316  36.278  14.003
90622W        W62238  33.505  20.618   2.851
90623W        W62239  34.896  28.059  11.952
90624W        W62240  39.072  21.432  11.039
90625W        W62241  21.165  35.971   0.830
90626W        W62242   3.034  33.576   3.821
90627W        W62243  29.415  22.766  14.521
90628W        W62244   7.897  37.117  10.745
90629W        W62245  21.469  34.925  14.458
90630W        W62246  14.597  18.125   4.606
90631W        W62247  10.524  15.539  12.897
90632W        W62248  19.048  18.612   3.363
90633W        W62249  27.573  20.275   0.272
90634W        W62250  41.702  23.144  12.200
90635W        W62251  33.348  15.241   3.463
90636W        W62252   8.775  30.022  14.386
90637W        W62253   6.046  13.304  11.116
90638W        W62254  32.426  39.985   3.534
90639W        W62255  40.326  12.987   5.085
90640W        W62256  38.919  13.648   9.690
90641W        W62257   7.336  12.641  13.296
90642W        W62258  37.773   0.924   3.342
90643W        W62259  20.159   2.985   1.021
90644W        W62260  32.883  27.629   1.033
90645W        W62261  44.931  43.491  13.939
90646W        W62262   0.443  18.003  14.964
90647W        W62263  25.192  28.696  10.695
90648W        W62264  36.027  43.008  12.601
90649W        W62265  15.776  28.151  10.742
90650W        W62266  27.191   3.771  13.815
90651W        W62267  44.516   6.017   5.077
90652W        W62268   5.804  38.334   4.126
90653W        W62269  31.926  18.765   3.604
90654W        W62270  33.549  12.586  11.115
90655W        W62271   9.971   1.730  12.232
90656W        W62272  34.955  30.662  10.792
90657W        W62273  41.380  28.420  14.797
90658W        W62274  13.622  13.758   2.272
90659W        W62275  21.222   4.039   1.708
90660W        W62276  30.180  37.594  11.559
90661W        W62277  37.349  44.457   1.373
90662W        W62278  26.676   6.797   0.860
90663W        W62279  15.420   2.760   0.379
90664W        W62280  14.169  12.295  14.022
90665W        W62281  36.460  42.731  14.578
90666W        W62282  26.242  22.136  10.676
90667W        W62283  18.794   7.272   4.631
90668W        W62284  16.263  21.300   4.427
90669W        W62285  24.440   2.833  12.527
90670W        W62286  34.701  38.590   1.854
90671W        W62287  40.384   1.975  13.997
90672W        W62288  35.098   2.118   3.640
90673W        W62289  24.911  22.849   4.512
90674W        W62290   7.714  35.453   0.195
90675W        W62291  23.682  23.836   3.094
90676W        W62292  27.439  39.662   0.989
90677W        W62293  18.091  34.317  14.606
90678W        W62294  20.749  12.367   1.390
90679W        W62295  36.384   3.060  13.480
90680W        W62296  44.456  25.707  10.627
90681W        W62297  22.863  12.659   4.927
90682W        W62298  40.809   8.181   1.408
90683W        W62299  35.706  20.511   0.487
90684W        W62300  13.602  36.411  11.972
90685W        W62301  10.763  22.377   1.346
90686W        W62302   6.922  20.867   2.371
90687W        W62303  11.713  33.453   1.373
90688W        W62304  38.639  13.192   9.732
90689W        W62305  19.735  36.456   4.804
90690W        W62306  29.920  10.061   4.573
90691W        W62307  23.036  14.571   0.901
90692W        W62308  22.703  40.380   2.803
90693W        W62309  33.865  27.415  10.706
90694W        W62310  29.462  38.956   2.377
90695W        W62311  44.446   7.176   9.897
90696W        W62312  24.582  10.138  11.030
90697W        W62313  27.208  17.052  12.901
90698W        W62314  42.554  14.694   0.728
90699W        W62315  39.490   0.698  14.966
90700W        W62316   6.823  44.518  10.703
90701W        W62317  32.806  27.164  14.798
90702W        W62318  36.850  27.678  12.891
90703W        W62319  44.910  10.599   1.927
90704W        W62320   5.331   5.054  11.200
90705W        W62321  28.096   0.258   0.663
90706W        W62322  25.176  15.237   3.694
90707W        W62323  36.395  35.442  14.934
90708W        W62324  25.509  14.615   0.385
90709W        W62325   4.522  28.145  14.625
90710W        W62326  21.271  19.692   3.102
90711W        W62327  38.962  12.720   0.778
90712W        W62328  32.457  25.661  10.918
90713W        W62329  15.134  19.233   3.785
90714W        W62330  27.545  15.693  13.992
90715W        W62331   8.785  28.764   2.224
90716W        W62332  13.178   6.732  10.083
90717W        W62333  15.163   7.307   3.784
90718W        W62334   4.768   0.793   0.608
90719W        W62335   5.203  25.017   3.600
90720W        W62336  42.481  37.772   4.985
90721W        W62337  24.340   8.022   0.947
90722W        W62338   1.263   4.904   2.254
90723W        W62339   6.199   3.486   4.487
90724W        W62340  39.259   5.334  12.826
90725W        W62341  22.496   6.380  11.012
90726W        W62342  28.407   1.010   0.178
90727W        W62343   7.647   6.926   1.105
90728W        W62344  41.246   8.841  12.910
90729W        W62345  33.606  21.948  13.795
90730W        W62346  21.697  27.622   2.776
90731W        W62347  40.564  11.237   5.244
90732W        W62348  24.462  36.128  14.495
90733W        W62349  38.074  22.246   1.673
90734W        W62350  21.142  43.792  13.968
90735W        W62351  26.006  19.852  12.594
90736W        W62352   8.496  16.040  13.496
90737W        W62353   1.807  32.360   0.429
90738W        W62354  23.169   6.115   0.647
90739W        W62355  31.575  20.016   2.414
90740W        W62356  40.543   8.947  12.349
90741W        W62357  32.595   7.410   1.041
90742W        W62358  14.354  33.881  10.705
90743W        W62359  21.964   7.405  14.397
90744W        W62360  39.184  15.105  11.233
90745W        W62361  26.762  18.731  11.165
90746W        W62362  28.508  14.085   0.828
90747W        W62363  29.429  41.607   4.121
90748W        W62364   9.869  33.111  11.242
90749W        W62365   6.808  38.026  13.809
90750W        W62366  26.613  28.879  12.048
90751W        W62367  13.735  24.553  10.647
90752W        W62368   1.704  10.230  12.629
90753W        W62369  42.295  38.103  11.987
90754W        W62370   2.969  13.624   3.655
90755W        W62371   3.158   6.017   2.747
90756W        W62372   9.638   8.771  12.027
90757W        W62373  21.611  24.147   2.628
90758W        W62374   7.876  27.530   2.304
90759W        W62375  25.958  26.777   3.195
90760W        W62376  22.228  37.771  12.869
90761W        W62377   7.842   5.289  14.015
90762W        W62378  25.117  16.665  12.502
90763W        W62379  37.878  22.112   3.626
90764W        W62380  37.393  38.289  12.881
90765W        W62381  33.124  14.545   0.005
90766W        W62382  37.091  36.513  14.258
90767W        W62383   0.489  28.064   0.231
90768W        W62384   0.548  40.948   4.388
90769W        W62385  44.418  43.749   4.156
90770W        W62386  20.211  37.342  11.959
90771W        W62387  10.277  42.573   1.125
90772W        W62388   5.456  34.527  13.905
90773W        W62389  33.609  20.249  12.455
90774W        W62390  36.303  29.000  14.363
90775W        W62391  36.330  41.696  14.264
90776W        W62392   2.241   8.833   2.049
90777W        W62393  39.967  22.602   4.298
90778W        W62394  15.033  19.549   1.958
90779W        W62395  21.862   7.198  12.876
90780W        W62396  28.374  10.063   3.619
90781W        W62397  11.398  37.391  14.915
90782W        W62398  36.666  38.022   2.674
90783W        W62399  13.507  17.754  10.697
90784W        W62400   2.481  10.841   4.781
90785W        W62401  10.355   9.981   3.780
90786W        W62402   1.376  40.454   3.568
90787W        W62403  17.133  32.830  13.784
90788W        W62404  35.186  38.113  11.182
90789W        W62405  42.884  18.112  11.105
90790W        W62406  26.549  37.794   1.816
90791W        W62407  23.536  33.663   2.719
90792W        W62408  33.505  33.877   2.016
90793W        W62409  28.865  13.792  13.418
90794W        W62410  12.253  14.792   3.255
90795W        W62411  22.091  44.710   2.315
90796W        W62412  19.323  22.990  12.568
90797W        W62413  29.792  33.623   0.284
90798W        W62414  13.148  15.026  14.724
90799W        W62415  10.672  21.256   2.131
90800W        W62416  12.774  14.251   0.766
90801W        W62417  38.379  27.145   3.753
90802W        W62418   4.232  17.899  13.414
90803W        W62419  41.385   4.835   4.228
90804W        W62420  16.747  21.947  11.648
90805W        W62421  37.890   9.427   0.830
90806W        W62422  38.997   5.429  14.781
90807W        W62423  23.488  16.968  14.527
90808W        W62424   3.780  22.213  10.645
90809W        W62425  43.627  18.579   4.577
90810W        W62426  28.933  24.770  11.552
90811W        W62427   1.060  10.559   1.259
90812W        W62428  13.134  35.535  14.298
90813W        W62429  16.207   6.739  10.889
90814W        W62430  27.673  11.742   4.103
90815W        W62431  23.961  13.104   3.795
90816W        W62432  34.425  36.886   4.283
90817W        W62433  10.809  39.451  13.619
90818W        W62434  16.997  44.320   4.251
90819W        W62435  28.018  15.742  13.535
90820W        W62436   2.954  24.622  12.545
90821W        W62437  31.136  39.888  11.687
90822W        W62438  18.960  37.966   4.065
90823W        W62439  35.286  19.702  10.116
90824W        W62440  29.784   5.278   3.240
90825W        W62441  37.805  39.140   1.303
90826W        W62442   3.975  12.223  11.903
90827W        W62443  22.137  27.680   4.492
90828W        W62444  44.619  29.858   0.077
90829W        W62445  34.061   1.068   0.397
90830W        W62446   4.901  38.647   1.379
90831W        W62447  12.001   9.898  13.436
90832W        W62448  17.081  28.470  14.473
90833W        W62449  24.298  41.856   1.895
90834W        W62450   9.235  21.655  13.292
90835W        W62451  20.657  20.180  11.587
90836W        W62452  32.690   4.846   1.466
90837W        W62453  14.195  33.855  11.613
90838W        W62454  33.437  41.639   4.860
90839W        W62455  22.557  20.352  10.732
90840W        W62456  37.467  39.542  12.973
90841W        W62457  12.229   7.421   3.655
90842W        W62458  11.014  19.761  11.170
90843W        W62459  19.112  12.788   2.422
90844W        W62460  39.925  15.310  13.403
90845W        W62461  33.262   3.141  13.989
90846W        W62462  38.439  44.186  12.886
90847W        W62463  23.906  35.426  10.912
90848W        W62464  13.809  40.334  11.915
90849W        W62465  22.083  21.539  10.343
90850W        W62466  11.798  17.154  12.923
90851W        W62467  29.380   8.974  13.064
90852W        W62468   5.705  36.639  12.905
90853W        W62469  35.523  13.355  12.449
90854W        W62470  19.359  13.797  13.453
90855W        W62471  29.415  19.774  11.070
90856W        W62472  14.132   8.825  12.540
90857W        W62473  21.213  17.373   2.590
90858W        W62474  22.032  10.383   2.286
90859W        W62475  19.489  41.177   2.273
90860W        W62476  19.691  41.785  11.116
90861W        W62477  31.155  32.441  13.997
90862W        W62478  22.878  15.318  14.949
90863W        W62479  29.115   7.806   4.468
90864W        W62480  38.533  13.457   4.876
90865W        W62481  37.667  33.883  12.525
90866W        W62482  18.173  11.274   2.268
90867W        W62483  38.498  44.172   4.135
90868W        W62484  37.034  32.529  14.044
90869W        W62485   5.605  24.830   3.842
90870W        W62486   3.867   3.424   0.373
90871W        W62487  37.520  19.332  12.325
90872W        W62488  16.613  12.898   0.945
90873W        W62489   0.518  13.193  11.156
90874W        W62490  26.055  29.651  11.686
90875W        W62491   4.720  40.862   0.776
90876W        W62492  33.546   6.458  14.288
90877W        W62493  28.592  41.932   0.945
90878W        W62494  41.046  42.855   1.352
90879W        W62495   9.626  41.971  13.342
90880W        W62496  32.625  37.616  13.485
90881W        W62497  44.345   1.226   0.481
90882W        W62498  37.024  44.058   1.300
90883W        W62499  15.906  37.624   1.412
90884W        W62500   5.264  18.132   4.556
90885W        W62501  38.525  39.055  14.814
90886W        W62502  34.872   8.272  14.723
90887W        W62503   9.411   5.458  13.811
90888W        W62504  24.282  32.801  11.131
90889W        W62505  13.341  32.058  14.844
90890W        W62506  19.290  29.058   2.456
90891W        W62507  25.684  33.105  13.665
90892W        W62508  18.065  16.349   1.348
90893W        W62509  10.770   1.251  12.508
90894W        W62510  34.620  26.380   3.081
90895W        W62511   4.920  22.218  11.407
90896W        W62512  18.693  26.596  12.910
90897W        W62513   5.560   7.072  12.457
90898W        W62514  23.931  34.006  12.472
90899W        W62515  19.529   7.786   1.299
90900W        W62516   8.088  25.005   3.098
90901W        W62517   7.218  21.682  14.512
90902W        W62518   7.761  37.646  10.740
90903W        W62519  38.449  41.538  13.504
90904W        W62520  39.822  32.518   1.955
90905W        W62521  41.705   9.867   4.576
90906W        W62522  21.946  19.252  12.922
90907W        W62523  41.962   8.001  10.539
90908W        W62524  43.849   0.185   1.630
90909W        W62525  39.040  15.713  13.772
90910W        W62526   5.548  41.788  14.760
90911W        W62527  37.366  16.299   4.061
90912W        W62528   6.205   9.777   3.569
90913W        W62529  26.249   5.874   4.614
90914W        W62530  35.662  22.756  14.137
90915W        W62531   2.389  24.202   2.465
90916W        W62532  40.890  33.588  11.460
90917W        W62533  12.155  27.202  14.022
90918W        W62534  41.021  25.724   0.785
90919W        W62535  39.291  39.316  11.433
90920W        W62536   4.458  43.905  14.412
90921W        W62537  28.279   1.950   0.901
90922W        W62538  31.413  22.495   2.400
90923W        W62539   3.452   0.412  14.463
90924W        W62540  42.989  11.120  12.995
90925W        W62541  30.862  31.606   4.911
90926W        W62542  22.609  29.212   0.064
90927W        W62543  32.909  27.603   0.524
90928W        W62544  12.812   4.569  10.669
90929W        W62545  28.545  11.320  14.284
90930W        W62546   2.349  20.188  13.829
90931W        W62547  15.302  18.019  10.645
90932W        W62548  25.414  44.842   1.703
90933W        W62549  38.840  40.893  13.135
90934W        W62550  24.055  38.650   0.570
90935W        W62551   6.212  32.003   4.259
90936W        W62552  15.805   7.746   2.335
90937W        W62553  29.324   6.375   2.099
90938W        W62554  32.664  36.760  12.448
90939W        W62555  27.462  41.759   4.229
90940W        W62556  14.069  11.426  10.457
90941W        W62557  43.018  17.290   1.309
90942W        W62558  29.079  43.859  11.602
90943W        W62559  33.426  23.740  14.735
90944W        W62560  35.844  39.743   0.342
90945W        W62561  28.677  21.965   0.902
90946W        W62562  25.517  34.996   4.531
90947W        W62563   7.980   8.353  11.800
90948W        W62564   7.195  37.221  13.978
90949W        W62565  43.771  18.176   4.259
90950W        W62566  22.807  39.143  13.436
90951W        W62567  11.412   4.710   0.017
90952W        W62568   5.218  13.840  12.627
90953W        W62569  10.102   1.427   0.333
90954W        W62570  32.103  21.010  11.551
90955W        W62571  21.168  12.098  14.484
90956W        W62572  24.632  10.715  12.511
90957W        W62573  15.614  37.976   3.219
90958W        W62574  41.708  17.908  10.168
90959W        W62575  41.877  40.356   3.602
90960W        W62576  31.188  39.083  14.267
90961W        W62577  41.802  10.091  13.049
90962W        W62578  24.684   5.885   1.397
90963W        W62579  35.320  34.456  10.660
90964W        W62580  24.661   3.616  11.159
90965W        W62581  37.183  19.432  14.018
90966W        W62582   4.101  35.961  11.999
90967W        W62583  30.917   8.242   0.372
90968W        W62584  13.097  42.814  11.584
90969W        W62585  23.971  38.887   2.707
90970W        W62586   1.733  12.824  10.694
90971W        W62587  26.516   9.829   1.470
90972W        W62588  17.149  10.091  13.482
90973W        W62589  12.804  10.652  11.991
90974W        W62590   8.923  13.730   1.820
90975W        W62591  24.706  41.325  11.650
90976W        W62592  42.408  13.936  11.101
90977W        W62593   7.588  15.562  14.396
90978W        W62594  23.960  40.539  11.507
90979W        W62595  19.358  43.781  14.178
90980W        W62596  37.990  28.176  10.226
90981W        W62597  14.770   2.927   2.911
90982W        W62598  39.629  41.479   3.553
90983W        W62599  14.527  32.563   1.336
90984W        W62600  20.428  15.570   0.889
90985W        W62601   1.970  31.892   0.299
90986W        W62602  32.332  43.266   3.294
90987W        W62603   7.728  19.283   1.376
90988W        W62604  39.880   0.908  12.645
90989W        W62605  15.745  24.523   3.703
90990W        W62606  23.799  39.104   0.727
90991W        W62607  30.560  12.054  12.084
90992W        W62608  31.320   1.348   0.691
90993W        W62609  26.244   2.145   3.727
90994W        W62610  31.280  44.499   4.656
90995W        W62611  23.235  30.536   3.875
90996W        W62612  10.355  42.933  13.915
90997W        W62613  17.633  22.993   0.709
90998W        W62614  31.255  32.024   1.656
90999W        W62615  32.408   5.958  14.086
91000W        W62616   4.897  13.016   4.221
91001W        W62617  10.994  17.404  11.175
91002W        W62618   2.560  43.286   2.295
91003W        W62619  33.792  29.069   3.307
91004W        W62620  16.259  34.368   3.764
91005W        W62621  12.590  31.225  12.914
91006W        W62622  31.662  43.402   4.798
91007W        W62623  16.052  33.990  11.876
91008W        W62624  25.565  17.574   3.765
91009W        W62625  34.663  24.548  14.420
91010W        W62626  18.103  12.207  10.749
91011W        W62627  37.489  36.201   3.219
91012W        W62628  44.542   4.723   1.404
91013W        W62629  33.236   2.367  10.810
91014W        W62630  20.131  13.642   3.175
91015W        W62631  34.708  28.145  11.033
91016W        W62632   9.828  13.079   3.871
91017W        W62633  44.279   6.706   3.276
91018W        W62634  26.650  32.501  13.121
91019W        W62635   9.251  16.344   2.426
91020W        W62636  13.031  10.755   1.035
91021W        W62637   9.338   8.423   1.369
91022W        W62638   6.938  42.391  13.926
91023W        W62639  28.472  12.154   2.196
91024W        W62640   6.576  37.550   3.192
91025W        W62641  24.494   1.150  11.109
91026W        W62642  25.046   0.329  11.153
91027W        W62643  35.251  17.081  12.025
91028W        W62644  33.165  24.140   3.362
91029W        W62645   4.736  16.258   3.300
91030W        W62646  39.168   9.993  10.236
91031W        W62647  37.560  39.719  11.228
91032W        W62648  25.647  33.607   3.771
91033W        W62649  18.079  15.566  11.395
91034W        W62650  12.141  21.211   0.699
91035W        W62651   5.832  29.953   2.896
91036W        W62652   1.756   8.275  14.449
91037W        W62653  13.857  11.086  14.502
91038W        W62654  20.765  13.193   0.464
91039W        W62655   9.739  22.785   0.407
91040W        W62656   1.906  15.655  11.123
91041W        W62657  19.778  41.399  14.991
91042W        W62658  14.295  30.551   2.495
91043W        W62659  20.376  24.948   3.827
91044W        W62660   2.224  32.050  13.890
91045W        W62661  14.121  14.348  13.428
91046W        W62662  18.778  34.074   2.998
91047W        W62663  13.560  16.072  10.846
91048W        W62664  40.583  14.862   3.232
91049W        W62665  31.656   4.254   2.781
91050W        W62666   2.372  32.614   1.797
91051W        W62667  43.016  24.144   0.300
91052W        W62668  12.816   7.038   0.790
91053W        W62669  39.485  11.698  13.346
91054W        W62670   8.063  17.984  14.303
91055W        W62671   5.088   1.308  11.863
91056W        W62672  23.574   1.453  13.521
91057W        W62673   4.866  28.370   1.400
91058W        W62674   0.451  32.660   0.492
91059W        W62675  17.251  15.368   2.858
91060W        W62676   4.913  11.363  13.019
91061W        W62677  41.613  13.309   1.234
91062W        W62678  13.193   3.998  13.293
91063W        W62679  11.220  34.628  13.829
91064W        W62680  39.952  42.585   2.743
91065W        W62681  38.649  19.928  12.844
91066W        W62682   4.014  18.560  14.711
91067W        W62683   5.704  33.899   3.748
91068W        W62684   8.287  35.581  12.007
91069W        W62685  18.036  25.039  10.736
91070W        W62686  34.498   7.402   4.999
91071W        W62687   3.926  11.648   2.168
91072W        W62688  35.154  11.712   0.815
91073W        W62689  37.365  27.751  13.931
91074W        W62690  17.980  16.172  11.474
91075W        W62691  23.277  39.007   0.841
91076W        W62692  21.168  37.638   1.890
91077W        W62693  33.386  35.510   1.021
91078W        W62694  24.953  32.627  12.121
91079W        W62695   6.707  18.078  12.593
91080W        W62696  39.639  28.172   2.275
91081W        W62697   0.204   2.212  12.066
91082W        W62698  31.919  38.868  12.810
91083W        W62699  15.523   2.815  14.475
91084W        W62700  40.057  13.309  12.377
91085W        W62701  31.956  25.583   0.822
91086W        W62702  40.032   4.682   9.729
91087W        W62703   0.748  31.156  13.924
91088W        W62704  24.528  41.553   2.752
91089W        W62705  32.132  26.372  12.873
91090W        W62706  41.828  22.953  10.585
91091W        W62707  16.269  14.276   2.322
91092W        W62708  43.926  40.129   1.717
91093W        W62709  41.897  39.013   0.450
91094W        W62710   6.210   0.955   4.531
91095W        W62711  14.785  22.678  11.731
91096W        W62712  16.137  25.535   0.313
91097W        W62713   8.777  22.676   1.907
91098W        W62714   6.198   9.576  11.531
91099W        W62715  38.771  10.865   4.645
91100W        W62716  42.295  20.751   0.985
91101W        W62717  31.951  14.129   4.321
91102W        W62718  28.632  27.493   0.912
91103W        W62719  23.200  37.339  10.660
91104W        W62720   2.283  29.967  12.951
91105W        W62721  40.570  40.800  12.525
91106W        W62722  32.319  30.423  11.669
91107W        W62723  18.025  20.177   0.408
91108W        W62724  16.653  13.277  10.357
91109W        W62725  40.527  31.004  13.863
91110W        W62726  39.696  37.116   0.049
91111W        W62727  39.453   8.084  14.408
91112W        W62728  36.051  33.654   2.844
91113W        W62729  12.564   7.239   2.331
91114W        W62730  38.065  14.708   2.427
91115W        W62731  40.317  27.528  12.982
91116W        W62732  35.486  24.479  12.039
91117W        W62733  34.031  26.877  14.483
91118W        W62734   5.937  31.179  13.571
91119W        W62735  19.743  21.994  14.943
91120W        W62736  21.270  33.008   0.110
91121W        W62737  36.107  17.490   1.226
91122W        W62738  35.571  36.047  14.759
91123W        W62739  24.191  30.693   2.366
91124W        W62740  31.402  27.993  11.209
91125W        W62741  17.034   8.165  11.568
91126W        W62742  36.876  24.538  11.385
91127W        W62743  44.321  11.396   2.805
91128W        W62744  21.716  33.897   3.346
91129W        W62745  35.134  14.385   2.212
91130W        W62746   6.305  19.040   3.659
91131W        W62747  20.656  20.695   4.334
91132W        W62748   7.826  20.639  13.054
91133W        W62749  19.068   2.065  12.426
91134W        W62750  44.918  28.522   3.726
91135W        W62751  20.741   7.690   0.217
91136W        W62752  31.238  24.709  11.045
91137W        W62753   2.163  30.346   2.379
91138W        W62754   5.964   4.332   0.431
91139W        W62755  13.053  39.066   4.148
91140W        W62756  25.507  36.247   1.870
91141W        W62757   3.579  36.572   3.700
91142W        W62758  28.000  14.025   0.818
91143W        W62759  33.098  22.991  11.265
91144W        W62760  38.323  22.285  12.344
91145W        W62761  25.223  15.776  11.840
91146W        W62762  11.846  18.521  12.708
91147W        W62763  32.633  40.536   2.408
91148W        W62764  28.107  38.970  12.579
91149W        W62765  19.657  37.746  11.182
91150W        W62766   3.032  22.487  12.981
91151W        W62767  19.203  30.854  11.637
91152W        W62768  34.240  22.567   2.117
91153W        W62769   2.914   8.782   0.722
91154W        W62770  25.144  35.505  13.023
91155W        W62771  23.763  22.275  11.530
91156W        W62772  27.580  22.725   3.330
91157W        W62773  36.694  32.519  12.410
91158W        W62774  35.842   3.906  13.603
91159W        W62775  39.578  17.116  12.454
91160W        W62776   2.246   1.419   1.210
91161W        W62777  37.368  23.437  13.911
91162W        W62778  27.509  34.710   4.300
91163W        W62779  14.276  26.595  14.378
91164W        W62780   0.754  12.145   0.840
91165W        W62781   2.748  36.498   4.203
91166W        W62782  32.427  31.554   4.886
91167W        W62783  38.577  23.017  14.767
91168W        W62784   4.366  19.040   3.874
91169W        W62785  12.669  10.953   1.335
91170W        W62786  44.546  12.163   4.130
91171W        W62787   8.252  25.578   4.649
91172W        W62788  33.576  40.356   2.673
91173W        W62789  18.736  27.045  14.350
91174W        W62790  19.063  20.346  11.502
91175W        W62791  21.968  15.731  12.305
91176W        W62792  20.335  12.104   0.281
91177W        W62793  42.200   7.243   4.114
91178W        W62794  27.713   9.310  14.550
91179W        W62795  16.830  31.423   3.037
91180W        W62796  11.414  37.358  13.453
91181W        W62797  31.861  13.659   3.095
91182W        W62798  14.196  21.922   3.224
91183W        W62799   5.973  14.846   4.084
91184W        W62800  39.039  29.204   2.225
91185W        W62801  44.282   4.616   1.862
91186W        W62802  38.150  41.277   1.821
91187W        W62803  31.817  14.736   2.255
91188W        W62804  25.786  28.563   3.217
91189W        W62805  24.286   7.791   1.843
91190W        W62806  31.938  27.150   4.019
91191W        W62807  27.421  30.644  11.473
91192W        W62808  17.066   6.384   2.369
91193W        W62809   8.912  33.805  11.130
91194W        W62810  16.272  39.849  14.765
91195W        W62811  41.676   2.767   4.318
91196W        W62812  12.228  43.392  14.511
91197W        W62813  15.120   2.166   0.793
91198W        W62814  37.081   1.156   2.876
91199W        W62815   3.444  15.768  12.568
91200W        W62816  26.928   9.242  14.925
91201W        W62817  22.992  43.020  13.762
91202W        W62818  19.960  17.089   4.494
91203W        W62819  10.813  31.417  11.859
91204W        W62820  16.005  10.689   2.327
91205W        W62821  39.178  37.567  12.499
91206W        W62822  25.455   0.259  14.422
91207W        W62823  41.778  36.035   0.275
91208W        W62824   2.432  39.336  14.825
91209W        W62825  43.084   3.828  11.730
91210W        W62826  38.984  20.970  12.943
91211W        W62827  10.630  27.036   4.674
91212W        W62828   4.442   0.966   2.924
91213W        W62829  20.817  25.730  13.892
91214W        W62830  32.981  11.600  11.828
91215W        W62831  27.012  27.031  11.941
91216W        W62832  11.183  37.845  10.586
91217W        W62833  33.127   0.390   2.202
91218W        W62834  29.872   6.427   4.242
91219W        W62835  39.463  10.753  13.505
91220W        W62836  28.238  12.294   2.780
91221W        W62837   5.683  16.168   1.334
91222W        W62838  31.014  31.828   1.213
91223W        W62839  11.655  19.143  10.504
91224W        W62840  39.151  14.168  10.326
91225W        W62841  31.986  18.263  12.607
91226W        W62842  17.945  21.284   2.228
91227W        W62843  31.031  12.584   0.303
91228W        W62844  43.634  21.778   1.311
91229W        W62845  18.808  35.169   0.462
91230W        W62846   7.942  20.501  13.907
91231W        W62847  31.734   2.034  12.869
91232W        W62848  26.478  41.514  11.526
91233W        W62849  44.723   5.978   2.735
91234W        W62850  31.922   0.495   2.379
91235W        W62851   6.360  17.553  14.062
91236W        W62852  35.133  32.149   3.265
91237W        W62853   7.103  42.589  13.474
91238W        W62854  14.364  17.282   4.625
91239W        W62855  31.698  31.258   1.240
91240W        W62856  36.384  36.806   4.184
91241W        W62857  37.627  19.746   3.206
91242W        W62858  26.578   8.249  12.529
91243W        W62859   5.817   7.095  10.838
91244W        W62860  22.848   5.712   1.003
91245W        W62861   9.114  15.793  10.998
91246W        W62862  19.625   7.240  14.241
91247W        W62863  29.629  42.038  10.944
91248W        W62864  12.983  22.213   3.315
91249W        W62865  37.474  43.861   4.634
91250W        W62866  35.423  14.275   1.760
91251W        W62867  29.380  20.211  11.520
91252W        W62868  19.312  33.092  12.156
91253W        W62869  24.782  23.122   0.318
91254W        W62870  14.038  43.252   1.731
91255W        W62871   6.121  16.355   3.223
91256W        W62872  11.840  34.824   4.578
91257W        W62873  18.473  22.080  11.091
91258W        W62874   9.835  20.966   1.173
91259W        W62875  18.120  37.205   0.902
91260W        W62876  13.375  26.651  14.943
91261W        W62877  25.414  13.727   1.312
91262W        W62878  25.096  26.064  12.535
91263W        W62879  43.473  28.427   2.866
91264W        W62880  18.205  14.533  13.476
91265W        W62881   0.327  12.705  11.180
91266W        W62882  12.725  28.997   1.094
91267W        W62883  25.645  31.227  11.207
91268W        W62884  30.094  22.124   2.830
91269W        W62885  32.971  10.668   0.516
91270W        W62886   2.215  11.119  12.979
91271W        W62887   8.937  20.225  11.008
91272W        W62888  21.140   9.186  11.961
91273W        W62889  41.320   9.873   2.728
91274W        W62890   7.807  12.371  13.528
91275W        W62891  15.285  34.859  10.714
91276W        W62892  35.389  29.050   0.280
91277W        W62893  32.582   8.457   2.806
91278W        W62894  31.382   4.198   2.325
91279W        W62895  42.299  23.586   2.131
91280W        W62896  44.158  23.540  10.500
91281W        W62897  23.737  28.770  11.076
91282W        W62898  23.063  36.537  14.117
91283W        W62899  15.186  44.088  14.418
91284W        W62900  14.631  21.390   3.705
91285W        W62901  10.441   6.147   0.544
91286W        W62902  29.246  40.258  10.694
91287W        W62903  25.606  10.652   1.772
91288W        W62904  27.471  21.663   1.717
91289W        W62905  39.881  22.693   0.037
91290W        W62906  14.136  10.163  12.973
91291W        W62907  27.700  43.872  14.272
91292W        W62908  27.050   3.283  14.050
91293W        W62909   2.806  12.694   4.664
91294W        W62910  37.105  29.619  12.540
91295W        W62911  18.104  40.132  14.102
91296W        W62912  22.765  42.970   4.474
91297W        W62913  20.800  10.871   4.801
91298W        W62914  30.323  26.902   2.334
91299W        W62915  44.913  20.616   2.331
91300W        W62916   8.229  23.355  11.155
91301W        W62917  25.084   1.316  14.895
91302W        W62918  34.426   5.639  12.020
91303W        W62919  31.395  11.701  15.000
91304W        W62920  20.470  38.023  12.408
91305W        W62921  15.155   7.952   2.109
91306W        W62922  27.183   3.267   3.774
91307W        W62923  43.338  14.792  12.049
91308W        W62924  25.151  15.254   4.637
91309W        W62925  11.185  28.194  10.548
91310W        W62926  21.090  43.538   0.379
91311W        W62927  14.269  10.623   2.800
91312W        W62928  38.277  39.362  12.565
91313W        W62929  30.586  16.381   1.362
91314W        W62930  28.561  38.982   2.905
91315W        W62931   7.214  13.098  11.567
91316W        W62932   0.513  35.118   4.233
91317W        W62933  12.415  25.309   0.527
91318W        W62934  20.365  36.622   0.264
91319W        W62935  11.240  20.494   3.152
91320W        W62936  10.181  39.506  14.385
91321W        W62937   0.029  34.877  12.913
91322W        W62938  30.082  18.061  14.877
91323W        W62939   8.449   5.260   4.060
91324W        W62940  15.917   0.239   3.924
91325W        W62941  20.490  19.586   2.666
91326W        W62942  32.464  39.712   0.670
91327W        W62943  23.649  11.138   0.689
91328W        W62944  31.066  24.143   3.149
91329W        W62945   5.934  34.399  10.700
91330W        W62946  33.189   4.845  11.732
91331W        W62947  22.220  39.396   4.200
91332W        W62948   0.496  18.224  13.452
91333W        W62949  41.121  12.279   2.355
91334W        W62950  18.788  37.088  14.310
91335W        W62951  19.128   2.747   2.900
91336W        W62952  31.132  38.818   1.933
91337W        W62953  44.737  27.450  11.086
91338W        W62954  14.384  22.527   2.718
91339W        W62955  40.233   4.881  12.945
91340W        W62956   5.378  13.224   3.388
91341W        W62957  36.712  39.977   1.270
91342W        W62958   7.444  15.836  12.090
91343W        W62959  25.647  27.618   3.110
91344W        W62960   1.385   7.169  13.472
91345W        W62961   6.143   8.731   4.252
91346W        W62962  15.682  10.090   4.047
91347W        W62963   3.604  37.273   0.482
91348W        W62964  32.918  15.083  14.804
91349W        W62965  42.535  26.377  12.238
91350W        W62966  16.122   1.031  10.853
91351W        W62967  24.741  40.413   2.253
91352W        W62968   9.888  23.694   4.354
91353W        W62969   6.706   0.033   1.887
91354W        W62970  25.824  17.433   4.185
91355W        W62971  20.800  37.610  13.722
91356W        W62972   7.982  11.613  11.262
91357W        W62973  40.254  28.635  14.410
91358W        W62974  24.626  38.032   2.215
91359W        W62975  21.488  26.818  11.931
91360W        W62976  21.632   8.658  13.796
91361W        W62977   3.672  20.056  13.251
91362W        W62978  12.893   3.236  13.491
91363W        W62979  39.433  22.623  14.670
91364W        W62980  35.472  43.348   0.341
91365W        W62981  37.868  25.819  14.003
91366W        W62982  15.358  28.699  14.362
91367W        W62983  38.445  22.403   0.495
91368W        W62984   3.038  25.472   2.605
91369W        W62985  15.683  15.025   0.880
91370W        W62986  38.087   5.259   0.279
91371W        W62987   0.247   0.047  14.870
91372W        W62988   1.960   5.653  14.849
91373W        W62989  15.100   7.870   0.786
91374W        W62990   5.204   8.215   1.803
91375W        W62991  44.486  21.976   3.740
91376W        W62992  42.414  36.043   3.811
91377W        W62993   3.735  24.242  13.274
91378W        W62994  10.043  32.325  14.282
91379W        W62995  37.903  17.380   1.648
91380W        W62996   5.515   1.787   0.322
91381W        W62997  23.961  33.647  12.095
91382W        W62998  34.983  17.907   3.728
91383W        W62999  39.953  41.732  14.420
91384W        W63000  12.292  19.595   2.610
91385W        W63001  18.616   0.356  11.411
91386W        W63002  20.561  32.374   3.657
91387W        W63003  44.938   9.644  13.271
91388W        W63004  32.212  41.198   0.917
91389W        W63005   4.328  16.160  12.527
91390W        W63006  10.093  14.363   3.789
91391W        W63007  17.311  14.724   4.761
91392W        W63008  31.950  25.503   4.767
91393W        W63009  21.938  44.523   3.675
91394W        W63010   4.351  13.659   3.590
91395W        W63011  32.399   1.345   0.740
91396W        W63012  30.151  11.580  13.756
91397W        W63013  38.812  34.757  14.093
91398W        W63014  13.662   9.195  14.001
91399W        W63015  32.941  27.125   1.168
91400W        W63016  40.508  10.180  12.021
91401W        W63017   4.386  39.047  12.578
91402W        W63018  19.132  35.451   3.645
91403W        W63019  26.887  14.855   4.837
91404W        W63020  15.327  12.612  10.747
91405W        W63021  24.938   8.912  12.707
91406W        W63022   8.298  13.035  10.448
91407W        W63023  27.490  32.612   1.604
91408W        W63024  25.905  14.224   1.903
91409W        W63025  25.775   5.709   4.477
91410W        W63026  40.751  30.914  11.566
91411W        W63027  21.263  11.095   4.671
91412W        W63028  22.633  24.915   3.393
91413W        W63029   5.640  15.815  14.045
91414W        W63030  29.380   6.294  10.555
91415W        W63031  27.815  40.655  13.831
91416W        W63032  17.083  43.033   3.438
91417W        W63033  37.480  24.024   4.693
91418W        W63034  32.553  20.236   1.266
91419W        W63035  34.588  42.972   2.735
91420W        W63036  11.469  42.802   2.221
91421W        W63037  17.338  42.703  12.529
91422W        W63038  33.508  17.080  14.779
91423W        W63039   6.759  24.155  14.435
91424W        W63040   1.797  42.831   3.348
91425W        W63041  22.902  29.129  14.268
91426W        W63042  16.274  13.548  12.932
91427W        W63043  10.404  43.038   1.348
91428W        W63044  36.758  35.633  14.620
91429W        W63045  21.274  37.559   4.198
91430W        W63046   3.823  37.273   0.958
91431W        W63047  27.173  25.760  10.754
91432W        W63048  39.960  14.086   3.790
91433W        W63049   5.190  29.984   3.718
91434W        W63050  30.507  24.924  12.490
91435W        W63051  30.280  36.290   4.149
91436W        W63052  27.380  38.035   2.331
91437W        W63053  20.684  22.078   0.468
91438W        W63054  12.147  44.343   4.661
91439W        W63055  33.461  22.021   3.537
91440W        W63056  18.626  38.948  12.407
91441W        W63057  24.554  32.332  13.521
91442W        W63058  41.425  16.886   1.140
91443W        W63059  27.461   1.752   0.462
91444W        W63060  26.246  34.948   1.876
91445W        W63061  41.472  12.082  11.514
91446W        W63062  18.290  18.988  14.366
91447W        W63063  15.930  28.864   3.593
91448W        W63064   9.957  17.302   0.777
91449W        W63065  21.454  22.579  12.181
91450W        W63066  41.797  41.888  14.873
91451W        W63067  13.192  41.990  10.655
91452W        W63068   5.211   4.187  13.922
91453W        W63069  25.335  17.218  13.824
91454W        W63070  22.735  33.959  10.400
91455W        W63071   0.733  40.445   1.911
91456W        W63072  17.650  31.399  12.886
91457W        W63073   7.726  15.123   0.400
91458W        W63074  24.101   7.691   1.369
91459W        W63075  22.157   5.907  12.027
91460W        W63076  24.497  36.513  10.439
91461W        W63077  34.463   7.620  10.774
91462W        W63078  31.865   0.442   0.786
91463W        W63079   8.403  21.251   0.024
91464W        W63080  15.195  25.601   4.928
91465W        W63081  20.314  38.675  14.684
91466W        W63082   2.145  15.054  14.344
91467W        W63083   1.501  19.713  11.540
91468W        W63084  24.460  20.673   0.867
91469W        W63085  36.396  36.200  13.287
91470W        W63086   1.474   6.578  11.279
91471W        W63087   0.215  43.199  11.194
91472W        W63088  25.052  33.403   0.927
91473W        W63089  15.264  15.527  13.758
91474W        W63090  23.763  12.094   4.252
91475W        W63091   1.858  19.616  11.966
91476W        W63092  41.897  36.455   1.945
91477W        W63093  20.087  18.775   1.644
91478W        W63094  31.061  14.057   5.050
91479W        W63095  17.969  10.804  10.801
91480W        W63096  34.361  44.027   0.030
91481W        W63097   0.052  17.754  14.709
91482W        W63098   2.223  35.998  12.428
91483W        W63099  15.744  44.911   2.578
91484W        W63100  29.393  14.197   3.322
91485W        W63101  17.583  15.676   3.187
91486W        W63102  25.991  21.107  14.334
91487W        W63103  40.483   8.337   4.392
91488W        W63104  28.519  20.133   0.353
91489W        W63105  30.129  25.518   0.373
91490W        W63106  38.911  35.117  11.494
91491W        W63107  43.517   8.296  13.851
91492W        W63108  41.518  29.158  13.536
91493W        W63109  17.643  12.413  11.631
91494W        W63110  31.882  30.074  10.815
91495W        W63111  10.335  38.103  11.143
91496W        W63112   2.006   8.165   3.262
91497W        W63113  30.008  35.646  11.186
91498W        W63114  37.620  41.636   0.972
91499W        W63115  32.551  31.568   4.365
91500W        W63116  35.889  33.805   2.368
91501W        W63117   7.299  16.056   0.769
91502W        W63118  41.977  26.153   4.781
91503W        W63119  38.766   9.927   3.588
91504W        W63120   2.904  17.987  13.349
91505W        W63121  34.458  19.229  14.268
91506W        W63122  28.497  17.654  10.700
91507W        W63123  27.987  42.777   1.757
91508W        W63124  23.720  10.614   0.856
91509W        W63125  26.044  39.774   3.219
91510W        W63126   1.397  35.637  11.163
91511W        W63127  21.663  32.941   3.675
91512W        W63128  10.681   7.099  11.971
91513W        W63129  25.413  10.855  13.020
91514W        W63130  15.711  19.525   4.192
91515W        W63131   4.953  37.934  12.453
91516W        W63132  15.368   4.454   5.568
91517W        W63133  26.403  36.243   3.695
91518W        W63134  24.507  22.951  13.629
91519W        W63135   4.998   3.467  14.703
91520W        W63136  12.728  40.427   3.615
91521W        W63137  43.765  24.580   1.832
91522W        W63138  19.750   1.263   0.617
91523W        W63139  21.521  43.552   1.779
91524W        W63140   5.253  32.752  14.732
91525W        W63141  41.985  30.045   2.493
91526W        W63142  14.855  13.296  12.425
91527W        W63143   7.445   5.795  11.126
91528W        W63144  16.178  33.375  14.876
91529W        W63145  36.221  17.284   1.702
91530W        W63146  39.780  21.654  10.620
91531W        W63147   1.212   7.318  10.734
91532W        W63148  25.976  29.715   2.638
91533W        W63149  11.696  11.640   4.093
91534W        W63150  19.640  27.935  12.574
91535W        W63151  35.030  36.100  13.335
91536W        W63152  22.409  44.582  13.813
91537W        W63153   6.422  31.196  10.695
91538W        W63154  19.978  10.635  14.638
91539W        W63155   5.302  25.753   0.203
91540W        W63156  11.843  36.130   1.885
91541W        W63157   4.469   6.595  14.152
91542W        W63158   8.855  30.891   1.871
91543W        W63159   7.206   6.965   3.801
91544W        W63160  24.173  25.151   0.896
91545W        W63161   2.178  20.831   4.349
91546W        W63162  42.138   4.744  14.824
91547W        W63163  26.801  12.669  11.155
91548W        W63164  39.521  10.318   1.710
91549W        W63165  20.698  42.815   3.233
91550W        W63166  34.670  28.895   3.130
91551W        W63167   8.141  13.788  12.085
91552W        W63168   0.440  30.029   3.730
91553W        W63169  12.020  27.614  12.920
91554W        W63170  20.751  17.189   3.844
91555W        W63171  33.054  19.582   0.058
91556W        W63172  25.491  15.142   0.376
91557W        W63173   5.705  25.328   1.354
91558W        W63174  40.749   8.293  14.933
91559W        W63175  13.997  16.868  10.721
91560W        W63176  39.544  34.621  12.523
91561W        W63177  28.838  18.130   2.595
91562W        W63178  43.808  26.948   2.353
91563W        W63179   1.485  11.776  14.299
91564W        W63180  30.662  28.975  10.402
91565W        W63181  26.731   4.823   1.940
91566W        W63182  12.858  16.579   1.917
91567W        W63183   6.255  42.928   0.432
91568W        W63184  16.604  13.633  11.582
91569W        W63185  43.236  27.672   0.329
91570W        W63186   6.839  31.786   2.502
91571W        W63187   6.401  38.206   3.190
91572W        W63188  42.062  25.411  12.492
91573W        W63189  34.369  18.582   2.838
91574W        W63190  12.570  30.392  11.140
91575W        W63191  24.681  10.963  13.441
91576W        W63192  37.538  14.084   1.375
91577W        W63193  33.997  43.207   3.523
91578W        W63194  12.299  35.489  12.806
91579W        W63195   8.645   8.129  13.823
91580W        W63196  16.987  40.387   4.327
91581W        W63197  12.215  12.932   1.057
91582W        W63198  44.305  34.845  12.505
91583W        W63199  12.415  29.590  13.457
91584W        W63200  15.200   6.629  11.061
91585W        W63201  19.239  18.204  14.247
91586W        W63202  30.177  44.892  12.552
91587W        W63203  12.756  25.624   0.785
91588W        W63204  32.075  42.266   0.910
91589W        W63205  22.455  30.561   0.504
91590W        W63206  41.288  44.798   2.288
91591W        W63207   1.406   7.135   4.271
91592W        W63208  33.579  39.372  10.986
91593W        W63209  12.337  37.921  14.511
91594W        W63210  31.915   4.704   0.980
91595W        W63211  32.442  35.073   2.917
91596W        W63212  26.913  12.260   0.929
91597W        W63213   1.892  38.784  11.111
91598W        W63214   4.936  41.922  11.574
91599W        W63215   1.821  35.364  11.273
91600W        W63216   1.338  13.724   2.590
91601W        W63217  31.864  38.441   1.405
91602W        W63218  31.355  32.043  13.023
91603W        W63219  38.328  29.557  14.886
91604W        W63220  17.116  43.917   3.305
91605W        W63221  25.467  17.665  12.983
91606W        W63222  24.202  24.122   0.706
91607W        W63223  32.455   1.518  13.416
91608W        W63224  37.461  40.813   1.308
91609W        W63225  34.897  43.291   3.527
91610W        W63226  44.825  21.190   2.572
91611W        W63227  37.986  33.025  10.297
91612W        W63228   8.411   0.978   2.764
91613W        W63229  18.987  39.979   3.134
91614W        W63230  12.841  41.962   1.497
91615W        W63231  18.071   6.358  11.995
91616W        W63232   3.791   0.912  11.115
91617W        W63233   6.851  12.317   0.943
91618W        W63234  27.398  20.677   3.783
91619W        W63235  33.038  20.342   0.426
91620W        W63236  22.280   3.673  13.424
91621W        W63237  31.118  36.053   2.255
91622W        W63238  29.584  30.392   3.093
91623W        W63239   0.677  43.009   4.278
91624W        W63240  19.835  23.695  14.770
91625W        W63241  43.456  17.446   0.386
91626W        W63242   8.279  24.073   3.303
91627W        W63243  12.361  13.311  14.247
91628W        W63244  31.635  10.764  11.604
91629W        W63245  30.955  27.562   2.655
91630W        W63246  24.268   9.695   2.667
91631W        W63247  22.442  19.051   3.275
91632W        W63248  28.937  14.315   1.999
91633W        W63249  38.029  34.893  10.710
91634W        W63250  13.999  39.495  12.810
91635W        W63251   9.756  17.219  11.177
91636W        W63252  40.973  36.605  14.041
91637W        W63253   1.092  39.037   1.926
91638W        W63254   6.477  12.647  14.475
91639W        W63255  40.719  39.232  13.536
91640W        W63256  34.037  26.965   2.820
91641W        W63257  20.230  27.921  11.709
91642W        W63258  15.164  10.784   4.645
91643W        W63259   7.740  13.866  11.726
91644W        W63260   9.750  31.529   0.693
91645W        W63261   7.444   8.581  14.450
91646W        W63262  38.564  41.634   4.155
91647W        W63263   6.607  26.097  12.006
91648W        W63264  44.112   0.833   5.084
91649W        W63265  22.157  35.034   4.329
91650W        W63266  41.980  31.882  11.989
91651W        W63267  33.920   4.286  11.982
91652W        W63268  13.221  40.032  11.135
91653W        W63269   0.535   7.510  14.688
91654W        W63270  22.500   7.773  11.076
91655W        W63271   4.442  10.384  13.381
91656W        W63272  42.229   3.335  13.867
91657W        W63273   4.361  36.821   4.597
91658W        W63274   7.422  13.531   2.186
91659W        W63275  34.875  28.074   0.004
91660W        W63276  23.530  33.015   3.813
91661W        W63277  20.252  18.815   1.135
91662W        W63278  26.505  20.620  14.964
91663W        W63279  27.043  30.936   4.575
91664W        W63280  29.573  21.465   2.365
91665W        W63281  17.367  22.254  14.900
91666W        W63282  22.993  37.432  14.487
91667W        W63283  42.434  10.386  12.075
91668W        W63284  33.366  33.382   0.800
91669W        W63285   2.464  23.714  12.429
91670W        W63286  24.249   9.808   4.889
91671W        W63287  18.559   4.697  14.474
91672W        W63288  10.407  17.623  14.087
91673W        W63289  40.029   6.407   0.979
91674W        W63290  20.306   3.057  14.165
91675W        W63291  28.573  18.219  14.505
91676W        W63292  21.624  15.870   3.459
91677W        W63293  37.031  29.301   2.874
91678W        W63294  39.432  32.883   1.855
91679W        W63295  23.535  37.569   1.782
91680W        W63296  34.722  42.932  10.702
91681W        W63297  19.540  24.996  14.048
91682W        W63298   8.220  34.129  11.512
91683W        W63299  14.209  12.328   3.366
91684W        W63300  18.283  35.553  11.478
91685W        W63301   8.201  15.393   4.777
91686W        W63302   6.943  27.027  11.670
91687W        W63303   7.316  13.008   2.779
91688W        W63304   5.623  20.251   1.383
91689W        W63305  41.366  10.662  13.479
91690W        W63306  42.279  42.824   4.652
91691W        W63307  42.357  37.132  12.940
91692W        W63308   5.754  29.780   4.395
91693W        W63309  28.472   5.626  11.293
91694W        W63310  43.712  43.499  12.018
91695W        W63311  29.430  20.660   4.511
91696W        W63312   1.262  40.778   2.261
91697W        W63313   2.467   8.860  10.487
91698W        W63314   9.723  20.460  10.679
91699W        W63315   2.202   0.485   1.898
91700W        W63316  27.479   3.320  13.750
91701W        W63317  28.415  39.266  11.588
91702W        W63318   6.666  21.241  14.544
91703W        W63319  25.654  43.959   3.645
91704W        W63320  11.634  25.202  14.416
91705W        W63321  18.123  23.254   3.527
91706W        W63322  24.891  32.562   3.381
91707W        W63323   6.179  25.561  14.760
91708W        W63324  43.278  26.550   1.064
91709W        W63325  37.492  39.768   2.232
91710W        W63326  28.520  15.310   3.598
91711W        W63327  15.474   5.985  12.961
91712W        W63328  18.579   8.211  10.752
91713W        W63329  33.908  19.803  14.858
91714W        W63330  28.523   5.563   2.924
91715W        W63331   2.905  10.435  12.468
91716W        W63332  19.071  33.916  12.007
91717W        W63333   9.760  14.321  11.309
91718W        W63334  22.046  44.999  13.863
91719W        W63335  26.530  19.754   0.780
91720W        W63336  24.128  27.431   0.745
91721W        W63337  41.923  32.534   1.859
91722W        W63338  11.107  27.523  14.988
91723W        W63339  42.235  34.533   1.833
91724W        W63340  32.717  16.020  12.079
91725W        W63341  30.420  14.209   2.187
91726W        W63342  26.044  15.151  12.061
91727W        W63343  34.565  25.657  11.560
91728W        W63344  10.999  39.124   1.702
91729W        W63345  14.259   2.595   0.360
91730W        W63346  23.926  35.444   2.455
91731W        W63347  40.845  33.717   4.039
91732W        W63348   4.944  35.376  12.042
91733W        W63349  14.721  37.580  11.606
91734W        W63350  21.002  39.512   4.614
91735W        W63351  27.702  15.399   1.213
91736W        W63352  11.855  27.663  13.919
91737W        W63353   3.454  29.570   0.517
91738W        W63354  28.133  31.735  11.170
91739W        W63355   6.437  24.760  11.108
91740W        W63356  27.490  10.010  11.818
91741W        W63357  25.597  41.815  10.470
91742W        W63358  29.971  11.873  10.970
91743W        W63359  17.316   9.881  11.597
91744W        W63360   5.793   0.268   1.375
91745W        W63361  32.539  41.039  11.620
91746W        W63362  36.899  38.750   4.676
91747W        W63363  40.897   1.430  12.610
91748W        W63364  35.897  38.995  12.590
91749W        W63365  35.925   5.977  11.247
91750W        W63366   0.902  41.551   1.752
91751W        W63367  32.031   6.381  10.597
91752W        W63368  16.836  40.828  10.725
91753W        W63369  36.386  14.217   1.924
91754W        W63370  18.773  34.945  11.475
91755W        W63371  18.237  19.095  10.745
91756W        W63372  39.669  35.848  11.524
91757W        W63373   9.870  23.016  11.491
91758W        W63374   7.844   1.851   0.205
91759W        W63375  33.278  36.630  11.000
91760W        W63376  11.719  38.817   0.047
91761W        W63377  27.604  35.975  10.383
91762W        W63378  17.585   3.321  11.964
91763W        W63379  17.042  27.329  10.593
91764W        W63380  22.613  31.070  13.078
91765W        W63381   7.929  43.441  12.339
91766W        W63382  41.146  44.253   2.823
91767W        W63383  41.358  20.503  12.916
91768W        W63384  29.437  23.479   2.223
91769W        W63385  34.013   4.480  10.428
91770W        W63386  26.984   6.936   3.575
91771W        W63387  13.244  24.725  11.963
91772W        W63388  43.885  11.118   3.557
91773W        W63389   7.581  36.436  12.510
91774W        W63390  25.181  29.390   3.194
91775W        W63391  42.929  31.786  10.304
91776W        W63392  21.886  24.507  11.218
91777W        W63393  43.093  42.552  11.189
91778W        W63394  10.609  42.483  10.700
91779W        W63395  30.842   7.413  11.420
91780W        W63396  34.696   7.222   1.944
91781W        W63397   3.641  34.972  12.880
91782W        W63398  19.385  33.652   1.902
91783W        W63399  19.544  11.966  11.615
91784W        W63400  17.718   2.229  12.470
91785W        W63401  27.658  42.393  10.482
91786W        W63402  31.053  37.321  13.476
91787W        W63403  28.940  30.561  12.357
91788W        W63404  41.894  35.571   2.895
91789W        W63405  12.685  20.563  14.234
91790W        W63406  13.682   8.326  11.612
91791W        W63407  32.133  24.120  13.079
91792W        W63408   0.182  35.538   4.334
91793W        W63409   7.397   2.231  14.860
91794W        W63410  37.577   8.583   0.338
91795W        W63411  16.775  44.778   3.129
91796W        W63412  43.285   4.050  13.454
91797W        W63413   4.295  21.707  11.344
91798W        W63414   5.957  24.675  10.479
91799W        W63415  41.572  43.365  14.812
91800W        W63416  33.433  11.298  11.614
91801W        W63417   4.916   0.911  10.154
91802W        W63418  17.736  15.257  14.517
91803W        W63419  28.683  14.043  10.684
91804W        W63420  17.268  16.258  10.181
91805W        W63421  24.677  32.028  12.657
91806W        W63422  30.362  22.010   3.284
91807W        W63423  27.989  22.690   0.619
91808W        W63424  28.186  23.634   0.287
91809W        W63425  27.083  35.130  11.445
91810W        W63426  19.349  40.582   0.957
91811W        W63427  41.556  16.234   0.280
91812W        W63428  39.085  40.081   1.377
91813W        W63429  15.411   3.189   1.478
91814W        W63430  35.831  21.174   4.113
91815W        W63431  38.638  31.988   2.250
91816W        W63432   9.576  27.503  11.201
91817W        W63433  44.865  42.262   4.130
91818W        W63434   5.842  11.447  10.748
91819W        W63435   1.792   6.995  12.156
91820W        W63436   7.935  30.758  10.203
91821W        W63437  37.380  30.646   1.961
91822W        W63438  42.759  36.630  11.013
91823W        W63439  43.374  15.887   0.270
91824W        W63440  17.161   9.083  12.512
91825W        W63441  17.162  18.716   5.228
91826W        W63442  19.589  44.840   0.397
91827W        W63443  24.615  36.139  13.154
91828W        W63444   9.784  18.149   0.549
91829W        W63445  24.623  23.681  14.819
91830W        W63446  24.424  31.101  11.656
91831W        W63447  30.912  24.571  13.785
91832W        W63448  15.034  23.722  11.840
91833W        W63449  14.709   9.563   1.863
91834W        W63450  37.180  42.269  14.424
91835W        W63451  25.197  32.977   3.256
91836W        W63452  39.438  36.774   1.384
91837W        W63453  24.234  11.814   3.082
91838W        W63454  26.625  40.854   3.782
91839W        W63455  40.964  44.726   2.692
91840W        W63456  28.838   2.673  14.509
91841W        W63457  34.468   7.466   2.804
91842W        W63458  14.891  13.233  11.047
91843W        W63459   5.432  12.849  12.920
91844W        W63460  29.627  41.872   2.841
91845W        W63461  11.236  30.474   3.779
91846W        W63462   4.911   5.264   2.855
91847W        W63463  44.237  21.752  14.667
91848W        W63464  18.519  11.157   3.168
91849W        W63465  16.266  37.155   3.141
91850W        W63466  38.169  19.618  12.464
91851W        W63467  31.485   1.591   2.814
91852W        W63468  16.097   0.867  12.345
91853W        W63469  27.305  42.103   0.683
91854W        W63470  41.956   7.353   4.554
91855W        W63471  33.122  12.715  10.819
91856W        W63472   4.707   6.211  12.900
91857W        W63473  44.518  38.146  13.933
91858W        W63474  25.538  38.212  11.153
91859W        W63475  10.730  40.035  11.803
91860W        W63476   6.940  32.857   3.445
91861W        W63477  16.171  30.742   2.128
91862W        W63478   5.209  13.809  11.718
91863W        W63479  23.775  21.355  10.735
91864W        W63480  35.358  18.785  14.512
91865W        W63481  24.576   4.850   1.703
91866W        W63482   0.442  29.167  14.047
91867W        W63483  42.574   1.302   3.607
91868W        W63484  43.353   2.206   4.429
91869W        W63485  31.531   3.840  12.895
91870W        W63486  30.382  33.732   3.327
91871W        W63487   8.754   8.376  10.590
91872W        W63488  33.027  33.919   3.203
91873W        W63489  23.455  42.006   3.721
91874W        W63490  15.892  17.269   4.531
91875W        W63491  14.428   7.766  11.705
91876W        W63492  34.668  25.919   2.151
91877W        W63493  27.352  16.522  11.128
91878W        W63494  22.076   3.742  10.667
91879W        W63495  13.788  41.816  12.884
91880W        W63496  41.347  18.138  13.918
91881W        W63497   6.476  14.318   3.839
91882W        W63498  21.979  23.152   4.552
91883W        W63499   5.833  34.394   2.564
91884W        W63500   0.046  24.696  12.988
91885W        W63501  37.698  36.864   3.667
91886W        W63502   7.143  29.038  12.080
91887W        W63503  35.911  43.525  14.025
91888W        W63504  28.130  11.706  13.747
91889W        W63505  44.046  33.827   2.849
91890W        W63506   2.941  34.679  12.393
91891W        W63507  41.322   0.557  11.171
91892W        W63508  20.562  30.522   4.711
91893W        W63509  15.159   1.034   3.273
91894W        W63510  11.298   0.611   2.158
91895W        W63511  34.165  23.632   4.343
91896W        W63512  10.869   1.499   1.250
91897W        W63513  10.705  30.594   4.267
91898W        W63514  39.054   5.732  13.761
91899W        W63515  26.939  11.522  12.122
91900W        W63516  17.620  26.679   1.638
91901W        W63517  31.080  40.706  12.946
91902W        W63518   6.908  30.239   3.344
91903W        W63519   7.339   9.384  13.988
91904W        W63520  26.499  20.216  12.851
91905W        W63521  17.787   8.654   0.411
91906W        W63522  10.051  27.516  12.009
91907W        W63523  25.407   7.832  11.127
91908W        W63524   4.357  31.879   3.275
91909W        W63525  26.951  26.263   4.724
91910W        W63526  44.884   8.428  13.965
91911W        W63527  27.736  20.269  14.781
91912W        W63528   1.866  17.901   2.832
91913W        W63529  14.859   8.217   0.477
91914W        W63530  28.125  35.621  11.188
91915W        W63531  36.658  23.240  12.484
91916W        W63532  38.517  37.040   0.817
91917W        W63533  39.424  28.074   4.520
91918W        W63534  41.484  19.543   2.813
91919W        W63535  26.235  25.266   3.667
91920W        W63536  43.996  30.206   4.761
91921W        W63537  14.771  40.772  13.366
91922W        W63538  13.859  44.078  13.515
91923W        W63539  24.542  38.210  10.711
91924W        W63540   9.162  27.734  11.574
91925W        W63541  20.314  23.978   4.579
91926W        W63542  40.850   3.894   0.595
91927W        W63543  11.399  31.320   2.125
91928W        W63544   5.403  24.325  14.850
91929W        W63545   6.669  14.102   0.402
91930W        W63546  18.299  37.914  14.529
91931W        W63547   9.319  25.565  12.941
91932W        W63548   1.043  25.374   1.821
91933W        W63549  14.303  27.031   3.081
91934W        W63550  33.619  38.533   5.000
91935W        W63551  21.552  20.071  13.053
91936W        W63552  20.191  38.499  11.423
91937W        W63553  24.124  32.071  13.357
91938W        W63554  37.288  11.033   9.806
91939W        W63555  43.322  28.159   2.397
91940W        W63556  27.282  11.154   2.380
91941W        W63557  19.549   1.159  13.150
91942W        W63558  15.460  31.149   3.780
91943W        W63559  42.513  19.660  12.645
91944W        W63560  13.899   3.251  10.516
91945W        W63561  23.984  15.339   3.244
91946W        W63562  34.336  35.256   3.186
91947W        W63563  30.641  25.797   0.985
91948W        W63564  32.118  40.793  14.324
91949W        W63565  14.246  44.094   5.115
91950W        W63566  27.796  31.567  14.276
91951W        W63567  42.868  16.306   0.067
91952W        W63568  13.185  12.297  12.784
91953W        W63569   2.174  12.234   1.280
91954W        W63570  42.345  37.618  13.889
91955W        W63571  23.663  24.277   3.360
91956W        W63572  24.041  27.251   3.277
91957W        W63573  13.350  18.636   1.218
91958W        W63574  19.917  27.810  12.102
91959W        W63575  41.597  36.508  13.873
91960W        W63576  43.835  18.300   1.649
91961W        W63577  30.512  27.162  14.766
91962W        W63578  42.768   2.883   0.659
91963W        W63579  34.430   4.501  13.898
91964W        W63580  21.206   6.863   2.643
91965W        W63581  31.711  35.113  13.467
91966W        W63582  44.687  41.612   3.607
91967W        W63583  22.276  32.228   2.832
91968W        W63584   7.756  30.947  14.397
91969W        W63585  43.398  44.287  14.922
91970W        W63586  14.918  34.141   0.316
91971W        W63587  15.697   7.330  10.191
91972W        W63588  13.688  28.231  14.748
91973W        W63589  32.858  26.970  10.716
91974W        W63590  44.737   4.706   0.888
91975W        W63591  17.628  10.742   1.166
91976W        W63592  18.795  20.758  12.700
91977W        W63593  12.093  32.534   0.202
91978W        W63594  44.483  26.977   9.944
91979W        W63595  40.164  17.588  11.591
91980W        W63596  22.950  36.128  14.446
91981W        W63597   3.845  24.101   1.879
91982W        W63598  44.847   0.776  11.708
91983W        W63599  19.597  39.344  14.794
91984W        W63600  19.004  37.093  13.840
91985W        W63601  35.932  21.155  14.127
91986W        W63602   9.845  38.320  11.635
91987W        W63603  33.681  13.694  12.511
91988W        W63604  22.700  36.774  10.822
91989W        W63605  23.653   4.780   0.645
91990W        W63606  29.903  33.858   3.284
91991W        W63607  30.588   4.152  12.287
91992W        W63608   9.737  23.253  11.972
91993W        W63609  25.785   2.660   2.915
91994W        W63610  30.213  31.613   2.464
91995W        W63611   5.085   6.259  11.574
91996W        W63612   8.238  22.514  13.401
91997W        W63613  18.740  28.599   9.801
91998W        W63614  32.433  12.806   0.838
91999W        W63615  42.489  10.934   4.623
92000W        W63616  28.197  22.983   1.838
92001W        W63617  27.724  27.131   2.688
92002W        W63618  30.565  33.174   4.037
92003W        W63619  12.086  10.820   3.315
92004W        W63620  18.222   6.720  12.358
92005W        W63621  30.794  27.827   4.541
92006W        W63622  39.371  34.534   0.825
92007W        W63623  22.446  13.914  14.018
92008W        W63624  19.693  15.198   1.913
92009W        W63625  25.186  41.888   1.699
92010W        W63626   8.117   6.313  12.140
92011W        W63627  29.702  11.151  11.974
92012W        W63628  32.489  30.083  12.052
92013W        W63629  34.709  20.116  13.589
92014W        W63630  23.650  21.739   2.211
92015W        W63631  27.463  44.990  13.524
92016W        W63632  34.696  34.449   1.709
92017W        W63633   7.984  22.877  11.222
92018W        W63634  19.800   3.203   2.358
92019W        W63635  26.746  21.301  13.320
92020W        W63636   8.892  41.727  14.907
92021W        W63637  32.489  19.513   2.603
92022W        W63638  42.335  15.175  13.905
92023W        W63639  12.590   7.216  10.947
92024W        W63640  41.727  32.827  12.629
92025W        W63641  11.244  21.003  11.917
92026W        W63642   1.746   3.457  14.932
92027W        W63643  31.448   4.885  12.906
92028W        W63644   7.289   9.120  12.567
92029W        W63645  38.856   9.346  13.925
92030W        W63646  30.676  42.051   1.814
92031W        W63647   4.803  28.434   4.651
92032W        W63648  20.034  33.296   0.169
92033W        W63649  40.258  14.033   2.683
92034W        W63650   6.896   5.140   3.877
92035W        W63651  13.095  40.722  13.998
92036W        W63652   9.763   5.316   3.390
92037W        W63653   9.687  41.900   3.000
92038W        W63654   6.391  22.680  15.000
92039W        W63655  44.833   1.034  14.302
92040W        W63656  44.948  15.688  11.564
92041W        W63657  20.981  27.622   3.134
92042W        W63658   7.248  27.430  13.492
92043W        W63659  31.113  10.697   1.721
92044W        W63660  43.409  39.761  13.775
92045W        W63661  31.921  15.207   3.190
92046W        W63662  18.610  33.895  12.876
92047W        W63663  22.712  18.626   2.347
92048W        W63664  38.070  22.501   1.201
92049W        W63665  40.640   2.868   4.096
92050W        W63666  22.577   1.226   4.966
92051W        W63667   3.817  22.257  12.040
92052W        W63668   1.198  27.465  11.085
92053W        W63669   2.597  18.093   4.773
92054W        W63670  11.235  22.964  14.496
92055W        W63671  32.426  30.973   1.692
92056W        W63672  38.437  20.794  11.644
92057W        W63673   6.352  25.973   2.398
92058W        W63674  41.731  29.257  11.482
92059W        W63675   0.946  20.652   4.699
92060W        W63676  35.291  28.211  12.901
92061W        W63677  33.954   2.762  12.993
92062W        W63678  41.548   2.359  10.458
92063W        W63679  16.041  26.546   3.641
92064W        W63680  31.157  32.523   3.814
92065W        W63681   8.825  20.692   0.810
92066W        W63682  29.343  10.028   2.481
92067W        W63683  30.673  19.554   2.228
92068W        W63684  34.899  23.993   3.408
92069W        W63685  13.577  38.372  14.553
92070W        W63686  17.775  13.072  10.684
92071W        W63687  18.251  42.490   0.689
92072W        W63688  44.327  11.400  14.728
92073W        W63689  20.038  31.669   2.223
92074W        W63690  33.442  29.211   2.766
92075W        W63691  16.079  43.741   1.299
92076W        W63692   2.229  30.861  13.107
92077W        W63693  21.326  15.975  14.219
92078W        W63694  15.079  38.469  12.068
92079W        W63695  17.771  34.859  11.475
92080W        W63696  34.550  10.315   2.211
92081W        W63697  17.664  36.595  13.933
92082W        W63698  21.719  19.035  10.937
92083W        W63699  28.629   1.690  12.938
92084W        W63700  17.711  14.174   4.616
92085W        W63701  37.291   4.961   1.179
92086W        W63702  40.580  11.732   5.130
92087W        W63703  21.503  12.288  10.421
92088W        W63704  37.468  17.143  12.590
92089W        W63705   2.681   6.994  12.309
92090W        W63706  10.771   8.321  12.539
92091W        W63707  14.819  31.159   2.342
92092W        W63708  41.824  18.616   0.533
92093W        W63709  41.061  22.032  13.774
92094W        W63710  41.315  20.205   2.162
92095W        W63711  20.202   2.523  10.709
92096W        W63712  44.219   8.974   5.011
92097W        W63713  38.554  24.039   2.648
92098W        W63714  21.221   9.185   0.242
92099W        W63715  33.095  35.662   0.327
92100W        W63716  26.919   6.162   0.412
92101W        W63717  26.419  13.934  13.097
92102W        W63718  18.716  42.639   3.700
92103W        W63719  38.871  11.310  12.814
92104W        W63720  11.251  38.943  14.837
92105W        W63721  34.815  10.153   1.784
92106W        W63722  25.303   4.420   4.118
92107W        W63723  10.422  21.031   4.520
92108W        W63724  43.940  22.712  13.440
92109W        W63725  28.140   8.759  10.249
92110W        W63726  22.609  22.886  10.678
92111W        W63727  22.789  43.909  11.032
92112W        W63728  27.476   4.598  11.518
92113W        W63729  29.068  18.334  12.583
92114W        W63730  13.034   4.914  13.287
92115W        W63731   4.803  39.021  13.931
92116W        W63732   3.302   2.910  13.228
92117W        W63733  38.415  42.912   2.614
92118W        W63734  28.661  13.850   2.377
92119W        W63735  11.734   5.562  13.852
92120W        W63736  12.039  44.402  13.532
92121W        W63737  22.159  33.664   3.184
92122W        W63738  29.955   6.437  11.455
92123W        W63739  29.397   3.233   1.899
92124W        W63740   3.868  26.604  12.346
92125W        W63741  34.365   6.162   1.884
92126W        W63742  27.599  18.052   0.757
92127W        W63743   5.218  23.451  13.583
92128W        W63744  21.048  26.720   1.213
92129W        W63745  27.703  18.940   1.415
92130W        W63746  13.328   7.620  10.644
92131W        W63747   4.650   7.232   2.027
92132W        W63748  43.806   5.418   0.272
92133W        W63749   7.784  31.130  10.978
92134W        W63750  42.482  31.484   2.051
92135W        W63751  39.036  26.206   0.429
92136W        W63752  18.360  44.211  13.065
92137W        W63753  16.104  33.346  12.636
92138W        W63754  40.008  11.327  14.798
92139W        W63755  13.550  44.926   3.528
92140W        W63756  12.279  32.114  13.053
92141W        W63757  41.903   8.780  10.256
92142W        W63758  35.585  10.105  14.317
92143W        W63759  29.702  23.614  14.054
92144W        W63760  33.901   9.813  14.312
92145W        W63761  19.967  24.602   3.922
92146W        W63762  19.901  30.113   0.941
92147W        W63763  27.024  44.338   3.657
92148W        W63764  29.985  37.497   0.099
92149W        W63765  31.949  28.654  13.956
92150W        W63766  33.564   2.053  12.098
92151W        W63767   8.841  25.128   4.884
92152W        W63768   4.143  39.062  13.085
92153W        W63769  34.935  12.660   1.612
92154W        W63770   8.681   5.956   3.438
92155W        W63771  34.110  26.203  13.439
92156W        W63772   3.929  14.700  14.484
92157W        W63773  40.831  15.452  13.161
92158W        W63774  31.030   2.292   2.211
92159W        W63775   3.287  26.030  12.882
92160W        W63776  25.902  37.951   2.456
92161W        W63777   1.433   4.849  13.863
92162W        W63778  26.406  11.129   5.107
92163W        W63779  35.266  31.532  11.112
92164W        W63780  41.957  34.096  12.089
92165W        W63781  32.834  44.404   1.888
92166W        W63782   1.983   3.200   1.769
92167W        W63783   1.554  41.074   4.200
92168W        W63784  38.996  36.087   3.248
92169W        W63785   8.754  39.803   3.424
92170W        W63786  44.606  21.237   0.331
92171W        W63787  37.579  30.542   3.286
92172W        W63788  39.780  39.905   4.647
92173W        W63789   0.250  15.593  12.026
92174W        W63790  39.502   2.198   2.675
92175W        W63791  21.122  30.731   1.197
92176W        W63792  32.897  18.931   0.688
92177W        W63793  26.795  21.013   5.109
92178W        W63794  29.046  19.246  12.202
92179W        W63795  38.551   5.251   1.213
92180W        W63796  41.874   3.881   3.367
92181W        W63797  42.469  33.032  13.582
92182W        W63798  23.022  38.644  13.011
92183W        W63799  37.998   1.387   3.335
92184W        W63800  13.126  27.550  14.961
92185W        W63801  13.532  27.091  10.721
92186W        W63802  40.313  19.662   4.599
92187W        W63803  13.441  23.389   3.252
92188W        W63804  42.963  15.545   2.704
92189W        W63805  30.234  14.637   2.485
92190W        W63806  37.786  44.020  12.129
92191W        W63807  29.435  38.443  12.544
92192W        W63808  41.954  26.686   4.471
92193W        W63809   8.626   1.608   1.127
92194W        W63810  25.115  21.074   2.786
92195W        W63811  37.863  29.462   4.513
92196W        W63812  41.333  31.115  13.444
92197W        W63813   9.838  38.492   1.261
92198W        W63814   5.969  18.740   3.402
92199W        W63815  34.104   8.243  11.154
92200W        W63816  23.152  38.166  12.902
92201W        W63817  27.745   2.772   3.307
92202W        W63818  11.858   4.734   2.664
92203W        W63819  40.594  16.785  13.367
92204W        W63820  13.598   3.860   2.357
92205W        W63821  14.495  39.968   0.840
92206W        W63822  31.697  23.186   2.863
92207W        W63823  33.173   0.380   4.691
92208W        W63824  44.472  20.265  14.908
92209W        W63825  40.358  25.325   1.143
92210W        W63826  27.106  18.511   1.846
92211W        W63827  41.471  15.801   2.714
92212W        W63828  26.919  38.884  12.037
92213W        W63829  26.519  32.617   3.427
92214W        W63830  34.909   0.666  11.127
92215W        W63831  19.332  31.718  14.479
92216W        W63832  37.327   4.267  13.383
92217W        W63833  34.094  39.990   3.167
92218W        W63834  25.098  24.110  10.775
92219W        W63835  24.978  17.498  10.707
92220W        W63836   5.527  10.371   3.693
92221W        W63837  33.104  29.602  10.550
92222W        W63838  17.444   2.608  14.318
92223W        W63839  21.236  41.435  13.264
92224W        W63840   0.318  10.285   4.988
92225W        W63841  25.929   0.878   3.699
92226W        W63842  37.388  43.386   2.464
92227W        W63843  21.983   4.643  14.211
92228W        W63844  32.048   9.240   0.388
92229W        W63845  12.439  29.195  11.547
92230W        W63846  12.087  25.014  14.551
92231W        W63847   7.648  22.495  11.233
92232W        W63848   7.665  11.246  13.355
92233W        W63849   1.976  37.532   1.932
92234W        W63850  10.634  35.088   3.720
92235W        W63851   5.324  10.347  10.678
92236W        W63852  22.435  14.790  11.945
92237W        W63853  40.271  22.472   2.758
92238W        W63854   6.042  15.836   0.489
92239W        W63855  23.473   7.735   0.801
92240W        W63856   3.748  28.493  14.980
92241W        W63857   1.218  25.443  14.052
92242W        W63858  44.980  44.340  12.075
92243W        W63859   2.379   7.634  14.814
92244W        W63860  12.538  40.030   1.850
92245W        W63861  43.961  39.754  10.591
92246W        W63862  13.660  26.390  12.470
92247W        W63863  17.103  17.685   2.044
92248W        W63864   0.487  27.127  14.656
92249W        W63865  22.762  35.917   2.754
92250W        W63866  10.820   6.259  14.807
92251W        W63867  24.849  30.227  11.920
92252W        W63868  23.111  10.837  10.816
92253W        W63869  12.030  41.838  13.748
92254W        W63870  14.897  16.130   3.240
92255W        W63871  10.888  28.370  12.980
92256W        W63872  41.728   7.798   4.438
92257W        W63873  21.078  43.391  13.026
92258W        W63874   5.046  12.909  14.370
92259W        W63875  39.045  17.809   2.629
92260W        W63876  11.272  12.530   3.427
92261W        W63877  15.501  27.721  13.377
92262W        W63878  34.912  24.905  14.912
92263W        W63879  13.427  44.474   3.272
92264W        W63880  36.366  16.148   4.179
92265W        W63881  13.901  35.880  14.615
92266W        W63882  27.239  31.359  11.984
92267W        W63883  38.387   4.838  14.269
92268W        W63884  37.439  44.524  10.698
92269W        W63885  39.123   4.751   0.962
92270W        W63886  20.651   4.323   0.426
92271W        W63887   2.772  15.418  14.280
92272W        W63888  31.241  30.425   4.101
92273W        W63889  16.104  43.021  13.172
92274W        W63890   2.318  36.199   3.113
92275W        W63891   0.387  22.605  11.394
92276W        W63892  41.828  20.211  14.939
92277W        W63893  39.326  37.280   4.739
92278W        W63894  43.799   3.132  14.586
92279W        W63895  13.704  28.960   2.743
92280W        W63896   9.479  25.108  14.926
92281W        W63897  30.345  42.115  13.255
92282W        W63898  33.083   8.738   4.829
92283W        W63899   6.476  29.739  14.357
92284W        W63900  19.189  38.491   0.209
92285W        W63901  29.654   6.396  11.026
92286W        W63902  44.392  11.661   1.381
92287W        W63903   6.872   0.413  10.762
92288W        W63904  28.218  14.857  13.614
92289W        W63905  34.781   1.139  11.284
92290W        W63906  21.581  19.622   0.323
92291W        W63907  13.353  21.189   0.064
92292W        W63908  20.203  26.252   1.834
92293W        W63909  14.187  18.549   0.839
92294W        W63910  32.490  26.669   3.266
92295W        W63911   5.958  16.603   1.248
92296W        W63912   9.686  28.370  11.324
92297W        W63913   1.008   5.291   4.737
92298W        W63914  25.125  34.552  11.085
92299W        W63915  20.509   7.730  12.500
92300W        W63916  29.148  40.463   4.409
92301W        W63917  23.741   5.767  11.001
92302W        W63918  35.206   6.682  12.262
92303W        W63919  22.596  27.117   2.893
92304W        W63920  40.881  43.342  10.360
92305W        W63921  43.578  21.682   0.453
92306W        W63922   3.653  43.615  14.431
92307W        W63923  24.714   9.801   2.459
92308W        W63924  14.186  18.662   3.135
92309W        W63925  22.528  44.412  14.641
92310W        W63926  37.881  44.570   2.487
92311W        W63927  22.581  27.764   0.655
92312W        W63928  10.665  28.585   2.702
92313W        W63929  27.035   6.435   4.890
92314W        W63930  21.544  22.721  11.686
92315W        W63931  21.487  34.049  12.524
92316W        W63932  42.336  36.794  12.456
92317W        W63933   6.713  40.421  13.437
92318W        W63934  38.810  15.841   4.618
92319W        W63935  42.363  38.249   3.411
92320W        W63936  36.891   6.586   1.145
92321W        W63937  32.753  23.937   0.747
92322W        W63938  11.766  29.679   4.704
92323W        W63939   8.667  16.826   0.832
92324W        W63940  33.994  31.421   2.796
92325W        W63941  26.461  10.600  14.486
92326W        W63942   2.010  19.698   3.714
92327W        W63943  14.823  26.511  13.227
92328W        W63944   2.730  15.623  10.727
92329W        W63945  25.982   3.298  13.263
92330W        W63946  22.646   8.559  13.365
92331W        W63947  25.154   1.421  11.342
92332W        W63948  33.184  34.289   2.444
92333W        W63949  33.039  20.715   2.240
92334W        W63950   7.600  13.357  14.553
92335W        W63951  12.272  38.910   0.207
92336W        W63952  37.001  35.661  13.806
92337W        W63953  33.477   4.138   4.178
92338W        W63954  10.571  29.089  13.343
92339W        W63955  44.018  38.056  13.834
92340W        W63956  10.658   9.436   0.418
92341W        W63957  14.105  25.235  11.262
92342W        W63958  12.814  32.498   2.274
92343W        W63959   2.986  21.688  10.702
92344W        W63960   0.461  28.730   2.821
92345W        W63961  16.437  34.294   2.925
92346W        W63962  40.350  38.811   1.659
92347W        W63963  18.334  40.054   4.391
92348W        W63964  17.261  37.593  10.555
92349W        W63965  19.220  16.121   4.822
92350W        W63966   8.404   2.818  13.311
92351W        W63967  11.226  22.975  13.978
92352W        W63968  27.484  27.013   4.243
92353W        W63969  39.636   0.911   3.751
92354W        W63970  11.766  39.520   1.966
92355W        W63971  11.697  33.500  10.687
92356W        W63972  27.795   3.259   4.016
92357W        W63973  44.763  15.121  13.034
92358W        W63974   2.283  36.485   1.356
92359W        W63975  28.467  26.969   3.110
92360W        W63976  11.762  40.568  10.478
92361W        W63977  34.637  38.991  13.138
92362W        W63978  19.025   7.253  13.410
92363W        W63979  27.913  44.976   0.248
92364W        W63980  10.435  11.163  12.004
92365W        W63981  13.036  29.774  12.669
92366W        W63982  44.979  25.102   3.595
92367W        W63983  41.947   0.313   2.243
92368W        W63984   9.101  19.082  13.007
92369W        W63985  30.988  13.366  10.825
92370W        W63986   2.752  25.206  10.605
92371W        W63987   8.437  35.845  14.850
92372W        W63988  24.251  31.590   3.219
92373W        W63989  32.319  14.603   2.277
92374W        W63990  18.262  32.096  11.918
92375W        W63991   1.790   8.720  10.605
92376W        W63992  32.388  37.827  14.001
92377W        W63993  15.811  28.962   3.085
92378W        W63994  25.594  42.853   3.631
92379W        W63995   0.826   3.381   4.561
92380W        W63996  27.716  27.027   3.618
92381W        W63997   0.422   6.034   3.199
92382W        W63998   4.449   4.574  14.375
92383W        W63999  18.125  10.175   4.632
92384W        W64000  41.951  23.585   3.924
92385W        W64001  35.341  40.347   1.808
92386W        W64002   7.501  17.244   0.434
92387W        W64003  40.779  24.028  14.928
92388W        W64004  15.385  40.993  14.554
92389W        W64005   1.843  22.251   3.518
92390W        W64006  12.224  18.179  10.993
92391W        W64007   6.221  37.769   2.295
92392W        W64008   2.300  36.810   0.812
92393W        W64009  42.309  25.277  14.525
92394W        W64010  15.706  32.703   2.407
92395W        W64011   6.764  27.204   4.078
92396W        W64012  43.678  28.913  14.465
92397W        W64013   3.106   0.895   4.562
92398W        W64014  20.636  43.836  11.247
92399W        W64015  15.814   1.373  13.442
92400W        W64016  40.006  13.463  11.890
92401W        W64017  37.828  39.997   0.383
92402W        W64018  39.651   4.207  13.505
92403W        W64019  25.165  36.864  13.384
92404W        W64020  10.385  27.472   2.622
92405W        W64021  20.264  44.468  11.343
92406W        W64022  24.294  13.404   0.300
92407W        W64023  14.227   9.420   1.619
92408W        W64024   9.356  17.240   3.177
92409W        W64025  35.625   7.675   4.560
92410W        W64026  10.843  44.742   2.789
92411W        W64027  33.621   9.049  13.558
92412W        W64028  35.170  40.083   4.082
92413W        W64029  17.629  43.758   4.987
92414W        W64030  13.456  15.432  14.646
92415W        W64031  25.619  34.883  12.403
92416W        W64032  35.040  36.476   4.348
92417W        W64033  22.750  42.536  14.430
92418W        W64034  17.393  23.395   0.484
92419W        W64035  41.166  34.453   0.291
92420W        W64036  38.640  21.480   2.262
92421W        W64037  14.132  30.603   4.723
92422W        W64038  30.369  13.374  11.546
92423W        W64039  42.314  40.933   0.107
92424W        W64040  41.995  14.588   1.004
92425W        W64041  37.604  32.619  13.832
92426W        W64042   8.698  42.290   3.274
92427W        W64043  14.444  29.067  11.435
92428W        W64044  15.822  40.460  13.960
92429W        W64045  35.409  25.699   0.894
92430W        W64046  35.273  20.523   2.814
92431W        W64047  12.317  17.118   3.345
92432W        W64048  36.645  16.030   0.887
92433W        W64049  11.225  42.267   0.434
92434W        W64050   8.837   4.641   0.191
92435W        W64051  40.422   7.237  12.546
92436W        W64052  36.987  34.861   0.406
92437W        W64053  20.933   8.662   4.761
92438W        W64054   9.285  14.773  11.102
92439W        W64055   4.194  12.690   0.317
92440W        W64056   1.327  28.131  11.926
92441W        W64057  38.904  28.685   1.312
92442W        W64058   6.248  40.462  13.621
92443W        W64059   0.740   6.687  12.427
92444W        W64060  22.997  32.311   0.015
92445W        W64061  13.521  32.068   0.819
92446W        W64062  39.032   5.836  11.681
92447W        W64063  31.124  41.006  14.354
92448W        W64064  19.304  39.410   0.494
92449W        W64065  18.284  39.510   0.391
92450W        W64066  31.103  31.347  14.543
92451W        W64067   0.524  27.655   4.275
92452W        W64068  25.974  20.068   1.272
92453W        W64069  32.427  16.988   4.087
92454W        W64070  39.561  43.426   1.428
92455W        W64071  39.364  20.751  11.182
92456W        W64072  29.393  22.708  10.204
92457W        W64073  22.607  19.147  13.106
92458W        W64074  15.764   7.088  11.654
92459W        W64075   1.780  41.419  14.296
92460W        W64076  12.262  10.130  12.492
92461W        W64077  15.279  44.496   2.193
92462W        W64078   4.232  19.770   1.492
92463W        W64079   0.184  41.544   3.707
92464W        W64080  33.165  32.946   3.124
92465W        W64081  22.349  36.795  13.426
92466W        W64082  38.533   2.725   2.216
92467W        W64083  26.380  28.648  12.584
92468W        W64084  35.500  35.173   3.766
92469W        W64085  20.081  43.906  12.509
92470W        W64086  23.044   1.510   1.691
92471W        W64087  39.464  23.564   3.735
92472W        W64088  38.954   3.449   2.381
92473W        W64089  37.229  12.809  11.664
92474W        W64090  32.285  27.075   4.533
92475W        W64091  23.336  10.822  14.884
92476W        W64092  37.415  13.418  14.384
92477W        W64093   8.567  13.639  13.517
92478W        W64094   6.457   5.774  14.778
92479W        W64095  18.665  24.653  11.872
92480W        W64096  32.885  25.133   3.772
92481W        W64097   2.789  29.884   1.200
92482W        W64098   8.087   9.241  11.416
92483W        W64099  20.670   2.254  10.787
92484W        W64100  14.724  38.481   1.925
92485W        W64101  41.232  39.306   4.101
92486W        W64102  38.905   6.086  10.328
92487W        W64103  43.434  31.703   2.087
92488W        W64104  39.324  18.245  14.690
92489W        W64105  44.302  21.240   4.186
92490W        W64106  30.886  35.976   2.733
92491W        W64107  20.149  20.647   4.158
92492W        W64108  31.100  34.799  11.158
92493W        W64109  37.731  24.647  11.087
92494W        W64110   5.884  41.936   4.211
92495W        W64111  15.239   5.882   5.391
92496W        W64112  33.591  30.539   1.138
92497W        W64113   9.464  23.105   0.807
92498W        W64114   0.834   7.829  14.339
92499W        W64115  23.626  40.921   0.309
92500W        W64116   3.308  28.102  12.818
92501W        W64117   7.965  21.146   2.756
92502W        W64118  30.249  12.881  13.899
92503W        W64119  30.971  10.686   0.276
92504W        W64120  31.175   8.572   1.873
92505W        W64121  40.785  35.425   2.872
92506W        W64122  39.088  18.674   0.175
92507W        W64123  38.132  37.415  12.414
92508W        W64124  21.419   6.193  11.414
92509W        W64125   8.689  22.508   2.407
92510W        W64126  20.403  37.924   1.380
92511W        W64127  38.830  29.689   0.385
92512W        W64128  35.304   5.726  13.938
92513W        W64129  10.500  40.051  11.159
92514W        W64130  19.221  17.304  14.923
92515W        W64131  16.799  41.840   0.413
92516W        W64132  15.309  28.145  11.683
92517W        W64133   0.271  24.408  10.533
92518W        W64134  39.542   4.393   2.331
92519W        W64135   6.663  23.715   4.180
92520W        W64136  11.322   2.536  11.448
92521W        W64137  14.789  35.748  10.658
92522W        W64138  44.329  36.334  14.578
92523W        W64139  39.725   5.493  10.573
92524W        W64140   4.854  41.987  14.860
92525W        W64141  15.860   3.401  14.747
92526W        W64142  15.515  30.074  11.104
92527W        W64143  30.262   0.296   3.286
92528W        W64144  11.562  29.399  12.460
92529W        W64145  13.321  43.388   2.370
92530W        W64146  41.900  32.874  12.151
92531W        W64147  30.548  18.791   4.128
92532W        W64148   3.381  23.870  10.982
92533W        W64149   1.168  24.628  13.536
92534W        W64150  18.938  20.993   2.317
92535W        W64151   0.591  35.864   0.918
92536W        W64152   7.682  11.812  11.645
92537W        W64153   0.433  25.018   2.196
92538W        W64154   7.593  44.309   1.893
92539W        W64155  14.556  41.266   2.917
92540W        W64156  27.281  36.615  10.790
92541W        W64157  15.513  21.973  12.041
92542W        W64158   7.680   8.865   2.203
92543W        W64159  28.607  43.680  13.882
92544W        W64160  36.969  42.393  12.923
92545W        W64161  28.000   7.857   3.018
92546W        W64162   3.684  14.229  11.471
92547W        W64163   7.664   9.663   2.897
92548W        W64164   2.857  36.781  12.515
92549W        W64165  22.600  41.025  14.558
92550W        W64166   8.865  35.722   2.882
92551W        W64167  15.058   5.873  12.681
92552W        W64168  17.230  14.329  11.635
92553W        W64169  30.963  23.127  14.930
92554W        W64170   7.599  17.825   4.253
92555W        W64171  19.253  12.012   2.094
92556W        W64172  18.213   4.186   3.182
92557W        W64173  39.143  44.415  14.363
92558W        W64174  16.135  28.582   3.175
92559W        W64175   7.969  26.217  12.587
92560W        W64176  27.888  38.062   2.448
92561W        W64177  36.407  26.564   3.716
92562W        W64178  29.065  12.330  13.012
92563W        W64179  17.157  14.706  14.726
92564W        W64180  41.748  36.893  14.707
92565W        W64181  23.268  13.563   4.519
92566W        W64182  21.619  38.966  12.898
92567W        W64183  20.639  33.652  10.639
92568W        W64184   3.389   0.532   5.155
92569W        W64185   3.390  16.003  11.124
92570W        W64186  12.861  44.701   0.836
92571W        W64187  29.980  39.908  11.035
92572W        W64188   6.966  29.878   1.971
92573W        W64189  40.879  35.132   0.794
92574W        W64190  22.958  44.693   3.873
92575W        W64191  33.852  13.591   3.515
92576W        W64192  17.135  18.485   3.172
92577W        W64193   4.323  42.518  14.231
92578W        W64194   2.583   6.432  14.321
92579W        W64195  24.212   8.433   2.297
92580W        W64196  24.181  26.129  13.899
92581W        W64197  22.750  32.393  14.076
92582W        W64198  29.139  25.117  14.066
92583W        W64199  12.272  34.150   0.831
92584W        W64200  30.056  15.263  13.665
92585W        W64201  12.907   2.731  13.007
92586W        W64202  18.262  39.845  13.280
92587W        W64203  37.032  29.175   1.301
92588W        W64204  39.544   1.715  13.316
92589W        W64205   1.798  41.949   3.133
92590W        W64206   9.125  28.872   0.925
92591W        W64207  13.997  25.952  13.885
92592W        W64208   5.205  20.597  11.601
92593W        W64209  37.880  43.525   2.291
92594W        W64210  38.536  16.191   1.540
92595W        W64211   0.239  17.756  11.894
92596W        W64212  16.292  37.758   0.701
92597W        W64213  23.199  34.438  12.196
92598W        W64214  44.810  19.690  13.918
92599W        W64215  34.529  19.939   2.107
92600W        W64216  42.297   7.188   0.005
92601W        W64217   1.508   0.440  12.131
92602W        W64218   4.373  23.993   1.186
92603W        W64219  11.445  19.755   3.859
92604W        W64220  22.089  37.311  14.035
92605W        W64221  34.103  40.558   2.285
92606W        W64222   6.949  21.059   0.950
92607W        W64223  10.300  18.189   0.396
92608W        W64224  22.033  11.142   3.112
92609W        W64225  16.677  29.933   4.613
92610W        W64226  40.308  19.970  13.622
92611W        W64227  11.252   8.766  12.811
92612W        W64228  40.824   8.298   3.060
92613W        W64229  26.508  42.606   3.330
92614W        W64230   9.869  41.805   4.125
92615W        W64231  17.028  41.575   1.660
92616W        W64232  30.078   0.572  10.723
92617W        W64233   6.824  25.541   0.293
92618W        W64234  38.110  39.543   1.402
92619W        W64235  24.278  34.918  14.938
92620W        W64236  26.686  26.758  13.444
92621W        W64237  38.773  34.074   2.527
92622W        W64238  15.375  13.128   0.523
92623W        W64239  23.459  12.176   3.787
92624W        W64240   9.685  19.161   1.255
92625W        W64241   3.366  27.604  12.923
92626W        W64242  36.692  43.325  11.534
92627W        W64243  13.392   8.736  12.062
92628W        W64244  43.583  28.900  11.310
92629W        W64245  26.454  39.912   3.612
92630W        W64246   8.298  20.091  13.846
92631W        W64247  22.154   9.536   1.946
92632W        W64248  31.250   1.793  11.352
92633W        W64249   9.278   8.130   3.259
92634W        W64250  25.778  23.921  13.081
92635W        W64251  21.251  17.267   3.608
92636W        W64252   2.053  40.379   2.332
92637W        W64253  37.600  14.066   3.884
92638W        W64254   6.252  13.277  12.835
92639W        W64255  16.507  26.592   4.553
92640W        W64256  18.051  24.661   2.761
92641W        W64257  40.517   9.799   3.170
92642W        W64258   4.312   6.360   4.170
92643W        W64259  22.013  27.346   4.105
92644W        W64260  35.946  19.219   2.125
92645W        W64261  25.998  35.107  10.595
92646W        W64262  11.732  35.146   4.993
92647W        W64263  10.299   4.272   2.307
92648W        W64264  34.414  25.566   3.518
92649W        W64265  11.647  36.586   3.559
92650W        W64266  18.609  35.620  14.538
92651W        W64267   6.669   1.713   2.438
92652W        W64268   5.751  28.821  14.934
92653W        W64269  21.187  40.094  12.011
92654W        W64270  10.520  14.225  11.039
92655W        W64271  13.872  40.908  11.223
92656W        W64272   5.601   7.348  13.833
92657W        W64273  39.671  32.290   0.276
92658W        W64274  38.794   0.247  13.443
92659W        W64275  15.802  28.056   3.181
92660W        W64276  36.459  42.150   3.318
92661W        W64277  31.082  23.919   2.692
92662W        W64278  23.342  36.970   2.842
92663W        W64279   5.438   3.221  13.333
92664W        W64280   0.228  41.739  14.536
92665W        W64281  44.555  40.109  12.957
92666W        W64282  29.942  37.999   4.880
92667W        W64283  16.564  14.121  12.283
92668W        W64284   1.095   6.692  13.308
92669W        W64285  37.855  44.360  12.506
92670W        W64286  40.954  37.052  12.713
92671W        W64287  30.316  13.682   1.742
92672W        W64288  28.451  41.873   2.355
92673W        W64289  18.575  36.300   0.017
92674W        W64290  21.345  13.679  11.155
92675W        W64291  27.245  19.336   3.953
92676W        W64292  39.727  38.623  11.906
92677W        W64293  10.633  38.255  11.524
92678W        W64294  16.144   8.705  12.254
92679W        W64295   3.775  13.551  14.023
92680W        W64296  21.643  22.695  14.054
92681W        W64297  30.201  26.110   3.076
92682W        W64298  35.104   6.546  14.837
92683W        W64299  42.515  18.089   3.669
92684W        W64300  12.517  36.481  11.933
92685W        W64301  10.976  42.799   3.201
92686W        W64302  42.547  14.145  10.491
92687W        W64303  12.898  39.951   3.832
92688W        W64304  22.720  18.510   0.305
92689W        W64305  23.188   8.707  14.918
92690W        W64306   7.714  25.616   4.565
92691W        W64307   3.877   1.236  13.487
92692W        W64308  12.348  34.918   4.530
92693W        W64309   2.207  26.624   1.007
92694W        W64310  33.902  37.054   3.424
92695W        W64311   1.174  10.727   3.584
92696W        W64312  39.555  42.361  12.024
92697W        W64313  27.998  24.546   1.370
92698W        W64314   7.790   3.787   4.588
92699W        W64315   7.310   6.442  11.736
92700W        W64316   9.837  14.177   0.374
92701W        W64317  12.900   4.476   1.191
92702W        W64318  25.133  12.318   2.618
92703W        W64319  11.051  11.337   0.924
92704W        W64320  41.804  16.220   0.721
92705W        W64321   5.653  41.214   4.423
92706W        W64322   7.428  27.062  10.810
92707W        W64323  43.428  23.598   0.782
92708W        W64324  42.086   1.738  11.224
92709W        W64325  41.092   3.636  14.869
92710W        W64326   8.078  12.185   0.456
92711W        W64327   8.429  18.279   1.736
92712W        W64328  12.602  35.050   1.879
92713W        W64329  14.307  40.848   4.677
92714W        W64330  33.555  23.606  11.997
92715W        W64331  14.385   1.686   0.287
92716W        W64332   3.138  33.986   2.267
92717W        W64333  36.987  11.226  12.104
92718W        W64334   7.666  14.062   0.422
92719W        W64335  39.055  21.651   4.332
92720W        W64336   1.402  24.402  13.955
92721W        W64337  43.922  15.730  11.839
92722W        W64338   0.673   8.735   3.149
92723W        W64339  20.074  18.371   2.787
92724W        W64340  22.955   0.778  10.719
92725W        W64341   6.659   1.397  13.973
92726W        W64342   6.025  12.355  14.461
92727W        W64343  27.317  11.877   1.615
92728W        W64344  12.296  21.738   4.141
92729W        W64345   2.393   4.006   3.273
92730W        W64346  34.837   5.222   2.799
92731W        W64347  17.658  37.868  11.441
92732W        W64348  12.615  22.988  11.049
92733W        W64349  13.629  30.934   4.178
92734W        W64350  33.576  12.080  11.140
92735W        W64351  35.897  12.541   0.084
92736W        W64352  29.658  34.513   0.812
92737W        W64353  41.372  43.483  14.367
92738W        W64354  30.052  22.992   1.550
92739W        W64355  13.341  22.560   2.629
92740W        W64356  43.343  39.399   4.198
92741W        W64357   7.350  18.928  13.343
92742W        W64358   6.392  43.851  11.969
92743W        W64359  24.726   3.971   1.648
92744W        W64360  18.586  34.448  14.756
92745W        W64361   1.892   4.983  14.051
92746W        W64362  39.097  24.117   0.242
92747W        W64363  27.541  21.172   0.462
92748W        W64364  41.498  13.025  14.473
92749W        W64365   6.456  36.422  13.635
92750W        W64366   2.034  20.675   3.793
92751W        W64367  27.256   6.024  10.666
92752W        W64368  41.801   0.840   3.082
92753W        W64369  18.166  24.639  11.895
92754W        W64370  44.499  16.210  14.791
92755W        W64371  20.170  22.277  14.093
92756W        W64372   0.936  18.191   4.567
92757W        W64373  19.713   4.663   4.292
92758W        W64374  38.438  32.440   1.696
92759W        W64375  29.001   7.959  12.902
92760W        W64376  29.740  31.503  12.877
92761W        W64377  19.489  20.993   0.715
92762W        W64378  21.304   9.060   3.963
92763W        W64379  27.368  19.047  13.073
92764W        W64380   3.330  25.412   4.598
92765W        W64381  26.052  30.934  12.437
92766W        W64382  17.824  44.049   9.692
92767W        W64383  19.518   0.032  12.775
92768W        W64384   9.618   4.878   1.270
92769W        W64385   8.842  22.354  13.917
92770W        W64386   2.070   4.373  12.963
92771W        W64387  26.280  37.429   3.692
92772W        W64388  13.961  10.461   3.195
92773W        W64389   2.822   6.854  12.795
92774W        W64390   6.954  17.208  13.828
92775W        W64391  41.856  18.105   4.390
92776W        W64392   8.730   9.144   1.256
92777W        W64393  30.066  12.561   4.495
92778W        W64394  12.881   3.191  14.401
92779W        W64395  42.741  26.220   2.671
92780W        W64396  28.475  36.168   2.906
92781W        W64397  35.409  19.634   4.805
92782W        W64398  37.810  15.821  14.963
92783W        W64399  35.129  40.595  11.159
92784W        W64400  39.926   8.273   4.108
92785W        W64401  10.211  10.315  12.001
92786W        W64402  44.789   5.213   0.985
92787W        W64403  29.754  35.930  11.574
92788W        W64404  12.520   6.705   4.737
92789W        W64405  22.516  16.066   1.863
92790W        W64406   6.829  23.605   0.721
92791W        W64407  18.383   4.401  13.212
92792W        W64408  42.222  23.105  12.303
92793W        W64409  11.761  10.843   0.193
92794W        W64410  38.286   0.758   2.270
92795W        W64411  33.688  27.675   3.678
92796W        W64412  37.381  10.722   0.867
92797W        W64413  35.481  39.434  12.485
92798W        W64414  22.469   9.267  12.583
92799W        W64415  39.487  38.536  13.237
92800W        W64416  14.976  21.598  13.377
92801W        W64417  12.036  21.818  13.480
92802W        W64418  42.477  26.667   2.822
92803W        W64419  17.342   6.801  12.461
92804W        W64420  39.470  40.501  10.882
92805W        W64421  29.010  20.087  10.927
92806W        W64422   2.445  29.907   2.314
92807W        W64423  22.603  33.014   4.269
92808W        W64424  16.020  15.227   4.637
92809W        W64425  42.304  32.638   4.189
92810W        W64426  24.421  23.154   3.645
92811W        W64427   9.215  10.145   0.698
92812W        W64428  16.304  42.281   1.723
92813W        W64429  34.688   1.190  11.794
92814W        W64430   9.000  22.784  12.559
92815W        W64431  10.349   8.808  14.024
92816W        W64432  24.463  21.648  14.836
92817W        W64433  39.460  25.728   3.386
92818W        W64434  26.015  20.718  13.557
92819W        W64435   8.239   5.824   1.774
92820W        W64436  44.005  28.683  11.129
92821W        W64437  31.113  42.777  11.955
92822W        W64438   2.751  26.658   1.807
92823W        W64439  16.064   2.332  13.122
92824W        W64440   9.918  26.221  14.476
92825W        W64441  23.177  14.213   5.070
92826W        W64442  11.683  20.811   0.303
92827W        W64443   8.179  30.911   3.469
92828W        W64444  43.889   5.885  14.057
92829W        W64445  21.043  26.428   4.166
92830W        W64446   7.283   5.999   0.869
92831W        W64447  35.488  37.044  14.993
92832W        W64448  27.156  26.582   0.711
92833W        W64449  42.538  35.313  11.666
92834W        W64450  36.272  44.300  12.842
92835W        W64451   7.906  39.725   3.284
92836W        W64452  15.056  17.277   0.784
92837W        W64453  28.979  38.408   3.200
92838W        W64454  38.083  20.171   2.216
92839W        W64455  35.323  19.702  11.432
92840W        W64456  29.400  42.052   3.282
92841W        W64457  41.171  36.197  13.801
92842W        W64458   1.483  39.970  14.033
92843W        W64459   8.284  25.250   0.459
92844W        W64460  11.767  28.534  14.355
92845W        W64461  21.111  40.299  10.594
92846W        W64462  18.902   8.850   5.047
92847W        W64463  21.507  23.959  12.472
92848W        W64464  14.558   1.817  14.007
92849W        W64465  43.656  41.511   1.414
92850W        W64466  43.960  42.972  14.090
92851W        W64467  18.579  19.817   1.014
92852W        W64468  21.160  21.078  12.871
92853W        W64469  18.264  40.707  11.496
92854W        W64470  35.306  19.502  12.442
92855W        W64471  33.985  42.470  14.657
92856W        W64472  16.254  12.891  13.746
92857W        W64473  24.947  33.619  10.721
92858W        W64474  13.074  21.680   2.730
92859W        W64475  19.974  30.413  13.980
92860W        W64476  25.179  26.007  13.070
92861W        W64477  11.695   0.359   1.948
92862W        W64478   7.934   8.399  10.762
92863W        W64479   1.316  30.860   3.238
92864W        W64480  34.554  28.822   2.246
92865W        W64481  30.219  43.058   2.256
92866W        W64482  42.991  28.548  12.884
92867W        W64483  38.050  28.980  12.677
92868W        W64484  23.091  35.280   3.256
92869W        W64485  12.112   3.239  11.712
92870W        W64486  37.285  32.412   0.760
92871W        W64487   0.291  32.376  10.775
92872W        W64488  30.906  33.630   4.211
92873W        W64489  39.115  40.220  11.126
92874W        W64490  34.428  30.625   1.460
92875W        W64491  31.010  22.305   1.199
92876W        W64492  42.749   8.916  11.698
92877W        W64493  20.757  33.527   3.320
92878W        W64494  18.804  24.406  11.454
92879W        W64495  28.164  36.994  14.283
92880W        W64496  23.255  21.711  14.250
92881W        W64497  31.908  18.400  14.817
92882W        W64498  18.750  13.670  12.043
92883W        W64499  37.095  22.092  11.150
92884W        W64500  25.945  16.030   5.380
92885W        W64501  40.495  12.653  13.812
92886W        W64502  41.471   1.722   3.030
92887W        W64503  42.598  15.862  11.164
92888W        W64504   3.912   4.427   0.135
92889W        W64505  14.100  22.117  13.967
92890W        W64506   1.795  32.854   0.527
92891W        W64507  28.397  29.573  12.508
92892W        W64508   7.032  35.517  13.887
92893W        W64509   7.409  39.074   3.881
92894W        W64510  17.516  10.613  10.473
92895W        W64511   4.179  35.477   1.794
92896W        W64512   2.874  25.360   1.246
92897W        W64513  13.404  11.835  12.974
92898W        W64514  37.151  42.286   1.699
92899W        W64515  27.897  29.189   0.407
92900W        W64516   9.626  39.592  14.447
92901W        W64517   5.165   5.323  14.998
92902W        W64518  43.772  10.079   1.362
92903W        W64519  30.517  33.475  14.902
92904W        W64520  18.621  33.605  11.159
92905W        W64521  13.210  44.258  11.727
92906W        W64522  29.132  15.839  10.611
92907W        W64523  14.530  25.830  13.904
92908W        W64524  10.930  11.307   2.637
92909W        W64525  35.638  33.544   3.191
92910W        W64526  37.053   3.926   2.234
92911W        W64527  14.103  36.650  11.162
92912W        W64528  33.949  41.008  13.839
92913W        W64529  13.483  44.816   2.652
92914W        W64530  39.455  31.609  13.677
92915W        W64531  10.373  35.371  11.942
92916W        W64532  34.049  24.550  11.841
92917W        W64533  43.595  14.318  13.310
92918W        W64534  40.750  42.299   0.915
92919W        W64535  14.281  29.114   2.308
92920W        W64536  21.275  43.583  14.477
92921W        W64537  30.405  29.683   4.963
92922W        W64538  10.137  25.655   1.744
92923W        W64539  16.934   0.821  10.650
92924W        W64540  39.314   8.478  11.181
92925W        W64541  16.249  42.014  13.071
92926W        W64542  18.310  38.908  14.860
92927W        W64543  44.141  19.089  14.274
92928W        W64544   0.342   4.352  10.642
92929W        W64545   6.522  13.181  14.311
92930W        W64546  18.038   9.106   0.469
92931W        W64547  28.093  20.511   4.242
92932W        W64548  23.704   9.220   4.286
92933W        W64549   3.614  23.618  13.805
92934W        W64550  25.543   1.200  11.956
92935W        W64551  21.147  32.695  14.273
92936W        W64552  11.410  18.521  13.943
92937W        W64553   6.397  36.028  14.922
92938W        W64554  43.739  12.497  13.432
92939W        W64555  14.682  36.765   1.262
92940W        W64556   9.801  31.909   2.717
92941W        W64557  35.412   3.402  11.199
92942W        W64558  28.003   1.958   4.607
92943W        W64559   6.375  24.699  11.967
92944W        W64560  19.424   8.132  14.446
92945W        W64561   1.519  22.539  11.909
92946W        W64562  21.204  28.156  11.675
92947W        W64563  29.697  38.202   0.208
92948W        W64564   1.102   4.395   2.310
92949W        W64565  39.467  21.123  10.811
92950W        W64566  12.353   5.714  10.560
92951W        W64567  21.631  25.399   3.692
92952W        W64568   9.177  34.655   4.591
92953W        W64569  32.179  26.601  11.084
92954W        W64570  11.675  16.440   0.039
92955W        W64571  26.507  31.007  13.291
92956W        W64572  33.647  33.470   1.722
92957W        W64573  29.695  10.789  12.388
92958W        W64574  16.094   8.338   1.669
92959W        W64575   2.864   2.991  13.845
92960W        W64576   5.179  25.747  12.390
92961W        W64577   5.751  42.517   2.435
92962W        W64578  23.091  39.230   2.395
92963W        W64579   8.956  13.718   0.557
92964W        W64580  20.556  21.624   0.244
92965W        W64581  28.843   6.548   2.214
92966W        W64582  18.716  20.667  11.320
92967W        W64583   7.334  23.984   4.820
92968W        W64584  22.124  43.420  12.553
92969W        W64585  24.048   1.118   2.631
92970W        W64586   3.894  36.941  13.885
92971W        W64587  21.568  36.891   0.289
92972W        W64588  17.372   5.399  14.846
92973W        W64589  32.255   1.511   3.171
92974W        W64590  26.487  13.085   5.037
92975W        W64591  31.401  26.631  14.011
92976W        W64592   9.906   1.454   3.693
92977W        W64593   3.946  41.412  12.564
92978W        W64594  28.228  13.994  11.408
92979W        W64595  14.752  19.790  12.380
92980W        W64596  40.124  31.759  13.523
92981W        W64597  43.900  13.796  10.654
92982W        W64598  29.087   4.454   3.687
92983W        W64599  43.070  32.747  12.470
92984W        W64600  24.452  23.826  13.439
92985W        W64601   2.920   4.254   4.617
92986W        W64602  29.656  12.766   2.423
92987W        W64603   3.865  21.043  11.159
92988W        W64604  37.811  10.747   3.199
92989W        W64605  23.342  14.475  13.858
92990W        W64606  25.585  25.336  14.057
92991W        W64607  39.983  36.267   2.403
92992W        W64608  39.435  44.365  14.846
92993W        W64609   5.761  15.111  12.531
92994W        W64610   1.517  35.003  12.107
92995W        W64611   3.271  12.464   0.337
92996W        W64612  40.325  18.229  11.125
92997W        W64613   1.950   7.232  10.818
92998W        W64614  10.786  42.568   4.229
92999W        W64615  17.825  27.393   2.729
93000W        W64616  16.214  25.187   4.169
93001W        W64617  32.465  30.173   4.625
93002W        W64618   0.730  31.062  13.009
93003W        W64619   8.971   6.586   0.482
93004W        W64620   7.646  25.738  14.057
93005W        W64621  11.918   5.980  10.362
93006W        W64622  23.458   8.720  13.058
93007W        W64623  31.258  31.399   0.398
93008W        W64624  12.268  23.046   4.554
93009W        W64625  11.166  30.119  13.601
93010W        W64626  28.598  40.918   3.298
93011W        W64627  35.610   9.173   1.364
93012W        W64628  18.488  25.296   4.049
93013W        W64629  25.179  32.005   0.241
93014W        W64630  26.758  32.216  13.730
93015W        W64631  44.976  30.616  14.992
93016W        W64632  36.832  24.208   4.070
93017W        W64633  18.511  36.017   0.446
93018W        W64634   8.882  23.222   3.267
93019W        W64635  13.301  29.746  13.121
93020W        W64636  39.056  30.136   1.385
93021W        W64637  36.087  11.405  14.357
93022W        W64638   1.424  14.597   0.416
93023W        W64639  37.468   1.813  13.725
93024W        W64640  27.226  40.014   2.859
93025W        W64641  42.308  41.028  12.636
93026W        W64642   1.841  10.510  11.279
93027W        W64643   6.365  43.292   1.423
93028W        W64644  21.027  11.616  13.717
93029W        W64645   3.487  10.494  10.760
93030W        W64646  39.075  13.724  12.020
93031W        W64647  10.151  39.961   1.076
93032W        W64648  19.009  13.674  14.307
93033W        W64649  10.152  36.698  12.363
93034W        W64650  39.831  27.205  12.424
93035W        W64651  20.624  41.265   3.781
93036W        W64652   4.457  15.992  13.509
93037W        W64653  27.604  18.834   3.386
93038W        W64654  12.415  20.214   0.287
93039W        W64655  12.805  28.653  10.818
93040W        W64656  17.576   7.704   2.646
93041W        W64657  17.304  30.146  14.391
93042W        W64658  43.714  43.558   1.938
93043W        W64659  44.154  39.463  11.183
93044W        W64660   4.911  19.997  13.835
93045W        W64661  19.964  37.395   3.781
93046W        W64662  10.202  22.800  11.148
93047W        W64663  27.786   7.865  13.517
93048W        W64664  20.649  31.978   3.219
93049W        W64665  23.933  21.199   0.335
93050W        W64666  40.397  27.064   2.652
93051W        W64667   0.989   9.284   2.322
93052W        W64668  33.442  44.312   3.745
93053W        W64669   0.408  20.187   2.769
93054W        W64670  36.801  18.611  13.840
93055W        W64671  38.430  33.576   4.549
93056W        W64672   6.265  17.148   1.787
93057W        W64673  35.169  43.117  10.523
93058W        W64674  19.743   7.548   2.232
93059W        W64675  26.348  11.045   1.361
93060W        W64676  20.808  15.340   0.275
93061W        W64677   8.323   5.631   3.236
93062W        W64678  15.379  30.524   1.751
93063W        W64679  22.831  29.094  13.290
93064W        W64680   0.785  11.211   2.364
93065W        W64681  20.225   8.986   0.162
93066W        W64682  25.498  32.726  10.841
93067W        W64683  26.902  36.296   2.750
93068W        W64684  23.551  14.158  10.697
93069W        W64685  11.895  42.007   4.621
93070W        W64686  25.524  39.798  12.027
93071W        W64687  11.128   4.183   1.819
93072W        W64688  43.408  21.760  11.913
93073W        W64689  40.246  31.496   0.226
93074W        W64690   6.481  25.132   1.740
93075W        W64691  16.133   9.446  14.279
93076W        W64692  15.756  44.693   2.131
93077W        W64693  33.338  21.603   0.895
93078W        W64694  10.682  11.058  14.306
93079W        W64695   9.322  35.595   4.626
93080W        W64696  40.363  18.647   1.850
93081W        W64697   2.690  44.529  12.577
93082W        W64698  34.238  30.466   4.850
93083W        W64699  41.020  10.899   1.947
93084W        W64700   8.403  10.326  12.825
93085W        W64701  13.263   3.916   1.961
93086W        W64702   4.205  17.814   0.432
93087W        W64703   2.201  20.817  13.490
93088W        W64704  19.602  31.036   2.175
93089W        W64705  29.437  35.853  14.250
93090W        W64706  23.476  42.890   2.788
93091W        W64707   4.918  43.043  10.017
93092W        W64708  36.414  15.124   0.447
93093W        W64709  27.648  34.144  13.513
93094W        W64710  38.505  19.768  10.721
93095W        W64711   2.388  10.766  12.503
93096W        W64712  26.986  42.045   2.189
93097W        W64713  23.096   2.752  12.571
93098W        W64714  40.356  38.530   4.678
93099W        W64715  17.833  38.746  14.966
93100W        W64716  21.744  37.927  13.011
93101W        W64717  21.668  19.290   1.928
93102W        W64718  17.332  17.258  13.462
93103W        W64719  26.867  20.802  13.381
93104W        W64720  23.288   0.440   0.778
93105W        W64721  43.290  32.635   1.459
93106W        W64722  12.723  31.429   1.796
93107W        W64723  21.687  27.724   4.148
93108W        W64724   7.648   4.088  14.939
93109W        W64725  20.989  28.130   4.145
93110W        W64726  30.167  15.339   0.362
93111W        W64727   6.205  30.260  13.172
93112W        W64728  20.845  18.219   3.198
93113W        W64729  22.035  21.694   1.775
93114W        W64730   9.329  41.884  10.678
93115W        W64731  24.249  34.380   2.757
93116W        W64732   6.311   9.479   3.988
93117W        W64733  37.828  26.620  13.460
93118W        W64734  33.570  34.140   4.972
93119W        W64735  11.979  37.160  11.368
93120W        W64736  15.691  41.039   3.045
93121W        W64737  11.298  41.417   1.931
93122W        W64738  32.458  39.062   3.187
93123W        W64739   1.809  40.299   3.804
93124W        W64740  20.713  28.594   1.785
93125W        W64741  29.916  37.089  14.807
93126W        W64742   3.283  32.851   4.307
93127W        W64743   8.759   0.989   0.397
93128W        W64744   5.648  31.388   3.897
93129W        W64745  17.771   4.219  11.566
93130W        W64746  41.415  12.828  13.349
93131W        W64747  30.976  20.531  13.895
93132W        W64748   6.948   9.889   4.768
93133W        W64749  14.174  37.564   3.605
93134W        W64750  38.833  39.316   4.213
93135W        W64751  28.001  38.058  12.605
93136W        W64752  20.109  15.697  10.231
93137W        W64753  31.436  19.699   3.673
93138W        W64754  13.024   9.121   1.413
93139W        W64755   5.840   4.848  11.085
93140W        W64756  25.405   0.843   2.801
93141W        W64757  44.293  32.414  14.119
93142W        W64758  43.451  34.902   4.462
93143W        W64759   8.676  10.299  14.897
93144W        W64760   3.918  26.044  14.408
93145W        W64761  29.512   0.969   1.800
93146W        W64762  44.765  35.930   1.828
93147W        W64763  20.525  14.663   1.777
93148W        W64764  21.266  36.295  13.272
93149W        W64765   1.204   2.421  14.492
93150W        W64766  34.915   2.333   0.996
93151W        W64767  25.476  33.575   0.198
93152W        W64768  33.495  44.564  10.840
93153W        W64769   7.405   3.371  11.108
93154W        W64770  18.994   8.124   4.123
93155W        W64771   2.256  29.045   3.167
93156W        W64772  16.679   9.834  13.380
93157W        W64773  31.333  31.071   1.789
93158W        W64774   9.275  24.289  10.677
93159W        W64775   2.325   1.381   1.708
93160W        W64776  27.091  34.870  14.085
93161W        W64777  20.264   5.294   4.683
93162W        W64778  33.437  10.200   5.020
93163W        W64779  35.532   7.881  13.476
93164W        W64780   2.699  26.670  11.527
93165W        W64781  12.903  11.670   4.726
93166W        W64782  12.729   0.363   1.192
93167W        W64783  13.210  20.790   4.329
93168W        W64784  29.892  35.617  14.266
93169W        W64785  38.420  17.104   3.638
93170W        W64786  17.242   2.072   3.741
93171W        W64787  23.213   4.333  12.298
93172W        W64788  23.095  42.301   3.162
93173W        W64789  23.028  38.569  14.918
93174W        W64790  35.482   4.676   3.150
93175W        W64791  20.710   4.778   0.057
93176W        W64792  13.791  10.406  13.920
93177W        W64793   7.925   5.377  13.086
93178W        W64794  17.528  42.545   2.893
93179W        W64795  41.029   0.430  11.578
93180W        W64796  33.543  27.620  14.872
93181W        W64797  23.513  43.977   0.044
93182W        W64798   8.157  25.594  12.848
93183W        W64799  13.213  14.904   3.151
93184W        W64800  42.024  22.652   3.343
93185W        W64801  27.935  24.528  12.526
93186W        W64802  18.095  13.360   0.439
93187W        W64803  27.746  19.560  11.972
93188W        W64804  13.238  35.409  11.447
93189W        W64805  26.983  21.228  13.939
93190W        W64806  10.378   9.682  11.605
93191W        W64807  38.089  10.368   9.709
93192W        W64808  44.990  21.078  12.688
93193W        W64809  43.538  20.256  12.789
93194W        W64810  20.538  10.654   2.692
93195W        W64811   3.237  16.230   0.222
93196W        W64812  35.517  19.548  10.569
93197W        W64813  16.521  25.553  13.947
93198W        W64814  34.532  31.517   0.179
93199W        W64815   5.863  24.182  13.512
93200W        W64816  39.337  16.563   1.834
93201W        W64817  38.796   9.335  12.596
93202W        W64818  31.499   0.830   4.642
93203W        W64819  20.264  39.560  14.105
93204W        W64820  14.735   3.811   3.187
93205W        W64821  33.472  30.152  11.957
93206W        W64822   1.072  42.855   3.942
93207W        W64823  16.018  32.854   1.866
93208W        W64824  19.651  17.399  14.544
93209W        W64825  39.290  38.036   0.875
93210W        W64826  18.376  20.524  12.504
93211W        W64827   9.568   2.887  14.917
93212W        W64828  43.498   3.752  10.487
93213W        W64829   5.902  41.830  14.376
93214W        W64830  42.844   7.299  11.088
93215W        W64831  33.734  22.745  10.293
93216W        W64832  37.830  29.803  12.988
93217W        W64833  27.053   4.580  12.099
93218W        W64834  16.758   4.904   0.208
93219W        W64835  37.292  20.357   0.047
93220W        W64836  34.888  35.111  11.090
93221W        W64837  18.288  14.261   0.168
93222W        W64838   5.531   9.505  13.251
93223W        W64839  17.680  11.115   2.121
93224W        W64840  20.215  22.949   3.421
93225W        W64841  15.005  39.285  12.924
93226W        W64842  21.138   3.092  13.769
93227W        W64843  40.954  37.861  13.252
93228W        W64844   3.205   8.864   3.661
93229W        W64845  39.634   2.965  12.902
93230W        W64846  42.795  39.340   3.012
93231W        W64847  34.124  18.278  12.826
93232W        W64848  44.264  15.626   4.063
93233W        W64849  20.212  15.498  13.615
93234W        W64850  31.724  23.087  10.926
93235W        W64851  15.652  43.849  14.456
93236W        W64852  40.829  26.210   2.384
93237W        W64853  16.666  14.914  11.913
93238W        W64854  30.291  15.696   3.193
93239W        W64855  14.666  22.806   5.236
93240W        W64856  30.089  24.388  14.815
93241W        W64857  32.868  41.932  14.195
93242W        W64858   3.828  30.407  13.245
93243W        W64859  33.417  16.977   3.668
93244W        W64860  25.963  43.870  14.497
93245W        W64861  18.556   2.323  11.539
93246W        W64862   1.157   0.485  14.530
93247W        W64863  12.711  44.209  11.845
93248W        W64864  35.107  22.073   3.638
93249W        W64865  25.563  27.270  10.362
93250W        W64866  40.615  25.266  13.739
93251W        W64867  13.334  35.476  12.832
93252W        W64868  10.800   8.383  13.478
93253W        W64869  31.987  31.863   3.755
93254W        W64870  16.457  36.674   0.796
93255W        W64871  18.554  33.503   1.897
93256W        W64872   0.543  15.635   1.505
93257W        W64873   4.014  15.729   4.642
93258W        W64874  12.044  39.251   2.349
93259W        W64875   4.744   9.654  14.839
93260W        W64876  15.005   9.883   0.265
93261W        W64877  41.685  29.186  10.677
93262W        W64878  26.137  43.455   4.644
93263W        W64879  38.315  18.065  11.721
93264W        W64880  40.958  44.312   4.568
93265W        W64881  14.291  21.118   4.768
93266W        W64882   8.117  40.368   1.640
93267W        W64883  43.869  39.477  11.629
93268W        W64884  30.498  28.978   1.177
93269W        W64885  21.535  38.368   4.553
93270W        W64886  16.511   8.440   0.436
93271W        W64887   6.364  10.921   1.357
93272W        W64888  17.762  35.473   4.931
93273W        W64889   1.638  20.487   0.380
93274W        W64890  27.491  25.977  12.391
93275W        W64891  35.186  16.808   0.802
93276W        W64892   4.710  11.410  14.395
93277W        W64893  10.067   0.514   0.315
93278W        W64894  22.291  38.871  14.357
93279W        W64895  29.903  42.901   4.109
93280W        W64896  23.035  27.679  11.544
93281W        W64897   4.830  17.579   4.534
93282W        W64898  10.927  34.716  13.425
93283W        W64899  43.277  18.740   3.230
93284W        W64900   2.324  34.608   3.221
93285W        W64901  25.464   6.782   2.269
93286W        W64902  30.120  20.457  13.926
93287W        W64903  31.280  43.409  13.689
93288W        W64904   1.937  31.468  13.875
93289W        W64905  12.758  32.632   3.218
93290W        W64906  40.888   7.338  11.055
93291W        W64907  12.221  19.539  11.855
93292W        W64908  12.370  17.655  12.546
93293W        W64909  10.855   1.898  12.098
93294W        W64910   6.147   5.865   1.375
93295W        W64911  33.389  14.111  11.523
93296W        W64912  40.033  43.562   1.726
93297W        W64913  15.013  34.151  14.513
93298W        W64914  11.970   1.292  11.566
93299W        W64915  19.300  40.411  12.378
93300W        W64916   8.741  11.189  14.315
93301W        W64917  30.663  43.771  13.074
93302W        W64918  22.486  23.513   0.241
93303W        W64919  23.132   4.936   1.982
93304W        W64920  38.149   3.937   4.061
93305W        W64921  18.880  17.715  10.955
93306W        W64922  39.996  20.462   2.473
93307W        W64923   0.617  42.978   0.823
93308W        W64924   6.678   8.011   4.353
93309W        W64925  12.641   7.664   2.011
93310W        W64926   1.383   5.826   1.951
93311W        W64927  43.269  44.008  13.447
93312W        W64928  19.783  13.292  14.113
93313W        W64929   8.826   2.479   2.191
93314W        W64930  11.147  20.486  13.328
93315W        W64931  44.451  44.523  12.097
93316W        W64932  11.611  13.800  14.302
93317W        W64933  19.221   9.901  10.651
93318W        W64934  15.217  37.954  14.399
93319W        W64935  33.049   5.760  13.303
93320W        W64936  44.999  17.294  11.862
93321W        W64937   5.240  14.490  12.004
93322W        W64938  33.044   4.038  12.892
93323W        W64939  32.679  15.894  13.760
93324W        W64940  31.467  24.134   4.495
93325W        W64941  40.905  38.588  11.531
93326W        W64942  24.657  31.529  11.798
93327W        W64943  38.131  33.678  12.479
93328W        W64944  43.419  37.688  10.364
93329W        W64945  19.129  22.558  11.258
93330W        W64946  12.783   5.948  12.868
93331W        W64947  13.007  11.608   5.208
93332W        W64948   9.845  39.132   1.377
93333W        W64949  22.288  29.118  11.544
93334W        W64950  30.076   3.709  14.286
93335W        W64951  32.920  42.789  13.572
93336W        W64952  40.408   7.695   2.199
93337W        W64953  38.514  11.570   2.820
93338W        W64954  15.824   8.645   3.365
93339W        W64955  38.622  20.524   0.119
93340W        W64956  20.574  42.039   1.510
93341W        W64957   8.948  27.485   2.311
93342W        W64958  19.569  34.492  12.407
93343W        W64959  35.078  33.579   0.941
93344W        W64960  44.312  38.810   4.621
93345W        W64961  31.672  15.857   0.859
93346W        W64962  17.794  17.353   0.572
93347W        W64963  18.234  21.056  13.408
93348W        W64964  28.019   1.178  13.292
93349W        W64965   7.437  21.761   2.315
93350W        W64966  18.224  11.689  12.529
93351W        W64967  32.870  34.821   2.710
93352W        W64968   1.523  42.419   3.161
93353W        W64969  25.612   0.681   4.672
93354W        W64970  18.752  23.505  10.045
93355W        W64971  44.596   6.437  12.869
93356W        W64972   2.379  11.661   2.794
93357W        W64973   4.603  36.788  12.988
93358W        W64974  34.971  40.954   0.426
93359W        W64975  39.962  12.715   0.894
93360W        W64976  32.278  25.182  11.066
93361W        W64977  40.409   4.964  14.477
93362W        W64978  43.647  34.600  12.198
93363W        W64979  41.937  31.554   2.261
93364W        W64980  18.747  21.159   1.840
93365W        W64981  23.010  40.675  12.894
93366W        W64982  31.604  44.216   1.313
93367W        W64983  29.815  15.236  12.702
93368W        W64984  39.600  16.389   4.551
93369W        W64985  43.495  14.623   2.691
93370W        W64986   2.601   4.496   3.336
93371W        W64987  10.921  44.483   3.231
93372W        W64988   5.277  35.079   3.211
93373W        W64989   8.892  41.256  12.945
93374W        W64990  38.915  28.919   3.539
93375W        W64991  11.882   1.904   4.196
93376W        W64992  12.583  44.600   4.193
93377W        W64993   5.902  28.426   1.918
93378W        W64994  37.579  12.735   1.828
93379W        W64995   5.168  26.717  12.777
93380W        W64996  40.462  37.787   1.336
93381W        W64997  33.016  30.965   4.738
93382W        W64998  38.029  12.531   1.952
93383W        W64999  30.178   6.001  10.793
93384W        W65000  17.752   5.741   1.287
93385W        W65001   3.581  24.111   1.430
93386W        W65002  17.199  12.067   0.861
93387W        W65003  19.519  34.574  14.329
93388W        W65004  31.607  30.631   1.855
93389W        W65005  27.648  36.918   0.027
93390W        W65006  41.812   5.246   2.500
93391W        W65007  30.844  36.004   1.814
93392W        W65008   3.470  28.284   0.450
93393W        W65009  29.881  17.633  11.094
93394W        W65010  34.881   6.330  12.449
93395W        W65011  20.572  26.896  10.880
93396W        W65012  32.016  25.683  11.726
93397W        W65013  21.003  16.590   1.184
93398W        W65014   6.627  20.546  13.359
93399W        W65015  42.352  27.486   0.015
93400W        W65016   7.953  23.343   1.787
93401W        W65017  38.287  23.152   3.223
93402W        W65018  23.573  37.325  11.168
93403W        W65019  38.986  44.979   1.232
93404W        W65020  40.852  13.406  11.595
93405W        W65021  24.743  10.422  11.479
93406W        W65022  19.729  23.489   4.031
93407W        W65023  39.030   2.203  12.067
93408W        W65024  22.967  28.550   3.672
93409W        W65025   9.252  37.465  13.254
93410W        W65026   0.271   4.800  12.417
93411W        W65027  22.613  18.165   0.861
93412W        W65028  32.432   4.359  12.816
93413W        W65029  14.283  29.981   1.135
93414W        W65030  37.938  31.663  14.419
93415W        W65031  20.549   7.950   1.217
93416W        W65032  27.527  39.994  14.314
93417W        W65033  30.819  14.545   2.333
93418W        W65034   7.210  11.361  14.021
93419W        W65035  25.940  30.487   3.309
93420W        W65036  35.184  18.808   0.931
93421W        W65037  43.784  31.613  13.162
93422W        W65038  31.115   6.884  12.871
93423W        W65039  32.739  33.224  11.120
93424W        W65040  18.221  25.532  10.673
93425W        W65041  44.909   9.471  14.726
93426W        W65042   6.921  33.772  10.662
93427W        W65043  30.510  17.148  10.725
93428W        W65044  39.563  13.077  12.419
93429W        W65045   6.008  10.557   2.749
93430W        W65046  30.173  35.018  12.032
93431W        W65047   2.811   0.982  12.032
93432W        W65048  44.130  28.052   3.683
93433W        W65049  13.480  38.935   0.343
93434W        W65050  17.445  10.039  12.515
93435W        W65051  10.175  35.999  11.642
93436W        W65052  24.882  29.052   0.326
93437W        W65053  11.783  30.144  14.917
93438W        W65054  25.920  32.419  13.818
93439W        W65055  38.332  16.717   2.312
93440W        W65056  32.560   8.117  13.503
93441W        W65057  36.448   6.344   1.266
93442W        W65058  11.212  24.002   2.860
93443W        W65059   0.941  16.528   4.228
93444W        W65060  36.077  21.644   0.041
93445W        W65061  39.945  19.230   0.415
93446W        W65062   6.806  38.726   3.785
93447W        W65063   0.968  27.979   1.531
93448W        W65064  19.543  20.287  11.166
93449W        W65065   2.478  14.239   3.389
93450W        W65066  36.812  11.554  13.571
93451W        W65067  40.877  25.732   2.190
93452W        W65068   0.932  12.599  12.901
93453W        W65069  11.328  15.534   0.430
93454W        W65070  12.042   4.938  11.991
93455W        W65071   1.899  19.834  14.912
93456W        W65072  43.186   7.906  11.607
93457W        W65073  35.420  28.426   1.278
93458W        W65074   5.690  43.330  14.329
93459W        W65075  41.558  41.709   2.763
93460W        W65076  32.000  30.400   4.633
93461W        W65077   4.162   7.583   2.649
93462W        W65078  36.532  25.439  12.899
93463W        W65079  36.380   3.028   2.486
93464W        W65080   7.383  33.470  12.596
93465W        W65081  10.675  44.064  14.422
93466W        W65082  17.636  39.757   3.387
93467W        W65083  12.778  39.442  10.512
93468W        W65084  15.730  11.461   4.536
93469W        W65085  34.837  16.228  11.272
93470W        W65086  12.348  44.491   2.176
93471W        W65087  44.283  13.141  13.279
93472W        W65088  25.053  15.294  14.699
93473W        W65089  44.352  38.333  12.802
93474W        W65090   3.500  21.588   0.343
93475W        W65091  17.617   1.976   4.118
93476W        W65092   1.434  30.368  14.823
93477W        W65093  23.922  32.071   2.357
93478W        W65094   7.829   9.166  12.403
93479W        W65095  26.938   8.306   4.829
93480W        W65096  40.836   8.634  12.636
93481W        W65097   8.147   4.107   0.060
93482W        W65098  36.909   4.180  12.450
93483W        W65099   4.753   3.943   1.846
93484W        W65100  40.084  29.506  14.416
93485W        W65101  14.815   3.301  13.586
93486W        W65102  35.838  10.232  12.968
93487W        W65103  10.890  37.337  11.199
93488W        W65104  37.994  26.213   4.604
93489W        W65105  28.915  34.878   2.123
93490W        W65106  20.045  31.794   0.414
93491W        W65107  21.212  20.254   2.772
93492W        W65108  43.036  10.600  12.932
93493W        W65109  27.103  25.389   2.690
93494W        W65110  26.992  30.913  13.165
93495W        W65111  11.311  44.854  12.469
93496W        W65112  20.628  34.754   2.158
93497W        W65113  37.920  25.150  11.375
93498W        W65114  13.008  23.959   2.017
93499W        W65115  41.190  10.267  13.180
93500W        W65116   0.396   7.343   2.718
93501W        W65117  12.869  44.924   2.706
93502W        W65118  13.062  40.249  11.585
93503W        W65119  44.068   6.000   0.914
93504W        W65120   5.347  43.824   1.819
93505W        W65121  27.011  30.641   4.161
93506W        W65122   5.210  43.515  13.393
93507W        W65123  42.979  33.551  13.040
93508W        W65124   8.163  11.165  13.555
93509W        W65125  13.304  17.297  10.588
93510W        W65126  19.638  41.276   0.776
93511W        W65127  41.976  44.440  14.924
93512W        W65128  28.688  17.104   4.109
93513W        W65129   1.189   1.774  12.531
93514W        W65130  18.153  31.741   2.661
93515W        W65131  30.016  14.044   4.558
93516W        W65132   4.740  19.611  11.584
93517W        W65133  30.126  28.149   2.725
93518W        W65134  40.252  11.771  10.393
93519W        W65135   0.542  26.085  14.385
93520W        W65136  35.248  12.574  11.381
93521W        W65137  41.211  31.963   1.662
93522W        W65138  27.559  21.084  14.003
93523W        W65139  28.104  37.096   1.437
93524W        W65140  39.455   6.359   2.366
93525W        W65141  13.211  14.563   3.540
93526W        W65142  12.815  28.322  14.912
93527W        W65143  17.287   9.335  14.970
93528W        W65144   8.121  33.525  11.988
93529W        W65145   4.200  14.596  12.135
93530W        W65146   6.438  25.653   1.546
93531W        W65147  42.715  11.969  11.186
93532W        W65148  33.573  28.663   1.384
93533W        W65149  15.592  23.160   4.244
93534W        W65150   1.624  44.272   0.789
93535W        W65151  34.161   7.892  11.562
93536W        W65152  11.699   3.616   1.462
93537W        W65153  31.408  20.544  10.786
93538W        W65154  23.871  10.240  12.510
93539W        W65155  27.245   4.357   0.432
93540W        W65156  36.081  25.908  13.446
93541W        W65157  18.616   1.791   3.132
93542W        W65158   8.981  25.039   4.376
93543W        W65159  27.135  23.068  11.319
93544W        W65160  19.268  15.308  10.455
93545W        W65161  23.721  40.557   2.763
93546W        W65162  18.357  14.735   4.815
93547W        W65163  24.129   8.671  14.873
93548W        W65164  11.562  23.749  14.934
93549W        W65165  35.663  43.123   2.846
93550W        W65166  11.505  38.094   9.963
93551W        W65167   0.541  44.019   1.695
93552W        W65168  28.296   0.633   4.000
93553W        W65169  37.654  41.115   1.776
93554W        W65170  25.160  21.665  10.740
93555W        W65171  25.470  11.687  13.363
93556W        W65172  20.662  11.387  14.417
93557W        W65173  16.687  17.098   3.310
93558W        W65174  12.391  15.321  11.592
93559W        W65175   3.846  26.854   2.147
93560W        W65176   8.762   4.365  13.958
93561W        W65177  22.229  31.471  14.897
93562W        W65178  42.837  29.116   4.309
93563W        W65179  21.724   6.873  11.044
93564W        W65180  40.587  39.967  12.472
93565W        W65181   4.196  12.138   0.481
93566W        W65182  37.822  40.142  12.139
93567W        W65183  19.940   1.253  12.037
93568W        W65184  36.641   1.870   0.474
93569W        W65185  43.432  33.102  13.453
93570W        W65186  12.825  40.204   0.877
93571W        W65187  35.855  33.909  11.166
93572W        W65188  27.185  23.105  13.490
93573W        W65189  42.999   4.519  14.789
93574W        W65190   2.611  39.874  11.016
93575W        W65191  35.969  34.121   1.380
93576W        W65192   8.949  29.354   1.888
93577W        W65193   2.259   2.922   3.148
93578W        W65194  15.558  14.207   1.244
93579W        W65195  36.737   0.838   3.154
93580W        W65196  36.008  36.099  12.967
93581W        W65197  17.102  20.834   4.435
93582W        W65198  43.207  20.845  12.018
93583W        W65199   7.189  32.850   4.645
93584W        W65200  44.301   4.832   3.317
93585W        W65201  15.812   2.414  14.390
93586W        W65202  20.022  19.996   1.811
93587W        W65203   7.975  17.117   0.310
93588W        W65204  30.392  11.595  11.999
93589W        W65205  28.739  30.916   0.009
93590W        W65206  36.632  26.274  12.628
93591W        W65207  32.420  20.848  11.051
93592W        W65208  19.199  40.115   1.175
93593W        W65209  28.624  26.091  11.905
93594W        W65210   6.109  20.052  14.336
93595W        W65211  10.771  33.117  13.639
93596W        W65212  41.709  15.612   4.162
93597W        W65213  38.130  19.394  10.785
93598W        W65214  17.068   4.960   3.677
93599W        W65215   0.932  18.495   0.741
93600W        W65216  41.987   4.418   4.880
93601W        W65217   7.898   0.648   1.303
93602W        W65218   9.412  22.944  11.695
93603W        W65219  44.852  21.108  11.783
93604W        W65220  40.578   2.859  13.950
93605W        W65221  21.841  24.609   1.839
93606W        W65222  24.110  12.095   0.852
93607W        W65223  43.047   9.146  12.041
93608W        W65224  20.280  40.434   4.646
93609W        W65225  30.475  19.262   4.344
93610W        W65226  38.819   2.315   3.661
93611W        W65227  15.924  24.470  11.109
93612W        W65228  13.808  44.279   4.861
93613W        W65229   2.614  15.634  13.266
93614W        W65230  11.314  44.502  13.095
93615W        W65231   5.267   9.363   2.905
93616W        W65232  10.422  25.547  11.708
93617W        W65233   0.438  32.955  13.323
93618W        W65234   4.444  35.486   3.167
93619W        W65235  29.340  29.947   5.063
93620W        W65236  39.026  11.143   0.215
93621W        W65237  27.023  35.319  14.378
93622W        W65238  10.785  41.623   1.066
93623W        W65239  14.740   1.359   4.077
93624W        W65240   4.747  31.014  13.928
93625W        W65241  25.025   6.428   1.714
93626W        W65242  23.577  27.103   0.088
93627W        W65243  28.586  30.329   0.998
93628W        W65244  15.920   3.151   3.421
93629W        W65245  36.049  10.594   3.270
93630W        W65246  19.090  10.874  14.881
93631W        W65247  30.460  43.390   3.357
93632W        W65248  32.041  39.302  14.500
93633W        W65249  15.777  10.297   4.504
93634W        W65250   2.597  26.729  12.028
93635W        W65251  39.457  30.451   0.046
93636W        W65252  16.349  41.572  14.872
93637W        W65253  34.174  33.462   2.840
93638W        W65254  12.702  23.525   4.324
93639W        W65255  12.976  35.824  13.026
93640W        W65256   3.401  24.388   1.875
93641W        W65257  13.214  33.655   1.534
93642W        W65258  22.494  19.726   3.658
93643W        W65259  14.905  32.042   3.694
93644W        W65260   7.054   3.642   2.291
93645W        W65261   7.639  32.598  10.941
93646W        W65262   0.740  16.296   3.767
93647W        W65263  17.212  29.488  10.026
93648W        W65264  18.077  39.951   3.159
93649W        W65265   2.418  14.248   0.842
93650W        W65266  22.023  30.728  14.253
93651W        W65267  36.029  31.437   0.360
93652W        W65268  12.350  32.415   4.937
93653W        W65269  41.386  44.469   1.860
93654W        W65270   7.045  17.861  11.889
93655W        W65271  15.137  17.693   1.610
93656W        W65272  42.675   6.309   2.451
93657W        W65273   0.476  16.694  11.182
93658W        W65274  13.099  14.118   4.296
93659W        W65275  38.257  27.631  10.592
93660W        W65276  27.642  22.216  12.985
93661W        W65277  25.462   2.809   1.943
93662W        W65278  44.077  21.013   5.080
93663W        W65279  22.923  44.448  12.019
93664W        W65280  34.821  37.046  13.991
93665W        W65281  41.567   3.837  11.854
93666W        W65282  17.888  16.001  13.455
93667W        W65283  12.034   0.533   4.273
93668W        W65284  14.390  15.019  10.889
93669W        W65285  38.057  15.195   1.693
93670W        W65286  35.969   3.916   4.680
93671W        W65287  27.262  28.114   0.050
93672W        W65288  38.509   9.138  13.069
93673W        W65289   5.458  17.109  10.471
93674W        W65290  12.599  21.561  12.070
93675W        W65291   4.364  16.603  11.654
93676W        W65292  17.719  28.134   3.243
93677W        W65293  30.511   8.976  14.191
93678W        W65294  42.173  26.765   5.020
93679W        W65295  30.927  31.094   3.915
93680W        W65296  13.750  25.239   0.813
93681W        W65297  28.601   2.376  12.440
93682W        W65298  29.938  15.963  13.511
93683W        W65299  20.534  11.135   0.310
93684W        W65300  42.509  13.171  12.779
93685W        W65301  21.333  33.523  13.327
93686W        W65302  30.004  10.335   2.185
93687W        W65303  19.597   9.850  12.408
93688W        W65304  22.249   2.252   4.118
93689W        W65305  31.199  26.057   2.782
93690W        W65306   9.069   2.270  14.396
93691W        W65307  13.656  21.252   0.924
93692W        W65308  23.304   3.269   1.760
93693W        W65309  44.869  12.425   0.477
93694W        W65310  34.585  29.631   4.902
93695W        W65311   8.285   2.854   4.591
93696W        W65312  13.244   8.652   0.221
93697W        W65313  27.153  31.429  11.098
93698W        W65314  32.490   5.412   3.711
93699W        W65315   1.554  36.197   0.578
93700W        W65316  38.388  10.334  10.725
93701W        W65317   8.335   0.883  13.441
93702W        W65318  34.393  36.760   1.384
93703W        W65319  37.035   4.402   0.591
93704W        W65320  11.202  26.614  12.483
93705W        W65321  44.494   3.740   3.773
93706W        W65322   0.268  12.256  12.460
93707W        W65323  32.659  35.037  11.856
93708W        W65324  32.886  18.986   1.952
93709W        W65325  10.359   0.348   2.160
93710W        W65326  11.970  42.767   2.332
93711W        W65327  39.875  34.887   3.116
93712W        W65328  18.460  28.186  14.551
93713W        W65329  36.894  20.934   2.659
93714W        W65330  27.151  21.833  12.123
93715W        W65331  40.108   6.357  13.105
93716W        W65332  43.194  10.423  11.646
93717W        W65333  18.793  12.529   1.410
93718W        W65334  22.502   7.637   2.304
93719W        W65335  41.772  26.138   1.203
93720W        W65336  31.884  10.257   4.931
93721W        W65337  17.197  40.724  11.107
93722W        W65338  21.585  16.069  14.763
93723W        W65339  40.331  36.561   0.269
93724W        W65340  25.325  41.883   2.192
93725W        W65341  40.429  32.646  13.831
93726W        W65342   7.269   3.878  11.146
93727W        W65343   9.534  39.225  14.056
93728W        W65344  28.033  22.540  10.910
93729W        W65345  23.440   4.140  11.881
93730W        W65346  33.401  23.521   2.262
93731W        W65347  14.683  22.007   2.823
93732W        W65348   4.894  37.361   4.229
93733W        W65349  21.320  16.682  13.538
93734W        W65350  40.484  21.168   5.048
93735W        W65351  24.633  26.430  11.668
93736W        W65352  32.453   3.193  13.962
93737W        W65353  37.613  36.765   4.181
93738W        W65354   3.902   6.220   3.254
93739W        W65355  18.201  13.825   4.258
93740W        W65356  21.853  24.357   0.471
93741W        W65357  11.771  22.728  10.627
93742W        W65358   1.378  35.670  12.555
93743W        W65359   8.139  13.612   3.500
93744W        W65360  29.122  40.943  13.544
93745W        W65361  21.664   3.213   1.799
93746W        W65362  26.974   5.518  12.893
93747W        W65363  44.000  38.872   2.461
93748W        W65364  41.599  40.986   2.295
93749W        W65365  17.691  33.433  13.183
93750W        W65366  16.009   1.494   2.713
93751W        W65367  20.604   9.307   3.108
93752W        W65368  32.032  22.716   2.774
93753W        W65369  21.559  30.422   2.014
93754W        W65370  36.949  37.476  13.452
93755W        W65371  20.881  11.376   3.634
93756W        W65372  30.940  39.384   4.251
93757W        W65373  31.865   3.711  12.462
93758W        W65374   5.227  23.754   0.955
93759W        W65375  12.632  11.101   4.269
93760W        W65376   9.904  43.700  11.673
93761W        W65377  23.407  42.881   4.978
93762W        W65378  41.571   7.176   2.173
93763W        W65379  43.383  14.055   0.742
93764W        W65380  43.740   8.767   0.235
93765W        W65381  27.723  38.056  11.574
93766W        W65382   7.417  10.591  11.967
93767W        W65383  18.093  42.148  12.873
93768W        W65384   3.519  25.174   4.138
93769W        W65385  31.492  31.634   2.214
93770W        W65386  21.109  36.887   0.539
93771W        W65387   0.034  29.584  13.124
93772W        W65388  26.990  23.681  10.517
93773W        W65389  17.872  31.168  14.044
93774W        W65390  22.160  21.990  13.051
93775W        W65391  31.334   6.792   0.492
93776W        W65392  21.207   6.438   1.011
93777W        W65393   1.517  27.460   2.094
93778W        W65394  26.429  13.500  13.608
93779W        W65395  15.195  39.231  13.894
93780W        W65396   9.010  37.290   0.439
93781W        W65397   4.930  13.958   1.003
93782W        W65398   4.995  32.594   1.369
93783W        W65399  36.474   2.779  14.844
93784W        W65400   2.283  28.093  10.712
93785W        W65401  12.477   2.035  14.727
93786W        W65402  30.934  38.291   3.109
93787W        W65403  12.296  16.251   4.653
93788W        W65404  15.566  37.668  13.464
93789W        W65405  32.861   7.776  12.115
93790W        W65406   6.905  26.553   2.453
93791W        W65407  19.723  43.231   2.606
93792W        W65408  22.182  43.075  11.133
93793W        W65409  31.952   8.941   4.019
93794W        W65410  24.758  24.217  12.632
93795W        W65411  28.216  21.695  11.185
93796W        W65412  37.199  34.467   1.222
93797W        W65413  29.171  20.258   2.746
93798W        W65414  42.789  10.833   0.745
93799W        W65415   0.854  27.695   0.402
93800W        W65416  23.840  35.956  13.822
93801W        W65417  21.113   5.816  12.936
93802W        W65418  41.262  26.462   2.273
93803W        W65419  25.195  18.222   2.936
93804W        W65420  16.133  41.007  13.285
93805W        W65421  16.662  18.198  10.916
93806W        W65422  20.158  36.312  12.072
93807W        W65423   9.749  38.394   0.767
93808W        W65424   3.736  43.460   5.354
93809W        W65425   7.969  30.798  12.080
93810W        W65426  21.970  18.736   1.326
93811W        W65427  40.462  15.626   2.757
93812W        W65428   2.187   2.799  12.150
93813W        W65429  12.365  14.088  12.338
93814W        W65430  12.531   0.492   4.156
93815W        W65431   5.148  17.290  14.446
93816W        W65432  23.968  12.158  11.581
93817W        W65433  26.406  14.521   5.009
93818W        W65434   0.024  43.479  11.588
93819W        W65435   0.191  37.960  14.699
93820W        W65436  30.532   7.391   0.396
93821W        W65437  33.995   4.927  10.659
93822W        W65438   9.234  39.821  10.650
93823W        W65439  20.053  31.097   2.396
93824W        W65440  15.516  19.301  12.465
93825W        W65441  17.023  41.236   0.486
93826W        W65442  11.163  12.410   1.738
93827W        W65443  12.230  20.792   1.932
93828W        W65444  21.252  37.917   3.720
93829W        W65445   5.148   6.664   1.104
93830W        W65446   8.675  27.252   1.277
93831W        W65447   4.772   9.195   2.013
93832W        W65448  34.042  10.701   1.024
93833W        W65449   4.274  22.266   4.657
93834W        W65450  42.207  19.652  10.832
93835W        W65451   0.800  13.474   1.626
93836W        W65452  31.593  31.091  12.478
93837W        W65453  22.030  16.519   0.398
93838W        W65454  32.867   2.835   3.770
93839W        W65455  11.378  10.305  14.473
93840W        W65456  15.142  31.418   2.682
93841W        W65457  38.060  19.978  11.680
93842W        W65458  38.753  36.821  14.847
93843W        W65459  36.051  24.767  10.670
93844W        W65460  21.990   7.444   2.236
93845W        W65461  36.350  40.015   1.638
93846W        W65462  41.358  15.765   1.872
93847W        W65463   1.666  40.194  11.165
93848W        W65464  33.562   5.423  11.721
93849W        W65465  21.744  21.207  14.905
93850W        W65466  26.983  24.219  13.328
93851W        W65467  26.441  27.035  11.341
93852W        W65468   9.646  18.686  14.279
93853W        W65469  36.287  41.114   4.479
93854W        W65470  32.830  27.908   2.724
93855W        W65471   2.762  40.855   0.535
93856W        W65472  36.781  27.439  11.851
93857W        W65473  24.050   1.471  10.550
93858W        W65474   4.459  14.293  14.840
93859W        W65475   2.528  18.168  11.965
93860W        W65476  44.229  28.902   1.655
93861W        W65477  40.323  14.278  12.138
93862W        W65478   2.429  36.908   1.733
93863W        W65479  30.445  38.090   3.086
93864W        W65480  43.484   7.460   1.467
93865W        W65481  19.212   1.651   1.934
93866W        W65482  13.479  23.606  10.065
93867W        W65483  35.130  29.410   5.246
93868W        W65484  38.674   9.614  13.533
93869W        W65485   6.128  42.384   4.261
93870W        W65486  43.860  27.386   2.075
93871W        W65487  14.636  18.060   2.701
93872W        W65488  42.966  31.900   0.109
93873W        W65489   0.053  22.933  12.050
93874W        W65490  40.040  12.671   1.784
93875W        W65491  15.769  39.904  11.853
93876W        W65492   3.714  22.746   0.856
93877W        W65493  44.439  11.196   1.171
93878W        W65494  34.171  23.945   2.205
93879W        W65495  31.381   2.414   5.132
93880W        W65496   2.779  37.021   0.133
93881W        W65497  41.891  35.543   0.433
93882W        W65498  19.013  42.381   2.893
93883W        W65499  39.984  43.969   1.367
93884W        W65500  32.889  36.818   4.320
93885W        W65501  30.467  37.012  11.579
93886W        W65502  27.138  23.147  12.670
93887W        W65503  32.188  38.604  11.520
93888W        W65504  29.533  43.233  13.787
93889W        W65505   7.814  30.023  11.697
93890W        W65506  17.242   6.883   0.459
93891W        W65507   9.443  20.231  11.067
93892W        W65508   3.478  32.920   0.838
93893W        W65509  38.424  29.412  13.897
93894W        W65510  12.701  33.097   4.563
93895W        W65511  37.360  21.790   0.259
93896W        W65512  18.710  14.356  11.069
93897W        W65513  22.249  15.200  11.694
93898W        W65514   3.334  37.607  10.111
93899W        W65515  24.708   9.841   1.462
93900W        W65516   9.269  23.169   4.650
93901W        W65517  25.936   4.378  14.973
93902W        W65518  34.477  33.916   4.981
93903W        W65519  41.983  22.589   4.381
93904W        W65520  28.397  12.787  12.065
93905W        W65521  38.880  19.382  10.692
93906W        W65522   7.877  17.446  11.982
93907W        W65523  30.840  15.508  13.541
93908W        W65524  29.537   9.629   0.832
93909W        W65525  19.029  41.487   2.174
93910W        W65526  30.114  21.452   1.240
93911W        W65527  17.064  43.585   4.837
93912W        W65528  12.866  23.693   2.966
93913W        W65529  16.162  31.781   3.706
93914W        W65530  43.323  27.826  12.387
93915W        W65531  21.661  29.613  13.968
93916W        W65532  34.498   8.655   4.487
93917W        W65533  42.788   8.074   3.154
93918W        W65534  36.098  19.315   2.632
93919W        W65535  29.855  13.474  11.571
93920W        W65536  25.186  13.734  12.373
93921W        W65537  10.707   7.860   1.898
93922W        W65538   1.985  18.834  11.675
93923W        W65539  30.691  15.702   4.572
93924W        W65540  11.690  29.641  14.684
93925W        W65541  25.613   8.690  14.763
93926W        W65542  31.374  17.859   4.513
93927W        W65543  30.862  24.470  11.665
93928W        W65544  14.201  16.348   1.966
93929W        W65545  29.911  10.695  11.878
93930W        W65546   7.703  25.585  10.746
93931W        W65547   9.262  10.790   4.319
93932W        W65548   4.899   3.914  13.059
93933W        W65549  41.308  25.194   4.258
93934W        W65550   3.786  15.093   0.877
93935W        W65551  16.194  18.862   0.759
93936W        W65552  25.995   7.131  13.307
93937W        W65553  44.012  38.588  12.121
93938W        W65554  10.654  14.450  14.933
93939W        W65555  10.858   0.228  13.267
93940W        W65556  24.035  35.927  11.521
93941W        W65557  18.218  15.187  14.306
93942W        W65558   8.791   7.365  12.190
93943W        W65559  29.480  17.439   4.665
93944W        W65560  33.065  17.397  11.492
93945W        W65561  14.065  10.354   4.115
93946W        W65562  42.282   4.248  10.620
93947W        W65563  31.954  40.345  11.400
93948W        W65564  10.253  16.539  14.700
93949W        W65565  21.601  13.050   0.814
93950W        W65566  22.465  18.639  11.630
93951W        W65567  40.269  29.876   2.369
93952W        W65568  21.061  40.599  11.976
93953W        W65569  28.921   4.606  14.056
93954W        W65570  12.528  39.866  10.715
93955W        W65571   3.909  30.900  12.026
93956W        W65572   2.888  17.733  14.362
93957W        W65573  22.755   2.358  13.267
93958W        W65574   8.301  15.957  12.048
93959W        W65575  29.761  38.711   3.742
93960W        W65576  22.164  21.159   4.300
93961W        W65577  17.983  33.175  14.951
93962W        W65578  28.585   4.976   3.313
93963W        W65579  27.909  14.801   0.357
93964W        W65580  11.205  28.550   2.879
93965W        W65581  27.974   3.832  12.511
93966W        W65582  37.590  18.335  12.536
93967W        W65583  11.358  39.831   2.994
93968W        W65584   4.885  15.088  12.442
93969W        W65585   4.325  15.492  13.501
93970W        W65586  27.695  10.183   4.733
93971W        W65587  25.735  42.036  12.871
93972W        W65588  44.804  28.002   1.119
93973W        W65589  15.152  44.599  11.055
93974W        W65590  16.872  25.674  13.558
93975W        W65591  33.572  40.563  13.515
93976W        W65592  18.112   5.148   3.119
93977W        W65593  43.288  19.609  13.361
93978W        W65594  43.849  32.701  13.968
93979W        W65595  26.658   2.961   2.162
93980W        W65596  14.759   6.004  13.078
93981W        W65597   8.785  27.588  12.362
93982W        W65598   0.892  35.138   2.756
93983W        W65599  16.729  19.621   4.260
93984W        W65600  10.514   1.888   1.364
93985W        W65601   3.125  42.800   5.014
93986W        W65602  39.463  24.918   2.243
93987W        W65603   2.941  32.648   4.664
93988W        W65604  26.713  28.557   2.938
93989W        W65605   0.433   7.781  13.013
93990W        W65606   7.644  34.812  12.617
93991W        W65607  44.739  22.757  13.491
93992W        W65608  17.724  27.070   3.823
93993W        W65609  30.953  44.763  13.317
93994W        W65610  31.406  36.291  12.886
93995W        W65611  36.073   2.515   4.333
93996W        W65612  25.296  33.557  11.125
93997W        W65613  17.766   4.803  11.698
93998W        W65614  43.505  14.212   3.798
93999W        W65615  15.180  38.468   2.189
94000W        W65616   2.377  24.980   4.113
94001W        W65617  29.936   8.264   2.565
94002W        W65618  16.314  11.381  12.516
94003W        W65619  34.210  13.483  10.870
94004W        W65620  34.430  38.551  13.598
94005W        W65621  14.247   9.214   2.092
94006W        W65622  27.013  18.785   0.358
94007W        W65623  24.768  36.824   0.272
94008W        W65624   9.058  21.284  10.175
94009W        W65625  32.494  42.075  10.735
94010W        W65626  39.520   7.874   1.242
94011W        W65627  18.802   1.341   1.882
94012W        W65628  41.881   2.699   1.813
94013W        W65629  37.954  24.233   4.563
94014W        W65630   3.786  34.146  12.129
94015W        W65631  35.856  14.216  12.349
94016W        W65632  32.536   1.230   3.551
94017W        W65633  20.399  32.652   4.066
94018W        W65634  39.511  17.522  13.366
94019W        W65635  10.103  11.669   3.699
94020W        W65636  21.835  23.179  14.057
94021W        W65637   9.744  22.835   3.811
94022W        W65638  24.136  44.926   3.481
94023W        W65639  40.873   8.725  14.025
94024W        W65640  34.837   4.430   1.361
94025W        W65641  35.415   7.316  14.207
94026W        W65642  35.663  22.543  11.107
94027W        W65643  35.861  34.351  13.605
94028W        W65644  30.922  29.486   1.890
94029W        W65645  43.468  27.667  11.914
94030W        W65646  41.849  19.783   0.253
94031W        W65647  33.107  29.930   0.257
94032W        W65648   6.684  43.920  12.387
94033W        W65649   2.551  23.109   5.023
94034W        W65650  30.340  17.137   4.242
94035W        W65651  31.241  20.875   2.491
94036W        W65652  22.687  15.922  11.491
94037W        W65653   4.031  30.119   3.244
94038W        W65654  20.817  18.540   3.937
94039W        W65655   0.483  20.683   4.466
94040W        W65656  36.622  10.660   0.347
94041W        W65657   1.204  28.662   0.439
94042W        W65658  34.524  27.482  12.538
94043W        W65659  11.389   3.056  12.340
94044W        W65660  24.340  21.053   3.281
94045W        W65661   3.058  24.959  13.596
94046W        W65662  41.434  34.398  10.628
94047W        W65663  18.637  22.723   0.564
94048W        W65664  31.474  31.132   3.185
94049W        W65665  10.639   6.606  11.081
94050W        W65666  37.512   3.512  11.333
94051W        W65667  41.811  39.333  14.843
94052W        W65668  20.211  21.328   0.513
94053W        W65669  20.204  18.315   1.831
94054W        W65670  12.791  21.701   3.169
94055W        W65671  32.880  23.992  12.356
94056W        W65672  27.517   1.887  13.566
94057W        W65673  27.236   5.401  12.467
94058W        W65674  39.588  41.393  14.544
94059W        W65675  41.058   2.143  13.073
94060W        W65676  21.677   1.342   3.426
94061W        W65677  21.619  40.333   4.399
94062W        W65678  32.034  13.473   3.678
94063W        W65679  11.504  40.516   5.051
94064W        W65680  17.062   2.738  10.518
94065W        W65681  42.817   3.087  12.147
94066W        W65682   5.319  26.723  13.265
94067W        W65683  16.875  40.034   2.437
94068W        W65684  39.864   6.181  11.855
94069W        W65685  23.920  41.779   2.250
94070W        W65686   9.411  28.313   3.849
94071W        W65687  22.755  31.964   3.690
94072W        W65688  14.355   9.472  12.031
94073W        W65689  25.114  16.278   3.767
94074W        W65690  14.582   8.969  11.640
94075W        W65691  34.876  31.006  12.681
94076W        W65692  22.979  12.147   3.586
94077W        W65693  19.727  14.558  14.360
94078W        W65694  43.355  26.660  11.925
94079W        W65695  40.486   8.145  12.778
94080W        W65696  24.709   7.346  10.761
94081W        W65697   2.000  18.803   4.662
94082W        W65698   5.030  35.594   0.261
94083W        W65699  24.451  41.719  14.863
94084W        W65700  28.626  30.235   4.562
94085W        W65701  31.584  40.576   4.632
94086W        W65702  17.047   5.166  10.520
94087W        W65703  34.007  35.075  12.877
94088W        W65704  12.687  14.357  13.387
94089W        W65705  25.221  43.020  10.393
94090W        W65706  18.143  30.903   1.393
94091W        W65707   2.407  25.987  10.755
94092W        W65708  41.921   0.004  13.640
94093W        W65709  42.346   6.927  12.453
94094W        W65710  18.968  27.557  11.870
94095W        W65711  12.094  38.115   4.106
94096W        W65712   8.693  21.005   0.389
94097W        W65713   0.887  34.559   3.651
94098W        W65714  25.180  18.373  11.553
94099W        W65715  10.583  10.185  12.491
94100W        W65716  41.315   0.344   3.413
94101W        W65717  28.059   6.890   2.706
94102W        W65718  10.357  37.790   1.371
94103W        W65719  26.674  35.686   0.599
94104W        W65720  12.883   0.303  13.618
94105W        W65721  20.139   2.505  13.453
94106W        W65722   3.654   3.157   0.932
94107W        W65723  24.249   0.949  11.729
94108W        W65724   5.121  17.350  10.152
94109W        W65725  25.139  39.360  10.549
94110W        W65726  43.964  26.786  12.946
94111W        W65727  31.500  27.363   0.851
94112W        W65728  26.094  37.881   2.925
94113W        W65729  29.312  24.000   0.960
94114W        W65730  29.619  40.888  13.400
94115W        W65731  27.667  35.904  12.331
94116W        W65732  36.620  28.118  12.119
94117W        W65733  27.517  41.026   0.915
94118W        W65734   3.777  33.929   1.344
94119W        W65735  20.962   6.383  11.164
94120W        W65736   7.819  44.607  12.915
94121W        W65737  31.938  34.027  10.415
94122W        W65738  35.571  33.542  13.036
94123W        W65739  12.404   8.934   4.681
94124W        W65740  12.124  13.359   0.708
94125W        W65741  20.218  13.858  12.028
94126W        W65742  11.814  26.695  10.032
94127W        W65743  33.572   8.751   4.672
94128W        W65744  26.097  43.431   0.684
94129W        W65745   7.256  12.590   3.207
94130W        W65746  19.691  30.897   1.288
94131W        W65747  17.112  30.002  13.526
94132W        W65748  39.773  37.229  10.816
94133W        W65749  38.315  11.438  14.740
94134W        W65750  39.948  23.136   4.176
94135W        W65751  14.824  13.129  11.541
94136W        W65752   8.648  26.496  13.028
94137W        W65753  35.959   0.702  11.053
94138W        W65754  33.847  31.711   0.356
94139W        W65755   4.933  38.605   0.408
94140W        W65756  17.033  27.428  13.400
94141W        W65757  37.287  22.655  14.392
94142W        W65758   0.528  40.399   3.261
94143W        W65759   4.995  11.893  12.915
94144W        W65760   5.436   7.425   4.170
94145W        W65761   2.785   3.391   4.150
94146W        W65762  19.021  23.178   1.053
94147W        W65763  36.337  35.859  12.417
94148W        W65764  16.720  43.387  12.793
94149W        W65765   9.845  10.209   2.916
94150W        W65766  20.814  17.527  12.522
94151W        W65767  34.107  23.687  14.346
94152W        W65768   2.607  35.653  13.274
94153W        W65769  36.957  12.367   0.757
94154W        W65770  28.901  38.918  12.128
94155W        W65771  20.701  25.883   4.869
94156W        W65772  33.762  19.089  13.437
94157W        W65773  10.202  12.121   1.657
94158W        W65774   3.217  42.889   3.380
94159W        W65775   2.681  16.792  14.448
94160W        W65776   9.020  17.293   3.909
94161W        W65777  20.697  11.376   2.339
94162W        W65778   3.447  27.252  12.542
94163W        W65779  29.763  23.135   2.932
94164W        W65780  10.868  10.060  11.722
94165W        W65781  14.679  16.131   1.774
94166W        W65782   3.994  30.940  14.637
94167W        W65783  20.530  16.359   3.422
94168W        W65784  13.788  25.052  10.461
94169W        W65785  31.997   7.103  12.028
94170W        W65786  37.381   4.509   3.578
94171W        W65787  15.837  21.594  11.730
94172W        W65788   7.937  20.455  11.232
94173W        W65789  14.048  10.800   0.895
94174W        W65790  24.064  19.291   3.802
94175W        W65791  14.270  26.411   4.155
94176W        W65792   2.216  26.643   0.486
94177W        W65793   0.709  15.636   0.324
94178W        W65794   0.373  27.037   4.681
94179W        W65795   4.453   4.341  12.632
94180W        W65796   3.389  10.216  11.168
94181W        W65797   0.470  12.561   0.714
94182W        W65798  39.819  18.770   1.812
94183W        W65799  22.865  23.149  13.998
94184W        W65800  14.734  38.969  14.814
94185W        W65801   0.019  14.650   2.817
94186W        W65802  32.385   5.217  11.684
94187W        W65803  39.125   7.638   0.391
94188W        W65804  27.496  38.859   1.187
94189W        W65805   9.624  44.393   1.226
94190W        W65806  29.683   1.994  12.927
94191W        W65807  16.588   4.428   0.231
94192W        W65808  24.180   3.781  11.212
94193W        W65809  17.095  39.015   3.764
94194W        W65810  36.875  25.160  11.649
94195W        W65811  44.295  27.441   0.353
94196W        W65812   4.729  13.607   2.313
94197W        W65813  23.970  23.022  14.998
94198W        W65814  40.312   2.706   3.728
94199W        W65815  28.095  31.611  10.675
94200W        W65816  43.815  25.229  11.074
94201W        W65817   1.184   5.356   1.985
94202W        W65818  13.689   7.821   1.943
94203W        W65819  34.394   5.146  11.883
94204W        W65820   8.584  28.141  11.652
94205W        W65821  22.087  32.558   4.132
94206W        W65822  41.979  32.922  13.404
94207W        W65823  22.572   3.031  14.989
94208W        W65824  24.228  11.822   4.127
94209W        W65825  17.011  22.265  11.981
94210W        W65826  42.807  24.708  11.598
94211W        W65827  40.773  33.461  14.069
94212W        W65828  25.094  11.357  13.453
94213W        W65829   0.184  12.870  13.437
94214W        W65830   6.078   5.662   2.222
94215W        W65831  17.260  44.950   4.018
94216W        W65832  41.413  33.183   0.815
94217W        W65833  38.317   6.867  12.932
94218W        W65834  10.336   4.940   3.635
94219W        W65835  18.352   3.464  12.409
94220W        W65836  25.224  42.897   2.789
94221W        W65837  33.506  36.011  14.756
94222W        W65838  17.254  12.877   2.827
94223W        W65839   6.185   6.301  12.097
94224W        W65840  30.942   5.582  10.948
94225W        W65841  21.676  38.800   2.303
94226W        W65842  14.501   5.829   5.038
94227W        W65843  22.823  35.304  14.530
94228W        W65844  36.435  23.101   1.849
94229W        W65845   1.181  19.659   4.005
94230W        W65846  12.736   7.374   2.841
94231W        W65847  41.870  43.939  12.857
94232W        W65848  41.328  25.146  12.581
94233W        W65849   2.186  41.470  12.499
94234W        W65850  16.178  33.092   0.315
94235W        W65851   1.961  41.956  12.544
94236W        W65852  30.630  18.542  14.694
94237W        W65853  33.180  15.489   2.293
94238W        W65854  18.652  17.101  10.724
94239W        W65855  11.681  38.974  12.871
94240W        W65856  35.318  14.702  14.328
94241W        W65857  26.956   0.831   1.758
94242W        W65858   3.439  43.245   1.203
94243W        W65859  23.785   8.384  12.776
94244W        W65860  42.925   1.338   0.201
94245W        W65861  23.536  20.595   3.630
94246W        W65862   3.532   0.970  10.687
94247W        W65863  17.706  13.205  12.047
94248W        W65864  35.476  16.729  14.767
94249W        W65865   5.939  11.298  12.083
94250W        W65866   1.879   0.388   5.042
94251W        W65867  33.587  13.601   1.545
94252W        W65868  22.097  13.884  13.146
94253W        W65869  10.123  36.261   2.788
94254W        W65870  19.377   3.652   4.347
94255W        W65871  31.114  40.960  13.375
94256W        W65872  26.994  43.506  10.883
94257W        W65873  38.520  29.124   3.866
94258W        W65874  37.595  27.260   4.419
94259W        W65875  38.821  31.012   4.034
94260W        W65876  40.341  24.676   1.773
94261W        W65877  35.937  39.434  14.469
94262W        W65878  23.185   9.823  11.258
94263W        W65879  40.295  43.040  10.018
94264W        W65880  17.578  15.036  13.110
94265W        W65881  25.548   6.292   0.770
94266W        W65882  26.713  34.644   0.736
94267W        W65883  27.606   5.805  14.907
94268W        W65884  28.299   3.492  10.074
94269W        W65885  30.482  10.636   3.385
94270W        W65886  16.588   0.375   1.308
94271W        W65887  23.264  33.846  13.113
94272W        W65888   4.352  15.605   3.696
94273W        W65889  31.089  18.663   2.678
94274W        W65890   2.762  18.048   1.502
94275W        W65891  10.343   3.198   4.054
94276W        W65892   8.814  22.016   4.486
94277W        W65893  28.179  10.093  14.987
94278W        W65894  25.041  44.139  12.795
94279W        W65895  40.923  24.777   2.386
94280W        W65896  27.409  25.383   2.266
94281W        W65897  35.150  14.608   0.951
94282W        W65898  31.908  11.831  10.765
94283W        W65899  20.633  12.177  10.966
94284W        W65900  37.472  37.136  12.110
94285W        W65901  21.032  20.436   3.577
94286W        W65902   6.716  41.404  11.087
94287W        W65903  34.078  43.482  13.178
94288W        W65904  34.978  19.037  11.180
94289W        W65905  42.511   3.588   3.659
94290W        W65906  43.017  22.910  14.019
94291W        W65907  33.038  19.699   1.435
94292W        W65908  40.303  22.972   1.021
94293W        W65909  25.508  36.034   3.563
94294W        W65910  42.746  10.996  14.064
94295W        W65911  29.226  36.709  12.717
94296W        W65912  14.538  10.213  11.696
94297W        W65913  21.100  19.111  12.613
94298W        W65914  20.173   0.887   1.610
94299W        W65915  24.372  19.556  14.468
94300W        W65916  15.960  16.549  10.230
94301W        W65917   5.951  27.638   3.581
94302W        W65918  29.467  30.685   3.702
94303W        W65919  44.193  11.426   4.554
94304W        W65920  43.928  14.719  10.667
94305W        W65921  28.443  37.960   4.046
94306W        W65922   1.873   3.138   0.846
94307W        W65923  33.150  10.338   2.646
94308W        W65924  22.692  21.302   0.978
94309W        W65925  32.436  31.976  10.763
94310W        W65926  39.504   6.962  12.280
94311W        W65927  25.177  43.794  12.205
94312W        W65928  34.586  12.232   2.249
94313W        W65929  12.081  39.409  10.684
94314W        W65930  42.076  35.900   4.202
94315W        W65931  40.697  43.870   3.755
94316W        W65932   4.432   0.221   4.219
94317W        W65933   8.779  44.777  14.446
94318W        W65934   1.786  25.939   2.522
94319W        W65935  19.202  13.209  12.838
94320W        W65936   8.939  42.188   1.913
94321W        W65937  32.395  17.015  12.005
94322W        W65938  38.333  38.546  14.617
94323W        W65939  40.413  16.969  14.439
94324W        W65940  16.152  12.675  13.278
94325W        W65941  16.024  22.172  12.898
94326W        W65942   7.947  30.527  13.472
94327W        W65943  31.873   2.501   5.007
94328W        W65944  28.159  34.638  11.106
94329W        W65945  24.463  40.824   2.045
94330W        W65946  18.553  19.724  12.766
94331W        W65947  17.750  33.565  14.651
94332W        W65948   3.805  15.190  14.314
94333W        W65949  36.823   4.348   4.841
94334W        W65950  14.639  17.494  10.288
94335W        W65951  43.085  37.116   0.604
94336W        W65952  22.184  12.551  14.551
94337W        W65953  32.875  22.050  11.216
94338W        W65954  43.570  25.903  14.507
94339W        W65955   7.875  17.572  11.473
94340W        W65956  22.111  21.898   2.905
94341W        W65957   6.142  44.230  13.115
94342W        W65958  22.991  34.119  14.059
94343W        W65959   2.680  42.610  10.580
94344W        W65960  44.364  17.148   4.143
94345W        W65961  39.043  29.172   1.205
94346W        W65962   9.037  21.952   1.417
94347W        W65963  23.206   9.038  13.877
94348W        W65964   8.182  22.258   3.318
94349W        W65965   8.789   4.199  14.445
94350W        W65966  36.391  11.751   3.846
94351W        W65967  18.532  44.218   5.053
94352W        W65968  20.599  32.639  10.645
94353W        W65969  13.302   7.143  13.769
94354W        W65970  14.192  44.575  11.029
94355W        W65971   5.149  16.287   4.955
94356W        W65972   1.524   7.276  14.444
94357W        W65973  23.032  13.362  11.675
94358W        W65974  41.544   9.564  12.474
94359W        W65975  40.863  34.519   1.572
94360W        W65976  43.872  19.876   1.116
94361W        W65977  38.679  25.550  12.078
94362W        W65978  20.467   9.074  12.970
94363W        W65979  16.863   1.939  13.972
94364W        W65980  22.783  32.843  13.826
94365W        W65981  39.957  26.584  11.730
94366W        W65982  42.222   9.315  12.972
94367W        W65983   8.904   5.957  10.951
94368W        W65984  36.102   4.447  14.383
94369W        W65985  15.269  35.381   1.014
94370W        W65986  22.211   4.737  13.284
94371W        W65987  14.784   0.615   2.877
94372W        W65988   1.454  28.551  11.658
94373W        W65989  32.055  31.532  14.081
94374W        W65990  35.550  16.773  14.268
94375W        W65991  42.938  22.749  13.481
94376W        W65992  32.406   6.415  13.385
94377W        W65993  28.150  11.676  12.471
94378W        W65994  32.370  31.601   2.275
94379W        W65995  26.673  23.578  11.253
94380W        W65996  40.452  11.773   3.826
94381W        W65997   9.882  36.548   3.178
94382W        W65998  37.530  26.207   1.303
94383W        W65999  37.234  10.833  11.309
94384W        W66000   3.398  33.633  11.179
94385W        W66001   3.037  39.767   3.702
94386W        W66002   6.008   7.116  12.168
94387W        W66003  11.197  29.805  12.623
94388W        W66004  36.830  11.935   2.707
94389W        W66005   9.379  29.432  14.823
94390W        W66006  26.764  14.887   3.163
94391W        W66007  35.834  28.566   3.859
94392W        W66008  38.914   1.494  14.843
94393W        W66009  35.941  44.915   0.909
94394W        W66010  34.134  34.031   0.230
94395W        W66011  15.784  43.270   2.259
94396W        W66012  40.775   0.717   1.803
94397W        W66013  40.853  37.385  12.339
94398W        W66014  20.681  19.717   2.202
94399W        W66015  30.322  17.976   4.193
94400W        W66016  20.190  40.305  14.897
94401W        W66017  25.600  38.612  14.436
94402W        W66018  15.875   6.450   0.865
94403W        W66019  39.648  11.912   4.937
94404W        W66020  12.630  22.718   4.819
94405W        W66021  14.770  26.986   1.164
94406W        W66022  32.515   1.340   5.361
94407W        W66023  39.041  44.498   3.330
94408W        W66024  34.590  39.106   4.024
94409W        W66025  11.353  42.023   1.773
94410W        W66026   2.929   7.884   3.149
94411W        W66027   6.770  23.714  11.928
94412W        W66028  26.633  32.082  12.789
94413W        W66029   6.092  27.609   0.052
94414W        W66030  20.376   4.490  13.332
94415W        W66031  40.568  13.423  12.485
94416W        W66032  31.873  31.076   1.703
94417W        W66033  39.518   1.878   1.698
94418W        W66034  21.071  36.569   2.974
94419W        W66035  42.514  26.962  12.208
94420W        W66036  11.164  15.725  11.540
94421W        W66037   0.286  39.947  10.602
94422W        W66038  16.214   6.304   1.867
94423W        W66039  13.581  19.247  13.387
94424W        W66040  38.119  33.956  13.978
94425W        W66041  41.764  38.080   1.493
94426W        W66042  13.151  40.402   3.953
94427W        W66043  18.412  29.720   0.360
94428W        W66044  24.490   4.212  14.329
94429W        W66045   9.610  25.472  14.256
94430W        W66046   3.590  29.382  11.035
94431W        W66047   1.389  40.376   1.293
94432W        W66048  21.737  39.994  13.019
94433W        W66049  10.584  18.201  12.522
94434W        W66050  40.557  18.084   3.306
94435W        W66051   5.224  41.460   1.357
94436W        W66052  17.617   9.778  12.034
94437W        W66053  40.118  30.446  11.992
94438W        W66054  36.040  43.495   2.482
94439W        W66055  41.738  39.437   4.161
94440W        W66056  34.571   8.631   5.022
94441W        W66057  43.982  26.993   5.111
94442W        W66058   2.364  25.780   1.904
94443W        W66059   2.304   0.132   9.769
94444W        W66060  25.688  34.935  13.421
94445W        W66061  25.938  20.202   2.699
94446W        W66062  13.519  42.147  13.940
94447W        W66063   4.204  18.163   1.361
94448W        W66064   0.442  40.345   4.106
94449W        W66065  32.189   1.043  10.337
94450W        W66066   3.225  16.378  10.768
94451W        W66067  17.573   8.751  13.473
94452W        W66068   9.387   2.507  12.223
94453W        W66069  36.727  14.596  13.875
94454W        W66070  12.853  43.252  11.572
94455W        W66071  40.947  37.137   3.655
94456W        W66072  15.038  24.712  11.965
94457W        W66073  44.872   3.574  10.814
94458W        W66074  33.350  41.153   5.200
94459W        W66075  14.304  18.451   2.692
94460W        W66076  44.406  20.788  14.057
94461W        W66077  31.424  37.837   2.781
94462W        W66078  13.725  22.000  10.669
94463W        W66079  19.634  39.086   0.273
94464W        W66080  36.059  38.396   1.554
94465W        W66081  39.197  43.424  12.784
94466W        W66082  24.056   3.688   0.413
94467W        W66083  20.548  38.755  11.109
94468W        W66084  36.444  29.213   4.029
94469W        W66085   9.934  40.357  11.969
94470W        W66086   0.879  36.078   1.283
94471W        W66087   4.778   9.579   1.674
94472W        W66088  13.782  30.682   3.725
94473W        W66089  12.762  27.612   2.368
94474W        W66090  21.329  42.044  11.977
94475W        W66091  25.957  27.215  14.032
94476W        W66092  33.932   2.794   4.568
94477W        W66093   4.216   0.961  11.811
94478W        W66094  20.809  23.991  11.703
94479W        W66095   6.511   8.680   4.598
94480W        W66096  13.170   4.453   3.709
94481W        W66097  28.051  27.444   3.604
94482W        W66098  16.648  36.002   2.817
94483W        W66099  38.350  21.745  10.740
94484W        W66100  31.882  40.183  12.244
94485W        W66101  43.735  28.885   1.761
94486W        W66102  44.449  14.209   5.207
94487W        W66103  10.703  13.222   1.718
94488W        W66104   5.889  22.951  11.110
94489W        W66105  37.020  34.960   2.810
94490W        W66106  24.616  23.392   4.063
94491W        W66107   6.887  16.612   2.856
94492W        W66108  37.348  13.751   1.716
94493W        W66109  17.063  44.960   3.520
94494W        W66110  12.381  20.009   1.304
94495W        W66111   7.171  21.083  11.573
94496W        W66112  38.740  44.930   3.741
94497W        W66113  43.293  28.018  13.789
94498W        W66114  28.453   6.364   2.533
94499W        W66115  18.513  33.926  13.856
94500W        W66116  13.410  17.174   1.920
94501W        W66117  17.768  14.531   1.464
94502W        W66118  29.721  11.821  13.899
94503W        W66119  30.630  29.463   2.855
94504W        W66120  20.454  31.345   2.174
94505W        W66121  37.280  14.720   0.632
94506W        W66122   0.300  33.858   1.203
94507W        W66123  40.329  20.160   2.244
94508W        W66124  16.735  23.788  13.993
94509W        W66125  28.877  18.802  12.446
94510W        W66126  27.104  11.818   0.022
94511W        W66127  37.376  23.115   3.125
94512W        W66128  16.793   2.108   0.315
94513W        W66129  25.574  11.712   2.572
94514W        W66130   0.676  12.737  13.323
94515W        W66131  17.606  27.868  13.995
94516W        W66132  31.403  30.606  12.433
94517W        W66133  23.503  38.866   4.080
94518W        W66134  32.811   2.042   3.660
94519W        W66135  14.128  18.251  10.228
94520W        W66136  28.223  21.670  12.575
94521W        W66137  12.183  29.593   1.528
94522W        W66138  17.565   2.719  10.635
94523W        W66139   1.608  44.761  10.602
94524W        W66140  23.246  30.351  12.534
94525W        W66141  16.588   6.997   0.641
94526W        W66142  36.350  10.091  12.938
94527W        W66143   7.452   4.434  14.482
94528W        W66144  28.409   5.209  14.362
94529W        W66145  18.348   0.711   2.622
94530W        W66146  29.057  36.944   4.388
94531W        W66147  29.588   2.222   1.663
94532W        W66148  42.509  34.103  11.972
94533W        W66149  11.310   9.226   4.036
94534W        W66150   3.701   3.466  11.482
94535W        W66151   3.274   8.438  14.008
94536W        W66152  27.527  39.864  14.977
94537W        W66153  27.094   8.140  10.837
94538W        W66154  36.368  40.430  14.432
94539W        W66155  30.346  43.720  11.499
94540W        W66156   8.704  10.555  10.721
94541W        W66157  39.287   1.085  14.020
94542W        W66158  16.061   5.801   5.071
94543W        W66159  41.978  12.303   0.788
94544W        W66160  33.919  14.074   0.366
94545W        W66161  20.492  18.721   2.051
94546W        W66162   4.898   2.138  12.963
94547W        W66163  25.545  22.589  10.648
94548W        W66164  32.202  23.158  13.066
94549W        W66165   9.919  20.467   0.502
94550W        W66166  40.941  35.465   4.695
94551W        W66167  31.496   7.950  11.084
94552W        W66168  22.443  30.612   2.770
94553W        W66169  32.110  28.473  11.976
94554W        W66170   0.685  24.485  13.502
94555W        W66171   1.715  39.133  13.751
94556W        W66172  30.880  26.347  14.176
94557W        W66173   2.929  14.406  12.903
94558W        W66174  34.306   2.453   0.381
94559W        W66175  25.401  36.605  14.922
94560W        W66176  19.689  11.213  11.904
94561W        W66177   5.767  40.307  14.293
94562W        W66178  30.685  36.468   1.967
94563W        W66179  22.819  32.902  12.865
94564W        W66180  34.934  15.876  10.353
94565W        W66181  41.947   3.980   3.871
94566W        W66182   1.402  11.856  11.079
94567W        W66183  10.826  29.119   3.052
94568W        W66184   7.901  11.739  13.355
94569W        W66185  31.200  16.604  12.494
94570W        W66186  40.846  11.702  14.892
94571W        W66187   6.401  27.888  12.947
94572W        W66188  16.947   9.194   1.381
94573W        W66189  36.325  37.540  11.601
94574W        W66190  20.981  39.926   1.078
94575W        W66191  15.664  40.050  13.015
94576W        W66192   8.378  14.360   4.188
94577W        W66193  29.873   9.242  12.464
94578W        W66194  16.059  15.770  12.808
94579W        W66195   6.202  40.119   0.373
94580W        W66196   3.274  29.515   0.988
94581W        W66197  13.200   1.381  12.891
94582W        W66198  40.775  38.540  14.491
94583W        W66199  42.690   9.719  12.038
94584W        W66200  28.611  44.818   2.586
94585W        W66201  14.799  12.702   2.291
94586W        W66202  18.084   1.143   4.235
94587W        W66203   2.790   7.843  12.505
94588W        W66204  22.458  41.449  14.846
94589W        W66205  27.166  44.894   1.404
94590W        W66206  16.554  16.181   3.731
94591W        W66207  18.226  41.105  10.700
94592W        W66208  12.039   7.116   2.227
94593W        W66209  29.903  14.898  11.534
94594W        W66210  21.822  35.547  11.913
94595W        W66211  19.767  26.502  10.728
94596W        W66212  31.944   6.318  12.824
94597W        W66213  32.233  28.712  13.200
94598W        W66214   6.477   2.846   3.761
94599W        W66215  15.781  37.120   5.078
94600W        W66216   5.086  18.555   3.165
94601W        W66217   8.719  43.230  12.438
94602W        W66218  14.588  31.512   4.580
94603W        W66219  41.823  40.945  14.935
94604W        W66220   4.436  41.319   3.219
94605W        W66221  25.003  42.372   0.318
94606W        W66222  34.733   5.355   1.955
94607W        W66223   0.991  30.498  10.201
94608W        W66224  29.150   9.833  11.578
94609W        W66225   0.698  11.392  12.740
94610W        W66226  14.547  15.709   0.343
94611W        W66227   8.177  17.030  13.441
94612W        W66228  44.011  32.629  14.492
94613W        W66229  38.909   7.432   3.661
94614W        W66230   9.210  17.105   1.862
94615W        W66231   8.708  35.856  11.924
94616W        W66232  13.075  36.930  11.680
94617W        W66233  19.900  12.147   4.620
94618W        W66234  19.709  18.678   1.311
94619W        W66235  42.877  34.010   0.074
94620W        W66236  13.322   3.466  12.373
94621W        W66237  35.013   9.406  13.939
94622W        W66238   9.906  20.138   1.191
94623W        W66239  21.105  30.407   1.719
94624W        W66240   3.887  16.234  14.068
94625W        W66241   9.623  15.336   1.859
94626W        W66242   0.473  35.882  11.501
94627W        W66243   3.310  14.657   3.545
94628W        W66244  40.980  17.735  13.721
94629W        W66245   6.296   8.322   3.193
94630W        W66246  12.245  38.651  13.395
94631W        W66247  20.439  25.212   0.379
94632W        W66248  35.068  13.765  14.915
94633W        W66249  37.827  18.005  11.636
94634W        W66250  37.393  14.797   3.706
94635W        W66251  10.325  44.829   2.745
94636W        W66252   4.563  39.431   3.186
94637W        W66253  43.729  40.221   3.759
94638W        W66254  12.679   4.235   0.795
94639W        W66255  30.870  34.905  11.609
94640W        W66256  38.803  27.209  14.913
94641W        W66257  44.411  40.385  10.248
94642W        W66258  44.720  36.270  11.103
94643W        W66259  20.512   9.699   0.497
94644W        W66260  38.594  20.139  14.414
94645W        W66261  40.585  35.476  12.137
94646W        W66262  15.022  14.226  13.336
94647W        W66263   4.510  30.051   1.872
94648W        W66264   4.144  43.495  14.515
94649W        W66265  39.993  32.858  11.707
94650W        W66266   3.672  44.260   2.542
94651W        W66267  41.279  13.616  14.954
94652W        W66268  28.733  26.508   0.841
94653W        W66269  31.931  32.388   2.106
94654W        W66270  28.061  26.119   2.345
94655W        W66271  28.905  10.442   0.631
94656W        W66272  41.979  36.341   2.446
94657W        W66273  15.020  13.455  11.973
94658W        W66274  21.165  23.910   4.469
94659W        W66275  39.624  17.360  14.860
94660W        W66276   5.169  21.112   1.320
94661W        W66277  28.044   9.408  11.409
94662W        W66278  44.325   2.602   1.751
94663W        W66279  18.335  18.563   4.097
94664W        W66280  38.453  30.310  14.222
94665W        W66281  17.569   2.910   4.695
94666W        W66282  11.830  33.965   1.273
94667W        W66283  35.258  24.707  12.482
94668W        W66284  31.936   2.817  13.530
94669W        W66285   6.812  38.006   4.500
94670W        W66286  23.189  25.741   4.168
94671W        W66287  28.998  20.957   3.725
94672W        W66288   1.352  37.342   1.393
94673W        W66289  19.468  16.410  14.408
94674W        W66290  14.589  22.205   2.364
94675W        W66291  33.020   6.723   3.688
94676W        W66292   6.002  15.360   0.865
94677W        W66293  40.735  14.266  10.759
94678W        W66294  27.644  30.262   4.849
94679W        W66295  26.581  26.113  11.990
94680W        W66296  12.056   0.508  14.390
94681W        W66297  39.846  21.700   2.825
94682W        W66298  14.627  20.133   2.238
94683W        W66299   3.672  33.189   4.134
94684W        W66300  20.440   4.020   0.961
94685W        W66301  29.525   0.448   2.662
94686W        W66302  30.215   1.019   4.119
94687W        W66303  35.001  32.117   2.245
94688W        W66304  25.523  29.668   2.416
94689W        W66305  39.453   2.211  10.723
94690W        W66306  37.935  44.274   0.009
94691W        W66307  22.021   1.304  12.529
94692W        W66308   2.851   8.030  13.471
94693W        W66309   2.591   0.785   4.191
94694W        W66310  40.799  37.410   1.265
94695W        W66311  28.707   2.859   2.303
94696W        W66312  19.354  35.497   3.196
94697W        W66313  18.576  10.825   1.265
94698W        W66314   2.510   5.827   1.183
94699W        W66315  36.510  39.772   0.825
94700W        W66316  25.886  41.785   0.399
94701W        W66317  20.357   4.100  11.130
94702W        W66318  35.089  43.841  10.896
94703W        W66319  17.085  32.108   3.660
94704W        W66320   1.843  37.304   2.790
94705W        W66321  40.071  16.698  14.711
94706W        W66322   0.864  13.973   2.880
94707W        W66323  16.932  38.930  12.064
94708W        W66324  24.172  35.290  14.571
94709W        W66325  22.246  39.085  11.797
94710W        W66326  18.141  32.361  14.465
94711W        W66327   2.183  12.241   1.790
94712W        W66328  24.895  33.624  12.001
94713W        W66329   3.502  11.549   4.308
94714W        W66330  18.157  11.328  13.000
94715W        W66331  40.850  34.024  12.909
94716W        W66332  15.821   1.959  13.987
94717W        W66333  34.077  15.034   3.127
94718W        W66334  30.646  38.399  11.924
94719W        W66335  30.410  36.201   2.804
94720W        W66336  26.290  30.628  14.707
94721W        W66337  17.026  35.460  12.596
94722W        W66338   2.481  15.730   4.633
94723W        W66339  17.051  18.295   4.864
94724W        W66340  36.407   1.286  12.049
94725W        W66341  43.246  14.195   2.812
94726W        W66342   4.301   6.604   1.323
94727W        W66343  30.484  24.196   0.072
94728W        W66344  34.885  17.981   2.309
94729W        W66345  40.850  31.408  12.937
94730W        W66346  41.522  18.081   2.175
94731W        W66347  26.098  28.556   2.334
94732W        W66348   6.183  30.147   3.705
94733W        W66349  32.170  24.259  11.224
94734W        W66350  41.889  13.743   2.889
94735W        W66351  40.113  27.567  11.680
94736W        W66352  15.323  39.086   0.421
94737W        W66353  26.026  23.627  12.551
94738W        W66354  19.979  20.562  11.926
94739W        W66355   4.455  44.480  10.908
94740W        W66356  42.044  12.653  12.096
94741W        W66357  31.401  15.080   1.144
94742W        W66358  43.962   9.589  12.025
94743W        W66359  43.956  41.961   4.163
94744W        W66360  33.008  17.633   1.293
94745W        W66361   3.288  41.983   0.780
94746W        W66362  33.478  44.703  14.505
94747W        W66363   3.333  13.930  11.958
94748W        W66364   1.011   4.681  14.374
94749W        W66365   4.739  25.518  13.565
94750W        W66366  25.158  38.468   4.584
94751W        W66367  19.303  39.507   3.861
94752W        W66368  44.264  18.757   2.156
94753W        W66369   1.976  43.215   3.687
94754W        W66370  39.153   1.556   0.315
94755W        W66371  19.756  26.974   2.096
94756W        W66372  42.123  13.163   1.194
94757W        W66373   9.259  22.996  11.216
94758W        W66374  39.797   5.992   3.646
94759W        W66375   2.223  27.096  12.154
94760W        W66376  29.885  18.392  11.123
94761W        W66377  40.983  42.852  11.154
94762W        W66378  11.723  32.110   1.802
94763W        W66379  12.150  25.645  13.353
94764W        W66380   1.025  10.934  13.423
94765W        W66381  30.303  18.755   4.606
94766W        W66382   2.912  21.483   5.472
94767W        W66383  18.590  21.515   4.938
94768W        W66384   8.711  27.933   2.403
94769W        W66385  13.265  34.624  12.012
94770W        W66386  22.462  28.988  14.603
94771W        W66387  37.452  41.236   3.095
94772W        W66388  25.423  29.679   4.656
94773W        W66389  16.334   1.306  13.529
94774W        W66390   7.957   2.482  12.464
94775W        W66391  31.690   1.017   3.638
94776W        W66392   3.720  24.114  12.386
94777W        W66393  36.589  39.255   4.150
94778W        W66394  40.590  14.182   4.024
94779W        W66395  11.667  42.065   3.746
94780W        W66396  13.130  28.681  10.413
94781W        W66397  39.056  16.726  11.624
94782W        W66398  26.666  18.394   0.418
94783W        W66399  10.658  37.806  14.716
94784W        W66400  39.890  15.646   4.522
94785W        W66401   0.886  33.086  10.636
94786W        W66402   3.992   5.538   3.743
94787W        W66403  13.107  38.660   1.212
94788W        W66404  29.446   4.716  10.709
94789W        W66405  16.558  39.647   1.688
94790W        W66406  16.865  22.975  12.467
94791W        W66407  31.007  40.051   3.723
94792W        W66408   2.474  13.050  14.929
94793W        W66409  27.954  40.197  10.632
94794W        W66410  22.389  39.769  13.800
94795W        W66411   8.357  10.272  11.042
94796W        W66412  34.609  17.316  12.313
94797W        W66413  30.369  16.515  13.488
94798W        W66414  30.371  41.380   4.208
94799W        W66415   1.415   5.829  14.077
94800W        W66416   5.261  39.054   4.694
94801W        W66417  31.005  32.693  14.990
94802W        W66418  28.139  38.855  11.688
94803W        W66419   1.352  17.316   0.833
94804W        W66420  18.599   0.379   1.180
94805W        W66421   4.892   5.797  12.652
94806W        W66422  17.556  35.925   3.663
94807W        W66423  28.984   5.639  13.273
94808W        W66424  16.022  23.076  11.407
94809W        W66425  17.324  31.999  13.434
94810W        W66426  41.905  11.130  14.396
94811W        W66427  10.309   6.141   2.126
94812W        W66428  36.985  26.594  12.429
94813W        W66429   1.653  43.901  12.432
94814W        W66430  12.678  24.221  11.545
94815W        W66431  23.502   3.470   0.930
94816W        W66432  15.118  11.121  13.517
94817W        W66433  31.151   7.145  11.096
94818W        W66434  23.438  39.988  12.404
94819W        W66435   2.544  16.798  12.083
94820W        W66436  29.844   1.790   3.325
94821W        W66437   9.198  34.152   4.709
94822W        W66438   8.182  16.530  11.941
94823W        W66439  29.511  26.690  14.386
94824W        W66440  26.116  12.769   3.798
94825W        W66441  30.515  27.591   1.422
94826W        W66442  35.097  10.650   4.070
94827W        W66443  12.073  24.689  12.883
94828W        W66444  16.794  43.373   9.876
94829W        W66445   2.078  37.879  12.568
94830W        W66446  43.683  39.594  11.007
94831W        W66447  42.332  23.369   0.217
94832W        W66448  11.634  35.696  12.974
94833W        W66449  26.736  36.415   4.058
94834W        W66450   4.096   0.584  10.180
94835W        W66451   0.340   4.373   1.184
94836W        W66452   3.262  33.450  12.576
94837W        W66453   3.668  15.037   2.294
94838W        W66454  11.806  16.815   0.856
94839W        W66455  15.266   5.894   2.341
94840W        W66456  25.116  28.446   2.372
94841W        W66457  37.976   3.407   2.796
94842W        W66458   3.999   7.314  14.032
94843W        W66459  37.109  38.740  12.434
94844W        W66460  30.133  12.966   4.805
94845W        W66461  44.955  32.035  13.388
94846W        W66462  17.318   9.558  12.631
94847W        W66463   2.764   9.713  10.732
94848W        W66464  31.441   6.175   0.951
94849W        W66465   4.729  31.459  11.843
94850W        W66466  28.775  19.109   2.277
94851W        W66467  43.550  30.533  10.699
94852W        W66468  41.359  30.784   3.191
94853W        W66469  30.584  19.165   3.417
94854W        W66470  39.910   6.296  13.965
94855W        W66471  29.546  37.635   0.409
94856W        W66472  13.233  29.597  10.975
94857W        W66473   3.617  29.077   2.668
94858W        W66474   2.450  13.585   1.243
94859W        W66475  40.467  19.999   3.298
94860W        W66476  43.082  13.265  10.479
94861W        W66477  41.684   7.816   1.584
94862W        W66478  31.387  28.992  12.396
94863W        W66479  15.514  23.090  11.454
94864W        W66480  40.542   8.450   1.801
94865W        W66481  42.819  12.841   4.580
94866W        W66482   1.491  39.022  14.435
94867W        W66483  30.576  38.342  10.865
94868W        W66484   2.528  13.236   0.854
94869W        W66485   5.409  22.216  12.055
94870W        W66486  25.210  43.658  12.686
94871W        W66487   4.624  15.736  11.671
94872W        W66488  20.977  13.302   3.868
94873W        W66489  10.440  13.761   4.522
94874W        W66490  39.511  16.471  11.609
94875W        W66491  15.664   3.720  11.283
94876W        W66492  19.164  19.643  10.743
94877W        W66493   1.080  33.547   5.079
94878W        W66494  37.987  27.701  12.129
94879W        W66495  17.261  40.086  13.516
94880W        W66496  24.455  29.037   3.597
94881W        W66497  40.304   6.320  10.748
94882W        W66498  10.149  22.598  12.997
94883W        W66499  41.559  13.852   4.231
94884W        W66500  10.404  42.434  14.838
94885W        W66501  29.250   8.071  14.398
94886W        W66502  37.033  16.988  12.349
94887W        W66503   1.463  27.559   4.083
94888W        W66504  38.840  10.376   0.844
94889W        W66505  35.578  40.911   3.860
94890W        W66506  37.318  27.476  12.962
94891W        W66507  24.047  24.481  14.405
94892W        W66508  32.757  44.684   0.754
94893W        W66509  34.595   8.679  10.697
94894W        W66510  43.254  29.695   2.341
94895W        W66511  16.782  28.190   1.072
94896W        W66512  29.910  35.710  12.556
94897W        W66513  18.068  25.985   2.046
94898W        W66514  26.150  20.769  11.173
94899W        W66515  27.441   3.616  11.442
94900W        W66516  27.949  22.731   5.055
94901W        W66517  30.605   0.236   3.693
94902W        W66518  27.003  33.820  11.928
94903W        W66519  42.680  40.418  13.801
94904W        W66520   4.177  12.050  12.865
94905W        W66521  13.057  16.112  10.983
94906W        W66522  37.656  16.284   1.271
94907W        W66523   3.191  27.513   0.784
94908W        W66524  31.506  40.899   2.819
94909W        W66525  35.351   9.025  14.632
94910W        W66526  40.277  17.258  14.838
94911W        W66527   2.028  16.681   1.009
94912W        W66528  27.200  12.348  10.944
94913W        W66529  14.215  16.765   3.124
94914W        W66530  17.628  39.235   3.474
94915W        W66531   7.863  24.531   4.158
94916W        W66532   4.220  14.107  11.501
94917W        W66533   4.198  22.245   1.461
94918W        W66534   6.785  19.807   4.671
94919W        W66535  42.795   1.990  13.951
94920W        W66536  26.082  28.379   4.553
94921W        W66537  25.514  15.348  11.924
94922W        W66538  43.022  35.412  10.484
94923W        W66539  15.348  38.383  13.461
94924W        W66540   2.397  43.034   3.458
94925W        W66541   1.450  32.067  12.491
94926W        W66542  33.652  38.989  11.326
94927W        W66543   0.743  22.467   1.786
94928W        W66544  44.820   1.672   2.777
94929W        W66545  14.243  18.892   3.577
94930W        W66546  29.329  16.762   1.269
94931W        W66547  16.836   3.941   4.191
94932W        W66548  42.979  35.973   2.268
94933W        W66549  40.250  31.983   0.457
94934W        W66550  33.153  35.083   0.339
94935W        W66551  29.500  35.523   1.020
94936W        W66552   6.456  23.472  12.624
94937W        W66553  24.937  42.886   0.362
94938W        W66554  16.325  16.157   5.017
94939W        W66555   4.752  21.746   1.259
94940W        W66556  26.886  19.649  10.443
94941W        W66557  25.809  19.709   1.678
94942W        W66558  28.944   3.771   3.347
94943W        W66559  18.604  31.445   1.085
94944W        W66560  35.472  33.047  10.599
94945W        W66561   1.787   2.735   1.705
94946W        W66562   0.307  32.317   3.328
94947W        W66563  41.048  14.412  11.616
94948W        W66564   4.299   8.412  10.627
94949W        W66565  30.463  25.129  14.257
94950W        W66566  19.584  44.809   4.320
94951W        W66567  25.451  32.483   1.355
94952W        W66568   4.757  28.638  12.107
94953W        W66569   7.664  42.477  12.499
94954W        W66570  44.729  27.029  11.867
94955W        W66571  20.586   3.258  13.064
94956W        W66572   5.209   9.459   0.867
94957W        W66573   9.357  12.923   1.855
94958W        W66574  17.766   8.903   2.223
94959W        W66575  32.587  22.296  13.889
94960W        W66576  19.131  24.208  14.406
94961W        W66577  41.515   2.003  14.344
94962W        W66578   5.897  42.389  14.002
94963W        W66579   1.536  19.321   0.995
94964W        W66580  10.737   7.324   2.375
94965W        W66581   3.454   4.654  14.962
94966W        W66582  23.075  11.960  12.542
94967W        W66583  43.788  18.685   3.062
94968W        W66584  13.643  25.722   0.939
94969W        W66585  35.032   8.252   1.101
94970W        W66586  42.369   7.173   0.933
94971W        W66587  13.545   5.953   2.691
94972W        W66588  29.932  28.931   4.640
94973W        W66589  32.100  14.308  12.951
94974W        W66590  19.716  40.758  13.855
94975W        W66591  39.469  43.837   2.818
94976W        W66592  16.252  15.325  10.579
94977W        W66593   0.920   4.471   4.060
94978W        W66594  41.185   0.038   0.151
94979W        W66595  13.620  41.331   3.163
94980W        W66596  42.446   6.153  11.498
94981W        W66597  14.858  36.961  14.301
94982W        W66598  42.108  25.364   1.767
94983W        W66599  33.107  19.169  10.224
94984W        W66600  44.016   6.321  13.760
94985W        W66601  15.561  41.358   2.629
94986W        W66602  18.010  29.602  14.215
94987W        W66603  23.563  38.735  14.917
94988W        W66604  24.898  29.257   4.045
94989W        W66605  25.001  35.388  10.694
94990W        W66606  34.943  27.091  12.400
94991W        W66607  14.101  24.928   2.005
94992W        W66608  15.624  25.783   1.803
94993W        W66609  36.009   5.850  10.753
94994W        W66610   0.787  27.702   2.385
94995W        W66611  21.967   4.737   4.816
94996W        W66612  23.044  11.262   3.602
94997W        W66613  36.878   9.923   3.754
94998W        W66614   0.167   7.333  13.200
94999W        W66615   6.914   8.363   2.724
95000W        W66616  33.020   2.743   0.799
95001W        W66617  23.829  27.134   2.301
95002W        W66618  12.322   9.857   3.642
95003W        W66619  34.591  31.537   4.157
95004W        W66620  20.583  33.117  11.598
95005W        W66621  29.393  12.574   1.963
95006W        W66622  33.326   7.086   9.862
95007W        W66623  38.392  36.091  11.928
95008W        W66624  38.982  15.544   4.234
95009W        W66625  24.542   0.753  12.489
95010W        W66626   9.107  18.290   1.419
95011W        W66627  20.980   1.742   2.317
95012W        W66628  29.659   3.835  13.304
95013W        W66629   0.188  32.619   3.750
95014W        W66630  28.732  34.006  11.654
95015W        W66631   1.873  12.070  14.148
95016W        W66632   8.105  44.432   2.857
95017W        W66633   8.294  41.405  13.490
95018W        W66634   7.363  15.809   2.415
95019W        W66635  41.335   5.700   0.053
95020W        W66636  18.499   7.973   4.059
95021W        W66637  44.830  29.895   5.013
95022W        W66638  34.622   3.572  11.070
95023W        W66639  38.901  41.559  12.752
95024W        W66640  23.605  36.514   0.298
95025W        W66641   3.400  13.701   3.363
95026W        W66642  14.597  13.684  10.957
95027W        W66643   6.213  20.769  12.552
95028W        W66644  22.502  27.699  12.277
95029W        W66645  21.731  25.756   0.406
95030W        W66646  35.955  17.292   3.679
95031W        W66647  20.508  13.660   4.229
95032W        W66648  41.291  36.485   1.234
95033W        W66649   6.654   8.233   4.849
95034W        W66650  35.688  31.366   3.205
95035W        W66651  37.358   9.514  13.574
95036W        W66652  18.313  42.967   3.654
95037W        W66653   4.944  15.350  11.593
95038W        W66654  17.257  10.811   3.651
95039W        W66655  32.800  25.668  12.857
95040W        W66656   9.271  21.544   0.117
95041W        W66657   9.148   2.153  11.697
95042W        W66658  42.596   5.120  11.533
95043W        W66659   0.770  28.804  14.319
95044W        W66660  33.960  21.715  13.090
95045W        W66661  36.521  39.387   2.271
95046W        W66662  40.896  13.575  12.065
95047W        W66663   7.042  23.649   4.545
95048W        W66664  22.504   7.257  10.933
95049W        W66665   8.856  39.383  12.596
95050W        W66666  15.739   8.871  11.918
95051W        W66667  27.038  15.850   4.077
95052W        W66668  15.068   6.835   0.872
95053W        W66669  36.811  22.474   2.747
95054W        W66670  34.445  36.419   0.767
95055W        W66671  39.349  25.240   1.253
95056W        W66672  32.906  44.074  13.398
95057W        W66673  27.427  19.302  11.168
95058W        W66674  43.030  13.118   3.427
95059W        W66675  42.288   0.546  12.006
95060W        W66676  35.608  26.154  10.798
95061W        W66677  41.856   8.269   1.347
95062W        W66678  40.933  10.436  11.852
95063W        W66679  25.032  34.009  12.411
95064W        W66680  35.838   6.034   3.213
95065W        W66681   3.029   4.162  13.078
95066W        W66682  34.739  41.960  11.672
95067W        W66683  14.309  26.583  13.357
95068W        W66684  17.034  25.281   4.144
95069W        W66685  18.085  26.216   4.183
95070W        W66686  14.107  11.281  10.964
95071W        W66687   4.519  11.790   0.183
95072W        W66688  19.068  13.522  12.450
95073W        W66689   8.142  16.795  14.934
95074W        W66690  42.432   4.405   1.314
95075W        W66691  41.370   7.921  13.950
95076W        W66692  43.275  39.021   3.795
95077W        W66693   5.558  20.525  11.218
95078W        W66694  38.792  12.122   3.819
95079W        W66695  16.126   5.264  14.017
95080W        W66696  14.723  17.799  13.076
95081W        W66697  28.963  16.071   2.366
95082W        W66698  36.873  11.702   3.177
95083W        W66699   9.842  18.046   0.054
95084W        W66700  30.910  16.169  12.445
95085W        W66701  26.700  12.260   2.801
95086W        W66702  38.280   7.601   0.864
95087W        W66703  18.507  27.461  12.454
95088W        W66704   8.379  16.827   0.404
95089W        W66705  37.565  12.608  12.902
95090W        W66706  32.082   1.395   4.409
95091W        W66707  28.499   8.517   0.391
95092W        W66708  38.088  43.434  13.912
95093W        W66709  24.643  44.794  13.588
95094W        W66710   2.476  26.176   3.657
95095W        W66711  21.788  26.982  13.788
95096W        W66712  25.680  30.157  11.270
95097W        W66713  16.938  41.978  11.213
95098W        W66714  41.955  44.522   2.828
95099W        W66715  43.740  19.580   4.203
95100W        W66716  26.515  26.156  12.517
95101W        W66717  29.320  43.274  14.259
95102W        W66718  28.945  37.974   3.800
95103W        W66719  41.899  30.703  14.519
95104W        W66720  22.552  23.194   2.806
95105W        W66721   3.373  34.919   3.685
95106W        W66722  36.621  10.199  13.343
95107W        W66723   6.278  21.113  12.187
95108W        W66724  27.266  19.560  10.776
95109W        W66725  28.462   2.481   0.213
95110W        W66726  15.698  28.001   1.941
95111W        W66727  23.460  10.131  13.403
95112W        W66728  34.850  25.742  11.152
95113W        W66729  29.674  28.166  12.476
95114W        W66730  10.652  37.306  12.939
95115W        W66731   2.972  41.575   3.804
95116W        W66732  38.905  32.891   0.973
95117W        W66733  26.548  17.832   1.705
95118W        W66734  21.311  32.113   0.822
95119W        W66735   8.867  31.629   0.335
95120W        W66736  22.640   4.757   0.743
95121W        W66737  27.110   1.618   2.625
95122W        W66738   4.525   8.195  12.604
95123W        W66739  22.170  31.792   4.564
95124W        W66740  19.800  33.028   4.746
95125W        W66741  38.441  41.945   4.622
95126W        W66742  38.746  10.289  10.347
95127W        W66743  30.899   3.842   0.851
95128W        W66744   6.951   1.338  13.538
95129W        W66745  38.307  37.525   0.823
95130W        W66746  30.595  12.761   4.014
95131W        W66747   8.713  30.652  10.604
95132W        W66748  40.101  35.389  12.467
95133W        W66749   0.404  33.648   3.764
95134W        W66750  10.239  28.674  14.445
95135W        W66751  20.241  44.120  10.464
95136W        W66752   1.478  20.112  14.998
95137W        W66753   0.470  31.149   2.661
95138W        W66754  40.261  39.359  10.944
95139W        W66755   6.993  42.844  12.078
95140W        W66756  28.580  38.897   1.435
95141W        W66757   4.363  31.681   0.891
95142W        W66758  25.969  14.584   1.008
95143W        W66759  42.983  30.700  14.387
95144W        W66760   6.260   7.967  12.595
95145W        W66761   1.023   9.271  14.874
95146W        W66762  36.764   8.313   1.227
95147W        W66763  16.530  44.295  12.648
95148W        W66764  37.416  17.539   0.816
95149W        W66765  30.120  38.354   2.787
95150W        W66766  26.091  20.695  10.679
95151W        W66767  41.313  11.334  11.122
95152W        W66768  12.059  16.014  13.213
95153W        W66769  44.992  25.736  10.574
95154W        W66770  31.244  22.304  13.538
95155W        W66771  23.638   5.614  14.974
95156W        W66772  16.650  34.518   3.335
95157W        W66773  27.629  32.837  11.051
95158W        W66774  16.659   8.319  12.153
95159W        W66775  41.099  13.173   3.336
95160W        W66776  36.813  27.282  14.376
95161W        W66777  27.960   2.831   4.671
95162W        W66778  34.314  24.836   1.242
95163W        W66779   5.464  31.923   3.751
95164W        W66780   1.851  20.116   4.456
95165W        W66781  22.587   5.421   0.468
95166W        W66782  11.700  16.265   2.421
95167W        W66783  19.385   1.151   1.744
95168W        W66784  20.585  15.059  14.889
95169W        W66785   8.570  24.486   0.532
95170W        W66786  19.189  41.428   3.207
95171W        W66787  13.635   9.761   4.891
95172W        W66788  15.047  41.439   1.286
95173W        W66789  23.668  11.995  14.256
95174W        W66790  15.242   7.341   2.744
95175W        W66791  28.968  18.387  11.550
95176W        W66792  40.284  36.015  11.091
95177W        W66793  26.060  15.484  14.849
95178W        W66794   0.161   0.941  14.937
95179W        W66795  31.420  33.998  11.667
95180W        W66796  31.902  16.324  13.054
95181W        W66797  40.006  41.305   1.786
95182W        W66798  22.089  35.912  13.262
95183W        W66799  16.589  42.175   4.691
95184W        W66800   0.239  19.228   2.654
95185W        W66801  33.130   7.787  12.564
95186W        W66802  38.485  12.931  10.728
95187W        W66803  32.876  39.753   1.249
95188W        W66804  19.183  44.910   5.092
95189W        W66805  17.799  38.266   4.594
95190W        W66806  10.412  29.621   0.878
95191W        W66807   1.369  21.746  14.010
95192W        W66808  32.451   1.415   4.041
95193W        W66809  31.997  44.270  11.906
95194W        W66810  36.478  18.267  14.090
95195W        W66811   1.820  24.605   5.312
95196W        W66812  33.589  19.681  14.437
95197W        W66813  17.096  27.533  12.487
95198W        W66814  15.050  38.953  12.529
95199W        W66815  28.735  27.745   5.520
95200W        W66816  18.201  14.766   0.064
95201W        W66817  21.523  10.804   0.212
95202W        W66818  31.598  31.457  12.879
95203W        W66819  44.814  37.750   5.610
95204W        W66820  24.876   9.116   4.568
95205W        W66821  28.061  13.825   3.358
95206W        W66822  30.676  10.286  12.814
95207W        W66823  28.683   9.360  10.700
95208W        W66824  33.084  29.583   2.949
95209W        W66825  37.027  33.263  12.906
95210W        W66826   6.657   7.781   0.272
95211W        W66827   9.390  17.108  12.069
95212W        W66828  36.573  37.736   0.988
95213W        W66829  12.939  16.075   1.821
95214W        W66830  22.957  36.133  11.566
95215W        W66831  32.610  16.130  10.775
95216W        W66832  31.203   2.798  14.346
95217W        W66833  18.672   1.242  11.529
95218W        W66834  10.576   0.479   1.184
95219W        W66835   6.684  41.887  10.889
95220W        W66836  24.230   7.662   0.018
95221W        W66837  31.455   6.252  13.128
95222W        W66838  35.044  23.194  13.892
95223W        W66839  26.544  32.725   0.493
95224W        W66840   5.327  25.861  11.529
95225W        W66841  30.087   2.154   2.720
95226W        W66842  12.730  17.167  11.640
95227W        W66843   2.658  22.256   3.791
95228W        W66844   4.280   3.861  12.715
95229W        W66845  35.145  32.108  14.550
95230W        W66846  25.065   4.843  11.957
95231W        W66847  43.935  26.136   2.073
95232W        W66848  32.049  44.850  12.964
95233W        W66849  20.086   5.601   1.163
95234W        W66850  39.536   4.363   4.329
95235W        W66851  41.475  30.756   1.849
95236W        W66852  13.814  43.197   2.438
95237W        W66853  15.625  20.823   0.966
95238W        W66854  23.644   0.379   1.551
95239W        W66855   5.949   8.292   4.075
95240W        W66856  28.342  21.778  13.998
95241W        W66857  10.476  36.893   0.501
95242W        W66858  22.559  32.448   2.398
95243W        W66859  12.357  36.011   1.839
95244W        W66860  24.445  41.003   4.816
95245W        W66861  41.333  44.461  11.535
95246W        W66862  34.101  26.752  14.996
95247W        W66863  29.536  17.996  12.126
95248W        W66864  27.159   5.458   4.923
95249W        W66865  44.361  36.097   0.027
95250W        W66866   4.848   9.667  10.207
95251W        W66867  30.116  34.336  13.061
95252W        W66868  26.221  39.437  13.317
95253W        W66869  43.477   3.887   3.629
95254W        W66870  30.133  42.756   3.200
95255W        W66871  32.275   9.725   0.399
95256W        W66872  38.356   5.954   1.382
95257W        W66873  40.952  41.469   0.807
95258W        W66874  32.100  15.034  13.881
95259W        W66875  38.388  24.061   3.134
95260W        W66876   0.246  28.471   0.468
95261W        W66877  29.432  28.623  12.546
95262W        W66878  34.419  32.985   1.717
95263W        W66879  13.349  20.868   4.819
95264W        W66880  22.765  44.432   2.675
95265W        W66881   3.955  42.395  11.951
95266W        W66882   7.822  17.120   2.538
95267W        W66883   5.745  11.888  14.512
95268W        W66884  15.334   7.604   1.163
95269W        W66885  34.590  17.223   2.509
95270W        W66886  29.704  33.995  12.512
95271W        W66887  23.027  16.838  12.927
95272W        W66888  42.848  34.544   4.297
95273W        W66889  17.606   2.387  14.781
95274W        W66890   6.685  44.982  13.462
95275W        W66891  37.891  10.167  10.543
95276W        W66892  39.769  15.435  14.902
95277W        W66893  17.184  38.604   1.278
95278W        W66894  37.954   2.801   0.974
95279W        W66895  21.908  17.848   4.469
95280W        W66896  30.867  44.408  11.059
95281W        W66897  30.937  42.293   2.209
95282W        W66898   0.831  11.597  14.441
95283W        W66899  22.033  30.727  10.749
95284W        W66900   3.949  37.802   4.160
95285W        W66901  14.513  24.042   1.455
95286W        W66902  22.333  21.961   4.181
95287W        W66903  19.680  24.109   2.804
95288W        W66904  17.322   1.702  10.600
95289W        W66905  39.006  44.793   1.906
95290W        W66906  44.973  35.632   2.673
95291W        W66907  27.931   8.915  12.476
95292W        W66908  29.903  36.563  14.727
95293W        W66909  39.750  31.692   2.404
95294W        W66910  30.172  43.940   2.594
95295W        W66911  27.730  28.574   2.692
95296W        W66912   6.165  20.829  13.525
95297W        W66913  19.609  28.986   1.497
95298W        W66914  11.398  11.556   3.656
95299W        W66915   6.977  43.732  14.421
95300W        W66916  44.892  33.262  11.117
95301W        W66917  27.059  40.980   4.030
95302W        W66918   7.641  13.365   3.399
95303W        W66919  17.187  28.770  11.613
95304W        W66920   4.706  29.640  10.616
95305W        W66921  28.935  22.196  11.095
95306W        W66922  29.114  37.979   1.310
95307W        W66923  15.385  41.860  11.037
95308W        W66924  37.809  34.368  11.984
95309W        W66925  13.596  40.308   2.173
95310W        W66926  41.461  39.735   1.787
95311W        W66927  37.101  38.107  13.905
95312W        W66928   9.299  26.114   2.029
95313W        W66929  11.835  33.088  10.958
95314W        W66930  31.785   2.387   5.518
95315W        W66931  35.393  42.074   0.847
95316W        W66932  44.427  10.897  13.835
95317W        W66933  27.535  25.759  11.122
95318W        W66934  42.465  29.754  10.942
95319W        W66935  38.334  44.937  11.775
95320W        W66936   6.015   6.224  14.519
95321W        W66937   7.318  30.627  14.317
95322W        W66938  24.207  41.947   2.921
95323W        W66939  42.547  27.130  10.647
95324W        W66940  20.201  15.938  13.324
95325W        W66941  42.300  10.642  12.511
95326W        W66942  28.547  25.186  11.553
95327W        W66943   9.136  41.828   4.585
95328W        W66944   9.203   7.944   0.093
95329W        W66945  14.155  13.183   3.902
95330W        W66946  41.644  13.789   0.436
95331W        W66947  19.873   8.317   3.704
95332W        W66948  38.983  13.617  14.209
95333W        W66949  11.684  27.158   4.781
95334W        W66950   4.778  25.775  13.118
95335W        W66951  32.728  42.776   2.207
95336W        W66952  44.027   6.345  12.017
95337W        W66953   1.987  40.863  12.384
95338W        W66954  33.061  11.754   1.999
95339W        W66955   8.464  14.875  14.876
95340W        W66956  23.322   9.753   1.044
95341W        W66957   3.932   9.165  10.302
95342W        W66958  38.276  41.936  11.621
95343W        W66959  20.145   7.873   0.905
95344W        W66960  30.789  11.687   4.292
95345W        W66961  30.732   8.286  13.626
95346W        W66962   8.170  42.057  13.911
95347W        W66963  43.964  29.858  13.390
95348W        W66964  11.407  29.639  12.022
95349W        W66965  32.347  31.971  11.992
95350W        W66966  26.731   2.407  14.075
95351W        W66967  39.208   1.629   1.365
95352W        W66968   0.190  33.034   0.731
95353W        W66969  35.912  20.204  13.627
95354W        W66970  16.641  22.405  11.478
95355W        W66971  26.892   6.817  13.961
95356W        W66972   0.169  14.245  11.755
95357W        W66973  33.849  12.589  12.434
95358W        W66974   5.241  26.920   2.379
95359W        W66975   9.050   6.832  12.451
95360W        W66976  33.200  18.870  14.269
95361W        W66977  34.577   9.885  12.079
95362W        W66978  17.208   2.447  11.718
95363W        W66979  40.794   6.722   4.562
95364W        W66980  31.525  28.665   3.157
95365W        W66981  15.147  18.705  12.986
95366W        W66982  10.392  18.771  14.738
95367W        W66983  11.601  42.174   1.211
95368W        W66984  25.429  17.642  10.401
95369W        W66985  29.940  31.354   1.019
95370W        W66986  29.947  37.470  14.118
95371W        W66987  37.380   3.981   1.791
95372W        W66988  35.607  10.303   2.170
95373W        W66989  22.510  36.995  12.579
95374W        W66990  44.996   6.259   3.372
95375W        W66991  37.840  17.238  12.916
95376W        W66992  39.284  22.252  13.903
95377W        W66993  38.015  27.194   3.367
95378W        W66994  33.556   6.709  11.488
95379W        W66995   9.628  28.724  12.382
95380W        W66996  37.789  11.501  14.815
95381W        W66997   0.529   2.397  12.471
95382W        W66998  16.367  19.017  12.865
95383W        W66999  39.649   1.356   1.458
95384W        W67000  13.316   0.683   2.415
95385W        W67001   9.724   3.931   2.675
95386W        W67002  29.465  31.924  13.881
95387W        W67003  36.755  22.702  13.664
95388W        W67004   2.693  37.453   4.133
95389W        W67005  14.279   6.759  11.310
95390W        W67006  35.469  22.703   0.091
95391W        W67007  24.086  27.206   0.262
95392W        W67008  34.307  26.321  10.994
95393W        W67009  42.002  15.295  10.710
95394W        W67010  22.665  17.551   3.736
95395W        W67011  38.157  30.308   0.473
95396W        W67012   7.910  28.070   2.953
95397W        W67013   4.505  10.521   4.592
95398W        W67014  25.795  24.072   3.900
95399W        W67015  36.453  36.045   2.204
95400W        W67016  20.753  33.426  11.113
95401W        W67017   6.468  20.017  14.738
95402W        W67018  19.262  21.732   4.498
95403W        W67019  42.479  27.544   3.238
95404W        W67020   1.663  31.742   1.194
95405W        W67021  36.484  40.207  14.911
95406W        W67022  13.142  22.419  11.573
95407W        W67023  14.983   1.712  13.719
95408W        W67024  11.299  13.385   2.356
95409W        W67025  28.153  30.635   0.930
95410W        W67026  36.538  41.342  12.335
95411W        W67027  30.373  12.545   0.902
95412W        W67028  16.653  29.989   3.078
95413W        W67029  26.950  30.448   2.008
95414W        W67030  20.080   4.449  14.916
95415W        W67031   0.979   5.185  14.381
95416W        W67032  13.344  26.423  10.197
95417W        W67033  16.709  40.314   0.313
95418W        W67034  39.051  17.749  13.403
95419W        W67035   5.955  11.672   0.492
95420W        W67036   9.148   3.454  14.257
95421W        W67037  22.788  31.984  14.386
95422W        W67038   9.541  31.222  11.451
95423W        W67039  27.160  39.248   1.128
95424W        W67040   1.340  44.439   3.397
95425W        W67041  23.276  36.951   0.461
95426W        W67042   0.524   9.169   1.344
95427W        W67043  18.278  11.165   0.332
95428W        W67044   6.156  20.170   4.702
95429W        W67045  11.428   4.904  14.552
95430W        W67046  26.583  29.106   1.691
95431W        W67047  22.557  39.568  10.710
95432W        W67048  12.925  32.117   0.615
95433W        W67049  20.616  12.078   0.707
95434W        W67050  18.280  32.448   0.412
95435W        W67051  44.522  43.298  11.570
95436W        W67052  11.783   7.873  14.283
95437W        W67053   1.309   0.330  14.076
95438W        W67054  24.729  14.204  11.524
95439W        W67055  35.588  34.890  14.522
95440W        W67056  28.255  21.160   1.813
95441W        W67057  35.612  41.474  13.826
95442W        W67058   5.582  39.834  13.995
95443W        W67059  20.482  11.200  11.311
95444W        W67060   4.664  40.495   1.284
95445W        W67061  33.688  36.911  12.506
95446W        W67062  39.050  10.709   5.049
95447W        W67063  23.331  10.381   2.167
95448W        W67064  12.749  29.387   0.762
95449W        W67065  30.253  43.961   4.321
95450W        W67066   9.975   5.355  11.461
95451W        W67067   9.718  20.741  11.138
95452W        W67068  21.562   7.940   4.589
95453W        W67069  16.140   3.857  12.836
95454W        W67070   7.645   7.560  11.218
95455W        W67071  23.042   7.112   0.318
95456W        W67072  34.473  41.583   2.789
95457W        W67073  32.522  27.179  12.392
95458W        W67074  34.832  12.483  12.724
95459W        W67075  41.895  34.890   3.252
95460W        W67076  15.064  11.220  12.867
95461W        W67077   2.979  39.526  11.154
95462W        W67078  35.967   0.439   2.651
95463W        W67079  34.675   2.767   0.588
95464W        W67080  22.084  20.220  14.007
95465W        W67081  40.677  34.802   1.162
95466W        W67082  18.250  24.036   0.464
95467W        W67083  44.911  39.405   1.898
95468W        W67084  38.255  14.051  12.912
95469W        W67085  44.739   7.315   2.345
95470W        W67086  17.279  20.187  14.703
95471W        W67087   7.752  40.408  10.963
95472W        W67088  37.990  22.525   0.239
95473W        W67089   8.313  38.420   3.815
95474W        W67090  39.989  36.960   0.449
95475W        W67091  29.964  26.610   9.894
95476W        W67092  17.201  14.648  12.929
95477W        W67093  36.987   4.815   4.569
95478W        W67094  30.073  38.571  10.943
95479W        W67095   1.622   5.873  13.619
95480W        W67096  35.301  44.353  12.009
95481W        W67097  18.695  33.155  14.438
95482W        W67098  34.702  31.079   1.369
95483W        W67099  28.099  30.322  10.306
95484W        W67100   9.283  39.328  14.745
95485W        W67101   9.878  32.824   2.742
95486W        W67102  13.132  10.672  12.416
95487W        W67103  21.154   1.732   0.226
95488W        W67104  40.833   7.939  11.692
95489W        W67105  24.166  33.432  14.777
95490W        W67106  35.318  37.910   1.003
95491W        W67107  19.709  41.494  12.589
95492W        W67108  17.965  22.032  11.090
95493W        W67109  10.516  28.287   2.263
95494W        W67110  21.659  12.183   2.820
95495W        W67111  44.233   6.539   0.779
95496W        W67112  33.995  34.454   2.462
95497W        W67113  16.001  17.158  12.889
95498W        W67114  21.587  21.282   0.460
95499W        W67115   7.933  16.282   2.006
95500W        W67116  44.445  38.096  10.999
95501W        W67117  36.814  22.755   1.925
95502W        W67118  41.089  43.078  12.444
95503W        W67119  35.447   4.226   2.255
95504W        W67120  34.747  22.998   0.128
95505W        W67121  23.207   7.334  14.397
95506W        W67122  33.408  42.141  10.930
95507W        W67123  33.888  10.836  14.391
95508W        W67124  23.583  17.616  13.019
95509W        W67125  24.443  25.084  13.688
95510W        W67126  41.361   9.391   3.966
95511W        W67127  13.334  36.259   2.142
95512W        W67128  12.583  38.471   1.940
95513W        W67129  37.038  33.577   0.707
95514W        W67130  19.841  39.909  14.827
95515W        W67131  44.020  29.522  13.016
95516W        W67132  36.165   0.914  11.465
95517W        W67133   9.861   8.673  14.156
95518W        W67134  23.645  29.875  13.089
95519W        W67135  11.551  41.977  14.846
95520W        W67136  25.105  11.431   1.554
95521W        W67137  22.457  22.681  11.913
95522W        W67138  19.716  33.623  10.633
95523W        W67139  14.570  13.242  12.921
95524W        W67140   4.694  43.187   3.689
95525W        W67141  29.238  36.846  14.374
95526W        W67142  43.488   0.451   2.913
95527W        W67143  25.298  28.560   1.892
95528W        W67144  23.591  35.945  12.522
95529W        W67145   4.992  10.038   3.105
95530W        W67146  32.108  22.671  13.317
95531W        W67147  13.358   1.693   3.195
95532W        W67148  42.466  41.364  11.635
95533W        W67149   0.761  10.268   5.268
95534W        W67150   9.852   2.932   2.436
95535W        W67151   2.221  44.116  11.094
95536W        W67152  31.996   9.989  12.727
95537W        W67153  39.646   7.187   3.043
95538W        W67154  37.854  37.458   2.669
95539W        W67155   6.582  44.684   2.366
95540W        W67156  40.562  10.342  10.442
95541W        W67157  25.540   2.541   4.299
95542W        W67158   3.324  25.932  13.823
95543W        W67159  25.898   7.416   4.396
95544W        W67160  19.415  27.939  12.089
95545W        W67161  38.871  22.557  13.021
95546W        W67162  39.487  44.917   4.667
95547W        W67163   8.597  22.164  14.325
95548W        W67164  12.313  41.703   0.787
95549W        W67165  42.359  12.100  11.535
95550W        W67166  27.510  36.558  14.671
95551W        W67167  27.611   9.848  10.867
95552W        W67168  25.139  11.865   2.863
95553W        W67169  31.649   6.328  14.168
95554W        W67170  36.492  39.083  10.687
95555W        W67171  36.519  18.069   1.003
95556W        W67172  10.698  40.594   1.608
95557W        W67173  31.564  41.146   2.354
95558W        W67174  30.653  36.973   3.820
95559W        W67175   3.468  11.343   2.202
95560W        W67176  30.035  39.395   4.481
95561W        W67177  28.171  30.581  10.758
95562W        W67178  24.795  34.491  12.498
95563W        W67179   3.368  31.028   2.649
95564W        W67180  40.740  43.258  10.861
95565W        W67181  31.476   1.493  12.055
95566W        W67182   0.690  16.227  11.040
95567W        W67183  30.407  28.715   2.168
95568W        W67184  28.609  27.459  14.949
95569W        W67185   1.200  36.840  13.530
95570W        W67186  32.913  40.388   4.447
95571W        W67187  19.453  21.268  11.182
95572W        W67188   7.338  16.073  10.756
95573W        W67189  10.041   5.922   0.782
95574W        W67190   8.677  30.596   2.304
95575W        W67191  34.503  28.160  11.498
95576W        W67192  38.335  13.523   3.495
95577W        W67193  25.765   6.960   2.661
95578W        W67194   6.656  13.568   0.465
95579W        W67195   2.692  40.481  12.015
95580W        W67196   0.792  38.923   2.337
95581W        W67197  11.556   1.838   1.427
95582W        W67198  13.397  10.852  14.611
95583W        W67199  28.502   8.156  11.561
95584W        W67200  21.802  16.337   4.293
95585W        W67201  24.690  40.503   0.348
95586W        W67202  19.416   6.905  12.123
95587W        W67203  11.642   0.258   0.306
95588W        W67204  41.844  42.362  11.458
95589W        W67205   5.825  26.594   3.353
95590W        W67206  13.991   9.329  14.383
95591W        W67207  34.482  27.690   2.658
95592W        W67208   5.505  43.904  12.894
95593W        W67209  30.517  14.784   3.188
95594W        W67210  29.305  26.121   1.453
95595W        W67211  42.696   7.770  11.674
95596W        W67212   1.869  21.710   0.851
95597W        W67213  43.769  26.092  10.338
95598W        W67214   6.682  33.072  13.387
95599W        W67215  40.802   3.441   0.853
95600W        W67216   0.223  26.187  11.856
95601W        W67217  22.156  10.789  10.836
95602W        W67218   7.452   2.918   1.541
95603W        W67219   5.312  40.420   2.696
95604W        W67220  17.264  29.679  10.562
95605W        W67221  20.238   4.980  14.983
95606W        W67222  35.317  12.525  13.952
95607W        W67223  33.761  28.094  13.924
95608W        W67224  25.032  35.850   3.338
95609W        W67225  25.734  16.934  13.660
95610W        W67226  21.036   7.547   3.809
95611W        W67227  41.358  43.935   1.750
95612W        W67228  11.301   4.812   2.704
95613W        W67229  44.759  25.380  11.966
95614W        W67230  39.567   1.380  11.966
95615W        W67231  29.443   8.733  10.404
95616W        W67232  12.163   6.374  13.044
95617W        W67233  15.128  41.234  10.740
95618W        W67234  21.716   9.898   3.183
95619W        W67235  32.087   0.303   0.323
95620W        W67236  23.182   4.401   1.313
95621W        W67237  42.327  27.968   2.402
95622W        W67238   8.931  30.663  12.558
95623W        W67239  44.876  11.239   1.455
95624W        W67240  22.980  18.546  14.834
95625W        W67241  12.503  39.127  13.545
95626W        W67242   7.264  20.580   2.667
95627W        W67243  20.710  19.274   4.743
95628W        W67244   0.224  18.734  13.911
95629W        W67245  12.117  38.935  10.942
95630W        W67246  18.785   5.985  13.970
95631W        W67247  39.077   7.331   4.146
95632W        W67248  21.015  29.577   3.690
95633W        W67249  18.544  43.920   0.791
95634W        W67250   1.719  38.439   0.243
95635W        W67251  12.676   0.196  12.818
95636W        W67252  21.984  33.105  11.503
95637W        W67253  18.761   5.092   9.915
95638W        W67254  41.840  39.564   2.311
95639W        W67255  26.949  31.482  12.386
95640W        W67256   1.048  22.586  13.892
95641W        W67257  31.086  43.819  14.349
95642W        W67258  43.289  21.122  11.587
95643W        W67259  25.032  24.604  14.391
95644W        W67260  21.953  35.931   4.940
95645W        W67261  35.372  22.030   4.105
95646W        W67262  36.828   6.036  12.872
95647W        W67263  16.492   1.237   3.636
95648W        W67264  44.769   9.427  11.646
95649W        W67265  28.686  42.445  14.350
95650W        W67266   9.432   3.613  11.182
95651W        W67267  10.770  27.096   2.651
95652W        W67268   7.500  20.282   5.057
95653W        W67269  32.910  40.382   3.587
95654W        W67270  44.226   2.499  11.967
95655W        W67271  18.720   8.163   0.635
95656W        W67272  12.220  24.888  11.109
95657W        W67273  12.056  38.517   0.449
95658W        W67274  21.069  35.558   3.855
95659W        W67275  21.101  15.875   2.753
95660W        W67276  35.585  32.152  13.611
95661W        W67277  26.699  16.150  12.458
95662W        W67278  19.706  43.819  11.858
95663W        W67279  15.718   8.896  11.367
95664W        W67280  15.655  35.030  12.335
95665W        W67281  12.091  25.555  14.394
95666W        W67282  26.157  33.933   1.782
95667W        W67283  37.818  37.300   0.843
95668W        W67284   0.289  11.222  13.458
95669W        W67285  40.838  11.299  11.238
95670W        W67286  11.801  30.642  10.225
95671W        W67287  10.292  18.112  13.527
95672W        W67288   0.028  38.900  13.442
95673W        W67289  29.471  21.872   1.440
95674W        W67290  38.042  11.156   0.101
95675W        W67291  42.715  40.983  10.037
95676W        W67292  34.406   7.118  10.686
95677W        W67293  12.313  36.089   0.054
95678W        W67294  32.038  41.639  11.173
95679W        W67295  34.149  30.534  11.131
95680W        W67296  36.949  18.923   2.682
95681W        W67297  14.136  24.626   3.851
95682W        W67298  33.892  31.461   1.432
95683W        W67299  34.670  26.792  10.287
95684W        W67300  33.453  14.567   4.762
95685W        W67301  19.307  31.914   1.121
95686W        W67302  16.546  13.402   3.720
95687W        W67303  17.301   1.401  12.375
95688W        W67304   3.367  17.304   2.304
95689W        W67305   8.385  20.186   3.082
95690W        W67306  44.461  42.291   0.726
95691W        W67307  20.494  33.231  14.892
95692W        W67308  18.681  28.019  11.473
95693W        W67309   2.427  35.629  10.670
95694W        W67310  33.167   2.426   3.631
95695W        W67311   1.734  30.370   0.688
95696W        W67312   4.672  26.484   4.172
95697W        W67313  11.584  25.444   2.256
95698W        W67314  15.522  42.389   1.320
95699W        W67315  24.491  31.035   1.409
95700W        W67316  16.364  33.212  11.913
95701W        W67317  14.654  30.812   4.067
95702W        W67318  44.745  11.139  11.442
95703W        W67319  27.590   0.196   0.746
95704W        W67320  28.944  37.998  10.872
95705W        W67321  40.996   8.816  12.175
95706W        W67322  10.088  32.391  13.349
95707W        W67323  23.676   9.250   0.340
95708W        W67324  11.323  30.935   1.796
95709W        W67325  20.671  38.866   0.406
95710W        W67326  23.060  18.707   3.716
95711W        W67327  20.762  44.182   3.088
95712W        W67328   5.178  19.838   3.188
95713W        W67329   2.937  36.140  11.202
95714W        W67330   2.939  16.992   4.361
95715W        W67331   7.297  19.710   2.150
95716W        W67332  42.340  40.939  14.123
95717W        W67333   4.029  15.309  10.965
95718W        W67334  26.594  30.992   0.907
95719W        W67335  14.480   6.411  10.140
95720W        W67336  27.644  37.811  11.129
95721W        W67337  14.422  29.560  14.299
95722W        W67338  38.056  25.292   3.218
95723W        W67339  28.553  27.706  14.492
95724W        W67340  14.431  24.067   1.966
95725W        W67341  13.225  32.802   4.468
95726W        W67342   5.239  21.042   9.786
95727W        W67343  13.725  44.326  14.487
95728W        W67344   0.743  43.797   4.345
95729W        W67345   0.815   0.248   0.481
95730W        W67346   7.296  18.431  13.229
95731W        W67347  28.511  35.333  14.539
95732W        W67348  43.219   0.881   0.289
95733W        W67349  24.456  40.264  12.365
95734W        W67350  20.653  42.452  12.473
95735W        W67351  18.249  41.991   2.656
95736W        W67352  34.641   6.745   4.101
95737W        W67353  35.624  26.185  13.361
95738W        W67354  33.417  17.563  12.915
95739W        W67355   0.402  25.551  12.596
95740W        W67356   2.364  41.264   4.568
95741W        W67357   5.218  17.820  14.542
95742W        W67358  33.456  37.884   2.412
95743W        W67359  34.806  32.480   4.230
95744W        W67360  21.613  15.718   5.088
95745W        W67361  34.059  33.110   4.544
95746W        W67362  24.058  22.697   4.332
95747W        W67363  41.944  31.300   4.621
95748W        W67364  10.330   3.035  14.520
95749W        W67365   5.742  19.190   1.733
95750W        W67366  22.990  32.446   3.649
95751W        W67367  21.657  38.916   3.229
95752W        W67368  40.254  22.150   4.163
95753W        W67369   0.490  14.104  13.592
95754W        W67370  26.429  44.498  13.862
95755W        W67371  10.226  33.662   2.763
95756W        W67372  23.763  10.560  15.000
95757W        W67373  22.306  35.322  14.502
95758W        W67374  31.571  30.885   5.611
95759W        W67375  38.184   2.642  11.103
95760W        W67376  16.683  15.548   2.446
95761W        W67377  38.907  22.890  14.369
95762W        W67378  21.909  35.601   2.678
95763W        W67379   9.380  26.309  12.443
95764W        W67380  27.854  16.388   5.330
95765W        W67381  36.439   7.440  14.411
95766W        W67382   9.607   8.223   0.957
95767W        W67383  37.387  14.793  11.711
95768W        W67384   3.381  42.930  10.952
95769W        W67385  37.741   5.297  10.553
95770W        W67386  19.074  11.860   2.795
95771W        W67387  39.470   9.087   3.221
95772W        W67388  14.558   2.863   0.883
95773W        W67389  15.604  41.337  13.797
95774W        W67390  13.286  26.252   2.606
95775W        W67391  34.144  27.517   3.512
95776W        W67392   2.951   1.795   1.751
95777W        W67393  17.720   5.267   2.413
95778W        W67394   4.787   0.745   4.690
95779W        W67395  23.704  15.355   3.693
95780W        W67396  24.166  43.030  13.870
95781W        W67397   5.275  44.852   1.847
95782W        W67398  43.095  18.355  13.606
95783W        W67399  25.689   4.221   1.286
95784W        W67400   1.506  22.017  13.041
95785W        W67401  25.063  34.582   3.675
95786W        W67402  41.393  31.610   4.136
95787W        W67403   0.747  16.520   3.278
95788W        W67404  35.641  22.561  11.996
95789W        W67405  35.673  23.587   4.221
95790W        W67406   7.161  20.129   0.714
95791W        W67407  34.423  22.263  14.761
95792W        W67408   6.625  31.366   0.779
95793W        W67409  40.916  33.353  14.548
95794W        W67410  30.600  25.614   0.132
95795W        W67411  19.310  44.235  11.937
95796W        W67412   4.236  40.466   3.786
95797W        W67413  11.800  42.407   0.791
95798W        W67414  10.336  41.423   3.580
95799W        W67415   6.758  28.842   1.472
95800W        W67416   1.709  10.635  13.922
95801W        W67417   3.712  24.716  13.904
95802W        W67418  36.503  41.944  12.930
95803W        W67419   6.634  42.879  10.760
95804W        W67420  17.783  32.138   4.605
95805W        W67421  33.949   0.793  10.510
95806W        W67422  42.060  33.941   0.473
95807W        W67423  20.709  26.091   1.745
95808W        W67424  36.833   7.312   3.705
95809W        W67425  23.051  15.574  12.709
95810W        W67426  29.539  31.850  10.817
95811W        W67427  14.407   0.394  13.590
95812W        W67428  23.197  39.309   4.096
95813W        W67429  10.222  11.951   4.090
95814W        W67430  11.083  33.482   1.880
95815W        W67431  42.970  18.588   4.597
95816W        W67432  39.244  35.043   0.904
95817W        W67433  32.123  20.221   0.504
95818W        W67434  10.620   4.807  11.197
95819W        W67435  33.125  44.045   4.929
95820W        W67436  24.565  35.500   0.671
95821W        W67437  16.694  37.644  12.852
95822W        W67438   2.395  42.275  12.944
95823W        W67439  26.614  20.761   3.441
95824W        W67440   1.869  40.256  13.833
95825W        W67441   0.848  19.562  13.892
95826W        W67442  14.676   3.937  10.974
95827W        W67443  44.871  21.791  11.046
95828W        W67444  33.562   2.838   0.866
95829W        W67445  30.055   4.582   2.310
95830W        W67446  42.514   4.357   4.826
95831W        W67447  29.242  31.408  12.995
95832W        W67448   6.211  23.056  14.690
95833W        W67449  25.240  15.790   1.193
95834W        W67450   1.319  15.074   0.683
95835W        W67451  12.739  37.303  13.941
95836W        W67452  44.827   5.132   1.487
95837W        W67453  24.697  36.985   3.578
95838W        W67454  28.579  43.517   1.931
95839W        W67455   6.255  14.493  13.350
95840W        W67456  17.615  32.723  11.562
95841W        W67457  28.728  23.081   0.846
95842W        W67458  21.310  29.243  13.192
95843W        W67459  37.400  44.728   2.641
95844W        W67460  10.898  35.002   1.421
95845W        W67461  28.237  28.515   0.907
95846W        W67462  25.637   2.066   4.519
95847W        W67463  15.423  40.883  14.005
95848W        W67464  18.408  43.389   5.059
95849W        W67465   4.882  34.837   1.881
95850W        W67466  13.783   2.699  11.253
95851W        W67467  20.237  21.256   3.602
95852W        W67468  35.163  29.386   3.709
95853W        W67469  25.932  35.353   1.823
95854W        W67470  15.150   6.487   4.171
95855W        W67471   3.810  35.117  14.979
95856W        W67472  43.592  25.481  12.361
95857W        W67473  13.408   9.874   3.597
95858W        W67474  37.934  33.574  10.989
95859W        W67475  18.270  17.268  11.525
95860W        W67476  25.083  37.652   2.830
95861W        W67477  29.231  31.083  14.981
95862W        W67478  24.180  37.563   1.382
95863W        W67479  39.008  29.014  14.002
95864W        W67480   6.334  26.524  11.075
95865W        W67481  30.243  36.544   1.628
95866W        W67482  26.656  13.068   4.002
95867W        W67483  42.747   8.637   4.884
95868W        W67484  25.136   3.473  13.962
95869W        W67485  23.499  18.702   0.794
95870W        W67486  10.280  12.285  11.015
95871W        W67487  34.710  19.169  13.451
95872W        W67488  42.022  30.547  10.701
95873W        W67489   1.196  44.847  14.227
95874W        W67490  29.158  37.445   3.108
95875W        W67491  43.536  15.687  12.160
95876W        W67492  25.356  17.002   4.831
95877W        W67493  41.388  26.070   0.866
95878W        W67494   6.536  33.924  13.342
95879W        W67495  26.171  27.848  13.504
95880W        W67496   7.408  22.944   2.682
95881W        W67497  24.247  44.415  12.427
95882W        W67498  42.527  42.429  13.554
95883W        W67499   3.537   5.227  11.614
95884W        W67500  39.332  13.135  12.939
95885W        W67501  12.447   5.987  13.255
95886W        W67502   4.293   9.894  12.075
95887W        W67503   5.729  22.206  10.493
95888W        W67504  33.513  29.577   0.770
95889W        W67505   9.856  41.469  14.378
95890W        W67506  13.706  21.960  11.770
95891W        W67507  22.784  22.428  12.413
95892W        W67508  16.063   4.900   0.965
95893W        W67509  24.972  11.818  10.763
95894W        W67510  37.358   8.432  14.436
95895W        W67511  23.871  20.269  12.461
95896W        W67512  16.638  43.072   5.117
95897W        W67513  19.091  24.009  12.952
95898W        W67514  12.742  10.432   1.335
95899W        W67515   9.939  18.799   3.617
95900W        W67516  16.590  19.081  10.274
95901W        W67517  31.480   1.077  14.675
95902W        W67518  18.607  35.721   5.080
95903W        W67519  14.109  17.230  13.743
95904W        W67520  30.879  34.018  11.580
95905W        W67521  37.564  43.898  11.692
95906W        W67522  16.136   0.451  10.279
95907W        W67523  17.758  19.144   0.416
95908W        W67524   9.836  36.423  14.935
95909W        W67525   0.804  18.210  12.413
95910W        W67526  11.890  13.878  11.582
95911W        W67527  33.327   4.698   4.121
95912W        W67528   4.935  30.356   0.711
95913W        W67529  39.485  11.703  11.867
95914W        W67530  32.032  40.873   4.527
95915W        W67531  35.350  20.532   0.877
95916W        W67532   1.308  37.650   3.435
95917W        W67533  24.593  10.272  10.519
95918W        W67534  30.064   5.331   0.062
95919W        W67535  44.385  37.988  11.508
95920W        W67536  26.547  24.725  11.681
95921W        W67537  32.984  14.080   2.643
95922W        W67538  29.425  40.617  11.417
95923W        W67539  23.566  36.787  12.954
95924W        W67540   1.918   9.955  14.322
95925W        W67541   4.872  19.243   5.011
95926W        W67542  27.376  28.576  12.392
95927W        W67543  31.962  38.815   2.314
95928W        W67544   3.913  10.133  14.236
95929W        W67545  23.217  41.912  13.059
95930W        W67546  31.880  25.952  12.584
95931W        W67547  16.055  30.691   0.865
95932W        W67548  19.637  21.640  12.478
95933W        W67549   1.794  23.674   1.997
95934W        W67550  35.008  27.113   0.721
95935W        W67551   6.768  20.486   1.314
95936W        W67552  11.132  11.234   3.182
95937W        W67553  34.210   8.349  13.284
95938W        W67554  21.276  32.238  14.451
95939W        W67555  18.385  35.805  14.996
95940W        W67556  17.111  28.708  13.021
95941W        W67557  31.921  24.149   3.705
95942W        W67558  11.244  18.062   2.426
95943W        W67559  14.797  18.119  12.404
95944W        W67560  17.185  39.094  11.648
95945W        W67561   5.168  32.144  10.697
95946W        W67562  41.781  35.010  13.909
95947W        W67563  37.341  44.795  14.330
95948W        W67564  34.112  41.512   2.376
95949W        W67565  18.297   1.835   1.278
95950W        W67566  24.235   5.326   2.346
95951W        W67567   6.443   5.445   3.799
95952W        W67568  10.331  31.780  10.008
95953W        W67569  22.256  20.454   0.956
95954W        W67570  17.034  34.559  10.362
95955W        W67571  21.649  30.636  13.900
95956W        W67572  27.502  14.724  14.081
95957W        W67573   5.045  41.521  14.738
95958W        W67574  34.462  40.003  13.067
95959W        W67575  33.161  40.871  13.479
95960W        W67576   4.247  31.605  11.717
95961W        W67577  12.774  19.742   4.585
95962W        W67578  34.931  28.343   4.448
95963W        W67579  36.913  33.896   4.325
95964W        W67580   5.376  35.350  12.511
95965W        W67581  33.413  10.751   2.389
95966W        W67582  16.172  28.578   0.923
95967W        W67583  12.545  34.363   3.254
95968W        W67584   0.854  23.506  13.263
95969W        W67585  40.170  21.301   2.891
95970W        W67586   3.769   5.724   3.276
95971W        W67587  35.423  35.841   4.905
95972W        W67588  35.522  38.075   2.735
95973W        W67589  17.080  12.431  12.860
95974W        W67590  27.428  10.380  12.618
95975W        W67591  11.660   7.882  10.637
95976W        W67592   4.022  40.589  14.902
95977W        W67593   5.371  31.203  13.407
95978W        W67594  34.668  24.938   4.318
95979W        W67595  33.326  22.205   4.517
95980W        W67596   0.813   4.514   0.957
95981W        W67597  28.590   4.209   4.585
95982W        W67598  32.567  30.922  11.703
95983W        W67599  13.225   4.423  12.986
95984W        W67600  44.507   9.206   0.485
95985W        W67601   8.206  10.825  12.876
95986W        W67602  11.312  17.142  13.258
95987W        W67603  26.516   8.811   0.787
95988W        W67604  10.211   4.028  14.325
95989W        W67605  11.689   7.499  12.687
95990W        W67606  11.340  33.022   2.676
95991W        W67607   2.044   7.336  14.385
95992W        W67608  26.180  25.808   1.570
95993W        W67609  27.139  16.563   1.727
95994W        W67610  16.066  29.979  14.464
95995W        W67611  27.515  44.576   3.670
95996W        W67612  26.714  37.501  10.740
95997W        W67613  28.880  18.758   4.549
95998W        W67614  43.344  18.451  14.051
95999W        W67615  32.712  24.426  12.595
96000W        W67616  15.344  36.432  10.829
96001W        W67617   2.460  31.925  14.504
96002W        W67618   8.580  18.141   2.226
96003W        W67619  35.431   3.323   4.310
96004W        W67620  42.866  30.940   4.579
96005W        W67621  41.240  27.552   2.687
96006W        W67622   2.961  34.288  10.651
96007W        W67623  32.530   4.529  13.687
96008W        W67624  20.164  13.757   3.708
96009W        W67625   7.666  32.499   0.006
96010W        W67626  10.348  25.190  12.470
96011W        W67627  34.388  38.884   0.690
96012W        W67628  11.782  42.841  10.983
96013W        W67629  40.403  15.231  12.933
96014W        W67630  42.595   8.307  12.378
96015W        W67631   1.246   9.228  12.627
96016W        W67632  20.178  33.581   0.593
96017W        W67633  24.547  33.584   0.136
96018W        W67634  33.500  13.203  13.725
96019W        W67635  15.281  21.531   1.792
96020W        W67636   8.581  32.770  13.915
96021W        W67637  43.613   8.686  12.963
96022W        W67638  10.316   9.821  14.647
96023W        W67639   7.275  17.079  13.444
96024W        W67640   9.214  19.527  14.849
96025W        W67641   9.644  43.458  13.898
96026W        W67642  13.356  31.312   4.473
96027W        W67643  25.481  43.521   2.214
96028W        W67644  40.908  38.736  12.031
96029W        W67645  14.547  16.641  12.360
96030W        W67646  12.374  43.465   2.338
96031W        W67647  19.217   3.445  13.542
96032W        W67648  31.013  36.604   4.713
96033W        W67649  43.701   8.693   1.428
96034W        W67650   8.600  18.539  11.517
96035W        W67651  41.552  30.220  12.610
96036W        W67652  23.199  41.922  10.539
96037W        W67653  22.636   7.101   4.121
96038W        W67654  16.762   4.953  10.903
96039W        W67655   9.616  18.809  13.487
96040W        W67656  40.833  25.057  13.312
96041W        W67657  29.999  42.862  10.413
96042W        W67658  41.302  30.966  11.541
96043W        W67659  30.423  24.065   1.982
96044W        W67660  41.924   9.238   4.137
96045W        W67661  28.678  26.568   3.342
96046W        W67662  33.545   9.698  10.755
96047W        W67663  17.350   2.883  13.892
96048W        W67664   0.990   1.650   3.301
96049W        W67665  25.261  10.597  10.653
96050W        W67666  14.734  27.703   4.296
96051W        W67667  37.034  21.005  11.087
96052W        W67668  43.005  36.926   2.629
96053W        W67669  13.770  37.803   4.635
96054W        W67670  28.977  35.850   3.667
96055W        W67671   4.418  21.990   5.072
96056W        W67672  25.249  35.916  13.883
96057W        W67673  13.923  32.483  11.521
96058W        W67674  34.435  26.543   4.752
96059W        W67675   2.909  14.158   0.952
96060W        W67676   4.867  41.309  12.572
96061W        W67677   7.722  10.855  12.312
96062W        W67678  31.863  23.959  10.942
96063W        W67679  10.782  43.047  14.546
96064W        W67680  44.552  32.425  12.588
96065W        W67681   7.410   4.538  11.605
96066W        W67682  13.605   6.196  13.949
96067W        W67683  33.321  25.543  11.938
96068W        W67684  21.678  36.376   2.270
96069W        W67685   2.941   8.892   2.720
96070W        W67686  11.649  34.473   1.293
96071W        W67687  30.797  41.447   2.723
96072W        W67688  12.264  12.378   0.746
96073W        W67689  14.921  23.249  12.118
96074W        W67690  35.575  37.305  12.581
96075W        W67691  14.365  33.132  13.491
96076W        W67692  34.604   0.298   1.222
96077W        W67693  41.956  30.490   2.236
96078W        W67694  32.560  43.038   4.469
96079W        W67695  12.092  24.035  14.266
96080W        W67696  11.301  18.231  13.478
96081W        W67697  12.271  40.959   1.998
96082W        W67698  13.076  32.523  13.438
96083W        W67699   1.245  17.673  13.709
96084W        W67700  13.598  42.792   0.344
96085W        W67701   9.740  29.378  12.959
96086W        W67702   4.279  41.543  14.444
96087W        W67703  37.801  39.068   4.928
96088W        W67704  26.945  31.045   1.308
96089W        W67705  43.141   3.820  14.316
96090W        W67706  19.687  19.013   0.048
96091W        W67707  34.619  37.076  12.643
96092W        W67708   2.419  11.130  13.937
96093W        W67709  21.106  26.647  11.127
96094W        W67710  21.649  14.777   0.449
96095W        W67711  37.271  35.361   3.817
96096W        W67712  12.332  20.728   0.943
96097W        W67713  38.768  36.085  14.329
96098W        W67714  15.521  26.080  11.117
96099W        W67715  34.118  19.358  14.980
96100W        W67716   0.479  14.562  14.441
96101W        W67717  18.045   4.931  12.144
96102W        W67718   1.391  34.306  14.038
96103W        W67719  10.164  24.724  11.277
96104W        W67720  37.634   8.711  14.811
96105W        W67721  43.298  20.304   1.807
96106W        W67722  25.574  12.320   1.346
96107W        W67723   9.518  19.580  10.965
96108W        W67724   6.615   8.591  14.881
96109W        W67725  15.180  25.216  11.163
96110W        W67726  32.634  38.783   1.021
96111W        W67727   5.161  30.133  12.526
96112W        W67728  30.047  11.614   2.815
96113W        W67729  33.543  40.311  11.061
96114W        W67730  26.485  17.152   2.367
96115W        W67731  30.000  10.593   2.723
96116W        W67732  21.021   1.002   3.571
96117W        W67733   5.434  29.595   2.660
96118W        W67734   6.093   0.964  13.538
96119W        W67735  25.622  10.711   3.125
96120W        W67736   6.929   0.730  13.862
96121W        W67737  16.484  18.669  14.476
96122W        W67738  39.312  35.533  14.397
96123W        W67739  43.427  14.338   0.295
96124W        W67740  14.557  28.947  13.865
96125W        W67741  42.102  22.514   4.878
96126W        W67742   7.489  31.186   0.546
96127W        W67743   4.332  20.836  10.938
96128W        W67744  33.022  20.771   1.344
96129W        W67745  26.650  20.246   3.178
96130W        W67746  37.503  28.107   1.861
96131W        W67747  26.014  27.683   0.931
96132W        W67748  18.478  39.599  12.057
96133W        W67749   9.519  23.744   1.550
96134W        W67750  27.390  15.869  11.445
96135W        W67751  24.303  18.523  11.507
96136W        W67752  35.323  11.308  10.751
96137W        W67753  32.465   1.556   9.834
96138W        W67754  22.260  12.914  11.139
96139W        W67755   3.896  32.612  10.902
96140W        W67756  43.601  21.176   4.977
96141W        W67757  24.081   4.067   3.636
96142W        W67758   9.077   1.703   0.882
96143W        W67759  10.023   8.305  12.885
96144W        W67760   0.729  26.851   2.774
96145W        W67761   0.935  39.303  10.603
96146W        W67762  28.338  33.116   5.008
96147W        W67763  41.988  27.710  14.259
96148W        W67764   3.132   6.478   1.950
96149W        W67765  23.473  27.582   3.961
96150W        W67766  44.738  33.991  12.042
96151W        W67767  39.124  21.814  11.951
96152W        W67768  13.729   0.521   2.751
96153W        W67769   8.887  22.301   3.681
96154W        W67770  17.562  12.107   1.965
96155W        W67771  44.919   8.691   3.667
96156W        W67772  28.642  30.570  14.017
96157W        W67773  16.770  16.800   4.583
96158W        W67774   0.661  28.078  11.617
96159W        W67775   6.107  17.400   3.343
96160W        W67776   0.303  21.702  11.360
96161W        W67777  12.180  32.107  12.008
96162W        W67778  39.898  36.993  14.170
96163W        W67779   9.609  33.363  12.141
96164W        W67780  20.992  27.484   1.304
96165W        W67781  36.431  25.355   4.223
96166W        W67782  38.285   4.777  14.795
96167W        W67783  32.114   3.577  13.862
96168W        W67784  22.107  39.590  12.960
96169W        W67785  40.322  28.121   4.520
96170W        W67786   0.772   5.903   1.828
96171W        W67787  22.314  15.346   3.670
96172W        W67788  27.828   8.918  10.708
96173W        W67789  21.057  12.507   3.668
96174W        W67790  33.491  30.431   3.165
96175W        W67791  37.870   8.512  12.416
96176W        W67792  29.198   2.866  14.827
96177W        W67793  29.589  12.646  13.407
96178W        W67794  16.014  22.092   0.503
96179W        W67795  22.033  25.777  10.582
96180W        W67796   3.715   6.700  13.106
96181W        W67797   2.274   3.761   4.169
96182W        W67798  32.631  14.901   1.969
96183W        W67799  42.883  40.461  13.186
96184W        W67800  35.540  30.964   4.742
96185W        W67801  44.072  26.289   1.618
96186W        W67802  34.644   0.941   2.607
96187W        W67803  24.455  10.949   0.424
96188W        W67804   7.628  35.966  12.936
96189W        W67805   5.109  15.084  11.993
96190W        W67806  21.088  37.054  10.731
96191W        W67807  14.914   6.107  10.226
96192W        W67808  30.466  18.188  13.130
96193W        W67809  27.233   5.947   4.670
96194W        W67810   1.878  37.232   3.720
96195W        W67811  14.739  34.305   1.231
96196W        W67812  37.116   2.301   0.794
96197W        W67813  36.895  21.283   0.346
96198W        W67814  15.711  12.033  12.177
96199W        W67815  14.181   4.919   2.456
96200W        W67816   7.174  19.646   4.300
96201W        W67817  44.653  19.112   1.797
96202W        W67818  16.880   9.574  14.720
96203W        W67819  28.021  21.439   3.139
96204W        W67820   8.571   9.097  14.594
96205W        W67821  12.132  11.314  11.146
96206W        W67822  21.512  39.026  12.369
96207W        W67823  40.323  40.901   1.951
96208W        W67824  10.898   6.890   4.190
96209W        W67825  25.625  25.012  14.491
96210W        W67826  10.666  41.564   2.384
96211W        W67827  12.113   7.300  12.081
96212W        W67828   5.226  20.205  12.501
96213W        W67829  37.460  10.387  11.166
96214W        W67830  14.160  19.208  10.916
96215W        W67831   8.406  15.055  13.670
96216W        W67832   0.026  41.810   2.225
96217W        W67833  40.566  31.138   3.762
96218W        W67834   9.137  26.618   3.469
96219W        W67835  10.852  40.418   2.700
96220W        W67836  20.606  34.624   0.150
96221W        W67837  19.199  10.402  10.799
96222W        W67838  37.378  18.594  12.946
96223W        W67839  21.242  27.727  13.864
96224W        W67840  30.557  29.717  12.984
96225W        W67841  38.064  30.683   3.188
96226W        W67842  28.506   4.838  12.070
96227W        W67843  25.516   7.377  10.399
96228W        W67844  17.470  12.710  11.216
96229W        W67845   5.858  24.925   5.130
96230W        W67846  24.212  26.047  12.363
96231W        W67847  34.048   5.404   1.186
96232W        W67848  37.723   9.241   0.396
96233W        W67849   1.348  28.499  13.598
96234W        W67850   4.666  31.656   1.346
96235W        W67851   1.466   3.193   1.732
96236W        W67852  26.987  35.894  11.925
96237W        W67853  19.143  38.669  13.835
96238W        W67854  13.131  27.133   2.760
96239W        W67855   8.127   3.718  10.624
96240W        W67856  23.797  23.831  14.308
96241W        W67857  26.337  12.649  13.264
96242W        W67858  17.108  17.191   4.204
96243W        W67859  33.660  17.260  13.341
96244W        W67860  33.152  25.035   3.328
96245W        W67861  25.970  39.346  12.882
96246W        W67862  11.267  27.610   1.423
96247W        W67863  12.713  24.502   1.391
96248W        W67864  15.735  16.307   9.811
96249W        W67865  29.014  26.493  10.938
96250W        W67866  36.726   1.819   4.668
96251W        W67867  42.021  23.227   2.785
96252W        W67868  29.482  17.202   0.157
96253W        W67869  10.629   8.725   2.780
96254W        W67870  15.231  32.357  11.955
96255W        W67871  15.637  10.683  14.970
96256W        W67872  44.403   4.962  13.936
96257W        W67873  21.329  11.675  11.995
96258W        W67874   9.135   9.117   3.425
96259W        W67875  26.152  12.713   1.000
96260W        W67876   2.327  11.795  14.510
96261W        W67877  26.542   1.310  10.976
96262W        W67878  13.203  29.173   0.937
96263W        W67879  25.599  29.643   3.330
96264W        W67880  21.709  43.384  14.758
96265W        W67881  22.782  16.806  12.341
96266W        W67882   4.852  30.606  11.570
96267W        W67883  34.920  29.266   0.523
96268W        W67884   8.416  12.269  11.459
96269W        W67885  37.878  23.630   2.617
96270W        W67886  27.392  36.312   1.398
96271W        W67887  27.825  44.391   4.879
96272W        W67888  20.514  35.684   4.107
96273W        W67889   9.171  26.928  11.981
96274W        W67890   0.526  18.801   1.831
96275W        W67891  24.471   8.806   4.630
96276W        W67892   6.723  20.317   4.647
96277W        W67893   7.007  40.954   4.891
96278W        W67894  19.986  20.168   3.922
96279W        W67895  16.792  18.682  13.030
96280W        W67896  43.321  43.037   4.708
96281W        W67897  28.047   2.405   4.968
96282W        W67898  33.892  39.709   3.840
96283W        W67899  37.838  44.223   4.711
96284W        W67900   6.416  27.227  14.881
96285W        W67901  38.409  40.447  14.659
96286W        W67902   3.992  24.070  11.114
96287W        W67903  31.856  14.806  12.097
96288W        W67904  13.272  31.454  11.142
96289W        W67905  13.351  42.218  14.422
96290W        W67906   3.005  22.578  14.847
96291W        W67907  36.136  41.951   4.175
96292W        W67908  24.571   1.069   1.730
96293W        W67909  41.468  32.650   3.558
96294W        W67910  16.847  24.237  14.926
96295W        W67911  17.658  22.644  10.244
96296W        W67912  38.792  43.002  11.992
96297W        W67913  24.600  29.409   2.261
96298W        W67914  38.099  40.199   2.761
96299W        W67915  41.788  17.016   0.801
96300W        W67916  31.361   9.373   1.797
96301W        W67917  27.712  28.967   4.897
96302W        W67918  13.362   0.444  14.664
96303W        W67919  40.957  22.200  11.618
96304W        W67920  17.125  17.188   9.843
96305W        W67921  36.440  35.558   3.603
96306W        W67922   2.849   8.984   1.711
96307W        W67923  41.255  40.779   0.523
96308W        W67924  22.244  17.817  13.018
96309W        W67925  23.755  16.631  13.496
96310W        W67926  27.077  12.496  14.554
96311W        W67927  23.516  29.461   2.098
96312W        W67928  37.431   0.771   1.537
96313W        W67929  23.764  37.044  13.358
96314W        W67930  42.854  13.882  10.832
96315W        W67931  42.194  24.193  13.063
96316W        W67932  26.047  35.448   0.935
96317W        W67933  11.248  21.567  11.197
96318W        W67934   2.359  39.234   1.847
96319W        W67935  40.441   1.883   3.625
96320W        W67936  20.698  28.143  11.827
96321W        W67937  43.433  20.097   3.099
96322W        W67938  39.285  30.647   1.044
96323W        W67939  14.697  33.945   2.050
96324W        W67940  41.340  32.461   1.542
96325W        W67941  27.592   0.717  10.741
96326W        W67942   4.112  36.921  13.409
96327W        W67943  42.953  33.188  11.181
96328W        W67944   7.235  37.446  13.142
96329W        W67945  26.192   4.238   1.325
96330W        W67946  36.099  13.373   1.226
96331W        W67947  23.624   2.648   3.660
96332W        W67948  23.943  15.642   0.777
96333W        W67949  41.994   8.977  12.137
96334W        W67950  15.575  12.852  12.029
96335W        W67951  20.206  35.477   1.684
96336W        W67952   0.841  12.558   1.149
96337W        W67953  43.991  13.980  13.368
96338W        W67954  39.716  24.018  10.492
96339W        W67955  19.125  14.086  11.208
96340W        W67956  11.110  23.209   1.276
96341W        W67957  23.935   8.385  11.351
96342W        W67958  34.920   5.827   0.692
96343W        W67959   4.980   7.855   0.890
96344W        W67960   2.806  36.321   3.287
96345W        W67961  36.602  21.672   0.047
96346W        W67962  13.021  21.595   1.717
96347W        W67963   7.673  13.043   0.431
96348W        W67964  43.207  17.958  12.271
96349W        W67965  21.028   4.272   2.313
96350W        W67966  24.440  17.190  12.018
96351W        W67967  12.617  12.323  14.955
96352W        W67968   7.714  41.230   1.888
96353W        W67969  35.421  15.595  13.846
96354W        W67970  20.207   9.262   0.627
96355W        W67971  17.166  37.838   2.304
96356W        W67972  38.484  31.610  11.512
96357W        W67973  26.920  10.564   1.773
96358W        W67974  28.534  22.782  13.049
96359W        W67975  18.599   5.208   0.318
96360W        W67976  11.839  14.657   4.892
96361W        W67977  12.178  26.240  13.960
96362W        W67978  24.321  15.985   0.724
96363W        W67979  19.755  17.172   4.951
96364W        W67980   4.277   2.729   4.097
96365W        W67981   0.857   0.429  10.666
96366W        W67982  19.542  38.912  10.192
96367W        W67983  30.002  31.042   3.255
96368W        W67984  30.428   1.569   4.976
96369W        W67985  31.520  20.179   4.378
96370W        W67986  13.726  39.624  10.449
96371W        W67987  17.249  27.551  14.622
96372W        W67988  17.751  29.651  10.752
96373W        W67989   8.705   4.462   3.271
96374W        W67990   5.972  17.055  13.555
96375W        W67991  10.303  10.014   0.134
96376W        W67992   6.784   4.971   1.811
96377W        W67993  30.982  31.637   2.770
96378W        W67994  13.810  13.249  14.037
96379W        W67995   7.860  27.432  14.286
96380W        W67996   0.608  21.163  13.325
96381W        W67997  28.969  13.856   5.308
96382W        W67998   8.218  23.073  12.419
96383W        W67999  19.770   1.331   3.305
96384W        W68000  42.185  16.510  12.058
96385W        W68001  16.179   1.843  12.451
96386W        W68002   6.810  16.601  10.710
96387W        W68003  38.996  23.146  11.920
96388W        W68004  29.121   9.874   2.026
96389W        W68005  41.362  44.829  12.617
96390W        W68006  37.917  13.678   0.041
96391W        W68007  20.886  11.868   4.552
96392W        W68008  35.562  33.829   2.775
96393W        W68009  31.142  30.146  12.600
96394W        W68010  17.733  25.778   1.439
96395W        W68011   2.943  26.742   3.021
96396W        W68012  11.768  19.317  10.970
96397W        W68013   0.727  33.344  12.460
96398W        W68014  32.486  44.781  11.997
96399W        W68015  23.730  21.624  13.120
96400W        W68016  37.103  23.669   2.316
96401W        W68017  44.332  15.864   2.149
96402W        W68018  23.391  24.414  11.108
96403W        W68019  15.371   9.211  14.779
96404W        W68020  20.263  33.115  12.893
96405W        W68021  24.489  30.758  10.471
96406W        W68022  10.151  41.015   3.847
96407W        W68023  29.418  11.932  13.089
96408W        W68024  41.431  41.587   3.764
96409W        W68025  31.524   9.223   4.123
96410W        W68026   0.712   7.291  10.579
96411W        W68027  36.594  24.890   4.093
96412W        W68028  24.775  42.228  14.800
96413W        W68029  32.059  12.400  14.854
96414W        W68030  39.514  15.680   4.159
96415W        W68031   6.701  29.686  11.110
96416W        W68032  23.598   6.264  12.533
96417W        W68033  29.191  33.912  14.957
96418W        W68034  35.717  23.414   0.471
96419W        W68035  40.066  19.798  14.284
96420W        W68036  32.346  36.419   3.722
96421W        W68037   3.316  26.512   4.775
96422W        W68038  23.529  43.939  12.556
96423W        W68039  34.495   0.454  13.924
96424W        W68040   6.988  41.482  10.669
96425W        W68041  32.257  44.886   0.077
96426W        W68042  32.085  34.269   1.810
96427W        W68043  43.188   7.353   4.122
96428W        W68044   1.281  10.160   4.926
96429W        W68045   7.941   3.558  12.484
96430W        W68046   4.395  19.538   2.809
96431W        W68047  17.362  21.088   3.634
96432W        W68048   8.194  10.665   3.748
96433W        W68049  44.299  29.703   0.490
96434W        W68050  32.298  42.312  12.937
96435W        W68051  24.416  13.359  12.896
96436W        W68052  16.574  44.768   0.194
96437W        W68053  18.653  37.673  12.119
96438W        W68054  35.396  14.782   1.942
96439W        W68055  16.690  34.107   3.632
96440W        W68056  27.922  41.925   2.349
96441W        W68057   0.470  22.983   5.061
96442W        W68058  27.677  10.125   3.113
96443W        W68059  44.096  23.671   3.180
96444W        W68060  16.562  37.523   3.511
96445W        W68061  24.493   2.617   4.209
96446W        W68062  25.666  16.652  14.475
96447W        W68063  31.424   9.864  14.948
96448W        W68064  15.783  31.905   4.852
96449W        W68065  39.260  41.276   4.525
96450W        W68066  24.083  40.366  14.993
96451W        W68067  42.808  27.450   1.283
96452W        W68068   1.323  12.375   3.323
96453W        W68069  40.981  21.524   3.763
96454W        W68070  42.031  21.120  14.789
96455W        W68071  32.674   2.195  11.438
96456W        W68072   4.829   8.862  13.584
96457W        W68073  16.047  11.958  13.937
96458W        W68074  10.611   8.901  11.241
96459W        W68075  31.419  28.995   1.378
96460W        W68076  23.661  38.583  13.430
96461W        W68077   8.358  33.291   2.151
96462W        W68078  41.966  38.979   4.003
96463W        W68079  32.660  30.568  13.065
96464W        W68080  44.585   6.498   2.418
96465W        W68081  35.115  22.736  12.918
96466W        W68082  25.381  15.442  11.431
96467W        W68083  33.878  21.497   0.889
96468W        W68084  41.759  44.296   3.323
96469W        W68085  15.098  11.709  14.855
96470W        W68086  18.045  29.136  12.393
96471W        W68087  21.775  31.574  11.549
96472W        W68088  35.008   2.903  10.646
96473W        W68089  40.822  13.152   2.462
96474W        W68090  23.586   7.065  13.587
96475W        W68091   9.763  11.830  11.715
96476W        W68092  19.581  10.727  13.363
96477W        W68093  44.501   0.151   3.722
96478W        W68094  33.662  44.339   9.856
96479W        W68095  40.552  39.019  14.468
96480W        W68096  17.637   1.887   2.213
96481W        W68097  35.490  28.078   0.886
96482W        W68098  14.869  41.026   1.992
96483W        W68099  20.835   7.923   5.101
96484W        W68100  17.589  21.254  13.075
96485W        W68101   9.681  33.335   2.041
96486W        W68102   3.768   0.420   0.636
96487W        W68103  16.384  39.390  11.551
96488W        W68104  39.032  35.684   2.151
96489W        W68105  44.156  11.811   4.174
96490W        W68106  28.182   8.707  14.941
96491W        W68107  39.760  31.290   0.080
96492W        W68108  33.583  38.882  10.813
96493W        W68109   0.769  18.311   3.661
96494W        W68110  21.885  32.140  11.526
96495W        W68111   5.174  27.086   1.309
96496W        W68112  31.714   1.212  10.320
96497W        W68113  30.532  31.100   3.202
96498W        W68114  37.933  29.934   4.304
96499W        W68115   2.877  16.143   3.681
96500W        W68116  22.096  28.314   3.658
96501W        W68117  17.312  21.556  13.431
96502W        W68118  11.859  16.331  11.519
96503W        W68119   3.273  15.268   4.738
96504W        W68120  44.479  18.231  13.914
96505W        W68121  27.726  41.564  11.975
96506W        W68122  44.753  34.135   0.877
96507W        W68123  33.934  21.321   0.349
96508W        W68124  37.317  19.946  13.910
96509W        W68125  18.151  22.941   0.576
96510W        W68126  18.407  42.570  12.021
96511W        W68127  15.541  22.603   1.334
96512W        W68128  26.660   6.383   2.580
96513W        W68129  22.931  20.228  12.217
96514W        W68130   0.358  12.372  10.542
96515W        W68131  31.575  10.327  12.738
96516W        W68132  21.653  19.344   2.924
96517W        W68133  21.442  23.490  12.183
96518W        W68134  25.954  42.312  13.608
96519W        W68135  40.663  17.502   0.129
96520W        W68136  31.123   0.344  10.640
96521W        W68137   3.236  43.572   9.868
96522W        W68138  26.517  43.321  11.168
96523W        W68139   7.727  19.785   1.800
96524W        W68140   0.513   5.543   3.115
96525W        W68141   8.795   8.806   3.166
96526W        W68142   3.237  29.163  11.349
96527W        W68143  39.413  29.033   1.912
96528W        W68144   6.926  34.330   3.377
96529W        W68145   2.357  13.322  10.758
96530W        W68146  37.242   9.657   9.979
96531W        W68147   3.334  16.731  12.475
96532W        W68148  16.378   8.141  12.567
96533W        W68149  10.194  41.904   3.737
96534W        W68150  14.854  25.696  11.589
96535W        W68151   1.031  35.117  14.809
96536W        W68152  23.255   2.966   2.778
96537W        W68153  12.353  31.994  13.560
96538W        W68154  22.457  27.159  12.030
96539W        W68155  38.895  28.669  14.406
96540W        W68156   9.838  40.946  12.920
96541W        W68157  15.721  22.265   0.909
96542W        W68158   5.263  39.008  14.323
96543W        W68159  18.604   8.924  12.523
96544W        W68160  33.319   8.080   4.077
96545W        W68161  29.502  25.179   1.854
96546W        W68162  30.904  37.026  14.807
96547W        W68163  26.208  37.808  12.695
96548W        W68164   5.962  23.971  14.822
96549W        W68165  36.450   5.964   0.406
96550W        W68166  43.342  28.955  10.860
96551W        W68167  28.627  19.729  10.467
96552W        W68168  23.830  17.889   9.600
96553W        W68169  31.374  16.688  13.588
96554W        W68170  18.846  39.498  13.759
96555W        W68171  29.930  27.955   1.396
96556W        W68172  13.841  38.489   4.264
96557W        W68173   5.677   7.336   0.999
96558W        W68174  10.836  39.530   1.379
96559W        W68175  23.183  25.713   3.279
96560W        W68176  31.513  34.883   4.187
96561W        W68177  18.881  30.999  10.789
96562W        W68178  16.623  34.556  14.730
96563W        W68179  30.695  27.473   0.420
96564W        W68180  36.912  36.134  12.918
96565W        W68181  26.488  10.854   2.378
96566W        W68182   8.654  16.134   0.708
96567W        W68183  15.048  40.726  12.539
96568W        W68184   8.862  41.295   2.248
96569W        W68185  16.969   8.614  11.809
96570W        W68186   8.828  21.519  14.248
96571W        W68187  42.815  30.185   0.626
96572W        W68188   3.286  31.695  12.010
96573W        W68189  10.779  41.290  12.131
96574W        W68190   0.029  31.462  10.421
96575W        W68191  26.571  11.742   2.251
96576W        W68192  25.563  14.610   5.488
96577W        W68193  22.467  33.979  14.558
96578W        W68194   4.414   7.943  10.440
96579W        W68195  19.866  23.716   3.589
96580W        W68196   1.684  20.655  11.085
96581W        W68197   5.976  16.733   4.238
96582W        W68198  40.533  34.312   0.418
96583W        W68199   8.154  39.933  12.149
96584W        W68200   7.314  25.780  12.840
96585W        W68201  35.622  44.167  14.017
96586W        W68202  19.190   8.576  14.326
96587W        W68203  23.957   6.347  14.549
96588W        W68204   2.706  37.284  12.549
96589W        W68205  43.561  28.408   1.943
96590W        W68206  28.531  15.785   2.303
96591W        W68207  32.885  12.242   2.744
96592W        W68208  18.136  14.102  11.163
96593W        W68209  26.879  15.786  13.289
96594W        W68210  35.572  33.417  11.235
96595W        W68211  42.580  13.635   1.348
96596W        W68212  15.648  39.337   3.671
96597W        W68213  12.248  26.223  13.075
96598W        W68214  12.817  16.244   0.869
96599W        W68215   3.618  30.429   3.286
96600W        W68216   2.292   1.542  11.505
96601W        W68217  29.920   9.655   3.374
96602W        W68218  41.484  43.507  11.452
96603W        W68219  38.790   5.131   2.687
96604W        W68220  10.764   5.119  14.007
96605W        W68221  39.232   0.254   0.098
96606W        W68222  39.328  33.079  12.170
96607W        W68223   2.028  30.829  10.754
96608W        W68224  23.157  36.042   1.385
96609W        W68225   4.009  23.239   4.556
96610W        W68226  38.983  33.388  14.020
96611W        W68227  28.256   0.701  14.793
96612W        W68228  25.566  22.427   4.975
96613W        W68229   0.953   0.110   4.442
96614W        W68230  31.008  35.411  11.902
96615W        W68231   4.421  17.669   1.417
96616W        W68232  28.698  20.512   3.396
96617W        W68233  21.278  22.790  13.294
96618W        W68234   0.824  41.530   3.825
96619W        W68235  43.489  44.791  13.046
96620W        W68236  13.027  11.168  11.535
96621W        W68237  15.231  36.708  11.662
96622W        W68238  27.937  30.565   3.850
96623W        W68239   6.741  33.625   2.776
96624W        W68240  28.558   0.986   1.852
96625W        W68241  32.955   2.208   2.162
96626W        W68242  24.321  36.497   3.480
96627W        W68243  23.574  42.405   2.937
96628W        W68244  15.761  19.018  12.092
96629W        W68245  21.018  28.942   0.862
96630W        W68246  33.985  40.032   0.748
96631W        W68247  19.688  30.697   1.767
96632W        W68248  15.788   7.892   4.325
96633W        W68249  30.703   3.296   4.550
96634W        W68250  35.885  43.483   0.026
96635W        W68251   8.126  23.053  11.924
96636W        W68252  42.927  27.463  12.565
96637W        W68253  30.952  40.731  12.177
96638W        W68254  10.276   6.070   1.611
96639W        W68255  42.631  25.665   0.966
96640W        W68256  26.198  44.867  11.216
96641W        W68257  35.042  42.494  10.905
96642W        W68258  35.086  18.689  12.665
96643W        W68259  14.777  35.063   3.051
96644W        W68260  18.867  29.453   0.397
96645W        W68261  21.636  19.280  12.460
96646W        W68262   7.893  33.923  11.157
96647W        W68263  12.588  23.484   3.798
96648W        W68264  15.718   5.151  13.245
96649W        W68265  23.085  29.666  11.954
96650W        W68266   0.932   7.875   4.748
96651W        W68267  19.792  34.690   2.343
96652W        W68268  31.534   2.796  11.456
96653W        W68269  13.007  29.173  11.605
96654W        W68270  23.033  21.519   4.676
96655W        W68271  25.779  38.309   2.810
96656W        W68272  10.251   3.864   1.448
96657W        W68273  33.074  43.946   2.126
96658W        W68274  11.841  31.067   1.892
96659W        W68275  28.645   9.851  11.427
96660W        W68276  43.233  20.057   3.565
96661W        W68277  11.383  28.061   0.649
96662W        W68278  20.985  38.972  13.451
96663W        W68279  27.052  43.738  13.862
96664W        W68280   8.886   1.675  10.834
96665W        W68281  40.795   5.465  12.496
96666W        W68282   1.405  31.137   2.829
96667W        W68283  31.437  44.423  11.135
96668W        W68284   6.080  15.124   3.184
96669W        W68285  21.080   1.948  11.013
96670W        W68286  27.475  40.770  13.342
96671W        W68287  17.156  22.736   3.588
96672W        W68288  17.326  42.486   0.853
96673W        W68289  20.327  33.548   1.603
96674W        W68290   2.142   1.470   5.088
96675W        W68291  11.872   6.821  14.582
96676W        W68292  28.446  11.234  13.785
96677W        W68293  34.427  22.605  10.548
96678W        W68294  11.656  36.217  13.118
96679W        W68295  30.390  44.447   1.792
96680W        W68296  34.636  29.625   3.828
96681W        W68297  13.068   7.190  10.789
96682W        W68298  26.093  31.607   4.460
96683W        W68299  11.659   5.699  11.451
96684W        W68300  43.762  16.505  11.048
96685W        W68301  15.231  30.254  11.508
96686W        W68302  34.070  17.585  11.210
96687W        W68303  33.811  19.790  11.170
96688W        W68304  24.123  28.418  13.509
96689W        W68305  41.749  32.431  10.566
96690W        W68306  17.360   6.222  13.077
96691W        W68307  37.373  36.474   2.220
96692W        W68308  33.389   1.323  14.307
96693W        W68309   6.568  35.903  11.517
96694W        W68310  35.588  19.112   4.097
96695W        W68311  42.311  22.638  12.091
96696W        W68312   4.255  24.512   4.186
96697W        W68313  26.368  15.163  11.532
96698W        W68314  36.346  21.083   0.823
96699W        W68315   5.753   2.041  12.523
96700W        W68316  11.299  24.497   2.863
96701W        W68317  21.765  22.825  13.029
96702W        W68318  36.063  15.028   0.811
96703W        W68319  19.679   1.760  11.579
96704W        W68320  17.817  21.733  13.093
96705W        W68321  32.436   2.616  11.628
96706W        W68322  14.836  16.060   2.717
96707W        W68323  10.911  14.070   1.300
96708W        W68324  35.571  37.873  11.396
96709W        W68325   0.859  17.148   0.729
96710W        W68326   6.678  28.349   1.610
96711W        W68327  19.111  10.733  12.626
96712W        W68328  24.224  32.387   2.742
96713W        W68329  32.181  20.266  13.031
96714W        W68330  42.768  21.070   0.250
96715W        W68331   0.740  31.027  11.901
96716W        W68332  11.275  44.204  11.079
96717W        W68333   4.202   9.214  10.744
96718W        W68334  26.616  14.379   0.873
96719W        W68335   1.994  32.007   4.588
96720W        W68336  13.839  33.099  14.371
96721W        W68337  27.138  14.005  14.727
96722W        W68338   3.881  23.996  12.854
96723W        W68339  11.721  34.528  11.147
96724W        W68340  20.438  31.433   1.664
96725W        W68341   5.335  42.275  12.919
96726W        W68342   4.619  11.360  10.241
96727W        W68343  13.693  21.008  12.973
96728W        W68344  23.104  34.075  11.846
96729W        W68345  28.577  31.651   2.359
96730W        W68346  42.830  36.464   3.350
96731W        W68347  36.753   9.315  13.459
96732W        W68348  11.361  35.132  12.936
96733W        W68349  28.167  41.550  12.861
96734W        W68350  44.067   8.438   0.468
96735W        W68351  18.798   9.153  14.079
96736W        W68352  13.626  14.329   1.872
96737W        W68353   3.281  29.433  13.895
96738W        W68354  27.618  18.837  13.792
96739W        W68355  32.471  38.443  12.349
96740W        W68356  44.839  22.586   0.239
96741W        W68357   2.334   0.554   0.106
96742W        W68358  38.434  28.464   3.061
96743W        W68359   6.777   7.643  11.302
96744W        W68360  17.113   7.185  11.537
96745W        W68361  33.112  11.894  11.426
96746W        W68362  25.491  20.504  14.909
96747W        W68363  33.142  41.694  11.080
96748W        W68364   1.914  14.314  13.645
96749W        W68365   2.325   7.781  14.297
96750W        W68366  26.561   9.385   3.789
96751W        W68367  16.114  25.648   3.934
96752W        W68368   7.999  30.484   4.631
96753W        W68369  17.273  16.169  11.252
96754W        W68370  17.303  19.680  13.809
96755W        W68371  14.815  11.378   3.572
96756W        W68372   0.907  37.166   2.773
96757W        W68373  38.488   4.011  12.079
96758W        W68374   0.506  26.309   4.880
96759W        W68375  43.505   2.484  10.709
96760W        W68376   8.610   6.864   2.314
96761W        W68377  41.468  31.419   2.425
96762W        W68378   6.329  15.128  13.931
96763W        W68379  21.135  15.924   5.034
96764W        W68380  13.951  33.168  11.085
96765W        W68381  43.936  23.928  10.759
96766W        W68382  31.126   2.863   3.180
96767W        W68383  36.317   7.406  10.091
96768W        W68384  31.781  33.424   0.230
96769W        W68385  14.357  41.970   3.320
96770W        W68386  41.710  37.307  12.833
96771W        W68387  26.213   2.914  13.869
96772W        W68388  18.235  21.732  11.426
96773W        W68389  11.143  11.247  13.861
96774W        W68390  38.978  23.646   0.471
96775W        W68391  38.228   4.416  10.736
96776W        W68392  22.913  44.301  13.939
96777W        W68393  23.918   9.817   0.378
96778W        W68394  20.746  13.601   0.814
96779W        W68395  26.222  23.459   0.681
96780W        W68396  32.056   6.326  13.828
96781W        W68397  29.209   7.533  13.131
96782W        W68398  20.473  22.093   0.938
96783W        W68399  15.151  36.495   1.266
96784W        W68400  43.934  20.140   2.994
96785W        W68401   6.220  11.266   0.285
96786W        W68402  42.974  37.703  10.041
96787W        W68403  16.836  38.108  13.061
96788W        W68404  21.420  21.619  11.987
96789W        W68405  19.142  41.007  14.010
96790W        W68406  29.668  22.695   4.107
96791W        W68407   1.678  13.342   2.425
96792W        W68408  11.403  22.211  13.109
96793W        W68409   3.331   1.017   2.707
96794W        W68410  33.700  16.794   2.345
96795W        W68411  20.751  19.538  13.485
96796W        W68412  33.975  18.799   4.649
96797W        W68413  36.546  33.026  12.502
96798W        W68414  24.510  13.813  13.303
96799W        W68415  12.541  16.660  11.542
96800W        W68416   8.403  26.069   1.982
96801W        W68417  15.883   2.915   0.550
96802W        W68418  26.648  13.531   0.522
96803W        W68419  14.727  10.078   1.801
96804W        W68420  14.433  40.887   1.154
96805W        W68421  17.186  18.197   5.364
96806W        W68422  32.060  23.781  11.371
96807W        W68423  40.975  13.504   2.940
96808W        W68424  41.410  10.904   1.200
96809W        W68425   4.457  35.532   2.257
96810W        W68426   6.009  30.448  11.008
96811W        W68427  22.146  44.756   1.796
96812W        W68428  28.847  27.006  14.949
96813W        W68429  30.068  15.625   2.199
96814W        W68430   6.245  12.572   4.918
96815W        W68431  40.649   8.619   2.278
96816W        W68432   4.264  15.127   0.254
96817W        W68433   1.139  25.162  12.428
96818W        W68434  24.904  22.573  11.129
96819W        W68435  28.555  23.620   4.397
96820W        W68436  31.622  29.562   2.642
96821W        W68437  38.886  28.685   2.157
96822W        W68438  38.995  42.243   1.706
96823W        W68439  24.316  24.066  12.381
96824W        W68440  17.203   7.941   0.215
96825W        W68441  42.753  10.892   1.785
96826W        W68442  42.735   0.329   4.857
96827W        W68443  20.031  29.235  11.989
96828W        W68444  20.842   2.503   3.696
96829W        W68445  39.445  38.569  10.905
96830W        W68446  10.776  32.651  13.847
96831W        W68447  14.404   8.391  12.520
96832W        W68448  28.306   1.974  12.593
96833W        W68449  27.665  12.281   0.476
96834W        W68450  16.440  22.238   1.901
96835W        W68451   1.392  27.983  14.784
96836W        W68452   2.416  18.612   3.619
96837W        W68453   1.971  29.624   3.738
96838W        W68454  41.744  13.187   0.760
96839W        W68455  11.049  15.845   2.717
96840W        W68456  34.419  25.365  13.417
96841W        W68457  27.041  21.712  13.462
96842W        W68458  26.053  29.929   0.354
96843W        W68459  24.573  13.499   1.726
96844W        W68460   9.386  16.944   4.635
96845W        W68461  44.736   0.749  14.725
96846W        W68462  15.391  18.425   5.245
96847W        W68463  25.248  13.064   3.743
96848W        W68464   1.046   8.820  14.323
96849W        W68465  35.397  30.106   4.386
96850W        W68466  27.611  34.579   0.798
96851W        W68467   6.673  18.070   1.333
96852W        W68468   4.772  24.385   1.285
96853W        W68469  38.090  30.814   0.465
96854W        W68470  33.144  41.555   2.000
96855W        W68471  39.718  14.713   2.244
96856W        W68472  25.409   5.721   2.117
96857W        W68473  24.221  33.937   3.605
96858W        W68474  21.516  41.731   3.655
96859W        W68475  38.146  13.730  14.580
96860W        W68476  26.664   4.243  11.983
96861W        W68477  24.087  33.394   0.310
96862W        W68478  30.857  16.129   2.175
96863W        W68479  31.510  21.691  14.519
96864W        W68480  18.438  35.420  10.504
96865W        W68481  22.359  15.264  12.181
96866W        W68482   5.275  16.787  11.719
96867W        W68483   4.244  15.513  14.307
96868W        W68484  22.941  38.917   2.813
96869W        W68485   9.644  25.590   3.364
96870W        W68486  13.754  34.539  14.763
96871W        W68487  38.925   9.227  14.424
96872W        W68488  31.096  29.024   0.460
96873W        W68489  13.388   4.933   3.715
96874W        W68490  22.813   3.407   1.739
96875W        W68491  16.793  14.168   4.281
96876W        W68492   7.113  42.029  11.556
96877W        W68493  40.557  24.753  14.423
96878W        W68494  17.330  39.807   2.559
96879W        W68495  29.564  29.945   9.911
96880W        W68496  38.444  12.629   0.886
96881W        W68497   7.198  22.753  14.453
96882W        W68498  32.814  37.438  14.974
96883W        W68499   8.356  11.724   1.384
96884W        W68500  25.933  44.597  13.987
96885W        W68501  31.428  41.132  12.986
96886W        W68502  42.602   0.848  13.840
96887W        W68503  38.423  28.048  14.827
96888W        W68504   9.249  39.349   0.731
96889W        W68505  32.827   6.199  13.154
96890W        W68506  38.161  25.563  12.098
96891W        W68507  34.196  33.590  11.055
96892W        W68508  23.986  41.377  12.128
96893W        W68509  14.254  23.759   0.704
96894W        W68510  17.113  25.436  12.810
96895W        W68511  30.680  20.005   2.919
96896W        W68512  40.610   6.476   1.836
96897W        W68513  35.370  43.421   3.765
96898W        W68514  14.857   6.173  14.475
96899W        W68515  17.725   4.721   4.203
96900W        W68516   7.624  10.505   4.855
96901W        W68517  24.489   6.455   1.709
96902W        W68518  26.247  30.949  13.738
96903W        W68519  14.105   3.847   2.374
96904W        W68520  43.904   5.500   0.856
96905W        W68521  24.090   9.286   1.302
96906W        W68522   8.665  14.670  13.491
96907W        W68523  40.491  31.509  13.802
96908W        W68524  10.444   9.995   5.131
96909W        W68525  19.679   2.786  13.452
96910W        W68526  11.710  44.148   4.845
96911W        W68527  30.479  26.205  14.502
96912W        W68528   7.926  20.640   3.897
96913W        W68529  39.412   4.391   3.345
96914W        W68530  43.344   1.962  10.745
96915W        W68531   2.713   0.801   3.159
96916W        W68532  29.204  14.074   2.856
96917W        W68533  24.735  31.621  12.306
96918W        W68534   7.284   9.894   3.157
96919W        W68535  13.269   1.897   2.706
96920W        W68536  15.911  25.926   1.371
96921W        W68537  21.807  11.905  12.018
96922W        W68538  17.025  15.806  10.487
96923W        W68539  41.914  35.560   1.791
96924W        W68540   6.415  23.000  11.832
96925W        W68541   5.169  39.173  12.842
96926W        W68542  29.553   5.783   3.229
96927W        W68543  35.968  33.486   0.530
96928W        W68544  35.465   7.073  13.266
96929W        W68545  34.423  43.735   2.307
96930W        W68546   2.314  41.081  14.254
96931W        W68547   9.350  15.611  14.527
96932W        W68548   3.215  37.929   0.003
96933W        W68549  18.701  11.379   2.298
96934W        W68550   5.125  17.197   2.508
96935W        W68551  11.902   3.002  10.719
96936W        W68552  38.197  25.663   0.409
96937W        W68553  40.467  15.652   0.851
96938W        W68554  12.801   1.760   2.460
96939W        W68555   9.862  37.467  13.946
96940W        W68556  29.037  26.442  10.419
96941W        W68557  43.162   1.065   3.323
96942W        W68558  38.818  10.646  11.038
96943W        W68559  22.620  28.501  14.409
96944W        W68560  36.137  16.277  11.738
96945W        W68561  35.370  13.542   4.571
96946W        W68562  23.475  18.199   2.317
96947W        W68563  10.849  17.510   1.280
96948W        W68564  38.697   6.104  13.835
96949W        W68565  41.759  17.648  13.060
96950W        W68566  11.666  30.179  12.879
96951W        W68567   0.541  36.952   2.144
96952W        W68568   6.451  44.394  14.771
96953W        W68569  32.342  13.661   3.295
96954W        W68570  27.820   5.713  13.924
96955W        W68571  35.978   7.281   4.502
96956W        W68572  20.303   8.094  14.958
96957W        W68573  43.645  26.448  13.382
96958W        W68574  16.793  27.954  13.858
96959W        W68575   6.702  40.341  14.394
96960W        W68576  39.030  44.034   3.095
96961W        W68577  17.372   9.324  13.912
96962W        W68578  44.031  43.445  11.611
96963W        W68579  19.570   0.513  14.837
96964W        W68580  36.608  32.088  11.152
96965W        W68581   7.228  32.027  11.999
96966W        W68582  44.980   1.047  12.525
96967W        W68583  18.023  44.918   2.284
96968W        W68584  43.351  10.901   1.199
96969W        W68585   9.267  22.737  13.010
96970W        W68586   5.062  34.542  10.651
96971W        W68587  37.458  33.087   3.229
96972W        W68588  25.569  21.084  12.391
96973W        W68589  42.529   6.420  13.817
96974W        W68590  24.825  22.784  14.902
96975W        W68591  37.357  37.299  10.873
96976W        W68592  43.695   6.884  12.015
96977W        W68593  22.198  42.364  10.461
96978W        W68594   8.307   8.688  14.378
96979W        W68595   5.476  10.374  13.404
96980W        W68596  40.437  26.484  13.389
96981W        W68597  23.066  20.174  10.812
96982W        W68598  25.904   9.300  11.074
96983W        W68599  35.828  32.072   4.096
96984W        W68600  36.502  14.817  14.861
96985W        W68601  12.249  38.323  12.528
96986W        W68602   0.203  22.025  13.136
96987W        W68603   7.193   2.911   0.520
96988W        W68604  30.063  30.844   0.937
96989W        W68605  41.500  29.551   3.274
96990W        W68606  22.459  18.610  14.844
96991W        W68607  28.013  25.711   2.706
96992W        W68608  12.684   1.389   2.832
96993W        W68609  24.612  29.384   4.875
96994W        W68610  12.617  34.172  11.552
96995W        W68611   5.276  33.253   4.066
96996W        W68612  36.533   6.896  13.497
96997W        W68613   6.492   5.765   2.790
96998W        W68614  20.693  30.853  12.158
96999W        W68615   8.555  20.041  10.703
97000W        W68616  43.546  23.731  12.895
97001W        W68617  35.313  25.662  14.223
97002W        W68618  25.073  26.554  11.390
97003W        W68619  43.579  13.134  11.123
97004W        W68620   4.436  38.024  12.422
97005W        W68621   3.736  16.631   4.670
97006W        W68622  39.953   0.043   3.334
97007W        W68623  13.125   4.244   9.896
97008W        W68624   1.462  31.360   3.311
97009W        W68625  22.984  19.991   3.226
97010W        W68626  23.076  19.502  11.669
97011W        W68627  34.527   1.371  14.760
97012W        W68628  16.926   4.446   1.044
97013W        W68629  26.446  21.405   1.261
97014W        W68630  39.499  22.802   0.668
97015W        W68631  21.761  18.075   2.255
97016W        W68632  24.997  28.760  13.029
97017W        W68633  16.859  14.269   0.816
97018W        W68634  40.138  11.982   9.935
97019W        W68635  39.876  39.570   2.801
97020W        W68636  39.021  18.730   2.196
97021W        W68637  23.503  28.975  12.893
97022W        W68638  40.060  40.916  13.885
97023W        W68639  26.485   5.264  12.848
97024W        W68640  16.783  14.130  11.457
97025W        W68641   9.494  10.142   4.471
97026W        W68642  22.568  17.813   1.254
97027W        W68643  30.028  21.764  12.049
97028W        W68644  31.109  29.924   2.177
97029W        W68645  30.524  25.509  12.411
97030W        W68646  39.365  41.317   2.687
97031W        W68647   5.842   7.089  14.633
97032W        W68648  11.093  22.158  12.506
97033W        W68649   3.936   9.634   0.332
97034W        W68650  26.023  24.159  14.311
97035W        W68651  38.508  28.896   4.841
97036W        W68652   2.231  30.854   3.827
97037W        W68653   7.568  20.136   2.714
97038W        W68654   4.040  26.828  13.740
97039W        W68655  23.537  33.065  11.485
97040W        W68656   0.623  28.031   4.598
97041W        W68657   4.865  25.710  14.022
97042W        W68658  21.005   1.978  10.494
97043W        W68659  42.517  32.992  10.944
97044W        W68660   9.350   4.936   3.436
97045W        W68661   3.834  20.874   2.686
97046W        W68662  10.914  12.684   2.449
97047W        W68663  40.863  40.270   4.694
97048W        W68664  35.550   2.957  13.849
97049W        W68665  23.226  40.280   3.247
97050W        W68666  16.150  10.315  14.385
97051W        W68667  15.297  22.449   1.779
97052W        W68668  37.856  25.579  11.680
97053W        W68669  18.655  29.411   2.256
97054W        W68670  36.016   2.845   4.771
97055W        W68671  36.073  37.413  14.554
97056W        W68672  25.266  35.317   0.356
97057W        W68673  44.869  38.492  10.643
97058W        W68674  30.391   2.308   4.614
97059W        W68675  38.791  30.057  12.941
97060W        W68676  39.252  10.769   1.797
97061W        W68677  17.216  38.075  10.700
97062W        W68678  16.593  33.404  11.107
97063W        W68679   2.230  17.511   0.219
97064W        W68680  27.428  40.520   4.709
97065W        W68681   9.808  42.852  11.975
97066W        W68682  25.694   7.249  12.883
97067W        W68683  25.432  38.703   4.188
97068W        W68684  35.662  15.767   3.757
97069W        W68685  18.588  16.584  14.389
97070W        W68686  16.682  29.633   1.187
97071W        W68687  23.157  40.845  12.429
97072W        W68688  25.270  34.522  13.493
97073W        W68689  22.256  30.165  13.340
97074W        W68690  43.117  44.930  12.051
97075W        W68691  31.409  35.681  14.134
97076W        W68692  28.675   9.812  13.074
97077W        W68693  12.312  34.601   1.827
97078W        W68694   4.332  34.426   2.493
97079W        W68695  31.063  13.327  12.017
97080W        W68696   9.006   2.558  12.568
97081W        W68697  24.728   8.109   2.855
97082W        W68698  38.766  32.484  13.441
97083W        W68699  39.101  31.001   0.618
97084W        W68700  14.404  31.444   2.192
97085W        W68701  41.253  19.283  10.633
97086W        W68702  11.360  20.775  12.960
97087W        W68703  20.851  42.031  11.557
97088W        W68704  36.331  11.281  12.957
97089W        W68705  16.679  44.769   0.675
97090W        W68706  29.749  10.073  12.047
97091W        W68707  14.051  35.549  12.029
97092W        W68708  41.815  39.809   2.791
97093W        W68709  33.602  44.237   0.434
97094W        W68710   3.701  20.597  10.934
97095W        W68711  19.775  28.795   4.205
97096W        W68712  36.494   1.533   1.427
97097W        W68713  17.266  30.643   4.573
97098W        W68714   0.069  23.606  11.532
97099W        W68715   5.285  16.614   3.725
97100W        W68716  11.377  42.344  10.514
97101W        W68717  17.152  14.607   4.278
97102W        W68718  15.542   2.244   3.758
97103W        W68719  29.504  13.047   0.664
97104W        W68720  39.468  20.042   0.081
97105W        W68721  27.506  21.203  10.701
97106W        W68722   8.928   2.910   2.710
97107W        W68723  17.763  34.980  12.450
97108W        W68724  22.291  27.489   1.023
97109W        W68725  21.198   2.457  14.483
97110W        W68726  40.792  24.028  14.058
97111W        W68727  39.012  34.623  11.460
97112W        W68728  44.331  37.617  13.984
97113W        W68729  44.205   4.688   0.534
97114W        W68730  15.304   0.809  14.072
97115W        W68731  15.790  31.050   1.153
97116W        W68732  15.643  12.625   1.714
97117W        W68733  35.210  31.186  11.523
97118W        W68734  39.799  13.154   1.734
97119W        W68735  40.564   8.782  10.870
97120W        W68736  28.866  36.892   1.841
97121W        W68737  28.596   7.398  10.764
97122W        W68738  28.560  22.572  12.581
97123W        W68739  36.405  39.266   3.228
97124W        W68740   4.851  37.450   9.838
97125W        W68741   9.920  39.815   4.092
97126W        W68742  15.816  43.771  13.879
97127W        W68743  27.225  14.508  11.212
97128W        W68744   0.311   4.444   2.624
97129W        W68745  43.185  28.902  11.631
97130W        W68746   2.878  23.261   0.951
97131W        W68747  21.099  26.491  13.391
97132W        W68748  22.454  24.006   0.016
97133W        W68749  36.801   7.931  14.984
97134W        W68750  39.562   4.899   2.464
97135W        W68751  11.317  24.112   4.820
97136W        W68752   8.455   3.885   0.858
97137W        W68753  19.056  20.673  10.480
97138W        W68754   3.428  18.391   0.933
97139W        W68755  44.863  31.862   4.668
97140W        W68756  13.632   2.465  12.028
97141W        W68757  12.840  15.266   0.987
97142W        W68758   3.549  33.428   1.503
97143W        W68759  13.255   0.510  10.646
97144W        W68760  28.565  11.592   1.352
97145W        W68761  44.300  30.827  14.958
97146W        W68762  32.973  23.560  14.533
97147W        W68763  34.962  14.542   0.411
97148W        W68764  28.686   3.173   3.920
97149W        W68765  14.053  13.208  11.562
97150W        W68766  36.806   2.976   3.717
97151W        W68767  24.495  22.022   4.411
97152W        W68768  15.169  32.207   4.477
97153W        W68769   0.065  30.048  13.865
97154W        W68770  34.600  41.727  14.429
97155W        W68771   5.417  20.683   3.663
97156W        W68772  29.256   7.509  12.621
97157W        W68773  28.418  17.361  13.516
97158W        W68774   8.952  28.082  12.500
97159W        W68775   3.320  21.718  13.829
97160W        W68776   5.281  30.367  13.848
97161W        W68777  37.570  36.437   0.328
97162W        W68778   4.804  33.592   3.238
97163W        W68779  16.091  14.898  11.498
97164W        W68780  12.974  12.289   2.716
97165W        W68781  27.532  18.559  11.961
97166W        W68782  11.410   1.942   4.838
97167W        W68783  41.398  37.262  14.868
97168W        W68784  21.734  34.172   0.377
97169W        W68785  26.578  25.977   4.496
97170W        W68786  36.585   2.800  13.912
97171W        W68787  27.732  16.038  12.380
97172W        W68788  28.006  39.029   1.296
97173W        W68789   8.973  36.033   0.873
97174W        W68790  10.138  22.081  12.887
97175W        W68791  12.161  18.003  13.514
97176W        W68792  35.155  33.976  14.254
97177W        W68793  37.529   6.027   1.912
97178W        W68794  21.200  31.754  14.329
97179W        W68795  13.148  39.939   3.153
97180W        W68796  43.234  40.466  11.368
97181W        W68797   9.110   5.140   2.144
97182W        W68798  41.267  27.584   3.649
97183W        W68799  13.256   9.352   1.859
97184W        W68800  13.460  15.939  14.781
97185W        W68801   0.376  43.482   0.785
97186W        W68802  44.756  15.570   3.848
97187W        W68803  39.041  44.195  12.033
97188W        W68804  29.104  36.398   1.057
97189W        W68805  39.835   8.628   4.475
97190W        W68806   6.667   7.097   0.748
97191W        W68807  18.783  12.464  12.474
97192W        W68808  17.773  36.361   2.190
97193W        W68809   0.943  43.206   3.570
97194W        W68810  21.202  43.912  13.056
97195W        W68811  37.202  31.520  13.908
97196W        W68812  31.450   5.751  10.874
97197W        W68813  14.099  28.004  14.965
97198W        W68814  20.559  29.928  13.369
97199W        W68815  12.443  33.061  11.122
97200W        W68816  35.014  38.438   4.306
97201W        W68817  33.979  30.400   1.486
97202W        W68818  34.091  29.421  11.461
97203W        W68819  31.968  26.875  10.692
97204W        W68820   9.725  39.860   0.781
97205W        W68821   0.301  42.712  12.514
97206W        W68822  42.342  33.517   4.183
97207W        W68823  19.454  25.976  14.913
97208W        W68824  28.280  38.618   1.147
97209W        W68825   9.461  31.506  11.026
97210W        W68826  36.034  35.124  10.629
97211W        W68827  32.229   4.131   3.582
97212W        W68828  26.035  18.302   4.734
97213W        W68829  39.956   3.300   4.587
97214W        W68830  32.889  44.881   2.107
97215W        W68831  42.273  41.991   4.347
97216W        W68832   4.580  31.432  14.152
97217W        W68833  26.016   8.784   4.374
97218W        W68834  11.636  20.687   1.285
97219W        W68835  19.636  11.899   0.425
97220W        W68836  17.898  32.531  14.032
97221W        W68837  18.451   9.099   0.149
97222W        W68838  26.681  17.965  13.273
97223W        W68839  22.935   9.166   5.000
97224W        W68840  35.869  23.648  10.966
97225W        W68841  25.938  43.555   4.173
97226W        W68842  18.823  40.525   1.881
97227W        W68843  38.899   5.854   3.123
97228W        W68844   4.408  25.116  12.585
97229W        W68845   7.504   1.901  11.139
97230W        W68846  11.883  30.603   3.117
97231W        W68847  35.541  33.080   1.243
97232W        W68848   6.720  13.812  13.200
97233W        W68849  42.456   4.260   2.956
97234W        W68850  18.015  28.493   1.968
97235W        W68851  11.356  17.898   1.876
97236W        W68852  41.519  21.250  10.849
97237W        W68853  29.532  13.724  14.942
97238W        W68854  11.580  44.250   0.265
97239W        W68855  16.367  22.901  10.229
97240W        W68856   3.215  18.843   1.796
97241W        W68857  33.680  32.169  13.358
97242W        W68858   6.110  43.052   3.676
97243W        W68859  25.261  34.070   2.192
97244W        W68860  30.555   1.404   2.383
97245W        W68861  31.744  31.976   4.890
97246W        W68862  30.034  36.388   2.095
97247W        W68863   2.552  21.266   5.144
97248W        W68864  32.108  44.630  12.312
97249W        W68865  23.662   8.326  10.699
97250W        W68866   2.454  30.562  11.653
97251W        W68867   7.452  12.252  13.887
97252W        W68868  24.210  12.833   0.353
97253W        W68869   3.235  40.734  14.296
97254W        W68870  22.725  27.437   4.515
97255W        W68871  31.734   0.403  13.006
97256W        W68872  25.614   9.762  12.419
97257W        W68873  25.272  34.866   4.100
97258W        W68874  39.941  16.762  11.718
97259W        W68875   1.677  31.945   2.654
97260W        W68876  34.548   7.770  11.243
97261W        W68877  20.314  36.898  11.120
97262W        W68878  37.864  44.741   4.536
97263W        W68879   8.145   0.440   1.720
97264W        W68880  18.582  43.968   3.999
97265W        W68881  26.325   6.274  12.870
97266W        W68882  27.922  25.371  11.159
97267W        W68883  28.888  42.348  11.009
97268W        W68884  26.615  21.726  12.113
97269W        W68885  27.086  24.885   4.043
97270W        W68886  35.458  10.362   0.737
97271W        W68887  40.429   8.883   4.140
97272W        W68888  26.526  31.666   0.271
97273W        W68889  39.334  36.568   3.154
97274W        W68890  33.335  13.076   2.396
97275W        W68891  44.780  32.414  11.000
97276W        W68892  11.147  27.084   0.819
97277W        W68893  33.886  20.992  14.311
97278W        W68894  21.244  30.934  13.967
97279W        W68895  41.505  17.187   2.249
97280W        W68896   1.284  27.015  12.564
97281W        W68897  27.580  19.322   1.778
97282W        W68898  21.040  33.735   0.834
97283W        W68899   2.621  27.976  13.378
97284W        W68900  37.107  36.634   1.219
97285W        W68901  32.127   4.909   1.417
97286W        W68902   4.195  41.014   0.715
97287W        W68903  29.432  22.750  12.703
97288W        W68904  29.577  39.816   2.340
97289W        W68905  20.215  35.880   0.407
97290W        W68906  34.479   9.134  13.447
97291W        W68907  27.073  20.014  10.793
97292W        W68908  41.082  44.261  11.933
97293W        W68909   6.126  30.584   4.151
97294W        W68910  10.745   2.723   0.543
97295W        W68911  22.069  15.045   0.294
97296W        W68912   2.231   0.318  11.521
97297W        W68913  32.901  36.658  11.995
97298W        W68914   8.632  36.356   1.520
97299W        W68915  43.378  14.603   0.737
97300W        W68916  13.195  18.552   3.453
97301W        W68917   3.581  38.447   2.413
97302W        W68918  36.989  19.109  13.212
97303W        W68919  44.747   2.322  14.795
97304W        W68920  22.542   3.535  14.664
97305W        W68921   7.928   0.070   3.300
97306W        W68922  20.587   2.346   0.505
97307W        W68923   6.702  43.299  14.270
97308W        W68924  10.874   9.239   1.376
97309W        W68925   6.076  14.306   1.201
97310W        W68926  22.906  13.261   2.733
97311W        W68927  26.823  20.504   1.232
97312W        W68928   0.475  25.197   3.673
97313W        W68929  26.975   0.911   1.233
97314W        W68930  17.788  12.391  13.474
97315W        W68931  32.135   4.966   3.227
97316W        W68932  10.336  27.063   1.931
97317W        W68933   5.031  20.218  11.991
97318W        W68934  23.443   9.105   1.905
97319W        W68935   6.221  17.140   2.679
97320W        W68936  42.461  42.723  11.928
97321W        W68937  34.445  15.128   2.155
97322W        W68938  41.302   0.567   0.078
97323W        W68939   4.556  22.345  12.915
97324W        W68940   2.841  35.715   4.071
97325W        W68941  28.398  15.800   5.061
97326W        W68942  13.191  11.422   2.722
97327W        W68943  32.875  43.269  14.349
97328W        W68944  32.427  21.709   1.914
97329W        W68945  26.585  31.658  13.814
97330W        W68946  21.778   8.739   2.679
97331W        W68947  14.984   8.375   4.164
97332W        W68948  15.828  21.031   1.448
97333W        W68949  29.150  23.977   0.084
97334W        W68950  34.002  12.799  14.924
97335W        W68951   9.912  29.166  12.512
97336W        W68952  36.479  34.885   0.293
97337W        W68953   5.814  42.495  14.893
97338W        W68954  26.014  39.402  11.168
97339W        W68955  22.506  29.429  11.203
97340W        W68956   4.185  31.852   1.818
97341W        W68957  40.330  26.448   0.310
97342W        W68958  10.170  41.566   2.241
97343W        W68959  28.141  16.263  14.355
97344W        W68960  39.555  20.799   4.166
97345W        W68961  42.692  30.516   1.408
97346W        W68962  27.380  13.718   2.914
97347W        W68963  34.568  10.658  11.433
97348W        W68964  34.836  36.789   2.653
97349W        W68965   4.294  18.154  12.971
97350W        W68966   3.028  39.151  12.192
97351W        W68967  35.364   7.603  10.716
97352W        W68968  32.859  42.323   3.958
97353W        W68969  25.085   9.661   3.865
97354W        W68970  43.854  37.427  11.179
97355W        W68971  11.550   1.774  14.363
97356W        W68972  41.348  31.724   0.368
97357W        W68973  44.468  21.205  10.790
97358W        W68974  10.731  23.526  11.448
97359W        W68975  25.713  32.965   4.220
97360W        W68976  10.283  44.386  12.480
97361W        W68977  42.766   2.169  12.517
97362W        W68978  29.654  17.615  11.577
97363W        W68979   0.280  25.083  11.132
97364W        W68980  21.664  14.119  13.844
97365W        W68981  28.883  29.270   5.105
97366W        W68982  31.989  20.656   3.781
97367W        W68983  38.964  29.518  10.230
97368W        W68984  42.576  30.461  14.595
97369W        W68985  13.063  34.833   1.949
97370W        W68986   0.201  19.185   1.702
97371W        W68987  36.858   6.216   4.652
97372W        W68988  41.457  39.892  13.990
97373W        W68989   0.777  41.037  13.470
97374W        W68990   4.769  12.187   3.940
97375W        W68991  37.611  38.680  12.587
97376W        W68992  23.786  33.891  12.987
97377W        W68993   3.769  18.318   3.681
97378W        W68994   9.395  12.621  13.015
97379W        W68995  43.255   3.766   4.344
97380W        W68996  43.914   8.921  14.266
97381W        W68997   0.175  19.981   3.176
97382W        W68998  44.506  13.921   0.258
97383W        W68999   4.706  27.133   4.485
97384W        W69000  21.054  43.397   4.198
97385W        W69001   1.995  22.968   2.729
97386W        W69002  20.374  11.923   4.659
97387W        W69003  43.509  30.444   0.924
97388W        W69004  26.141  44.847   1.352
97389W        W69005  12.918  30.942   1.809
97390W        W69006  11.422  17.346  10.302
97391W        W69007   4.756  43.817   2.417
97392W        W69008  38.610  18.210   4.288
97393W        W69009   9.828  26.728  14.425
97394W        W69010   9.133  15.871   2.636
97395W        W69011   1.189  19.223  10.683
97396W        W69012  44.055   9.924   1.837
97397W        W69013  25.111   0.960   0.491
97398W        W69014  39.631   8.033   2.821
97399W        W69015  22.810  29.991  13.375
97400W        W69016   4.610   0.691  13.016
97401W        W69017  28.656   3.464   1.156
97402W        W69018   2.271  14.643  11.675
97403W        W69019  34.904   9.730   2.353
97404W        W69020  29.210   4.062  11.151
97405W        W69021  10.457  35.421   1.848
97406W        W69022   5.767  19.824  13.965
97407W        W69023  13.233   5.797  14.885
97408W        W69024  44.768  26.831  12.539
97409W        W69025   9.921  20.774  14.061
97410W        W69026  33.174  28.618  13.465
97411W        W69027  27.179   4.704  13.322
97412W        W69028   2.791  39.005   0.966
97413W        W69029   1.370  32.920  12.018
97414W        W69030  26.824  14.090  12.815
97415W        W69031  41.833  20.534  13.639
97416W        W69032   5.355   7.307   3.161
97417W        W69033  27.018  10.208   0.763
97418W        W69034  42.314  30.863  14.885
97419W        W69035  29.136  43.219  12.894
97420W        W69036  27.995   6.788   0.479
97421W        W69037  28.001  29.579   0.041
97422W        W69038  37.586  33.526   1.302
97423W        W69039   1.920   4.322  10.599
97424W        W69040  38.657  15.925  13.499
97425W        W69041  18.186  10.384  14.831
97426W        W69042  34.045  36.613   2.203
97427W        W69043  37.363  42.971  11.620
97428W        W69044  40.685  34.961   4.644
97429W        W69045  13.836   9.270  14.870
97430W        W69046   8.057  28.187  12.462
97431W        W69047  41.732  35.618   1.269
97432W        W69048  24.426  12.067  12.354
97433W        W69049  29.104  29.877   1.737
97434W        W69050  19.415  31.182  13.979
97435W        W69051  22.197  33.586  11.557
97436W        W69052   3.226  42.758   2.217
97437W        W69053  42.400  38.805  12.485
97438W        W69054  12.207  18.994   2.282
97439W        W69055  39.604  19.352   2.698
97440W        W69056  14.174   0.460  10.646
97441W        W69057  32.493  11.467  11.668
97442W        W69058  10.846  18.293   2.671
97443W        W69059   7.297  20.706   3.196
97444W        W69060  15.798  27.447  11.631
97445W        W69061   1.373   0.722   1.829
97446W        W69062  35.383  13.761   3.701
97447W        W69063  39.251  27.584  10.656
97448W        W69064  29.322  37.235   1.345
97449W        W69065  24.404   7.807   3.707
97450W        W69066  20.157  10.410   3.752
97451W        W69067   7.337  23.971   2.768
97452W        W69068   9.551  21.993  14.396
97453W        W69069   9.788   8.263   2.370
97454W        W69070  10.185  16.649   4.564
97455W        W69071  41.079  32.512  12.201
97456W        W69072  21.268  40.402  12.414
97457W        W69073   0.430  17.293   4.427
97458W        W69074  16.757  32.020   4.760
97459W        W69075  10.412   7.432  11.193
97460W        W69076  14.688   6.322  14.004
97461W        W69077  25.790  24.442  12.089
97462W        W69078  24.147  41.432   1.122
97463W        W69079  10.639   4.734   3.267
97464W        W69080  22.230  14.614   1.235
97465W        W69081   2.962   4.503   4.176
97466W        W69082  31.493  36.929  10.603
97467W        W69083   7.792  38.785   3.573
97468W        W69084  29.452  19.602   4.099
97469W        W69085  33.086  37.073   0.737
97470W        W69086  14.846  17.525  11.162
97471W        W69087  15.382  35.804  12.159
97472W        W69088  11.432  21.587   3.821
97473W        W69089  23.921  14.109  11.092
97474W        W69090  24.019  33.509   2.386
97475W        W69091  18.088  41.087   0.534
97476W        W69092  34.361   7.637  12.047
97477W        W69093  32.203  38.912   4.357
97478W        W69094  37.081  11.152  10.252
97479W        W69095  31.963  32.512  11.256
97480W        W69096  26.447  16.625   4.146
97481W        W69097   2.406   7.702   5.045
97482W        W69098  35.429   5.120  10.608
97483W        W69099  13.335  29.028   5.098
97484W        W69100  27.217  34.187  12.823
97485W        W69101  28.384  34.106   4.614
97486W        W69102   3.399  25.613   2.259
97487W        W69103  10.579  38.065   2.395
97488W        W69104  17.650  26.117   2.326
97489W        W69105   0.256  39.883   1.248
97490W        W69106  31.052   9.882  12.944
97491W        W69107  34.083  14.877  13.928
97492W        W69108  17.018   0.714  14.384
97493W        W69109   2.490  23.738  14.467
97494W        W69110  19.051  43.679   0.230
97495W        W69111  35.934  36.894   3.943
97496W        W69112  21.504  43.072   4.400
97497W        W69113  44.885   5.431  12.885
97498W        W69114  26.798   1.082   4.042
97499W        W69115  10.375  32.474  14.759
97500W        W69116  29.470  16.518  12.323
97501W        W69117  36.608  32.669   1.898
97502W        W69118  12.159  26.013   3.637
97503W        W69119  10.394   6.348  14.528
97504W        W69120  31.028  24.957  14.082
97505W        W69121  12.709  20.644   0.291
97506W        W69122  24.660  37.515   0.785
97507W        W69123  40.553   4.796   2.809
97508W        W69124  34.958  31.161   0.891
97509W        W69125  14.851  15.476   2.152
97510W        W69126  13.845  34.490   1.782
97511W        W69127  16.163  28.353  12.904
97512W        W69128  37.329  19.236  14.480
97513W        W69129  32.393  15.660  13.390
97514W        W69130   6.893  41.351  13.084
97515W        W69131   1.220  33.175   3.666
97516W        W69132  29.243  18.409   0.871
97517W        W69133  43.197  20.085   2.270
97518W        W69134  36.637   7.798   3.294
97519W        W69135   8.319   8.759  13.374
97520W        W69136   2.893  20.255   4.749
97521W        W69137  20.185  24.350  12.380
97522W        W69138  32.425  18.315  14.855
97523W        W69139  15.992  19.780   0.895
97524W        W69140  26.792  28.284   0.163
97525W        W69141  22.724  44.069  12.318
97526W        W69142   1.822  14.424  10.491
97527W        W69143  39.144  43.038   2.204
97528W        W69144   9.880  38.128  10.637
97529W        W69145  10.123  33.928  10.720
97530W        W69146  16.119  17.208  12.006
97531W        W69147  28.623  14.302   1.299
97532W        W69148   1.856  16.201   2.114
97533W        W69149  23.143  37.590  11.084
97534W        W69150  23.771  21.174  12.867
97535W        W69151   7.213  35.425  11.211
97536W        W69152  17.047  24.498   2.764
97537W        W69153  41.769   0.966   5.088
97538W        W69154  16.049  37.519  10.548
97539W        W69155  42.999   6.451  14.042
97540W        W69156  26.059  42.369  14.560
97541W        W69157   4.814  33.572   2.344
97542W        W69158  18.080  31.976   3.457
97543W        W69159  23.534   9.293   2.838
97544W        W69160  31.532  28.659  11.984
97545W        W69161  27.896  27.658   2.731
97546W        W69162  15.837   3.854   4.087
97547W        W69163  10.664  13.409  14.934
97548W        W69164  40.909  38.500   1.904
97549W        W69165   5.444  25.450   3.361
97550W        W69166  26.517  23.800  12.527
97551W        W69167  32.562  16.763  11.021
97552W        W69168   0.757  18.739  12.151
97553W        W69169  27.008   0.401   0.392
97554W        W69170  39.137  26.416  12.092
97555W        W69171  37.343  42.258   3.323
97556W        W69172  33.620  21.778   1.755
97557W        W69173  25.037  12.172  12.933
97558W        W69174  21.350   6.647  10.372
97559W        W69175  40.782  26.637  14.364
97560W        W69176  24.449  39.157  14.765
97561W        W69177  37.947  35.692   5.029
97562W        W69178   2.981  26.362   2.165
97563W        W69179   5.185  29.677  12.814
97564W        W69180  37.608   3.970  11.933
97565W        W69181  36.100   5.685   0.124
97566W        W69182   0.951  20.257  12.099
97567W        W69183   9.440   2.769   2.846
97568W        W69184  40.257  36.223  10.196
97569W        W69185  43.762  33.660  10.694
97570W        W69186  12.566  20.786   2.598
97571W        W69187   2.336  33.388   2.284
97572W        W69188  33.145  13.187  14.971
97573W        W69189  39.839  23.167  10.801
97574W        W69190  34.959   2.142  11.980
97575W        W69191  28.418  28.989   3.297
97576W        W69192  29.913   7.159   1.793
97577W        W69193  19.707  23.243   1.208
97578W        W69194  33.898  22.519  12.509
97579W        W69195   9.193  18.126   4.942
97580W        W69196  11.595  13.806  12.462
97581W        W69197  12.105  14.831  14.374
97582W        W69198   9.475   9.401  13.015
97583W        W69199  29.231  28.582  11.143
97584W        W69200  11.890   0.465   3.421
97585W        W69201   3.905  30.514   3.717
97586W        W69202  21.424  18.957   3.346
97587W        W69203  17.403   3.397  11.492
97588W        W69204  22.690   3.795   4.444
97589W        W69205  12.214  36.315  10.988
97590W        W69206   9.954  42.463   4.616
97591W        W69207   2.943  24.261   2.117
97592W        W69208  15.390   7.274  12.406
97593W        W69209  41.509   6.635   3.754
97594W        W69210  37.726  41.156  11.783
97595W        W69211  37.306   7.801  11.558
97596W        W69212  18.129  39.126  14.057
97597W        W69213  18.928   3.933   2.498
97598W        W69214  29.453   0.923  11.946
97599W        W69215  19.917   6.174  11.097
97600W        W69216  18.590  37.961  11.664
97601W        W69217  21.696  28.926  13.272
97602W        W69218  17.807   5.425   0.882
97603W        W69219  21.741  16.104  11.968
97604W        W69220  14.785  41.269   3.796
97605W        W69221  20.327  26.321   0.959
97606W        W69222  37.936  28.695   3.054
97607W        W69223   1.286  35.987  14.729
97608W        W69224  41.935  26.966   2.815
97609W        W69225  14.629  32.537   2.818
97610W        W69226  38.943  11.179  14.236
97611W        W69227  27.453  31.932   0.821
97612W        W69228  12.626  35.065  10.980
97613W        W69229   3.966   3.533  12.508
97614W        W69230   1.744  33.558  12.551
97615W        W69231  39.274   0.486  11.229
97616W        W69232  38.346  38.664   3.773
97617W        W69233   6.751  18.957   2.743
97618W        W69234  44.065  17.166   5.017
97619W        W69235   8.821  20.127  13.943
97620W        W69236   0.490   4.718  14.450
97621W        W69237  30.396  27.619   9.766
97622W        W69238  11.303  21.786  12.811
97623W        W69239  22.806  43.913   2.325
97624W        W69240  39.310   8.191   3.333
97625W        W69241  42.131  21.721   2.977
97626W        W69242  32.952  16.347  13.801
97627W        W69243  32.421  42.427   1.272
97628W        W69244  26.571  19.539  14.926
97629W        W69245   6.855  33.288  10.813
97630W        W69246  37.910   6.697  10.734
97631W        W69247  27.689   7.716  12.127
97632W        W69248  31.171  44.325  12.051
97633W        W69249   1.971  44.579  11.096
97634W        W69250  10.237   4.889   0.255
97635W        W69251  35.374  41.277   0.405
97636W        W69252   1.789  39.848  11.555
97637W        W69253  41.246  39.359   0.972
97638W        W69254  26.555   5.212   2.632
97639W        W69255  39.085  37.293   3.715
97640W        W69256  34.434  27.151  14.288
97641W        W69257  25.720  13.978   3.381
97642W        W69258  42.069  12.799   0.819
97643W        W69259  29.168   6.341  14.662
97644W        W69260  29.870  13.720  14.438
97645W        W69261  14.141  18.095  14.248
97646W        W69262   4.644  37.075  12.578
97647W        W69263   0.653  14.298  10.257
97648W        W69264  16.784  37.407   4.516
97649W        W69265  13.735   3.897  11.718
97650W        W69266  35.657  15.638  10.838
97651W        W69267  17.212  24.592   1.691
97652W        W69268  34.205  22.002   4.530
97653W        W69269  43.073  41.869   4.044
97654W        W69270  28.040  28.681   1.375
97655W        W69271  17.801  33.375   2.274
97656W        W69272  17.820  34.506  14.233
97657W        W69273  14.767  31.303   4.135
97658W        W69274  19.762  39.869  12.035
97659W        W69275  44.708  39.019   1.303
97660W        W69276  37.549  43.876   4.101
97661W        W69277  29.052  33.272   0.870
97662W        W69278  18.211  20.134  10.746
97663W        W69279  17.820  35.348  11.576
97664W        W69280  22.741  21.937  11.530
97665W        W69281  13.184   5.414   4.664
97666W        W69282   3.455   1.995   4.507
97667W        W69283  40.296  31.784   4.256
97668W        W69284  40.258   4.676  14.881
97669W        W69285  40.115  30.967   0.268
97670W        W69286  19.825   7.783   3.652
97671W        W69287  43.519  24.031  13.440
97672W        W69288  39.769   2.707   4.593
97673W        W69289  41.428  30.886  12.068
97674W        W69290  43.493   5.840   1.415
97675W        W69291   6.219  36.621  14.569
97676W        W69292  13.893  24.088  12.869
97677W        W69293  14.713  32.935   0.598
97678W        W69294   4.513  23.005   9.842
97679W        W69295  32.992  11.357  14.349
97680W        W69296  35.578  27.520  11.717
97681W        W69297  34.816  31.913   0.439
97682W        W69298  29.330  37.238  13.081
97683W        W69299  14.404   4.838   3.716
97684W        W69300  37.339  17.144   2.581
97685W        W69301  22.746  21.562  12.574
97686W        W69302   8.176  18.819   2.614
97687W        W69303  26.180  34.904  14.257
97688W        W69304  38.376  30.517   4.533
97689W        W69305  44.493  15.370   2.318
97690W        W69306  16.235  19.266  11.955
97691W        W69307  15.308  13.611   4.554
97692W        W69308   7.068  35.721  11.592
97693W        W69309  18.843  37.626   3.071
97694W        W69310  21.881  15.128  10.768
97695W        W69311   5.338  22.532  14.320
97696W        W69312   1.253  43.173  11.336
97697W        W69313  33.549  20.445  13.861
97698W        W69314  19.032  39.931   2.130
97699W        W69315   9.946  20.965  14.854
97700W        W69316  30.470   3.591   1.824
97701W        W69317  17.870  21.278  12.597
97702W        W69318  24.978   5.341   0.812
97703W        W69319  33.690  13.360  12.926
97704W        W69320  40.287  22.748  11.981
97705W        W69321   9.337   7.054  12.842
97706W        W69322  14.605  32.944   1.706
97707W        W69323  12.167  28.376  10.938
97708W        W69324  12.409  21.113  11.968
97709W        W69325   0.172  31.244   4.128
97710W        W69326  17.662  14.521   2.845
97711W        W69327   8.675  14.368  13.912
97712W        W69328   7.672  18.813   3.723
97713W        W69329  20.338  32.531  14.895
97714W        W69330  32.580  25.953  11.603
97715W        W69331  38.944   3.540   0.033
97716W        W69332  43.926  23.275  11.300
97717W        W69333  38.926  23.585   4.115
97718W        W69334  12.339  43.702  13.012
97719W        W69335  24.516  26.903  13.902
97720W        W69336  14.356  12.538  13.427
97721W        W69337  17.228  24.633   1.170
97722W        W69338  25.609  15.557   4.600
97723W        W69339  42.236  40.067   0.483
97724W        W69340  33.053  34.311   0.774
97725W        W69341  31.621  15.894  12.943
97726W        W69342  37.238  14.700  13.904
97727W        W69343  32.152  16.310  13.546
97728W        W69344  17.740  17.219   5.457
97729W        W69345  10.240  19.333  12.480
97730W        W69346  20.846   6.489  14.374
97731W        W69347  28.157   8.133  10.587
97732W        W69348  20.582  43.838   3.428
97733W        W69349   8.431  40.575  13.861
97734W        W69350  36.019  38.928  14.745
97735W        W69351  10.439  17.687  10.815
97736W        W69352   5.138  21.091  14.000
97737W        W69353   7.111  27.474  14.976
97738W        W69354  28.450  19.537   4.121
97739W        W69355  36.765  29.952  12.357
97740W        W69356  22.140  38.685  11.311
97741W        W69357  33.250  23.344   1.789
97742W        W69358  23.584  10.774  13.975
97743W        W69359  31.688  33.842  10.841
97744W        W69360  36.947   5.782   1.683
97745W        W69361  12.846  19.740  13.566
97746W        W69362  14.011   4.907  13.486
97747W        W69363   2.318   7.029  11.112
97748W        W69364  44.282  31.104   1.723
97749W        W69365  44.229  43.270  11.128
97750W        W69366  24.444  43.320  11.578
97751W        W69367  40.294  28.128   3.033
97752W        W69368  15.729  21.168   3.693
97753W        W69369  30.387  22.165  11.989
97754W        W69370  14.070   2.537   4.168
97755W        W69371  24.952  27.562   2.311
97756W        W69372   8.329   8.152  12.122
97757W        W69373  42.838   6.187  10.803
97758W        W69374  37.490  36.816  10.680
97759W        W69375  43.211   7.205  12.340
97760W        W69376  39.142  36.827  13.648
97761W        W69377  32.468  11.098  11.321
97762W        W69378  20.399  28.673   3.742
97763W        W69379  35.414  38.094  14.847
97764W        W69380   3.868  33.567   4.500
97765W        W69381  43.040  25.532  11.839
97766W        W69382  13.565  24.454  12.653
97767W        W69383  24.949  34.140  14.839
97768W        W69384   5.967  37.062  14.764
97769W        W69385  29.931  28.408  11.668
97770W        W69386  30.634  28.497  13.412
97771W        W69387  39.037   7.422  13.307
97772W        W69388   9.321  24.493   1.145
97773W        W69389  25.594  15.608  13.151
97774W        W69390  39.015   8.941   4.653
97775W        W69391  20.360  44.488   1.781
97776W        W69392  42.605  15.268   3.715
97777W        W69393  28.712  15.419  11.154
97778W        W69394  44.386  43.124   0.451
97779W        W69395  32.929   9.342   1.664
97780W        W69396  21.267  25.695   0.034
97781W        W69397  21.759  26.422   3.741
97782W        W69398  33.454   5.745   2.401
97783W        W69399  35.113  44.210   3.392
97784W        W69400  44.463  19.705   2.640
97785W        W69401  16.164   8.074   0.297
97786W        W69402  43.014   8.061   5.056
97787W        W69403  26.279  18.823  13.687
97788W        W69404  22.733  24.042   9.827
97789W        W69405  20.448  41.318  11.256
97790W        W69406  14.060  25.747   1.235
97791W        W69407  39.398  15.300  13.827
97792W        W69408  42.914  35.612  11.892
97793W        W69409   4.371   2.246  12.872
97794W        W69410  22.177  20.476  11.475
97795W        W69411  38.539   3.704   0.893
97796W        W69412  21.122   0.032  14.356
97797W        W69413  15.535  12.748   3.087
97798W        W69414  30.932  29.671  13.918
97799W        W69415  33.340  39.031   3.330
97800W        W69416  25.528  32.388  12.553
97801W        W69417   9.848  14.303  13.570
97802W        W69418  43.754  44.961   2.785
97803W        W69419  15.205  41.637  14.465
97804W        W69420  10.769  37.848  11.841
97805W        W69421  26.710  29.026   4.658
97806W        W69422  35.129  38.394   2.784
97807W        W69423   0.649  25.240   4.165
97808W        W69424  16.641  14.352   1.963
97809W        W69425  32.903   4.556  12.748
97810W        W69426  13.735  11.396   4.403
97811W        W69427   7.154   4.261  13.504
97812W        W69428  21.973  41.875   1.915
97813W        W69429  36.975   3.883  13.416
97814W        W69430   9.266   9.323   4.185
97815W        W69431   6.995  10.232   1.185
97816W        W69432  27.484  20.645  12.849
97817W        W69433  44.385  17.855  11.135
97818W        W69434  40.859   0.673  13.567
97819W        W69435  20.659  14.940   2.213
97820W        W69436   6.296  10.352  11.091
97821W        W69437   9.827  31.973   0.931
97822W        W69438   3.245  43.301   5.471
97823W        W69439  11.118  28.976   0.797
97824W        W69440  41.927  10.195   4.235
97825W        W69441  17.488  12.288   0.488
97826W        W69442  30.547  10.633   0.551
97827W        W69443  20.568   3.385   3.827
97828W        W69444  27.616   0.982  11.178
97829W        W69445   1.412  28.001  13.736
97830W        W69446  21.968  33.967   4.172
97831W        W69447  37.429   7.307  14.905
97832W        W69448  32.125  19.690   1.739
97833W        W69449  39.568  23.606   1.984
97834W        W69450   0.704  20.029   3.182
97835W        W69451   8.604  44.269   0.270
97836W        W69452  27.145  18.098  13.057
97837W        W69453  41.421  24.080  12.472
97838W        W69454   8.299  34.289   0.577
97839W        W69455  17.978  32.994  13.518
97840W        W69456  35.229  28.956   4.329
97841W        W69457   8.234   4.306  13.807
97842W        W69458  10.080  10.640  12.517
97843W        W69459  14.237   1.459  10.640
97844W        W69460   6.232  39.121  10.307
97845W        W69461  20.641  42.977  11.636
97846W        W69462  43.460  13.644  11.359
97847W        W69463   0.440  26.374  10.737
97848W        W69464  14.516  11.559  14.866
97849W        W69465  33.625  31.038   1.268
97850W        W69466  12.849  32.148   3.097
97851W        W69467   5.489  41.547   0.893
97852W        W69468  17.771  26.228  12.283
97853W        W69469   6.034  12.687   3.929
97854W        W69470  29.669  14.743  14.868
97855W        W69471   7.633  35.788   1.779
97856W        W69472  30.671  32.458  14.220
97857W        W69473  10.135   2.831  14.052
97858W        W69474   2.348  35.580   2.288
97859W        W69475  18.742   6.683  12.975
97860W        W69476  38.001  15.720   4.112
97861W        W69477  37.292  10.603   5.112
97862W        W69478  20.216   7.092  14.968
97863W        W69479   9.492  30.561   2.584
97864W        W69480   8.571  10.341   3.627
97865W        W69481  30.604   9.849   4.574
97866W        W69482  11.587   0.278  13.169
97867W        W69483  43.018  36.207   0.888
97868W        W69484  21.933  43.308  11.576
97869W        W69485  33.031  12.714   2.591
97870W        W69486   0.240  42.630   4.276
97871W        W69487  36.857  23.130   3.671
97872W        W69488  16.497   0.764  13.636
97873W        W69489   2.965  20.894   0.947
97874W        W69490  15.042  39.952  11.614
97875W        W69491  21.169  39.252  12.952
97876W        W69492  26.700  44.102   0.148
97877W        W69493  44.323  15.651  12.146
97878W        W69494  19.248  38.740   2.430
97879W        W69495  35.812  38.800   3.208
97880W        W69496  23.855  26.587   4.501
97881W        W69497  13.522  32.142   4.066
97882W        W69498  30.637  41.528   4.660
97883W        W69499   2.710  41.310   1.718
97884W        W69500  27.272  35.402   2.433
97885W        W69501  11.115  40.636  14.957
97886W        W69502   4.810  19.379  14.417
97887W        W69503  30.904  10.281   4.596
97888W        W69504  20.207  34.948   0.486
97889W        W69505  27.690   2.370  11.019
97890W        W69506  19.653  12.106  10.693
97891W        W69507  25.737  22.042   3.164
97892W        W69508  12.682  13.227  11.429
97893W        W69509   1.233  38.367   1.845
97894W        W69510  22.657  26.561   0.769
97895W        W69511  37.242   6.762  12.049
97896W        W69512  41.962  37.107   2.222
97897W        W69513  36.418  22.465  13.315
97898W        W69514   5.761  20.571   1.782
97899W        W69515  44.015   8.500   1.014
97900W        W69516  38.841  32.415   0.794
97901W        W69517  14.596  16.140   3.692
97902W        W69518  44.540  43.804   1.590
97903W        W69519  18.675  43.886  11.505
97904W        W69520  20.021   7.430  10.582
97905W        W69521  38.339  27.566   2.552
97906W        W69522  10.906  36.907   1.393
97907W        W69523  40.419  42.579  13.039
97908W        W69524   2.385  31.066   1.861
97909W        W69525  44.204  35.089  10.314
97910W        W69526  39.320  11.189   5.379
97911W        W69527  19.697  16.249   0.331
97912W        W69528  35.999  10.412   3.791
97913W        W69529  37.356  11.257  13.788
97914W        W69530  28.027  40.113   3.187
97915W        W69531  12.239  35.389  12.312
97916W        W69532  36.140   8.815   2.358
97917W        W69533  35.889  38.886   0.254
97918W        W69534   2.548  14.502   2.822
97919W        W69535   6.887  12.848   2.533
97920W        W69536  43.753  17.647   4.125
97921W        W69537  39.543   6.167   0.787
97922W        W69538   4.112  17.347   0.258
97923W        W69539  41.611  25.455   3.656
97924W        W69540  36.617  15.698  11.180
97925W        W69541  13.127  22.112   1.872
97926W        W69542   7.550   2.424  12.157
97927W        W69543  35.897  37.610   5.331
97928W        W69544  20.923   5.190  10.143
97929W        W69545  28.655  30.017  12.476
97930W        W69546   2.833  34.893   4.570
97931W        W69547   0.958  23.448   1.500
97932W        W69548   6.394  16.759  12.321
97933W        W69549  33.723  41.080  12.040
97934W        W69550  28.743  37.772   4.937
97935W        W69551  17.939   4.720   0.812
97936W        W69552  36.226  18.553  14.740
97937W        W69553  13.546   8.566  14.798
97938W        W69554  15.560  36.364  12.925
97939W        W69555  13.113  42.761   3.670
97940W        W69556  25.934   3.213   1.511
97941W        W69557  15.772  15.997   5.043
97942W        W69558   7.458  42.467  13.843
97943W        W69559   2.201  27.119  13.539
97944W        W69560  15.138  43.337   3.587
97945W        W69561  37.448   3.994  10.540
97946W        W69562  21.522  42.585   4.222
97947W        W69563   9.914  13.284  14.308
97948W        W69564   9.561   8.643  13.729
97949W        W69565   8.606  26.121  12.021
97950W        W69566   7.769  35.976   0.387
97951W        W69567  34.000  36.340   3.629
97952W        W69568   2.935  44.183   3.585
97953W        W69569  14.255  22.173   4.532
97954W        W69570  22.611  24.571  10.732
97955W        W69571  28.944  36.460  14.187
97956W        W69572  36.073  43.050  10.174
97957W        W69573   5.219   3.728   1.910
97958W        W69574  24.459  30.671   4.146
97959W        W69575  21.322  34.835   5.332
97960W        W69576  32.585  32.816   4.376
97961W        W69577   3.530  44.370  11.469
97962W        W69578   9.847  44.342   0.712
97963W        W69579   8.760  27.945  13.566
97964W        W69580   1.531   6.907  10.831
97965W        W69581  38.292  30.045  12.076
97966W        W69582  42.352  22.099  13.899
97967W        W69583  21.174  41.261  14.738
97968W        W69584  43.581  10.725  13.891
97969W        W69585  27.938  38.802   4.607
97970W        W69586  41.938   9.654   2.230
97971W        W69587  26.222  26.017  12.929
97972W        W69588  41.792  11.906   3.724
97973W        W69589  41.346   1.869  10.443
97974W        W69590   2.397  33.587   1.783
97975W        W69591  14.875  31.106  11.021
97976W        W69592  24.460   0.785   3.801
97977W        W69593  37.459  19.072   2.500
97978W        W69594  11.099  34.908  12.521
97979W        W69595   5.348   2.226  13.563
97980W        W69596  11.368  30.615  13.537
97981W        W69597  36.818  13.728   3.556
97982W        W69598   4.006   7.709  11.616
97983W        W69599  26.567  32.184  12.270
97984W        W69600   8.299   3.230   0.208
97985W        W69601   6.419   8.311  12.153
97986W        W69602  31.015  18.101   3.195
97987W        W69603  22.765  13.682   4.596
97988W        W69604  29.956  34.533   3.081
97989W        W69605  22.180  29.502  10.531
97990W        W69606  21.073  24.454   1.163
97991W        W69607   4.263  16.857   0.430
97992W        W69608   8.614  20.119   4.878
97993W        W69609  30.651  36.595   3.094
97994W        W69610  11.444  10.352  10.508
97995W        W69611  32.093  19.119  10.896
97996W        W69612  43.428  44.430  10.997
97997W        W69613  33.094  29.657  14.332
97998W        W69614   8.174  12.958  12.925
97999W        W69615  29.948  11.668  13.272
98000W        W69616  42.210  37.333   3.350
98001W        W69617  12.710  35.337   1.444
98002W        W69618  14.180   3.647  14.093
98003W        W69619  35.119  25.615   2.224
98004W        W69620  25.279  35.920  10.743
98005W        W69621  13.249   6.631   3.172
98006W        W69622  41.062  24.838  14.444
98007W        W69623   2.044   4.812  10.945
98008W        W69624  36.625  29.020  12.790
98009W        W69625  42.012  29.529   1.768
98010W        W69626   0.553  29.554   3.895
98011W        W69627  19.153   5.887   1.215
98012W        W69628   8.141  30.739   2.983
98013W        W69629   2.696   5.359  11.860
98014W        W69630   5.538  26.831  11.442
98015W        W69631  37.732   5.623  12.789
98016W        W69632  19.091  26.059  13.387
98017W        W69633  24.266  18.591   2.140
98018W        W69634  36.883  30.641  14.422
98019W        W69635   3.206  35.029   3.206
98020W        W69636  15.625   2.322  13.399
98021W        W69637  30.872  35.055   0.821
98022W        W69638  20.011  21.568   0.104
98023W        W69639  14.119  13.164   4.401
98024W        W69640  34.776  33.638   3.647
98025W        W69641  28.713  12.359   0.407
98026W        W69642   0.915  17.796  14.101
98027W        W69643   3.885  12.288  11.402
98028W        W69644  11.755   4.527   0.400
98029W        W69645  22.244  34.539   3.782
98030W        W69646  33.086  43.310   0.745
98031W        W69647  33.970  39.551   0.590
98032W        W69648  42.368  19.781  13.495
98033W        W69649  35.336  10.935   4.892
98034W        W69650  21.372   7.908   3.672
98035W        W69651  32.415  29.896   4.182
98036W        W69652   2.714  27.414   0.539
98037W        W69653   3.822  38.478  10.635
98038W        W69654  44.284   3.878   2.368
98039W        W69655  18.993  12.454  13.764
98040W        W69656  23.839  31.546   2.325
98041W        W69657  18.230  11.388   3.634
98042W        W69658  32.550  23.829  14.830
98043W        W69659  40.668   5.029   1.972
98044W        W69660  30.362  42.447  14.044
98045W        W69661   0.856  25.014  14.249
98046W        W69662  13.199  19.053   4.184
98047W        W69663  19.054  23.665   3.235
98048W        W69664  18.812  34.851   1.894
98049W        W69665  16.770  12.077  12.682
98050W        W69666  24.313  40.008  12.769
98051W        W69667  34.649  37.659   1.160
98052W        W69668   0.143  17.708   4.629
98053W        W69669  38.138  15.699   3.604
98054W        W69670  30.922  39.914  12.800
98055W        W69671   8.168  41.049   1.776
98056W        W69672  28.704  15.605   1.454
98057W        W69673  20.770  13.132   1.730
98058W        W69674  35.553  43.733  14.331
98059W        W69675   8.144   5.720   1.271
98060W        W69676  13.558  16.250   2.672
98061W        W69677  31.434  12.580  10.657
98062W        W69678   8.273  13.337   1.597
98063W        W69679  25.576   9.870   2.381
98064W        W69680  36.902   0.411   1.244
98065W        W69681   7.416  14.770   4.133
98066W        W69682  23.667  27.250  10.993
98067W        W69683   2.717   7.392  11.776
98068W        W69684  24.685   2.232   2.425
98069W        W69685  20.010  30.910  14.885
98070W        W69686  13.730  10.839   0.488
98071W        W69687  21.993  16.125   1.833
98072W        W69688  16.591  26.647   1.176
98073W        W69689  29.555  16.301   1.296
98074W        W69690  30.639  17.369  11.629
98075W        W69691  19.657  19.535   0.010
98076W        W69692  38.767  23.243   0.202
98077W        W69693   1.608  43.838  14.204
98078W        W69694  32.134  23.557   0.006
98079W        W69695  30.042  39.793   1.713
98080W        W69696   2.027   8.613   2.926
98081W        W69697  19.536  24.618   3.615
98082W        W69698  25.206  42.255   3.672
98083W        W69699  34.488  22.191   2.831
98084W        W69700  33.448  39.786   0.492
98085W        W69701  34.868  24.859  10.274
98086W        W69702  21.013  44.587  11.819
98087W        W69703   3.537  23.159   4.799
98088W        W69704  19.023  40.957   2.147
98089W        W69705   4.810  25.409  14.471
98090W        W69706  42.783  29.171  12.941
98091W        W69707  43.432  43.841   2.944
98092W        W69708  41.200   7.457   4.020
98093W        W69709   8.147   7.185  12.075
98094W        W69710   9.059  42.313  14.078
98095W        W69711  38.777  42.001  11.796
98096W        W69712  15.850   1.746  11.129
98097W        W69713   1.382  28.732   3.763
98098W        W69714  19.283  32.047  12.296
98099W        W69715  19.015  11.213   1.841
98100W        W69716  13.727  23.617  11.127
98101W        W69717  22.730  20.531   1.696
98102W        W69718  10.229  24.199   4.606
98103W        W69719  41.968  16.213  14.263
98104W        W69720   8.422   5.312  14.571
98105W        W69721  35.961  34.043   4.349
98106W        W69722  28.895   8.640   2.575
98107W        W69723   0.009  38.042  11.551
98108W        W69724  38.096  44.518  11.257
98109W        W69725  23.464  10.174   3.878
98110W        W69726   9.354  33.466  13.872
98111W        W69727  12.144  34.083   3.054
98112W        W69728  12.062  31.150  12.874
98113W        W69729  31.619  39.906  11.466
98114W        W69730   3.151  10.261  12.917
98115W        W69731  41.815  21.556  14.933
98116W        W69732   8.861  42.024  14.485
98117W        W69733   4.005  24.988   4.187
98118W        W69734  24.038  18.463  11.071
98119W        W69735   1.316  25.139  11.043
98120W        W69736  19.572   3.487   1.805
98121W        W69737  24.743  25.002   3.737
98122W        W69738   8.210  36.359  11.117
98123W        W69739  19.744  43.275  11.198
98124W        W69740   2.896  37.908   4.409
98125W        W69741   3.827  44.200   1.134
98126W        W69742  26.978  38.946  13.501
98127W        W69743   2.776   8.381  14.885
98128W        W69744  23.732  42.490   4.912
98129W        W69745   8.194   5.274   3.604
98130W        W69746  22.265  27.496  13.148
98131W        W69747  27.289  42.296  12.925
98132W        W69748  41.836  29.556  13.909
98133W        W69749   6.709   0.868  12.562
98134W        W69750   1.008  35.107  13.030
98135W        W69751  28.690  29.530   2.521
98136W        W69752  27.183  16.178   2.154
98137W        W69753  30.402   8.716  14.956
98138W        W69754   2.935   7.045   0.904
98139W        W69755  23.351   0.442   4.974
98140W        W69756  38.397  42.884   1.707
98141W        W69757  35.172   2.137   2.818
98142W        W69758   4.672   9.336   3.578
98143W        W69759   0.788   3.861   3.841
98144W        W69760  15.623  19.525  10.072
98145W        W69761  20.195   6.397  12.868
98146W        W69762   4.201  41.764   3.388
98147W        W69763  12.408   5.280   3.159
98148W        W69764  11.618  37.524   0.372
98149W        W69765  39.603   4.091  10.549
98150W        W69766  34.846  23.053   3.546
98151W        W69767  37.420  12.238   4.627
98152W        W69768  15.259  16.070   4.165
98153W        W69769   2.408  41.559  11.557
98154W        W69770   4.525  43.443   1.913
98155W        W69771  29.702  23.777   1.878
98156W        W69772  13.569  34.139   2.770
98157W        W69773  28.967  34.723  10.638
98158W        W69774  42.543  37.068   0.954
98159W        W69775   7.594  44.469  14.351
98160W        W69776  37.639  38.901   3.587
98161W        W69777   2.205  10.217  11.054
98162W        W69778  31.738  41.258   0.664
98163W        W69779  43.458   8.603  14.276
98164W        W69780   7.233   5.233   1.744
98165W        W69781  14.149  24.696   4.845
98166W        W69782  21.311  31.215   1.269
98167W        W69783  39.609  18.645  11.657
98168W        W69784  41.387  33.991  12.598
98169W        W69785  37.508  16.045   0.794
98170W        W69786  33.001   8.332  14.325
98171W        W69787  25.979  10.904   2.277
98172W        W69788  37.508   3.061  11.584
98173W        W69789  33.854  11.549   0.474
98174W        W69790  40.363  32.925  14.878
98175W        W69791  34.459  20.634  12.667
98176W        W69792  37.463   4.571   1.805
98177W        W69793  23.888  26.975   0.687
98178W        W69794   7.860  32.304  14.553
98179W        W69795  27.017  33.483   0.521
98180W        W69796  36.488  20.743  13.465
98181W        W69797  16.102  23.800   4.146
98182W        W69798  26.688  32.195   2.756
98183W        W69799  40.050  32.462  10.434
98184W        W69800  21.608   8.384   3.625
98185W        W69801  12.674  32.985   2.186
98186W        W69802   0.417  30.495   1.305
98187W        W69803  15.225  36.290   1.739
98188W        W69804   7.718  43.829  13.773
98189W        W69805  35.121   1.728   1.662
98190W        W69806  34.976  30.486  14.364
98191W        W69807   8.475   3.953  14.096
98192W        W69808  26.989   5.032   4.140
98193W        W69809  27.905  18.714   0.171
98194W        W69810  39.043  26.946  10.244
98195W        W69811  37.832  43.692  13.501
98196W        W69812  26.462  12.302   3.249
98197W        W69813   3.984   9.148  11.568
98198W        W69814  34.140  32.251   2.241
98199W        W69815  24.493  13.260  11.508
98200W        W69816  40.817   2.778   4.574
98201W        W69817  25.954  34.108   4.496
98202W        W69818  20.099   4.256  11.849
98203W        W69819  21.487  12.206  12.851
98204W        W69820  15.830  39.386   4.512
98205W        W69821  24.451   1.399   4.651
98206W        W69822  13.631   2.232   2.100
98207W        W69823  31.398  13.047   2.222
98208W        W69824  17.289  35.866   4.113
98209W        W69825  36.026  36.375   3.811
98210W        W69826  27.518  16.768   9.897
98211W        W69827  33.412  24.771  10.155
98212W        W69828  22.289  43.826  12.283
98213W        W69829  10.928   0.805  14.542
98214W        W69830  37.019  24.213  10.999
98215W        W69831   5.022  15.548  11.102
98216W        W69832  18.984  34.227  10.737
98217W        W69833  14.153  37.126   0.282
98218W        W69834  34.832   2.383  14.484
98219W        W69835  19.794  13.640   2.082
98220W        W69836  34.117  30.069  11.329
98221W        W69837   5.052   4.262   0.249
98222W        W69838  28.612   1.509   1.829
98223W        W69839  29.209  19.631   3.168
98224W        W69840  44.221   7.770   1.488
98225W        W69841  31.350  19.002  14.006
98226W        W69842  17.227  27.418   2.195
98227W        W69843  43.330   3.806   3.146
98228W        W69844  30.488   4.997   3.653
98229W        W69845  31.008  16.801   3.336
98230W        W69846  35.827   7.939  12.393
98231W        W69847  19.913  19.563   2.650
98232W        W69848   6.492  38.004   1.910
98233W        W69849  19.197  30.634  10.516
98234W        W69850  16.659  28.603   0.750
98235W        W69851  38.523  19.151  11.044
98236W        W69852  29.480  41.063   1.825
98237W        W69853  26.869   5.195  11.001
98238W        W69854   7.395   0.919  13.908
98239W        W69855  14.849  32.172   2.256
98240W        W69856  20.206  43.634  10.630
98241W        W69857  13.799   7.353   1.000
98242W        W69858  23.080  41.238   3.599
98243W        W69859  33.710  15.302  12.040
98244W        W69860  37.979  33.875   1.744
98245W        W69861  15.279  23.949   4.427
98246W        W69862  16.798  20.540  10.666
98247W        W69863  25.130   6.676   0.407
98248W        W69864  29.765  31.642  14.249
98249W        W69865  27.349  27.646  11.116
98250W        W69866  32.105  35.304   1.064
98251W        W69867  16.698  33.563   0.894
98252W        W69868  18.616  37.908   4.453
98253W        W69869  19.260   9.341   1.902
98254W        W69870  18.090   9.730   3.330
98255W        W69871   4.770  41.332   2.762
98256W        W69872  15.935  18.644   0.354
98257W        W69873  35.612  23.109   3.172
98258W        W69874  44.266  42.854  10.786
98259W        W69875  29.022  11.324   4.376
98260W        W69876  25.170  44.100   3.446
98261W        W69877  15.293  28.188  13.059
98262W        W69878  34.553  40.161   2.369
98263W        W69879  19.027  28.107  13.797
98264W        W69880   5.887  22.470  14.931
98265W        W69881  43.144   8.662  14.701
98266W        W69882  39.352  20.556   0.104
98267W        W69883   7.924  38.771   2.180
98268W        W69884   1.271   7.563  11.180
98269W        W69885  17.574  11.261  14.519
98270W        W69886  25.902  18.061   2.234
98271W        W69887  40.148  42.018  14.048
98272W        W69888  10.980  38.415   1.327
98273W        W69889  31.853  24.239   1.025
98274W        W69890  18.413  30.635  13.071
98275W        W69891  43.570  36.165  11.554
98276W        W69892  28.051  44.475   0.343
98277W        W69893   4.895  29.954   2.942
98278W        W69894  25.865  29.708  13.008
98279W        W69895  29.445   4.693  13.998
98280W        W69896   9.346  14.354   1.306
98281W        W69897  26.444  22.843  12.847
98282W        W69898  32.127  30.606   1.890
98283W        W69899   7.952  10.417   4.151
98284W        W69900  21.780  12.713  11.641
98285W        W69901  19.616  34.877  12.771
98286W        W69902  34.953   5.935   3.315
98287W        W69903  37.580  25.433  14.853
98288W        W69904  38.537  32.959   1.819
98289W        W69905  27.114  31.645   4.214
98290W        W69906  25.751  26.010   2.908
98291W        W69907   9.641  14.740  11.604
98292W        W69908  19.431  17.041  12.486
98293W        W69909  35.133  23.093   2.149
98294W        W69910  32.244  18.167   0.331
98295W        W69911  14.347  41.727   4.679
98296W        W69912  40.074  12.428  11.958
98297W        W69913  27.637  25.465   4.370
98298W        W69914  15.232  24.651   0.253
98299W        W69915   4.013  22.222  13.773
98300W        W69916  39.771  30.066  11.121
98301W        W69917   0.299  12.111   0.491
98302W        W69918  17.510  44.895   2.203
98303W        W69919  37.472  42.743  11.098
98304W        W69920  30.367  23.320  13.363
98305W        W69921  42.424  27.424   2.409
98306W        W69922  20.848  44.217  14.012
98307W        W69923  18.922  21.196  11.273
98308W        W69924  14.804  25.071   4.151
98309W        W69925  10.469  24.552  13.844
98310W        W69926  31.864  13.713   4.697
98311W        W69927   4.709  13.759  13.995
98312W        W69928  18.035  25.619   0.230
98313W        W69929  42.302  31.428  12.812
98314W        W69930   8.418  23.177   4.537
98315W        W69931  22.037  32.533   0.980
98316W        W69932  16.291  36.162   0.918
98317W        W69933  33.078   5.252  14.476
98318W        W69934  32.533  18.137   0.802
98319W        W69935  31.001  16.556   2.875
98320W        W69936  16.591  43.091   1.653
98321W        W69937  15.857  18.518   5.495
98322W        W69938   9.172   1.844   0.388
98323W        W69939  24.560  34.995   0.950
98324W        W69940  35.497   3.104   4.826
98325W        W69941  12.691  42.282   4.151
98326W        W69942   7.929  19.240   0.031
98327W        W69943  39.376  26.781  12.474
98328W        W69944  21.073  41.755   2.268
98329W        W69945  31.432  26.542   1.208
98330W        W69946   5.368   2.721  10.533
98331W        W69947  29.356   5.240  10.746
98332W        W69948  38.338  11.731  12.530
98333W        W69949  33.189  19.265  12.579
98334W        W69950  19.736  32.685  10.750
98335W        W69951   7.952  43.812  11.086
98336W        W69952  30.916  36.916   1.869
98337W        W69953  13.373  14.197   0.307
98338W        W69954  29.018  19.610  12.988
98339W        W69955   0.149   1.227   3.957
98340W        W69956  26.464  15.363   0.467
98341W        W69957  21.603  26.604  13.409
98342W        W69958  43.324  23.121   0.284
98343W        W69959   0.477  19.683   2.817
98344W        W69960   9.688  32.469   4.427
98345W        W69961   4.864  44.324   0.620
98346W        W69962  23.103  24.775   3.165
98347W        W69963  20.429  32.449  14.050
98348W        W69964  18.251  24.253   3.251
98349W        W69965  28.237   8.628  10.737
98350W        W69966   6.760   4.402  13.862
98351W        W69967  15.798  42.116   1.712
98352W        W69968  17.826  28.198  12.584
98353W        W69969  25.175   3.911   0.791
98354W        W69970  36.422  23.111   1.281
98355W        W69971  42.750  32.551  10.952
98356W        W69972   2.391   6.355   1.460
98357W        W69973  33.981  26.531  13.810
98358W        W69974   2.180  13.813  14.394
98359W        W69975  26.368   8.725   1.732
98360W        W69976  20.057  28.538  12.473
98361W        W69977   4.316  15.118   3.559
98362W        W69978  28.339  18.525   1.779
98363W        W69979  13.067  32.895  12.522
98364W        W69980  31.180  17.277  12.935
98365W        W69981  29.391  26.157  11.110
98366W        W69982  28.588   4.770   0.455
98367W        W69983  15.626  31.505   1.505
98368W        W69984  35.022  14.905  11.319
98369W        W69985  11.639  28.455  12.463
98370W        W69986   2.656  33.481  13.934
98371W        W69987  22.666   9.825   2.711
98372W        W69988   5.186   6.843  12.000
98373W        W69989  12.059   9.542   3.351
98374W        W69990   8.238  42.860  13.872
98375W        W69991   6.499   2.613   4.227
98376W        W69992  26.091   4.688   4.136
98377W        W69993  42.032  21.660   3.919
98378W        W69994   1.374  17.601  14.200
98379W        W69995  36.582  30.433  10.695
98380W        W69996  27.398   9.631  13.324
98381W        W69997  34.027  27.044   3.357
98382W        W69998  27.720  41.324   3.633
98383W        W69999  15.636  21.902   4.075
98384W        W70000  20.865  38.514   0.828
98385W        W70001  28.248  12.668   0.833
98386W        W70002  26.669  34.938  14.408
98387W        W70003   2.039  27.203  13.032
98388W        W70004  19.711  14.592  11.564
98389W        W70005  20.492  29.631   1.289
98390W        W70006   2.763  32.730  14.418
98391W        W70007   7.041   6.395  12.822
98392W        W70008  33.536  34.540   2.711
98393W        W70009   6.777  20.475  14.719
98394W        W70010  38.852  23.130  10.922
98395W        W70011   3.388  31.412  14.399
98396W        W70012  34.558  38.345   4.544
98397W        W70013  30.617  11.278  14.240
98398W        W70014   5.479   8.580  14.066
98399W        W70015  17.532  14.630   1.929
98400W        W70016  42.675   8.970  10.880
98401W        W70017  24.133  42.669   4.152
98402W        W70018  27.261  20.515   2.648
98403W        W70019  36.508   9.407   3.362
98404W        W70020  34.975  18.298  12.993
98405W        W70021   8.260  26.147  13.604
98406W        W70022  11.664   9.070  11.555
98407W        W70023  18.094  10.661  12.545
98408W        W70024   6.668  23.298   4.484
98409W        W70025  17.282  23.609  13.120
98410W        W70026  23.036  12.581   0.901
98411W        W70027  24.899   9.401  14.935
98412W        W70028  41.886  34.537  11.483
98413W        W70029  30.377   6.744  14.339
98414W        W70030   9.104   6.343   3.087
98415W        W70031   1.828  34.035  14.075
98416W        W70032  11.956  14.271  10.277
98417W        W70033  21.006  36.435  11.264
98418W        W70034  27.601  40.044   0.485
98419W        W70035  25.061  25.269   2.230
98420W        W70036  43.007  24.650  12.073
98421W        W70037  20.489  33.565  12.083
98422W        W70038   6.227  20.410   2.023
98423W        W70039  22.093  40.912   4.845
98424W        W70040  32.352   7.812  13.876
98425W        W70041   4.252  40.158   0.085
98426W        W70042  30.010  23.596  13.628
98427W        W70043  10.243  21.851   1.852
98428W        W70044  24.185  19.396   2.789
98429W        W70045  27.483  33.617  14.355
98430W        W70046   3.808   5.685   4.270
98431W        W70047  38.333   5.953  13.076
98432W        W70048  11.254  42.887  14.663
98433W        W70049   1.265  16.247  11.981
98434W        W70050  31.565  20.663  14.003
98435W        W70051  13.673   4.720  10.392
98436W        W70052  43.756   8.685   5.038
98437W        W70053  18.563  40.995   0.786
98438W        W70054  17.752  37.049  11.989
98439W        W70055   2.179   6.921   3.715
98440W        W70056  14.200  36.021   1.303
98441W        W70057  16.798   6.864   3.279
98442W        W70058  18.707  17.251   3.633
98443W        W70059  37.541  30.611  14.853
98444W        W70060  26.188  23.431  11.120
98445W        W70061   8.665  17.840  13.468
98446W        W70062  41.029  40.569  11.601
98447W        W70063  23.762  39.978  11.891
98448W        W70064   2.904  17.913  13.866
98449W        W70065  30.742   2.579   0.930
98450W        W70066  27.267  23.613  14.419
98451W        W70067  29.490   2.463   4.062
98452W        W70068  17.133  12.250  14.051
98453W        W70069  17.854  36.059  13.435
98454W        W70070  42.362  25.306   1.298
98455W        W70071  30.515  41.750  13.584
98456W        W70072  29.788  17.050  10.369
98457W        W70073  11.390  10.180   0.440
98458W        W70074  19.705  11.774   2.260
98459W        W70075  27.098  20.632  12.490
98460W        W70076  21.252  13.926  13.496
98461W        W70077  35.781  36.088  11.447
98462W        W70078  31.899  42.809  13.344
98463W        W70079   9.215  11.232  14.036
98464W        W70080  38.325  14.825   4.883
98465W        W70081  30.298  12.893  14.828
98466W        W70082  39.896   5.248   3.174
98467W        W70083  12.394   9.609  10.892
98468W        W70084   8.266  29.573  12.069
98469W        W70085  11.088   5.195   1.365
98470W        W70086  12.777   1.735  14.450
98471W        W70087  31.865  26.538   2.634
98472W        W70088  32.919  17.492   4.602
98473W        W70089  12.808   7.937   0.258
98474W        W70090  24.139  23.172   4.637
98475W        W70091  28.947  17.865  10.553
98476W        W70092   5.937  41.634   2.187
98477W        W70093  19.078  19.228   3.070
98478W        W70094  33.357  13.782   3.631
98479W        W70095   5.121  38.423  13.863
98480W        W70096  40.595  18.574  12.609
98481W        W70097  16.636  35.033   4.277
98482W        W70098  42.144   4.824  11.493
98483W        W70099  10.478  22.702   4.943
98484W        W70100  17.176   4.913  14.859
98485W        W70101  14.393  13.223   2.933
98486W        W70102   4.419  38.859   2.105
98487W        W70103  34.662  26.703   2.669
98488W        W70104  32.287  23.006   5.038
98489W        W70105  38.964  37.951   3.165
98490W        W70106  14.350   6.433  14.903
98491W        W70107   9.415  17.808   0.244
98492W        W70108   8.288  26.697  13.886
98493W        W70109  34.058  30.899   3.672
98494W        W70110  33.593  34.501   4.187
98495W        W70111   4.265  37.573  14.271
98496W        W70112  15.649   5.188  14.235
98497W        W70113  31.185  44.527  12.924
98498W        W70114  30.945   9.766  14.418
98499W        W70115  19.205  10.262  13.561
98500W        W70116  15.288  21.257   4.515
98501W        W70117  23.045  38.083  11.128
98502W        W70118  11.465  41.201   3.724
98503W        W70119   0.061  14.219   3.183
98504W        W70120  27.791  11.750   1.784
98505W        W70121  27.419  38.918   4.666
98506W        W70122   1.208   6.185  14.904
98507W        W70123   3.817   8.160   2.337
98508W        W70124  28.599  35.061  13.928
98509W        W70125   4.219  42.225   4.139
98510W        W70126  35.380  14.229   2.655
98511W        W70127  30.119  44.819  11.011
98512W        W70128  33.964   5.576   4.067
98513W        W70129  43.095  35.032   2.758
98514W        W70130   5.228   5.275   4.180
98515W        W70131  19.076  44.547  11.066
98516W        W70132  27.572  31.147   3.760
98517W        W70133   5.685  39.904   3.820
98518W        W70134  11.671  26.205   3.763
98519W        W70135  24.234  14.713  13.927
98520W        W70136  12.860  28.741   3.488
98521W        W70137  25.946   8.757  14.368
98522W        W70138  25.311  17.204  11.491
98523W        W70139  33.423  13.300  11.960
98524W        W70140  43.814  30.052  10.794
98525W        W70141  27.673  27.472   0.889
98526W        W70142  19.648  34.664   0.589
98527W        W70143  41.844   4.475   1.572
98528W        W70144  11.589  18.068   4.683
98529W        W70145   4.449  29.064   0.924
98530W        W70146  40.671  31.972   4.599
98531W        W70147  28.488   5.358  12.089
98532W        W70148   6.228  11.886  14.772
98533W        W70149  18.818  29.558  10.814
98534W        W70150   8.550  17.159   3.746
98535W        W70151  20.740   2.204   3.275
98536W        W70152  22.276  38.705  12.668
98537W        W70153  20.010  20.613   0.980
98538W        W70154   7.264  20.995  12.459
98539W        W70155  15.103  32.998   4.131
98540W        W70156  19.712  15.636   3.759
98541W        W70157  25.564  24.544   3.679
98542W        W70158  43.476  11.388   0.615
98543W        W70159   1.784  14.165  13.147
98544W        W70160   2.400  40.177   0.374
98545W        W70161   8.226  41.076   0.307
98546W        W70162   2.263  26.064   1.357
98547W        W70163   8.811  41.945   4.141
98548W        W70164  34.471  29.618   2.686
98549W        W70165  35.009   1.712   2.172
98550W        W70166  43.072  39.515   3.745
98551W        W70167  32.498  23.483   0.845
98552W        W70168  13.370  18.958   1.673
98553W        W70169   9.093  20.242   2.718
98554W        W70170   5.680  16.192  13.701
98555W        W70171  17.875   3.192  11.505
98556W        W70172   7.952  10.061  12.637
98557W        W70173  20.075  39.296   4.572
98558W        W70174  15.337  43.732  14.054
98559W        W70175   5.096  38.058  13.362
98560W        W70176   4.219  23.814  10.160
98561W        W70177  41.214  25.124   3.372
98562W        W70178   1.340  24.013   0.924
98563W        W70179  31.151  10.326  14.943
98564W        W70180  39.339  34.984  12.201
98565W        W70181  29.553  21.864  14.035
98566W        W70182  25.707   8.368   0.684
98567W        W70183   8.015  37.324  13.373
98568W        W70184  36.491   3.845   0.202
98569W        W70185   9.716  25.948   1.797
98570W        W70186   7.113   1.812   4.635
98571W        W70187  27.749   0.343   3.335
98572W        W70188  27.305   1.315   2.238
98573W        W70189  17.571  33.441   4.124
98574W        W70190  39.546   0.670   2.333
98575W        W70191  15.870  33.520   2.700
98576W        W70192  28.364  24.306   0.473
98577W        W70193  33.719   7.249   4.340
98578W        W70194  10.748  14.040   4.226
98579W        W70195  12.205  42.839  11.975
98580W        W70196  19.694  40.285   0.686
98581W        W70197  41.792  40.000  13.593
98582W        W70198  20.377  25.619   4.526
98583W        W70199  41.226  39.096  11.868
98584W        W70200  16.015  12.217  14.482
98585W        W70201  38.684   4.680   4.888
98586W        W70202  23.158  15.059   0.861
98587W        W70203  13.376  15.760   2.316
98588W        W70204  35.479  31.855   2.972
98589W        W70205  25.442  39.362  12.877
98590W        W70206  17.758  36.141  12.439
98591W        W70207   6.620  23.985  12.604
98592W        W70208  20.772  21.485   1.231
98593W        W70209  38.924  13.131  10.571
98594W        W70210   0.268   2.019  13.049
98595W        W70211  43.460   6.342   4.655
98596W        W70212  33.442  38.874  14.037
98597W        W70213  41.969  18.713  13.070
98598W        W70214  20.165   5.230  10.713
98599W        W70215  41.881  41.941  11.158
98600W        W70216  32.029  15.423   3.658
98601W        W70217  16.670  39.052  14.888
98602W        W70218  44.072  12.253  12.477
98603W        W70219  27.428   9.343  14.978
98604W        W70220  13.139  25.325   1.697
98605W        W70221  27.170  38.089  13.906
98606W        W70222  24.754  28.065  11.635
98607W        W70223  24.732  34.861  13.376
98608W        W70224  19.133  29.857  13.480
98609W        W70225   4.456  11.932  11.063
98610W        W70226  15.841  39.951  13.979
98611W        W70227  25.637   4.198  13.827
98612W        W70228  16.425  37.717   1.713
98613W        W70229  32.592  20.700   3.372
98614W        W70230  40.121   5.681   2.363
98615W        W70231   3.538  42.483  13.027
98616W        W70232  29.450  44.139  14.016
98617W        W70233  10.236  42.830   2.711
98618W        W70234  15.127  38.421  10.775
98619W        W70235  10.231  28.653   3.426
98620W        W70236  30.612  29.388   0.102
98621W        W70237  20.799  38.984  11.493
98622W        W70238  22.806   8.151  13.652
98623W        W70239  14.800  35.519  11.533
98624W        W70240   1.536  36.476   1.892
98625W        W70241  43.528  23.025   2.699
98626W        W70242  35.045  41.341   1.245
98627W        W70243   7.303   3.201  10.630
98628W        W70244  19.531  38.105   2.324
98629W        W70245  15.068   0.413  10.721
98630W        W70246  19.458  41.912  13.393
98631W        W70247   5.639  31.096   4.722
98632W        W70248  19.579  35.585  12.028
98633W        W70249  24.925   6.649   2.986
98634W        W70250  33.128  15.997   2.271
98635W        W70251  15.376  39.052   0.925
98636W        W70252  21.404  12.717  14.886
98637W        W70253  37.337  26.944   3.132
98638W        W70254  25.324  19.714   4.068
98639W        W70255  35.378  17.470   1.892
98640W        W70256  27.785  26.706  13.517
98641W        W70257  13.282  34.694   2.401
98642W        W70258  35.371   1.506   0.284
98643W        W70259  33.194   7.715  13.967
98644W        W70260  42.558  18.092   1.402
98645W        W70261  10.852  44.763   0.839
98646W        W70262  14.951  43.238   4.431
98647W        W70263  26.508  38.373   3.562
98648W        W70264  34.968  27.993   0.961
98649W        W70265  11.689  25.462  12.989
98650W        W70266  21.202  21.958   0.315
98651W        W70267  20.337  37.016   1.287
98652W        W70268  18.023  21.140   3.237
98653W        W70269  10.623  13.827  13.391
98654W        W70270   6.338  25.659  12.822
98655W        W70271  32.471  32.798   1.680
98656W        W70272   8.187  35.389   0.839
98657W        W70273  44.787  28.988   3.521
98658W        W70274   6.618  12.743  11.482
98659W        W70275  43.806   2.743  11.144
98660W        W70276  18.094  44.771   0.397
98661W        W70277  31.807  12.828  14.939
98662W        W70278  31.364  42.747  12.443
98663W        W70279  43.822   5.686  13.566
98664W        W70280   2.014  11.885   0.957
98665W        W70281  18.068  36.848  13.580
98666W        W70282  36.516  28.905  14.834
98667W        W70283  32.073  16.703  11.153
98668W        W70284   8.937   5.331  12.981
98669W        W70285   2.270  13.960   2.127
98670W        W70286  36.892  36.071   4.311
98671W        W70287  43.284  36.083   2.671
98672W        W70288   0.963  15.097   4.132
98673W        W70289  34.953  15.664   1.454
98674W        W70290  11.231  42.474   1.431
98675W        W70291  36.964  34.397   3.626
98676W        W70292  43.183   9.714  13.835
98677W        W70293   6.987  25.517  14.396
98678W        W70294  43.324  35.654  13.125
98679W        W70295  39.880  13.677   1.832
98680W        W70296  11.267   6.005   0.944
98681W        W70297  12.913  12.752   0.016
98682W        W70298   5.225  16.350  11.988
98683W        W70299  16.731  26.053  12.833
98684W        W70300   2.373  19.131   4.525
98685W        W70301  15.196  31.947   2.627
98686W        W70302  14.940  23.195   2.845
98687W        W70303   2.767   2.615  11.080
98688W        W70304  14.388  29.597   4.974
98689W        W70305  33.618  20.778   4.772
98690W        W70306  31.167   3.409  13.905
98691W        W70307  41.090  26.493   2.752
98692W        W70308  29.926  36.458   2.610
98693W        W70309  35.933  27.142  10.644
98694W        W70310   5.609  15.201  12.000
98695W        W70311   1.478  41.477   4.709
98696W        W70312  30.263   8.343  12.808
98697W        W70313  22.547  16.918  11.577
98698W        W70314  21.315   4.430  14.085
98699W        W70315  39.492   3.845   5.204
98700W        W70316  17.142  44.966  11.134
98701W        W70317   1.330  23.200  14.969
98702W        W70318  44.744  26.161  10.778
98703W        W70319   2.339  25.174   2.338
98704W        W70320  13.848  34.895  11.648
98705W        W70321  20.788  22.941   1.178
98706W        W70322  40.133   0.379   0.398
98707W        W70323  39.510  29.582  11.951
98708W        W70324  10.398  18.616  13.392
98709W        W70325  22.648  17.071   2.565
98710W        W70326  36.498  19.205  13.020
98711W        W70327  26.027  40.060  11.962
98712W        W70328  22.700  23.102  13.491
98713W        W70329  34.526  35.648   2.905
98714W        W70330  22.229  44.483  11.546
98715W        W70331  38.071  35.906   0.943
98716W        W70332   3.816  42.339   1.851
98717W        W70333  40.533   7.476   4.198
98718W        W70334  44.266  14.915   0.330
98719W        W70335  36.623  28.001   4.524
98720W        W70336  37.468   3.775   0.751
98721W        W70337  38.849  10.360  13.978
98722W        W70338  33.467  26.927   0.692
98723W        W70339  10.666   8.188   2.874
98724W        W70340  11.540  27.485  12.837
98725W        W70341  23.729  24.387   1.409
98726W        W70342  43.835  31.447   0.983
98727W        W70343  21.559  35.797  14.375
98728W        W70344   2.172  17.971  12.910
98729W        W70345  19.251  22.271   0.592
98730W        W70346  38.153  31.051  12.081
98731W        W70347  20.107  43.162  10.865
98732W        W70348  18.081  35.465  13.312
98733W        W70349  21.271  17.230  14.460
98734W        W70350  20.497  39.909   0.481
98735W        W70351   3.135   5.722   0.486
98736W        W70352  38.111  15.649  12.402
98737W        W70353  31.107   8.566   4.512
98738W        W70354  41.414  20.070   0.292
98739W        W70355   1.782   2.710   3.089
98740W        W70356   6.224   4.666  10.286
98741W        W70357  28.932  41.302   0.679
98742W        W70358  20.985  42.312  14.556
98743W        W70359   6.559  17.330   3.581
98744W        W70360   3.089  25.641   4.982
98745W        W70361   0.723  22.391  12.306
98746W        W70362  30.469  16.326   0.325
98747W        W70363   0.331  16.939   2.153
98748W        W70364  25.650  38.511  12.579
98749W        W70365   5.632  44.957  11.013
98750W        W70366  39.902  12.107  12.386
98751W        W70367   2.308   1.486  12.689
98752W        W70368  39.579  23.704  14.504
98753W        W70369  19.729  16.203   1.240
98754W        W70370  18.178   9.564   0.249
98755W        W70371  10.913   6.851   0.626
98756W        W70372  18.536  41.263   0.332
98757W        W70373  24.902   9.409   1.681
98758W        W70374  23.692  16.597   1.468
98759W        W70375  10.181  23.222  14.339
98760W        W70376  14.485  33.518   3.287
98761W        W70377  20.609  26.524  12.381
98762W        W70378  21.036  34.645   2.838
98763W        W70379  22.658  44.650   1.847
98764W        W70380  26.158   6.516   2.069
98765W        W70381  30.771  13.215   5.306
98766W        W70382   7.956   3.993  13.381
98767W        W70383  44.539  39.096   5.071
98768W        W70384  18.126  10.846   0.943
98769W        W70385  23.302  41.153   0.852
98770W        W70386  14.566  37.907  12.599
98771W        W70387  37.885  25.013   3.755
98772W        W70388   8.388  24.734  10.736
98773W        W70389  19.248  18.953  12.460
98774W        W70390  24.146  27.862  12.561
98775W        W70391  33.039  16.886  11.509
98776W        W70392  11.654  29.000   0.821
98777W        W70393   1.017  41.021   4.127
98778W        W70394   9.131  35.568   1.102
98779W        W70395  11.618   5.099   1.280
98780W        W70396  30.879  22.633   0.809
98781W        W70397  13.630  23.171  14.186
98782W        W70398  39.984  11.582   3.823
98783W        W70399   4.094  36.391   0.357
98784W        W70400  21.518   4.293  11.598
98785W        W70401  25.697  39.495  13.314
98786W        W70402  26.550  28.093   2.701
98787W        W70403  17.737  25.629   2.437
98788W        W70404  31.122  42.313   4.555
98789W        W70405   3.460  12.818   2.385
98790W        W70406  18.656  13.541   4.170
98791W        W70407   2.662  41.492   2.664
98792W        W70408  28.046  35.656   3.650
98793W        W70409  25.246  31.871  13.912
98794W        W70410   2.298  21.098   0.477
98795W        W70411  14.284  21.033  11.347
98796W        W70412  35.662  38.998  14.357
98797W        W70413  34.748  34.647   2.412
98798W        W70414  35.510  27.098   1.482
98799W        W70415  21.026  24.091  12.566
98800W        W70416  32.874  31.044  13.009
98801W        W70417  44.357  42.773  13.805
98802W        W70418  11.284  32.571  10.723
98803W        W70419  11.260  23.528   0.359
98804W        W70420  39.568  15.123  12.490
98805W        W70421  18.711  30.580   4.968
98806W        W70422  22.968  22.992   2.626
98807W        W70423   5.387   4.670   1.849
98808W        W70424  26.227   7.127   2.846
98809W        W70425   1.208  13.609  11.002
98810W        W70426  28.082   7.402  12.368
98811W        W70427  32.126  31.168   5.041
98812W        W70428  27.403  40.379  13.973
98813W        W70429  12.272  35.300   1.145
98814W        W70430  30.520  37.957   4.520
98815W        W70431  36.030  17.016   3.252
98816W        W70432   2.142  10.668   1.325
98817W        W70433  34.047  30.929  14.554
98818W        W70434  17.805  14.708   0.949
98819W        W70435  32.508  27.175  11.869
98820W        W70436  19.406   7.210   1.248
98821W        W70437  41.015  40.996  13.815
98822W        W70438   8.570  19.804   0.108
98823W        W70439  12.066  34.532   3.379
98824W        W70440  10.718  28.626   3.226
98825W        W70441  14.490   9.314  12.483
98826W        W70442  32.392  19.803  10.940
98827W        W70443  26.611  25.003   1.339
98828W        W70444  43.345  38.595  12.850
98829W        W70445  37.874  11.286  13.843
98830W        W70446  25.681   3.907   3.271
98831W        W70447  35.888  37.226   0.809
98832W        W70448  19.662   7.692   3.164
98833W        W70449  39.151  39.047   2.680
98834W        W70450   7.704  35.691  10.472
98835W        W70451   1.999  14.919   3.619
98836W        W70452  18.874  36.506  12.458
98837W        W70453  11.150  21.662   2.433
98838W        W70454   7.254  43.491   2.886
98839W        W70455  31.054   5.402  11.639
98840W        W70456  29.664   1.341   3.147
98841W        W70457  33.787  20.199   3.565
98842W        W70458  12.573  18.435  11.988
98843W        W70459  10.277  15.204   3.988
98844W        W70460  21.541  32.455   3.332
98845W        W70461  34.982  39.865  13.854
98846W        W70462  17.068   8.218   4.449
98847W        W70463  14.971  32.944  14.583
98848W        W70464  28.072  27.782  11.575
98849W        W70465  43.465  30.909  11.572
98850W        W70466  37.432   2.414  14.969
98851W        W70467  20.712  25.989   4.237
98852W        W70468  18.482  21.658  12.483
98853W        W70469  39.867   2.966  11.127
98854W        W70470  36.770  14.527  11.189
98855W        W70471  42.762   2.144   3.642
98856W        W70472  15.125  21.008   0.957
98857W        W70473  22.137  42.230   3.082
98858W        W70474  33.988  10.471   2.793
98859W        W70475  28.707  35.363   2.287
98860W        W70476  21.056  26.962   4.078
98861W        W70477   5.343  27.429   2.329
98862W        W70478  41.949   2.664  14.756
98863W        W70479  18.647   1.188   0.479
98864W        W70480  43.688  34.529  13.505
98865W        W70481   6.204  22.264   0.342
98866W        W70482  36.692  24.624  14.348
98867W        W70483  37.716  44.436   1.017
98868W        W70484  28.273   3.235   0.882
98869W        W70485  18.082  15.734   1.781
98870W        W70486  20.531  40.789  13.507
98871W        W70487  39.412  19.735  11.206
98872W        W70488  43.565  17.705  12.556
98873W        W70489  35.891  19.909  10.546
98874W        W70490  26.514  11.048   3.590
98875W        W70491  38.569  42.721  13.118
98876W        W70492  36.610  16.697  14.002
98877W        W70493  32.379  44.371  14.931
98878W        W70494   3.438  30.516   2.810
98879W        W70495  37.033  31.946   3.732
98880W        W70496  21.277   7.759   1.810
98881W        W70497  18.356  25.781   4.085
98882W        W70498   5.203   3.819  13.491
98883W        W70499  28.797   1.677   3.588
98884W        W70500  39.167  22.069   4.056
98885W        W70501  15.609   4.678  14.305
98886W        W70502  37.415  28.257  12.475
98887W        W70503  33.007  43.058  13.079
98888W        W70504  27.675   2.234   2.783
98889W        W70505  24.746  15.768   1.401
98890W        W70506  20.709  29.024  14.929
98891W        W70507  19.761  38.974  12.217
98892W        W70508  33.599  24.999   4.532
98893W        W70509  29.896  29.828  11.133
98894W        W70510  41.535   0.320  11.560
98895W        W70511  38.682  10.831  12.943
98896W        W70512  41.931  21.717   3.438
98897W        W70513   6.637   1.401   3.862
98898W        W70514   6.299  18.439   2.223
98899W        W70515  10.511  21.788  13.118
98900W        W70516   1.947   2.471   1.288
98901W        W70517   9.114   6.161  13.075
98902W        W70518  28.651   0.951   4.162
98903W        W70519  15.039  15.388  12.004
98904W        W70520  24.098  19.752   1.304
98905W        W70521  11.692  38.353  13.606
98906W        W70522  40.752  40.489  14.484
98907W        W70523  25.126   3.145  11.642
98908W        W70524   7.767  13.345   1.802
98909W        W70525  35.272  44.055   2.933
98910W        W70526   7.297  28.200   3.803
98911W        W70527  12.712   8.858   3.353
98912W        W70528  43.500   9.087  11.249
98913W        W70529  30.009  15.910  11.195
98914W        W70530   7.672  16.139   1.299
98915W        W70531  36.100   5.247  13.885
98916W        W70532  21.234  12.664  14.407
98917W        W70533   5.935  24.809   4.235
98918W        W70534  33.785  14.299  11.226
98919W        W70535  29.717  43.804   2.393
98920W        W70536  28.628  15.264  13.064
98921W        W70537  31.053  30.953  12.313
98922W        W70538  42.043  17.662   2.800
98923W        W70539  12.863   0.504  11.505
98924W        W70540  44.826   6.953   1.749
98925W        W70541   6.049  41.826  13.003
98926W        W70542  44.810  31.002   0.787
98927W        W70543  18.909  41.326   4.556
98928W        W70544  12.239  42.124  14.530
98929W        W70545  41.932  44.669  11.117
98930W        W70546  22.524  12.102   3.838
98931W        W70547   6.253  13.340  14.755
98932W        W70548  31.918  33.334   1.678
98933W        W70549  43.338  13.072  14.767
98934W        W70550  15.686  23.720   0.598
98935W        W70551  20.575  19.250  14.882
98936W        W70552  21.722  14.067   3.730
98937W        W70553   5.718   2.356  10.665
98938W        W70554  42.951  26.162  12.492
98939W        W70555  14.237  18.045  13.605
98940W        W70556  21.742  37.282  13.567
98941W        W70557  20.489  10.900   1.378
98942W        W70558  19.191  20.562   0.777
98943W        W70559   0.563  31.181   0.342
98944W        W70560  26.294  44.285  13.399
98945W        W70561  21.960  16.067   0.130
98946W        W70562   6.135  25.349   4.951
98947W        W70563   1.018  21.563   3.699
98948W        W70564  41.088  11.721  11.440
98949W        W70565  18.106  18.505  14.354
98950W        W70566  36.683  24.403   1.917
98951W        W70567  39.844  36.772   2.326
98952W        W70568  43.255  33.782  12.468
98953W        W70569  14.270   2.053   4.197
98954W        W70570   5.921  25.000  11.511
98955W        W70571  18.806   3.424  12.151
98956W        W70572  21.402  28.990  11.854
98957W        W70573  12.616  35.541  13.382
98958W        W70574   6.464  21.501  13.069
98959W        W70575  16.310  22.611   0.895
98960W        W70576  35.373  38.813  10.164
98961W        W70577  20.070   9.426   2.276
98962W        W70578  36.584   2.511   3.615
98963W        W70579  20.922   8.650  12.862
98964W        W70580  36.609  19.018  13.536
98965W        W70581  39.111  25.684  10.642
98966W        W70582  25.996   4.450   2.697
98967W        W70583  32.637  22.812  14.800
98968W        W70584  18.772  18.457  14.489
98969W        W70585  34.475   8.824   2.507
98970W        W70586  31.911  10.818   4.147
98971W        W70587  22.306  32.067  13.456
98972W        W70588  30.117  27.092  13.220
98973W        W70589  24.619  21.790   2.947
98974W        W70590  32.508  43.558   1.567
98975W        W70591   8.282  13.059   1.120
98976W        W70592  31.012  36.778  10.750
98977W        W70593  21.772  16.222  12.883
98978W        W70594  40.916  32.418  11.702
98979W        W70595  28.834  40.785   0.677
98980W        W70596  26.340  27.004  14.919
98981W        W70597  26.466   2.815  14.306
98982W        W70598  41.521  35.325   4.777
98983W        W70599  36.002  44.005   2.417
98984W        W70600   9.640  16.684  11.194
98985W        W70601  35.055  13.101   4.942
98986W        W70602   2.502   1.366  11.072
98987W        W70603  39.484   5.802  11.921
98988W        W70604  26.045  28.162  12.127
98989W        W70605  23.005  19.074  13.429
98990W        W70606  38.260   8.214   3.631
98991W        W70607  42.353  11.769   2.666
98992W        W70608  40.703  42.766  12.052
98993W        W70609  10.796   3.341   1.535
98994W        W70610  33.195  17.688  13.911
98995W        W70611   6.194   4.869  12.960
98996W        W70612  36.867   7.661   4.344
98997W        W70613  35.383  23.645  12.544
98998W        W70614  12.424  17.649  13.837
98999W        W70615  36.028  42.931   1.243
99000W        W70616  29.164  29.702  10.552
99001W        W70617  32.866  41.942  13.681
99002W        W70618  14.717  43.506   0.613
99003W        W70619  37.291   7.259  13.963
99004W        W70620  29.858  42.397   4.295
99005W        W70621  32.776  41.036   0.969
99006W        W70622  39.059  21.637   0.944
99007W        W70623  44.066  38.877  10.363
99008W        W70624   1.118   4.138  13.006
99009W        W70625   6.816   2.742  13.577
99010W        W70626  24.333  11.845   2.579
99011W        W70627  37.374  26.035   3.006
99012W        W70628  42.045   9.310   0.278
99013W        W70629  34.512  12.868   1.948
99014W        W70630   1.158  40.952  11.134
99015W        W70631  28.639   7.121   4.171
99016W        W70632  28.588  37.866  12.450
99017W        W70633  12.741  30.969   3.747
99018W        W70634  19.504  40.098   0.240
99019W        W70635  18.025  22.653   2.253
99020W        W70636   3.024  20.043   2.890
99021W        W70637  43.486  33.106  11.151
99022W        W70638  14.348  35.030   3.344
99023W        W70639  41.401  32.209   2.837
99024W        W70640  24.303  18.978   3.105
99025W        W70641  39.376  20.876   4.736
99026W        W70642  29.484  26.451  10.698
99027W        W70643  30.600  41.914  11.009
99028W        W70644   8.390   6.273  11.184
99029W        W70645  38.533  43.089   3.822
99030W        W70646   6.948  36.323   3.722
99031W        W70647  10.871  32.401  11.020
99032W        W70648  17.598  28.675   0.302
99033W        W70649  41.857  16.160  14.803
99034W        W70650  33.546   0.383  14.795
99035W        W70651  24.271  33.978   2.253
99036W        W70652  16.696   7.970   0.384
99037W        W70653   4.256  25.949  11.981
99038W        W70654  17.731   2.933   2.749
99039W        W70655  28.712  27.025  11.525
99040W        W70656  40.457   4.362   4.200
99041W        W70657  20.547  28.095   1.712
99042W        W70658   3.116  14.198  14.076
99043W        W70659  24.485  37.116  12.949
99044W        W70660  34.040  23.244   4.683
99045W        W70661  44.508   3.707  13.319
99046W        W70662  18.766  42.723  11.117
99047W        W70663   5.389  36.480  11.109
99048W        W70664  28.665  12.446  13.319
99049W        W70665  14.300  19.803  14.046
99050W        W70666  28.579  21.212  10.653
99051W        W70667  25.967  21.558  11.474
99052W        W70668  24.662   7.266   3.765
99053W        W70669  26.825   2.729   1.754
99054W        W70670  14.612  12.179   4.685
99055W        W70671  17.253  16.238   0.298
99056W        W70672   2.695  18.014   4.233
99057W        W70673   9.843  22.755  11.931
99058W        W70674  23.985  16.924   3.254
99059W        W70675  42.018  10.605   0.264
99060W        W70676  10.661  42.261  12.054
99061W        W70677  11.289  43.939   3.747
99062W        W70678   5.751  10.537  12.958
99063W        W70679  44.736  19.283   2.608
99064W        W70680   6.631  28.220  10.632
99065W        W70681   2.364  31.343  12.994
99066W        W70682   3.093   7.928   1.295
99067W        W70683  28.757  24.039  10.542
99068W        W70684  23.735  15.188  13.435
99069W        W70685  31.746   6.582   2.885
99070W        W70686  40.317  22.580   1.873
99071W        W70687  21.229  18.516  14.896
99072W        W70688  43.298  38.302  12.415
99073W        W70689  14.484  30.311   4.036
99074W        W70690   0.015  19.531  13.436
99075W        W70691   9.860  37.610   1.252
99076W        W70692  42.326   1.890  12.456
99077W        W70693  34.352  35.434   0.991
99078W        W70694  33.043  23.580  12.070
99079W        W70695  31.435  17.183   4.166
99080W        W70696   6.218  23.079   4.573
99081W        W70697   5.648  19.246  11.230
99082W        W70698   4.775  32.584  14.836
99083W        W70699  25.527  35.267   0.799
99084W        W70700  22.068  19.143  10.570
99085W        W70701  41.436  14.535   3.132
99086W        W70702  11.230  14.869   4.160
99087W        W70703  36.267  31.135  11.625
99088W        W70704   3.404   3.172   0.477
99089W        W70705  15.534  27.128   1.854
99090W        W70706  32.434  39.573   3.204
99091W        W70707  31.180   6.285   0.468
99092W        W70708  37.988  32.058   4.519
99093W        W70709   4.609   1.962  13.372
99094W        W70710  15.519  34.520   4.477
99095W        W70711  24.091  36.802  13.056
99096W        W70712   5.643  23.955  13.928
99097W        W70713  11.095  33.038   3.141
99098W        W70714   2.880  13.637   2.598
99099W        W70715  20.397   0.028  13.379
99100W        W70716  12.965  41.605  10.351
99101W        W70717   1.936  34.041  10.702
99102W        W70718  15.231  15.567   5.416
99103W        W70719  22.564  29.758  10.230
99104W        W70720   1.400  39.403   2.812
99105W        W70721  13.608  24.419   2.754
99106W        W70722  15.046   0.361  14.868
99107W        W70723   9.997  44.265  11.648
99108W        W70724   4.782  22.709  12.613
99109W        W70725  18.500  32.706  14.331
99110W        W70726  37.799  36.117   4.208
99111W        W70727  10.565   2.705  10.675
99112W        W70728  15.206  12.601  14.404
99113W        W70729  12.260  21.132   4.103
99114W        W70730   0.437  16.885  12.010
99115W        W70731  17.058  43.513   3.624
99116W        W70732  16.068   2.753   3.120
99117W        W70733  39.332   7.131   4.568
99118W        W70734  11.756  40.997   4.952
99119W        W70735  39.669   3.803   1.722
99120W        W70736  30.435  20.003  13.409
99121W        W70737  36.155  43.736   3.337
99122W        W70738  28.060   7.866   5.000
99123W        W70739  20.015  21.511   1.888
99124W        W70740  21.132  13.791  12.111
99125W        W70741  44.737   2.816  12.452
99126W        W70742  36.444  17.697   4.780
99127W        W70743   1.851  25.055  12.930
99128W        W70744   7.068   7.381  12.873
99129W        W70745   9.301   7.162   3.135
99130W        W70746   8.324   5.307   4.550
99131W        W70747   5.217  35.545  11.643
99132W        W70748  21.077  11.254  12.940
99133W        W70749  28.676  14.634  14.773
99134W        W70750   6.275   5.323   0.677
99135W        W70751   9.086   2.782  11.096
99136W        W70752  22.892   2.430   1.032
99137W        W70753   8.402  44.711   0.448
99138W        W70754  19.540  32.396  14.348
99139W        W70755  36.740  25.588   0.280
99140W        W70756  24.508  42.986  12.559
99141W        W70757  18.723  19.555   3.300
99142W        W70758  17.634  41.430   1.419
99143W        W70759  19.151  43.281   0.595
99144W        W70760   7.280   1.389  12.138
99145W        W70761  16.528  10.465   3.539
99146W        W70762  22.792  20.479   2.215
99147W        W70763  42.725  22.085   1.378
99148W        W70764  44.011   6.237   0.452
99149W        W70765   8.716  27.683  11.849
99150W        W70766  23.657  25.000  13.706
99151W        W70767  12.437  35.112   0.323
99152W        W70768  34.461  32.877   4.291
99153W        W70769  10.703  33.467   2.890
99154W        W70770  42.272  17.508  11.551
99155W        W70771  29.714  29.467   0.422
99156W        W70772   4.747  10.257  11.417
99157W        W70773  14.767   4.324   1.367
99158W        W70774  21.974  38.184  13.992
99159W        W70775  20.046   0.136   3.691
99160W        W70776  20.197  37.817   2.861
99161W        W70777  16.943  34.988   1.935
99162W        W70778   1.420  31.310  12.013
99163W        W70779  12.725  34.219   4.234
99164W        W70780  16.249  40.684   0.949
99165W        W70781  16.862  34.447  12.449
99166W        W70782  44.501  43.614   0.387
99167W        W70783  26.456   3.769   0.163
99168W        W70784  20.040  39.632  11.663
99169W        W70785  24.580  29.986   3.635
99170W        W70786   6.164   5.208   0.195
99171W        W70787   9.925  29.132   2.853
99172W        W70788   8.448   0.207  11.496
99173W        W70789  38.031   4.297  14.785
99174W        W70790   8.402  16.172  11.585
99175W        W70791  31.950   5.882   0.243
99176W        W70792  34.122   2.636  11.728
99177W        W70793   9.805  33.531  10.631
99178W        W70794  44.866  35.078  11.662
99179W        W70795   0.022   9.262   1.338
99180W        W70796  37.725  13.926   3.413
99181W        W70797  21.746   9.284   0.133
99182W        W70798  34.026  16.054  13.287
99183W        W70799  44.884   1.012  10.737
99184W        W70800  35.611  42.390   4.820
99185W        W70801  22.918  10.849   0.404
99186W        W70802  17.126  11.278   4.502
99187W        W70803  14.289  11.724   4.593
99188W        W70804  16.722  40.198   4.756
99189W        W70805   8.204  27.532  13.053
99190W        W70806  31.680   1.456  13.868
99191W        W70807  43.991  43.896   2.237
99192W        W70808  38.553  32.033  12.905
99193W        W70809  34.072  16.889  14.812
99194W        W70810  21.689  16.328  14.304
99195W        W70811  13.188  21.353   3.169
99196W        W70812  37.354  27.023  10.660
99197W        W70813  33.436  23.435   0.824
99198W        W70814  30.992  38.725  11.117
99199W        W70815  18.764   5.130   4.698
99200W        W70816  42.820   5.304   1.027
99201W        W70817  36.065  23.730   0.269
99202W        W70818  20.272  22.898  14.899
99203W        W70819  30.886   1.796   1.610
99204W        W70820  26.600  30.096  12.463
99205W        W70821  32.015  17.177   5.405
99206W        W70822   8.646  42.230  12.708
99207W        W70823  23.600  40.256  14.843
99208W        W70824   3.455  13.978  11.001
99209W        W70825  33.578  16.083  12.509
99210W        W70826  43.427  39.852   3.560
99211W        W70827  26.265  31.010  11.972
99212W        W70828  28.610   1.829  11.669
99213W        W70829  43.756  16.531  11.890
99214W        W70830  20.822   5.499   0.935
99215W        W70831  17.762  38.545  13.621
99216W        W70832  14.116  18.862  13.902
99217W        W70833  33.372   8.405   1.376
99218W        W70834  38.855  30.476  11.591
99219W        W70835  40.635  29.061  10.677
99220W        W70836  41.859  41.483  11.989
99221W        W70837  19.623  25.095  11.656
99222W        W70838   7.501   6.273   5.181
99223W        W70839  26.774  35.735   4.582
99224W        W70840  37.989  21.343  14.476
99225W        W70841  16.796  35.467   2.821
99226W        W70842   2.997  34.039   3.310
99227W        W70843  22.226  36.451   0.564
99228W        W70844  44.595  21.170  13.019
99229W        W70845  29.474  43.025  14.673
99230W        W70846  16.615  10.113  12.973
99231W        W70847   4.887  13.715  13.044
99232W        W70848  41.591   7.135   0.457
99233W        W70849  29.056  16.586   4.923
99234W        W70850  30.121  18.586  14.833
99235W        W70851  11.378  10.811  14.767
99236W        W70852  15.158  20.784   0.039
99237W        W70853  29.638  36.806  13.033
99238W        W70854   3.741  18.886  12.850
99239W        W70855  15.524  27.030   4.227
99240W        W70856  26.746   9.182  13.101
99241W        W70857   2.671  17.284   0.118
99242W        W70858  31.096  23.025   5.035
99243W        W70859  22.789  42.026   2.454
99244W        W70860  16.839  43.876   2.867
99245W        W70861  40.966  42.371   2.782
99246W        W70862  19.299  21.755  11.915
99247W        W70863   4.871   0.659  14.508
99248W        W70864   8.221  40.069  11.654
99249W        W70865  35.451  20.036   3.600
99250W        W70866   3.510   7.623  11.608
99251W        W70867  13.000  20.639  13.368
99252W        W70868  18.710  44.307   5.527
99253W        W70869  31.148  18.792  11.208
99254W        W70870  30.645  12.678  12.423
99255W        W70871  33.432  26.110   4.069
99256W        W70872  25.726  41.290   0.342
99257W        W70873  22.454  31.541   1.779
99258W        W70874   6.722  14.798  12.179
99259W        W70875  17.331  11.637   3.242
99260W        W70876  13.422  43.548  12.058
99261W        W70877  40.112   4.560   4.527
99262W        W70878  26.615   8.135   3.303
99263W        W70879  41.481  11.178   3.601
99264W        W70880   8.523  25.252  14.996
99265W        W70881  19.646  37.967  10.694
99266W        W70882  33.869  16.410   4.377
99267W        W70883  22.771   9.799  12.443
99268W        W70884  15.347  27.426  10.941
99269W        W70885  15.626   1.874   2.779
99270W        W70886   6.003  17.159  14.062
99271W        W70887   0.891   4.274   0.476
99272W        W70888  29.130  42.398  12.572
99273W        W70889  40.810  32.085   0.427
99274W        W70890   3.822  10.208   1.288
99275W        W70891  28.755   3.238   0.697
99276W        W70892  43.473  21.568  12.412
99277W        W70893  27.592  40.930  11.069
99278W        W70894  10.359  17.731  11.664
99279W        W70895  19.108  44.943   2.773
99280W        W70896  41.017  31.507   3.289
99281W        W70897  26.440  38.520  10.720
99282W        W70898  27.696  39.290  13.571
99283W        W70899  11.702  27.953  12.651
99284W        W70900  12.925   1.103  10.662
99285W        W70901   5.821   7.813  11.503
99286W        W70902  39.006  27.637   1.442
99287W        W70903   6.134  29.453   4.218
99288W        W70904  20.626  35.912  14.066
99289W        W70905  25.073  25.490   2.698
99290W        W70906   5.280  28.425  10.750
99291W        W70907  13.132  25.818  11.157
99292W        W70908  19.419  12.691  13.602
99293W        W70909  16.272  39.912   4.034
99294W        W70910  24.702  38.118  12.857
99295W        W70911  31.390   8.220   4.192
99296W        W70912  41.976   8.362  14.288
99297W        W70913  43.938  10.344   4.101
99298W        W70914  11.673   0.538   3.889
99299W        W70915  31.613  21.689  12.158
99300W        W70916   8.635  23.687   3.219
99301W        W70917  16.138  40.753  12.848
99302W        W70918  11.258  30.700  11.635
99303W        W70919   8.458  17.649   1.470
99304W        W70920  19.271  16.036  12.463
99305W        W70921   0.988   0.765  10.185
99306W        W70922  43.210  24.242   5.170
99307W        W70923  32.809   7.795   2.818
99308W        W70924  35.736  33.979   0.517
99309W        W70925  14.841  17.774  10.686
99310W        W70926  32.553  42.561  11.097
99311W        W70927  30.076   6.358   3.763
99312W        W70928  12.186  24.496  14.493
99313W        W70929  42.288  42.998  14.444
99314W        W70930  42.111   4.253   2.521
99315W        W70931  38.543   6.726   4.046
99316W        W70932   6.788  16.709  13.847
99317W        W70933   7.285   0.409   4.107
99318W        W70934  14.160  43.506  13.977
99319W        W70935  25.114   9.676   4.828
99320W        W70936  19.316  32.533   1.822
99321W        W70937   1.576   9.891   0.948
99322W        W70938  43.831  10.976  13.333
99323W        W70939  15.305  17.602   1.122
99324W        W70940  23.510  35.920   3.288
99325W        W70941  36.529  34.319   2.888
99326W        W70942  33.828   5.406  10.608
99327W        W70943  39.056   5.498   2.100
99328W        W70944   1.330  35.580   2.269
99329W        W70945  21.287  19.768   0.752
99330W        W70946  31.366   1.077  13.738
99331W        W70947  37.667  27.664   1.172
99332W        W70948  18.065  35.361   2.184
99333W        W70949  32.998  33.859  10.629
99334W        W70950  42.607  44.837  14.260
99335W        W70951  22.046  12.593   2.886
99336W        W70952   8.329  31.337  13.764
99337W        W70953  32.928  40.765   1.410
99338W        W70954   3.860   4.283   3.625
99339W        W70955  44.198  38.935   1.305
99340W        W70956  33.326   1.249  13.264
99341W        W70957  10.891  44.252   0.771
99342W        W70958   1.029  24.350   2.725
99343W        W70959   5.870  24.835   2.432
99344W        W70960  11.189  32.613   1.502
99345W        W70961  25.000  15.564   2.325
99346W        W70962  27.976  18.648   3.708
99347W        W70963  22.549  44.052  11.460
99348W        W70964  32.523  24.551   1.612
99349W        W70965   7.792  21.704   3.680
99350W        W70966  24.096  32.367  11.304
99351W        W70967  33.378  38.859  12.897
99352W        W70968   9.641  10.685   2.745
99353W        W70969  33.316   1.486   1.299
99354W        W70970  14.916   7.179   1.760
99355W        W70971  14.307  40.052   3.988
99356W        W70972   6.122  33.716  13.892
99357W        W70973   9.526  26.561  13.301
99358W        W70974   6.852   8.881   2.672
99359W        W70975  20.265  21.590   2.342
99360W        W70976  23.462   5.259  13.550
99361W        W70977   8.023   4.738  12.467
99362W        W70978  25.123   8.737   4.865
99363W        W70979  13.974  15.699   0.482
99364W        W70980  10.192  23.741  14.375
99365W        W70981  24.284  42.613   3.662
99366W        W70982  31.495  44.941  13.067
99367W        W70983  14.532   0.285  11.846
99368W        W70984  16.948  44.112  10.675
99369W        W70985  27.949  30.506   0.482
99370W        W70986  16.799  10.446  12.070
99371W        W70987   3.385  36.397   2.144
99372W        W70988  44.438  40.755  12.406
99373W        W70989   4.407  44.686   1.505
99374W        W70990  16.231  38.818  13.816
99375W        W70991   7.331  24.014   1.887
99376W        W70992  10.122  39.474   3.144
99377W        W70993  20.179   1.483  10.743
99378W        W70994   4.492   9.264  13.968
99379W        W70995  10.811  30.009   2.185
99380W        W70996  14.789  41.682   0.015
99381W        W70997  33.834   7.247   3.827
99382W        W70998  38.555  34.800  11.230
99383W        W70999  26.635   3.885  10.538
99384W        W71000  29.525  23.965   2.339
99385W        W71001  39.467   4.849   0.570
99386W        W71002   4.311   4.170   2.871
99387W        W71003   8.398  11.398  14.685
99388W        W71004  15.855  12.329  11.348
99389W        W71005  19.716  29.659  12.873
99390W        W71006  44.904  29.538   4.669
99391W        W71007  20.006   1.972   3.743
99392W        W71008  21.900  16.632  13.402
99393W        W71009  21.692   7.062  11.519
99394W        W71010  25.515  28.891  11.755
99395W        W71011  27.092  20.086   3.945
99396W        W71012  27.075  34.415   0.408
99397W        W71013  13.336   0.460  11.690
99398W        W71014  11.698  19.107  14.757
99399W        W71015  28.140   6.775   2.189
99400W        W71016   6.667  19.642   3.292
99401W        W71017   7.779   1.961  14.185
99402W        W71018  19.269  16.853   0.806
99403W        W71019  11.681  11.456   2.330
99404W        W71020  16.246  33.338   0.786
99405W        W71021  12.289  24.549  11.544
99406W        W71022  27.969  33.839  10.698
99407W        W71023  10.881  20.497  13.767
99408W        W71024  26.309  13.045   0.068
99409W        W71025  21.689  33.793  13.964
99410W        W71026   1.726  38.919   3.834
99411W        W71027  38.473  40.467   0.167
99412W        W71028  11.752  14.242  14.051
99413W        W71029  14.574  35.542   0.760
99414W        W71030   6.725  19.164   1.912
99415W        W71031  14.642  19.080  11.039
99416W        W71032   2.816  24.264  14.791
99417W        W71033  12.526  28.155   3.119
99418W        W71034   6.672  15.605  11.540
99419W        W71035  39.009   7.277   3.163
99420W        W71036  10.922  39.879  12.755
99421W        W71037  42.704  17.856   0.931
99422W        W71038   0.528  26.764  10.402
99423W        W71039   3.127  23.413  11.104
99424W        W71040   8.254   1.467   0.802
99425W        W71041  36.581  26.221   1.389
99426W        W71042  39.284  33.448   2.808
99427W        W71043  23.890  35.981  12.006
99428W        W71044   7.191  40.036  12.522
99429W        W71045  42.020  30.201  11.597
99430W        W71046  21.552  31.061   4.615
99431W        W71047  10.589   2.609   0.048
99432W        W71048  31.156   6.160  10.959
99433W        W71049  29.508  26.685  10.226
99434W        W71050  18.423  16.181  13.463
99435W        W71051  27.406  28.504   3.680
99436W        W71052  44.871  43.761   0.721
99437W        W71053  11.133   9.380   1.828
99438W        W71054  17.256  20.109   1.136
99439W        W71055  32.444  14.545  10.720
99440W        W71056  15.744   0.827  12.938
99441W        W71057  40.370  13.643   0.017
99442W        W71058  11.602  37.968  10.847
99443W        W71059  38.688  13.000   2.991
99444W        W71060  40.777  40.582   4.230
99445W        W71061  42.502  34.348  11.459
99446W        W71062  17.190  20.295  11.478
99447W        W71063   3.476  10.707   2.955
99448W        W71064  32.592  17.212  11.550
99449W        W71065   9.741  23.500  14.771
99450W        W71066   2.024  29.739  11.757
99451W        W71067  37.463  35.811  13.579
99452W        W71068  44.842  15.623  12.964
99453W        W71069  11.706  14.205   1.774
99454W        W71070   3.198  42.772   0.309
99455W        W71071  37.884  28.030  12.574
99456W        W71072  35.371   5.726  13.338
99457W        W71073  28.456  21.647  13.452
99458W        W71074  36.054  21.113   2.718
99459W        W71075  16.011  32.923  12.378
99460W        W71076  30.628   8.577  14.515
99461W        W71077  29.713  42.262  13.499
99462W        W71078  20.564  13.869   3.359
99463W        W71079  14.158  11.711   0.882
99464W        W71080  44.033  11.650  11.693
99465W        W71081  31.886   9.953  12.207
99466W        W71082  23.984   1.437   4.298
99467W        W71083   1.606   4.344   2.263
99468W        W71084  43.564  22.892  13.987
99469W        W71085  21.437  40.800   0.516
99470W        W71086  12.383  30.080   2.686
99471W        W71087  44.065  36.370  11.401
99472W        W71088  44.412  20.815  14.810
99473W        W71089   5.842  26.957  14.305
99474W        W71090  39.628  13.830   4.107
99475W        W71091  24.735  38.709  10.789
99476W        W71092  34.545  41.805   4.460
99477W        W71093  26.199  14.941   3.217
99478W        W71094   2.045   6.658   2.745
99479W        W71095  28.915   6.377  11.450
99480W        W71096  15.247  21.756  12.960
99481W        W71097  42.262  27.631  10.779
99482W        W71098   4.685  43.810  11.079
99483W        W71099   1.222  20.637  13.429
99484W        W71100   5.863   5.199   2.407
99485W        W71101  32.472   2.646   0.277
99486W        W71102  11.697  10.287   2.875
99487W        W71103  16.788   7.367   0.951
99488W        W71104  17.349  34.157   0.655
99489W        W71105  15.720  34.085  11.044
99490W        W71106  37.099  13.804  13.462
99491W        W71107  25.591  18.201   1.794
99492W        W71108  22.383  36.219   5.031
99493W        W71109   7.347  39.001   2.246
99494W        W71110  12.306  11.589   0.306
99495W        W71111  37.840  19.520  11.608
99496W        W71112  38.915   6.484   2.320
99497W        W71113  28.151  25.185   2.621
99498W        W71114  39.898  28.952   3.176
99499W        W71115   7.741   4.229   3.292
99500W        W71116   7.901   9.544   0.221
99501W        W71117  22.986  12.742   2.822
99502W        W71118  15.154  26.621   1.227
99503W        W71119  36.471  19.237  10.425
99504W        W71120  34.987   8.253   3.112
99505W        W71121  20.893   2.797  11.971
99506W        W71122  42.517  28.886   0.419
99507W        W71123  22.780  41.035   0.772
99508W        W71124  18.660  31.704  10.505
99509W        W71125  36.391  27.037   0.462
99510W        W71126   4.899  31.184   3.351
99511W        W71127  31.239  17.550  12.472
99512W        W71128  36.087  31.631   4.022
99513W        W71129   1.987   0.823  10.650
99514W        W71130  17.741  18.980  14.902
99515W        W71131   8.673  42.714  12.496
99516W        W71132   1.928  10.320   2.221
99517W        W71133  13.574  39.113   4.111
99518W        W71134  15.300  30.132   3.658
99519W        W71135   8.299  20.708   2.828
99520W        W71136  27.933   9.005   4.255
99521W        W71137  17.596  33.887  12.959
99522W        W71138   5.155  40.532  10.755
99523W        W71139  44.984  34.451   3.254
99524W        W71140   5.854  19.787   4.901
99525W        W71141  26.023  25.773  11.098
99526W        W71142  14.490  14.432  12.077
99527W        W71143  26.669  23.784  13.352
99528W        W71144  41.091  37.845  11.072
99529W        W71145  39.076   9.417  14.885
99530W        W71146  16.035  13.286   3.707
99531W        W71147   4.113  10.639   1.231
99532W        W71148  22.250  16.696  13.810
99533W        W71149  11.602  16.431   0.540
99534W        W71150  14.837  17.244   3.640
99535W        W71151   5.331  39.960   4.668
99536W        W71152  37.113  24.310   1.629
99537W        W71153  35.338  44.046  14.936
99538W        W71154   2.301   1.815  14.234
99539W        W71155  37.003  35.900  13.363
99540W        W71156   1.304  28.481  10.643
99541W        W71157   4.192   7.452  12.660
99542W        W71158  22.127   0.896  14.319
99543W        W71159   7.449  43.484  12.532
99544W        W71160  37.903  13.643  10.113
99545W        W71161  32.058   6.847  11.545
99546W        W71162  30.188  21.384  12.379
99547W        W71163  34.957  12.348  14.724
99548W        W71164  38.508  37.366   0.381
99549W        W71165  16.258  16.564  13.886
99550W        W71166  39.479  41.891  14.326
99551W        W71167  33.471   6.602  12.026
99552W        W71168  26.932  31.669   3.720
99553W        W71169   3.320  23.367   2.872
99554W        W71170  20.517  11.588  11.664
99555W        W71171   0.798  42.504   0.655
99556W        W71172  25.017   5.859  11.086
99557W        W71173  31.284  12.940  11.617
99558W        W71174  36.477  17.213   3.607
99559W        W71175  37.396   3.040   3.601
99560W        W71176  15.249  16.370  14.993
99561W        W71177  36.613  14.092   3.235
99562W        W71178  36.601  32.094  14.806
99563W        W71179  17.536  24.154  10.757
99564W        W71180  16.667  12.314   2.440
99565W        W71181  19.721   2.363  14.225
99566W        W71182  38.581  35.135  14.722
99567W        W71183   0.399  21.269   0.851
99568W        W71184  33.111   0.289   0.032
99569W        W71185  15.951  29.750   0.297
99570W        W71186  31.987  40.435   4.022
99571W        W71187  15.518  15.103  13.539
99572W        W71188  42.895  41.949   2.143
99573W        W71189  33.382  12.333  11.537
99574W        W71190  17.050  42.045   0.849
99575W        W71191  41.212  18.074  12.059
99576W        W71192  35.126  16.291   0.853
99577W        W71193   4.244  28.815  12.536
99578W        W71194  37.123  37.914  12.164
99579W        W71195  24.051  36.828   4.213
99580W        W71196  10.234  12.028  11.519
99581W        W71197  32.882  26.081  14.794
99582W        W71198  11.805   9.081   4.162
99583W        W71199   8.513  37.261  13.535
99584W        W71200  35.599   4.940  12.328
99585W        W71201  13.347   4.649   1.887
99586W        W71202  31.633  21.319   4.513
99587W        W71203  44.487  33.580   0.933
99588W        W71204  36.622  17.748  14.338
99589W        W71205  24.019  30.106   3.267
99590W        W71206   4.075  35.508  12.256
99591W        W71207  19.068  24.771  13.972
99592W        W71208  38.857   0.046   2.434
99593W        W71209   0.481  33.254   2.836
99594W        W71210  15.751   0.098  11.888
99595W        W71211   4.410  19.231  14.736
99596W        W71212  35.327  15.087  12.468
99597W        W71213  39.726  10.830  11.174
99598W        W71214   3.902  37.951   4.710
99599W        W71215  22.082  31.159   4.532
99600W        W71216   0.000  19.250   2.166
99601W        W71217   2.502   8.146   3.124
99602W        W71218   9.381  22.395  13.943
99603W        W71219   5.388  26.709   3.676
99604W        W71220  39.152  20.705  10.699
99605W        W71221   0.837  12.340   3.077
99606W        W71222  42.796   3.671  11.265
99607W        W71223   3.915  27.576   4.545
99608W        W71224  23.116  36.495  13.053
99609W        W71225  12.659  42.505   3.667
99610W        W71226   7.832   4.379  14.118
99611W        W71227  18.137  38.522   1.334
99612W        W71228  21.771  15.602  14.918
99613W        W71229  25.895   0.059   1.750
99614W        W71230  10.191  23.177  10.794
99615W        W71231  11.569  41.898  13.927
99616W        W71232   6.513  28.095  13.410
99617W        W71233   7.723  43.859   1.144
99618W        W71234  27.948  32.990  10.567
99619W        W71235  11.266  39.431  11.424
99620W        W71236   4.562   4.840  12.065
99621W        W71237   3.490   8.858   2.781
99622W        W71238   8.378  40.916  11.652
99623W        W71239  42.957  14.530   0.430
99624W        W71240  30.134  21.282  11.885
99625W        W71241  35.087  32.845  13.745
99626W        W71242  21.465   7.100  14.756
99627W        W71243   8.108  10.166  14.839
99628W        W71244   0.714  30.112   3.321
99629W        W71245   7.601   0.068   2.395
99630W        W71246  28.237  30.483   4.261
99631W        W71247  28.704   6.224   3.707
99632W        W71248  32.697  34.359  12.515
99633W        W71249  42.450  34.661   3.992
99634W        W71250  25.204  20.602   0.344
99635W        W71251  43.579   7.825  14.813
99636W        W71252  44.055  17.738  12.501
99637W        W71253  43.531   5.339   1.627
99638W        W71254  22.869  18.661   1.821
99639W        W71255  14.760  14.283  12.869
99640W        W71256  10.162  22.782   4.134
99641W        W71257  38.772  39.826  11.218
99642W        W71258  13.684  13.350   4.596
99643W        W71259  37.628  42.352   1.480
99644W        W71260  32.122  25.460  13.440
99645W        W71261   5.209  42.356   4.265
99646W        W71262   8.351   9.419  11.838
99647W        W71263   0.312  15.760  13.309
99648W        W71264   3.697  26.696   3.979
99649W        W71265   1.971   0.402   0.467
99650W        W71266  38.475   5.236  12.429
99651W        W71267  30.127  14.625   1.979
99652W        W71268  11.325   4.738   3.571
99653W        W71269  14.344  23.360  12.582
99654W        W71270  21.595  28.556   4.511
99655W        W71271  31.218  14.307  11.171
99656W        W71272  38.607  11.792  12.052
99657W        W71273  33.257  19.997  13.544
99658W        W71274  13.617   0.015  11.693
99659W        W71275  38.471   1.696   0.773
99660W        W71276  44.526  15.104   3.159
99661W        W71277  28.996  35.447  12.601
99662W        W71278   1.734   3.423  13.110
99663W        W71279   7.188  11.163   1.631
99664W        W71280  11.869  42.463  10.628
99665W        W71281  25.143   7.171   1.427
99666W        W71282   8.827   9.826   0.813
99667W        W71283   6.374   5.677  13.349
99668W        W71284  41.046  13.298  10.689
99669W        W71285  12.058   6.432  11.048
99670W        W71286  43.346   6.333   3.667
99671W        W71287  41.512   1.443   1.812
99672W        W71288  16.085   6.372   3.294
99673W        W71289  31.872  36.060  13.200
99674W        W71290  23.999  25.273  13.461
99675W        W71291  35.549  18.591   1.886
99676W        W71292   5.338  27.588   1.286
99677W        W71293  20.084  42.575  12.365
99678W        W71294  42.537   5.526   0.287
99679W        W71295  41.035  42.919  10.617
99680W        W71296   2.174   8.268   1.304
99681W        W71297   3.277  24.624  14.925
99682W        W71298  37.320   2.250  11.526
99683W        W71299   3.431  12.351   2.625
99684W        W71300  17.798   6.876  13.683
99685W        W71301  22.152  40.971  11.668
99686W        W71302  11.783  37.479   1.930
99687W        W71303  24.962   6.838   3.873
99688W        W71304  24.994  42.093  13.506
99689W        W71305  38.279   0.728  14.053
99690W        W71306  41.272  23.500  11.009
99691W        W71307   0.508   1.293   4.315
99692W        W71308  15.625  12.770  11.135
99693W        W71309  38.926  24.091   4.484
99694W        W71310  20.225  15.574   4.189
99695W        W71311  22.034  33.035  12.436
99696W        W71312  36.489  24.934  12.909
99697W        W71313  22.596   3.590  10.844
99698W        W71314  40.714  18.953  14.385
99699W        W71315  31.048  43.345  13.234
99700W        W71316  25.904  10.367  12.427
99701W        W71317   5.759  28.037  12.316
99702W        W71318  27.673   4.729   4.584
99703W        W71319  13.733   2.772  10.734
99704W        W71320  21.487   6.136   4.151
99705W        W71321  36.611  24.710  14.876
99706W        W71322  28.563  20.837  13.977
99707W        W71323  12.722  34.442  14.307
99708W        W71324  12.779  18.109   4.417
99709W        W71325  10.124  40.340  14.792
99710W        W71326  31.095  34.180  14.952
99711W        W71327   3.293  10.286   2.707
99712W        W71328   9.257  16.109  10.616
99713W        W71329  19.019  12.765   1.883
99714W        W71330  17.322  34.457  14.395
99715W        W71331  25.159  40.253   0.388
99716W        W71332  43.332  28.757   0.509
99717W        W71333  35.451   0.818  11.098
99718W        W71334  35.321   2.011  12.395
99719W        W71335  33.528  15.580  10.726
99720W        W71336   8.976  12.368  11.423
99721W        W71337  35.889  40.295   1.689
99722W        W71338   2.755  21.721   5.037
99723W        W71339  19.498  19.945   3.730
99724W        W71340  34.433  13.111  14.240
99725W        W71341  30.978  43.668   1.803
99726W        W71342  44.710  34.486   1.854
99727W        W71343  29.666  43.993  13.200
99728W        W71344   7.417  44.103  13.432
99729W        W71345  32.375  11.048   1.199
99730W        W71346  30.560   0.763  13.969
99731W        W71347  33.832   5.617  10.097
99732W        W71348  32.867  24.604  11.503
99733W        W71349  44.863  16.003   3.558
99734W        W71350  36.331   9.154   0.805
99735W        W71351  31.078   2.643   1.331
99736W        W71352  12.108  32.430   2.818
99737W        W71353   4.542  33.290   1.429
99738W        W71354  38.109  39.909   3.779
99739W        W71355  12.795  31.649   0.406
99740W        W71356  22.070  43.173  13.434
99741W        W71357  23.475  30.488  14.031
99742W        W71358  21.007  35.173  14.562
99743W        W71359  40.988  31.572   2.232
99744W        W71360   3.948  23.576   0.040
99745W        W71361  21.366  14.951   3.605
99746W        W71362  27.727  12.612   4.479
99747W        W71363  19.201  10.612   0.314
99748W        W71364  20.524  22.177  12.399
99749W        W71365   4.910  10.146  10.413
99750W        W71366  15.663  43.769   4.161
99751W        W71367  13.113  31.325  13.962
99752W        W71368  10.487  25.099  11.461
99753W        W71369  26.528  16.780   0.159
99754W        W71370  33.063  44.387   1.405
99755W        W71371  14.763  20.640   2.128
99756W        W71372  19.648  41.428   3.809
99757W        W71373  11.850  14.636  12.837
99758W        W71374  34.913  30.066  11.973
99759W        W71375  35.269  23.853   3.094
99760W        W71376   0.268  21.092  13.703
99761W        W71377  17.639  19.754   1.758
99762W        W71378  30.690  31.051   5.057
99763W        W71379  27.616  26.269  11.189
99764W        W71380  24.655   6.435   0.333
99765W        W71381  43.141  12.218   0.068
99766W        W71382   1.628   0.401   5.496
99767W        W71383  31.776   6.611  14.594
99768W        W71384   2.338   6.927   2.405
99769W        W71385  28.729  29.633   0.258
99770W        W71386   4.285  40.800   3.357
99771W        W71387   0.249  38.815  11.308
99772W        W71388  10.191  23.113   0.409
99773W        W71389  34.202  42.472   3.750
99774W        W71390  12.150  38.725  12.862
99775W        W71391  27.756  21.144  13.422
99776W        W71392  27.504  15.064   4.233
99777W        W71393   9.020   0.310  10.667
99778W        W71394  24.189  29.363   0.939
99779W        W71395  12.690  27.174  14.104
99780W        W71396  43.466  12.817  13.775
99781W        W71397  25.352   9.374   1.892
99782W        W71398  31.699  39.017   4.253
99783W        W71399  36.137   1.441   2.606
99784W        W71400  20.762  27.974   4.635
99785W        W71401  28.571  21.220   4.507
99786W        W71402  10.739  35.806  11.545
99787W        W71403   8.969   2.389   3.189
99788W        W71404  31.406   1.791   1.512
99789W        W71405  36.134  35.260   2.790
99790W        W71406  11.608  13.030   4.107
99791W        W71407   7.535   9.419  14.873
99792W        W71408  26.939  41.397   1.174
99793W        W71409  21.270  10.913  11.430
99794W        W71410  15.797  40.232  14.887
99795W        W71411  26.620  44.281  12.046
99796W        W71412  16.807  20.655   2.344
99797W        W71413  25.539  13.431  12.634
99798W        W71414   3.973   0.999   5.013
99799W        W71415   9.593  33.895  10.295
99800W        W71416  22.719   7.914   1.899
99801W        W71417  44.525   3.740  14.712
99802W        W71418  21.995  24.088   2.194
99803W        W71419  30.094  39.462   0.392
99804W        W71420   8.121  24.747   0.464
99805W        W71421   8.150  15.645   3.475
99806W        W71422  26.933  21.705   1.529
99807W        W71423   8.660  44.067  12.827
99808W        W71424  31.447  44.195   2.292
99809W        W71425  39.944  37.547  14.184
99810W        W71426  38.416  33.438  10.874
99811W        W71427  38.008  26.392  11.103
99812W        W71428  11.054   7.858  14.825
99813W        W71429  18.607   0.346   3.605
99814W        W71430  10.441  26.096   2.819
99815W        W71431  22.499  41.559  10.697
99816W        W71432  29.168  14.845   3.221
99817W        W71433  14.993  26.149  14.931
99818W        W71434  36.647  42.843   4.137
99819W        W71435  26.759  17.641  10.570
99820W        W71436  20.084  33.889   4.648
99821W        W71437  19.904  16.750  12.097
99822W        W71438   3.271  18.703  13.014
99823W        W71439  36.769   9.327  11.066
99824W        W71440   4.287  27.508   3.207
99825W        W71441  43.280  10.110   2.801
99826W        W71442   9.386  10.765   2.278
99827W        W71443   7.383  41.479   0.771
99828W        W71444  29.160  28.954   2.427
99829W        W71445  10.060  29.633   4.552
99830W        W71446  15.684  16.757  10.616
99831W        W71447  27.191  10.139   2.302
99832W        W71448  18.149  22.070   1.128
99833W        W71449  31.100  39.803   3.274
99834W        W71450  24.506  39.351  12.044
99835W        W71451   1.637  24.337  14.426
99836W        W71452  41.634  23.412   4.591
99837W        W71453  27.733  40.036  13.836
99838W        W71454  32.658   0.874   0.764
99839W        W71455   4.171  31.480  13.848
99840W        W71456  30.533   5.354  14.847
99841W        W71457  34.973  14.363  13.912
99842W        W71458  25.372  33.960  10.705
99843W        W71459  23.154   6.902   1.308
99844W        W71460  20.237  21.720  14.271
99845W        W71461  37.082  20.690   1.188
99846W        W71462  18.150  27.460  14.228
99847W        W71463  38.326  27.868   5.033
99848W        W71464  27.122  38.517   4.400
99849W        W71465  41.922  38.687  12.876
99850W        W71466  40.908  29.025  11.147
99851W        W71467  21.757  28.964   2.303
99852W        W71468  27.484  14.444  14.507
99853W        W71469  12.635  11.166  11.151
99854W        W71470  33.467  19.508   2.760
99855W        W71471  19.155  28.142  12.530
99856W        W71472  12.220  35.017   3.205
99857W        W71473   4.374  29.624  12.099
99858W        W71474  44.870  34.529  10.778
99859W        W71475  44.791  29.350   0.082
99860W        W71476  19.561  20.798  12.119
99861W        W71477  39.051   1.412  11.964
99862W        W71478  38.176  31.636   1.402
99863W        W71479  27.542  25.062   4.920
99864W        W71480  41.599  24.450   4.699
99865W        W71481  27.522  16.398  10.255
99866W        W71482  29.113  20.802   2.671
99867W        W71483  43.737  40.346  11.424
99868W        W71484  34.103  28.896  12.925
99869W        W71485  22.603  22.722  14.133
99870W        W71486   6.412  13.768   0.030
99871W        W71487  41.771  38.352   4.155
99872W        W71488   1.955  27.675  10.675
99873W        W71489  44.360  41.922  14.913
99874W        W71490  43.051  10.023   1.150
99875W        W71491  28.720  25.102  12.859
99876W        W71492  37.793  29.077  10.126
99877W        W71493   2.935  33.818  12.743
99878W        W71494  34.476  39.597   3.117
99879W        W71495  41.342  41.244   2.685
99880W        W71496  35.847  24.208   3.710
99881W        W71497   4.458  41.899   3.823
99882W        W71498   6.964  16.434   0.302
99883W        W71499  42.497  27.453   4.143
99884W        W71500  41.949  23.546  14.014
99885W        W71501  44.459  13.642   1.299
99886W        W71502  16.308  32.893   2.331
99887W        W71503  19.136  44.184   0.019
99888W        W71504  13.547  20.792   2.668
99889W        W71505   7.875  10.045   1.973
99890W        W71506  13.058  20.507   1.930
99891W        W71507  31.277  40.704   0.046
99892W        W71508  34.989   9.335  11.625
99893W        W71509   5.804  14.665   2.643
99894W        W71510  16.506   0.886   3.243
99895W        W71511  30.516  15.690  13.011
99896W        W71512  36.092  32.240  12.528
99897W        W71513  20.396  21.680  14.760
99898W        W71514  29.704  28.617   0.713
99899W        W71515  43.043  32.163  11.099
99900W        W71516  27.640   5.219  14.919
99901W        W71517  27.108   8.104  14.132
99902W        W71518   8.236  29.110  14.310
99903W        W71519   7.732   1.847  11.599
99904W        W71520  25.223  16.540  13.065
99905W        W71521  25.504   5.086  12.993
99906W        W71522  14.509  44.094   1.248
99907W        W71523  21.666   4.335   3.551
99908W        W71524  30.278  25.523   4.188
99909W        W71525   4.898  11.946  12.119
99910W        W71526  21.461   3.340  12.539
99911W        W71527  16.248  16.595   2.877
99912W        W71528  17.123   9.310   1.855
99913W        W71529  33.060   4.910   4.515
99914W        W71530   7.684  19.949   0.512
99915W        W71531   9.216   8.303   4.161
99916W        W71532  17.156  23.692   2.141
99917W        W71533   7.706   4.949  11.601
99918W        W71534   1.301  27.192  12.072
99919W        W71535  35.335  39.736   0.289
99920W        W71536  42.827  36.948  11.874
99921W        W71537  11.419   1.369   3.570
99922W        W71538  17.717  16.315   1.785
99923W        W71539  34.511   9.368  13.897
99924W        W71540  33.399  29.912   4.100
99925W        W71541  33.757  43.300   1.706
99926W        W71542   3.945  35.574   4.549
99927W        W71543  23.627  39.255   3.146
99928W        W71544  28.558  38.957   0.736
99929W        W71545  28.663  29.908  10.862
99930W        W71546  36.818  31.969   1.626
99931W        W71547  27.900  28.109   1.909
99932W        W71548  28.037  28.351  10.749
99933W        W71549  41.174   0.992  12.658
99934W        W71550  41.049  10.472  14.348
99935W        W71551   5.423   3.640   4.162
99936W        W71552  35.110  33.122   3.678
99937W        W71553  27.034  41.871  12.109
99938W        W71554   2.858   8.376  14.375
99939W        W71555  37.798   6.170  10.756
99940W        W71556  10.132  10.661  13.546
99941W        W71557  35.783  43.793   4.487
99942W        W71558  26.230  40.616  10.769
99943W        W71559  31.909  44.189  12.462
99944W        W71560  25.028  38.724  13.196
99945W        W71561  43.495  16.845  14.545
99946W        W71562  30.399   8.380   2.746
99947W        W71563  38.410  17.107   0.940
99948W        W71564   0.136  11.708   2.669
99949W        W71565  13.116  32.455   0.297
99950W        W71566  38.418  27.976   2.861
99951W        W71567  40.836   7.352  10.421
99952W        W71568   5.590  18.298   4.140
99953W        W71569  44.936  34.018  12.511
99954W        W71570  28.924  43.397   3.387
99955W        W71571   5.293  19.333   3.322
99956W        W71572  28.782  16.130   3.724
99957W        W71573  42.365   6.639   0.739
99958W        W71574  16.626  24.275   2.228
99959W        W71575  24.914  28.692   3.881
99960W        W71576  41.509   1.944   4.943
99961W        W71577  43.816  40.304  14.397
99962W        W71578   9.130  33.394  11.968
99963W        W71579  27.550  21.197  12.930
99964W        W71580  34.321  25.685  14.461
99965W        W71581   2.106  30.841  14.298
99966W        W71582  29.178   8.315   4.370
99967W        W71583  40.432   2.145  12.461
99968W        W71584   7.511  26.064  10.691
99969W        W71585  31.197  44.260  10.673
99970W        W71586  39.362  24.759  11.049
99971W        W71587  37.425  20.786  12.502
99972W        W71588   1.882  14.085  11.432
99973W        W71589  21.037   9.991   2.333
99974W        W71590  11.227   5.364  13.888
99975W        W71591  38.772  40.962  12.625
99976W        W71592   1.583  19.570  12.397
99977W        W71593   8.266  33.137   0.035
99978W        W71594  42.991  36.272  10.724
99979W        W71595  43.851  26.655   3.319
99980W        W71596  44.329  13.770  13.927
99981W        W71597  20.427  20.760  12.071
99982W        W71598   4.991  33.039   3.211
99983W        W71599  18.666   5.159   3.188
99984W        W71600  32.667  23.231  11.134
99985W        W71601  31.378   7.823   4.577
99986W        W71602  33.219   0.256   1.309
99987W        W71603  22.005  43.800  14.944
99988W        W71604  15.691   0.521   4.977
99989W        W71605  14.836  37.509   0.911
99990W        W71606   3.761  23.605   4.249
99991W        W71607  12.144   5.209  10.602
99992W        W71608  23.168  12.158  11.115
99993W        W71609  33.251   1.033   4.988
99994W        W71610  39.494  32.623  14.914
99995W        W71611  22.007   6.163   3.296
99996W        W71612  11.244  10.434  11.703
99997W        W71613  39.043   5.800  12.926
99998W        W71614  33.509   2.007   3.144
99999W        W71615  10.671   3.327  11.915
    0W        W71616  23.024  40.318  10.886
    1W        W71617  32.029  18.060   0.951
    2W        W71618  39.729  16.192  11.057
    3W        W71619  24.028  28.619  13.049
    4W        W71620  38.483   0.978   1.845
    5W        W71621  20.603  32.915   3.684
    6W        W71622   2.374   1.307   4.096
    7W        W71623  33.092  36.583   1.186
    8W        W71624  12.094   7.495   4.673
    9W        W71625   4.280   7.230  13.565
   10W        W71626   3.674  34.828   4.115
   11W        W71627   9.649  34.831  13.530
   12W        W71628   7.241  33.810   2.751
   13W        W71629  42.984  18.065   4.547
   14W        W71630  44.670  28.064  11.639
   15W        W71631  41.751  36.359   3.296
   16W        W71632   4.415  31.805  13.356
   17W        W71633  14.535  43.850  10.780
   18W        W71634  21.186  31.911  14.851
   19W        W71635  27.972  35.889   0.964
   20W        W71636  27.822   7.476   3.906
   21W        W71637  40.366   8.914  13.819
   22W        W71638  43.517  34.873   9.760
   23W        W71639  18.197  16.871   4.047
   24W        W71640   6.828   0.953   2.094
   25W        W71641  35.029  13.153   4.425
   26W        W71642  38.545   8.845   4.425
   27W        W71643  29.481  32.196   0.163
   28W        W71644  31.792  39.214  12.085
   29W        W71645  17.274  42.214  12.734
   30W        W71646  22.728  35.271   4.946
   31W        W71647  16.624  35.636   2.372
   32W        W71648  37.089  20.221  11.477
   33W        W71649  11.617  24.438   2.154
   34W        W71650  15.534   7.277   3.203
   35W        W71651   2.046  29.136   0.176
   36W        W71652  12.368   4.029  11.500
   37W        W71653  35.972  26.314  12.049
   38W        W71654  29.512   6.799   4.367
   39W        W71655  32.019  33.669  12.072
   40W        W71656  28.052  10.180   1.805
   41W        W71657  28.425  39.860   3.403
   42W        W71658   1.455  22.048  12.105
   43W        W71659  32.853  33.417  12.406
   44W        W71660  25.474  24.205   1.970
   45W        W71661  37.208   9.846   1.836
   46W        W71662  27.594  13.935   4.132
   47W        W71663  38.423  36.427  11.515
   48W        W71664  24.191  38.351   2.684
   49W        W71665   6.752  15.189   2.691
   50W        W71666  17.812  39.360  12.596
   51W        W71667  34.423  23.596   0.750
   52W        W71668  20.137  30.901   3.831
   53W        W71669  44.409  27.118  10.867
   54W        W71670  33.594  23.857  11.422
   55W        W71671  13.279   2.366   0.366
   56W        W71672  19.019  24.245  13.902
   57W        W71673  35.945  27.465  13.420
   58W        W71674  20.683  44.863  14.572
   59W        W71675  17.543   8.263  11.619
   60W        W71676   1.424  29.797   0.648
   61W        W71677  22.642   2.866   4.101
   62W        W71678  41.233  24.751  13.542
   63W        W71679  40.885  10.592   3.869
   64W        W71680   1.870  18.617  13.429
   65W        W71681  26.532  32.901   4.882
   66W        W71682  15.419  17.573   0.575
   67W        W71683  33.390   3.842  14.387
   68W        W71684  34.015  17.308  12.952
   69W        W71685  42.827  15.644  14.350
   70W        W71686  37.921  28.177  13.571
   71W        W71687   5.056  39.522   1.387
   72W        W71688   9.915  36.267   4.655
   73W        W71689  11.368  18.538  12.467
   74W        W71690   8.795  19.566  12.576
   75W        W71691  11.210  29.614  13.696
   76W        W71692  11.253  43.314  14.329
   77W        W71693  16.684  42.581  13.945
   78W        W71694   8.220  30.019   1.172
   79W        W71695   9.779  43.537   4.634
   80W        W71696   5.529   9.062  13.819
   81W        W71697   6.677   1.037   3.060
   82W        W71698  41.047   4.447   1.397
   83W        W71699  21.034   3.254  12.821
   84W        W71700  28.053  26.586  14.955
   85W        W71701  38.055  10.743   1.318
   86W        W71702  19.761  32.411  12.565
   87W        W71703   4.874   8.803   1.044
   88W        W71704  38.101   8.813  12.778
   89W        W71705   5.442   3.243   1.848
   90W        W71706  15.514  42.847   4.853
   91W        W71707  19.712   3.975   1.710
   92W        W71708  16.037   7.605  14.348
   93W        W71709  19.156  40.792  14.871
   94W        W71710  26.531  26.465  13.026
   95W        W71711   6.006  37.553   3.648
   96W        W71712   5.447  34.261   4.197
   97W        W71713  38.094  25.807   3.245
   98W        W71714   0.131   4.862  13.251
   99W        W71715   6.265  34.606   2.259
  100W        W71716  20.069  44.799   4.083
  101W        W71717  13.774   1.212  13.539
  102W        W71718   1.233   3.257  12.635
  103W        W71719  13.633   2.333  13.847
  104W        W71720  17.959  36.300  11.139
  105W        W71721  36.819  21.109  10.622
  106W        W71722  20.133  17.609   3.360
  107W        W71723  32.495  23.571  11.464
  108W        W71724  12.601  36.398  14.227
  109W        W71725  20.957  39.795   4.164
  110W        W71726  12.089  25.002   4.104
  111W        W71727  33.994   2.402   4.154
  112W        W71728  43.258  32.089  12.068
  113W        W71729  10.295  38.457  13.455
  114W        W71730  26.006  23.159  12.357
  115W        W71731   1.414   6.523   1.267
  116W        W71732  29.388   7.829  10.577
  117W        W71733   9.423  15.044   0.893
  118W        W71734  44.444  29.740  11.053
  119W        W71735  22.335  21.716   2.232
  120W        W71736   2.725   9.279  14.368
  121W        W71737  31.749  15.087  13.453
  122W        W71738  14.666  11.116  12.033
  123W        W71739  15.270  11.713   4.668
  124W        W71740  29.080  27.660   1.158
  125W        W71741  27.641  33.133  14.427
  126W        W71742  36.271  12.207  13.075
  127W        W71743  27.474  18.987  14.283
  128W        W71744  16.444   4.704   4.742
  129W        W71745  43.444  44.204   0.756
  130W        W71746  24.098  11.452  11.017
  131W        W71747   6.430  32.825  11.513
  132W        W71748  37.584  34.853  12.052
  133W        W71749   0.749  19.892   4.239
  134W        W71750   1.324  37.994   2.584
  135W        W71751  19.440  36.923   0.954
  136W        W71752  36.791   2.436  14.351
  137W        W71753  21.860  42.710  12.358
  138W        W71754  33.455  42.324  14.824
  139W        W71755   7.467   8.723   0.295
  140W        W71756  27.934   2.656  14.703
  141W        W71757  34.755  27.544   0.822
  142W        W71758  19.222  11.232  12.584
  143W        W71759  19.821  35.935   3.821
  144W        W71760  40.657  11.622   3.392
  145W        W71761   0.846   9.560   1.297
  146W        W71762  37.555  42.820   0.326
  147W        W71763  13.273  15.112   1.876
  148W        W71764  33.059  38.100  12.948
  149W        W71765  41.729   4.959  11.943
  150W        W71766   1.942   5.806  11.799
  151W        W71767  12.915  31.460  11.514
  152W        W71768  41.895  32.152  13.944
  153W        W71769  28.032  39.396   0.318
  154W        W71770   9.402  27.993   3.035
  155W        W71771  32.051  25.979  13.187
  156W        W71772  27.672  19.506   2.307
  157W        W71773  25.761  25.710   4.129
  158W        W71774  38.316   5.134  13.829
  159W        W71775  16.551  19.677   2.629
  160W        W71776  40.281  14.441   3.025
  161W        W71777   5.478  15.366   4.506
  162W        W71778  23.990  44.307  11.955
  163W        W71779  44.761  22.227  12.502
  164W        W71780  42.394  14.078  14.056
  165W        W71781   3.408  44.607  14.814
  166W        W71782  12.807   0.862   2.338
  167W        W71783  21.058  27.336  14.207
  168W        W71784  22.546  15.539   1.991
  169W        W71785  18.234  36.759   4.279
  170W        W71786  14.740   4.198  11.429
  171W        W71787  42.456  18.959   3.998
  172W        W71788  27.061  12.853  14.937
  173W        W71789  23.173   5.156  13.990
  174W        W71790  37.597  17.601   3.678
  175W        W71791  34.918  43.303   0.805
  176W        W71792   5.359  23.107   3.958
  177W        W71793  12.455  23.648   3.330
  178W        W71794  20.723  37.803   3.160
  179W        W71795  22.566   1.291  10.091
  180W        W71796  26.427  29.632   1.826
  181W        W71797  26.290  16.824  10.565
  182W        W71798  44.915  17.118   3.277
  183W        W71799  32.859  15.632   5.004
  184W        W71800  41.482  15.532   3.151
  185W        W71801   1.731  41.771  14.829
  186W        W71802   8.165  27.113  13.396
  187W        W71803  28.511  22.066   4.142
  188W        W71804  12.914  28.098   2.712
  189W        W71805  35.340  41.361   4.041
  190W        W71806   9.369  27.550  14.080
  191W        W71807   4.009  22.036  11.064
  192W        W71808  16.474  29.543   0.208
  193W        W71809  18.239   7.937   2.355
  194W        W71810  14.279   6.386   0.820
  195W        W71811  24.019  30.248  12.978
  196W        W71812   6.051   9.069   3.052
  197W        W71813  44.778   6.936  13.916
  198W        W71814   5.836   4.350   1.342
  199W        W71815   8.595  36.813   1.252
  200W        W71816  37.511   0.773  11.375
  201W        W71817  13.527  14.763   0.445
  202W        W71818  37.585  31.785   5.106
  203W        W71819  13.720   4.372   3.084
  204W        W71820  23.678  36.536  12.490
  205W        W71821  13.291   6.788  10.579
  206W        W71822  11.017  14.234  11.066
  207W        W71823  42.823  12.594   4.130
  208W        W71824  39.436   6.227   4.802
  209W        W71825  11.140  13.714   0.192
  210W        W71826  37.229  20.513   2.572
  211W        W71827  31.077  35.145   4.170
  212W        W71828   9.210   1.903   3.245
  213W        W71829  28.370   7.686   4.544
  214W        W71830  41.555  25.615   2.693
  215W        W71831  17.626   5.914  13.400
  216W        W71832   9.801  41.990  14.425
  217W        W71833  10.208  37.739   2.764
  218W        W71834  40.325  35.874   4.642
  219W        W71835  37.298   2.236  13.500
  220W        W71836   1.777   4.394  12.530
  221W        W71837   4.369  42.381   3.652
  222W        W71838  34.947  18.222  14.022
  223W        W71839   7.723  41.998  10.783
  224W        W71840  27.563  28.473  14.669
  225W        W71841   3.871  36.355   2.381
  226W        W71842  18.173  18.313  12.121
  227W        W71843  31.476  11.843   2.631
  228W        W71844   2.703  15.003  11.547
  229W        W71845  20.803   0.456   4.240
  230W        W71846  26.627  25.734   2.693
  231W        W71847   4.040  22.660   5.563
  232W        W71848   0.462   2.658  12.010
  233W        W71849   3.135   2.000  11.890
  234W        W71850  21.161  23.486   3.733
  235W        W71851  10.557  39.455   2.821
  236W        W71852   0.301  40.403  13.553
  237W        W71853  31.092  31.435  11.575
  238W        W71854  23.641   6.355  13.028
  239W        W71855  31.690   5.741   3.269
  240W        W71856  12.763  24.232  10.621
  241W        W71857   6.856   9.356  14.588
  242W        W71858   3.455  30.816   1.603
  243W        W71859   5.300  28.626   1.443
  244W        W71860   5.005   3.958   4.247
  245W        W71861  22.230  34.837   1.455
  246W        W71862  36.655   0.874  12.268
  247W        W71863  26.859  19.207  12.990
  248W        W71864   9.717  11.102  13.852
  249W        W71865  15.069   0.098  11.123
  250W        W71866  41.009  15.811  12.834
  251W        W71867  37.839   3.717   1.795
  252W        W71868  15.215  25.568   3.398
  253W        W71869  37.661  29.555   1.684
  254W        W71870   0.493  15.589   2.381
  255W        W71871  28.186   4.313  14.391
  256W        W71872  42.628  20.323   2.904
  257W        W71873  12.682  41.286   2.051
  258W        W71874   4.084  38.270   3.426
  259W        W71875  35.402   5.399  12.597
  260W        W71876  28.885   6.114  10.547
  261W        W71877   7.489  25.441  14.468
  262W        W71878  18.203  20.207  14.898
  263W        W71879  36.287  32.646   2.334
  264W        W71880  29.467  30.903  14.573
  265W        W71881   3.810  35.033  14.461
  266W        W71882  31.165  17.049   2.221
  267W        W71883   6.600  15.187   3.212
  268W        W71884  31.075  27.006   2.853
  269W        W71885  22.184  27.569   0.395
  270W        W71886  42.363  11.086   2.076
  271W        W71887  30.498  17.306   0.332
  272W        W71888   2.555  34.207   4.124
  273W        W71889  28.497  44.883  14.491
  274W        W71890  19.639  17.188   1.364
  275W        W71891   7.025  39.122  13.871
  276W        W71892  23.934  23.799  13.467
  277W        W71893  19.627  25.247  13.608
  278W        W71894  22.342  23.649  11.205
  279W        W71895  13.834  31.534   3.232
  280W        W71896  43.784   8.352   3.242
  281W        W71897   0.672  31.965   2.402
  282W        W71898  20.462   2.749   1.468
  283W        W71899  10.320  38.545   3.190
  284W        W71900  21.689  40.986  10.706
  285W        W71901   5.225  30.876  13.785
  286W        W71902  43.237  35.669   3.792
  287W        W71903  32.859   7.233   0.441
  288W        W71904   5.767   8.282   0.484
  289W        W71905  27.833  30.577   1.360
  290W        W71906  38.619  42.428  12.470
  291W        W71907  34.086  42.830   2.845
  292W        W71908   1.314   8.612   4.846
  293W        W71909  39.568   8.831  12.416
  294W        W71910  35.797  23.594   4.737
  295W        W71911  25.734  20.112  10.731
  296W        W71912  23.943   3.615  14.869
  297W        W71913  33.663  35.993  13.767
  298W        W71914   6.331  16.696  14.101
  299W        W71915  15.278  17.099  12.528
  300W        W71916   5.300  41.429  13.352
  301W        W71917  42.465  28.468  12.796
  302W        W71918   8.100  23.691   2.309
  303W        W71919  18.691  28.531  13.702
  304W        W71920  37.185  19.717  11.368
  305W        W71921  14.251   1.083  11.250
  306W        W71922  38.981  12.768   1.741
  307W        W71923  29.971   0.890  11.996
  308W        W71924  12.662  12.243   3.146
  309W        W71925  38.362  15.930   3.201
  310W        W71926  12.162  21.683  10.687
  311W        W71927  26.107  43.319   2.616
  312W        W71928  20.264  22.033   0.097
  313W        W71929   1.274  19.645   2.611
  314W        W71930   7.909  16.773   4.195
  315W        W71931  15.512  37.520  14.385
  316W        W71932   6.657  14.264   3.102
  317W        W71933  13.646  31.975  10.632
  318W        W71934   7.293   0.401   3.580
  319W        W71935  41.632  36.520   0.404
  320W        W71936  17.377   7.433   4.581
  321W        W71937   5.244  19.478  11.525
  322W        W71938  36.630   7.122   2.831
  323W        W71939  44.798  30.861  13.791
  324W        W71940  21.782   8.941   1.413
  325W        W71941  27.198  20.265  12.081
  326W        W71942   4.524   2.692   2.693
  327W        W71943  26.135  37.054  14.841
  328W        W71944  33.366  24.327   0.409
  329W        W71945  14.744  28.038   1.733
  330W        W71946  39.360  39.328   4.127
  331W        W71947   8.673   3.812   0.391
  332W        W71948   8.679  18.812  13.108
  333W        W71949  38.016  40.468   0.391
  334W        W71950  36.965  16.028   4.265
  335W        W71951   8.602  10.873  12.539
  336W        W71952   4.699  29.085  11.860
  337W        W71953  12.877  23.634   0.867
  338W        W71954   0.881  41.340  13.058
  339W        W71955  15.726  42.182   2.721
  340W        W71956   9.865  40.316   4.130
  341W        W71957  14.740  14.859   4.435
  342W        W71958   2.414  40.336   3.216
  343W        W71959   3.720  41.405   2.708
  344W        W71960  44.447   9.629  14.544
  345W        W71961  42.598  13.463  11.067
  346W        W71962  35.156  29.878  13.377
  347W        W71963  37.165  33.889  11.573
  348W        W71964  34.278  19.240   0.471
  349W        W71965   9.316  11.660  13.663
  350W        W71966  44.671  39.060  14.816
  351W        W71967   8.090  13.049  10.909
  352W        W71968  35.413   9.045  11.655
  353W        W71969   9.383  22.555  12.033
  354W        W71970  30.789  25.456  11.091
  355W        W71971  19.485   8.766  11.349
  356W        W71972   3.828  39.251   2.252
  357W        W71973   1.549  24.265   2.657
  358W        W71974   6.801  37.455   0.378
  359W        W71975  44.840  19.087   4.298
  360W        W71976  19.483  16.705   2.214
  361W        W71977  30.446  27.346   3.776
  362W        W71978  15.596   4.680  11.585
  363W        W71979  39.920  40.241  10.753
  364W        W71980   8.212  38.440   1.863
  365W        W71981  37.768   7.881   4.096
  366W        W71982   5.946  15.481   0.125
  367W        W71983   7.769   2.932  14.335
  368W        W71984  12.386   3.267  12.614
  369W        W71985   4.205   4.757   4.632
  370W        W71986  43.958  39.898  11.361
  371W        W71987  15.276  39.251  14.926
  372W        W71988   7.830  39.920   1.568
  373W        W71989   3.279  18.341  11.511
  374W        W71990  21.840  12.352   2.080
  375W        W71991  20.470  20.584  10.646
  376W        W71992   1.074  37.477   9.942
  377W        W71993   6.798  26.453   0.415
  378W        W71994  28.587  22.085   1.753
  379W        W71995  17.570   9.853   3.565
  380W        W71996  11.813  14.189   3.622
  381W        W71997  40.566  29.602  14.575
  382W        W71998  29.292  41.917  12.539
  383W        W71999   1.890  41.438   4.369
  384W        W72000   6.926  29.196  12.517
  385W        W72001  40.190  43.082  12.926
  386W        W72002   5.974  26.045   2.772
  387W        W72003   2.616  35.415   1.876
  388W        W72004  43.246   6.581   4.244
  389W        W72005  12.772  39.494   4.045
  390W        W72006  33.198   1.681   2.809
  391W        W72007  30.392  19.742   1.844
  392W        W72008  21.492  26.285   2.387
  393W        W72009  34.045   5.496   3.266
  394W        W72010  20.940  23.109   4.434
  395W        W72011   4.888  15.054  11.183
  396W        W72012  27.384  25.475   1.394
  397W        W72013  27.070   5.089  12.098
  398W        W72014  42.533  38.883  13.350
  399W        W72015   5.360  16.268   2.258
  400W        W72016  19.688  28.600  10.707
  401W        W72017  35.040  10.531  12.584
  402W        W72018   2.378  24.723   1.765
  403W        W72019  11.764  16.511  10.639
  404W        W72020  42.447  20.908  11.434
  405W        W72021   4.403  36.775  13.838
  406W        W72022  33.496  28.989  13.558
  407W        W72023   9.049  40.045  12.325
  408W        W72024   8.209  30.498  14.870
  409W        W72025  26.689  37.770  12.106
  410W        W72026   7.758  10.582   1.756
  411W        W72027  15.272  17.171   3.218
  412W        W72028  11.710  32.101  11.497
  413W        W72029   1.002  22.137  13.228
  414W        W72030   0.324   5.819   4.503
  415W        W72031   5.467  27.556  13.924
  416W        W72032   1.515  14.248   1.728
  417W        W72033   7.663   4.211  10.831
  418W        W72034  43.702  38.529   1.775
  419W        W72035   5.373  19.214  14.952
  420W        W72036  16.311  18.743  12.044
  421W        W72037  10.300  11.747  14.285
  422W        W72038   8.581  12.836   1.511
  423W        W72039   0.274  37.408  12.495
  424W        W72040  16.175  24.031   2.104
  425W        W72041   0.037  21.779  14.297
  426W        W72042  19.118  42.996   2.379
  427W        W72043  40.523  42.950  10.494
  428W        W72044  38.557   3.404   1.403
  429W        W72045   9.722  42.700   3.682
  430W        W72046  40.724  41.267   2.205
  431W        W72047  37.340  22.137   4.770
  432W        W72048  30.102  42.408   0.987
  433W        W72049  30.470  33.560  12.016
  434W        W72050  13.230  16.268  13.011
  435W        W72051   7.289  15.722   2.921
  436W        W72052  12.801  11.897  14.211
  437W        W72053  35.045  31.815  13.856
  438W        W72054  30.109   2.820  14.457
  439W        W72055   0.520  35.825  13.491
  440W        W72056  12.957  33.086  11.060
  441W        W72057   7.018  28.537   2.845
  442W        W72058   3.211  23.605   4.373
  443W        W72059  42.861  36.110   0.395
  444W        W72060  12.876  33.977   3.400
  445W        W72061  21.477  12.936   2.794
  446W        W72062   4.311  25.371  13.043
  447W        W72063  25.044   2.839   3.862
  448W        W72064  13.771   5.696  13.954
  449W        W72065  30.288   4.566   0.391
  450W        W72066  17.125  21.680   3.355
  451W        W72067   6.867  25.017   0.825
  452W        W72068  11.065  37.601   4.175
  453W        W72069  12.661  19.816  12.019
  454W        W72070  23.026  40.875   1.866
  455W        W72071  18.189  16.082  13.899
  456W        W72072  10.519   7.760  12.451
  457W        W72073  40.399  27.680  10.800
  458W        W72074  30.157  31.679  12.573
  459W        W72075   7.341  40.692   0.340
  460W        W72076   2.465  30.755  12.662
  461W        W72077   0.581  12.182   4.835
  462W        W72078  30.055  38.982   1.325
  463W        W72079  34.967  18.077  11.978
  464W        W72080  27.098  16.642  13.813
  465W        W72081  34.358  14.984  14.380
  466W        W72082  13.853  25.106  14.064
  467W        W72083   0.920  13.161  12.457
  468W        W72084  14.153  39.719  14.426
  469W        W72085  30.096   7.644   1.757
  470W        W72086  29.892  40.815   3.406
  471W        W72087  35.925  29.595   0.999
  472W        W72088  42.897   1.511  13.808
  473W        W72089   3.022  15.245  14.851
  474W        W72090   2.855  43.899  11.913
  475W        W72091   1.060   5.954  11.075
  476W        W72092  21.425  26.581   0.052
  477W        W72093  26.058  44.103  11.619
  478W        W72094  33.947   3.615  11.480
  479W        W72095  27.563  13.814   0.389
  480W        W72096   6.360   9.602   4.530
  481W        W72097   6.360  29.413   2.288
  482W        W72098   1.348  15.366  13.766
  483W        W72099   7.622   4.206   2.783
  484W        W72100  12.022  33.020  11.425
  485W        W72101  21.284  44.089  14.380
  486W        W72102  23.963  24.198  13.967
  487W        W72103  31.556  44.441  13.828
  488W        W72104  33.335  29.033   1.849
  489W        W72105   2.245  10.079  11.559
  490W        W72106  32.825  23.979   4.209
  491W        W72107   4.974  35.523  10.659
  492W        W72108   6.090  12.168   0.397
  493W        W72109  12.065   0.715   2.715
  494W        W72110  34.076   4.954   3.245
  495W        W72111   1.025   9.053   1.402
  496W        W72112  20.073  16.448  13.435
  497W        W72113  35.821  17.615   1.656
  498W        W72114  33.030   0.546   0.477
  499W        W72115   0.820  10.982   1.421
  500W        W72116   4.735  26.177   3.299
  501W        W72117  26.125  12.114  11.668
  502W        W72118  10.612  36.401   2.911
  503W        W72119  36.362  19.945  12.402
  504W        W72120  33.337  21.521   3.383
  505W        W72121  21.613  38.441  13.033
  506W        W72122  11.839  22.478  13.843
  507W        W72123  28.408  27.958  14.081
  508W        W72124   4.468  11.472   4.851
  509W        W72125   4.223   3.227   4.047
  510W        W72126  23.999  27.239  12.843
  511W        W72127  43.421  22.592   1.998
  512W        W72128  33.992  25.926  13.023
  513W        W72129  43.996  22.140   3.635
  514W        W72130  36.887  42.886   0.498
  515W        W72131  20.270  37.468   0.468
  516W        W72132  29.546  11.082   2.330
  517W        W72133  36.868  17.801  12.845
  518W        W72134  17.384  38.502  14.913
  519W        W72135  19.690  23.132   2.626
  520W        W72136  39.515  10.408  11.409
  521W        W72137  15.517  24.330   4.151
  522W        W72138  28.984   2.020  11.143
  523W        W72139  17.534   8.707   1.781
  524W        W72140  33.516  39.815  11.274
  525W        W72141  18.768   4.976   1.849
  526W        W72142  13.462  26.382  12.999
  527W        W72143   1.465  35.463   4.607
  528W        W72144  34.286   3.707   4.460
  529W        W72145  31.499   7.575   2.851
  530W        W72146  24.443  41.435   4.529
  531W        W72147  36.420   0.042   0.532
  532W        W72148  15.211  30.507  14.804
  533W        W72149  43.484  21.490   4.564
  534W        W72150  27.319   4.223  13.131
  535W        W72151  34.146   1.177   5.392
  536W        W72152  25.602  14.795   1.354
  537W        W72153  27.972  14.746  10.586
  538W        W72154   1.486   6.226   4.615
  539W        W72155   8.284  36.667  12.093
  540W        W72156  41.914  35.509  13.877
  541W        W72157  32.561  12.649  12.604
  542W        W72158  42.008  33.493   4.560
  543W        W72159  24.630  15.312   4.555
  544W        W72160  17.822   6.464   0.811
  545W        W72161  41.549  19.468  11.859
  546W        W72162  28.645  31.920  10.984
  547W        W72163  12.862  14.789  13.761
  548W        W72164  38.999  39.566   1.334
  549W        W72165  14.632  34.325  10.746
  550W        W72166  11.349  13.669  10.471
  551W        W72167  40.358  34.007   1.258
  552W        W72168  25.675  38.163  13.542
  553W        W72169  36.596  43.992   4.331
  554W        W72170  25.162  11.663  11.592
  555W        W72171  18.568  27.727  11.019
  556W        W72172  16.874  38.058   1.815
  557W        W72173  13.228  44.417  10.898
  558W        W72174  24.100   0.394   3.718
  559W        W72175  23.305   2.931   0.824
  560W        W72176  26.431  14.121  11.282
  561W        W72177   1.615  43.375   4.025
  562W        W72178   8.337   1.384   1.895
  563W        W72179  24.177  34.591   4.770
  564W        W72180  39.837  10.626   1.067
  565W        W72181  37.241  22.236  14.986
  566W        W72182  10.262  35.101  11.154
  567W        W72183  12.698  10.980   2.245
  568W        W72184   7.776  13.626   4.239
  569W        W72185  31.601   8.368   2.418
  570W        W72186  39.735  20.084  13.004
  571W        W72187  33.774  39.341  11.715
  572W        W72188  13.425  31.047   4.913
  573W        W72189  41.052   7.162   1.345
  574W        W72190  28.363   0.705   1.445
  575W        W72191  32.434   2.029  13.430
  576W        W72192   9.367  24.003  11.110
  577W        W72193  39.396  14.070   4.535
  578W        W72194   6.872  36.234  13.286
  579W        W72195  37.357  37.970   1.622
  580W        W72196  33.165  17.188   1.867
  581W        W72197   3.802   6.308   4.946
  582W        W72198  32.479  25.934  13.639
  583W        W72199   6.278  41.111  14.755
  584W        W72200   5.088  26.185  12.082
  585W        W72201  25.580  29.892  11.709
  586W        W72202  26.456   5.427  13.804
  587W        W72203   9.967   6.158  13.839
  588W        W72204  27.216  21.667  10.739
  589W        W72205   8.855  11.748  12.936
  590W        W72206  26.196   3.396   4.661
  591W        W72207  39.802  32.043  14.406
  592W        W72208  29.917  27.539  11.923
  593W        W72209  36.913  10.605   5.603
  594W        W72210  15.258   5.415   3.644
  595W        W72211   3.868  37.440  13.788
  596W        W72212  25.628  22.288   0.895
  597W        W72213  18.201  42.455   3.581
  598W        W72214  12.903  15.991  10.257
  599W        W72215  18.657   9.679   3.256
  600W        W72216   3.397  13.270  11.523
  601W        W72217   5.370  14.778  14.151
  602W        W72218  34.612  42.206   3.582
  603W        W72219  36.548  37.072  14.809
  604W        W72220  41.827  24.549  14.813
  605W        W72221  32.031  20.052  11.210
  606W        W72222  10.354  31.474  13.396
  607W        W72223  15.403  30.365  13.867
  608W        W72224  26.859  12.058  12.518
  609W        W72225   1.951   7.280  13.466
  610W        W72226   7.107  31.833   3.196
  611W        W72227  27.383  14.679   2.584
  612W        W72228  38.041   5.865  14.055
  613W        W72229  10.258  32.168   2.679
  614W        W72230  16.370  28.470  14.439
  615W        W72231   5.019  26.709   4.496
  616W        W72232  29.282   5.314   3.320
  617W        W72233  18.234  42.502   4.105
  618W        W72234  32.326   8.213   0.472
  619W        W72235  29.598  17.208   1.286
  620W        W72236  37.749   5.269   2.658
  621W        W72237  40.445  24.297  11.611
  622W        W72238  32.464  15.665  14.248
  623W        W72239  39.304  34.534  11.022
  624W        W72240  30.863  20.632  10.764
  625W        W72241  16.274  32.337  14.982
  626W        W72242  25.060  26.177   0.860
  627W        W72243  25.185  37.433  10.683
  628W        W72244  15.741  29.172  12.572
  629W        W72245   7.249  12.494   2.707
  630W        W72246   0.354  44.840  12.536
  631W        W72247   9.822  36.772   4.618
  632W        W72248   3.172   2.041   3.564
  633W        W72249  34.397   2.133  14.425
  634W        W72250  38.996  40.227   4.673
  635W        W72251  43.450  40.910  14.278
  636W        W72252  21.978  13.084   2.729
  637W        W72253  25.695  43.021  12.050
  638W        W72254  19.198  16.527   4.499
  639W        W72255  36.663  44.212   0.921
  640W        W72256  29.254   2.875   2.250
  641W        W72257  25.562  25.468   3.669
  642W        W72258   6.230  31.593  12.894
  643W        W72259  39.890  30.784   2.245
  644W        W72260   3.700  21.814   0.946
  645W        W72261  41.249  41.828  12.522
  646W        W72262  31.076   0.926   4.369
  647W        W72263  22.012   0.025   3.704
  648W        W72264  23.540  34.180   2.782
  649W        W72265   9.918  44.687   1.831
  650W        W72266   5.787   2.493  14.873
  651W        W72267  41.456  31.512   4.666
  652W        W72268  18.617  35.644  13.994
  653W        W72269   2.060  21.982   3.049
  654W        W72270   5.741  30.104  10.732
  655W        W72271  26.622  12.213   4.669
  656W        W72272  42.035   4.555  13.807
  657W        W72273  35.100  35.541   4.628
  658W        W72274  19.662   3.717   3.116
  659W        W72275  34.548   2.650   3.370
  660W        W72276  36.884  22.255  13.361
  661W        W72277  27.405  32.211   0.375
  662W        W72278  18.615  30.014  10.671
  663W        W72279  17.243  30.313   0.264
  664W        W72280  12.558  33.588   1.703
  665W        W72281  38.551  28.994   2.390
  666W        W72282   3.753  15.718   1.725
  667W        W72283  31.199  21.130  13.115
  668W        W72284  31.783  38.713   5.307
  669W        W72285   6.309  35.005   1.439
  670W        W72286  18.816   1.345   2.902
  671W        W72287   8.003  22.103   2.210
  672W        W72288  17.640   9.650   3.082
  673W        W72289   4.102  41.788   1.870
  674W        W72290  12.584   8.131   1.813
  675W        W72291  42.085  37.405   1.037
  676W        W72292   7.663  42.041  14.018
  677W        W72293   0.320  34.135   3.975
  678W        W72294   6.365  42.060   2.947
  679W        W72295  37.538  15.646  14.003
  680W        W72296  40.829  39.406   3.434
  681W        W72297  13.878  38.510   2.465
  682W        W72298  29.521   5.286  13.351
  683W        W72299  17.534   7.063  12.878
  684W        W72300  17.879  17.388   3.721
  685W        W72301  32.336  14.339   1.328
  686W        W72302  30.554  20.685   0.703
  687W        W72303  27.761  12.304  13.482
  688W        W72304  14.317   9.201   1.161
  689W        W72305  40.514   7.948   1.760
  690W        W72306   5.734  39.154   2.313
  691W        W72307  37.958   5.761   0.332
  692W        W72308  36.342  11.786   2.797
  693W        W72309  12.766  29.029  11.175
  694W        W72310  16.366   9.798  12.542
  695W        W72311   9.297  11.150  13.539
  696W        W72312  34.807  33.623  12.559
  697W        W72313  29.954  40.893  11.103
  698W        W72314  17.536  39.299  12.165
  699W        W72315  39.014  33.438  13.513
  700W        W72316  40.393  44.637   5.017
  701W        W72317  23.858  30.914   3.676
  702W        W72318  24.564  35.338  13.519
  703W        W72319   5.540   1.073   3.250
  704W        W72320  34.182   0.322  11.993
  705W        W72321   0.326  21.581  13.368
  706W        W72322  14.875  11.842  11.018
  707W        W72323   9.299  30.157   1.918
  708W        W72324  23.984  39.990  12.366
  709W        W72325  39.611   7.918  12.448
  710W        W72326   0.496  34.199  13.886
  711W        W72327  21.619  24.617   4.148
  712W        W72328   8.812   5.445   3.365
  713W        W72329  13.251  11.778   1.502
  714W        W72330   1.698  14.608   0.864
  715W        W72331  28.438  41.883  13.575
  716W        W72332  28.128  42.881  13.024
  717W        W72333  37.890  27.208   4.844
  718W        W72334   1.414  10.709   2.673
  719W        W72335  35.547   7.864   0.392
  720W        W72336   9.774   1.452  10.944
  721W        W72337  31.200  29.423  13.566
  722W        W72338   6.967  28.072  11.004
  723W        W72339  28.541  26.717   5.128
  724W        W72340  15.568  16.577   2.313
  725W        W72341  15.555  24.206   0.378
  726W        W72342  32.163   2.407  12.482
  727W        W72343  20.215  32.752  10.981
  728W        W72344  42.409  20.671   0.419
  729W        W72345  29.535  23.761  11.575
  730W        W72346   7.167   4.182   1.907
  731W        W72347  30.406  14.336   1.300
  732W        W72348   7.901  30.058   2.421
  733W        W72349  11.706  44.895  12.822
  734W        W72350  37.574  38.304   1.176
  735W        W72351  26.170   1.681  11.695
  736W        W72352  32.366  12.387  11.436
  737W        W72353  44.310  11.429   3.700
  738W        W72354  39.759  41.388   4.498
  739W        W72355   8.189  42.874   1.627
  740W        W72356  37.051  35.511  13.014
  741W        W72357  44.118  44.667  13.853
  742W        W72358  14.219   8.895   4.255
  743W        W72359   4.799  19.460  10.705
  744W        W72360  32.866  21.164  11.103
  745W        W72361  29.761  37.623  10.263
  746W        W72362  22.714  22.258  13.895
  747W        W72363   2.742  44.403  14.080
  748W        W72364   9.165  33.471   1.286
  749W        W72365  34.436  43.501   2.773
  750W        W72366   0.191   0.162  11.049
  751W        W72367   5.627  42.285  14.444
  752W        W72368   7.288  19.988  13.938
  753W        W72369   2.404  12.262  12.726
  754W        W72370  27.561  13.123   1.154
  755W        W72371  19.908  28.273  12.875
  756W        W72372  14.101  35.046   3.793
  757W        W72373   6.018  32.719   2.206
  758W        W72374   8.854   4.985   2.633
  759W        W72375  30.512  37.831   0.149
  760W        W72376   0.303   8.372  14.237
  761W        W72377  12.064  32.563  14.345
  762W        W72378   9.231  42.947   2.793
  763W        W72379  36.289  11.782  14.864
  764W        W72380  28.998  25.696   3.692
  765W        W72381  36.017  39.896  13.031
  766W        W72382  44.888  28.897  14.825
  767W        W72383  19.795  12.756   3.815
  768W        W72384  30.642   7.333   2.983
  769W        W72385  26.492  29.451   0.804
  770W        W72386   5.408  18.765  14.710
  771W        W72387  13.843  37.041   1.958
  772W        W72388  38.467  20.499   3.114
  773W        W72389   2.070   1.855  12.967
  774W        W72390  18.698  42.170  13.344
  775W        W72391   6.928  42.436   1.375
  776W        W72392  33.158  14.513  11.318
  777W        W72393  43.464  15.119  13.293
  778W        W72394  23.315   6.808  14.420
  779W        W72395  34.160   2.064   3.627
  780W        W72396  28.013  17.702  11.468
  781W        W72397   6.221  40.347   0.940
  782W        W72398  42.256  32.595  11.161
  783W        W72399  16.095  29.039  12.235
  784W        W72400  44.224   3.248  13.338
  785W        W72401   6.155  29.071  13.558
  786W        W72402  40.950  43.096   3.282
  787W        W72403  21.618  15.322   4.330
  788W        W72404  12.183  43.788   1.983
  789W        W72405  16.091  39.919  10.635
  790W        W72406  22.513   2.183   0.400
  791W        W72407  20.710  27.005   1.983
  792W        W72408  10.250  40.971   2.927
  793W        W72409  40.476  26.694   0.750
  794W        W72410  20.607   8.303  14.582
  795W        W72411  39.444  24.532   2.780
  796W        W72412  24.059   1.868  11.747
  797W        W72413  26.582  40.686   4.276
  798W        W72414  40.594  13.748  11.116
  799W        W72415   0.841  19.011   0.640
  800W        W72416  22.539   8.327  12.651
  801W        W72417   6.955  18.691  11.554
  802W        W72418  23.309  25.562   0.001
  803W        W72419  19.014  28.389   3.111
  804W        W72420   2.483   7.336   3.733
  805W        W72421  31.027  22.956   4.232
  806W        W72422   9.154   8.669  11.146
  807W        W72423  41.107  30.974   4.663
  808W        W72424  11.494  11.450   1.846
  809W        W72425  22.079   4.741  11.074
  810W        W72426  44.248  18.771  11.173
  811W        W72427  21.652  22.121  12.033
  812W        W72428   7.225  10.670   2.447
  813W        W72429  22.756  21.098   1.947
  814W        W72430  17.785  42.123  13.947
  815W        W72431  27.974   4.710   2.358
  816W        W72432  12.810   7.585  10.589
  817W        W72433   1.365  28.447   0.885
  818W        W72434  15.180  36.772   4.395
  819W        W72435  26.984  20.470  14.983
  820W        W72436  33.872  10.267  11.579
  821W        W72437  44.852  10.379   0.655
  822W        W72438  24.031   2.220   1.747
  823W        W72439  15.042  14.405  11.989
  824W        W72440  13.882  35.884  11.354
  825W        W72441  25.459  24.204   4.304
  826W        W72442  21.900  36.003   0.089
  827W        W72443  41.527  27.208   1.207
  828W        W72444  19.003   4.933   0.916
  829W        W72445  18.534   3.248   0.530
  830W        W72446  18.216   9.803   0.697
  831W        W72447   2.402  12.432   3.665
  832W        W72448  28.556  21.085   4.012
  833W        W72449  28.338  21.131   0.945
  834W        W72450   8.836  33.543   2.128
  835W        W72451  26.777  42.066   1.498
  836W        W72452  19.170  35.878  12.130
  837W        W72453  41.212   4.144  11.654
  838W        W72454   2.336   2.322  12.051
  839W        W72455  14.190  27.251  12.526
  840W        W72456  16.445  31.365  12.095
  841W        W72457  28.098  30.182   1.166
  842W        W72458  30.089   9.246   4.136
  843W        W72459   0.328   5.991  11.431
  844W        W72460  29.242  40.388  14.864
  845W        W72461  39.842  15.392   2.652
  846W        W72462  18.115  22.693   3.146
  847W        W72463  43.831  25.198   4.429
  848W        W72464   7.666  41.666   0.066
  849W        W72465  14.387  18.425  13.952
  850W        W72466  13.106  39.530   0.841
  851W        W72467  26.726  36.300  13.974
  852W        W72468  11.753  32.765  13.796
  853W        W72469  24.718   1.889   2.898
  854W        W72470  24.649   7.439  12.918
  855W        W72471  22.620  43.022   4.964
  856W        W72472  27.067   5.908  14.423
  857W        W72473  27.061  22.650   2.220
  858W        W72474   2.375   4.463  14.261
  859W        W72475  13.841  10.803  11.551
  860W        W72476  37.958  39.735   4.265
  861W        W72477  34.982  16.805  14.936
  862W        W72478  32.281   1.326   1.230
  863W        W72479   4.787   5.953   1.333
  864W        W72480   5.260  21.494  11.114
  865W        W72481  42.324  29.878   0.169
  866W        W72482   4.981  39.624  12.099
  867W        W72483  14.536  25.467   0.315
  868W        W72484   4.281  25.159   4.613
  869W        W72485  28.596  20.579   3.903
  870W        W72486   9.553   6.722  12.508
  871W        W72487  43.275  38.959  11.429
  872W        W72488   0.726  31.571  13.568
  873W        W72489  40.793  14.705  13.935
  874W        W72490  16.065  31.142  14.287
  875W        W72491  40.901   7.352  12.701
  876W        W72492  15.315   5.768   0.432
  877W        W72493  35.388   8.604   4.556
  878W        W72494  36.313  20.761  12.961
  879W        W72495   1.927   4.981   1.492
  880W        W72496  20.096  14.175   0.182
  881W        W72497  18.085  19.947   3.253
  882W        W72498  43.285   4.509  12.072
  883W        W72499   8.354   7.852   4.418
  884W        W72500  16.983  12.288   0.359
  885W        W72501  22.008  42.389   0.775
  886W        W72502  34.859  13.384  13.104
  887W        W72503  15.195  43.035  13.464
  888W        W72504   0.560  10.380  11.863
  889W        W72505  39.104  27.229  13.149
  890W        W72506  31.627  29.171   4.665
  891W        W72507  11.337  33.849  11.978
  892W        W72508   9.361  41.339  10.727
  893W        W72509  21.969   1.868   4.644
  894W        W72510   2.459  14.968   1.282
  895W        W72511   6.715   6.869   3.670
  896W        W72512  16.114  36.760  12.165
  897W        W72513   6.821  35.054   4.145
  898W        W72514   8.287  30.825  11.678
  899W        W72515  34.608   5.890  12.516
  900W        W72516  34.568  29.109   2.667
  901W        W72517  20.033   5.259   2.829
  902W        W72518  35.000  21.224  14.054
  903W        W72519  15.622  25.515  12.870
  904W        W72520  37.837  23.172   1.894
  905W        W72521  21.167  30.212   1.235
  906W        W72522   8.947  16.679   2.117
  907W        W72523   3.772  33.622   3.264
  908W        W72524  14.395  36.142   2.375
  909W        W72525   5.211  12.616   4.229
  910W        W72526  13.716  20.500  12.099
  911W        W72527  43.549  37.038   1.811
  912W        W72528  18.766  21.279  12.719
  913W        W72529  27.331  23.781  13.941
  914W        W72530   9.716   1.088  12.900
  915W        W72531   4.736  41.872   0.357
  916W        W72532  26.640  23.978   1.387
  917W        W72533   9.498  15.838  10.183
  918W        W72534  15.358  43.499   4.607
  919W        W72535  32.876  13.790  12.965
  920W        W72536  17.774  11.855  13.441
  921W        W72537  25.726  32.329  13.117
  922W        W72538  32.343  12.597   4.034
  923W        W72539  19.627  43.050  13.569
  924W        W72540  40.555  19.754  12.940
  925W        W72541  31.608  23.849   0.709
  926W        W72542  39.946  37.943   2.548
  927W        W72543  20.030  11.854   1.435
  928W        W72544  31.397  16.348   4.493
  929W        W72545  23.722  15.695  10.752
  930W        W72546  40.949  14.267  14.223
  931W        W72547   5.199   3.440  12.334
  932W        W72548  25.052  24.233  13.429
  933W        W72549  11.450  43.651  13.610
  934W        W72550  17.313  41.424   0.086
  935W        W72551   0.463   3.825  13.397
  936W        W72552  40.286   9.708  11.955
  937W        W72553  34.755  19.147   0.247
  938W        W72554   9.859  41.281  12.101
  939W        W72555  22.562  43.781   1.702
  940W        W72556  32.161  10.769  11.617
  941W        W72557  27.527  33.572   1.677
  942W        W72558  13.602   4.058   4.484
  943W        W72559  18.833  37.822  13.468
  944W        W72560  27.471  31.484  11.535
  945W        W72561  39.790   8.881  11.956
  946W        W72562  20.813  26.747  13.018
  947W        W72563  11.559  28.715   1.698
  948W        W72564  12.271  32.294  13.968
  949W        W72565  13.204  17.797   1.382
  950W        W72566  15.766  20.094   5.203
  951W        W72567  33.565  16.284   2.205
  952W        W72568  43.376  24.899  14.504
  953W        W72569   4.518  40.845   1.689
  954W        W72570  34.691  26.702   1.256
  955W        W72571  28.244  10.859   4.032
  956W        W72572  34.606  29.552  12.515
  957W        W72573  38.099  16.152  12.122
  958W        W72574  43.406  24.259   4.323
  959W        W72575   2.402  17.598  11.193
  960W        W72576  19.536  43.375  13.143
  961W        W72577  32.341  31.778  12.824
  962W        W72578  10.259  20.015  11.934
  963W        W72579   4.491  25.011   2.822
  964W        W72580   2.432  15.118   2.777
  965W        W72581  32.440  17.283   4.503
  966W        W72582  24.190  40.441  13.604
  967W        W72583  36.508  28.710  13.511
  968W        W72584   2.504  33.554  12.158
  969W        W72585  40.748   6.713   1.371
  970W        W72586  33.950  22.493  14.817
  971W        W72587  21.000  23.025   3.421
  972W        W72588  39.790  22.320   2.549
  973W        W72589   7.944  29.533  13.454
  974W        W72590  40.329  42.058  14.566
  975W        W72591  23.180  43.024   0.032
  976W        W72592  26.468   5.748  10.580
  977W        W72593  14.710  40.488   3.375
  978W        W72594   4.033  32.893  13.559
  979W        W72595  15.184  15.891   4.944
  980W        W72596   8.203  43.748  11.544
  981W        W72597   4.784  22.210  10.898
  982W        W72598  19.640  10.635   2.643
  983W        W72599  16.293  20.106  13.078
  984W        W72600   0.036  33.974   3.580
  985W        W72601  35.971   8.232   0.897
  986W        W72602  19.041  29.548  14.740
  987W        W72603  13.816  40.753  13.816
  988W        W72604  19.312  16.607   0.357
  989W        W72605  15.080  18.990  12.378
  990W        W72606  14.849  39.139  10.806
  991W        W72607  40.390   1.513  11.665
  992W        W72608  16.212  23.987  10.678
  993W        W72609  17.790  17.323   2.153
  994W        W72610  44.017  14.241  10.918
  995W        W72611  25.092  13.299  14.180
  996W        W72612  44.753   9.172  13.425
  997W        W72613   8.950  11.431   4.137
  998W        W72614  37.038   9.305  12.044
  999W        W72615  18.707  33.354   5.115
 1000W        W72616   9.439  32.545   2.919
 1001W        W72617  19.301  13.669   0.933
 1002W        W72618  35.506  18.538  13.543
 1003W        W72619   1.145  33.884   3.971
 1004W        W72620  16.823   4.243  10.647
 1005W        W72621   1.322   9.763   1.387
 1006W        W72622  14.623  12.248   4.154
 1007W        W72623  41.011  15.258   2.257
 1008W        W72624  10.540  38.560   2.715
 1009W        W72625  44.283   7.785   4.609
 1010W        W72626   2.714   4.864  11.606
 1011W        W72627  12.562   5.816  12.021
 1012W        W72628  26.708  21.301  11.826
 1013W        W72629  28.020  21.731  14.402
 1014W        W72630  32.322  22.192   0.164
 1015W        W72631   4.078  43.372  12.089
 1016W        W72632  24.748   6.382   2.153
 1017W        W72633   2.351  14.571  13.489
 1018W        W72634  24.987  24.073   1.841
 1019W        W72635  13.759  33.371   0.219
 1020W        W72636  22.982  29.084  12.809
 1021W        W72637  30.389  18.072  13.630
 1022W        W72638  12.326  15.820   2.274
 1023W        W72639  30.400   6.932   4.329
 1024W        W72640  31.166  44.949  10.300
 1025W        W72641  36.080  29.831  11.130
 1026W        W72642  36.951  38.028   1.273
 1027W        W72643   4.652  25.142   2.320
 1028W        W72644  21.484  21.620   0.060
 1029W        W72645  30.511   7.667   2.143
 1030W        W72646  13.392  24.426   0.655
 1031W        W72647  31.130  13.353  14.029
 1032W        W72648  38.017  29.757  10.751
 1033W        W72649  18.308  24.249   0.011
 1034W        W72650   0.848  11.116   3.404
 1035W        W72651  28.896   7.779   2.979
 1036W        W72652  33.342  24.381  11.629
 1037W        W72653   5.984   4.998  12.506
 1038W        W72654  42.987  30.119   1.611
 1039W        W72655  10.186  22.716  14.329
 1040W        W72656  23.232  12.290  10.620
 1041W        W72657  31.815   5.843  12.996
 1042W        W72658   7.753   2.322   4.551
 1043W        W72659  13.715  42.510   0.759
 1044W        W72660   8.018  17.273   5.059
 1045W        W72661  19.689  24.977  12.685
 1046W        W72662   9.058  15.579   3.146
 1047W        W72663  41.466   4.318   4.901
 1048W        W72664  19.658   2.809   0.398
 1049W        W72665  28.893  37.573  12.070
 1050W        W72666   1.245  39.622   3.257
 1051W        W72667  18.211  28.994   0.770
 1052W        W72668  40.980  42.870  12.909
 1053W        W72669  36.103   9.402  10.613
 1054W        W72670  25.970  11.300   4.188
 1055W        W72671  34.156  24.636   1.910
 1056W        W72672  39.406  25.171   0.649
 1057W        W72673  11.541  17.595  11.262
 1058W        W72674  32.094  38.598   1.873
 1059W        W72675  36.958  24.120   4.584
 1060W        W72676   5.479  33.598  14.784
 1061W        W72677  41.490  43.953   4.167
 1062W        W72678  42.080  14.895  12.592
 1063W        W72679   6.791  41.224   3.749
 1064W        W72680  11.490  41.941  12.923
 1065W        W72681  40.171  27.056  11.563
 1066W        W72682  16.666  38.661   2.231
 1067W        W72683  35.274  24.721   0.713
 1068W        W72684   4.817  15.642  13.488
 1069W        W72685  43.748  29.601   2.203
 1070W        W72686  36.399  41.498  11.430
 1071W        W72687  38.559   7.434  13.505
 1072W        W72688   9.811  26.872   2.984
 1073W        W72689  26.082  27.430  14.611
 1074W        W72690  23.216  36.559   1.245
 1075W        W72691  28.672  38.510  13.023
 1076W        W72692  36.517  27.147  13.957
 1077W        W72693  23.369  28.076   4.151
 1078W        W72694   2.634  23.432  11.034
 1079W        W72695   3.293  41.592   4.549
 1080W        W72696  43.349  25.399   1.335
 1081W        W72697  24.543  36.351  12.388
 1082W        W72698  15.439  27.792  14.429
 1083W        W72699  43.325  42.499   4.788
 1084W        W72700  25.070  23.459  10.789
 1085W        W72701   8.453  31.918  11.638
 1086W        W72702  43.427  37.710   5.021
 1087W        W72703  17.064  15.216  12.001
 1088W        W72704  25.032   1.479   2.709
 1089W        W72705  25.590  30.955  12.964
 1090W        W72706  18.773  39.975  11.848
 1091W        W72707   2.939  39.315  11.672
 1092W        W72708  21.069  10.827  14.858
 1093W        W72709  21.989  32.292   4.623
 1094W        W72710  35.653  44.166   2.075
 1095W        W72711  35.867   1.774   2.331
 1096W        W72712  12.663  20.067   3.733
 1097W        W72713  32.112  20.881  10.625
 1098W        W72714  33.890  44.197   3.475
 1099W        W72715   6.994  32.813  14.364
 1100W        W72716  44.788  36.783  11.009
 1101W        W72717   7.624  26.765  14.001
 1102W        W72718  15.328  16.557  13.858
 1103W        W72719  32.378   7.347   0.578
 1104W        W72720  15.281  41.602  13.507
 1105W        W72721  24.020  31.079  11.349
 1106W        W72722  31.682  42.661  14.343
 1107W        W72723  10.905  19.520   0.785
 1108W        W72724   6.392  27.183  12.445
 1109W        W72725  16.784   8.061   4.039
 1110W        W72726   6.192  25.481   1.103
 1111W        W72727  41.759   1.404  12.151
 1112W        W72728   5.094  25.519   3.728
 1113W        W72729   6.363  17.357   0.907
 1114W        W72730  32.955  19.295   2.424
 1115W        W72731  22.061  31.763   2.964
 1116W        W72732   3.402  34.666  11.455
 1117W        W72733   9.415  24.555   4.045
 1118W        W72734  37.339  31.585   3.962
 1119W        W72735  21.583   1.432   0.208
 1120W        W72736   7.487  34.369  13.894
 1121W        W72737  44.398  33.349  12.862
 1122W        W72738  16.120  29.476  14.334
 1123W        W72739   7.280  11.149  10.706
 1124W        W72740  34.184  32.588   2.672
 1125W        W72741  13.660   4.232   1.834
 1126W        W72742  38.391   9.724   3.866
 1127W        W72743  44.552   8.830  12.010
 1128W        W72744   7.742   7.563  13.854
 1129W        W72745   2.764  40.056   4.096
 1130W        W72746   0.431  43.983   2.586
 1131W        W72747   1.014  26.150  10.590
 1132W        W72748  26.919  32.514  10.879
 1133W        W72749  10.841  17.798  11.502
 1134W        W72750  21.269   0.398  11.288
 1135W        W72751  40.060  11.820  13.070
 1136W        W72752  35.614  35.308   4.526
 1137W        W72753  44.808  40.917  12.068
 1138W        W72754  40.141  28.282  14.781
 1139W        W72755  41.960  12.381  10.551
 1140W        W72756  29.798  15.770   0.336
 1141W        W72757   8.278  29.070  11.419
 1142W        W72758   4.281  42.868   1.248
 1143W        W72759  11.081   8.426   0.960
 1144W        W72760   7.888  27.085  11.078
 1145W        W72761   3.603  14.961  13.557
 1146W        W72762  16.789  37.301  12.419
 1147W        W72763  24.076  13.143   4.296
 1148W        W72764  21.008  37.990   2.278
 1149W        W72765  22.776  38.510   1.321
 1150W        W72766  35.906  28.610  11.566
 1151W        W72767  21.934  39.008   2.775
 1152W        W72768   0.936  12.852  14.838
 1153W        W72769  43.404   0.853  10.309
 1154W        W72770  43.730  12.256  13.891
 1155W        W72771  23.686  15.525  14.926
 1156W        W72772   3.372  17.937  14.977
 1157W        W72773   1.343   7.558   4.579
 1158W        W72774  40.335  35.056  12.014
 1159W        W72775  17.102  14.210  14.422
 1160W        W72776  18.887  14.346  11.578
 1161W        W72777  43.844   9.243   4.792
 1162W        W72778  32.508  42.787   3.459
 1163W        W72779   2.728  36.101  13.801
 1164W        W72780  18.743  43.197  12.543
 1165W        W72781  43.051   2.864  14.391
 1166W        W72782  14.820   9.950  13.428
 1167W        W72783  31.068  28.602   0.734
 1168W        W72784  16.137  18.260  11.001
 1169W        W72785   4.776  33.677  11.695
 1170W        W72786  12.252  21.257  13.057
 1171W        W72787   6.933  39.525   2.746
 1172W        W72788  39.563  28.114  13.082
 1173W        W72789  41.555  11.247  12.100
 1174W        W72790  13.880  20.748  11.152
 1175W        W72791   3.841   4.239   1.693
 1176W        W72792  19.081  43.921   4.101
 1177W        W72793  13.459  10.487   3.054
 1178W        W72794  31.109   5.873  10.505
 1179W        W72795  24.045  16.100   2.423
 1180W        W72796  18.389  15.159  11.465
 1181W        W72797  22.796  34.451   4.184
 1182W        W72798  37.450  13.634   4.161
 1183W        W72799  39.409  14.404  14.317
 1184W        W72800   7.149  33.400   4.672
 1185W        W72801   4.730  12.755   4.666
 1186W        W72802  40.425  18.923  13.918
 1187W        W72803  14.356  37.087  11.067
 1188W        W72804  38.088   1.205  12.112
 1189W        W72805  30.545  27.587  10.252
 1190W        W72806  32.134   7.976   3.593
 1191W        W72807  37.434   1.258   0.317
 1192W        W72808  40.978   3.308   4.591
 1193W        W72809   3.755   8.188   4.338
 1194W        W72810  30.608  34.433   1.742
 1195W        W72811  30.133  18.560  13.016
 1196W        W72812  30.957   4.490   4.590
 1197W        W72813   5.322  12.513   0.736
 1198W        W72814  34.234   6.563  11.958
 1199W        W72815  25.164  29.578   3.722
 1200W        W72816   7.185  31.102   1.922
 1201W        W72817  41.403   3.239  14.027
 1202W        W72818  17.309  24.076   2.892
 1203W        W72819  22.736  40.242   0.258
 1204W        W72820  31.044   0.020   1.342
 1205W        W72821  23.619  23.092   4.495
 1206W        W72822   4.924  32.119  13.603
 1207W        W72823  29.761  21.720   2.776
 1208W        W72824  27.160  21.308  12.065
 1209W        W72825  29.795  30.777   2.812
 1210W        W72826  22.024  16.726  14.291
 1211W        W72827   8.206  36.828  13.429
 1212W        W72828  10.738  42.944   2.671
 1213W        W72829  13.347  13.286   2.652
 1214W        W72830  33.391  44.482   0.912
 1215W        W72831  36.761  44.738   0.792
 1216W        W72832   4.216  24.115  13.461
 1217W        W72833  35.911   0.657   3.569
 1218W        W72834  22.186  33.508  13.109
 1219W        W72835  21.020   4.630  12.873
 1220W        W72836  11.787  35.178   0.393
 1221W        W72837   3.144  44.990  10.636
 1222W        W72838  24.195   2.883  11.861
 1223W        W72839   3.982  29.581  11.301
 1224W        W72840  40.513   1.404   2.872
 1225W        W72841   6.920   1.322   4.691
 1226W        W72842  27.942  31.996   0.684
 1227W        W72843   2.699  31.029  11.967
 1228W        W72844  21.908   2.216  12.486
 1229W        W72845   6.369   7.955   3.889
 1230W        W72846  26.952  28.053  12.152
 1231W        W72847  20.541  25.125  11.521
 1232W        W72848  39.950  11.099   2.901
 1233W        W72849  18.602   7.193  14.317
 1234W        W72850  40.471  23.031   4.117
 1235W        W72851  34.891  36.454  10.740
 1236W        W72852  33.130  25.134  10.985
 1237W        W72853   6.334  29.430  13.944
 1238W        W72854  19.788  14.187   3.800
 1239W        W72855  18.273  38.222  14.952
 1240W        W72856  28.113  16.379  12.455
 1241W        W72857   3.386  18.803   1.307
 1242W        W72858   2.919   7.922   0.620
 1243W        W72859  26.614  16.687   3.113
 1244W        W72860  38.085  11.268   1.167
 1245W        W72861   9.506  23.435  13.616
 1246W        W72862   3.426  34.299  11.784
 1247W        W72863  38.968  39.306   1.853
 1248W        W72864  33.658   5.544  11.132
 1249W        W72865  26.152  41.420  11.924
 1250W        W72866  38.932  29.741   2.230
 1251W        W72867  26.759  13.044   0.369
 1252W        W72868  22.278   9.201  11.075
 1253W        W72869  34.917  35.803  13.738
 1254W        W72870  20.988  31.574   1.443
 1255W        W72871  31.888  12.337  10.592
 1256W        W72872  41.989  38.551   4.567
 1257W        W72873  39.426  15.097  14.724
 1258W        W72874  20.435  19.167   0.714
 1259W        W72875  15.636  34.383  10.620
 1260W        W72876  39.759  13.273  11.041
 1261W        W72877  31.660  43.290   3.832
 1262W        W72878  33.294  30.201   2.753
 1263W        W72879   4.542  17.247   3.250
 1264W        W72880  24.365  38.623  13.872
 1265W        W72881  44.972   4.183   0.854
 1266W        W72882  16.935   5.261  11.631
 1267W        W72883  28.053   2.164  13.533
 1268W        W72884   4.666  43.692   3.789
 1269W        W72885  12.030  32.677   4.115
 1270W        W72886   0.458  16.643   4.078
 1271W        W72887  24.705   7.328   1.744
 1272W        W72888  22.073  15.732  13.818
 1273W        W72889   2.714  29.590   3.228
 1274W        W72890  36.738  12.681  11.670
 1275W        W72891  43.463   4.785   3.711
 1276W        W72892  28.589  23.623   2.514
 1277W        W72893  37.407  29.683  13.847
 1278W        W72894   2.403  40.358  14.864
 1279W        W72895  41.403  28.701  10.740
 1280W        W72896  38.934   9.715   3.131
 1281W        W72897  42.806  19.926  13.062
 1282W        W72898  37.581   5.225   0.371
 1283W        W72899  20.640   0.192  10.688
 1284W        W72900  31.112  21.305   1.248
 1285W        W72901  24.070  13.119  14.930
 1286W        W72902  38.838  10.114  13.530
 1287W        W72903  14.819  21.208  14.872
 1288W        W72904  21.557  38.657  13.874
 1289W        W72905  31.685  28.816  14.913
 1290W        W72906  14.194  41.761   0.877
 1291W        W72907  26.065   9.149   5.034
 1292W        W72908  28.618  32.935  12.913
 1293W        W72909  43.535  24.046   2.694
 1294W        W72910  10.546  37.079  10.976
 1295W        W72911   6.710  26.664  13.400
 1296W        W72912   2.706  33.048  12.018
 1297W        W72913  31.155  41.437  13.970
 1298W        W72914   9.845  35.109  12.980
 1299W        W72915  21.474  28.060   2.165
 1300W        W72916  20.792  43.481   1.357
 1301W        W72917  15.092   6.441  10.583
 1302W        W72918  25.083   7.433  12.009
 1303W        W72919  33.712  10.253   9.712
 1304W        W72920  25.648  10.337  11.538
 1305W        W72921  36.112  40.956   0.945
 1306W        W72922  33.581   6.899  12.922
 1307W        W72923  42.345   5.815  13.318
 1308W        W72924  25.272  12.201   4.166
 1309W        W72925  16.654  23.750  14.929
 1310W        W72926  31.615  21.053  10.665
 1311W        W72927  16.486  21.046  11.535
 1312W        W72928  42.567  33.429   2.320
 1313W        W72929   5.517  44.970   2.323
 1314W        W72930  17.966  33.507   0.391
 1315W        W72931  19.808  24.524   2.183
 1316W        W72932  17.565  27.870   2.785
 1317W        W72933  18.729  10.191   3.995
 1318W        W72934  37.787   9.078  12.443
 1319W        W72935  34.336   0.598   2.819
 1320W        W72936  34.807  11.778   4.956
 1321W        W72937  26.418  14.266   1.716
 1322W        W72938  13.312  44.433   0.882
 1323W        W72939  37.915  18.592  11.114
 1324W        W72940  21.470  40.855   3.158
 1325W        W72941  22.596  44.409   5.061
 1326W        W72942  26.967  43.548   4.296
 1327W        W72943  17.274  30.013   0.724
 1328W        W72944  27.997   1.770   3.135
 1329W        W72945  21.933  18.585  13.936
 1330W        W72946  37.378  11.823   3.812
 1331W        W72947  25.061  41.748  13.900
 1332W        W72948  29.644  42.921   3.192
 1333W        W72949  19.772  37.032   4.173
 1334W        W72950   7.467  27.138   1.839
 1335W        W72951  37.471  35.350  12.069
 1336W        W72952  16.981  32.510   4.616
 1337W        W72953   2.864  43.573  12.617
 1338W        W72954  37.467  38.828   4.468
 1339W        W72955  27.256  11.354   0.226
 1340W        W72956  39.438  22.201  13.395
 1341W        W72957  23.620  33.557   0.456
 1342W        W72958  27.973   3.860   0.332
 1343W        W72959   6.872  28.453   1.120
 1344W        W72960  18.100  38.332   3.266
 1345W        W72961  23.488  42.687  11.568
 1346W        W72962  17.064   0.733   4.490
 1347W        W72963   1.491  44.924  12.877
 1348W        W72964  44.901  11.878   2.253
 1349W        W72965  10.410  13.402  14.140
 1350W        W72966  40.566  29.752   0.310
 1351W        W72967  41.370   8.950   4.233
 1352W        W72968  32.460  21.120   0.754
 1353W        W72969   5.641  36.416   2.970
 1354W        W72970  14.127  23.455   4.776
 1355W        W72971  17.228  18.731   2.700
 1356W        W72972  15.225  34.029   1.893
 1357W        W72973  23.765  43.303   2.733
 1358W        W72974  18.907  38.793   3.344
 1359W        W72975  19.566   0.724  10.587
 1360W        W72976  31.101  18.139   0.834
 1361W        W72977  33.391  25.048  13.424
 1362W        W72978  12.201  42.899  14.779
 1363W        W72979  38.379   5.625   0.916
 1364W        W72980  16.693  14.158   2.926
 1365W        W72981  15.319  35.290   1.899
 1366W        W72982   5.566   4.210  13.524
 1367W        W72983  14.988  25.685   0.163
 1368W        W72984  21.915   6.932   2.294
 1369W        W72985   6.963  16.286  12.489
 1370W        W72986  23.490   8.274  14.328
 1371W        W72987  39.871   3.187  13.575
 1372W        W72988  37.906  30.864   1.883
 1373W        W72989   0.809  23.614  12.337
 1374W        W72990  37.308  42.788   0.807
 1375W        W72991  36.009  23.525  14.407
 1376W        W72992  10.260   2.821   4.407
 1377W        W72993  28.259   1.489   3.490
 1378W        W72994  29.311  23.160   2.653
 1379W        W72995  29.579  31.041   0.814
 1380W        W72996   4.689  29.065  12.384
 1381W        W72997  15.447   2.042   5.042
 1382W        W72998  26.891  22.716   1.141
 1383W        W72999  39.408  40.606  14.799
 1384W        W73000   5.340  37.357   0.385
 1385W        W73001  10.728  13.335  11.671
 1386W        W73002  35.316  41.971   4.659
 1387W        W73003  16.920   4.746   4.544
 1388W        W73004  27.122   9.722   3.210
 1389W        W73005   3.968   0.347   1.971
 1390W        W73006  13.732  18.706  12.636
 1391W        W73007  35.400  21.567   0.829
 1392W        W73008  31.882  18.330  10.820
 1393W        W73009  31.125   5.133  11.105
 1394W        W73010  16.824  28.476  12.651
 1395W        W73011  15.558   0.888  12.436
 1396W        W73012   3.833  28.460  13.341
 1397W        W73013  40.879  44.928  12.863
 1398W        W73014  13.256   8.734  10.320
 1399W        W73015   3.937  15.639   3.166
 1400W        W73016   4.730  14.683   4.121
 1401W        W73017   5.292  31.836  12.404
 1402W        W73018  14.858   3.957   2.702
 1403W        W73019  44.992  23.978   1.236
 1404W        W73020   9.767  15.376   3.808
 1405W        W73021  29.134  38.945  12.588
 1406W        W73022  25.582  23.051  12.072
 1407W        W73023  19.856   8.054   2.238
 1408W        W73024  40.198  16.535   2.278
 1409W        W73025  19.508  42.893   9.742
 1410W        W73026  41.725  37.385   4.153
 1411W        W73027  30.506  17.888  10.511
 1412W        W73028  22.129  21.147  10.671
 1413W        W73029  32.545  42.266  12.042
 1414W        W73030   6.271  41.311  13.856
 1415W        W73031  30.455   8.942  12.605
 1416W        W73032  20.664  35.403  13.890
 1417W        W73033   6.229  32.215   2.650
 1418W        W73034  43.120  18.209  14.531
 1419W        W73035  13.309   6.648   0.511
 1420W        W73036  41.758  13.853  14.913
 1421W        W73037  40.497  38.780  13.511
 1422W        W73038  27.131   0.439  10.749
 1423W        W73039  14.250  23.099   0.443
 1424W        W73040  10.308   9.312   1.437
 1425W        W73041  20.706  12.123   4.128
 1426W        W73042   0.798  24.282  11.040
 1427W        W73043  15.816   3.257   2.918
 1428W        W73044  13.235  21.073  13.640
 1429W        W73045  41.910   3.149  11.075
 1430W        W73046  35.153  38.924   4.535
 1431W        W73047  13.079  21.026   9.829
 1432W        W73048  28.059  41.531   1.345
 1433W        W73049  22.381  42.992  12.403
 1434W        W73050  38.748  38.047   4.446
 1435W        W73051  13.413  33.305  12.525
 1436W        W73052  26.624  14.194  14.102
 1437W        W73053   7.152  35.448  12.475
 1438W        W73054  38.443   1.262  10.653
 1439W        W73055  44.913  42.302   1.405
 1440W        W73056   5.495  18.671  12.452
 1441W        W73057  29.947  40.863   1.967
 1442W        W73058  12.283  29.167   2.438
 1443W        W73059  40.177   2.634   0.035
 1444W        W73060  16.679  41.276  11.636
 1445W        W73061  40.402  44.819  13.241
 1446W        W73062  24.017  41.018   3.351
 1447W        W73063  13.631  37.778   2.035
 1448W        W73064  40.615  12.153   2.270
 1449W        W73065  15.666  14.103   2.008
 1450W        W73066  24.590  22.738  14.424
 1451W        W73067  17.064  19.811  12.155
 1452W        W73068  26.606  38.759   4.312
 1453W        W73069  42.116  35.412  11.927
 1454W        W73070  19.723  30.058  11.567
 1455W        W73071  16.276  35.433   4.649
 1456W        W73072  37.452   1.502  12.906
 1457W        W73073  36.039  31.870  12.116
 1458W        W73074  38.316  36.337   3.064
 1459W        W73075   7.251  21.801   0.555
 1460W        W73076  38.548  21.336  12.888
 1461W        W73077  36.230  35.478  12.082
 1462W        W73078  30.201  30.670   4.405
 1463W        W73079  10.594   8.112  12.098
 1464W        W73080   6.719  32.436  11.257
 1465W        W73081   6.772  31.472  14.809
 1466W        W73082  26.495  26.169   3.935
 1467W        W73083  34.155  25.991  11.590
 1468W        W73084  41.394  37.008   3.886
 1469W        W73085  35.199  19.255   1.669
 1470W        W73086  16.343  38.030  12.869
 1471W        W73087  40.230   6.746   1.381
 1472W        W73088  41.366   8.782  14.254
 1473W        W73089   8.722  40.347   3.283
 1474W        W73090  30.657  27.096   1.467
 1475W        W73091  24.444  32.036  11.518
 1476W        W73092  40.812   9.328   0.775
 1477W        W73093  13.122   8.847   1.865
 1478W        W73094  17.270  32.846  11.966
 1479W        W73095  10.391  38.276  14.032
 1480W        W73096   0.752  16.878  11.577
 1481W        W73097  35.914  25.963  13.958
 1482W        W73098  34.439  14.671   3.260
 1483W        W73099  39.867  40.098   4.163
 1484W        W73100  34.987  36.531   2.191
 1485W        W73101  22.646   6.832   4.563
 1486W        W73102  37.520  15.124  14.025
 1487W        W73103  34.034   3.607   3.691
 1488W        W73104  43.990  14.875  13.947
 1489W        W73105  18.045  26.958  14.017
 1490W        W73106  34.367  40.399   3.311
 1491W        W73107  20.683   4.683   1.415
 1492W        W73108  40.333  35.153  10.758
 1493W        W73109  15.050  26.099   4.028
 1494W        W73110  31.228  44.513   0.544
 1495W        W73111  30.532  22.350   3.628
 1496W        W73112  14.586  41.443   0.737
 1497W        W73113  40.905   9.432  10.495
 1498W        W73114  22.553   8.582  12.056
 1499W        W73115  35.523  24.989  11.950
 1500W        W73116  30.044  24.552  10.642
 1501W        W73117   0.213   6.810   2.716
 1502W        W73118  32.102  32.360   0.682
 1503W        W73119   0.036  37.699   9.761
 1504W        W73120  13.216   2.242   4.128
 1505W        W73121  20.173  36.180  14.012
 1506W        W73122  30.066  29.939  10.218
 1507W        W73123  20.985  16.658  12.167
 1508W        W73124  39.424  27.943   1.289
 1509W        W73125  14.067  40.410   2.364
 1510W        W73126  23.349   7.289  14.899
 1511W        W73127  44.473  42.499  11.524
 1512W        W73128  18.613  14.914   4.400
 1513W        W73129   0.780   7.721   1.331
 1514W        W73130  32.999  44.683   4.115
 1515W        W73131  43.411  10.361   4.823
 1516W        W73132  17.546  23.298   1.906
 1517W        W73133  24.654  36.180   3.269
 1518W        W73134  28.064  28.199  12.464
 1519W        W73135  32.050  34.777  13.296
 1520W        W73136  20.480  39.294   0.771
 1521W        W73137  18.164  28.539   0.462
 1522W        W73138   7.401   5.618  13.291
 1523W        W73139  41.630  15.730   0.897
 1524W        W73140  36.353   4.349  12.469
 1525W        W73141  19.263   5.382   1.458
 1526W        W73142   3.631  44.534  13.504
 1527W        W73143  34.706   1.902   0.781
 1528W        W73144  34.560  11.539   3.249
 1529W        W73145  41.591   5.232  11.540
 1530W        W73146   7.783  29.710  10.776
 1531W        W73147  19.243  32.537  12.476
 1532W        W73148  31.477  28.668   0.395
 1533W        W73149  22.648  41.963  14.896
 1534W        W73150  35.004  16.556   1.357
 1535W        W73151  25.252  24.147   0.954
 1536W        W73152  22.447  25.093  13.509
 1537W        W73153   4.988  44.035  12.916
 1538W        W73154  29.125  27.195   3.387
 1539W        W73155  21.432  36.889   2.242
 1540W        W73156   3.652  10.816  13.641
 1541W        W73157   4.434  42.586  11.131
 1542W        W73158   6.474   5.524  11.108
 1543W        W73159  24.621   9.296   2.655
 1544W        W73160  40.329   7.321  14.998
 1545W        W73161  22.031  16.526   1.319
 1546W        W73162  22.496  29.343   2.306
 1547W        W73163   3.341  33.910   0.507
 1548W        W73164  10.793  13.161   2.244
 1549W        W73165   7.741  34.529   4.318
 1550W        W73166  22.726  35.168   0.079
 1551W        W73167   9.916   6.904  14.747
 1552W        W73168  26.178  25.995  10.635
 1553W        W73169   8.142  22.190   1.706
 1554W        W73170  29.471  38.909  14.998
 1555W        W73171   0.044   3.185  10.537
 1556W        W73172  31.945  43.786   5.029
 1557W        W73173  22.173  19.082  12.494
 1558W        W73174   4.595   6.175   2.731
 1559W        W73175   0.390  33.438  11.153
 1560W        W73176   5.400   8.906   2.697
 1561W        W73177  15.543  41.452   1.220
 1562W        W73178  23.546  25.653  12.083
 1563W        W73179  40.761  21.082   3.632
 1564W        W73180  34.872   1.940   4.110
 1565W        W73181  25.014   8.963   2.813
 1566W        W73182  37.920   0.292  14.997
 1567W        W73183   3.218  13.806  12.449
 1568W        W73184  24.722  17.693   0.230
 1569W        W73185  32.574  36.216  12.668
 1570W        W73186  18.963   8.204  11.926
 1571W        W73187  37.759  32.319   4.105
 1572W        W73188  29.546   0.938   2.828
 1573W        W73189   4.477  41.736   2.896
 1574W        W73190   3.411  38.020  14.286
 1575W        W73191  27.072  31.514   1.509
 1576W        W73192   2.388  25.135  13.014
 1577W        W73193  34.847  44.493   5.025
 1578W        W73194   3.514  35.174   2.814
 1579W        W73195  15.639  33.139  13.439
 1580W        W73196  41.039   0.234  13.776
 1581W        W73197  17.511  34.627  11.086
 1582W        W73198  44.757  21.181   4.466
 1583W        W73199  18.029  17.723  11.375
 1584W        W73200  31.436  26.942  12.953
 1585W        W73201  11.192  11.771   2.713
 1586W        W73202  42.935   7.535  12.058
 1587W        W73203   0.280  25.871   4.596
 1588W        W73204  33.684  17.133   2.764
 1589W        W73205  19.572  15.331   2.413
 1590W        W73206   0.810  12.097  10.677
 1591W        W73207   3.871   7.982   1.771
 1592W        W73208   4.469  15.133  11.545
 1593W        W73209   0.004  24.441  14.995
 1594W        W73210  29.965  13.840   0.761
 1595W        W73211  31.217   4.877   4.106
 1596W        W73212  14.869  26.609   2.053
 1597W        W73213  13.976   8.103  11.104
 1598W        W73214  10.232  30.702   0.888
 1599W        W73215  16.646  19.808  14.334
 1600W        W73216  18.324  42.451  14.779
 1601W        W73217  32.567  12.294   2.290
 1602W        W73218  19.281  24.758  13.026
 1603W        W73219  20.010  26.100  13.861
 1604W        W73220  24.407  40.269  14.041
 1605W        W73221   3.728  28.754   0.434
 1606W        W73222  30.952  26.720   0.905
 1607W        W73223  34.485  38.052   0.000
 1608W        W73224  37.077  31.246   3.315
 1609W        W73225  41.906  11.299  10.650
 1610W        W73226  14.275   2.685   1.774
 1611W        W73227  40.710  10.573   2.246
 1612W        W73228   6.329  34.121   1.381
 1613W        W73229  29.938  12.229   0.710
 1614W        W73230  38.431   0.291  13.810
 1615W        W73231   8.624  28.877   0.754
 1616W        W73232  32.688   3.819  12.189
 1617W        W73233  22.246  13.732   4.527
 1618W        W73234  21.010   4.298  11.891
 1619W        W73235  20.705  16.088  13.396
 1620W        W73236  27.628  39.301   2.768
 1621W        W73237  29.237   1.428  12.047
 1622W        W73238  37.289  20.035  12.868
 1623W        W73239  40.434  18.269   2.758
 1624W        W73240  10.100  38.252   0.452
 1625W        W73241   9.223  43.937   0.534
 1626W        W73242  17.987  39.568  14.965
 1627W        W73243   9.849  22.304   0.187
 1628W        W73244  19.024  35.578   2.381
 1629W        W73245  15.101  18.262   4.568
 1630W        W73246  25.138  34.109   2.752
 1631W        W73247  19.757  21.572   0.598
 1632W        W73248  12.715  30.652   4.598
 1633W        W73249   7.862   8.294  12.315
 1634W        W73250  15.764  20.999  13.965
 1635W        W73251  22.827  26.591   4.649
 1636W        W73252  41.707   6.727   3.284
 1637W        W73253  10.057  25.726  14.307
 1638W        W73254  13.311  20.234  13.227
 1639W        W73255  10.415  40.892   1.925
 1640W        W73256  33.043  40.093   0.883
 1641W        W73257   2.547  34.470   1.352
 1642W        W73258  37.891   0.012   0.427
 1643W        W73259  23.533  17.211  12.206
 1644W        W73260  12.633   9.420   2.279
 1645W        W73261   0.149  26.555   4.589
 1646W        W73262  41.133   0.649  12.266
 1647W        W73263  23.816  11.047  12.238
 1648W        W73264  17.013  12.621  10.992
 1649W        W73265  20.126  26.533   4.498
 1650W        W73266  29.110  11.696   1.926
 1651W        W73267  26.467  43.273  12.047
 1652W        W73268  33.619  18.191  14.613
 1653W        W73269  10.575  32.089   1.443
 1654W        W73270   1.925  42.886   4.241
 1655W        W73271  41.614  24.512   2.179
 1656W        W73272  30.625  36.452  10.659
 1657W        W73273   2.772  42.262   3.122
 1658W        W73274  12.121  29.497  14.972
 1659W        W73275  30.396   5.098  13.842
 1660W        W73276  42.564  25.989   4.071
 1661W        W73277   6.595  16.227   2.632
 1662W        W73278  35.342  23.719   2.332
 1663W        W73279   4.770  18.822   3.635
 1664W        W73280  30.048  37.661   0.959
 1665W        W73281  39.994  10.075   4.738
 1666W        W73282  14.349   2.463  12.800
 1667W        W73283  27.594  28.958   3.834
 1668W        W73284  26.112  10.442   2.476
 1669W        W73285  11.693  24.751  10.285
 1670W        W73286  38.947  43.521   1.356
 1671W        W73287  33.692  37.056  14.327
 1672W        W73288   4.548  11.341   3.249
 1673W        W73289   0.050  30.553   0.892
 1674W        W73290  16.807  42.495   0.806
 1675W        W73291  38.410  30.997   4.915
 1676W        W73292   6.826  10.920  13.036
 1677W        W73293  36.379  25.445   1.846
 1678W        W73294   1.357  16.273   2.200
 1679W        W73295  36.060  22.854   3.152
 1680W        W73296  18.846   6.200  14.448
 1681W        W73297   5.670  38.516  13.927
 1682W        W73298   9.321  28.650  14.467
 1683W        W73299  22.735  37.854  12.931
 1684W        W73300  12.773  43.695  13.450
 1685W        W73301  18.315  24.435   4.140
 1686W        W73302  42.646  28.738  13.218
 1687W        W73303  15.303  23.191  12.494
 1688W        W73304   6.453  43.342  12.422
 1689W        W73305  37.110  32.989  11.561
 1690W        W73306  38.752  32.001   4.125
 1691W        W73307  12.873   4.871   3.781
 1692W        W73308  12.603   3.408   4.330
 1693W        W73309  17.461  19.157   1.918
 1694W        W73310  42.283  44.112   4.477
 1695W        W73311  11.195  44.293   4.099
 1696W        W73312  22.954  27.564  12.046
 1697W        W73313  39.364  16.063  13.576
 1698W        W73314   0.401  37.193   1.641
 1699W        W73315   4.655   3.237  11.171
 1700W        W73316  37.671  31.743  13.970
 1701W        W73317  14.275   8.456  12.027
 1702W        W73318   6.445  22.965   2.709
 1703W        W73319   1.262   3.189   4.760
 1704W        W73320  13.239  26.091  14.879
 1705W        W73321  10.760  31.032  14.591
 1706W        W73322  22.577  41.055   3.276
 1707W        W73323   7.570  20.907   4.263
 1708W        W73324  33.973   7.164  13.608
 1709W        W73325  31.097  30.609   1.822
 1710W        W73326   5.083  44.215  10.173
 1711W        W73327  33.086  30.954   2.400
 1712W        W73328   4.783  25.435   4.127
 1713W        W73329  20.245  43.211   0.008
 1714W        W73330  43.789   2.362   4.694
 1715W        W73331  19.812  34.570  10.693
 1716W        W73332  37.749  27.137  14.410
 1717W        W73333  36.679  29.321   3.258
 1718W        W73334  13.100  27.511   3.189
 1719W        W73335  29.917  34.930  10.798
 1720W        W73336  10.839  42.608   0.541
 1721W        W73337  11.667   0.855   0.836
 1722W        W73338  17.660  41.019  14.675
 1723W        W73339  33.613   4.121   3.285
 1724W        W73340  44.513  38.837  12.063
 1725W        W73341  33.919  39.028   0.470
 1726W        W73342   7.698  11.877  12.517
 1727W        W73343   3.874  25.758   3.119
 1728W        W73344  16.693  15.186   4.118
 1729W        W73345  23.989   4.147  14.984
 1730W        W73346  29.055  20.013  14.704
 1731W        W73347  24.088   5.232  13.784
 1732W        W73348  20.816  29.983  12.015
 1733W        W73349   7.443  22.564  13.532
 1734W        W73350  41.539   3.647   3.051
 1735W        W73351   3.328  44.910   1.330
 1736W        W73352  40.059   8.300  13.046
 1737W        W73353  30.709   7.493  14.910
 1738W        W73354   7.938  11.255   4.846
 1739W        W73355  29.995   5.414  14.061
 1740W        W73356   3.248  40.595   1.805
 1741W        W73357  14.676   1.974   3.001
 1742W        W73358  29.629  28.439   5.197
 1743W        W73359  33.693  36.882   0.394
 1744W        W73360  11.185  20.094  13.902
 1745W        W73361  26.221  14.465   4.138
 1746W        W73362  39.340  18.736  12.081
 1747W        W73363   3.783  32.676   3.143
 1748W        W73364  15.520  19.449   2.117
 1749W        W73365   9.228  41.625  12.566
 1750W        W73366   4.788  43.170   5.494
 1751W        W73367   1.630  19.295  12.975
 1752W        W73368  44.806  30.615  14.516
 1753W        W73369  37.585  14.555  13.519
 1754W        W73370   1.996  36.259   3.724
 1755W        W73371  24.157   1.071  14.198
 1756W        W73372  44.262   2.169  11.100
 1757W        W73373  11.685   3.348  14.909
 1758W        W73374  42.407   1.670   0.329
 1759W        W73375  10.740  16.738   0.333
 1760W        W73376  29.125  26.118  14.432
 1761W        W73377  32.205  14.497   0.065
 1762W        W73378   0.964  30.969  13.485
 1763W        W73379  28.137  19.144   3.935
 1764W        W73380  15.351  28.402  10.530
 1765W        W73381  32.472  38.093   4.427
 1766W        W73382  35.588  13.715  14.401
 1767W        W73383  15.131  29.483  13.864
 1768W        W73384  28.005  43.292   2.465
 1769W        W73385  44.285  39.205  12.932
 1770W        W73386  26.973  20.007  11.644
 1771W        W73387   2.217  24.573  14.242
 1772W        W73388  16.636  11.906   4.835
 1773W        W73389  10.174  34.162   1.245
 1774W        W73390  42.345  10.758   1.182
 1775W        W73391  14.812   7.813  14.023
 1776W        W73392   0.176  43.068   4.038
 1777W        W73393  13.980  41.735   1.878
 1778W        W73394  43.681  21.089   1.761
 1779W        W73395  35.685  40.946   2.849
 1780W        W73396  21.021  36.533  12.869
 1781W        W73397  33.043  20.714  13.074
 1782W        W73398  42.566  28.056   1.264
 1783W        W73399  37.092   1.063  12.118
 1784W        W73400  23.201  30.607   1.492
 1785W        W73401  22.363  28.448   4.124
 1786W        W73402  36.081   7.844   0.349
 1787W        W73403   3.933  15.118  11.462
 1788W        W73404  43.062  21.805   0.371
 1789W        W73405   5.306  29.698  12.309
 1790W        W73406  40.051  25.628  12.045
 1791W        W73407  11.585  17.698  14.424
 1792W        W73408  10.835  18.789  11.463
 1793W        W73409  33.420  13.700   1.007
 1794W        W73410  21.640  10.724   1.572
 1795W        W73411  17.530  28.707  14.405
 1796W        W73412  31.896  22.120   4.889
 1797W        W73413  21.835   7.832  13.960
 1798W        W73414  16.627  24.569   3.558
 1799W        W73415  18.478   8.790  13.919
 1800W        W73416  22.007   6.835   0.830
 1801W        W73417  15.126  33.549  13.168
 1802W        W73418  32.558  32.637  13.186
 1803W        W73419  13.166   4.434   0.710
 1804W        W73420  10.115  11.536  11.462
 1805W        W73421  37.835   8.262   2.937
 1806W        W73422  26.487  28.167   1.164
 1807W        W73423   0.414  21.446  10.916
 1808W        W73424  39.041  19.631   5.275
 1809W        W73425  43.771  29.039  13.007
 1810W        W73426  19.978   3.927  14.935
 1811W        W73427  41.144   1.265   0.406
 1812W        W73428  38.951  33.866  11.196
 1813W        W73429  41.715  38.622   3.725
 1814W        W73430   9.236   3.908   2.948
 1815W        W73431  22.303   2.455  12.954
 1816W        W73432  40.483  44.435  14.838
 1817W        W73433   4.317  26.177   1.395
 1818W        W73434  25.547  23.153  14.555
 1819W        W73435  34.894  27.924  10.601
 1820W        W73436   8.497  26.058  11.507
 1821W        W73437  34.561  13.549  14.526
 1822W        W73438   7.835  13.042   1.372
 1823W        W73439  18.343   3.438   4.639
 1824W        W73440  35.371  10.086   2.664
 1825W        W73441  30.228   5.223   0.957
 1826W        W73442   6.484  15.991  11.175
 1827W        W73443   5.891  14.932  14.370
 1828W        W73444  18.183   3.269  14.766
 1829W        W73445  14.946  33.500   4.190
 1830W        W73446  23.995   2.735   4.335
 1831W        W73447  10.350   9.297  13.398
 1832W        W73448  30.872  15.111   1.132
 1833W        W73449  10.808  44.190   3.721
 1834W        W73450  20.439   6.682  14.074
 1835W        W73451  30.879  17.728   4.629
 1836W        W73452  39.646   0.808  13.319
 1837W        W73453  10.584  31.965   0.016
 1838W        W73454   5.660  39.988  11.251
 1839W        W73455  12.599  36.296  13.719
 1840W        W73456  27.628  17.533   4.661
 1841W        W73457  17.745  42.903  11.511
 1842W        W73458  13.255   4.412   4.581
 1843W        W73459   8.692  11.466   2.895
 1844W        W73460  28.025  38.832   0.772
 1845W        W73461  14.445  35.968   3.738
 1846W        W73462  33.349  28.364  14.237
 1847W        W73463   2.950  26.996  10.960
 1848W        W73464   2.513  43.775   0.197
 1849W        W73465  27.966  34.874  14.187
 1850W        W73466   1.741  36.622   4.015
 1851W        W73467  13.754  44.263  11.047
 1852W        W73468   3.253  25.768   1.332
 1853W        W73469   9.674  28.875  12.869
 1854W        W73470   3.210   2.920   4.631
 1855W        W73471  43.844  44.294  14.581
 1856W        W73472  27.224  30.694  13.572
 1857W        W73473  10.467  14.824   3.147
 1858W        W73474  15.302  25.463  11.595
 1859W        W73475  33.623   3.466  12.510
 1860W        W73476  25.703  33.313  14.138
 1861W        W73477   3.474  27.597  13.433
 1862W        W73478  13.820  31.658  11.038
 1863W        W73479  34.156  18.503  10.763
 1864W        W73480  31.948  38.278   2.289
 1865W        W73481  11.135   2.422   2.103
 1866W        W73482  28.426  34.909   3.180
 1867W        W73483  17.686   2.171   0.318
 1868W        W73484  36.564   1.231  11.545
 1869W        W73485  22.301  15.658  14.278
 1870W        W73486  31.962  15.387  14.835
 1871W        W73487  21.572  20.579  13.158
 1872W        W73488  24.415  31.121  14.455
 1873W        W73489  35.993  26.422   3.089
 1874W        W73490  24.246  44.897   4.004
 1875W        W73491  27.719  15.268   4.660
 1876W        W73492  27.270   0.481  12.058
 1877W        W73493   5.473  22.460   4.552
 1878W        W73494   2.775  42.779   3.180
 1879W        W73495  37.302  11.377  10.664
 1880W        W73496   9.793  11.403  10.911
 1881W        W73497  10.829  36.353   1.350
 1882W        W73498  33.857   8.766   3.917
 1883W        W73499   9.419  27.907   3.536
 1884W        W73500  26.384   3.315   4.192
 1885W        W73501   7.182  11.116   2.208
 1886W        W73502  34.875  11.776   1.264
 1887W        W73503   0.210   4.871   1.005
 1888W        W73504  33.485  18.616  13.371
 1889W        W73505  10.347  14.722  10.409
 1890W        W73506  36.147  40.795  10.310
 1891W        W73507  35.759  11.347   1.178
 1892W        W73508  25.002  36.644   0.702
 1893W        W73509   0.304   9.411   0.922
 1894W        W73510  30.099  14.337   0.576
 1895W        W73511  37.949   1.687   0.882
 1896W        W73512   6.020  11.442   4.194
 1897W        W73513  37.954  18.770  14.993
 1898W        W73514  14.744  32.565  11.902
 1899W        W73515   5.194  14.677   3.898
 1900W        W73516   7.656  39.110  11.225
 1901W        W73517  27.012  21.161   0.422
 1902W        W73518  35.939   7.670   2.602
 1903W        W73519  28.548  38.841  14.869
 1904W        W73520  17.289  19.825  11.708
 1905W        W73521   5.611   2.719   4.770
 1906W        W73522  43.436  34.086  13.347
 1907W        W73523  33.213  37.111  11.149
 1908W        W73524  42.462  42.505   4.176
 1909W        W73525  17.786  10.734  11.891
 1910W        W73526  17.309  44.580   4.597
 1911W        W73527  23.419  30.071  10.788
 1912W        W73528  31.227  41.068   3.352
 1913W        W73529  40.486  28.659  10.373
 1914W        W73530  25.512   9.088  14.404
 1915W        W73531  44.743  11.160   3.799
 1916W        W73532  23.619  12.227  14.733
 1917W        W73533  17.148  30.465   3.158
 1918W        W73534  29.704  21.657   1.012
 1919W        W73535  24.276   0.937   2.135
 1920W        W73536  18.695   3.334   2.418
 1921W        W73537   9.978   2.633   3.247
 1922W        W73538  36.483  23.603  11.694
 1923W        W73539  44.868  31.326   1.449
 1924W        W73540   1.808  41.324   1.635
 1925W        W73541  28.085  17.576  13.116
 1926W        W73542  39.573  32.720  10.665
 1927W        W73543  29.998  23.293   4.201
 1928W        W73544  14.943  36.897  14.844
 1929W        W73545  27.708  39.229   0.890
 1930W        W73546  17.740  27.529   4.070
 1931W        W73547  36.350  29.418   2.386
 1932W        W73548  27.636  13.589   9.619
 1933W        W73549  10.633  37.416  12.118
 1934W        W73550  32.502  31.103   4.643
 1935W        W73551  44.973  36.134   2.826
 1936W        W73552  23.666  18.193  11.308
 1937W        W73553  32.385  42.496  13.878
 1938W        W73554  15.180  31.666   0.134
 1939W        W73555  40.098   8.244  11.619
 1940W        W73556   0.949  17.291  10.717
 1941W        W73557  14.151  16.422  12.598
 1942W        W73558   9.630  24.521   4.899
 1943W        W73559  28.168  36.694   2.319
 1944W        W73560   3.870  19.097  10.770
 1945W        W73561  38.439  21.809  12.505
 1946W        W73562  36.366  31.673   1.690
 1947W        W73563   3.325  18.193  12.345
 1948W        W73564  11.788  35.272   3.396
 1949W        W73565   4.240  12.488  10.196
 1950W        W73566  43.939  28.672  10.625
 1951W        W73567  35.034  40.008  14.987
 1952W        W73568  12.221  32.613  12.072
 1953W        W73569  35.923  13.797   1.475
 1954W        W73570   7.929   7.599   4.611
 1955W        W73571  35.908   1.298   1.604
 1956W        W73572  28.882   1.336  12.424
 1957W        W73573  22.826  21.108  13.151
 1958W        W73574  33.024   5.363  11.817
 1959W        W73575  12.692  33.863  10.687
 1960W        W73576  30.157   0.646   0.464
 1961W        W73577  39.541  16.103   3.875
 1962W        W73578  14.866  22.705   2.600
 1963W        W73579  24.656  25.548  13.566
 1964W        W73580  32.193  14.094  11.167
 1965W        W73581  42.183   3.172   0.650
 1966W        W73582  15.843  31.115   2.448
 1967W        W73583  11.239  22.035   4.789
 1968W        W73584   6.673   4.967  10.453
 1969W        W73585   3.326  31.991  12.431
 1970W        W73586  42.015   0.531   1.759
 1971W        W73587  34.374   5.339  12.465
 1972W        W73588  36.563  30.589  14.914
 1973W        W73589  30.022  43.275   3.127
 1974W        W73590  44.552  34.913  10.661
 1975W        W73591  23.659   0.235  12.391
 1976W        W73592  32.720  44.036   5.697
 1977W        W73593  24.629  20.457  14.459
 1978W        W73594  33.594   6.949   2.598
 1979W        W73595  34.510  14.878   1.697
 1980W        W73596  14.888   2.755   0.291
 1981W        W73597   7.290  34.503   4.628
 1982W        W73598  41.668  11.382   1.127
 1983W        W73599  36.007  36.967   2.942
 1984W        W73600  23.259  25.743  12.511
 1985W        W73601  43.337  13.730  13.987
 1986W        W73602  43.802  25.737   3.176
 1987W        W73603  17.025   8.673  12.807
 1988W        W73604  34.053  38.112  13.017
 1989W        W73605  29.168   9.362   2.085
 1990W        W73606  26.923  11.365  14.823
 1991W        W73607  37.847  12.578   4.665
 1992W        W73608  13.096  35.660   2.807
 1993W        W73609  17.173  10.903  12.489
 1994W        W73610  33.403   4.902  14.756
 1995W        W73611  19.565  16.923  14.326
 1996W        W73612  11.394  28.937  11.235
 1997W        W73613  24.619  36.856  12.484
 1998W        W73614   5.896  23.245   0.964
 1999W        W73615   7.924  35.843  14.905
 2000W        W73616   1.246   0.439  11.692
 2001W        W73617  43.453  41.759  10.850
 2002W        W73618  39.560  22.327   3.137
 2003W        W73619  12.752  24.752  11.591
 2004W        W73620  42.570   8.210  11.427
 2005W        W73621  38.442  34.399   2.760
 2006W        W73622  18.264  24.757   3.218
 2007W        W73623  15.545  44.168  13.709
 2008W        W73624  31.087  42.611  11.153
 2009W        W73625  29.996  14.178  12.865
 2010W        W73626  21.132   2.954  10.537
 2011W        W73627  18.156  27.193   3.111
 2012W        W73628   0.926  43.352   0.676
 2013W        W73629  31.572  18.835   2.821
 2014W        W73630  10.173  30.445  10.226
 2015W        W73631  39.232  29.022  10.247
 2016W        W73632  41.615   1.238   3.694
 2017W        W73633  33.480  40.790  13.014
 2018W        W73634  15.349  10.938  10.958
 2019W        W73635  38.900  23.630  12.229
 2020W        W73636  23.192  39.757   2.349
 2021W        W73637  31.836   6.911  13.350
 2022W        W73638  43.908  21.068  14.124
 2023W        W73639  10.441   5.364  11.661
 2024W        W73640  26.544  44.004  11.617
 2025W        W73641  30.539   1.323  11.108
 2026W        W73642   6.847  29.180   4.849
 2027W        W73643  19.135   8.733  11.739
 2028W        W73644  21.959  42.514   3.954
 2029W        W73645  39.032   7.063  10.385
 2030W        W73646   6.082   4.254  13.554
 2031W        W73647  10.872  41.949  11.541
 2032W        W73648   5.884  39.966  11.690
 2033W        W73649  15.608  21.733  14.526
 2034W        W73650   1.282  34.367   3.895
 2035W        W73651  40.241  41.348   0.317
 2036W        W73652  19.324  27.935  14.650
 2037W        W73653  20.125  25.747   1.812
 2038W        W73654  44.418   5.563   0.855
 2039W        W73655  44.957  31.146  13.406
 2040W        W73656  44.281  37.255  11.569
 2041W        W73657  19.095  30.515   2.619
 2042W        W73658  26.521  42.569   4.857
 2043W        W73659  29.851  34.576   2.108
 2044W        W73660  37.640   5.378  10.009
 2045W        W73661   1.830  28.192  14.014
 2046W        W73662   9.647  29.688   4.168
 2047W        W73663  26.562  43.552   1.352
 2048W        W73664  37.651  19.149   1.405
 2049W        W73665  26.109  22.048  11.514
 2050W        W73666  24.689  35.147   4.105
 2051W        W73667   4.510  24.021   4.094
 2052W        W73668  30.951  16.576  10.617
 2053W        W73669  29.328   2.651  10.785
 2054W        W73670  36.950  41.931   3.379
 2055W        W73671  44.369  35.556  10.109
 2056W        W73672  32.903  32.477   2.287
 2057W        W73673   7.468  38.448  14.305
 2058W        W73674  22.019   0.057  12.949
 2059W        W73675  43.763  31.356  13.604
 2060W        W73676  41.084  35.086   1.269
 2061W        W73677  35.216   0.254  11.909
 2062W        W73678   3.128  18.085   1.879
 2063W        W73679  13.260  26.567  13.467
 2064W        W73680  29.489   9.273  13.899
 2065W        W73681  29.902  41.547   0.757
 2066W        W73682   7.361  38.010  14.973
 2067W        W73683   2.223  16.046   5.013
 2068W        W73684  27.105  29.972  14.260
 2069W        W73685  12.622  18.211   0.186
 2070W        W73686  14.825  40.568   0.933
 2071W        W73687   7.219  26.358   4.204
 2072W        W73688  33.508  22.835  13.242
 2073W        W73689  15.717  40.156   3.327
 2074W        W73690  21.220   8.790  14.363
 2075W        W73691   6.936  32.057   3.884
 2076W        W73692  36.181  22.504   0.500
 2077W        W73693  40.063  17.574   1.303
 2078W        W73694  29.097  20.764   2.060
 2079W        W73695   8.416  34.462   1.036
 2080W        W73696  38.353  12.984   5.024
 2081W        W73697  34.960   4.260  12.149
 2082W        W73698  26.947  39.291  13.125
 2083W        W73699  27.407   6.940   1.348
 2084W        W73700  29.159  17.791  13.943
 2085W        W73701  34.767   8.171   4.312
 2086W        W73702  32.034  35.451  11.462
 2087W        W73703  28.307  44.720  14.942
 2088W        W73704  11.181   6.712   1.775
 2089W        W73705  16.244  33.381  13.501
 2090W        W73706  17.938  38.846  11.815
 2091W        W73707  15.194  32.209   1.808
 2092W        W73708   9.905  17.643  13.947
 2093W        W73709  21.098  16.646   4.292
 2094W        W73710  17.791  17.467   9.516
 2095W        W73711  38.852  11.666   4.240
 2096W        W73712  40.433  11.108  11.463
 2097W        W73713   4.651   9.366   1.197
 2098W        W73714  34.515  40.216   3.780
 2099W        W73715  16.074  22.446   2.301
 2100W        W73716  23.991  25.587   4.639
 2101W        W73717  11.077  10.353  12.612
 2102W        W73718  31.331   4.439  13.685
 2103W        W73719  27.022  29.240   9.762
 2104W        W73720  15.414  33.645   1.030
 2105W        W73721  18.755  29.653  11.715
 2106W        W73722   5.654  29.308   1.717
 2107W        W73723  16.600  38.417  10.651
 2108W        W73724  33.475  25.165  10.616
 2109W        W73725   7.331  25.039   3.740
 2110W        W73726   9.937   6.974   4.097
 2111W        W73727  20.955  14.020  12.531
 2112W        W73728  31.964  23.656   2.320
 2113W        W73729   8.434  37.970   4.037
 2114W        W73730  15.075  37.546   2.107
 2115W        W73731  18.894  25.613   4.127
 2116W        W73732  17.764  21.350   0.984
 2117W        W73733  30.154   5.616   2.215
 2118W        W73734  22.479  39.801   0.297
 2119W        W73735   1.793  30.097   3.495
 2120W        W73736  42.265  27.520  12.921
 2121W        W73737  25.006  11.034   1.156
 2122W        W73738  12.256  44.698  12.227
 2123W        W73739  31.630  13.520   2.206
 2124W        W73740   3.086  24.274   1.318
 2125W        W73741  42.931  12.726   3.123
 2126W        W73742   7.331  40.755   2.675
 2127W        W73743  41.368  13.109  11.617
 2128W        W73744   9.902   2.664  12.348
 2129W        W73745  42.548  42.090  10.641
 2130W        W73746  42.485  15.617   1.153
 2131W        W73747   7.437   8.728   4.444
 2132W        W73748  15.010  31.856  12.040
 2133W        W73749   1.439   8.709  11.881
 2134W        W73750  21.246  31.050   2.181
 2135W        W73751  11.846   7.330   0.752
 2136W        W73752   8.868  14.503  11.988
 2137W        W73753  22.748  44.600  10.644
 2138W        W73754  14.825   7.682   4.036
 2139W        W73755  28.478   0.188   4.295
 2140W        W73756   7.911   7.582  10.790
 2141W        W73757  21.663   2.554  14.089
 2142W        W73758  44.562  31.597  10.936
 2143W        W73759  37.974  33.357   3.281
 2144W        W73760  18.699  38.075   2.819
 2145W        W73761  39.387  31.656  12.002
 2146W        W73762  14.566  43.420   2.529
 2147W        W73763   6.803  36.432  12.025
 2148W        W73764   5.690   4.849  14.433
 2149W        W73765  24.237  25.980   3.814
 2150W        W73766  14.524  21.551  10.712
 2151W        W73767   3.718  38.196   3.865
 2152W        W73768  43.771  31.103  14.556
 2153W        W73769  21.123  16.830  10.707
 2154W        W73770  40.940  33.441  13.597
 2155W        W73771  38.704  31.631  13.900
 2156W        W73772  24.048   9.556   4.077
 2157W        W73773   9.379  13.951   3.615
 2158W        W73774  29.600  42.724  13.709
 2159W        W73775  34.699  41.585  10.513
 2160W        W73776  26.078  24.396  10.945
 2161W        W73777   2.005  18.291  14.377
 2162W        W73778  28.172   9.859  12.554
 2163W        W73779  26.415  26.981   0.794
 2164W        W73780  11.999  36.448  11.852
 2165W        W73781   4.195  32.343   3.199
 2166W        W73782  33.410  29.049  11.176
 2167W        W73783  34.817  31.363  14.461
 2168W        W73784   3.379  10.854  14.560
 2169W        W73785  30.485  34.462  13.843
 2170W        W73786  10.671   4.194  12.444
 2171W        W73787  23.578  42.183  12.142
 2172W        W73788   6.614  20.517  12.763
 2173W        W73789   3.930  22.905   5.059
 2174W        W73790  27.538  29.010  14.356
 2175W        W73791   0.955  29.181  13.986
 2176W        W73792  38.477  39.739  10.480
 2177W        W73793  34.117  34.209   1.714
 2178W        W73794  44.233  35.322   0.384
 2179W        W73795  16.932  17.606  12.022
 2180W        W73796  31.205   1.477  12.492
 2181W        W73797  35.334  25.848  11.105
 2182W        W73798   5.285  20.707  12.620
 2183W        W73799  16.359  20.762   0.720
 2184W        W73800   9.360   7.926  11.587
 2185W        W73801   8.299  41.851  12.921
 2186W        W73802  29.357   4.757  13.083
 2187W        W73803  33.358   0.753   2.672
 2188W        W73804   7.693   3.457   3.649
 2189W        W73805  22.354  34.850  11.326
 2190W        W73806  17.110  22.762  14.056
 2191W        W73807  25.602  44.568  14.854
 2192W        W73808  17.012  35.493  10.788
 2193W        W73809  32.127  18.058   2.320
 2194W        W73810   4.837  39.241  10.246
 2195W        W73811  36.055  32.138  14.890
 2196W        W73812  10.781  21.659  10.950
 2197W        W73813  32.269  38.299   1.041
 2198W        W73814  22.587   7.308  13.333
 2199W        W73815   4.813  34.515   4.684
 2200W        W73816  22.093  15.766  12.807
 2201W        W73817  38.390  43.678  12.939
 2202W        W73818  37.573  27.627  14.392
 2203W        W73819  18.537  42.242   4.545
 2204W        W73820  26.524   2.372   2.422
 2205W        W73821  29.666  28.535  13.737
 2206W        W73822   9.606  43.997   3.391
 2207W        W73823   4.674  17.007   2.356
 2208W        W73824  17.073  23.653   3.114
 2209W        W73825   4.803  13.720  10.711
 2210W        W73826   1.840  35.499   2.424
 2211W        W73827  18.602  16.843   0.376
 2212W        W73828  22.595  22.102  11.075
 2213W        W73829  24.775  26.213   1.986
 2214W        W73830  11.767  32.422   2.216
 2215W        W73831  23.625   9.416  12.048
 2216W        W73832  18.577  34.448   0.898
 2217W        W73833  16.261  13.509   1.395
 2218W        W73834  39.470  18.315   4.199
 2219W        W73835  17.444  11.813   3.716
 2220W        W73836  24.470  29.079  14.568
 2221W        W73837  11.262  18.519  11.574
 2222W        W73838  20.002  31.930   4.611
 2223W        W73839  42.452  21.899   4.116
 2224W        W73840  21.204  30.417   4.362
 2225W        W73841  31.987  17.004  14.827
 2226W        W73842  36.823  18.688  12.927
 2227W        W73843   5.365  31.066  10.649
 2228W        W73844  36.603  37.230   4.995
 2229W        W73845  34.132  13.990  11.014
 2230W        W73846   4.157  43.069  12.495
 2231W        W73847  43.684   7.306  13.060
 2232W        W73848  13.667  23.581   1.965
 2233W        W73849   8.622  13.033  12.434
 2234W        W73850  24.520  41.143  13.484
 2235W        W73851  17.172  43.493  11.192
 2236W        W73852  38.519   0.712  10.657
 2237W        W73853  32.560  40.065   2.188
 2238W        W73854  38.909  41.579   0.370
 2239W        W73855  43.846  41.012   4.451
 2240W        W73856  18.347  18.078  13.481
 2241W        W73857   5.835  12.385   0.808
 2242W        W73858   0.735  32.766   2.902
 2243W        W73859  33.467  25.989   3.211
 2244W        W73860   9.234  34.954  11.182
 2245W        W73861   3.238   7.870   2.698
 2246W        W73862   2.566  21.692   2.956
 2247W        W73863  11.885  43.879  12.793
 2248W        W73864  14.138  32.302   2.706
 2249W        W73865   6.445   5.347  12.942
 2250W        W73866  21.847   5.752   0.744
 2251W        W73867   9.332  31.667   0.956
 2252W        W73868  12.161  23.544  14.492
 2253W        W73869  40.838   8.176   4.050
 2254W        W73870  18.330  41.325  13.673
 2255W        W73871   0.930  10.696   4.485
 2256W        W73872  42.817  44.531  12.175
 2257W        W73873  26.375   6.811  14.103
 2258W        W73874  44.096  18.286  11.325
 2259W        W73875  25.352  40.497  11.478
 2260W        W73876  30.133  23.038   2.040
 2261W        W73877  39.827  31.506  12.869
 2262W        W73878  26.739  15.830  12.045
 2263W        W73879  25.767  31.461   1.273
 2264W        W73880  37.393   7.309   2.427
 2265W        W73881  32.755  36.152   3.553
 2266W        W73882   8.869  21.741  12.487
 2267W        W73883  44.258  42.147   1.988
 2268W        W73884   1.646  34.395   1.797
 2269W        W73885  14.044  34.980  14.076
 2270W        W73886  38.855  19.276   3.834
 2271W        W73887  11.138  16.203   1.724
 2272W        W73888   8.393  24.440  11.166
 2273W        W73889  23.689  37.044   3.768
 2274W        W73890  41.324  29.581   1.317
 2275W        W73891  12.167  10.707   0.502
 2276W        W73892  11.476  43.199   4.288
 2277W        W73893   5.466  20.162  10.881
 2278W        W73894  28.726  36.561   3.357
 2279W        W73895  20.809   1.224  12.991
 2280W        W73896  36.508  12.748   0.776
 2281W        W73897  35.439   3.654   3.266
 2282W        W73898  19.861  39.518  12.377
 2283W        W73899  17.116  41.013  14.811
 2284W        W73900  40.853  15.572   1.891
 2285W        W73901  15.686  23.170   2.118
 2286W        W73902   5.064  40.032  12.942
 2287W        W73903  39.390  22.447   4.608
 2288W        W73904  32.198   5.424   4.567
 2289W        W73905  33.890  34.148  14.811
 2290W        W73906   9.113  24.478   3.628
 2291W        W73907   1.090  31.892  11.739
 2292W        W73908  38.940  10.726   2.688
 2293W        W73909   2.633  35.483   2.703
 2294W        W73910   9.800  31.881  14.388
 2295W        W73911  41.972   6.362   4.070
 2296W        W73912   3.900  31.287   4.234
 2297W        W73913   6.898  41.359   0.074
 2298W        W73914  27.028  29.806   3.567
 2299W        W73915   7.856  12.809  10.171
 2300W        W73916  36.633  19.411   5.106
 2301W        W73917   7.181   1.724   3.336
 2302W        W73918   6.040  24.163   4.805
 2303W        W73919   7.796   9.820   1.164
 2304W        W73920  35.080  22.057   1.485
 2305W        W73921  13.785  15.222   4.314
 2306W        W73922  34.054  22.248  13.013
 2307W        W73923   7.394   0.865   4.362
 2308W        W73924  14.866  17.635   3.973
 2309W        W73925  10.804  13.248  14.448
 2310W        W73926  25.176  29.424  14.400
 2311W        W73927   6.842  23.049   4.898
 2312W        W73928  41.258  26.496   4.555
 2313W        W73929  36.926  30.705   1.390
 2314W        W73930  21.571  41.429   2.868
 2315W        W73931  41.911  43.519   1.964
 2316W        W73932  31.458   3.792   1.659
 2317W        W73933  20.139  38.809   1.399
 2318W        W73934  19.328  18.710   4.328
 2319W        W73935  36.348  26.129   0.930
 2320W        W73936   5.207   6.304  14.224
 2321W        W73937  43.888   5.564  11.593
 2322W        W73938  33.067  35.790   4.195
 2323W        W73939  34.805  24.380   2.881
 2324W        W73940   5.641  44.313  14.378
 2325W        W73941  41.838   6.127   0.404
 2326W        W73942  18.841  19.556  11.155
 2327W        W73943   0.005   6.602  14.283
 2328W        W73944  19.463  42.035  10.704
 2329W        W73945  13.128  40.249   1.313
 2330W        W73946  36.514   8.846   3.336
 2331W        W73947  30.113  18.051   4.646
 2332W        W73948  24.012   0.720  13.319
 2333W        W73949  19.202  37.655   3.737
 2334W        W73950  17.434  17.521   3.295
 2335W        W73951  21.615  35.647   1.520
 2336W        W73952  24.366  28.888  13.487
 2337W        W73953  10.302  14.153  11.985
 2338W        W73954  21.219  13.560  11.668
 2339W        W73955  12.680   3.424  14.814
 2340W        W73956  42.333  24.464  10.736
 2341W        W73957  26.561  28.292   0.654
 2342W        W73958  32.003  16.678   2.369
 2343W        W73959  37.418   0.521   3.637
 2344W        W73960   1.340  15.445  12.957
 2345W        W73961  38.139  39.258  13.490
 2346W        W73962  35.419  43.543  14.803
 2347W        W73963  26.634  19.715   3.287
 2348W        W73964  44.364  40.081  10.684
 2349W        W73965  17.753  43.712  14.843
 2350W        W73966  16.034  11.754  14.793
 2351W        W73967  36.826  11.441   4.077
 2352W        W73968  17.231  36.053   0.170
 2353W        W73969   0.222  27.365  11.181
 2354W        W73970  29.375   9.130   0.748
 2355W        W73971  25.808  12.148   1.792
 2356W        W73972  26.689  22.426  10.687
 2357W        W73973   7.144  18.237   2.134
 2358W        W73974  10.778   6.376   2.321
 2359W        W73975  42.520  31.913   1.087
 2360W        W73976   9.122  13.782  14.286
 2361W        W73977   6.162  12.252   3.596
 2362W        W73978  16.575  29.334  14.612
 2363W        W73979  24.557  41.069  11.224
 2364W        W73980   7.231  26.609  11.659
 2365W        W73981  13.680   0.766   4.580
 2366W        W73982  15.937  36.033   2.222
 2367W        W73983  41.933  16.281   2.055
 2368W        W73984  32.127   2.747   1.724
 2369W        W73985  19.543  17.852   0.972
 2370W        W73986   9.306  16.369   1.253
 2371W        W73987   6.203  36.582  10.580
 2372W        W73988   5.327  28.530  14.940
 2373W        W73989  23.295  39.494   2.796
 2374W        W73990   4.124  33.662  13.075
 2375W        W73991  36.907  36.320  11.776
 2376W        W73992  16.220  20.751   3.571
 2377W        W73993  11.174   6.139   3.810
 2378W        W73994  15.881  38.937   1.640
 2379W        W73995  25.113   5.390   1.744
 2380W        W73996  42.357  18.996   3.487
 2381W        W73997   5.145   3.318  11.054
 2382W        W73998  22.969  24.151  10.742
 2383W        W73999  11.474   0.373  11.560
 2384W        W74000  18.126  31.167   4.433
 2385W        W74001  38.404  37.226   4.949
 2386W        W74002  23.034  12.551  13.541
 2387W        W74003  25.950  32.067  14.812
 2388W        W74004  12.537   0.887   2.799
 2389W        W74005   2.369  24.563   3.828
 2390W        W74006  11.471  35.869   2.139
 2391W        W74007  28.647  43.957   4.622
 2392W        W74008  36.465  39.531  12.390
 2393W        W74009  18.604  40.298  14.089
 2394W        W74010  16.100  11.948   4.221
 2395W        W74011  12.417  42.959  12.462
 2396W        W74012  37.808   0.259   0.894
 2397W        W74013   0.287  40.082   0.746
 2398W        W74014  43.705   9.838  11.111
 2399W        W74015   2.369  40.954  13.101
 2400W        W74016  38.025  39.435  10.546
 2401W        W74017  22.548  12.899   0.936
 2402W        W74018  38.365  36.970  13.770
 2403W        W74019  10.843  40.027   3.568
 2404W        W74020  37.982  27.532  12.653
 2405W        W74021  30.123  43.945  10.646
 2406W        W74022  25.377  43.873   0.349
 2407W        W74023  17.223  37.881  12.139
 2408W        W74024  18.178  32.527  13.344
 2409W        W74025  44.027  39.362   0.536
 2410W        W74026  37.095  33.877  13.845
 2411W        W74027  18.538   6.656  14.326
 2412W        W74028  34.686  23.896   2.219
 2413W        W74029  41.553  13.519   2.429
 2414W        W74030  14.268   7.819   1.893
 2415W        W74031  14.673  18.658   3.321
 2416W        W74032  35.302   7.346   4.987
 2417W        W74033  26.191  30.483  11.995
 2418W        W74034  24.009   6.247   4.553
 2419W        W74035  26.594  12.692  13.726
 2420W        W74036  41.300   6.833   4.627
 2421W        W74037  33.678  12.395  14.049
 2422W        W74038   2.936  32.541  11.219
 2423W        W74039  14.616  12.674  12.085
 2424W        W74040  40.889  43.453   2.288
 2425W        W74041  15.157  10.671  13.782
 2426W        W74042   5.208  39.236  11.445
 2427W        W74043  40.808  32.981   0.904
 2428W        W74044  11.851  29.662   3.866
 2429W        W74045  10.343  25.022   0.520
 2430W        W74046   3.427  35.596   4.361
 2431W        W74047   4.284  32.503  12.105
 2432W        W74048   8.717   4.668  14.642
 2433W        W74049  32.157  20.659   0.783
 2434W        W74050  33.535  36.330  10.664
 2435W        W74051  20.109   2.006  13.076
 2436W        W74052   3.121  18.738  14.053
 2437W        W74053  28.555  16.085  12.483
 2438W        W74054  42.940  16.139   4.411
 2439W        W74055   2.923  10.319   3.770
 2440W        W74056  41.890  44.518   1.585
 2441W        W74057  30.640  23.717  14.722
 2442W        W74058   9.051  13.233  11.243
 2443W        W74059  34.400  22.460  13.881
 2444W        W74060  14.251   5.409   0.703
 2445W        W74061  10.803  37.052  10.542
 2446W        W74062   8.334  15.598  12.448
 2447W        W74063  18.772  40.407  10.636
 2448W        W74064   3.838   1.244  12.061
 2449W        W74065  29.460  25.081  11.138
 2450W        W74066  42.190  12.192  12.392
 2451W        W74067   4.951   4.393  14.338
 2452W        W74068  27.657  24.116   3.875
 2453W        W74069  42.134  25.514   3.620
 2454W        W74070   5.953  10.223   3.425
 2455W        W74071  23.290  19.530  11.203
 2456W        W74072  29.380  19.000   2.326
 2457W        W74073   4.876  36.517  13.872
 2458W        W74074  30.531  37.154  10.630
 2459W        W74075  33.859  12.101   0.962
 2460W        W74076  28.722  32.933   1.113
 2461W        W74077  13.537   3.174   0.994
 2462W        W74078  36.005  24.195  12.883
 2463W        W74079   3.654  31.542  13.871
 2464W        W74080  44.586  23.742   1.436
 2465W        W74081  31.463  39.451  11.635
 2466W        W74082   1.121  19.838  12.362
 2467W        W74083  14.249  39.109  11.019
 2468W        W74084  37.778  15.869   3.267
 2469W        W74085  15.040  42.936   3.931
 2470W        W74086  20.102  36.460  11.352
 2471W        W74087  37.980  20.262   4.032
 2472W        W74088  21.670  34.472  11.488
 2473W        W74089   3.856  29.706  10.736
 2474W        W74090   4.865  22.216   5.248
 2475W        W74091  24.752   1.707   0.952
 2476W        W74092  33.069  12.253   1.252
 2477W        W74093  39.577  37.646  13.487
 2478W        W74094  39.964  17.151  11.398
 2479W        W74095  30.953   2.309  12.042
 2480W        W74096  40.751   6.726   0.481
 2481W        W74097   8.182  17.640  14.777
 2482W        W74098   9.473  44.145   4.006
 2483W        W74099   1.494  18.152   3.133
 2484W        W74100  18.149  34.224   4.092
 2485W        W74101   0.801  35.600  13.119
 2486W        W74102   8.228   7.792  13.809
 2487W        W74103  41.261  11.455  12.989
 2488W        W74104  14.889  27.525  10.703
 2489W        W74105   5.949  32.445   4.860
 2490W        W74106  11.753   9.333  10.707
 2491W        W74107  38.925  32.975  13.310
 2492W        W74108  18.996  26.888  14.793
 2493W        W74109  35.473  17.528   3.691
 2494W        W74110  29.429  27.386   3.818
 2495W        W74111  18.279  20.802  12.022
 2496W        W74112   5.953   8.793   0.397
 2497W        W74113  23.249  10.814  14.364
 2498W        W74114  41.939  21.485  10.653
 2499W        W74115  29.679  27.461   2.322
 2500W        W74116  32.584  22.564   1.367
 2501W        W74117  19.740  40.571   3.087
 2502W        W74118   1.648  16.567   2.488
 2503W        W74119   4.929  15.081   0.094
 2504W        W74120  41.884   3.871   0.278
 2505W        W74121   3.429  14.793   4.531
 2506W        W74122  43.285  41.654   2.355
 2507W        W74123  14.384  36.230   5.086
 2508W        W74124  15.757  42.297   0.853
 2509W        W74125   7.635  23.662  11.742
 2510W        W74126  17.607  22.671   3.284
 2511W        W74127  42.971  34.755   0.876
 2512W        W74128  31.148  18.620   4.990
 2513W        W74129   2.375  11.954  10.333
 2514W        W74130  36.906  30.811   4.137
 2515W        W74131  22.396   4.347  11.171
 2516W        W74132  41.887  42.954  10.657
 2517W        W74133  20.641   7.967  14.186
 2518W        W74134  34.009  29.676   4.517
 2519W        W74135  39.173  13.714   0.712
 2520W        W74136  40.117  23.940  10.089
 2521W        W74137  36.481  39.714  11.909
 2522W        W74138  25.297  12.839  14.330
 2523W        W74139   0.325  13.310   1.865
 2524W        W74140  10.402   2.985  11.658
 2525W        W74141  27.161  17.058   5.382
 2526W        W74142  26.446  13.416  14.311
 2527W        W74143  37.334  44.278  14.271
 2528W        W74144  32.417  22.858  12.040
 2529W        W74145  26.031   1.057  13.884
 2530W        W74146  14.649  35.511  13.394
 2531W        W74147  40.000  11.290   3.373
 2532W        W74148  18.455   4.907   3.818
 2533W        W74149   6.133  36.734  12.606
 2534W        W74150  35.905  36.372  13.413
 2535W        W74151  38.501  37.745   4.810
 2536W        W74152  17.735  26.632  11.986
 2537W        W74153  22.281   6.090   4.575
 2538W        W74154  11.796  19.005  14.230
 2539W        W74155  40.483  15.785   3.659
 2540W        W74156   7.816  17.249   1.723
 2541W        W74157  30.444   6.038  12.936
 2542W        W74158  36.191   4.836   4.864
 2543W        W74159  31.325  43.243   1.403
 2544W        W74160  19.330  43.787  10.602
 2545W        W74161  26.680  29.426  10.626
 2546W        W74162   4.349  40.113  13.421
 2547W        W74163   7.909  12.241   3.794
 2548W        W74164  43.556  12.283   3.748
 2549W        W74165  11.090  42.445   1.937
 2550W        W74166  13.088  34.999  14.073
 2551W        W74167  10.641  26.057  14.851
 2552W        W74168  43.843  43.234   1.564
 2553W        W74169  40.297   7.499   1.719
 2554W        W74170  14.138   1.276   4.496
 2555W        W74171  22.876   4.635  12.049
 2556W        W74172   7.275  31.545  14.766
 2557W        W74173  26.660  43.086  14.787
 2558W        W74174  39.475  20.271   4.138
 2559W        W74175  29.727  31.511   2.351
 2560W        W74176   6.801   9.887   2.413
 2561W        W74177  13.490   1.649  10.246
 2562W        W74178  31.776   9.866   0.355
 2563W        W74179  36.572  11.452   0.743
 2564W        W74180  21.259  33.646   3.235
 2565W        W74181  27.914  34.906   3.235
 2566W        W74182  12.584   3.262   0.906
 2567W        W74183  18.487  11.676   1.234
 2568W        W74184  35.915  26.021  11.183
 2569W        W74185  30.391  21.403   2.456
 2570W        W74186  21.445   3.861   3.414
 2571W        W74187   5.751  39.831  12.516
 2572W        W74188  44.803   4.754   3.223
 2573W        W74189  10.880  17.021   1.105
 2574W        W74190  18.370   2.220   0.844
 2575W        W74191   3.459  13.080  14.806
 2576W        W74192  16.310   2.879  13.938
 2577W        W74193  40.690  16.031   4.152
 2578W        W74194  14.649  20.007  11.065
 2579W        W74195  20.556  21.695   3.586
 2580W        W74196  22.674   7.753  14.518
 2581W        W74197   6.838  10.329   4.469
 2582W        W74198  42.758   3.927  12.575
 2583W        W74199   1.536  15.692  14.118
 2584W        W74200  44.148   5.754   0.470
 2585W        W74201  25.146  33.105  10.754
 2586W        W74202  41.568   0.289  13.902
 2587W        W74203  27.022  40.808   0.294
 2588W        W74204  18.715   8.623   1.376
 2589W        W74205  40.431  32.645   3.070
 2590W        W74206  26.999  36.973  12.410
 2591W        W74207  18.128  41.047   3.585
 2592W        W74208  38.743  11.591   2.346
 2593W        W74209  15.150   6.360  12.812
 2594W        W74210  31.051  17.304   1.365
 2595W        W74211  18.486   8.707  11.151
 2596W        W74212   3.696   2.430   4.642
 2597W        W74213  20.987  28.936  11.121
 2598W        W74214  42.520  43.762  14.954
 2599W        W74215   9.876  11.701   3.243
 2600W        W74216  40.107   2.127  11.337
 2601W        W74217   3.843  33.922  10.502
 2602W        W74218  13.849  31.924  11.489
 2603W        W74219   0.042  40.979  12.525
 2604W        W74220   5.386  27.163  14.508
 2605W        W74221   0.663  38.837  11.667
 2606W        W74222  23.222  35.578  13.218
 2607W        W74223  39.133  10.345  14.762
 2608W        W74224  36.506   8.280  12.591
 2609W        W74225   0.766  39.501   0.024
 2610W        W74226  19.159   2.273   1.222
 2611W        W74227  43.056  30.289  13.448
 2612W        W74228  43.517  30.510   4.116
 2613W        W74229  15.695  41.068   1.533
 2614W        W74230  40.122  17.280   3.723
 2615W        W74231  22.057  14.844   2.203
 2616W        W74232   7.804   3.231  11.699
 2617W        W74233  22.010  43.882  13.445
 2618W        W74234  11.268  37.141  14.309
 2619W        W74235  38.089  34.178  12.394
 2620W        W74236  36.738   5.673   4.745
 2621W        W74237  30.892  34.938   3.128
 2622W        W74238  24.604  44.263   2.774
 2623W        W74239  10.812   4.416  10.887
 2624W        W74240  23.834  20.153  14.925
 2625W        W74241   2.394  28.664   4.609
 2626W        W74242  12.117   4.166   0.242
 2627W        W74243  27.634  21.624  14.749
 2628W        W74244   2.854  25.087  11.460
 2629W        W74245  22.025  26.378   4.373
 2630W        W74246  38.958  12.108  10.508
 2631W        W74247  27.244  30.890   2.095
 2632W        W74248  36.032  11.488  11.115
 2633W        W74249  16.700  20.169   3.778
 2634W        W74250  17.326  10.238  11.198
 2635W        W74251  11.550  42.875  14.238
 2636W        W74252  14.613  29.993  12.852
 2637W        W74253  23.535  33.400   2.287
 2638W        W74254  15.921   3.912   5.810
 2639W        W74255  39.475   2.040   0.824
 2640W        W74256  29.004   1.229  13.525
 2641W        W74257   2.828   1.208   2.857
 2642W        W74258  14.346  34.639  13.422
 2643W        W74259  26.146   5.748   0.899
 2644W        W74260  26.249  18.589  11.133
 2645W        W74261   9.181  26.014  12.022
 2646W        W74262  12.937  37.115   1.965
 2647W        W74263  32.040   4.331  13.424
 2648W        W74264   0.965  36.986  14.797
 2649W        W74265  13.296  30.673   0.870
 2650W        W74266   9.755  24.260  13.447
 2651W        W74267  17.564  26.617  14.370
 2652W        W74268  31.003  18.489  12.481
 2653W        W74269  27.832  29.608  13.303
 2654W        W74270  27.852  25.926   4.255
 2655W        W74271  27.031  15.503   2.707
 2656W        W74272  36.579   2.233   2.759
 2657W        W74273  24.021  30.608   0.479
 2658W        W74274  13.775  13.691   1.242
 2659W        W74275  14.697   8.177   1.998
 2660W        W74276  44.500  41.273  12.268
 2661W        W74277  40.805  15.494  13.845
 2662W        W74278   5.840   4.361  10.924
 2663W        W74279   1.443  40.468  11.587
 2664W        W74280  36.479   0.000  11.398
 2665W        W74281  24.501  11.481   0.450
 2666W        W74282   8.004  32.289   3.126
 2667W        W74283  25.671  44.061   1.350
 2668W        W74284   7.888  15.013  14.887
 2669W        W74285  16.712   3.339  14.694
 2670W        W74286  29.750   9.781  13.965
 2671W        W74287  13.290   1.319  11.221
 2672W        W74288  39.325  36.942   2.331
 2673W        W74289  41.051  35.743  11.482
 2674W        W74290   6.963  30.545   4.542
 2675W        W74291  32.866  26.134  14.280
 2676W        W74292  42.131  23.551  10.747
 2677W        W74293   1.379  30.539  10.557
 2678W        W74294  15.226   0.036   3.153
 2679W        W74295  12.571   4.280  11.088
 2680W        W74296  26.794  43.940  12.924
 2681W        W74297  37.483  19.533   1.717
 2682W        W74298  35.185  36.053   2.225
 2683W        W74299   3.360  15.295   0.599
 2684W        W74300  28.121  26.622  12.645
 2685W        W74301  34.469   8.883   0.587
 2686W        W74302  42.778  25.032   0.385
 2687W        W74303  20.268  19.795  12.578
 2688W        W74304  30.960  26.594   4.194
 2689W        W74305  12.534  31.722  12.829
 2690W        W74306  28.990  42.880  12.489
 2691W        W74307  29.663  16.578  14.077
 2692W        W74308  27.357  10.402   3.687
 2693W        W74309  39.043  32.380  14.895
 2694W        W74310   3.826  43.878   5.054
 2695W        W74311  26.338  36.614   1.340
 2696W        W74312  27.675  22.052   2.057
 2697W        W74313  35.806  28.065   1.375
 2698W        W74314  12.740  41.434   1.547
 2699W        W74315  10.155  26.633   4.160
 2700W        W74316  12.409  19.510  12.356
 2701W        W74317  43.852  22.080   0.632
 2702W        W74318   9.851   7.221  13.488
 2703W        W74319  35.521  44.822  11.989
 2704W        W74320  42.231  44.925  11.420
 2705W        W74321  21.720  20.006  11.270
 2706W        W74322  34.447  12.557  13.940
 2707W        W74323  17.191   5.680  12.319
 2708W        W74324  42.484   3.988   2.137
 2709W        W74325  37.305  35.155   3.231
 2710W        W74326  26.202   7.612  10.737
 2711W        W74327  28.521  18.980   4.830
 2712W        W74328  19.714  17.664   3.687
 2713W        W74329   8.160  14.467   1.813
 2714W        W74330  27.028  28.953   3.810
 2715W        W74331  11.940   3.757   1.915
 2716W        W74332  31.531  12.384  14.936
 2717W        W74333  27.032   5.109  10.344
 2718W        W74334  26.540  41.988  14.009
 2719W        W74335  25.972  14.356   0.274
 2720W        W74336  19.414  16.394  13.509
 2721W        W74337   2.837  44.728   3.626
 2722W        W74338  22.518  24.797   0.714
 2723W        W74339  41.680  44.784   4.157
 2724W        W74340   5.462  36.994  10.406
 2725W        W74341  23.829  35.826   1.216
 2726W        W74342  41.552  42.913   4.127
 2727W        W74343  13.679  43.910  13.049
 2728W        W74344  20.805  17.983  14.278
 2729W        W74345  31.593   6.424   4.789
 2730W        W74346  43.545  23.726   3.167
 2731W        W74347  15.660  11.531  12.076
 2732W        W74348  18.611   7.243   1.727
 2733W        W74349  17.094  17.301  12.997
 2734W        W74350  17.005   1.534  12.766
 2735W        W74351  37.629  16.438  12.045
 2736W        W74352   9.773  14.034   4.030
 2737W        W74353   3.845   5.877  11.167
 2738W        W74354  19.918  38.654  11.854
 2739W        W74355  24.169  11.321   4.256
 2740W        W74356   6.879  17.663  12.333
 2741W        W74357  13.840  23.725   3.304
 2742W        W74358  31.020  32.135   2.960
 2743W        W74359  24.565  44.558   3.214
 2744W        W74360  21.599  42.466   1.996
 2745W        W74361  20.743  43.493   4.640
 2746W        W74362  20.007   9.954  14.998
 2747W        W74363   9.664   7.598   3.737
 2748W        W74364  38.676  19.435   1.138
 2749W        W74365  40.533  18.774  14.871
 2750W        W74366   8.774  38.545   0.711
 2751W        W74367  38.966  15.654  14.286
 2752W        W74368  34.887   3.170  13.049
 2753W        W74369   0.808   1.845  10.807
 2754W        W74370   2.976  38.498   1.698
 2755W        W74371  25.624  44.787  10.386
 2756W        W74372  32.438  35.077   1.930
 2757W        W74373   6.485  30.821  12.367
 2758W        W74374  27.676  43.831   1.295
 2759W        W74375   8.887  40.811  11.622
 2760W        W74376  16.265   8.915   0.583
 2761W        W74377   5.533  20.816   0.263
 2762W        W74378  12.571  43.827  12.149
 2763W        W74379  21.176  42.974  13.539
 2764W        W74380   4.138  40.562  10.691
 2765W        W74381   9.816  17.905  13.493
 2766W        W74382  44.865  36.436  13.826
 2767W        W74383   1.016   7.892   1.826
 2768W        W74384   2.382  20.106   4.648
 2769W        W74385  29.046  30.177  10.670
 2770W        W74386   2.346   8.105   0.026
 2771W        W74387   0.294  43.825   4.671
 2772W        W74388   8.465  23.085   0.911
 2773W        W74389  18.059  20.546   4.129
 2774W        W74390  19.523  31.578  12.857
 2775W        W74391   2.720  13.061  14.445
 2776W        W74392   2.317  43.164  13.237
 2777W        W74393  12.155   4.645  13.838
 2778W        W74394  18.286  17.604   1.735
 2779W        W74395   5.312  16.219  10.493
 2780W        W74396  20.246   6.090   3.325
 2781W        W74397  15.283  23.671  12.909
 2782W        W74398  25.327  31.057   3.824
 2783W        W74399  24.653  36.757   4.121
 2784W        W74400  19.795  27.540   1.773
 2785W        W74401  20.216  42.339   1.710
 2786W        W74402  38.712  26.755   4.929
 2787W        W74403   3.752  40.057  13.851
 2788W        W74404   8.935  43.400  14.217
 2789W        W74405  44.378  28.238   0.893
 2790W        W74406  28.033  40.891   9.861
 2791W        W74407  19.667  25.272  13.106
 2792W        W74408  40.157   3.364  10.972
 2793W        W74409  16.772  12.704   2.769
 2794W        W74410  36.853   7.757  12.971
 2795W        W74411  31.289  18.531   3.163
 2796W        W74412  16.266  11.344  14.530
 2797W        W74413   2.104  44.842  10.630
 2798W        W74414   8.630   4.204  11.949
 2799W        W74415   2.479  34.494   4.536
 2800W        W74416  21.550   3.327  13.552
 2801W        W74417  15.638  33.855  11.503
 2802W        W74418  11.296  18.251   2.920
 2803W        W74419  11.089  34.675  11.660
 2804W        W74420  35.539  22.777   2.294
 2805W        W74421  32.424   7.358   4.231
 2806W        W74422  18.048  24.888  12.961
 2807W        W74423   6.681  36.960  13.827
 2808W        W74424  19.521  32.195   3.800
 2809W        W74425  36.276  26.990   1.871
 2810W        W74426   0.438  35.097   1.972
 2811W        W74427  20.627  41.285  13.532
 2812W        W74428  18.569  20.178   0.397
 2813W        W74429  20.892   4.579   5.088
 2814W        W74430  14.447  17.208   1.869
 2815W        W74431  15.132  41.433  11.217
 2816W        W74432  34.805  27.152  14.721
 2817W        W74433  25.947  31.899   0.835
 2818W        W74434  25.701  38.887   4.580
 2819W        W74435  21.746   6.659  14.863
 2820W        W74436  33.973  36.630   0.824
 2821W        W74437   9.449  31.455   2.138
 2822W        W74438  38.994  31.049   4.531
 2823W        W74439  25.640  32.897   4.739
 2824W        W74440   5.951  19.655   0.895
 2825W        W74441  23.150  19.090  10.921
 2826W        W74442  41.820  24.594  10.708
 2827W        W74443   8.968  43.812  11.030
 2828W        W74444  13.875   5.432  11.023
 2829W        W74445  22.224   3.372   0.193
 2830W        W74446  17.399   8.599   4.318
 2831W        W74447  28.139  33.254   1.044
 2832W        W74448   2.437  12.634   2.236
 2833W        W74449  33.317  12.244  10.632
 2834W        W74450  29.381  43.964   2.764
 2835W        W74451  28.735  32.162   2.431
 2836W        W74452  37.136  22.920   0.711
 2837W        W74453   5.170  39.390  13.913
 2838W        W74454   8.864  29.310   0.968
 2839W        W74455  35.134  10.597   3.560
 2840W        W74456  42.960  25.098   3.823
 2841W        W74457  11.831  26.195   3.272
 2842W        W74458   2.226  28.184  11.522
 2843W        W74459  33.389  34.830   3.162
 2844W        W74460  39.365  17.006  10.615
 2845W        W74461  10.124  40.526  12.853
 2846W        W74462  20.781  40.352   2.189
 2847W        W74463   7.841  25.473  14.881
 2848W        W74464  27.030  42.867   3.820
 2849W        W74465  12.188  40.905  12.922
 2850W        W74466   9.329  43.774  11.418
 2851W        W74467   6.180   6.948   1.848
 2852W        W74468   8.072  14.157  12.826
 2853W        W74469   6.569   9.720  12.538
 2854W        W74470  16.635  24.662   3.048
 2855W        W74471  25.085  21.236  12.543
 2856W        W74472  33.178  27.012   2.729
 2857W        W74473   8.829  44.649   1.249
 2858W        W74474  27.166  15.887  13.707
 2859W        W74475  39.062   4.981   2.278
 2860W        W74476  30.915  44.304  12.549
 2861W        W74477   7.399  32.595   0.490
 2862W        W74478  41.353  28.165  10.655
 2863W        W74479  38.909  22.832  13.449
 2864W        W74480   9.246  16.047   0.795
 2865W        W74481  41.385   6.619  13.463
 2866W        W74482  24.754  11.809   1.362
 2867W        W74483  18.210   5.171  10.707
 2868W        W74484  10.156  39.802  14.840
 2869W        W74485  31.277  16.043   0.337
 2870W        W74486  28.888  40.062   4.574
 2871W        W74487  36.708  14.652   2.946
 2872W        W74488  43.751  28.906  11.994
 2873W        W74489  21.159   4.132  12.912
 2874W        W74490  11.262   5.122   1.855
 2875W        W74491  40.194  24.326  11.119
 2876W        W74492  19.563   6.849   4.095
 2877W        W74493   2.017  12.046   2.813
 2878W        W74494  22.082  34.659   0.022
 2879W        W74495  19.073  10.171   2.086
 2880W        W74496  13.187  27.582   5.104
 2881W        W74497   7.218  40.501   2.220
 2882W        W74498   2.290   0.979  10.244
 2883W        W74499  26.463  38.261  12.122
 2884W        W74500  15.368   3.846  12.138
 2885W        W74501  41.499  18.190   3.632
 2886W        W74502   8.922  30.513   3.220
 2887W        W74503  37.047  11.910   0.266
 2888W        W74504  44.551  33.666   2.883
 2889W        W74505  34.473  30.929  12.017
 2890W        W74506  42.754  27.402   0.321
 2891W        W74507  37.900  37.068  10.441
 2892W        W74508  17.655  15.823  11.256
 2893W        W74509  42.924  33.979  13.479
 2894W        W74510  26.727  25.993  10.514
 2895W        W74511   9.217  40.980   2.857
 2896W        W74512  12.222  41.454   3.277
 2897W        W74513  24.185  38.084   1.414
 2898W        W74514   5.144  22.534   4.940
 2899W        W74515  35.453  17.640  14.044
 2900W        W74516   6.872  17.126  14.643
 2901W        W74517  44.226  22.421  10.329
 2902W        W74518  40.858   0.233   3.618
 2903W        W74519  10.254  35.422  13.085
 2904W        W74520  44.024  25.972   1.228
 2905W        W74521   6.707   4.378  14.855
 2906W        W74522   5.816  24.618  14.999
 2907W        W74523   0.332  39.457  14.737
 2908W        W74524  35.361   1.877  10.356
 2909W        W74525  30.470  20.143  12.525
 2910W        W74526  35.762   8.981  13.905
 2911W        W74527  31.250  41.369   0.517
 2912W        W74528   0.304  14.589   2.377
 2913W        W74529  26.795  21.149   2.230
 2914W        W74530  36.512  43.246  14.487
 2915W        W74531  36.835  18.795  11.066
 2916W        W74532   3.563  12.334  13.508
 2917W        W74533  44.858  14.188  10.786
 2918W        W74534   8.444  38.487  12.153
 2919W        W74535   5.335   1.896   3.207
 2920W        W74536  31.063  22.823   0.364
 2921W        W74537  15.344  32.360  13.767
 2922W        W74538  23.059  35.202  14.045
 2923W        W74539  35.433  14.569  13.841
 2924W        W74540  27.000  41.764   4.791
 2925W        W74541  39.235  21.020  14.309
 2926W        W74542  35.047   0.204   3.852
 2927W        W74543   0.206  11.917   1.817
 2928W        W74544  31.701  44.462  12.915
 2929W        W74545   3.207   2.148   2.016
 2930W        W74546  27.659  27.257   0.408
 2931W        W74547   8.153  34.879  11.101
 2932W        W74548  18.180  28.505   0.982
 2933W        W74549   8.639  41.898   0.329
 2934W        W74550   9.107  19.528   3.307
 2935W        W74551   8.447  30.118   4.204
 2936W        W74552   7.792  16.623  11.607
 2937W        W74553  32.947  39.844   0.365
 2938W        W74554  40.825  41.690   3.207
 2939W        W74555   4.766  11.301   2.774
 2940W        W74556   1.216  18.734   0.361
 2941W        W74557   0.741  22.245  12.809
 2942W        W74558  18.442  15.949  11.397
 2943W        W74559   2.821  32.655   2.099
 2944W        W74560  41.475  20.762  11.011
 2945W        W74561   4.962  14.743   0.499
 2946W        W74562   7.254  10.600   3.867
 2947W        W74563  24.532  36.665  11.990
 2948W        W74564  30.924  29.903  11.258
 2949W        W74565  39.204  42.842  10.067
 2950W        W74566  29.937  40.344   1.489
 2951W        W74567  44.717   1.784   1.823
 2952W        W74568  14.792  21.545   1.970
 2953W        W74569  26.645   1.433  14.093
 2954W        W74570  32.450   0.513  12.586
 2955W        W74571  11.182  13.807   4.072
 2956W        W74572  34.744  23.066  10.525
 2957W        W74573   2.682   9.753  14.643
 2958W        W74574  21.047   1.241  13.860
 2959W        W74575  28.383  14.783  14.358
 2960W        W74576  28.393  43.511  12.486
 2961W        W74577  35.341  34.937  12.816
 2962W        W74578   9.581  28.818   4.181
 2963W        W74579   8.800  22.515  12.962
 2964W        W74580  28.215   7.008   0.920
 2965W        W74581  26.144  43.858   1.411
 2966W        W74582  44.359   2.913   0.777
 2967W        W74583  22.923  41.489   0.994
 2968W        W74584   8.663  43.523   3.229
 2969W        W74585  41.017  12.701  13.791
 2970W        W74586   9.248  33.855   1.658
 2971W        W74587  34.487   4.163   4.591
 2972W        W74588  41.826   6.645  11.877
 2973W        W74589  21.103  22.930   0.263
 2974W        W74590  44.976  32.458   0.363
 2975W        W74591   6.452  19.593  11.938
 2976W        W74592  39.434   1.742   4.021
 2977W        W74593  20.937  38.286   1.444
 2978W        W74594  26.606   0.554   1.156
 2979W        W74595  20.113  33.659  13.353
 2980W        W74596   2.180  43.544  12.899
 2981W        W74597  37.391   4.578  13.905
 2982W        W74598  12.190  30.298  14.525
 2983W        W74599   7.009  39.002   4.208
 2984W        W74600  43.239  44.067  10.630
 2985W        W74601  14.683  29.985   0.756
 2986W        W74602  38.704  19.641  12.377
 2987W        W74603  14.831  25.016   2.389
 2988W        W74604  44.271   2.379   4.417
 2989W        W74605  10.188  23.102   4.696
 2990W        W74606   9.756  39.902  13.481
 2991W        W74607   6.908  39.214   1.114
 2992W        W74608  40.924  33.088   4.264
 2993W        W74609  30.452  23.278  14.926
 2994W        W74610  38.386   8.782  11.304
 2995W        W74611  10.955  36.290   0.830
 2996W        W74612  43.533  26.229   4.445
 2997W        W74613  25.753  31.461  13.536
 2998W        W74614  29.230  25.102  12.876
 2999W        W74615  41.827   8.708   4.075
 3000W        W74616  41.310   8.925  13.770
 3001W        W74617  18.660   6.450  12.505
 3002W        W74618  17.132  21.014   2.147
 3003W        W74619  36.834  42.900   1.023
 3004W        W74620   9.769   3.449   2.485
 3005W        W74621   1.198  39.014   0.942
 3006W        W74622   2.723  16.052  13.554
 3007W        W74623  32.371   6.851   0.422
 3008W        W74624  26.278  41.856   0.762
 3009W        W74625  24.642  28.455  13.390
 3010W        W74626   4.791  26.533  12.412
 3011W        W74627  20.305  34.863   4.972
 3012W        W74628  33.377  26.491   3.132
 3013W        W74629   8.352  31.422  12.522
 3014W        W74630  15.521  14.899  10.690
 3015W        W74631  24.047   4.753  12.102
 3016W        W74632  43.735  36.625   3.089
 3017W        W74633   7.367  17.033   3.972
 3018W        W74634  16.857   1.162  13.519
 3019W        W74635   6.775  40.376  12.908
 3020W        W74636   4.952  22.828   0.558
 3021W        W74637  42.408   1.960  10.896
 3022W        W74638  11.765  32.247  13.850
 3023W        W74639  42.992  27.681   3.232
 3024W        W74640  30.492  17.831   2.442
 3025W        W74641   5.066  29.146   1.815
 3026W        W74642   9.803   0.746  12.536
 3027W        W74643  19.881   7.382   1.319
 3028W        W74644   9.182  10.830  10.667
 3029W        W74645  23.083  28.045   2.812
 3030W        W74646   3.337  37.879   4.688
 3031W        W74647  31.628  18.740   0.508
 3032W        W74648   3.996  41.412   2.254
 3033W        W74649  11.743  41.484  10.173
 3034W        W74650   4.676  33.882  12.154
 3035W        W74651  11.624  22.635  11.493
 3036W        W74652  41.453   2.453  11.495
 3037W        W74653  40.644   8.770   0.346
 3038W        W74654  17.183  17.955   3.162
 3039W        W74655  14.957   3.345  11.205
 3040W        W74656  25.026  21.162  13.968
 3041W        W74657  26.179   7.882  11.618
 3042W        W74658  16.351  16.110   2.704
 3043W        W74659  21.895  14.015  12.330
 3044W        W74660  29.529   4.289   4.687
 3045W        W74661  41.281  32.562  13.535
 3046W        W74662  36.774  28.476  13.891
 3047W        W74663  17.617  39.724   4.853
 3048W        W74664  42.453  24.730   4.902
 3049W        W74665   8.169  26.445   4.153
 3050W        W74666   0.302  28.592  14.951
 3051W        W74667  40.254  25.317   2.394
 3052W        W74668  25.370   9.644   4.313
 3053W        W74669  16.517  35.350  12.593
 3054W        W74670  28.961  33.989   2.993
 3055W        W74671  11.725   5.780   3.105
 3056W        W74672  28.950  11.347   3.221
 3057W        W74673  24.870   5.705   2.181
 3058W        W74674  32.623  24.176  10.947
 3059W        W74675  44.209  24.479  13.484
 3060W        W74676  32.875   3.022   2.902
 3061W        W74677  21.604  41.778  13.140
 3062W        W74678  42.380  12.637  10.738
 3063W        W74679  36.768  31.684   3.362
 3064W        W74680  36.864  37.954  11.144
 3065W        W74681  26.664  37.550  12.611
 3066W        W74682   8.028  29.508   4.564
 3067W        W74683  23.545  19.189  14.280
 3068W        W74684  39.071  17.188  12.405
 3069W        W74685  16.626  21.764   1.999
 3070W        W74686  35.658   2.269   2.744
 3071W        W74687  37.504   7.560  11.123
 3072W        W74688  30.114  18.610   1.350
 3073W        W74689  17.707  43.446  12.891
 3074W        W74690  13.698  16.198   2.154
 3075W        W74691  31.555  31.923  10.682
 3076W        W74692  32.894  21.114   3.981
 3077W        W74693  33.391  35.321   3.340
 3078W        W74694  41.842   9.905   2.685
 3079W        W74695  43.718  14.024   4.238
 3080W        W74696  12.136   3.268   3.057
 3081W        W74697   2.808  31.551  12.163
 3082W        W74698   6.342  23.287   2.285
 3083W        W74699  24.245  14.314  14.275
 3084W        W74700  20.251  33.945  10.443
 3085W        W74701  24.029  12.384   1.291
 3086W        W74702  13.338  29.430   0.455
 3087W        W74703   2.679   5.258  13.013
 3088W        W74704  42.470   1.323  14.026
 3089W        W74705   5.439  29.683   0.436
 3090W        W74706   7.284  37.258   0.448
 3091W        W74707  18.889  30.136   1.012
 3092W        W74708  16.524  44.685  11.675
 3093W        W74709   9.289  18.647   4.459
 3094W        W74710  18.583  20.328  14.561
 3095W        W74711  25.884  32.389  10.688
 3096W        W74712   5.821  31.815   1.883
 3097W        W74713  43.978  43.419   2.369
 3098W        W74714   8.072  35.138  11.580
 3099W        W74715  11.796  39.508   4.219
 3100W        W74716  13.572  44.335   1.438
 3101W        W74717  20.190  22.511  13.577
 3102W        W74718  21.281  29.960  14.926
 3103W        W74719  19.193  41.564  12.887
 3104W        W74720  44.177  32.333   2.418
 3105W        W74721  27.222  26.822  12.848
 3106W        W74722  39.844   5.972  13.330
 3107W        W74723  25.244  31.166  10.560
 3108W        W74724  17.153   3.706  10.876
 3109W        W74725  38.459  23.465   4.772
 3110W        W74726  20.770  33.302   2.458
 3111W        W74727  26.570  10.293  11.568
 3112W        W74728   4.893  32.963  13.059
 3113W        W74729  13.689   7.316   3.431
 3114W        W74730   3.709  27.942   2.722
 3115W        W74731  18.228   5.064  11.669
 3116W        W74732  12.655  39.045  11.789
 3117W        W74733   2.392   2.409   3.187
 3118W        W74734  31.539  35.902   3.956
 3119W        W74735   8.089  44.910   2.359
 3120W        W74736   7.654  43.258  11.422
 3121W        W74737  14.747  11.770   4.373
 3122W        W74738   2.662   7.051  10.219
 3123W        W74739  19.357   3.208  13.977
 3124W        W74740  13.652  25.085   1.831
 3125W        W74741  37.282   1.777   3.206
 3126W        W74742  17.249   3.768  13.626
 3127W        W74743   9.372  34.673  11.600
 3128W        W74744   0.467  26.960  12.339
 3129W        W74745  40.276  38.561  14.381
 3130W        W74746  44.423  41.752   0.988
 3131W        W74747  13.941  21.012  14.482
 3132W        W74748  23.204  14.288  14.480
 3133W        W74749  36.605   2.237   0.827
 3134W        W74750  17.385   2.270   3.055
 3135W        W74751   3.928  16.170   4.890
 3136W        W74752  42.196  26.755  10.806
 3137W        W74753  33.233  28.948   3.243
 3138W        W74754  31.571  13.769   4.278
 3139W        W74755   8.632  27.947   4.648
 3140W        W74756   6.183   2.315   0.145
 3141W        W74757  37.537   1.864  12.561
 3142W        W74758  23.169  25.392  11.161
 3143W        W74759  42.226  29.117  10.685
 3144W        W74760   4.524  40.898   2.920
 3145W        W74761  13.399  13.193  14.383
 3146W        W74762  14.362  28.239  13.817
 3147W        W74763  14.659  33.563   4.602
 3148W        W74764   6.969  11.848   2.216
 3149W        W74765  42.818  17.674   0.468
 3150W        W74766  36.637  10.852  13.131
 3151W        W74767  13.048  32.157   4.836
 3152W        W74768  41.435  30.492   2.306
 3153W        W74769  17.218  33.354  10.350
 3154W        W74770  44.562  18.360  11.121
 3155W        W74771   3.253  21.492  11.108
 3156W        W74772  12.870   6.868  13.003
 3157W        W74773   4.172  12.335   1.767
 3158W        W74774  34.838  15.288  12.462
 3159W        W74775   8.900  32.669   0.302
 3160W        W74776  36.442   6.637   4.144
 3161W        W74777  10.486  39.934   1.495
 3162W        W74778   1.823  35.850  11.584
 3163W        W74779  10.077  11.986   1.106
 3164W        W74780   9.614  34.414   4.922
 3165W        W74781  23.191  15.117  12.496
 3166W        W74782  41.358  41.631  12.024
 3167W        W74783  41.180  39.886  14.687
 3168W        W74784  37.531  27.142   2.249
 3169W        W74785  15.673  22.785  12.616
 3170W        W74786  26.535   4.064  11.517
 3171W        W74787   4.396  43.184   4.097
 3172W        W74788  26.034   4.238  11.655
 3173W        W74789  13.701   6.937  14.408
 3174W        W74790   1.505  23.648   0.158
 3175W        W74791   1.264  16.876  13.097
 3176W        W74792  17.542   1.192   3.698
 3177W        W74793  20.890  10.275   2.736
 3178W        W74794  22.720  40.081   3.231
 3179W        W74795  18.217  44.298   3.238
 3180W        W74796  14.084  18.248   5.508
 3181W        W74797   1.258  26.966  13.068
 3182W        W74798  10.320  36.550  14.181
 3183W        W74799   6.669  11.351  11.096
 3184W        W74800  24.993  20.110   1.957
 3185W        W74801  11.258   5.873  13.973
 3186W        W74802  38.538  19.945   2.348
 3187W        W74803   7.439   1.379  11.647
 3188W        W74804   1.386  20.274   4.668
 3189W        W74805   6.884   9.411   4.572
 3190W        W74806   3.307   2.238   4.980
 3191W        W74807  35.757  23.653  14.861
 3192W        W74808   1.880  25.421   1.231
 3193W        W74809  36.710  29.831  11.878
 3194W        W74810  35.843  41.950   4.608
 3195W        W74811  13.663  43.266   4.189
 3196W        W74812  38.225  20.931   2.409
 3197W        W74813  26.929   2.742   4.630
 3198W        W74814  33.513   1.779  14.076
 3199W        W74815  32.981  32.600  11.130
 3200W        W74816  43.011  10.696   0.282
 3201W        W74817  21.086  19.490  14.827
 3202W        W74818   5.134  43.867   2.791
 3203W        W74819   9.601  12.674  12.542
 3204W        W74820  29.459   3.678   0.828
 3205W        W74821   6.020   9.263  11.953
 3206W        W74822  27.580  29.976  14.483
 3207W        W74823   0.341  29.531   4.363
 3208W        W74824  42.755   9.943   1.791
 3209W        W74825   5.147  44.255  14.330
 3210W        W74826  35.617  31.237  14.401
 3211W        W74827  23.611  15.503   2.384
 3212W        W74828  26.128  14.187  11.686
 3213W        W74829  40.533  42.067   1.343
 3214W        W74830  24.694  25.908   4.610
 3215W        W74831  40.539  30.084   4.553
 3216W        W74832  37.767  35.220   1.670
 3217W        W74833  18.466  27.434  13.405
 3218W        W74834  12.676   8.898  10.457
 3219W        W74835  44.323  14.846   2.356
 3220W        W74836   9.969  35.563  14.414
 3221W        W74837  27.558  32.604   2.105
 3222W        W74838  17.096  34.944   4.498
 3223W        W74839  20.540  16.751   4.593
 3224W        W74840  19.008  36.827   0.674
 3225W        W74841  38.094  13.810   2.460
 3226W        W74842  23.178  18.833  14.436
 3227W        W74843   2.250  21.679   4.918
 3228W        W74844  20.241  43.849   2.510
 3229W        W74845  21.513   2.861   0.039
 3230W        W74846  33.971  32.494  13.087
 3231W        W74847  39.124  23.010   2.923
 3232W        W74848  13.685  36.921   3.810
 3233W        W74849   3.014  29.502  14.386
 3234W        W74850  36.635  14.033  13.462
 3235W        W74851  15.239  12.927   1.632
 3236W        W74852  44.447  32.765  11.715
 3237W        W74853  24.988  11.643   5.317
 3238W        W74854  25.932  41.484   0.827
 3239W        W74855   8.337  25.680  14.717
 3240W        W74856   8.704   3.673  14.475
 3241W        W74857  19.938  21.157   0.902
 3242W        W74858  29.762  10.974  14.688
 3243W        W74859  29.002   3.951  10.694
 3244W        W74860  28.468  19.432   0.960
 3245W        W74861  35.304  14.064   4.599
 3246W        W74862  10.478  17.184   0.328
 3247W        W74863   0.274  19.894   4.068
 3248W        W74864   2.975   3.136   1.141
 3249W        W74865  18.069   1.760   3.361
 3250W        W74866  40.043  30.494  14.535
 3251W        W74867   3.081  31.169  13.424
 3252W        W74868   8.776  26.155   3.285
 3253W        W74869  20.557   9.281   2.139
 3254W        W74870  40.011  12.112   3.796
 3255W        W74871   3.270  38.792  13.585
 3256W        W74872  14.260  20.637   3.924
 3257W        W74873  40.786  44.875   2.210
 3258W        W74874   7.846   6.410  14.762
 3259W        W74875  10.374  17.731   1.248
 3260W        W74876  31.615   1.647   4.555
 3261W        W74877   3.854  22.963  10.219
 3262W        W74878  33.551  10.584  14.693
 3263W        W74879  15.357  33.047  10.401
 3264W        W74880  15.326  35.982   1.301
 3265W        W74881  36.498  37.354  13.756
 3266W        W74882  38.043  12.265  10.327
 3267W        W74883  32.166   4.793   0.162
 3268W        W74884   5.248  14.879   1.159
 3269W        W74885   0.239  33.276  10.699
 3270W        W74886  20.188  15.629  12.159
 3271W        W74887  17.106  38.500   3.731
 3272W        W74888  27.668  37.567   2.256
 3273W        W74889  34.491   8.426  12.334
 3274W        W74890  36.893  11.685  11.414
 3275W        W74891   2.747  16.112   4.861
 3276W        W74892   2.923  13.148   3.905
 3277W        W74893  42.396   9.914   2.151
 3278W        W74894  23.479  38.626  11.710
 3279W        W74895  14.778  37.576   2.882
 3280W        W74896  42.265  35.154  14.081
 3281W        W74897  43.899  16.317   1.705
 3282W        W74898   1.352  21.466   1.415
 3283W        W74899  15.697  29.337   1.407
 3284W        W74900  11.828  19.982  13.206
 3285W        W74901  18.101  19.296   2.560
 3286W        W74902  27.098  19.387  13.407
 3287W        W74903  14.820  42.206   0.090
 3288W        W74904  27.124  18.517  11.468
 3289W        W74905  13.814   5.024  11.884
 3290W        W74906  29.463  26.270  13.464
 3291W        W74907  25.422  39.488   4.566
 3292W        W74908   2.777  30.887   2.166
 3293W        W74909  10.621  16.109   0.799
 3294W        W74910  33.865  16.083  14.561
 3295W        W74911   0.899  35.865   2.130
 3296W        W74912   1.774  25.935   1.301
 3297W        W74913  13.651  21.077   3.380
 3298W        W74914  30.064  33.042   2.391
 3299W        W74915   8.970  41.394   1.387
 3300W        W74916  15.808   1.946  11.594
 3301W        W74917  13.873   7.927   4.166
 3302W        W74918  11.747  37.464   1.394
 3303W        W74919  13.063  20.639  12.440
 3304W        W74920  25.633  40.923  14.942
 3305W        W74921   0.835  24.527   5.138
 3306W        W74922   1.187   0.159   1.838
 3307W        W74923  41.815  41.258   3.787
 3308W        W74924   9.885  12.380   1.385
 3309W        W74925  43.217   5.994  12.863
 3310W        W74926   2.699  32.544  13.520
 3311W        W74927  31.572   3.914   4.142
 3312W        W74928  37.979  18.519   4.542
 3313W        W74929   7.344  28.284  14.019
 3314W        W74930  30.416  15.410   4.885
 3315W        W74931  22.654  33.085   2.753
 3316W        W74932  16.789  17.976   0.752
 3317W        W74933  14.331  14.178   3.123
 3318W        W74934  40.498  28.293   0.156
 3319W        W74935  25.177  25.929   4.396
 3320W        W74936   1.408  23.976  11.820
 3321W        W74937   1.451  23.016  12.089
 3322W        W74938  14.393   1.508  12.562
 3323W        W74939   6.508  36.647   0.546
 3324W        W74940   5.651  41.045   0.826
 3325W        W74941  19.354  27.616   2.821
 3326W        W74942  41.878  20.296   3.387
 3327W        W74943  16.059   3.896  13.677
 3328W        W74944  21.493  17.779   0.214
 3329W        W74945   3.346  19.277   1.475
 3330W        W74946  35.654  41.033  13.159
 3331W        W74947  28.511  37.818  14.494
 3332W        W74948  36.271  20.361  14.639
 3333W        W74949  23.675  14.242   1.034
 3334W        W74950  37.424  22.906   1.657
 3335W        W74951  25.239  20.529   1.238
 3336W        W74952  14.517   2.354  11.988
 3337W        W74953  27.769   6.576   3.785
 3338W        W74954  29.017  39.565   1.244
 3339W        W74955   2.463   8.363  10.634
 3340W        W74956  32.721  10.264   1.201
 3341W        W74957   3.317  37.544  11.497
 3342W        W74958  16.077  31.163  11.757
 3343W        W74959  27.005  37.330  11.945
 3344W        W74960  36.996  15.827   2.347
 3345W        W74961  38.501  37.919   2.262
 3346W        W74962  22.500  32.491  13.028
 3347W        W74963  32.527  16.087   3.323
 3348W        W74964  25.515   3.770   0.395
 3349W        W74965   1.125  39.814   4.589
 3350W        W74966  37.416   3.624  13.240
 3351W        W74967  22.617  12.259  13.450
 3352W        W74968  32.519  23.010   2.163
 3353W        W74969   3.213  20.961   5.040
 3354W        W74970  18.546   0.220  13.950
 3355W        W74971   2.670  20.085   4.230
 3356W        W74972  18.711  38.578  14.092
 3357W        W74973  29.348   0.361   0.787
 3358W        W74974  35.867  43.643   2.019
 3359W        W74975  20.999   7.719   1.367
 3360W        W74976  28.994  24.922  13.325
 3361W        W74977  10.809  13.196   4.899
 3362W        W74978  38.624   4.662  13.822
 3363W        W74979  18.680  11.941  12.502
 3364W        W74980  26.611  21.999  13.924
 3365W        W74981   0.776   6.122  14.119
 3366W        W74982  35.924  25.753  10.705
 3367W        W74983   3.010  22.130  13.838
 3368W        W74984  10.563  43.949   2.349
 3369W        W74985  35.517  34.004  14.754
 3370W        W74986   9.959  10.011  11.591
 3371W        W74987   2.371  24.010  14.905
 3372W        W74988  35.269   8.382   0.072
 3373W        W74989  44.120  15.537  10.884
 3374W        W74990  11.896  27.808   2.236
 3375W        W74991  15.204  25.990  10.705
 3376W        W74992  26.873  40.643  11.569
 3377W        W74993   6.221   8.253   4.531
 3378W        W74994  22.489  14.807   2.728
 3379W        W74995   3.937  42.087   3.737
 3380W        W74996  35.772   3.627  14.579
 3381W        W74997  41.198   4.294  10.663
 3382W        W74998  34.085   5.633  11.435
 3383W        W74999  11.802  36.795   0.930
 3384W        W75000  21.553  44.793   1.973
 3385W        W75001  31.595   8.960  12.056
 3386W        W75002   9.692  22.755  11.072
 3387W        W75003   6.162  34.578   1.199
 3388W        W75004   6.533  34.623   3.603
 3389W        W75005  31.063  22.915  14.412
 3390W        W75006  41.012  30.930   1.684
 3391W        W75007  27.929  21.246  14.514
 3392W        W75008   7.543  23.269  13.256
 3393W        W75009  25.026  35.900   4.366
 3394W        W75010  29.187  27.616   2.337
 3395W        W75011  27.735  18.101  12.481
 3396W        W75012   3.765  24.959   0.339
 3397W        W75013  19.061  28.001   0.819
 3398W        W75014   3.009   1.380  11.082
 3399W        W75015  21.625  26.929   3.308
 3400W        W75016  20.774  35.031   1.619
 3401W        W75017  15.024  43.366  13.829
 3402W        W75018  29.677  40.352  12.617
 3403W        W75019  27.017  26.165   1.910
 3404W        W75020  41.321  31.341  14.961
 3405W        W75021  14.514  10.178  14.226
 3406W        W75022  28.643  22.376  12.090
 3407W        W75023  33.735  14.678  10.615
 3408W        W75024  32.521  23.556   4.641
 3409W        W75025  19.513  17.271  10.699
 3410W        W75026  32.962  40.954  12.509
 3411W        W75027  21.883  18.063   2.870
 3412W        W75028  22.960  39.939   4.059
 3413W        W75029  23.039  42.690   1.817
 3414W        W75030   7.618  30.372  12.173
 3415W        W75031  12.732  18.884  12.184
 3416W        W75032  16.569  12.163  14.025
 3417W        W75033   1.285   5.984   1.151
 3418W        W75034   1.056  37.941  13.466
 3419W        W75035  37.701  42.823  14.792
 3420W        W75036  23.332  23.104  12.591
 3421W        W75037  18.595  16.565  13.848
 3422W        W75038  38.698  20.979   2.211
 3423W        W75039  43.721  32.597  13.456
 3424W        W75040  10.204  17.233   3.673
 3425W        W75041  12.659  24.990   3.152
 3426W        W75042  35.128  16.580   4.478
 3427W        W75043   8.896  21.248  13.469
 3428W        W75044  10.010  31.666  14.868
 3429W        W75045  38.408   1.808  10.693
 3430W        W75046  21.703   5.278   4.528
 3431W        W75047   5.685  14.164   4.701
 3432W        W75048   3.348  41.021  11.404
 3433W        W75049  33.541  25.424   2.201
 3434W        W75050   6.804  26.839  12.520
 3435W        W75051  10.815  12.562   3.747
 3436W        W75052  24.174  43.052  14.783
 3437W        W75053  44.520   4.337   3.250
 3438W        W75054  18.162  15.604   2.326
 3439W        W75055  18.632   4.829   2.344
 3440W        W75056  10.560  32.409  14.274
 3441W        W75057  22.368   7.176  12.106
 3442W        W75058  11.313  29.674   1.462
 3443W        W75059  34.987  31.447  10.678
 3444W        W75060   0.460  32.818   3.342
 3445W        W75061  32.083  22.206   2.938
 3446W        W75062   8.692  25.552   1.832
 3447W        W75063  30.237  11.227  13.267
 3448W        W75064  41.892  18.117  14.922
 3449W        W75065  34.108  24.721  12.338
 3450W        W75066  33.136  24.454  12.310
 3451W        W75067   3.181  42.967  10.478
 3452W        W75068   3.940  31.867  13.560
 3453W        W75069  23.959  40.287   4.989
 3454W        W75070   2.910   6.035   3.221
 3455W        W75071  13.866  15.809  11.161
 3456W        W75072   2.287  23.111  12.712
 3457W        W75073  36.501   7.345   4.123
 3458W        W75074  44.039   8.454  14.937
 3459W        W75075  15.564  21.808  12.547
 3460W        W75076  42.300  40.883   0.692
 3461W        W75077  11.862   3.534  12.098
 3462W        W75078  26.197  32.390  13.376
 3463W        W75079   4.731  39.037   4.665
 3464W        W75080  25.432  29.988  13.048
 3465W        W75081  21.961  43.978   0.445
 3466W        W75082   4.592  34.073   1.763
 3467W        W75083  41.316   1.975  10.939
 3468W        W75084  19.204  11.793   4.249
 3469W        W75085  41.066  34.042  10.647
 3470W        W75086  30.216  31.537   4.108
 3471W        W75087  35.907  36.267   1.128
 3472W        W75088  14.141  43.566   0.373
 3473W        W75089  24.634  14.717  11.707
 3474W        W75090  22.996   4.363  13.301
 3475W        W75091   9.507  21.886  13.845
 3476W        W75092   7.412  14.100  14.957
 3477W        W75093  30.525  44.911  10.592
 3478W        W75094  30.463  44.876   4.744
 3479W        W75095  34.108   9.918   4.342
 3480W        W75096  29.657   3.286   4.710
 3481W        W75097  18.714  26.176   2.826
 3482W        W75098  38.404   8.501  10.478
 3483W        W75099  10.339  33.371   0.006
 3484W        W75100   3.609  27.862   0.754
 3485W        W75101  29.281  44.137  12.838
 3486W        W75102  29.143   8.170  13.475
 3487W        W75103  15.358  30.987   4.620
 3488W        W75104  42.568  23.013   0.504
 3489W        W75105  21.110  29.176   0.410
 3490W        W75106  42.793  21.210  11.692
 3491W        W75107  35.541  23.996  12.914
 3492W        W75108  32.225   1.667  12.039
 3493W        W75109  22.504  17.392  10.643
 3494W        W75110  15.625  13.337  13.735
 3495W        W75111  44.600  38.580  11.093
 3496W        W75112   0.797   7.701   3.762
 3497W        W75113  10.892  43.074   1.440
 3498W        W75114  10.829  42.966  10.662
 3499W        W75115  38.963  29.396   4.147
 3500W        W75116  35.089  25.253  12.007
 3501W        W75117  26.537  42.506  12.469
 3502W        W75118  42.510  36.104  13.875
 3503W        W75119  34.919   0.338   1.996
 3504W        W75120  15.691  18.337   1.485
 3505W        W75121  34.742  37.234  14.854
 3506W        W75122   5.384  39.518  14.370
 3507W        W75123  19.640  12.300   2.271
 3508W        W75124   9.168  26.795  12.480
 3509W        W75125  10.109  24.990   3.628
 3510W        W75126  42.194  37.616   0.237
 3511W        W75127  30.869  15.196   4.530
 3512W        W75128  12.973  23.849  13.851
 3513W        W75129  39.420  24.234   3.262
 3514W        W75130  25.688  37.996  14.960
 3515W        W75131   2.027  16.064   1.649
 3516W        W75132   4.756  32.301  14.066
 3517W        W75133  21.396  22.060   1.519
 3518W        W75134  20.502  18.819   0.289
 3519W        W75135  21.709  30.106  12.518
 3520W        W75136  11.745  31.224  13.859
 3521W        W75137  32.347  38.293  13.757
 3522W        W75138  24.939  43.161   1.927
 3523W        W75139  33.509   7.905  11.153
 3524W        W75140   3.798   7.890   4.787
 3525W        W75141  32.013  12.179   4.035
 3526W        W75142  19.292  38.490  11.899
 3527W        W75143   0.050  27.083   1.712
 3528W        W75144  27.976  13.981   9.676
 3529W        W75145  39.524  27.653  12.496
 3530W        W75146  42.824  23.797  12.502
 3531W        W75147  43.365  34.834   1.810
 3532W        W75148  29.495   1.219  11.121
 3533W        W75149  21.525  39.739  13.448
 3534W        W75150  27.938  29.454   3.115
 3535W        W75151  35.376  15.419  13.344
 3536W        W75152  39.920  15.329   1.730
 3537W        W75153  40.363   7.679  12.979
 3538W        W75154   3.891  20.583   2.277
 3539W        W75155  27.075  33.367   1.887
 3540W        W75156  29.271  44.241  14.910
 3541W        W75157  26.225  12.410  14.469
 3542W        W75158   3.784   8.496  12.031
 3543W        W75159  29.015  22.714  11.039
 3544W        W75160  14.291  36.015   4.584
 3545W        W75161   7.817  17.175  11.152
 3546W        W75162  30.422   6.053   0.672
 3547W        W75163  10.135  16.335   1.505
 3548W        W75164   7.700  13.129   4.332
 3549W        W75165  29.500  31.004   4.103
 3550W        W75166  42.923  15.347   3.203
 3551W        W75167  11.700  26.032   1.375
 3552W        W75168   8.493  30.690   3.834
 3553W        W75169  17.186  28.260  11.712
 3554W        W75170  38.991   3.551   3.673
 3555W        W75171  20.961  29.068  10.618
 3556W        W75172  12.361   6.777  10.859
 3557W        W75173  24.415   8.840  10.617
 3558W        W75174  32.133   7.709   2.259
 3559W        W75175  36.976  14.895   2.585
 3560W        W75176  29.009  43.480   2.309
 3561W        W75177  29.719   5.123   1.030
 3562W        W75178   6.334  23.511  12.118
 3563W        W75179  23.486  13.087   4.452
 3564W        W75180  39.135  44.729  11.989
 3565W        W75181  25.193  14.234   0.542
 3566W        W75182  31.193  34.365  12.407
 3567W        W75183  33.818  11.655   1.343
 3568W        W75184   9.669   6.360  14.222
 3569W        W75185  16.016  20.239  12.440
 3570W        W75186   3.542  18.160   3.177
 3571W        W75187  20.134   4.857  13.635
 3572W        W75188  14.877   1.768  12.575
 3573W        W75189  29.085  14.202   1.500
 3574W        W75190   9.055  30.339   2.748
 3575W        W75191  21.351   8.687   0.307
 3576W        W75192  29.707  22.061   1.889
 3577W        W75193  40.988  22.739   0.160
 3578W        W75194  41.786  44.255   1.156
 3579W        W75195  13.663  33.582  13.666
 3580W        W75196  15.156   9.832   2.033
 3581W        W75197  18.754  28.684  11.890
 3582W        W75198  19.571  27.094   1.610
 3583W        W75199  28.998  41.285  14.794
 3584W        W75200  19.567  31.899  14.932
 3585W        W75201  22.495  43.886   3.753
 3586W        W75202  36.815  38.522   3.847
 3587W        W75203  32.866  21.130  14.362
 3588W        W75204  25.390   4.884   3.202
 3589W        W75205  15.237  42.921  11.165
 3590W        W75206  34.116  27.870   1.638
 3591W        W75207   9.574  11.405   0.352
 3592W        W75208  42.478  43.251  14.886
 3593W        W75209  28.948  17.646  14.386
 3594W        W75210  30.016  23.726   4.499
 3595W        W75211  26.189  30.437  14.236
 3596W        W75212   6.503  39.059  13.853
 3597W        W75213  10.753  19.699  12.916
 3598W        W75214  30.375  23.362   2.357
 3599W        W75215  14.099  37.467   2.709
 3600W        W75216   1.992  10.100  12.203
 3601W        W75217  15.597  37.640  11.771
 3602W        W75218  39.904  38.259  13.328
 3603W        W75219  33.921  25.148  13.380
 3604W        W75220   0.440  15.787   4.586
 3605W        W75221   8.719   7.736   0.064
 3606W        W75222  38.972   5.106  12.470
 3607W        W75223  14.815  26.127  13.602
 3608W        W75224  42.997  38.493   4.759
 3609W        W75225  21.761  40.300   0.410
 3610W        W75226  25.436  28.129   3.161
 3611W        W75227   1.914  40.534   3.369
 3612W        W75228  27.660  19.317   3.171
 3613W        W75229  10.388  20.775   4.960
 3614W        W75230  35.563  27.149   4.714
 3615W        W75231   0.455   4.223   0.184
 3616W        W75232   1.406  31.238   0.799
 3617W        W75233  15.413  30.238   4.978
 3618W        W75234   9.062  31.920   1.351
 3619W        W75235  26.661  25.027  13.147
 3620W        W75236  19.268   7.830  11.285
 3621W        W75237   6.536  31.030   3.092
 3622W        W75238   5.108   3.864  14.375
 3623W        W75239  29.893  12.744   0.854
 3624W        W75240  20.776  34.625  13.867
 3625W        W75241  14.544  30.392  12.554
 3626W        W75242   4.797   0.708   3.848
 3627W        W75243  12.296  23.295  13.231
 3628W        W75244  42.671  43.165   2.670
 3629W        W75245  40.458   4.490  13.224
 3630W        W75246  41.338  21.307  10.364
 3631W        W75247  39.770   8.211   2.302
 3632W        W75248   3.999  33.378  14.985
 3633W        W75249  26.622  31.441   2.315
 3634W        W75250   0.794   1.725  11.800
 3635W        W75251  38.841   6.422   3.715
 3636W        W75252  27.546   5.624  13.072
 3637W        W75253   2.204  24.237   0.953
 3638W        W75254  22.042  10.508  11.560
 3639W        W75255  19.991  31.078   3.366
 3640W        W75256   3.805  35.837   2.338
 3641W        W75257   5.271  25.118   1.176
 3642W        W75258  40.590  15.151   1.043
 3643W        W75259  18.082  14.735  13.923
 3644W        W75260  37.429  13.798  12.552
 3645W        W75261  14.546  32.125  12.107
 3646W        W75262  40.123  17.104  10.614
 3647W        W75263  16.654  22.524  14.204
 3648W        W75264  10.283   3.526  14.437
 3649W        W75265  19.257  12.224   0.263
 3650W        W75266   9.595  41.975  13.908
 3651W        W75267  29.266  31.418   0.652
 3652W        W75268   9.215  17.374  12.519
 3653W        W75269  36.094  30.630  12.332
 3654W        W75270  26.553  21.008  13.723
 3655W        W75271  31.665  40.425   0.330
 3656W        W75272  10.598  33.619   1.847
 3657W        W75273  28.002  35.871   4.132
 3658W        W75274  35.468  37.815  10.883
 3659W        W75275  30.814  16.850   1.286
 3660W        W75276  32.860   1.457  13.010
 3661W        W75277  31.092   7.376  14.005
 3662W        W75278  29.027  20.063  10.410
 3663W        W75279   8.911  12.545   0.049
 3664W        W75280  31.590  22.475  12.509
 3665W        W75281   6.944   5.237  11.243
 3666W        W75282   4.009  21.688   2.663
 3667W        W75283   7.429  33.413   3.882
 3668W        W75284  43.254  26.195   2.794
 3669W        W75285  20.124  24.782   0.756
 3670W        W75286  30.006  40.331   2.030
 3671W        W75287  42.585  23.154  11.892
 3672W        W75288  23.578  29.564  12.086
 3673W        W75289   1.947  29.024   0.667
 3674W        W75290  28.878  25.197   1.116
 3675W        W75291  26.024   5.210  10.716
 3676W        W75292  39.456  20.581   3.708
 3677W        W75293  14.555  36.543  14.319
 3678W        W75294  12.354  15.588  14.857
 3679W        W75295  19.638   9.646  13.047
 3680W        W75296  14.276  42.458   3.171
 3681W        W75297   1.564  38.028  12.571
 3682W        W75298  34.121  11.903  10.751
 3683W        W75299  25.759  37.351   3.621
 3684W        W75300  29.083  41.153  12.132
 3685W        W75301  20.349  42.291  12.046
 3686W        W75302  11.586  36.529   2.716
 3687W        W75303  25.736  33.210  11.034
 3688W        W75304  20.259  32.419   2.852
 3689W        W75305  25.487  11.929  12.918
 3690W        W75306  32.333  21.172  14.425
 3691W        W75307  12.170   3.427   4.610
 3692W        W75308   6.231  43.369  11.941
 3693W        W75309  39.492  41.373   4.037
 3694W        W75310   8.712  36.890   2.369
 3695W        W75311  19.698  20.799  11.104
 3696W        W75312  33.070  43.851  10.840
 3697W        W75313  37.375  22.122   2.753
 3698W        W75314  36.177   7.387  11.171
 3699W        W75315   2.521  42.514  11.957
 3700W        W75316   5.238  17.979   1.446
 3701W        W75317   8.827  20.704  11.139
 3702W        W75318  37.627  34.101  11.568
 3703W        W75319  41.349   5.844   4.723
 3704W        W75320  10.009  25.220   4.119
 3705W        W75321  17.722   8.214   4.107
 3706W        W75322  41.063  32.015  14.989
 3707W        W75323  19.967  40.966   2.157
 3708W        W75324   7.134  38.406   3.151
 3709W        W75325  40.053  12.791  13.558
 3710W        W75326  21.703   9.283   2.370
 3711W        W75327   5.696   5.441  14.448
 3712W        W75328  18.012  10.358  10.507
 3713W        W75329  12.591   1.016  12.508
 3714W        W75330   1.082   3.703  12.388
 3715W        W75331  16.372  24.677   1.488
 3716W        W75332  43.468   4.402  13.060
 3717W        W75333  38.303   8.088   2.694
 3718W        W75334  15.006  40.308  11.964
 3719W        W75335  24.290  31.857   3.649
 3720W        W75336   8.336  29.459  12.568
 3721W        W75337  33.731  28.028   1.964
 3722W        W75338  42.820   9.625   2.206
 3723W        W75339  33.475   8.880  14.064
 3724W        W75340  20.630  30.131   1.285
 3725W        W75341  13.081  22.628   3.597
 3726W        W75342  38.366   8.896  11.790
 3727W        W75343  15.434   7.324  14.784
 3728W        W75344  19.948   8.255   2.713
 3729W        W75345   3.947  35.563  14.020
 3730W        W75346  14.699  43.924  13.337
 3731W        W75347  14.193  37.645   0.380
 3732W        W75348   7.991  29.072  12.477
 3733W        W75349  44.667  21.997   4.567
 3734W        W75350  26.924  10.561  11.164
 3735W        W75351  27.415   6.319   3.133
 3736W        W75352  28.018   0.323   4.440
 3737W        W75353  26.071  38.809  14.362
 3738W        W75354  29.966  26.157  13.457
 3739W        W75355   1.890  26.007   1.822
 3740W        W75356  28.786  42.009  12.636
 3741W        W75357  31.571   3.528   0.695
 3742W        W75358  24.416  23.504   0.328
 3743W        W75359  40.269   1.782  10.675
 3744W        W75360  19.973  41.000   0.274
 3745W        W75361  18.851  13.896   4.976
 3746W        W75362  21.076  14.114  10.212
 3747W        W75363  20.958   4.101   0.958
 3748W        W75364  26.041  12.837   2.289
 3749W        W75365  41.709  23.503   1.400
 3750W        W75366  34.045  12.326  13.714
 3751W        W75367   3.208  12.541  12.209
 3752W        W75368   9.407  41.032   1.318
 3753W        W75369  30.685  33.581   1.942
 3754W        W75370  13.341  19.263  10.638
 3755W        W75371  21.488  43.375  11.869
 3756W        W75372  31.163  34.430  11.511
 3757W        W75373  26.715  30.503   4.596
 3758W        W75374  27.584   7.093   4.911
 3759W        W75375  35.924  34.456  12.361
 3760W        W75376   8.210   3.493   3.774
 3761W        W75377  31.176   4.193  14.441
 3762W        W75378  14.254   2.893  11.262
 3763W        W75379   2.495  25.473   3.225
 3764W        W75380  13.932  31.823   5.304
 3765W        W75381  22.821  11.739  14.308
 3766W        W75382  34.863  33.084  10.572
 3767W        W75383  31.107  20.622  11.203
 3768W        W75384  39.246  33.965   2.681
 3769W        W75385  14.308   5.800  12.930
 3770W        W75386  10.213  27.104   4.366
 3771W        W75387  44.996  13.384   4.638
 3772W        W75388  10.116  30.174   1.395
 3773W        W75389  33.575   4.574   1.055
 3774W        W75390  20.993  25.284   4.062
 3775W        W75391  42.537   9.668   0.809
 3776W        W75392  33.481   0.798   1.723
 3777W        W75393   5.392  13.912   0.788
 3778W        W75394  27.167  42.775  14.829
 3779W        W75395  38.814  14.644  14.059
 3780W        W75396  18.175  35.942   2.823
 3781W        W75397  41.976  17.094  11.377
 3782W        W75398  33.425  24.729   0.057
 3783W        W75399  42.233  29.621   2.273
 3784W        W75400  12.849   0.923   4.128
 3785W        W75401  26.096   2.053   3.234
 3786W        W75402  19.496  29.670   2.237
 3787W        W75403  22.109  17.105  13.473
 3788W        W75404  19.105  31.601  14.019
 3789W        W75405   8.214  24.951  11.178
 3790W        W75406   7.364  20.280   0.262
 3791W        W75407  22.245  37.268  13.550
 3792W        W75408  30.082  22.882  13.469
 3793W        W75409  14.352  36.587  12.510
 3794W        W75410  30.561  26.105  14.992
 3795W        W75411  37.566   7.819  10.655
 3796W        W75412  16.532  16.650   0.130
 3797W        W75413  35.255  35.407   4.154
 3798W        W75414  36.477  24.431  10.694
 3799W        W75415  42.008  37.611   2.342
 3800W        W75416  30.874  22.091   0.750
 3801W        W75417   3.794  24.573  14.758
 3802W        W75418   1.404  42.042  11.524
 3803W        W75419  12.221  12.344   4.315
 3804W        W75420  16.329  34.339  12.484
 3805W        W75421  18.444   7.310  10.831
 3806W        W75422  12.021  14.801   0.212
 3807W        W75423  33.761  36.488  11.111
 3808W        W75424  18.331   5.148  13.852
 3809W        W75425  40.916  13.534   3.701
 3810W        W75426   8.286  22.271   1.207
 3811W        W75427  22.624  16.251  13.466
 3812W        W75428  33.506  43.777  14.365
 3813W        W75429   5.233  20.955  11.208
 3814W        W75430  10.904  36.657   4.676
 3815W        W75431  24.334  28.976   2.355
 3816W        W75432  20.285  28.371  11.233
 3817W        W75433   0.206   7.865   1.301
 3818W        W75434  37.198  37.590  13.900
 3819W        W75435  11.102  38.606   1.845
 3820W        W75436  22.832  11.088   0.868
 3821W        W75437   7.311  10.732  12.955
 3822W        W75438   8.481   3.398   0.671
 3823W        W75439  30.465  13.337   1.366
 3824W        W75440  12.652  16.812   0.394
 3825W        W75441  25.005  16.249   1.453
 3826W        W75442  34.882  17.556   0.410
 3827W        W75443   7.705   8.718   2.701
 3828W        W75444   1.228  39.139  13.888
 3829W        W75445   0.381   7.242  12.292
 3830W        W75446  16.916  19.101   4.318
 3831W        W75447  23.547  25.560   1.846
 3832W        W75448  21.258   5.952   1.949
 3833W        W75449  23.421  26.038  11.613
 3834W        W75450  39.868   2.964   3.720
 3835W        W75451   4.724  34.033   0.293
 3836W        W75452  11.144  20.083  11.844
 3837W        W75453  11.219  21.622  10.672
 3838W        W75454  19.659  13.491   2.951
 3839W        W75455   0.177  21.149  10.545
 3840W        W75456  41.298  15.765  10.933
 3841W        W75457  44.924   7.786  13.076
 3842W        W75458  18.250  20.636  11.021
 3843W        W75459  10.012  17.337  11.621
 3844W        W75460  23.124   2.465   2.886
 3845W        W75461  44.375  40.633   5.068
 3846W        W75462  20.195  12.147   4.189
 3847W        W75463   4.869  38.888   1.863
 3848W        W75464  22.833   7.243  11.917
 3849W        W75465  18.642  21.240  13.671
 3850W        W75466  38.822  18.769  12.030
 3851W        W75467   6.233  40.814  10.629
 3852W        W75468  25.317  29.754   2.881
 3853W        W75469  16.065  32.949   3.618
 3854W        W75470  30.112   0.522   1.380
 3855W        W75471  20.949  24.249   3.236
 3856W        W75472   2.081  21.818  10.314
 3857W        W75473  35.664  38.444   1.891
 3858W        W75474  33.347   3.490  14.792
 3859W        W75475   7.406   1.804  12.941
 3860W        W75476  18.517  29.586  14.302
 3861W        W75477  35.059  35.516   2.153
 3862W        W75478  28.899  42.381  13.881
 3863W        W75479  16.961  31.401  11.965
 3864W        W75480  14.706  16.878  12.949
 3865W        W75481   8.385  15.219  11.475
 3866W        W75482   2.390  24.219  10.284
 3867W        W75483   1.314  25.068  14.857
 3868W        W75484  26.054  13.565   3.368
 3869W        W75485  24.980   5.662  13.933
 3870W        W75486   6.753  40.044   0.400
 3871W        W75487  43.292  44.729  11.582
 3872W        W75488   0.913  32.982  14.019
 3873W        W75489   5.444  36.945   3.216
 3874W        W75490  34.978  36.574   4.863
 3875W        W75491  21.042  13.453  12.504
 3876W        W75492  20.294  21.201  14.563
 3877W        W75493   4.460   7.744   0.941
 3878W        W75494  14.026  15.502  12.868
 3879W        W75495  26.331  20.200  12.370
 3880W        W75496  36.496   8.706   0.025
 3881W        W75497  20.910  37.785   1.400
 3882W        W75498  27.094  22.741  10.525
 3883W        W75499  23.715  13.116  11.851
 3884W        W75500  43.044  18.768   1.319
 3885W        W75501   9.274  44.216  11.147
 3886W        W75502  20.834   1.974   2.810
 3887W        W75503   4.034   4.843  12.032
 3888W        W75504  28.391  22.272   2.243
 3889W        W75505  26.694  17.063  11.402
 3890W        W75506  19.183   2.280  14.124
 3891W        W75507  32.978   3.834   1.749
 3892W        W75508  19.056  17.025   4.436
 3893W        W75509   4.771  11.743  13.367
 3894W        W75510   6.164  27.556   1.875
 3895W        W75511  20.302  37.694   1.920
 3896W        W75512   6.918  27.665  12.068
 3897W        W75513  16.276  15.029  11.012
 3898W        W75514  14.394  34.603  12.502
 3899W        W75515  41.080  28.459   3.160
 3900W        W75516  36.799  35.979   0.498
 3901W        W75517   6.869   6.144  13.514
 3902W        W75518  26.424   5.280   0.162
 3903W        W75519   4.932   0.453   3.423
 3904W        W75520  36.822  36.073  12.401
 3905W        W75521  44.956   1.939   2.359
 3906W        W75522  36.278  28.628  14.001
 3907W        W75523  31.791   7.113   1.127
 3908W        W75524  19.610   6.469   3.747
 3909W        W75525  25.015  33.797  11.510
 3910W        W75526  29.158  20.312  13.728
 3911W        W75527  28.940  29.127  13.654
 3912W        W75528   8.678  35.631  12.439
 3913W        W75529  42.195  34.648  13.884
 3914W        W75530  14.098  13.720  11.209
 3915W        W75531  33.443  14.785   1.303
 3916W        W75532  23.689  38.750   3.168
 3917W        W75533  10.006  33.866   0.843
 3918W        W75534   9.225  25.155   0.370
 3919W        W75535   6.681  36.533  10.770
 3920W        W75536  44.736  32.528   2.808
 3921W        W75537   9.420   7.700  13.361
 3922W        W75538  39.982  36.332  13.441
 3923W        W75539  44.532  40.870   3.787
 3924W        W75540  43.258  28.989  13.016
 3925W        W75541  29.089  31.897   0.704
 3926W        W75542  22.589  26.609  14.472
 3927W        W75543  15.428  18.815   0.311
 3928W        W75544  15.980  20.019   0.415
 3929W        W75545  14.232  36.526   1.175
 3930W        W75546  33.573  40.870   3.874
 3931W        W75547   4.575   1.743  12.903
 3932W        W75548  16.275   4.800   0.018
 3933W        W75549  37.408   9.454  11.662
 3934W        W75550  24.483  11.928  13.398
 3935W        W75551  23.971  22.213  11.993
 3936W        W75552  22.628  32.194  10.780
 3937W        W75553   3.332  31.560  10.728
 3938W        W75554  35.703  24.119   3.228
 3939W        W75555  21.511  13.136  11.551
 3940W        W75556  22.798   7.894   2.857
 3941W        W75557  34.369   6.601  10.682
 3942W        W75558  21.158   7.372   4.295
 3943W        W75559  14.179   9.178   2.862
 3944W        W75560  43.497  39.918   2.564
 3945W        W75561  35.048  12.610   0.724
 3946W        W75562  42.064   1.008  13.991
 3947W        W75563  22.188  33.119   3.441
 3948W        W75564   1.406   8.356   2.444
 3949W        W75565  34.961   4.272  10.403
 3950W        W75566  23.056   8.742  12.101
 3951W        W75567  15.973  12.990   4.163
 3952W        W75568   1.148  11.608   2.661
 3953W        W75569   4.993   1.936   4.559
 3954W        W75570   0.240  11.377  10.567
 3955W        W75571   5.671  18.302   0.408
 3956W        W75572  17.632  22.622   2.755
 3957W        W75573  34.922   6.435   3.595
 3958W        W75574  37.399  40.710   3.043
 3959W        W75575  15.184  37.053   2.900
 3960W        W75576   9.622  32.011  14.878
 3961W        W75577  19.757  22.207  11.351
 3962W        W75578  32.098  37.620  14.413
 3963W        W75579   8.935   6.838  11.078
 3964W        W75580  28.415   8.840   4.119
 3965W        W75581  42.604   5.415  14.630
 3966W        W75582  31.859   5.676  14.776
 3967W        W75583  21.817  23.945   5.094
 3968W        W75584  11.440  32.507  11.620
 3969W        W75585  18.217  31.102   4.962
 3970W        W75586  30.740  40.989   0.802
 3971W        W75587  21.028  17.829   2.385
 3972W        W75588  17.285  16.579   0.805
 3973W        W75589  42.583  41.758  14.594
 3974W        W75590  27.591  10.260   4.137
 3975W        W75591  44.256  28.460  12.341
 3976W        W75592  26.040  12.267   3.693
 3977W        W75593  42.317  37.573  11.989
 3978W        W75594  36.615  15.852   5.113
 3979W        W75595  33.631  36.378   0.503
 3980W        W75596   4.152   1.692  14.251
 3981W        W75597  16.671  36.560   1.285
 3982W        W75598  13.723  39.000   2.414
 3983W        W75599  31.860  12.737  13.180
 3984W        W75600  19.113   2.222   0.421
 3985W        W75601   9.869  17.866  11.598
 3986W        W75602  10.886  41.818   0.244
 3987W        W75603  34.633  13.278  12.303
 3988W        W75604  17.795  21.435  13.547
 3989W        W75605  26.564  36.908   4.067
 3990W        W75606  16.398  38.009   4.125
 3991W        W75607  34.117  18.731  13.112
 3992W        W75608   3.958  12.570   2.607
 3993W        W75609  41.534  33.224   1.537
 3994W        W75610  13.416  14.657   2.236
 3995W        W75611  36.999  28.336   2.688
 3996W        W75612  44.766  37.977  10.628
 3997W        W75613  26.761  20.257   0.793
 3998W        W75614   8.621  39.811  11.436
 3999W        W75615  27.445  20.216   3.059
 4000W        W75616  14.246  19.593   1.467
 4001W        W75617  22.749  25.658   2.378
 4002W        W75618  31.675  37.066   1.421
 4003W        W75619  27.132  25.907   4.364
 4004W        W75620  21.112  29.543  12.826
 4005W        W75621  10.608  29.384  10.410
 4006W        W75622  29.413   4.411   2.897
 4007W        W75623  32.681  15.649  11.677
 4008W        W75624  30.105   3.101  13.081
 4009W        W75625   6.937  43.492  12.502
 4010W        W75626  18.189  22.473  10.905
 4011W        W75627  35.765  34.453  11.011
 4012W        W75628  43.902  31.977   2.676
 4013W        W75629   5.116   7.241   1.757
 4014W        W75630  28.185  40.497   1.428
 4015W        W75631  29.953   1.066   3.657
 4016W        W75632  34.161  42.445   0.508
 4017W        W75633  28.209   3.333   3.691
 4018W        W75634  11.105  38.354  10.573
 4019W        W75635  42.636  10.797   2.394
 4020W        W75636  17.523  44.641   0.923
 4021W        W75637   7.218  10.160  10.655
 4022W        W75638  38.142   2.205  12.392
 4023W        W75639   5.695  23.689  10.624
 4024W        W75640  43.548  23.015   3.758
 4025W        W75641  11.333  38.954   0.348
 4026W        W75642  20.849  12.788   5.059
 4027W        W75643  16.282   1.857   4.062
 4028W        W75644   6.732   8.655  10.965
 4029W        W75645  25.478   1.183   4.760
 4030W        W75646  23.254  40.625  14.971
 4031W        W75647  17.977   9.761  10.946
 4032W        W75648  30.245   9.734  14.037
 4033W        W75649  22.765   3.920   3.924
 4034W        W75650  28.595  27.699  12.866
 4035W        W75651  22.775  39.399   2.789
 4036W        W75652   7.605   9.282   1.902
 4037W        W75653  34.143  43.889  14.573
 4038W        W75654  21.929  28.043   1.897
 4039W        W75655  22.804  12.112  13.931
 4040W        W75656   8.189   9.749   1.467
 4041W        W75657  19.113  16.314   2.652
 4042W        W75658  13.653   3.349   0.518
 4043W        W75659  11.192   7.281  11.386
 4044W        W75660  42.661  29.533  11.345
 4045W        W75661  32.971   8.812   4.324
 4046W        W75662  26.387  36.297   2.701
 4047W        W75663  31.389  27.434   2.908
 4048W        W75664   0.591  23.471   9.862
 4049W        W75665  30.639  30.004  12.469
 4050W        W75666  16.690  29.413   4.670
 4051W        W75667  26.439  38.752  11.980
 4052W        W75668  40.083   8.666   2.204
 4053W        W75669   1.732  25.743  11.891
 4054W        W75670   0.893  23.732  10.309
 4055W        W75671   7.323   0.202   1.301
 4056W        W75672  42.458  27.025  14.034
 4057W        W75673  16.054  23.101  10.603
 4058W        W75674  20.475  18.225   3.708
 4059W        W75675  24.726  16.673  12.860
 4060W        W75676  17.133   8.230  13.040
 4061W        W75677   9.018   1.177  13.710
 4062W        W75678  31.487  27.927   2.293
 4063W        W75679  12.451  17.432   0.242
 4064W        W75680  20.150  18.495  12.139
 4065W        W75681  10.554  33.023  14.121
 4066W        W75682  17.449  33.488  12.681
 4067W        W75683  13.003   1.310   3.265
 4068W        W75684  22.283   3.855   0.992
 4069W        W75685  15.404  29.729   1.287
 4070W        W75686  27.659   4.928  13.300
 4071W        W75687   4.808  16.727  11.950
 4072W        W75688  27.183  20.254  14.034
 4073W        W75689  28.665  37.885   1.535
 4074W        W75690  38.077  43.839  14.770
 4075W        W75691  29.523  16.221  10.663
 4076W        W75692   0.400  26.872  13.176
 4077W        W75693  33.482  24.558   3.290
 4078W        W75694  40.052  17.053  12.297
 4079W        W75695   5.250  34.474  12.357
 4080W        W75696  21.475  33.119  11.538
 4081W        W75697  12.293   6.649   0.404
 4082W        W75698  14.310  13.048  13.332
 4083W        W75699  12.375   7.718  12.833
 4084W        W75700   1.999  33.572  13.057
 4085W        W75701  37.935   1.181   0.872
 4086W        W75702  38.859  44.811  12.461
 4087W        W75703  13.785  31.116  13.395
 4088W        W75704   2.493   2.428   1.295
 4089W        W75705   7.168  32.104   2.175
 4090W        W75706  23.894  14.736   0.254
 4091W        W75707  22.212   5.996  11.190
 4092W        W75708   7.500  10.233   1.244
 4093W        W75709  39.972   6.447   2.576
 4094W        W75710  26.867  27.497  12.960
 4095W        W75711  25.235  22.087   4.064
 4096W        W75712  13.585  43.878  10.595
 4097W        W75713  43.314  31.397   2.808
 4098W        W75714  41.984  44.949   1.275
 4099W        W75715   1.721  42.499  14.397
 4100W        W75716   3.420  27.616   1.234
 4101W        W75717  30.264  29.560   2.444
 4102W        W75718  13.877  19.716  12.628
 4103W        W75719   4.478  41.331  12.969
 4104W        W75720   4.469  34.924   3.673
 4105W        W75721   6.903  15.011  14.973
 4106W        W75722  18.029   2.668   0.900
 4107W        W75723   7.390  30.167  14.539
 4108W        W75724  25.480  22.138   1.788
 4109W        W75725  12.203  14.594   0.665
 4110W        W75726  14.224  42.973   9.920
 4111W        W75727  20.079   1.295   2.475
 4112W        W75728  30.860  22.205   4.599
 4113W        W75729  40.998   3.806  13.291
 4114W        W75730   6.510  24.720   1.105
 4115W        W75731  13.314  28.620  10.903
 4116W        W75732  24.688  23.793  12.965
 4117W        W75733  23.093   4.844   3.002
 4118W        W75734  21.175  41.290   1.757
 4119W        W75735  41.601  33.974   3.299
 4120W        W75736  27.179  43.360   3.882
 4121W        W75737  34.097  28.469   3.738
 4122W        W75738  18.180   5.765  14.499
 4123W        W75739  42.837   1.726   4.070
 4124W        W75740  29.694  25.493  12.140
 4125W        W75741  37.006   8.851  11.446
 4126W        W75742  44.805  32.405  14.073
 4127W        W75743  31.237  10.204   0.445
 4128W        W75744  35.527  12.419   2.342
 4129W        W75745  41.277   9.983   0.287
 4130W        W75746  41.572  25.933   3.399
 4131W        W75747  14.724  24.576   0.224
 4132W        W75748  30.954  15.514  14.347
 4133W        W75749  22.271  20.047   0.632
 4134W        W75750   5.267  25.675   1.258
 4135W        W75751  23.700  14.640  10.716
 4136W        W75752  10.239  41.350  14.704
 4137W        W75753  27.542   4.692  14.166
 4138W        W75754  26.925  32.587   4.041
 4139W        W75755  24.183  13.646   0.784
 4140W        W75756   0.316  34.657   4.683
 4141W        W75757  40.012  11.483   9.826
 4142W        W75758   1.234   1.762   2.841
 4143W        W75759  18.544  40.631  11.061
 4144W        W75760  10.613   3.927   3.256
 4145W        W75761  11.333  24.811   3.272
 4146W        W75762   4.695  39.874   1.904
 4147W        W75763  37.118  28.073   2.221
 4148W        W75764  16.209  15.061  12.138
 4149W        W75765  43.893  31.674  12.672
 4150W        W75766  23.501  40.992  13.398
 4151W        W75767   2.797  41.019  14.469
 4152W        W75768  22.518  12.367   2.851
 4153W        W75769  31.541  28.139   3.197
 4154W        W75770  35.476  43.268  13.935
 4155W        W75771   3.346   1.076  11.977
 4156W        W75772  14.092  21.906  13.022
 4157W        W75773   2.286  28.639   1.432
 4158W        W75774   5.845  26.093   2.269
 4159W        W75775  17.209  27.142  14.964
 4160W        W75776  29.932   6.946   4.113
 4161W        W75777  34.826  22.622  10.213
 4162W        W75778  36.526  11.823   0.326
 4163W        W75779  11.838  20.774   0.801
 4164W        W75780  40.444  16.830  12.070
 4165W        W75781   3.865  20.186   1.758
 4166W        W75782   8.765  16.613  11.130
 4167W        W75783  11.875   1.537  13.264
 4168W        W75784   6.360  24.049  13.469
 4169W        W75785  17.167  39.327   2.073
 4170W        W75786  20.681  20.046   3.632
 4171W        W75787   5.654  35.012  14.150
 4172W        W75788  22.179  15.579   0.233
 4173W        W75789  32.899  39.601  14.902
 4174W        W75790   4.443  12.295   0.055
 4175W        W75791  42.261   0.013   2.530
 4176W        W75792   9.129   0.954   3.168
 4177W        W75793  38.810  33.562  13.025
 4178W        W75794  24.799  26.174  11.164
 4179W        W75795  23.174  21.343  13.909
 4180W        W75796   6.385  18.145  11.400
 4181W        W75797   8.379  19.682   4.673
 4182W        W75798  43.037  16.305  10.624
 4183W        W75799  35.909   4.734   2.822
 4184W        W75800  16.037  39.722   2.686
 4185W        W75801  22.851   2.340  12.779
 4186W        W75802   3.919  39.554  13.093
 4187W        W75803  31.066  43.704   2.787
 4188W        W75804   3.928  35.975  12.470
 4189W        W75805  40.578  12.143  10.213
 4190W        W75806  40.071  21.459   2.385
 4191W        W75807  27.483  41.285   2.381
 4192W        W75808  33.155  11.870  14.427
 4193W        W75809  31.615  20.524   0.944
 4194W        W75810   2.750  21.725   0.983
 4195W        W75811   9.113  27.900  14.461
 4196W        W75812  26.545  41.777  11.963
 4197W        W75813  25.207  16.280  11.677
 4198W        W75814  42.897  37.006   3.115
 4199W        W75815  34.956  34.524   0.595
 4200W        W75816   7.124  37.369  11.136
 4201W        W75817   1.173   5.335  13.930
 4202W        W75818  25.168  13.825   4.577
 4203W        W75819  34.867  27.385  10.628
 4204W        W75820  39.600  36.872  14.591
 4205W        W75821   4.751  34.605   0.296
 4206W        W75822  17.291  28.934   3.234
 4207W        W75823  12.700  30.879  14.002
 4208W        W75824  14.696  38.086  11.599
 4209W        W75825  30.563  28.164  10.926
 4210W        W75826   9.702  41.780  12.095
 4211W        W75827   2.476  42.037  14.385
 4212W        W75828   0.744  32.028   1.595
 4213W        W75829  14.171  40.212  11.595
 4214W        W75830   1.508  33.104  12.495
 4215W        W75831   6.787  12.812   3.261
 4216W        W75832  42.275  27.390  12.024
 4217W        W75833  40.362  44.788   3.151
 4218W        W75834  23.587   7.613  11.288
 4219W        W75835  13.121  26.743   3.684
 4220W        W75836  41.792  26.204  12.941
 4221W        W75837   9.662  22.606  14.819
 4222W        W75838  44.462  40.341  14.776
 4223W        W75839  43.050  31.660  12.633
 4224W        W75840  18.797   1.491   2.382
 4225W        W75841  37.414  44.969  11.856
 4226W        W75842  31.018   0.224  13.521
 4227W        W75843  33.363   9.815  13.953
 4228W        W75844  44.153  41.177  11.519
 4229W        W75845  13.673  11.906   1.801
 4230W        W75846   6.825  22.484   3.677
 4231W        W75847  32.477  36.095   3.125
 4232W        W75848  28.546  37.357   0.278
 4233W        W75849  19.930   6.407   4.160
 4234W        W75850  38.567  38.955   1.321
 4235W        W75851  21.027   4.339  10.744
 4236W        W75852   7.517  38.482  12.010
 4237W        W75853  38.221  37.547  11.081
 4238W        W75854  34.402   2.320   0.872
 4239W        W75855  22.342  18.012  13.488
 4240W        W75856  12.094  37.856  10.901
 4241W        W75857  16.125   8.652   2.196
 4242W        W75858  21.905  43.255   0.863
 4243W        W75859  25.019  14.044   2.128
 4244W        W75860   4.822   4.934   1.171
 4245W        W75861  30.337   2.146  11.417
 4246W        W75862  25.268   1.854   4.864
 4247W        W75863   2.300   9.718   1.508
 4248W        W75864   6.548  14.290  10.356
 4249W        W75865  19.055  31.743  12.664
 4250W        W75866  19.496   1.262   1.239
 4251W        W75867  44.315  23.557  13.536
 4252W        W75868   2.267  20.009  12.959
 4253W        W75869   2.815  18.668   2.316
 4254W        W75870  18.389  42.952  10.837
 4255W        W75871  26.235  23.773   1.686
 4256W        W75872  26.586  14.892  11.917
 4257W        W75873  31.596  33.649  13.846
 4258W        W75874  32.887  37.178   3.394
 4259W        W75875  27.911  22.171  11.696
 4260W        W75876  24.106  27.619  10.798
 4261W        W75877  31.043  39.779   4.580
 4262W        W75878  29.979  29.993  13.634
 4263W        W75879  19.833   5.271  14.794
 4264W        W75880  31.900  18.301  12.111
 4265W        W75881  21.275   3.669   0.876
 4266W        W75882  17.564   0.937  11.138
 4267W        W75883  28.883  30.324   5.049
 4268W        W75884  32.546  23.528   0.308
 4269W        W75885  37.465   8.296   4.177
 4270W        W75886  39.567  37.467   3.741
 4271W        W75887  27.221   4.851  12.517
 4272W        W75888  11.165  26.509   0.473
 4273W        W75889  10.661  19.533   0.322
 4274W        W75890   2.490  19.107   3.708
 4275W        W75891  23.506  30.389  12.991
 4276W        W75892  44.257  43.524  14.501
 4277W        W75893  29.745  18.614   2.326
 4278W        W75894  10.456  39.722  12.920
 4279W        W75895  13.743  33.568  14.183
 4280W        W75896  38.132  21.598  14.938
 4281W        W75897   0.922  44.276   3.116
 4282W        W75898   6.511  10.815  11.161
 4283W        W75899  15.366  41.812  13.992
 4284W        W75900  41.023   6.337   4.277
 4285W        W75901   4.293   6.721   3.812
 4286W        W75902   7.918  16.588   0.358
 4287W        W75903  21.752  35.890  11.132
 4288W        W75904  27.465  12.737   0.308
 4289W        W75905  26.312  22.685   3.617
 4290W        W75906  37.487  40.134   0.750
 4291W        W75907  35.767  18.393  14.476
 4292W        W75908  11.923  32.204  14.823
 4293W        W75909  33.906  12.859  11.992
 4294W        W75910  26.062  13.195  10.976
 4295W        W75911   8.809  20.759  12.152
 4296W        W75912  26.272  17.692   2.995
 4297W        W75913  24.972  18.638   3.168
 4298W        W75914  15.230  12.270   2.347
 4299W        W75915   9.679   9.309  10.716
 4300W        W75916  32.681  31.184  12.129
 4301W        W75917   0.463  19.724  13.597
 4302W        W75918  37.735  25.983   4.195
 4303W        W75919   0.304  35.303   1.325
 4304W        W75920  34.647  27.598  14.946
 4305W        W75921   9.171  31.036  13.167
 4306W        W75922  32.937  38.157  12.437
 4307W        W75923  20.212  29.601  12.606
 4308W        W75924  19.554  43.533   0.415
 4309W        W75925  24.264  11.662   4.664
 4310W        W75926  36.835  25.950   0.853
 4311W        W75927  27.827   6.767  11.127
 4312W        W75928  43.324  27.042   2.921
 4313W        W75929  28.117  36.621  13.772
 4314W        W75930  17.323  28.494  12.564
 4315W        W75931  23.291  17.654  12.397
 4316W        W75932  11.329   4.256   0.263
 4317W        W75933  24.199  41.441   5.001
 4318W        W75934  14.729  15.084  14.771
 4319W        W75935  23.426  13.323   2.680
 4320W        W75936  12.879  36.479   4.386
 4321W        W75937  43.578  38.996  10.493
 4322W        W75938  42.440   1.807   1.899
 4323W        W75939  22.365  21.167  12.913
 4324W        W75940  39.413  42.442  13.109
 4325W        W75941  17.189   5.733  12.916
 4326W        W75942  17.676  22.719   3.798
 4327W        W75943   2.874  36.467   4.706
 4328W        W75944  33.380  35.536  13.843
 4329W        W75945  39.514  32.618   3.675
 4330W        W75946   8.692  23.219  13.798
 4331W        W75947   6.111  40.048   1.801
 4332W        W75948  27.567  10.920  10.570
 4333W        W75949  16.816   2.740   1.505
 4334W        W75950  15.734  29.677  12.470
 4335W        W75951  20.781   5.045  11.095
 4336W        W75952  11.204   6.882  12.106
 4337W        W75953   1.295   3.700   3.822
 4338W        W75954  34.549  17.608   2.162
 4339W        W75955  26.630   6.714   4.740
 4340W        W75956  10.066  11.889   4.573
 4341W        W75957  11.188  39.809   0.122
 4342W        W75958  38.167  15.035  14.790
 4343W        W75959  40.360  29.611  12.440
 4344W        W75960   2.176  12.183   2.306
 4345W        W75961   2.422   5.917   2.169
 4346W        W75962   1.955   9.209   2.425
 4347W        W75963  12.184  23.565   4.551
 4348W        W75964  10.128  32.816   3.220
 4349W        W75965  41.226  10.653  10.991
 4350W        W75966  33.827   2.602   0.476
 4351W        W75967  31.639  32.443  13.810
 4352W        W75968  41.414  19.943  12.009
 4353W        W75969  36.629  25.139   3.196
 4354W        W75970  34.879  43.857   2.649
 4355W        W75971  23.088  39.613   1.434
 4356W        W75972  42.083   5.503   4.881
 4357W        W75973  38.948  42.754  13.826
 4358W        W75974  18.101  22.820   0.058
 4359W        W75975  39.580  21.704   0.792
 4360W        W75976  25.647  33.117   0.047
 4361W        W75977   1.346   1.366  12.848
 4362W        W75978  18.108  29.958  12.518
 4363W        W75979  27.869  32.555   4.958
 4364W        W75980  42.862  40.925   1.892
 4365W        W75981  21.299  10.739  14.315
 4366W        W75982  28.316  42.581   5.099
 4367W        W75983  31.193  38.274  11.229
 4368W        W75984  11.734   2.859  11.602
 4369W        W75985   7.161  18.792  14.218
 4370W        W75986  35.507   4.092  12.437
 4371W        W75987  34.112   9.287   3.689
 4372W        W75988  10.401  21.533   4.592
 4373W        W75989  29.394   1.939   4.195
 4374W        W75990  33.878  16.633   2.822
 4375W        W75991  14.292  17.269   3.203
 4376W        W75992  42.445  32.926   0.973
 4377W        W75993  23.854   1.729  14.789
 4378W        W75994  15.237   6.656   5.468
 4379W        W75995  24.165  21.517   1.204
 4380W        W75996  10.254   0.954  10.450
 4381W        W75997  38.470   6.353   4.663
 4382W        W75998  25.177   4.342   1.297
 4383W        W75999  26.138  42.810  13.371
 4384W        W76000  14.349  13.260  12.438
 4385W        W76001  10.221  25.213  14.508
 4386W        W76002  32.489   4.023   1.749
 4387W        W76003  43.030  17.031  11.958
 4388W        W76004  30.172   5.509  11.610
 4389W        W76005   1.190  17.166  11.989
 4390W        W76006  24.300  12.255  13.784
 4391W        W76007  43.413  34.304  12.555
 4392W        W76008  37.319  35.329  13.436
 4393W        W76009   3.530  13.069   5.178
 4394W        W76010  29.064  33.117   2.611
 4395W        W76011  18.521  25.702  11.930
 4396W        W76012  10.203  13.375   1.041
 4397W        W76013   1.196  24.521   2.230
 4398W        W76014  25.220  21.152   0.806
 4399W        W76015  27.882  21.298  12.522
 4400W        W76016  32.023  30.139  12.316
 4401W        W76017  37.383  39.479  14.820
 4402W        W76018  31.704  39.491   0.475
 4403W        W76019   4.124  29.086   1.311
 4404W        W76020  26.061   1.763   1.304
 4405W        W76021  11.364  15.187   1.981
 4406W        W76022  31.190  38.369   3.543
 4407W        W76023  42.777  36.609   5.026
 4408W        W76024   4.844  43.716   5.515
 4409W        W76025  30.431  36.043   0.773
 4410W        W76026  30.681  29.428  13.521
 4411W        W76027  34.852  44.073   1.186
 4412W        W76028  44.079  25.196  14.876
 4413W        W76029  40.345  15.506   1.366
 4414W        W76030  34.523  28.769  13.790
 4415W        W76031  42.151  43.320  14.051
 4416W        W76032  15.819  43.312   0.260
 4417W        W76033  16.334  26.485   3.205
 4418W        W76034  38.565   1.953  11.160
 4419W        W76035   1.731  37.445   3.271
 4420W        W76036  43.248  19.855   0.262
 4421W        W76037  23.294  19.173  12.458
 4422W        W76038  14.955  18.240   2.342
 4423W        W76039  33.859  16.079   3.559
 4424W        W76040  34.440  13.008  14.749
 4425W        W76041  43.673  26.179  14.980
 4426W        W76042   1.062  15.681  12.576
 4427W        W76043   0.463  37.446   4.511
 4428W        W76044  22.759  35.501  13.424
 4429W        W76045  15.283  36.262  13.374
 4430W        W76046  44.184  43.880   1.201
 4431W        W76047  16.060  28.159  12.066
 4432W        W76048  42.829   4.528   1.678
 4433W        W76049  19.571  30.249   2.865
 4434W        W76050  12.073  17.683   4.625
 4435W        W76051   4.888  29.555  11.578
 4436W        W76052  44.365  31.376   4.346
 4437W        W76053  26.967  12.694   4.170
 4438W        W76054  31.557  31.242  13.368
 4439W        W76055  43.530  27.985  11.103
 4440W        W76056  17.069  17.869  11.600
 4441W        W76057  37.269  17.273  14.584
 4442W        W76058  19.116  13.227  13.351
 4443W        W76059   9.573  36.893   2.808
 4444W        W76060  35.516  40.953   0.974
 4445W        W76061  21.496   4.207  13.301
 4446W        W76062  42.751  21.881  14.949
 4447W        W76063  13.415   5.241   3.298
 4448W        W76064  30.996  13.610   3.355
 4449W        W76065  44.240  39.951   1.333
 4450W        W76066   5.336   4.427  12.628
 4451W        W76067  44.120  42.363  14.783
 4452W        W76068  44.975  41.290   1.314
 4453W        W76069  32.470  39.551  11.563
 4454W        W76070  16.359  15.709   9.696
 4455W        W76071  31.436  13.381   3.130
 4456W        W76072  32.466   7.361  14.349
 4457W        W76073  40.764  18.475  10.961
 4458W        W76074   3.368  16.648   4.279
 4459W        W76075   9.811   5.219   4.420
 4460W        W76076  30.497  35.737   3.532
 4461W        W76077   7.382  40.746  11.086
 4462W        W76078   4.049  27.020  14.601
 4463W        W76079  38.873  29.376  13.632
 4464W        W76080  24.851  28.329  10.527
 4465W        W76081  31.895  22.105   4.357
 4466W        W76082   9.783  23.755   0.228
 4467W        W76083  12.639  22.567   1.411
 4468W        W76084   7.742  29.941   0.353
 4469W        W76085  35.552  44.329   0.500
 4470W        W76086  17.561  33.921  13.867
 4471W        W76087  44.423   5.345   4.581
 4472W        W76088  32.438  16.600  10.561
 4473W        W76089  42.992  16.981   4.294
 4474W        W76090  20.586  13.150  12.439
 4475W        W76091  25.631  11.302  12.460
 4476W        W76092  14.541   8.698   1.267
 4477W        W76093   8.428  17.305   0.618
 4478W        W76094  21.965  24.170   3.100
 4479W        W76095  20.575   8.783   2.938
 4480W        W76096  12.306  19.358  12.952
 4481W        W76097  12.030   2.694  13.803
 4482W        W76098  40.975   4.028   4.267
 4483W        W76099  26.534  12.047  11.990
 4484W        W76100  36.803  18.104   3.624
 4485W        W76101   6.648   4.340   4.117
 4486W        W76102  17.557  15.083   2.187
 4487W        W76103   4.513  36.478  13.442
 4488W        W76104  10.383  29.959  10.206
 4489W        W76105  43.703   9.440   0.872
 4490W        W76106  17.212   6.401   3.776
 4491W        W76107  44.957  39.935   1.887
 4492W        W76108   0.034  29.330   0.865
 4493W        W76109  12.079   1.946   3.206
 4494W        W76110  10.319  20.302  12.921
 4495W        W76111  14.634   1.893   1.954
 4496W        W76112  36.907   4.860  14.359
 4497W        W76113   2.906  38.841   2.377
 4498W        W76114  11.828   8.868  10.923
 4499W        W76115   7.500  44.197  11.197
 4500W        W76116  29.177  35.835   2.310
 4501W        W76117   0.524  30.335  10.429
 4502W        W76118  14.679  26.513   1.010
 4503W        W76119  41.828  18.136   1.757
 4504W        W76120  12.764  40.028  12.700
 4505W        W76121  37.296  15.187   2.318
 4506W        W76122  25.416  19.755   2.028
 4507W        W76123  17.562  29.969  12.826
 4508W        W76124  38.871  38.678  14.773
 4509W        W76125  19.543  27.720   4.171
 4510W        W76126  43.955  11.198   1.317
 4511W        W76127  22.162  27.977  11.941
 4512W        W76128  17.110  32.353  12.010
 4513W        W76129  16.130   5.201   3.319
 4514W        W76130  22.384  42.369  11.529
 4515W        W76131  41.453   6.209   1.328
 4516W        W76132  32.409  32.330   4.386
 4517W        W76133   3.467  22.343   2.729
 4518W        W76134  43.362  33.544   3.513
 4519W        W76135   1.790  22.176   4.370
 4520W        W76136   6.938  40.488  11.441
 4521W        W76137  26.572  13.912  11.762
 4522W        W76138  44.828   1.949  11.857
 4523W        W76139  30.627  16.274   2.632
 4524W        W76140   1.427  29.375  12.945
 4525W        W76141  18.775  15.078  13.039
 4526W        W76142  12.737  28.214   3.592
 4527W        W76143   0.200  31.586  13.469
 4528W        W76144  42.815  29.217   1.476
 4529W        W76145   3.422  33.960  10.784
 4530W        W76146  14.524   8.815  14.905
 4531W        W76147  41.438  33.531   3.094
 4532W        W76148  26.436  38.475   0.039
 4533W        W76149  33.138  11.156   2.245
 4534W        W76150  39.867   5.761   3.162
 4535W        W76151  23.155  13.800  11.979
 4536W        W76152  31.685  44.423  10.670
 4537W        W76153  10.948  18.705  13.320
 4538W        W76154  11.585  29.562   2.884
 4539W        W76155  13.023   3.538   1.019
 4540W        W76156   6.044  32.654   3.196
 4541W        W76157  37.158  33.983  13.339
 4542W        W76158  10.744  25.434   4.186
 4543W        W76159  25.182  32.512   4.890
 4544W        W76160  19.617   5.813   1.473
 4545W        W76161  38.375  26.468   0.891
 4546W        W76162  14.071   3.883  13.003
 4547W        W76163  10.727  31.524  12.372
 4548W        W76164  39.848  10.911  12.059
 4549W        W76165  17.286  34.566   4.772
 4550W        W76166  11.516  18.365   4.217
 4551W        W76167  33.022  38.518  14.959
 4552W        W76168  21.292  25.174  11.075
 4553W        W76169  27.117  20.945   3.440
 4554W        W76170  33.167  43.897   5.419
 4555W        W76171  17.751  11.052  12.319
 4556W        W76172  29.882   8.629   0.364
 4557W        W76173  32.549  43.949  10.750
 4558W        W76174  33.961  32.091   0.886
 4559W        W76175  29.323  25.307  13.508
 4560W        W76176  33.332  32.027  10.694
 4561W        W76177  42.069   6.009   2.169
 4562W        W76178  31.450  32.442   2.839
 4563W        W76179  11.169  44.767   2.386
 4564W        W76180  30.715   9.281   4.539
 4565W        W76181  16.932   6.771  10.144
 4566W        W76182  39.582   3.559   2.992
 4567W        W76183  37.978  37.028   4.467
 4568W        W76184   1.883  38.939   2.414
 4569W        W76185  39.327  34.360   1.798
 4570W        W76186  17.634  26.397  14.867
 4571W        W76187  31.557  28.191  13.159
 4572W        W76188  30.038  39.844  13.464
 4573W        W76189  41.817  29.949   3.380
 4574W        W76190  42.547  39.575   3.772
 4575W        W76191  15.629  30.142   1.497
 4576W        W76192  31.973  42.365   2.455
 4577W        W76193  15.706  22.814   0.343
 4578W        W76194  20.565  31.042   4.649
 4579W        W76195  30.174   9.567   4.538
 4580W        W76196  34.089  19.353  11.198
 4581W        W76197  29.412  29.012   3.108
 4582W        W76198  15.563   3.160   3.815
 4583W        W76199   2.626   3.280  11.998
 4584W        W76200  13.040  27.158  10.910
 4585W        W76201  27.511  19.474  14.480
 4586W        W76202  41.068  31.661   1.260
 4587W        W76203  24.918  40.876  13.146
 4588W        W76204  25.552   3.223  10.447
 4589W        W76205   1.587   8.183  13.116
 4590W        W76206  16.341  43.812   2.716
 4591W        W76207   7.366  44.288   3.279
 4592W        W76208  44.219  18.299   2.897
 4593W        W76209  37.367   9.782  13.084
 4594W        W76210  42.869  28.904  12.041
 4595W        W76211   0.707  32.427  11.182
 4596W        W76212   8.673  19.758   4.260
 4597W        W76213  25.169  20.278  13.376
 4598W        W76214  16.458   6.958   1.132
 4599W        W76215   3.815   1.043  10.261
 4600W        W76216   2.834   3.823  14.648
 4601W        W76217  33.831  24.226   1.774
 4602W        W76218  18.048  11.895   1.826
 4603W        W76219  37.787   7.693   1.776
 4604W        W76220  24.704  19.041   0.721
 4605W        W76221  43.500   6.411   1.326
 4606W        W76222  33.677  18.534  12.885
 4607W        W76223  41.802  28.689   3.850
 4608W        W76224   2.098  26.766   2.484
 4609W        W76225   0.247  34.941  13.382
 4610W        W76226  40.371   6.817  14.830
 4611W        W76227   8.749  26.831  10.765
 4612W        W76228  16.199  17.612  14.042
 4613W        W76229  33.476   6.439   2.576
 4614W        W76230  39.343  27.733  11.996
 4615W        W76231  19.252  29.342   0.739
 4616W        W76232  30.664  39.779   1.293
 4617W        W76233  22.045  37.816   4.219
 4618W        W76234  12.078  22.605  13.004
 4619W        W76235   1.360  29.131   4.169
 4620W        W76236  18.578   4.392  11.158
 4621W        W76237  31.897  36.533  12.999
 4622W        W76238   7.422   3.979  13.921
 4623W        W76239   7.818  36.143   1.412
 4624W        W76240   7.858  35.645   4.883
 4625W        W76241  28.513  28.045  11.646
 4626W        W76242  30.497  22.025  14.464
 4627W        W76243   8.813   0.161  11.120
 4628W        W76244  13.386  18.583   3.922
 4629W        W76245  14.536  30.635  13.930
 4630W        W76246  41.543  23.009   1.353
 4631W        W76247   5.937  25.675   1.966
 4632W        W76248   1.697  36.626   0.858
 4633W        W76249  28.546  17.322  11.084
 4634W        W76250   9.066  30.176  11.009
 4635W        W76251  38.301  16.063   4.542
 4636W        W76252  18.206   2.727   2.734
 4637W        W76253   7.409  20.482  13.825
 4638W        W76254  28.727  27.550   1.942
 4639W        W76255  41.995   4.039   1.299
 4640W        W76256   7.492  36.717  12.072
 4641W        W76257  33.362   1.656  11.823
 4642W        W76258  29.038  32.014  10.628
 4643W        W76259  10.284  15.691   0.739
 4644W        W76260   7.978  25.132  11.601
 4645W        W76261  31.384  30.635   3.209
 4646W        W76262  28.205  38.832   0.288
 4647W        W76263   3.113  25.134  12.709
 4648W        W76264   0.007  36.528   4.507
 4649W        W76265  10.783  11.565  14.380
 4650W        W76266  23.299  11.156  11.878
 4651W        W76267  29.929   5.762  12.084
 4652W        W76268  38.097   6.753  11.517
 4653W        W76269  25.209   1.829  10.691
 4654W        W76270  16.754  10.878  13.401
 4655W        W76271  40.076  39.251   1.743
 4656W        W76272  25.253  42.411   4.478
 4657W        W76273  25.894  34.209  13.022
 4658W        W76274   5.836  44.694  12.855
 4659W        W76275  42.073  17.100  11.877
 4660W        W76276  31.479  15.688   2.820
 4661W        W76277  23.292  28.557  11.997
 4662W        W76278  29.014  37.056  14.819
 4663W        W76279  11.352   8.117  14.490
 4664W        W76280  16.228  20.811  11.019
 4665W        W76281   7.149   3.633  14.222
 4666W        W76282  26.092   1.917  10.855
 4667W        W76283   8.843  12.785   0.525
 4668W        W76284  16.540  24.409  11.905
 4669W        W76285  28.686  37.476   3.359
 4670W        W76286  20.072  25.373  11.597
 4671W        W76287  37.498   1.956   2.754
 4672W        W76288  33.037  18.234   1.801
 4673W        W76289  11.798  18.770  11.014
 4674W        W76290  30.077  30.566  14.814
 4675W        W76291  25.631  20.182   4.236
 4676W        W76292  32.021  14.683   3.139
 4677W        W76293   3.544  11.721  13.882
 4678W        W76294  41.218  23.400   1.252
 4679W        W76295  35.535  10.261   3.599
 4680W        W76296  42.285  42.849   2.833
 4681W        W76297  33.670  10.320   2.287
 4682W        W76298  18.521  39.997   2.848
 4683W        W76299  13.552  18.259  13.521
 4684W        W76300  29.229  26.378   1.005
 4685W        W76301  30.569  28.945  14.774
 4686W        W76302  17.810  41.958  11.645
 4687W        W76303  32.426  12.227  13.354
 4688W        W76304  26.456  26.014   3.123
 4689W        W76305  33.611   4.382  14.454
 4690W        W76306   4.320  42.410   2.662
 4691W        W76307   9.165  23.977   0.289
 4692W        W76308  36.380  20.146  10.410
 4693W        W76309  36.293  43.704   4.630
 4694W        W76310  41.062  32.922  13.230
 4695W        W76311  38.942   5.711  10.671
 4696W        W76312  14.325  39.523   3.554
 4697W        W76313  24.541  37.858   1.727
 4698W        W76314  33.344  32.124   4.170
 4699W        W76315  35.123   5.068  11.045
 4700W        W76316  35.688  24.166  14.042
 4701W        W76317  40.024  27.446   1.876
 4702W        W76318  33.814  36.396   4.122
 4703W        W76319  41.821  23.096   4.200
 4704W        W76320  21.005  37.815   5.061
 4705W        W76321  10.900  44.245  13.009
 4706W        W76322  17.587   8.596  14.927
 4707W        W76323   6.787  19.562  12.315
 4708W        W76324  22.173  37.758  13.736
 4709W        W76325   8.596  16.246  13.968
 4710W        W76326  43.959  26.511  10.112
 4711W        W76327  37.550   3.920  11.039
 4712W        W76328   4.711  31.887   2.810
 4713W        W76329  27.693  17.350  10.201
 4714W        W76330  14.657   6.537  11.052
 4715W        W76331  31.809  36.708   4.323
 4716W        W76332  30.717  14.172   3.803
 4717W        W76333   1.787  34.238  11.232
 4718W        W76334  39.270  26.473  13.931
 4719W        W76335   1.476  42.477   0.772
 4720W        W76336  40.513  13.245  11.983
 4721W        W76337  42.789  12.079   4.229
 4722W        W76338  28.671  24.245  13.818
 4723W        W76339   4.415  33.798   1.375
 4724W        W76340  14.668  12.284   0.393
 4725W        W76341  12.788  11.693   0.218
 4726W        W76342  43.515   3.303   1.286
 4727W        W76343  44.850  31.405  13.857
 4728W        W76344  32.538   2.139   0.422
 4729W        W76345  44.312  27.637  10.896
 4730W        W76346  12.815   4.652   0.380
 4731W        W76347  36.115   0.922   2.812
 4732W        W76348  43.489   8.674   3.700
 4733W        W76349   8.877   0.936   4.942
 4734W        W76350   7.796  11.220   2.718
 4735W        W76351  25.395   4.061  10.742
 4736W        W76352  10.100  38.036   0.969
 4737W        W76353  30.270  34.154  12.603
 4738W        W76354  22.167  11.459   1.323
 4739W        W76355  39.106  22.310  12.080
 4740W        W76356  40.401  24.972   0.737
 4741W        W76357  20.754  30.032   3.620
 4742W        W76358   0.689  40.066  13.422
 4743W        W76359   8.399  14.318  12.469
 4744W        W76360  32.578   2.480   3.538
 4745W        W76361  20.494  14.780  14.067
 4746W        W76362  17.020  32.205  14.956
 4747W        W76363  44.252  35.987   4.542
 4748W        W76364  12.707  19.248  10.901
 4749W        W76365  30.910  36.566  13.890
 4750W        W76366  39.262   2.593  12.507
 4751W        W76367  34.546   8.174  10.910
 4752W        W76368  31.919  24.251   4.218
 4753W        W76369   0.167   4.356  11.999
 4754W        W76370  29.874  23.626  12.859
 4755W        W76371  29.702  19.163   3.862
 4756W        W76372  42.845  44.367   0.373
 4757W        W76373  25.762  37.565  12.551
 4758W        W76374   8.938   7.868   2.621
 4759W        W76375  36.990  36.436   2.665
 4760W        W76376  19.794  28.471   1.322
 4761W        W76377   8.194  35.663   0.337
 4762W        W76378  26.015  41.410  13.377
 4763W        W76379  24.520  16.868  10.728
 4764W        W76380   9.534  31.939   2.272
 4765W        W76381  38.790  32.387   2.690
 4766W        W76382  15.676   9.034   1.936
 4767W        W76383  40.787  11.946  14.452
 4768W        W76384  43.271  18.071  12.763
 4769W        W76385  32.159  31.895   4.559
 4770W        W76386  41.207  43.659   0.957
 4771W        W76387  40.782  39.604   4.038
 4772W        W76388  26.394   6.194   2.977
 4773W        W76389   0.183  27.077  12.760
 4774W        W76390   9.095   5.637   2.288
 4775W        W76391  42.446   9.392   1.234
 4776W        W76392   6.664   2.302  13.809
 4777W        W76393  27.029  14.916  13.829
 4778W        W76394  21.520  36.929  11.609
 4779W        W76395  40.536  42.866  12.628
 4780W        W76396   9.382   6.602  11.135
 4781W        W76397  16.553  23.008   0.648
 4782W        W76398  40.295   5.508   0.952
 4783W        W76399  35.438  20.236  12.828
 4784W        W76400  25.074  41.881   0.413
 4785W        W76401  15.619  43.776  13.392
 4786W        W76402  11.079   4.295   4.726
 4787W        W76403  39.309  33.107  14.899
 4788W        W76404  26.377  11.332  14.736
 4789W        W76405   7.950   2.025   3.647
 4790W        W76406  37.117   6.572   3.392
 4791W        W76407  39.179   6.386   1.545
 4792W        W76408  32.435  24.083  13.509
 4793W        W76409   1.715  39.661  13.660
 4794W        W76410  41.374  19.436   4.866
 4795W        W76411  36.019  15.074  13.630
 4796W        W76412   7.797  27.693   3.298
 4797W        W76413  26.584  31.131   1.866
 4798W        W76414  31.302  21.239  13.596
 4799W        W76415  22.061  20.484   4.723
 4800W        W76416  15.508  10.237   2.182
 4801W        W76417  21.032  14.915  10.462
 4802W        W76418  33.963  44.517  12.938
 4803W        W76419  23.809  24.980   2.877
 4804W        W76420  31.889  33.889  13.058
 4805W        W76421  37.760  10.756  14.906
 4806W        W76422  18.379  10.350   1.238
 4807W        W76423   3.229  42.340   4.179
 4808W        W76424  27.575   8.660   3.250
 4809W        W76425  32.130  35.937   3.776
 4810W        W76426  17.831  35.544   2.934
 4811W        W76427  41.451  20.326   0.735
 4812W        W76428  20.150  41.208   9.883
 4813W        W76429  34.390  21.707   1.016
 4814W        W76430  21.942  39.535   0.981
 4815W        W76431   1.040  16.722   0.925
 4816W        W76432   5.320  33.563  11.905
 4817W        W76433  30.899   3.106  10.958
 4818W        W76434  42.810  17.248  12.372
 4819W        W76435  17.865  38.513   2.800
 4820W        W76436  33.096  33.586  13.042
 4821W        W76437  43.498   2.520  13.941
 4822W        W76438   4.842  33.041   0.092
 4823W        W76439  16.268   7.491  11.352
 4824W        W76440  33.614   8.428  12.400
 4825W        W76441  43.955  10.976   1.774
 4826W        W76442   5.583  40.888  10.665
 4827W        W76443  31.979  40.796  10.650
 4828W        W76444  20.119   8.740   2.695
 4829W        W76445  13.799  19.742  11.678
 4830W        W76446  22.418  29.573   0.589
 4831W        W76447  16.633  39.938   2.871
 4832W        W76448  15.725   5.410   4.111
 4833W        W76449   3.984  21.551  12.469
 4834W        W76450  11.113  15.766  10.546
 4835W        W76451  42.490   4.996   0.314
 4836W        W76452  20.962  10.617  13.938
 4837W        W76453  15.692  35.890  13.963
 4838W        W76454  38.237  15.106   2.160
 4839W        W76455  29.981  39.048   2.265
 4840W        W76456   6.804   5.312   1.412
 4841W        W76457  30.668  16.703  12.553
 4842W        W76458  39.111  38.783  12.972
 4843W        W76459  16.760   2.062  11.532
 4844W        W76460  23.044  42.171   4.673
 4845W        W76461  22.734   3.591  12.950
 4846W        W76462  20.016  34.473  14.300
 4847W        W76463  31.491  13.602  10.700
 4848W        W76464  24.156  36.616  14.414
 4849W        W76465  32.118  25.527   3.925
 4850W        W76466  30.664   4.233  14.661
 4851W        W76467   3.286   1.746   4.004
 4852W        W76468  44.620  44.724  13.946
 4853W        W76469   7.912  39.582  13.114
 4854W        W76470  38.872   0.836  11.191
 4855W        W76471  14.780   1.367  13.361
 4856W        W76472   0.801  41.309   1.295
 4857W        W76473  15.847   4.380   4.093
 4858W        W76474  12.024  27.959  13.516
 4859W        W76475   8.267   2.424   4.900
 4860W        W76476  19.712  19.071  11.514
 4861W        W76477  30.006  40.043   2.518
 4862W        W76478  18.613  36.314  11.027
 4863W        W76479  43.453  36.013   1.332
 4864W        W76480  18.642  18.341   1.179
 4865W        W76481  15.206  22.091  11.583
 4866W        W76482  38.793  26.103  14.966
 4867W        W76483  35.743  17.835  14.515
 4868W        W76484  17.544  39.211   4.692
 4869W        W76485  11.652  22.201  11.212
 4870W        W76486   5.113   2.176  10.482
 4871W        W76487  17.100  17.845   2.555
 4872W        W76488   4.373  31.982  13.870
 4873W        W76489   9.533  44.283   1.727
 4874W        W76490   9.870  25.987   0.516
 4875W        W76491   3.937   0.642  11.513
 4876W        W76492   1.757  36.592   1.376
 4877W        W76493   4.878  16.010  14.962
 4878W        W76494  28.074  10.309  13.999
 4879W        W76495  27.393  11.564   3.674
 4880W        W76496  16.387  29.343   2.141
 4881W        W76497  12.229  34.039   3.553
 4882W        W76498  24.092  39.903  14.748
 4883W        W76499   1.929  38.202  13.384
 4884W        W76500   3.851  19.671   2.832
 4885W        W76501  18.665  14.386  13.808
 4886W        W76502   4.267  42.996  14.407
 4887W        W76503  35.034  10.973  12.952
 4888W        W76504  28.161  41.903   3.681
 4889W        W76505  18.007  14.837   1.887
 4890W        W76506  43.082  44.900   1.208
 4891W        W76507   2.446   2.801  13.029
 4892W        W76508  21.770  40.419   3.182
 4893W        W76509  34.538   3.651   3.194
 4894W        W76510  33.449  32.511  13.058
 4895W        W76511  33.603  36.313   4.611
 4896W        W76512  20.773  27.053  14.560
 4897W        W76513  37.147  32.409  10.492
 4898W        W76514   2.895  17.145   2.161
 4899W        W76515  16.287  17.762  11.015
 4900W        W76516   2.057   4.432   3.329
 4901W        W76517   0.450   6.914  10.365
 4902W        W76518  33.981   5.374  13.457
 4903W        W76519  19.767  38.971   3.325
 4904W        W76520  36.341  33.498  12.503
 4905W        W76521  30.986  35.819  11.094
 4906W        W76522  30.970  21.335   3.161
 4907W        W76523  34.889  16.194  10.766
 4908W        W76524  34.981   8.403   3.617
 4909W        W76525  14.456  42.375   1.352
 4910W        W76526  26.344  36.875   1.980
 4911W        W76527  17.411   7.609  12.924
 4912W        W76528  17.159  30.417   4.136
 4913W        W76529   5.806  27.164  10.713
 4914W        W76530  36.932  37.265  11.910
 4915W        W76531  17.087   1.750  13.498
 4916W        W76532  20.661  34.942   2.648
 4917W        W76533  26.651  33.912   1.386
 4918W        W76534   8.620  12.640  10.643
 4919W        W76535  38.985   8.145   0.346
 4920W        W76536  18.221  38.407  13.375
 4921W        W76537   1.236  30.027   3.310
 4922W        W76538  23.214  15.006  13.873
 4923W        W76539  21.679   9.968   1.469
 4924W        W76540  19.604  42.797   4.070
 4925W        W76541  18.537  18.294   3.646
 4926W        W76542   7.455  30.522  10.384
 4927W        W76543  30.377   7.293   1.420
 4928W        W76544  23.117  29.991   2.106
 4929W        W76545   7.604  44.878  11.566
 4930W        W76546  22.032  24.038  11.185
 4931W        W76547   9.427   1.841  10.869
 4932W        W76548  37.075  44.855   4.136
 4933W        W76549  37.162   6.210  14.224
 4934W        W76550  31.927  13.330   1.242
 4935W        W76551  15.203  41.025   2.778
 4936W        W76552  22.990  11.264  14.502
 4937W        W76553  14.935  42.919   3.304
 4938W        W76554  30.193  28.615  14.487
 4939W        W76555  39.394  41.930   3.658
 4940W        W76556  31.665  35.030   1.949
 4941W        W76557   8.738  21.259  12.334
 4942W        W76558  22.668  41.955  13.101
 4943W        W76559   2.021  24.492   1.395
 4944W        W76560   5.353  11.199   1.379
 4945W        W76561  10.924  22.082  13.053
 4946W        W76562  13.676   4.885   4.135
 4947W        W76563  11.725   5.182   4.715
 4948W        W76564  22.220  18.544  14.358
 4949W        W76565  37.056  20.170  14.298
 4950W        W76566   9.949  41.020   3.378
 4951W        W76567  30.393  21.576   1.970
 4952W        W76568   7.301  41.549   3.284
 4953W        W76569  15.265   1.548   3.270
 4954W        W76570  36.547  18.045   2.736
 4955W        W76571   1.974  16.710  14.940
 4956W        W76572  38.051  42.970   3.278
 4957W        W76573   0.707   2.456  14.326
 4958W        W76574  42.946  31.762  14.541
 4959W        W76575   8.789   3.064   0.932
 4960W        W76576  16.397  38.258   1.763
 4961W        W76577  17.591  30.004  13.334
 4962W        W76578   7.249   1.336  13.087
 4963W        W76579  32.787   0.393  11.717
 4964W        W76580  29.367  15.399  10.575
 4965W        W76581   1.138  27.987   4.162
 4966W        W76582  30.167  15.645  10.776
 4967W        W76583  40.386  22.785  11.076
 4968W        W76584  31.405  21.990   0.665
 4969W        W76585  41.384  31.903  12.932
 4970W        W76586  32.005   9.323  11.109
 4971W        W76587  16.563  21.741  14.561
 4972W        W76588  43.957  25.775   1.711
 4973W        W76589  11.321  12.807   1.165
 4974W        W76590  13.755  42.219   4.175
 4975W        W76591  32.831   4.776  14.216
 4976W        W76592   1.966   9.378  10.930
 4977W        W76593  40.527   3.143  10.672
 4978W        W76594   4.703  42.274  14.451
 4979W        W76595  21.137  16.210   0.485
 4980W        W76596  26.703  17.279   4.312
 4981W        W76597  29.609  26.225  11.565
 4982W        W76598  33.877  32.559  12.429
 4983W        W76599   6.768  34.945  11.527
 4984W        W76600  15.983  26.562   4.558
 4985W        W76601  12.826  37.327  12.959
 4986W        W76602  26.280   5.727  12.962
 4987W        W76603  23.249  31.760  13.073
 4988W        W76604  35.373  28.547   4.077
 4989W        W76605  29.460  10.526  12.033
 4990W        W76606   7.363  41.241  11.961
 4991W        W76607  18.544   8.248   0.151
 4992W        W76608  28.315  29.647   3.419
 4993W        W76609  43.529  41.793   0.992
 4994W        W76610  25.230   6.432   3.720
 4995W        W76611  10.084  28.971  12.081
 4996W        W76612  13.707  25.695  13.525
 4997W        W76613   4.640   7.271   4.246
 4998W        W76614  24.142  41.415  13.871
 4999W        W76615  23.962   8.439   0.985
 5000W        W76616  36.613  44.295   2.843
 5001W        W76617   5.378  35.338   4.540
 5002W        W76618  12.979   5.364  13.974
 5003W        W76619   2.884  42.169  10.725
 5004W        W76620  41.457  39.877   4.671
 5005W        W76621  30.740   8.787   3.704
 5006W        W76622  31.430  32.478   3.365
 5007W        W76623  15.727  32.506  14.062
 5008W        W76624  37.344   6.502   1.934
 5009W        W76625  25.770  18.564  11.386
 5010W        W76626   2.654  43.543  13.081
 5011W        W76627   8.736  33.064   1.312
 5012W        W76628   4.233  32.123   2.744
 5013W        W76629  42.946  19.553   2.293
 5014W        W76630  29.543   8.387   3.262
 5015W        W76631  20.239   9.880   4.229
 5016W        W76632  23.574   7.730  14.171
 5017W        W76633  29.424  12.648  10.750
 5018W        W76634  40.800   2.406  14.074
 5019W        W76635  40.516  41.814   4.990
 5020W        W76636  10.121  18.343   3.809
 5021W        W76637  35.179  35.770   2.649
 5022W        W76638  13.246  16.963  13.695
 5023W        W76639   3.379  37.274  13.064
 5024W        W76640   7.471   9.734   3.681
 5025W        W76641  41.907  21.957   2.587
 5026W        W76642   3.187   4.174   0.346
 5027W        W76643   5.391  12.239  14.266
 5028W        W76644  34.881  17.602  11.532
 5029W        W76645  33.129  28.606  12.960
 5030W        W76646  37.045   2.747  10.690
 5031W        W76647  31.503  24.077   2.300
 5032W        W76648  40.713   2.183   1.272
 5033W        W76649  22.290  32.989  12.892
 5034W        W76650  16.847  28.423   4.482
 5035W        W76651  43.833  27.214   1.154
 5036W        W76652   5.082   0.755   1.914
 5037W        W76653  17.652  27.971   3.751
 5038W        W76654  10.652  30.354   1.768
 5039W        W76655  35.312  29.712  14.296
 5040W        W76656  42.937  17.477   4.386
 5041W        W76657  35.888  22.899  11.475
 5042W        W76658  33.334  25.617  10.383
 5043W        W76659   9.800  12.100   3.781
 5044W        W76660  15.893  42.215  11.472
 5045W        W76661  44.300  37.656  14.864
 5046W        W76662  18.961  35.070   4.374
 5047W        W76663   3.033  41.924   4.851
 5048W        W76664  19.716   2.840  12.926
 5049W        W76665  39.882   1.342  13.435
 5050W        W76666  19.858  21.896  12.874
 5051W        W76667  19.238  17.019   4.945
 5052W        W76668   9.882  20.050  13.092
 5053W        W76669  25.681  33.620  13.706
 5054W        W76670   5.437  44.310  12.600
 5055W        W76671  27.099  31.863   2.008
 5056W        W76672   8.880  38.455  12.973
 5057W        W76673  18.654  19.291  13.016
 5058W        W76674  17.300  13.760  12.146
 5059W        W76675  44.589  32.687   1.866
 5060W        W76676  15.537  39.828   4.610
 5061W        W76677  27.652  16.862   5.449
 5062W        W76678  32.657  16.231   0.629
 5063W        W76679  30.964   0.286  11.128
 5064W        W76680  14.076   4.437  10.194
 5065W        W76681   1.919  34.646  14.973
 5066W        W76682  37.374  23.614   2.780
 5067W        W76683  25.525  12.186   3.718
 5068W        W76684  37.805  30.034  13.731
 5069W        W76685  39.906  32.243   3.684
 5070W        W76686  28.630  44.780   1.271
 5071W        W76687   9.212   5.990   0.674
 5072W        W76688  35.689   1.211  13.390
 5073W        W76689  17.246   1.473   4.517
 5074W        W76690  43.215  16.540  11.865
 5075W        W76691  36.239  34.571  11.195
 5076W        W76692   6.973  19.214   0.057
 5077W        W76693  24.539  13.381   4.193
 5078W        W76694  30.376   2.807  10.828
 5079W        W76695   5.818  30.187   4.075
 5080W        W76696  10.547  31.854   3.450
 5081W        W76697  20.689   6.775  10.950
 5082W        W76698  19.219  24.157   3.059
 5083W        W76699  38.472  35.017   4.519
 5084W        W76700  38.999   6.389  13.483
 5085W        W76701  36.472  26.761  13.302
 5086W        W76702   7.363  16.849   2.876
 5087W        W76703  40.358  32.249  11.421
 5088W        W76704  38.981  31.428  13.517
 5089W        W76705   1.726  20.205  10.764
 5090W        W76706  13.862  40.023  14.155
 5091W        W76707  23.674  18.158   3.235
 5092W        W76708  12.184   0.190  14.002
 5093W        W76709   9.499   4.456   4.829
 5094W        W76710  41.476  10.898  13.966
 5095W        W76711  35.981  28.076  11.427
 5096W        W76712  10.906  36.003  13.602
 5097W        W76713  21.047   4.956  13.839
 5098W        W76714  36.541  41.308   2.364
 5099W        W76715  38.410  16.057   1.011
 5100W        W76716   0.491  28.232   2.922
 5101W        W76717  10.248  21.596   2.297
 5102W        W76718  31.502  44.875   5.470
 5103W        W76719   3.788  37.961  12.051
 5104W        W76720  33.340  25.499  11.390
 5105W        W76721  43.464  28.932  13.493
 5106W        W76722  29.120  16.826  11.461
 5107W        W76723  21.178  24.043   1.878
 5108W        W76724  29.125  25.839   0.315
 5109W        W76725  22.056  11.581  14.954
 5110W        W76726   2.244  44.751  13.389
 5111W        W76727  33.187  39.476   2.678
 5112W        W76728  19.740  15.687  12.488
 5113W        W76729  23.214  13.876  10.959
 5114W        W76730  23.466  15.231   0.339
 5115W        W76731  32.183  42.783  14.273
 5116W        W76732  20.695  29.930   2.226
 5117W        W76733  26.965  22.605   1.667
 5118W        W76734  38.982  35.202   4.179
 5119W        W76735  36.919  24.159  13.021
 5120W        W76736  35.548  35.045   0.019
 5121W        W76737  17.810  30.393  12.521
 5122W        W76738  32.034  40.030  13.734
 5123W        W76739   0.280  10.199  12.655
 5124W        W76740  23.092  22.996  11.165
 5125W        W76741  17.610  32.444  11.997
 5126W        W76742  12.294  40.119  13.547
 5127W        W76743  23.533  33.880  13.892
 5128W        W76744  35.905  20.781   0.978
 5129W        W76745  21.397  14.451   5.000
 5130W        W76746  23.582  37.363   3.207
 5131W        W76747  40.960  26.715  12.171
 5132W        W76748  11.378  13.943  11.592
 5133W        W76749  43.846   6.159  13.293
 5134W        W76750  34.503  15.552  13.550
 5135W        W76751  23.536  15.615   4.120
 5136W        W76752  29.959  14.280   3.384
 5137W        W76753  35.921  40.393  14.702
 5138W        W76754  37.823  40.443   3.180
 5139W        W76755   1.924   8.750  12.048
 5140W        W76756  15.162  19.531   4.193
 5141W        W76757  13.664   2.365   3.838
 5142W        W76758  39.253   2.780  14.772
 5143W        W76759  43.678  42.255  13.011
 5144W        W76760  10.374  19.656  10.658
 5145W        W76761  31.017  19.770  14.243
 5146W        W76762   9.170  34.976   1.851
 5147W        W76763   7.351  10.184  14.207
 5148W        W76764  21.647  10.856   1.062
 5149W        W76765  23.499  40.448  10.697
 5150W        W76766  21.312  41.005  11.064
 5151W        W76767  12.239  22.563   1.764
 5152W        W76768  37.367   4.904   2.657
 5153W        W76769  43.442   1.230   4.223
 5154W        W76770  11.740  11.213  14.339
 5155W        W76771  13.447  29.991  11.910
 5156W        W76772  21.696  40.232  13.495
 5157W        W76773  41.107   5.267   3.675
 5158W        W76774   1.655  25.546   2.856
 5159W        W76775  26.780  37.918   4.952
 5160W        W76776   5.845  10.269  13.928
 5161W        W76777  26.458  27.409  14.269
 5162W        W76778   1.437  11.367   4.239
 5163W        W76779  35.429  11.727  12.479
 5164W        W76780  34.460  20.554  11.450
 5165W        W76781  14.662  37.380   3.753
 5166W        W76782   3.771  27.423  14.439
 5167W        W76783  39.157  26.774  13.492
 5168W        W76784  30.050   5.207  11.223
 5169W        W76785  16.568   1.730   2.053
 5170W        W76786  13.499  15.362  12.888
 5171W        W76787  21.722  40.758  13.526
 5172W        W76788  16.353  28.991   1.582
 5173W        W76789  24.186   5.618   1.169
 5174W        W76790  14.240  29.645   2.119
 5175W        W76791  44.317   9.146  14.493
 5176W        W76792  19.582  33.702   2.768
 5177W        W76793  28.409  25.274   0.293
 5178W        W76794  22.048  12.002  12.483
 5179W        W76795  27.536  14.277  13.443
 5180W        W76796   9.410  13.068   2.633
 5181W        W76797  43.345  17.225  14.911
 5182W        W76798  22.268  42.561  11.051
 5183W        W76799  26.179   7.622   3.017
 5184W        W76800  29.657  30.191  14.017
 5185W        W76801  21.651  18.022  13.057
 5186W        W76802  40.293   2.467   1.455
 5187W        W76803  33.721  42.997   2.147
 5188W        W76804  30.914  10.882  13.787
 5189W        W76805  26.563  19.819   2.766
 5190W        W76806  13.915  28.377   0.401
 5191W        W76807   0.232  38.379   3.565
 5192W        W76808  20.160  34.852   3.844
 5193W        W76809  12.206  13.517   1.801
 5194W        W76810  44.841  29.572  13.633
 5195W        W76811  19.118  32.127  11.337
 5196W        W76812  19.327   5.806  12.744
 5197W        W76813  19.957  40.476  11.543
 5198W        W76814  37.154  15.024   4.112
 5199W        W76815  40.974  41.832  12.951
 5200W        W76816  38.298  32.884   4.139
 5201W        W76817  15.719  42.859  13.471
 5202W        W76818  11.161   7.639   2.236
 5203W        W76819  20.626  13.388   1.281
 5204W        W76820  29.196  44.578  14.347
 5205W        W76821  10.776  42.400  13.027
 5206W        W76822  22.536   7.631   3.245
 5207W        W76823  13.610  27.570   3.175
 5208W        W76824  30.650  13.787   4.164
 5209W        W76825  38.809  14.197  12.080
 5210W        W76826  20.097  17.912   0.842
 5211W        W76827  30.447  31.841   3.717
 5212W        W76828  26.756   4.775   0.833
 5213W        W76829   2.816   9.939  12.391
 5214W        W76830  11.655  21.210  11.187
 5215W        W76831  15.607   8.258  10.761
 5216W        W76832  34.652   0.442   2.428
 5217W        W76833  40.834  16.216  13.132
 5218W        W76834  13.381  11.134  13.271
 5219W        W76835   1.711  19.067   4.068
 5220W        W76836  43.857  24.895   2.761
 5221W        W76837  23.466  33.974   0.700
 5222W        W76838  43.921  32.065  13.400
 5223W        W76839   9.200  26.329   3.064
 5224W        W76840  37.273  41.447   3.538
 5225W        W76841  32.229  21.671   4.853
 5226W        W76842   8.215  10.406   1.909
 5227W        W76843   5.292  28.128  11.168
 5228W        W76844  38.168  37.050   2.691
 5229W        W76845  21.571  13.429   1.201
 5230W        W76846  42.517  39.817  14.669
 5231W        W76847  17.618  42.884  10.633
 5232W        W76848   3.565  10.881   1.958
 5233W        W76849  32.446  41.897   0.834
 5234W        W76850  19.695  37.474   3.357
 5235W        W76851  18.572  20.922  10.359
 5236W        W76852   8.218  43.005  12.482
 5237W        W76853   2.843  13.270   1.275
 5238W        W76854   9.468  19.825   1.822
 5239W        W76855  40.547  17.380   1.346
 5240W        W76856  31.215  38.379   0.219
 5241W        W76857  12.150  18.232  13.024
 5242W        W76858  13.405  27.188   2.265
 5243W        W76859  15.362  29.612  13.319
 5244W        W76860  40.388   1.650   0.893
 5245W        W76861  27.992  22.986  12.792
 5246W        W76862  13.151  15.053   0.248
 5247W        W76863  25.891  12.469  12.597
 5248W        W76864   6.128  14.280  11.671
 5249W        W76865   6.616   9.963  13.974
 5250W        W76866   3.780  44.929  11.065
 5251W        W76867  40.878   5.168  12.095
 5252W        W76868  19.867  20.304   4.517
 5253W        W76869  23.771   2.997   1.028
 5254W        W76870  44.442   4.678   2.825
 5255W        W76871   2.694   1.923   0.423
 5256W        W76872   5.364  14.679   1.627
 5257W        W76873  33.555  35.697   1.953
 5258W        W76874  13.813  12.844   1.321
 5259W        W76875   0.331  30.950   3.655
 5260W        W76876  41.527  17.690   4.410
 5261W        W76877  41.564  32.494  14.354
 5262W        W76878  40.890  38.923   0.495
 5263W        W76879   7.537   1.042  10.989
 5264W        W76880  22.549  30.198  10.780
 5265W        W76881   5.206  15.297   1.435
 5266W        W76882  28.097  26.462   5.067
 5267W        W76883  22.573  37.563   0.285
 5268W        W76884  35.793  19.764   2.309
 5269W        W76885  15.536  35.703  13.422
 5270W        W76886  11.158  23.456  14.359
 5271W        W76887   5.270  41.773  13.789
 5272W        W76888  27.927  34.377  14.038
 5273W        W76889   7.372   7.834  11.939
 5274W        W76890  16.809   9.469  12.434
 5275W        W76891  10.713  37.784  11.335
 5276W        W76892  42.923   5.280   0.526
 5277W        W76893  33.620  20.477   4.322
 5278W        W76894  29.339  40.014  12.093
 5279W        W76895   4.702   8.155  13.946
 5280W        W76896  23.440   8.221   1.873
 5281W        W76897  14.426  27.960   3.238
 5282W        W76898  34.562  29.612   4.365
 5283W        W76899   1.171   8.530  13.893
 5284W        W76900   4.448  10.803  13.045
 5285W        W76901  13.772  31.893   0.122
 5286W        W76902   5.212  18.193  12.183
 5287W        W76903  24.784  27.362   3.349
 5288W        W76904  28.799   6.755  11.105
 5289W        W76905   8.097  17.761  13.830
 5290W        W76906   1.017   8.646   1.717
 5291W        W76907   9.439  12.575   2.308
 5292W        W76908   9.776  21.745  11.081
 5293W        W76909  36.175  29.475   3.678
 5294W        W76910  10.512  42.977   4.074
 5295W        W76911  44.732  36.211  14.268
 5296W        W76912  27.467  36.846   3.928
 5297W        W76913  22.677  24.199  12.901
 5298W        W76914  19.123  26.717   2.212
 5299W        W76915  11.279   6.784   2.802
 5300W        W76916   2.509  10.842  13.450
 5301W        W76917  10.682  37.207   2.280
 5302W        W76918  42.783  37.072   4.094
 5303W        W76919  19.257  42.032  14.223
 5304W        W76920  17.909  44.430  12.836
 5305W        W76921  14.203  33.742   1.838
 5306W        W76922  40.801  11.434   0.315
 5307W        W76923   9.434  11.251   4.028
 5308W        W76924  40.572  27.953  14.340
 5309W        W76925  19.185   3.776   0.330
 5310W        W76926  24.150  20.064  13.143
 5311W        W76927  21.227  25.854   2.827
 5312W        W76928  25.735  13.554   1.852
 5313W        W76929  31.835  36.105   0.426
 5314W        W76930  18.279   3.004   1.842
 5315W        W76931  28.136  14.596   3.606
 5316W        W76932  11.823  44.385  10.252
 5317W        W76933  11.188   7.367   4.697
 5318W        W76934  24.068  41.966  11.583
 5319W        W76935   2.243  37.445  10.861
 5320W        W76936   2.243   0.917  11.090
 5321W        W76937   2.155  12.305  14.516
 5322W        W76938  13.638  41.283   2.627
 5323W        W76939   0.695  34.342  13.439
 5324W        W76940   5.486   4.911  12.446
 5325W        W76941  15.374  18.181   3.265
 5326W        W76942  25.680  14.236  13.336
 5327W        W76943  37.955  39.292   2.716
 5328W        W76944  44.938  21.766  12.389
 5329W        W76945  41.517  33.444  11.073
 5330W        W76946  18.331  41.119  14.160
 5331W        W76947  31.962   4.703   2.788
 5332W        W76948   6.733  15.406  14.059
 5333W        W76949  33.794   6.307  11.248
 5334W        W76950  31.049  11.741   3.397
 5335W        W76951  25.132   5.947   3.653
 5336W        W76952  44.548   8.440  11.655
 5337W        W76953  10.326   6.782  12.906
 5338W        W76954  39.134  33.460   1.475
 5339W        W76955  13.747  18.293   4.189
 5340W        W76956  24.620  26.260  12.595
 5341W        W76957  22.631  20.280  14.310
 5342W        W76958  37.841  42.787  11.492
 5343W        W76959  11.605  44.336   4.394
 5344W        W76960  12.585  42.516  12.189
 5345W        W76961  15.195   6.429   3.655
 5346W        W76962  35.550  18.834  11.977
 5347W        W76963  35.395  15.216  14.244
 5348W        W76964  30.471  31.159  11.018
 5349W        W76965   1.890  12.587   3.554
 5350W        W76966   1.435  28.241   0.244
 5351W        W76967  14.658   8.264  13.839
 5352W        W76968  28.932  42.432   0.247
 5353W        W76969  34.661  22.563  14.358
 5354W        W76970  21.478  31.553  10.747
 5355W        W76971   4.991  14.486  14.479
 5356W        W76972  16.359  10.499   0.376
 5357W        W76973  25.873  15.315  11.566
 5358W        W76974   3.285  20.164  11.545
 5359W        W76975  28.063  41.494  14.295
 5360W        W76976  37.112  13.386   9.873
 5361W        W76977  38.120  19.468   2.938
 5362W        W76978  20.570  34.970  12.987
 5363W        W76979  19.252   6.824  13.627
 5364W        W76980  40.958  35.546  14.979
 5365W        W76981   7.608  19.452   0.373
 5366W        W76982   9.697   4.014   4.665
 5367W        W76983  14.421  13.692  14.816
 5368W        W76984  34.632  23.867  11.556
 5369W        W76985  39.850  29.891   0.995
 5370W        W76986  31.206  31.352   1.306
 5371W        W76987  23.725  30.168  12.562
 5372W        W76988  11.241   3.033  11.547
 5373W        W76989  19.197  18.189   4.239
 5374W        W76990  31.535   6.408   1.433
 5375W        W76991  25.214  23.079   2.601
 5376W        W76992  18.077   0.453  14.912
 5377W        W76993  25.151  11.345  12.018
 5378W        W76994  42.955   6.889  11.358
 5379W        W76995  25.029  29.674   5.005
 5380W        W76996  22.948   8.445   4.189
 5381W        W76997  32.811  39.945   3.882
 5382W        W76998  35.313  39.848  13.442
 5383W        W76999  31.158  17.981  12.811
 5384W        W77000   5.461   6.861  13.970
 5385W        W77001  41.058  20.654  10.684
 5386W        W77002  10.106  38.791   3.817
 5387W        W77003  30.309  35.866  12.879
 5388W        W77004  42.368  29.552   3.695
 5389W        W77005   2.462  12.901  12.042
 5390W        W77006   7.946   4.413  14.646
 5391W        W77007  11.485  40.306   1.293
 5392W        W77008  12.219  32.935  10.661
 5393W        W77009  32.333  29.979   2.785
 5394W        W77010  10.825  28.205  12.109
 5395W        W77011  41.545  17.714  12.232
 5396W        W77012  27.284  39.020   0.678
 5397W        W77013  20.758   3.291  10.688
 5398W        W77014  28.239  18.526   5.076
 5399W        W77015  29.752  21.849   4.128
 5400W        W77016  42.823  34.846  13.470
 5401W        W77017  24.223  16.338  11.669
 5402W        W77018   4.398   6.671   2.707
 5403W        W77019  28.206  40.602   3.342
 5404W        W77020  15.703   9.945  11.075
 5405W        W77021   7.310  32.447   3.838
 5406W        W77022  41.958  13.849  13.929
 5407W        W77023   7.299  24.987   4.613
 5408W        W77024  23.386  27.420   1.764
 5409W        W77025  10.189  42.022  12.081
 5410W        W77026  42.525  37.350   2.940
 5411W        W77027  36.405   4.735   3.198
 5412W        W77028   8.156   6.362   0.740
 5413W        W77029  26.567  44.638   0.281
 5414W        W77030  20.041  12.953  12.034
 5415W        W77031  14.160  24.441  10.972
 5416W        W77032  11.303  13.386  12.331
 5417W        W77033  23.206  16.046  10.845
 5418W        W77034  43.270   2.874   0.519
 5419W        W77035   4.921  43.483   3.338
 5420W        W77036  37.403   8.895   3.362
 5421W        W77037  36.856   8.893   0.819
 5422W        W77038  10.419  36.755   1.422
 5423W        W77039  44.427  11.256  11.050
 5424W        W77040  30.986  12.833  10.691
 5425W        W77041  19.035  36.443  13.461
 5426W        W77042  13.416  38.813  10.674
 5427W        W77043  42.678   4.944   1.981
 5428W        W77044   0.898  20.308  13.152
 5429W        W77045   7.543  14.249  12.974
 5430W        W77046  22.014  14.496   0.165
 5431W        W77047  21.583  17.130  10.794
 5432W        W77048  23.956  34.177  13.828
 5433W        W77049   2.918  14.581   3.881
 5434W        W77050  30.962  14.553  11.644
 5435W        W77051  40.518   0.509  11.584
 5436W        W77052  23.712   8.324   2.333
 5437W        W77053   0.048  17.777  12.688
 5438W        W77054  30.948   2.204   2.893
 5439W        W77055  43.070  18.300   1.535
 5440W        W77056  39.441  22.191   3.615
 5441W        W77057  21.756  24.148  12.926
 5442W        W77058  14.238   6.912   4.562
 5443W        W77059  40.439  17.821   1.035
 5444W        W77060  23.545   2.510  12.656
 5445W        W77061  26.651  36.809  14.009
 5446W        W77062   4.738   6.624  12.150
 5447W        W77063  19.774  10.372  12.374
 5448W        W77064  27.976  12.834   0.392
 5449W        W77065   1.916  26.060   3.562
 5450W        W77066  34.020  27.920  11.562
 5451W        W77067  19.452  12.270  13.956
 5452W        W77068  28.431  13.041   4.879
 5453W        W77069  30.010  19.502  12.973
 5454W        W77070  11.790  31.804  10.297
 5455W        W77071  41.943  31.066   4.164
 5456W        W77072   0.465   2.975  13.718
 5457W        W77073  31.482  30.451   9.627
 5458W        W77074   7.683   9.887  13.054
 5459W        W77075  43.974  41.897   1.237
 5460W        W77076  27.990  44.780   3.649
 5461W        W77077   8.206  40.605  10.889
 5462W        W77078  10.373  36.010   1.359
 5463W        W77079  44.766  43.564  14.453
 5464W        W77080  11.653  26.192  13.940
 5465W        W77081  26.099  34.188  11.184
 5466W        W77082  21.366  43.590  12.643
 5467W        W77083  15.475  20.431   4.944
 5468W        W77084  10.229  14.555   1.757
 5469W        W77085   0.527  34.727  12.097
 5470W        W77086   7.877  36.440  11.547
 5471W        W77087   0.963  41.063   3.601
 5472W        W77088   7.319  20.150  10.707
 5473W        W77089  26.172  14.520  10.431
 5474W        W77090  24.887   4.137  14.976
 5475W        W77091  31.675   4.177  12.530
 5476W        W77092  42.137  25.761   1.170
 5477W        W77093  23.516  41.459   3.816
 5478W        W77094  15.095  34.941  13.101
 5479W        W77095  11.777  35.856  13.477
 5480W        W77096  34.852  38.822  14.009
 5481W        W77097  16.153  11.627  11.672
 5482W        W77098  29.069  30.629  10.929
 5483W        W77099   4.236  16.745   2.277
 5484W        W77100  42.106  12.214  14.855
 5485W        W77101  16.634  30.101  13.370
 5486W        W77102  26.594  27.473   0.869
 5487W        W77103  20.236  42.984  13.376
 5488W        W77104   6.310  16.174  14.999
 5489W        W77105  24.235  26.849  11.557
 5490W        W77106  34.145  22.526  11.257
 5491W        W77107  35.993  35.583  12.950
 5492W        W77108   8.220  30.402   2.037
 5493W        W77109  20.785  27.257  12.897
 5494W        W77110  31.983  44.068   3.713
 5495W        W77111  34.102  38.919  12.553
 5496W        W77112  41.354  24.656   2.665
 5497W        W77113  27.686  11.712  11.112
 5498W        W77114  12.176  20.212   3.684
 5499W        W77115  43.466  13.259   1.563
 5500W        W77116  27.628  44.187  10.431
 5501W        W77117  23.685  33.560  14.930
 5502W        W77118  21.158  37.908   2.806
 5503W        W77119  20.539   0.654  11.563
 5504W        W77120  35.149  30.175  10.776
 5505W        W77121  19.225   0.446   2.760
 5506W        W77122  14.890  18.266  12.913
 5507W        W77123   2.301  30.562   1.405
 5508W        W77124  36.951  12.199  11.596
 5509W        W77125  37.384  26.073  14.041
 5510W        W77126  32.895   1.544   3.789
 5511W        W77127  15.227  42.254   0.887
 5512W        W77128   0.302  39.895  11.117
 5513W        W77129  12.612  44.338   1.456
 5514W        W77130  25.261  43.079   0.714
 5515W        W77131  30.910  19.264  11.895
 5516W        W77132  37.598   1.978  14.604
 5517W        W77133  43.007  42.488  11.928
 5518W        W77134  38.313  21.894  14.098
 5519W        W77135  21.636  28.675  14.725
 5520W        W77136  16.228  20.769  11.872
 5521W        W77137  36.002  19.358   3.681
 5522W        W77138  38.521  10.254  11.230
 5523W        W77139  33.020  35.869  14.842
 5524W        W77140   2.286   8.266  14.541
 5525W        W77141  20.533  22.130  12.907
 5526W        W77142  10.378  44.326   0.720
 5527W        W77143  18.743  37.579   1.069
 5528W        W77144   1.951  17.122  12.467
 5529W        W77145  37.631  26.400   2.053
 5530W        W77146  43.562  31.732  11.823
 5531W        W77147  31.092   0.900   0.471
 5532W        W77148  13.465  30.667   2.215
 5533W        W77149  26.857  28.135   4.213
 5534W        W77150   7.868   5.820   3.083
 5535W        W77151  42.530  13.132   3.256
 5536W        W77152  29.678  28.524  12.110
 5537W        W77153   6.971  36.666   4.129
 5538W        W77154  24.568   8.631  11.062
 5539W        W77155  10.191  25.666   4.597
 5540W        W77156  39.969  34.719  14.208
 5541W        W77157  15.545  28.131  11.220
 5542W        W77158  13.892   1.400   2.335
 5543W        W77159  29.645  17.688   1.489
 5544W        W77160  18.736  35.668  11.902
 5545W        W77161   4.174  20.592   1.864
 5546W        W77162  13.574   6.936  12.105
 5547W        W77163  15.493  11.712   2.134
 5548W        W77164  24.183  34.776  14.443
 5549W        W77165  20.253   7.488   0.494
 5550W        W77166   6.275  42.781  11.622
 5551W        W77167  25.774  23.515  13.822
 5552W        W77168  18.295   5.507  11.091
 5553W        W77169  34.610  42.759   3.595
 5554W        W77170  11.519  41.687   1.425
 5555W        W77171  36.143  19.830   2.690
 5556W        W77172  11.135  23.096   2.608
 5557W        W77173  35.449  22.472  13.323
 5558W        W77174  16.750   3.840  13.522
 5559W        W77175   4.419  36.270  13.917
 5560W        W77176  44.974  18.857  10.862
 5561W        W77177  38.076  31.213  13.155
 5562W        W77178   1.951  15.194  10.758
 5563W        W77179  27.243   8.618  14.052
 5564W        W77180  33.757  35.656   5.113
 5565W        W77181   6.667  28.942   2.833
 5566W        W77182  34.427  26.189  14.927
 5567W        W77183  23.453  16.568  12.901
 5568W        W77184  42.056  19.691  10.350
 5569W        W77185  31.718   9.825   3.808
 5570W        W77186  34.336  12.386   1.817
 5571W        W77187   4.747  36.884   1.815
 5572W        W77188  28.087  35.969   3.237
 5573W        W77189  22.860   0.948  13.872
 5574W        W77190  26.572  43.992  13.789
 5575W        W77191   4.195  43.724   1.288
 5576W        W77192   1.601   1.716  12.077
 5577W        W77193  22.674   0.426   1.425
 5578W        W77194  22.538  22.194   2.358
 5579W        W77195  37.777   2.706   1.812
 5580W        W77196   2.507  37.920  10.774
 5581W        W77197  22.513  27.032  12.513
 5582W        W77198  39.642  33.929   4.168
 5583W        W77199  36.387   4.676  10.256
 5584W        W77200  21.948  21.769  11.810
 5585W        W77201  21.261  18.460   3.421
 5586W        W77202   6.572  31.029  11.901
 5587W        W77203  17.018  40.751  12.984
 5588W        W77204  20.505  28.315  12.652
 5589W        W77205  43.061  23.549  12.917
 5590W        W77206   4.813  34.100  14.333
 5591W        W77207  12.879  42.452  10.774
 5592W        W77208   1.326   3.193   3.842
 5593W        W77209  26.877  27.534  12.023
 5594W        W77210  36.869  35.859  11.533
 5595W        W77211  17.980   9.731   4.374
 5596W        W77212  14.262  17.994  11.481
 5597W        W77213  10.744  19.151   3.811
 5598W        W77214  14.646  15.324  10.546
 5599W        W77215  11.937  34.578  12.472
 5600W        W77216   2.307  44.334   4.230
 5601W        W77217  41.217  18.846  13.279
 5602W        W77218  36.295   8.277  13.590
 5603W        W77219  22.004  38.602   4.591
 5604W        W77220   0.681  20.254   0.953
 5605W        W77221  14.041   3.157   1.674
 5606W        W77222  17.963  12.303   4.828
 5607W        W77223  13.093  38.508  12.436
 5608W        W77224  12.193  25.166  10.684
 5609W        W77225  18.523  24.699  14.826
 5610W        W77226  37.446   9.929   3.320
 5611W        W77227  14.164  12.171   2.191
 5612W        W77228   7.382  44.810   3.243
 5613W        W77229  13.654  10.597   3.945
 5614W        W77230  43.134   8.222   0.898
 5615W        W77231   3.154   6.429  14.767
 5616W        W77232  39.573  24.315   0.248
 5617W        W77233  41.103  12.167  14.954
 5618W        W77234  26.965  22.965  14.928
 5619W        W77235  43.481  35.090  14.971
 5620W        W77236  11.011  11.952  11.596
 5621W        W77237  29.636  19.576   1.458
 5622W        W77238  43.454  32.224   2.229
 5623W        W77239  31.642   5.197  13.450
 5624W        W77240  20.587   9.171  10.722
 5625W        W77241  30.365  34.373  14.353
 5626W        W77242  19.288   3.760   2.175
 5627W        W77243  40.002  15.607   2.191
 5628W        W77244   2.979   1.802  10.539
 5629W        W77245  19.717  12.932   1.348
 5630W        W77246  27.864  23.757  14.906
 5631W        W77247  12.724   9.438   0.516
 5632W        W77248  38.244   1.708  14.041
 5633W        W77249  13.874   8.863   2.573
 5634W        W77250  41.029  23.508   2.930
 5635W        W77251  13.501  26.697   0.678
 5636W        W77252  24.965  37.081   1.861
 5637W        W77253  39.886   4.702   2.119
 5638W        W77254  26.578  17.282  10.926
 5639W        W77255  44.292   8.637   4.150
 5640W        W77256  26.907  14.288   0.094
 5641W        W77257   0.901  12.882   0.737
 5642W        W77258  24.687  30.701  11.780
 5643W        W77259  40.391   8.420   3.907
 5644W        W77260  43.429  14.390  12.616
 5645W        W77261  28.225  40.977   2.679
 5646W        W77262  40.799  15.758  10.669
 5647W        W77263  25.054   0.399   4.553
 5648W        W77264   9.900   8.844  10.717
 5649W        W77265  40.247  22.259   2.283
 5650W        W77266  12.058  25.575   2.400
 5651W        W77267  28.678  42.815   3.053
 5652W        W77268  22.672  27.184  13.603
 5653W        W77269  26.670  31.637  11.137
 5654W        W77270  10.917   4.689   1.770
 5655W        W77271  12.334  33.878   1.281
 5656W        W77272  41.476   6.133  14.805
 5657W        W77273  15.540   5.493   0.835
 5658W        W77274  30.008  14.995   4.201
 5659W        W77275  43.370   7.470   2.242
 5660W        W77276  43.718  25.240  11.918
 5661W        W77277  20.089  44.850   2.099
 5662W        W77278  25.616  17.741  14.736
 5663W        W77279  34.855  35.354   2.602
 5664W        W77280   2.551  20.744  12.385
 5665W        W77281  38.024   8.614   2.606
 5666W        W77282  16.612  23.044   1.661
 5667W        W77283  16.178  25.202   3.643
 5668W        W77284  23.280  28.591  13.772
 5669W        W77285   6.238  44.861  10.615
 5670W        W77286  16.082  17.331   2.149
 5671W        W77287  24.539   8.655  14.370
 5672W        W77288   3.501   9.470  14.054
 5673W        W77289  26.064  30.709  12.910
 5674W        W77290  12.188  25.495   2.890
 5675W        W77291  11.751   6.714  12.946
 5676W        W77292  44.016   8.116   2.837
 5677W        W77293  15.053  36.105  14.811
 5678W        W77294   8.592  33.386  11.078
 5679W        W77295  28.526  24.028   3.361
 5680W        W77296   3.980  10.118   2.197
 5681W        W77297  22.120  23.608   4.773
 5682W        W77298  18.608  40.890   4.855
 5683W        W77299  28.401  40.552  14.466
 5684W        W77300   8.130  35.384  11.133
 5685W        W77301   5.575   5.949  14.440
 5686W        W77302  32.931  18.810   4.754
 5687W        W77303   8.337  33.553   4.022
 5688W        W77304  41.282  17.573  13.284
 5689W        W77305  39.557  28.539  10.876
 5690W        W77306  10.293  43.720   0.087
 5691W        W77307   3.498   2.713  10.797
 5692W        W77308  19.349  23.503   2.790
 5693W        W77309  15.673  18.574  14.902
 5694W        W77310  22.231  30.681   2.308
 5695W        W77311   3.883  34.016   0.786
 5696W        W77312  17.052  22.500  12.435
 5697W        W77313  44.758   4.164  12.319
 5698W        W77314   9.764   2.492   3.716
 5699W        W77315  40.138  11.968   2.265
 5700W        W77316  14.344  41.744  10.800
 5701W        W77317  25.545  15.358   2.403
 5702W        W77318  15.525  42.747   0.774
 5703W        W77319   6.377  39.852  11.618
 5704W        W77320  15.195  29.008   4.230
 5705W        W77321   3.269  22.592   5.008
 5706W        W77322  20.708  24.809  14.298
 5707W        W77323  19.449  41.091   0.308
 5708W        W77324  38.727   1.513   1.226
 5709W        W77325  38.926  44.361  13.030
 5710W        W77326  25.687  17.202  11.142
 5711W        W77327   9.972  10.100   0.931
 5712W        W77328  33.642   2.429  11.170
 5713W        W77329   5.656   7.732   3.201
 5714W        W77330  34.004  28.476   1.114
 5715W        W77331  31.912  10.729   0.319
 5716W        W77332  16.101  39.107   3.665
 5717W        W77333  36.070   2.504   3.777
 5718W        W77334  25.624  15.034   4.643
 5719W        W77335  12.832   4.964  11.562
 5720W        W77336   6.791  42.033   2.677
 5721W        W77337   9.211  16.355  11.099
 5722W        W77338  44.733  11.348   4.513
 5723W        W77339  20.647   9.373  13.379
 5724W        W77340   7.321  15.721   1.162
 5725W        W77341  11.180  10.736   3.125
 5726W        W77342  38.408  35.332  10.685
 5727W        W77343   9.792  13.136  10.751
 5728W        W77344  29.939  30.611   4.873
 5729W        W77345  44.654  10.743   0.958
 5730W        W77346   7.210  31.429   2.607
 5731W        W77347  17.809  21.757   0.267
 5732W        W77348  38.828  31.899   0.854
 5733W        W77349  13.659  25.406   0.320
 5734W        W77350  40.513  36.771   1.371
 5735W        W77351   0.459  33.486  12.943
 5736W        W77352  43.518  42.789  14.891
 5737W        W77353  27.248  32.097  13.589
 5738W        W77354  15.357   8.904   0.969
 5739W        W77355  34.957  19.621   1.965
 5740W        W77356  24.200  41.018  12.451
 5741W        W77357  42.355  21.417  11.473
 5742W        W77358   1.508  34.946  14.879
 5743W        W77359   1.161  22.759   4.081
 5744W        W77360   1.472   5.500   2.381
 5745W        W77361  21.235  36.527   4.300
 5746W        W77362  35.144  22.138  10.810
 5747W        W77363  18.136   7.374  11.512
 5748W        W77364   0.560  41.486  14.819
 5749W        W77365  17.183  38.985  14.760
 5750W        W77366  34.732  39.159  14.410
 5751W        W77367  43.833  29.700   3.069
 5752W        W77368  34.553  17.109  14.853
 5753W        W77369  16.885   1.799   0.737
 5754W        W77370  20.482  23.678   0.315
 5755W        W77371   3.025  42.030  13.463
 5756W        W77372   7.741  21.850  11.789
 5757W        W77373  33.078  42.830  14.495
 5758W        W77374  17.683  25.409   1.069
 5759W        W77375   5.732   2.271   4.536
 5760W        W77376  36.382  42.795   0.412
 5761W        W77377  42.587   1.941   2.889
 5762W        W77378   0.304   8.384   1.729
 5763W        W77379  35.833   3.230  12.399
 5764W        W77380  17.052   8.716  14.920
 5765W        W77381  28.521  10.352   1.916
 5766W        W77382  27.909   9.562  14.974
 5767W        W77383  34.504  42.047   1.764
 5768W        W77384  41.295   0.776   0.571
 5769W        W77385  31.949  14.126  11.622
 5770W        W77386  38.516  19.455   1.629
 5771W        W77387  20.057  39.146  12.663
 5772W        W77388  34.089   2.015   1.422
 5773W        W77389  10.415  21.594   3.694
 5774W        W77390  41.046   5.643   0.480
 5775W        W77391  42.945  38.366   2.638
 5776W        W77392   8.415  14.844  11.105
 5777W        W77393   7.148  25.383   3.190
 5778W        W77394  39.334  22.022  10.645
 5779W        W77395  42.395  40.839  11.723
 5780W        W77396   9.345  38.317   1.323
 5781W        W77397  16.758   3.789   1.725
 5782W        W77398  35.526  28.674  10.529
 5783W        W77399  22.122  42.477   1.292
 5784W        W77400   8.339  40.324  12.450
 5785W        W77401  13.230  12.812   1.200
 5786W        W77402  13.395   6.146   3.122
 5787W        W77403  42.001  13.652   4.381
 5788W        W77404  22.456  10.084   1.372
 5789W        W77405  33.944  31.002   1.814
 5790W        W77406  13.083  19.343  14.317
 5791W        W77407  34.886  26.384   4.982
 5792W        W77408  17.018  16.304   2.335
 5793W        W77409  36.551   0.673   2.662
 5794W        W77410  43.826  40.655   2.583
 5795W        W77411  36.250  10.395  10.287
 5796W        W77412  12.683  12.991   2.357
 5797W        W77413   9.337   7.434   2.118
 5798W        W77414  11.708  18.783  11.530
 5799W        W77415   7.747  43.282   3.269
 5800W        W77416  23.822  14.373   1.932
 5801W        W77417  21.054  30.015   4.065
 5802W        W77418  33.914  12.852  12.962
 5803W        W77419  17.514  43.289   1.262
 5804W        W77420  29.477   6.888  12.019
 5805W        W77421   6.394  35.058  10.695
 5806W        W77422  10.123  14.735  13.726
 5807W        W77423  42.126  28.150  11.018
 5808W        W77424  41.814  36.672   5.030
 5809W        W77425  29.099  12.189   1.766
 5810W        W77426  20.502  15.431   2.354
 5811W        W77427  24.116  13.054  12.541
 5812W        W77428  43.038  26.421  13.356
 5813W        W77429  20.162  25.003  12.907
 5814W        W77430  14.565  24.748   1.099
 5815W        W77431  32.709   0.212   2.476
 5816W        W77432   4.420   8.315   3.157
 5817W        W77433  27.674  20.600  13.770
 5818W        W77434   8.309  22.011   0.717
 5819W        W77435  38.910  13.792   2.798
 5820W        W77436  19.026  42.821  12.799
 5821W        W77437  20.031  41.458   1.052
 5822W        W77438  39.053  34.935   3.733
 5823W        W77439  19.246  31.927  11.796
 5824W        W77440  44.279  42.965   1.741
 5825W        W77441  28.055  25.031   1.573
 5826W        W77442  29.117  32.976   3.115
 5827W        W77443  22.679  36.809  13.031
 5828W        W77444   1.185  17.781   4.328
 5829W        W77445   9.301  32.819   1.874
 5830W        W77446  20.592  18.220  12.924
 5831W        W77447  15.714  29.370  12.069
 5832W        W77448  15.612   2.778  11.176
 5833W        W77449  42.577  25.994   4.624
 5834W        W77450  22.185  35.160  14.981
 5835W        W77451  42.572  43.004   4.266
 5836W        W77452  43.484  22.655   4.721
 5837W        W77453  42.013  25.037   3.732
 5838W        W77454  16.224  19.499  14.123
 5839W        W77455  26.390   3.307   2.406
 5840W        W77456   7.358  35.184   3.414
 5841W        W77457  16.227  12.117  10.995
 5842W        W77458  27.294  12.731  11.267
 5843W        W77459  13.325  23.985  12.513
 5844W        W77460  42.278  33.871   2.285
 5845W        W77461  41.959  22.580   3.868
 5846W        W77462  22.776  24.884  13.912
 5847W        W77463  15.818  15.678   4.628
 5848W        W77464  41.110  31.934   0.818
 5849W        W77465  33.855  31.941  14.352
 5850W        W77466  19.510   2.906   4.606
 5851W        W77467   5.454  28.920   4.452
 5852W        W77468  18.801  17.570   4.106
 5853W        W77469  12.652  36.076   0.973
 5854W        W77470  11.206  10.762  10.715
 5855W        W77471  14.652  33.467   1.831
 5856W        W77472  40.768  37.622  10.703
 5857W        W77473  27.018   3.251   1.193
 5858W        W77474  32.239  19.494  12.049
 5859W        W77475  40.480  10.704  13.778
 5860W        W77476  33.577  41.314   0.789
 5861W        W77477   6.168   5.482  12.499
 5862W        W77478  13.173   8.132   3.213
 5863W        W77479   2.302   0.461  14.578
 5864W        W77480  24.172  37.286   0.860
 5865W        W77481  40.546  14.231  13.860
 5866W        W77482  26.110  40.134   1.923
 5867W        W77483  41.513   0.680  12.933
 5868W        W77484  18.640  13.179  12.008
 5869W        W77485  18.570   5.729   4.470
 5870W        W77486  17.898  13.200   2.480
 5871W        W77487  30.980   9.385  11.182
 5872W        W77488  39.327   7.199   0.025
 5873W        W77489  30.305  28.438  10.204
 5874W        W77490  37.092   8.852  14.282
 5875W        W77491  27.592  26.011   2.594
 5876W        W77492  34.829  27.659  11.061
 5877W        W77493   9.358   0.911   1.251
 5878W        W77494  27.841  36.411  11.587
 5879W        W77495  37.629  36.902   0.549
 5880W        W77496   4.151   2.212  13.491
 5881W        W77497  29.033   2.440   2.408
 5882W        W77498  12.897  20.682   3.591
 5883W        W77499  37.467  31.144   2.034
 5884W        W77500  34.411  40.499  12.884
 5885W        W77501  29.422   8.951  11.288
 5886W        W77502  41.124  34.345  13.708
 5887W        W77503  37.964  41.236   2.725
 5888W        W77504  43.236  25.166  12.163
 5889W        W77505   7.265  21.781   4.185
 5890W        W77506  26.681  10.757  12.648
 5891W        W77507  18.606  29.190   4.587
 5892W        W77508   9.607  40.347   3.314
 5893W        W77509  41.676   6.913  13.863
 5894W        W77510  42.147  35.059  13.024
 5895W        W77511  20.336  25.793   0.942
 5896W        W77512  33.078  40.565  11.093
 5897W        W77513   0.082   7.575  14.950
 5898W        W77514  19.085  34.460   2.253
 5899W        W77515  19.551  32.281  11.587
 5900W        W77516  38.399   6.768   2.545
 5901W        W77517  39.919  13.786   0.979
 5902W        W77518   1.327   2.709  12.572
 5903W        W77519  38.628  35.950   2.414
 5904W        W77520   4.269  42.550  10.662
 5905W        W77521  32.004  12.777   4.401
 5906W        W77522  41.417  24.629  12.601
 5907W        W77523  24.723  17.556   2.486
 5908W        W77524   6.621  32.508  12.233
 5909W        W77525   1.318  11.864   4.266
 5910W        W77526  11.362  40.861   3.319
 5911W        W77527  19.041   1.177  12.819
 5912W        W77528   6.093  15.257  12.167
 5913W        W77529  11.363  43.218   4.838
 5914W        W77530   4.900  42.569  14.832
 5915W        W77531  35.992  21.166  11.067
 5916W        W77532  33.045  34.628  10.897
 5917W        W77533  40.642   6.178  11.153
 5918W        W77534  18.633  35.476   0.869
 5919W        W77535   0.387  10.347   9.913
 5920W        W77536   5.809  35.595   4.344
 5921W        W77537  31.669  36.368  14.972
 5922W        W77538  25.748  20.544   1.290
 5923W        W77539  37.788   1.939  11.779
 5924W        W77540  20.248  16.037   1.159
 5925W        W77541   7.390  28.146   2.938
 5926W        W77542   6.286   9.976   4.077
 5927W        W77543  19.225  33.210   2.819
 5928W        W77544  13.686  15.264   0.458
 5929W        W77545  15.226  33.352  12.229
 5930W        W77546  11.276   3.515  14.124
 5931W        W77547  42.343  19.822  14.346
 5932W        W77548  12.149  24.091   4.508
 5933W        W77549  34.324  40.349   1.398
 5934W        W77550  39.384  17.057   4.217
 5935W        W77551  17.207  29.148  14.439
 5936W        W77552  32.305   1.405   4.895
 5937W        W77553  38.792   2.311  14.431
 5938W        W77554  34.826  35.687  12.039
 5939W        W77555  43.317   9.022   0.024
 5940W        W77556   7.400  34.293   2.829
 5941W        W77557  33.539   1.504  10.786
 5942W        W77558  30.480  13.732  12.764
 5943W        W77559   0.953   1.583   4.068
 5944W        W77560  18.022  19.492   0.800
 5945W        W77561   8.261  40.797   0.772
 5946W        W77562  31.091  32.628  11.549
 5947W        W77563   5.705  29.873   0.847
 5948W        W77564  37.827   0.221   3.741
 5949W        W77565   0.443  37.510  13.383
 5950W        W77566   1.749  34.981   2.541
 5951W        W77567  26.410   5.730  14.889
 5952W        W77568  13.198  24.474   1.141
 5953W        W77569   4.419   9.927  13.060
 5954W        W77570  30.586  11.624  12.535
 5955W        W77571  12.432  39.505   1.392
 5956W        W77572  23.553  39.462   3.753
 5957W        W77573  24.176  40.411  13.086
 5958W        W77574   4.361   9.776   4.248
 5959W        W77575  36.274   5.247   0.844
 5960W        W77576  36.493  43.900  13.557
 5961W        W77577  16.794  13.611  12.317
 5962W        W77578  43.664   7.515  13.547
 5963W        W77579  33.893  32.185  11.000
 5964W        W77580  23.448   1.444   4.275
 5965W        W77581  24.629   0.997  12.917
 5966W        W77582   7.110  24.665  13.307
 5967W        W77583  12.685  11.434  10.728
 5968W        W77584   1.917  24.129  11.232
 5969W        W77585   7.348  30.283   0.571
 5970W        W77586  36.310   6.886  11.221
 5971W        W77587  17.254  27.045  14.457
 5972W        W77588  19.349  14.580   1.284
 5973W        W77589  32.648  28.460  12.011
 5974W        W77590  31.603  14.701   2.797
 5975W        W77591   7.933  40.925  14.523
 5976W        W77592  43.806   2.891  13.768
 5977W        W77593  32.187  25.538   2.561
 5978W        W77594  25.662   4.225   4.958
 5979W        W77595  17.988  17.709   0.908
 5980W        W77596  16.242  29.147  13.097
 5981W        W77597  29.083  35.556  14.522
 5982W        W77598  28.374  34.902  11.503
 5983W        W77599  14.301   3.735   9.667
 5984W        W77600  31.724  37.022   2.253
 5985W        W77601   2.580  23.994  10.696
 5986W        W77602   6.155  44.235  14.388
 5987W        W77603  42.479  38.564   9.789
 5988W        W77604  20.197   3.651   0.331
 5989W        W77605   8.819  43.103   4.491
 5990W        W77606  32.006  38.530  14.059
 5991W        W77607   8.254  43.859   0.358
 5992W        W77608  20.060  38.303   1.216
 5993W        W77609  28.068  34.057   1.481
 5994W        W77610  43.066  28.943  12.532
 5995W        W77611  23.677   3.722   2.593
 5996W        W77612  18.741  38.047   1.848
 5997W        W77613  16.580  39.535  12.026
 5998W        W77614   7.939  32.772   3.276
 5999W        W77615  39.717  36.787  11.091
 6000W        W77616  40.043  29.728   1.442
 6001W        W77617  43.031  37.600   1.486
 6002W        W77618  25.096   5.937  14.357
 6003W        W77619  43.353   3.267   0.192
 6004W        W77620  14.718  34.102  12.035
 6005W        W77621  13.683  13.602  14.474
 6006W        W77622   1.975   9.930   4.725
 6007W        W77623  25.528   6.172   1.822
 6008W        W77624  44.420  10.082  14.318
 6009W        W77625   4.164   0.126   2.415
 6010W        W77626  35.202  33.333   2.761
 6011W        W77627   3.861   6.502  13.580
 6012W        W77628   7.672  35.417  14.684
 6013W        W77629  15.237  29.960  10.637
 6014W        W77630  36.647  43.945  11.281
 6015W        W77631   4.282   3.332   3.248
 6016W        W77632  33.443  21.549   2.211
 6017W        W77633  20.784  17.281   2.901
 6018W        W77634  16.876  13.186   2.436
 6019W        W77635  11.850  19.846   3.522
 6020W        W77636  16.265  36.754  14.035
 6021W        W77637  27.867  30.986  13.023
 6022W        W77638  36.526   4.954   0.456
 6023W        W77639   6.142  43.971   3.666
 6024W        W77640   8.878  14.586   4.104
 6025W        W77641  24.007  15.863   4.100
 6026W        W77642  34.546  38.363   3.368
 6027W        W77643  39.519  42.532   4.482
 6028W        W77644   3.423  17.072   4.547
 6029W        W77645  11.610   8.628  11.302
 6030W        W77646  38.562  36.728  13.360
 6031W        W77647  35.945  34.051   4.890
 6032W        W77648  41.978  26.869   3.379
 6033W        W77649  29.987   9.411  11.118
 6034W        W77650  27.710  17.211   3.063
 6035W        W77651  23.611  40.904  11.562
 6036W        W77652  42.318  38.888  11.455
 6037W        W77653   5.690  27.191   1.330
 6038W        W77654  22.083  42.736  13.864
 6039W        W77655  39.064  23.083  12.991
 6040W        W77656  11.124  22.052   3.386
 6041W        W77657  39.537  33.558  12.308
 6042W        W77658  13.196   2.928   3.711
 6043W        W77659  25.314   0.965   1.437
 6044W        W77660  27.996  12.352   2.305
 6045W        W77661  39.356  25.226  10.790
 6046W        W77662  39.504  16.096   1.870
 6047W        W77663  32.227  17.442  14.990
 6048W        W77664  20.551  36.578   3.904
 6049W        W77665   4.699  12.730  12.113
 6050W        W77666  24.027   2.955   3.786
 6051W        W77667   2.919  18.142   3.201
 6052W        W77668   5.176  10.861  11.552
 6053W        W77669  23.225   8.221  14.783
 6054W        W77670   7.687  16.634  12.916
 6055W        W77671   1.008   2.195   3.193
 6056W        W77672   5.298  44.524   1.436
 6057W        W77673  10.184   3.341   2.206
 6058W        W77674  15.143  18.233  14.292
 6059W        W77675  29.303   6.763  10.989
 6060W        W77676  33.681  39.108   4.148
 6061W        W77677  14.749   0.267  13.211
 6062W        W77678  28.388  40.573  13.242
 6063W        W77679   5.790  10.312  14.497
 6064W        W77680  23.277  20.188  11.824
 6065W        W77681  40.519  42.022  10.785
 6066W        W77682   8.616  39.425  11.010
 6067W        W77683  10.807  18.553   1.159
 6068W        W77684  36.429  12.609   4.341
 6069W        W77685   2.420  10.246  13.382
 6070W        W77686   0.126  34.886  14.261
 6071W        W77687  13.784  19.790  13.983
 6072W        W77688   1.601   0.776   0.756
 6073W        W77689  41.923   3.856  10.610
 6074W        W77690  10.411  18.468  12.073
 6075W        W77691  12.527  44.508  14.617
 6076W        W77692  36.380  43.592   1.825
 6077W        W77693  38.269  11.874   2.220
 6078W        W77694   2.820   2.975   2.287
 6079W        W77695  20.243  31.714   4.166
 6080W        W77696   1.514  17.362  11.519
 6081W        W77697  44.043  14.382   4.460
 6082W        W77698  35.936   7.841  11.289
 6083W        W77699  11.735  16.351  13.404
 6084W        W77700  23.333  36.144  10.644
 6085W        W77701   4.834  34.574   2.386
 6086W        W77702  28.035  22.976  11.649
 6087W        W77703  19.142  25.587   0.046
 6088W        W77704  25.095  32.943   1.237
 6089W        W77705  30.457  25.559  13.975
 6090W        W77706  37.461  27.289   0.369
 6091W        W77707   4.692   2.468  10.649
 6092W        W77708  33.575  17.274   2.206
 6093W        W77709  39.016  34.599  12.930
 6094W        W77710  39.240  27.694  12.925
 6095W        W77711  44.900  16.597   1.444
 6096W        W77712  40.810  19.075  13.039
 6097W        W77713  44.979  35.962   1.364
 6098W        W77714  21.575  21.545   0.929
 6099W        W77715   1.968  27.823  13.669
 6100W        W77716   2.314  41.210   0.217
 6101W        W77717   3.701  36.921  12.484
 6102W        W77718  35.132  24.948  11.583
 6103W        W77719  11.196  28.085   4.757
 6104W        W77720  15.840  16.633  11.093
 6105W        W77721   2.949   9.320  14.842
 6106W        W77722  18.641  20.443  14.064
 6107W        W77723  30.130  26.925   1.359
 6108W        W77724   0.007  44.363   2.616
 6109W        W77725  40.085  26.038  14.464
 6110W        W77726  37.908  32.750   0.452
 6111W        W77727  41.710   5.261  13.667
 6112W        W77728  41.117  27.186  14.387
 6113W        W77729  26.069   7.262   0.439
 6114W        W77730  44.782   0.217   2.609
 6115W        W77731  16.749  33.479  13.322
 6116W        W77732  32.084  22.612   0.366
 6117W        W77733   1.104   4.893  13.484
 6118W        W77734  33.829   6.926  14.489
 6119W        W77735   3.327  30.996   0.644
 6120W        W77736   8.858   4.854   4.655
 6121W        W77737  41.004  11.719  10.928
 6122W        W77738  16.798  44.474   4.701
 6123W        W77739   5.370  11.499  12.813
 6124W        W77740  12.797   3.679  13.273
 6125W        W77741  29.903  26.455  11.018
 6126W        W77742  15.741  42.297  13.997
 6127W        W77743  19.522   3.089   0.839
 6128W        W77744  40.456  11.398   4.721
 6129W        W77745  28.718   2.718  12.085
 6130W        W77746  31.389  17.677  10.566
 6131W        W77747  32.140  11.378  12.042
 6132W        W77748   8.773  37.357  10.725
 6133W        W77749   6.421  33.964   1.909
 6134W        W77750  38.077  25.912  11.287
 6135W        W77751  11.256   5.706   1.396
 6136W        W77752  44.579  15.717  13.850
 6137W        W77753  44.010  21.610   3.706
 6138W        W77754   6.320  16.668  13.565
 6139W        W77755  18.345  41.905   1.702
 6140W        W77756  40.001   8.118  14.445
 6141W        W77757  30.792  15.689   3.274
 6142W        W77758  16.503  43.305   1.187
 6143W        W77759  19.631  17.741  13.014
 6144W        W77760  11.815  25.190   2.667
 6145W        W77761  24.549  44.265  10.645
 6146W        W77762   6.244  37.391  11.119
 6147W        W77763  34.189  21.212  10.751
 6148W        W77764  20.831  22.863  14.031
 6149W        W77765  21.945   9.668  11.670
 6150W        W77766   5.344  36.802  14.045
 6151W        W77767  31.305  36.553   0.305
 6152W        W77768  31.513  13.684   2.680
 6153W        W77769  37.568  24.641  14.498
 6154W        W77770  28.363  23.834  13.745
 6155W        W77771  11.284   2.181  14.570
 6156W        W77772   4.887   0.830   2.700
 6157W        W77773  43.524   0.315  13.236
 6158W        W77774  40.405  21.704   0.199
 6159W        W77775  38.888  36.662  10.736
 6160W        W77776  24.269  36.770   2.795
 6161W        W77777  17.911  17.829   1.478
 6162W        W77778  43.860   1.956  10.649
 6163W        W77779   1.404   1.941   4.851
 6164W        W77780  33.794  23.091  12.055
 6165W        W77781  31.940  24.205   0.507
 6166W        W77782   0.932  29.634   3.533
 6167W        W77783  44.307   4.259   3.706
 6168W        W77784  24.563  27.223   0.512
 6169W        W77785  19.310  15.172  11.503
 6170W        W77786  10.376   8.994  10.814
 6171W        W77787  31.532   6.719  11.577
 6172W        W77788   9.271  22.670   4.471
 6173W        W77789  35.497  11.090  11.753
 6174W        W77790  23.961   0.748   1.756
 6175W        W77791  43.707  37.053   3.391
 6176W        W77792  37.796  39.772   2.734
 6177W        W77793   7.979  17.069   4.599
 6178W        W77794  26.003  28.940   3.735
 6179W        W77795   5.460   8.520   4.942
 6180W        W77796   9.741  44.763  14.402
 6181W        W77797  42.525   0.418   1.482
 6182W        W77798  27.965  25.089  14.995
 6183W        W77799  22.469   6.264   5.034
 6184W        W77800   5.917  37.462   1.459
 6185W        W77801  26.254  18.667   1.176
 6186W        W77802  12.735  18.578  12.590
 6187W        W77803  24.761   4.094  11.250
 6188W        W77804  39.438  12.198  13.146
 6189W        W77805  23.138  20.767   1.916
 6190W        W77806  24.033   2.356  11.011
 6191W        W77807  33.035  23.053   0.847
 6192W        W77808  20.538  12.666   1.777
 6193W        W77809  37.978  31.111   2.366
 6194W        W77810  14.582   5.317  13.851
 6195W        W77811   4.273  12.593  11.664
 6196W        W77812  34.546  31.938  13.755
 6197W        W77813  40.400  16.707   0.797
 6198W        W77814  15.084  22.061   4.110
 6199W        W77815   4.889  36.357  11.088
 6200W        W77816   2.914  21.096  11.252
 6201W        W77817  44.476  11.808  10.934
 6202W        W77818  23.720  40.828   4.301
 6203W        W77819  44.967   0.728  13.303
 6204W        W77820  36.867  12.570  13.882
 6205W        W77821  41.466  12.475   3.255
 6206W        W77822  18.133   1.886   2.350
 6207W        W77823   9.429   9.373   2.497
 6208W        W77824   9.212  35.531   0.144
 6209W        W77825  44.415  14.670  11.321
 6210W        W77826  26.190  35.814   0.316
 6211W        W77827  23.120  27.021  12.840
 6212W        W77828   8.768  41.769   3.155
 6213W        W77829  11.133   7.456  12.959
 6214W        W77830   0.028  42.207  14.381
 6215W        W77831  38.498  41.385  12.501
 6216W        W77832  39.322   6.699  10.869
 6217W        W77833  42.968  28.876   3.781
 6218W        W77834  23.798   4.716   4.252
 6219W        W77835  20.665  25.225   4.689
 6220W        W77836  12.629   2.007  13.841
 6221W        W77837  43.411   7.003  13.546
 6222W        W77838   0.696  24.332   4.073
 6223W        W77839   1.386  36.949   4.212
 6224W        W77840  39.422  35.129  14.931
 6225W        W77841  44.676  28.089   3.567
 6226W        W77842  15.369   5.844   4.528
 6227W        W77843  10.692   3.926   2.319
 6228W        W77844  30.327  38.924   2.677
 6229W        W77845  33.273  40.488   4.989
 6230W        W77846  26.062  41.979   3.621
 6231W        W77847   8.974  31.698   2.177
 6232W        W77848  40.856  29.158   2.160
 6233W        W77849  35.998  34.684  14.920
 6234W        W77850   6.710   6.216  12.014
 6235W        W77851   2.722   8.037   2.651
 6236W        W77852   3.614   7.855   1.339
 6237W        W77853  18.576  18.702   2.601
 6238W        W77854   6.980   4.796   2.578
 6239W        W77855  31.051  24.713   2.364
 6240W        W77856   2.851  43.159   3.673
 6241W        W77857  16.589   0.707  11.545
 6242W        W77858   2.865  39.270   3.690
 6243W        W77859  44.389  40.024   3.629
 6244W        W77860   0.983   5.388  11.063
 6245W        W77861  37.001  29.938   0.827
 6246W        W77862   8.839   5.241  13.485
 6247W        W77863   3.691  39.949   1.755
 6248W        W77864   4.339  28.077  11.926
 6249W        W77865  28.073   5.525   4.814
 6250W        W77866  10.855  26.085  11.233
 6251W        W77867  15.186  29.613   3.672
 6252W        W77868  35.911  32.002   2.707
 6253W        W77869   2.753  34.063  14.739
 6254W        W77870   5.906  19.106  14.898
 6255W        W77871  36.131  34.002  12.498
 6256W        W77872  12.734  12.498   2.322
 6257W        W77873  22.146  41.879  14.965
 6258W        W77874   2.795  34.672  13.311
 6259W        W77875   6.727  40.321   2.146
 6260W        W77876  34.521  28.589   2.730
 6261W        W77877  21.253   5.431  13.917
 6262W        W77878  43.958   5.613   1.414
 6263W        W77879  18.186  17.407   1.261
 6264W        W77880   8.791   1.477  11.316
 6265W        W77881   7.164   4.095  10.687
 6266W        W77882  27.677  18.460  11.076
 6267W        W77883  17.116  32.485  10.835
 6268W        W77884  14.144  27.844   0.509
 6269W        W77885  34.857   9.434  14.873
 6270W        W77886  24.953  21.226   2.298
 6271W        W77887  11.667  11.865  10.646
 6272W        W77888  23.718  39.979   4.613
 6273W        W77889  37.236  27.945   5.038
 6274W        W77890  42.310  43.908  14.094
 6275W        W77891  23.294  32.582   1.921
 6276W        W77892  38.995  23.769   2.600
 6277W        W77893  17.013  36.722  10.987
 6278W        W77894   0.435  29.702  14.045
 6279W        W77895  34.587   5.325   0.507
 6280W        W77896  21.896   5.389  11.188
 6281W        W77897   2.644  40.575   1.188
 6282W        W77898  43.598  10.137   1.833
 6283W        W77899  25.689  14.362  10.539
 6284W        W77900  21.444   5.547   1.022
 6285W        W77901   2.140  35.393   2.834
 6286W        W77902  40.600  39.859   3.265
 6287W        W77903  17.805  38.241   0.155
 6288W        W77904  27.588  12.072   3.217
 6289W        W77905  38.904  23.886  13.070
 6290W        W77906   9.879   9.618  12.600
 6291W        W77907  23.597  32.427  10.584
 6292W        W77908   6.463  11.108   2.206
 6293W        W77909  38.761  22.159   2.122
 6294W        W77910  36.995  35.790   3.886
 6295W        W77911  20.709  19.082   2.852
 6296W        W77912  36.220  32.006   4.969
 6297W        W77913  17.060   1.643  10.128
 6298W        W77914  23.008  19.079   2.670
 6299W        W77915  44.372  10.221  12.410
 6300W        W77916  36.355  16.243  13.881
 6301W        W77917   6.558  33.300  11.305
 6302W        W77918  31.511  14.226   0.569
 6303W        W77919  31.668  12.684   1.295
 6304W        W77920   1.662  35.371  13.427
 6305W        W77921  28.878  43.527  14.428
 6306W        W77922   0.743  36.052  14.775
 6307W        W77923  20.538  36.445  11.080
 6308W        W77924  40.877   3.814  13.838
 6309W        W77925  16.105   8.667   1.238
 6310W        W77926  34.821  40.008  12.117
 6311W        W77927  23.152  19.628   1.378
 6312W        W77928  25.694  25.875   1.819
 6313W        W77929   0.414  39.907   2.126
 6314W        W77930  21.145   0.998   0.750
 6315W        W77931  44.424  36.180   3.241
 6316W        W77932   9.304  10.350   4.022
 6317W        W77933  37.959  41.568  14.351
 6318W        W77934   3.687  15.347   1.374
 6319W        W77935  43.276  18.113  11.430
 6320W        W77936  39.141  33.288   4.134
 6321W        W77937   9.151  42.967  12.511
 6322W        W77938  35.834  38.513  12.813
 6323W        W77939  13.599   0.240   1.461
 6324W        W77940  42.923  39.947  14.988
 6325W        W77941   6.802  17.769   3.735
 6326W        W77942  25.010  22.457  14.360
 6327W        W77943  20.569  32.500   0.430
 6328W        W77944  25.606  24.659   2.720
 6329W        W77945  37.057  29.812  10.732
 6330W        W77946   8.689  22.018  10.675
 6331W        W77947  26.487  31.057   2.771
 6332W        W77948  32.730   4.221   3.510
 6333W        W77949  12.445   5.345   2.318
 6334W        W77950   8.156  19.275   3.657
 6335W        W77951   7.347  13.899   4.152
 6336W        W77952  15.497  24.892  13.313
 6337W        W77953  29.533  22.400  14.051
 6338W        W77954  19.935  22.797   1.709
 6339W        W77955  19.680  27.274   0.248
 6340W        W77956  11.877  30.910  14.450
 6341W        W77957  38.563  10.950   0.442
 6342W        W77958  30.201  39.969   0.302
 6343W        W77959   4.313  17.211  14.787
 6344W        W77960   1.872   9.299   0.504
 6345W        W77961  39.338  38.966   1.814
 6346W        W77962  25.393  29.122  13.557
 6347W        W77963   7.931  35.342   1.590
 6348W        W77964  39.745   1.757   2.140
 6349W        W77965  37.088   1.471   2.200
 6350W        W77966  21.731  22.165  11.507
 6351W        W77967   1.252  36.037  12.970
 6352W        W77968  26.326  40.233   1.445
 6353W        W77969  23.837   7.835   5.195
 6354W        W77970  21.422  27.190  10.617
 6355W        W77971  37.547  35.386  13.906
 6356W        W77972  16.035  15.671   1.401
 6357W        W77973   6.613  13.648  14.567
 6358W        W77974  41.707  37.524  11.550
 6359W        W77975  39.761   7.656  14.347
 6360W        W77976  41.907  38.456   3.286
 6361W        W77977  16.502   5.729   9.989
 6362W        W77978  13.521  44.255  12.674
 6363W        W77979   6.477   6.970   4.995
 6364W        W77980   7.346  34.796   2.735
 6365W        W77981  16.050   8.605   0.211
 6366W        W77982  20.039  40.895  12.520
 6367W        W77983  24.841  17.405   4.218
 6368W        W77984   7.610  26.056   4.321
 6369W        W77985  31.921  40.304  14.374
 6370W        W77986   3.319  13.559  14.900
 6371W        W77987  21.648   8.360  11.134
 6372W        W77988  42.357   2.508   0.073
 6373W        W77989  22.383   4.955   5.085
 6374W        W77990  21.092  11.637  14.238
 6375W        W77991   7.624   9.200   3.780
 6376W        W77992  27.980  16.391   4.184
 6377W        W77993   0.974   6.622   0.508
 6378W        W77994  33.452  41.849  12.849
 6379W        W77995  35.808   9.234   0.872
 6380W        W77996  34.984  37.613  12.473
 6381W        W77997  39.798  36.308   4.123
 6382W        W77998  42.339  29.458  14.458
 6383W        W77999  23.606  25.239   4.543
 6384W        W78000  18.652   8.850   2.854
 6385W        W78001  42.784  26.888   0.201
 6386W        W78002  14.509  22.051   1.871
 6387W        W78003  36.158  30.514  12.848
 6388W        W78004  36.675   3.290  10.368
 6389W        W78005   6.919  43.445   3.673
 6390W        W78006  23.890   3.249   3.367
 6391W        W78007   9.219   7.405  13.802
 6392W        W78008  21.256  35.988   1.350
 6393W        W78009   2.313   8.619  12.899
 6394W        W78010  20.132  39.581   3.701
 6395W        W78011  25.212  34.337   4.139
 6396W        W78012  14.552   2.372   2.177
 6397W        W78013  20.746   0.713  12.876
 6398W        W78014  23.028   1.862  12.107
 6399W        W78015  42.869  38.613  14.499
 6400W        W78016  23.571  14.387  12.529
 6401W        W78017  24.268  18.584   0.493
 6402W        W78018   5.330  27.940   2.240
 6403W        W78019  32.838  28.268  11.138
 6404W        W78020  10.390  10.713  13.988
 6405W        W78021   6.320   2.141   2.411
 6406W        W78022  30.151  12.777  12.547
 6407W        W78023  27.933  17.490   1.895
 6408W        W78024  29.840  43.427  14.612
 6409W        W78025  14.647   3.209   2.228
 6410W        W78026  31.595  36.240   4.336
 6411W        W78027  18.775  27.932  10.569
 6412W        W78028  13.473   2.768  11.648
 6413W        W78029  27.121  12.828  10.241
 6414W        W78030  12.267  36.498   0.388
 6415W        W78031  38.569  42.112  14.355
 6416W        W78032   2.298  42.009   3.282
 6417W        W78033  34.836  14.247  10.594
 6418W        W78034   3.181   2.331  10.930
 6419W        W78035  35.431  24.936   0.242
 6420W        W78036  27.365   2.473   3.163
 6421W        W78037   6.213  15.001  13.447
 6422W        W78038   3.875  18.622   0.741
 6423W        W78039   9.559   4.248  14.417
 6424W        W78040  16.750  11.622   2.625
 6425W        W78041  21.655  24.898   3.679
 6426W        W78042  11.676  14.318   0.889
 6427W        W78043  29.498  36.100   4.554
 6428W        W78044   0.358  41.799  12.073
 6429W        W78045  26.653  19.137   4.310
 6430W        W78046  37.884  32.838  12.004
 6431W        W78047   8.394  15.038  10.615
 6432W        W78048  36.575  31.522  12.607
 6433W        W78049  19.052  14.660  12.947
 6434W        W78050  10.121  23.741   4.838
 6435W        W78051  36.956  12.107   4.820
 6436W        W78052  21.771   6.288   4.573
 6437W        W78053  44.358  39.490   3.293
 6438W        W78054   8.016   2.676   1.248
 6439W        W78055  42.430   1.857   4.814
 6440W        W78056  25.808   7.197  13.796
 6441W        W78057  37.932  15.285  13.289
 6442W        W78058  29.280   0.038  12.996
 6443W        W78059   7.716  20.303  13.441
 6444W        W78060  43.332   7.114  11.076
 6445W        W78061   0.538  29.068   3.664
 6446W        W78062  26.716   8.293  13.023
 6447W        W78063  14.511  36.200  10.678
 6448W        W78064  15.385   4.968  14.996
 6449W        W78065  13.532   2.212  12.837
 6450W        W78066  43.379  42.269   0.826
 6451W        W78067  18.928   3.715   4.683
 6452W        W78068  38.252  41.148   3.462
 6453W        W78069   5.750  24.514   1.422
 6454W        W78070  20.488  38.026  13.876
 6455W        W78071  12.936  10.848  14.860
 6456W        W78072  40.408   6.523  11.964
 6457W        W78073   8.389  39.393  13.146
 6458W        W78074  33.633   3.969  11.681
 6459W        W78075  25.533  44.948  12.331
 6460W        W78076   1.862  20.986   2.044
 6461W        W78077  29.171  36.672  13.243
 6462W        W78078  16.140  25.211   3.126
 6463W        W78079  25.849   3.673   1.254
 6464W        W78080  33.103  29.330  13.806
 6465W        W78081  13.189   7.944  11.041
 6466W        W78082  13.850  44.867   0.743
 6467W        W78083  41.533  13.567  13.890
 6468W        W78084  34.139   2.262   2.772
 6469W        W78085  20.323  42.358  10.640
 6470W        W78086   5.343  25.049   4.533
 6471W        W78087   2.893  11.847  10.456
 6472W        W78088  19.310  26.099  11.973
 6473W        W78089  26.277   5.347   4.525
 6474W        W78090  37.458  42.238  12.822
 6475W        W78091  36.959  12.237   3.384
 6476W        W78092  40.575  17.243   5.023
 6477W        W78093   4.394  27.138   0.525
 6478W        W78094  19.614  14.028  10.729
 6479W        W78095  35.939  16.695  13.400
 6480W        W78096  12.878  44.789  11.020
 6481W        W78097  12.015  23.296  12.240
 6482W        W78098  25.792  18.092  12.969
 6483W        W78099   1.455  22.485   2.172
 6484W        W78100   4.487  42.909   2.701
 6485W        W78101  31.613  31.043   0.319
 6486W        W78102   9.220  25.060  14.468
 6487W        W78103  15.039  26.890   2.891
 6488W        W78104  35.911   7.669  10.797
 6489W        W78105  36.582  18.185   1.850
 6490W        W78106  27.752  44.937  13.120
 6491W        W78107  21.820  30.414   2.511
 6492W        W78108   7.789   1.437  11.263
 6493W        W78109  37.161  26.196  12.714
 6494W        W78110  32.211  29.645   9.625
 6495W        W78111   6.247   4.009  11.096
 6496W        W78112  28.477  34.349   1.343
 6497W        W78113  22.235  10.729   2.836
 6498W        W78114   3.706  21.030   1.335
 6499W        W78115  19.125   7.155  14.393
 6500W        W78116  14.643  31.328  13.419
 6501W        W78117  13.337  26.309  12.041
 6502W        W78118  17.322  42.010   1.641
 6503W        W78119  31.070  33.614  13.997
 6504W        W78120  35.899  33.595   1.465
 6505W        W78121   4.958   2.874  13.987
 6506W        W78122  35.677  42.269  14.490
 6507W        W78123  41.505  16.563   3.290
 6508W        W78124  44.920   6.614   4.423
 6509W        W78125  26.094   4.904   1.861
 6510W        W78126  40.612  44.748  11.958
 6511W        W78127  39.495  32.105  14.823
 6512W        W78128   0.763   3.136   1.246
 6513W        W78129   0.769  38.289   4.334
 6514W        W78130  19.284  18.344  11.651
 6515W        W78131  42.279  26.588   3.694
 6516W        W78132  36.018  10.148  14.601
 6517W        W78133  43.225   1.670   4.381
 6518W        W78134  43.261  17.175  13.325
 6519W        W78135  32.563  39.016  14.478
 6520W        W78136  11.419  19.678   0.823
 6521W        W78137  39.087   2.102  12.585
 6522W        W78138  33.041  40.066  13.953
 6523W        W78139  26.758  35.562   1.604
 6524W        W78140   5.322  42.244  14.890
 6525W        W78141  33.811  28.687   0.672
 6526W        W78142  19.122  31.096   1.911
 6527W        W78143  37.104  13.110  14.785
 6528W        W78144  12.736  23.954  11.987
 6529W        W78145   6.902  42.826   4.160
 6530W        W78146  24.036   0.079   0.890
 6531W        W78147  26.943  13.739   5.446
 6532W        W78148   2.200  27.744   2.293
 6533W        W78149  27.551  29.999  13.495
 6534W        W78150  32.584  34.983  13.278
 6535W        W78151  36.634   5.143  14.011
 6536W        W78152  38.901   5.880   3.646
 6537W        W78153   3.591  15.429  11.763
 6538W        W78154   8.766  42.589   2.210
 6539W        W78155  37.314  33.878  14.926
 6540W        W78156  29.987   2.318   2.247
 6541W        W78157  30.565  20.204  10.682
 6542W        W78158  36.821  34.905   2.324
 6543W        W78159  40.744  26.231   0.781
 6544W        W78160  26.124  23.052  13.575
 6545W        W78161  10.044  33.151   2.338
 6546W        W78162  31.521  14.619   1.407
 6547W        W78163  20.439  34.487  12.087
 6548W        W78164  42.093  26.569   2.493
 6549W        W78165   3.190  18.987  12.006
 6550W        W78166  40.727  41.427  13.872
 6551W        W78167   0.060  36.081   3.711
 6552W        W78168  10.911  34.362   2.329
 6553W        W78169   2.886  27.120  11.460
 6554W        W78170  34.872  10.359  14.860
 6555W        W78171  35.508  40.563   1.351
 6556W        W78172  28.947  29.919  11.624
 6557W        W78173  32.356  29.031   0.852
 6558W        W78174  10.763  42.297   0.158
 6559W        W78175   8.305  19.075  13.347
 6560W        W78176  21.603   1.755  13.538
 6561W        W78177  15.154  15.643   1.354
 6562W        W78178  22.211  44.736   0.927
 6563W        W78179  44.628  39.670   2.253
 6564W        W78180   1.049  41.506   3.333
 6565W        W78181   3.114  16.783   1.408
 6566W        W78182  12.400  33.341   2.414
 6567W        W78183   1.172  22.479   3.063
 6568W        W78184   3.865  39.657   0.524
 6569W        W78185  39.877  28.432  11.669
 6570W        W78186  39.001   1.789   1.833
 6571W        W78187  15.514  33.535  10.394
 6572W        W78188  44.877  39.790   0.934
 6573W        W78189  38.409  15.014  12.416
 6574W        W78190  14.662  30.500   0.653
 6575W        W78191   9.278  44.939  10.987
 6576W        W78192   1.899   3.460   2.231
 6577W        W78193   1.205  30.641   2.775
 6578W        W78194   5.833  33.525  14.422
 6579W        W78195  28.157  28.174   0.374
 6580W        W78196  10.107  26.552   2.670
 6581W        W78197   2.613  11.275  12.104
 6582W        W78198   3.774   8.372   0.777
 6583W        W78199   8.227   0.182   0.376
 6584W        W78200  20.576  39.207   4.760
 6585W        W78201  13.346  35.352   0.017
 6586W        W78202  21.208   7.594  12.074
 6587W        W78203   4.009  38.181   0.490
 6588W        W78204  17.780  13.774   1.715
 6589W        W78205  24.269  17.666  12.562
 6590W        W78206  34.445  38.317  10.719
 6591W        W78207  10.665  16.434   3.821
 6592W        W78208  18.822   8.678  10.742
 6593W        W78209  36.018   6.359  10.898
 6594W        W78210  17.291  21.730   4.249
 6595W        W78211  33.305  11.014  14.816
 6596W        W78212  28.679  41.187   2.862
 6597W        W78213  33.349   9.274  10.953
 6598W        W78214  34.011  39.348  11.261
 6599W        W78215  24.930  31.838  11.520
 6600W        W78216   6.294   3.895   0.690
 6601W        W78217  32.340   5.199   2.303
 6602W        W78218  21.901  44.806  10.721
 6603W        W78219  19.164  38.552   1.497
 6604W        W78220  30.642  42.851  14.235
 6605W        W78221  22.580  41.770  11.164
 6606W        W78222  40.985  18.564  14.979
 6607W        W78223  16.847  18.718  14.056
 6608W        W78224  42.861  39.991   3.729
 6609W        W78225  25.067   5.627   0.387
 6610W        W78226  21.995  20.243   3.292
 6611W        W78227  14.274  11.746   0.348
 6612W        W78228  30.555  33.569  13.996
 6613W        W78229  27.988  28.103   4.807
 6614W        W78230  28.995  31.056   4.946
 6615W        W78231  41.574  39.709   0.772
 6616W        W78232   9.956   7.355   4.501
 6617W        W78233   9.441  43.295  13.409
 6618W        W78234  10.185  14.261  13.985
 6619W        W78235  17.182  33.131   2.866
 6620W        W78236   8.759  10.872  11.676
 6621W        W78237  43.828  42.680  14.494
 6622W        W78238  43.005  28.424  11.827
 6623W        W78239  17.195  34.806   2.343
 6624W        W78240  25.837  28.681   1.037
 6625W        W78241  21.277  43.433   4.699
 6626W        W78242  41.550  30.403  14.946
 6627W        W78243   6.892  29.475  14.536
 6628W        W78244  19.131  21.244  13.475
 6629W        W78245  27.255   2.663  12.020
 6630W        W78246  20.241  12.567  10.293
 6631W        W78247  28.045  28.010   3.438
 6632W        W78248  44.596  24.055  14.269
 6633W        W78249  12.348   0.733  12.151
 6634W        W78250   0.558   2.562   2.206
 6635W        W78251  21.577  32.014  13.417
 6636W        W78252   5.495  24.235   2.668
 6637W        W78253  29.131  21.103   3.225
 6638W        W78254  38.138  16.480   1.323
 6639W        W78255  16.095   3.171   4.863
 6640W        W78256  31.553  28.926   3.802
 6641W        W78257  22.152   6.008  14.441
 6642W        W78258  18.284  13.755   1.861
 6643W        W78259   1.190  44.283   1.390
 6644W        W78260  15.184   2.399  13.126
 6645W        W78261  31.144  27.636   4.214
 6646W        W78262  10.065   0.473   1.258
 6647W        W78263   0.006   6.930  10.614
 6648W        W78264  37.890  41.046   2.252
 6649W        W78265   2.305  13.251  13.016
 6650W        W78266  19.220  13.158  11.008
 6651W        W78267   7.206  36.595  14.225
 6652W        W78268  14.832  32.911   0.086
 6653W        W78269  10.061  10.194  13.794
 6654W        W78270  35.011  17.475   2.284
 6655W        W78271  31.644  41.862   4.173
 6656W        W78272  39.142   0.837   3.675
 6657W        W78273   3.806  18.374  12.914
 6658W        W78274  43.768  20.590   1.893
 6659W        W78275  19.763  39.341  10.889
 6660W        W78276   4.799  22.112  14.699
 6661W        W78277  39.382  13.346  11.382
 6662W        W78278  18.561  40.755   2.278
 6663W        W78279  21.483  28.964  14.222
 6664W        W78280   2.786  27.048  14.377
 6665W        W78281  19.831  35.144   1.563
 6666W        W78282  38.323  44.012   1.701
 6667W        W78283  23.457  36.962   0.938
 6668W        W78284  24.271  25.643   4.207
 6669W        W78285   0.163  15.345   4.628
 6670W        W78286  40.312  16.305  13.351
 6671W        W78287  19.171  29.676   1.134
 6672W        W78288  43.708  33.651  11.205
 6673W        W78289  25.819  18.696   3.911
 6674W        W78290   3.861  33.541  11.335
 6675W        W78291  22.808   5.413   2.753
 6676W        W78292   0.906  29.454   0.773
 6677W        W78293  17.649   1.986  12.004
 6678W        W78294  12.130  37.528  14.242
 6679W        W78295  32.715  23.950   3.254
 6680W        W78296  22.194  43.537  13.070
 6681W        W78297   9.111  19.812  10.784
 6682W        W78298  39.801   8.300   1.267
 6683W        W78299  11.983  11.812  12.012
 6684W        W78300   7.241  27.574   0.479
 6685W        W78301  33.147  31.543  13.970
 6686W        W78302  23.053  44.300  14.452
 6687W        W78303  39.932  10.763   3.350
 6688W        W78304  26.529   4.221  12.932
 6689W        W78305  35.495  41.076  14.927
 6690W        W78306  13.096  27.064  14.777
 6691W        W78307   5.185  15.693   0.783
 6692W        W78308  14.479  11.834   2.474
 6693W        W78309  37.074  18.264  12.697
 6694W        W78310  42.741  37.234   9.934
 6695W        W78311   7.187   8.759  10.688
 6696W        W78312  20.468  40.817   3.203
 6697W        W78313  30.411  12.700  11.974
 6698W        W78314  26.495  11.240   4.098
 6699W        W78315   6.926  44.771  12.958
 6700W        W78316  27.034  24.607  14.953
 6701W        W78317   0.315  28.920  14.521
 6702W        W78318  11.399  11.363  13.412
 6703W        W78319  19.744  30.163   2.362
 6704W        W78320  25.186  35.846  11.555
 6705W        W78321  41.286  13.907  12.128
 6706W        W78322  36.876   0.933   0.130
 6707W        W78323  34.997  34.897   2.803
 6708W        W78324  29.462  44.269   4.589
 6709W        W78325  30.641   4.273   0.184
 6710W        W78326  19.995  22.178  10.904
 6711W        W78327  40.747  34.616   0.042
 6712W        W78328   4.171  14.157   1.355
 6713W        W78329   0.303  11.213   2.672
 6714W        W78330  12.917   4.417  12.530
 6715W        W78331   4.831  40.601  11.157
 6716W        W78332  34.922  31.144  14.988
 6717W        W78333  22.910  27.565   1.593
 6718W        W78334  13.635   1.127   1.802
 6719W        W78335  21.472   1.337  12.409
 6720W        W78336   7.230  21.267  13.898
 6721W        W78337  16.294  38.335   2.673
 6722W        W78338  29.324  21.173  10.097
 6723W        W78339  22.183  20.595  13.489
 6724W        W78340  25.907  33.471   0.525
 6725W        W78341  15.082  22.233   2.223
 6726W        W78342  15.754  10.444   1.743
 6727W        W78343  20.535  32.948  13.424
 6728W        W78344  33.163   0.386  10.776
 6729W        W78345   9.582  40.971   3.787
 6730W        W78346  18.245   6.781  14.918
 6731W        W78347   1.563  27.483  14.823
 6732W        W78348   9.423  10.632  14.785
 6733W        W78349   9.354  20.042  13.083
 6734W        W78350  24.208  38.292  12.796
 6735W        W78351  29.198   9.702  12.522
 6736W        W78352  33.027  18.848   2.719
 6737W        W78353  21.135   8.179  12.925
 6738W        W78354   2.863   5.991   1.797
 6739W        W78355  44.541  43.279  10.708
 6740W        W78356   2.172   1.767   3.356
 6741W        W78357  34.455   9.810   2.069
 6742W        W78358  23.198   1.317  13.916
 6743W        W78359  15.224  34.347  14.937
 6744W        W78360  17.660  44.746  14.532
 6745W        W78361  32.592  37.095  13.555
 6746W        W78362   0.914   3.400   4.062
 6747W        W78363  30.142  43.978  12.358
 6748W        W78364  20.247  13.871   4.654
 6749W        W78365  18.493   9.564  13.499
 6750W        W78366  24.605  26.924   0.940
 6751W        W78367   6.276  13.328  10.666
 6752W        W78368  30.630  40.906   4.117
 6753W        W78369  14.575  20.656  12.446
 6754W        W78370   6.752  27.591   3.292
 6755W        W78371   4.682   2.439  13.936
 6756W        W78372  38.389   0.993  12.533
 6757W        W78373  35.851   0.439  14.531
 6758W        W78374  44.729  32.388   4.672
 6759W        W78375  27.955   4.769  12.924
 6760W        W78376  31.868  29.489  14.935
 6761W        W78377  10.070  31.598   4.026
 6762W        W78378  14.307   1.780   4.665
 6763W        W78379  33.834   6.939  11.864
 6764W        W78380  24.673   1.165   0.167
 6765W        W78381  12.883  25.135  13.301
 6766W        W78382  30.696   9.130  13.319
 6767W        W78383  34.452  14.253   3.586
 6768W        W78384  29.609   7.293   4.438
 6769W        W78385   7.603  14.026   2.222
 6770W        W78386  22.198  33.245   2.422
 6771W        W78387  37.037  30.811  11.856
 6772W        W78388   9.268  19.533  13.931
 6773W        W78389  44.900  32.402   1.379
 6774W        W78390   0.052  38.097   1.735
 6775W        W78391  11.590  34.677   4.139
 6776W        W78392  23.625  23.511  10.691
 6777W        W78393  19.549  20.516  11.617
 6778W        W78394  26.674  25.029  11.059
 6779W        W78395  11.080   8.391  12.119
 6780W        W78396  11.345  30.580  13.022
 6781W        W78397  39.485  27.441   1.412
 6782W        W78398   0.630  34.335   5.070
 6783W        W78399   9.300  25.137   1.492
 6784W        W78400  39.978  16.619  10.744
 6785W        W78401  38.974  34.225  13.314
 6786W        W78402   6.178  20.768  11.577
 6787W        W78403  22.137  42.552  12.756
 6788W        W78404  29.683  13.729   1.216
 6789W        W78405  13.347  34.599  12.502
 6790W        W78406  25.064  25.578  14.070
 6791W        W78407  39.412  18.150  12.349
 6792W        W78408  37.142  25.909   0.409
 6793W        W78409  13.786  33.521  14.701
 6794W        W78410  29.235  19.598   4.587
 6795W        W78411  35.311  43.774  13.839
 6796W        W78412  11.321   7.158  12.547
 6797W        W78413  19.301  28.418  13.465
 6798W        W78414   3.237  44.390  14.317
 6799W        W78415  34.788  44.351  12.102
 6800W        W78416   0.557  30.696  13.787
 6801W        W78417   7.222  29.773  13.842
 6802W        W78418  14.182   6.782  14.553
 6803W        W78419  42.880   6.531  14.977
 6804W        W78420  43.875  31.145  14.058
 6805W        W78421  38.549  11.081   2.674
 6806W        W78422  21.162  30.983  12.361
 6807W        W78423   7.764  16.368  10.611
 6808W        W78424   2.189  29.231  11.584
 6809W        W78425  19.559   2.265   4.152
 6810W        W78426  19.512   5.431   4.199
 6811W        W78427  10.574  15.767  12.415
 6812W        W78428   7.874  42.566  14.589
 6813W        W78429  32.607  26.629   4.719
 6814W        W78430  23.630  27.195   3.595
 6815W        W78431  15.195  31.485   1.240
 6816W        W78432  28.253  33.448   2.897
 6817W        W78433  11.341  28.173  14.754
 6818W        W78434   1.947   0.736  11.462
 6819W        W78435  44.350  21.391  13.412
 6820W        W78436   1.297  23.839  11.117
 6821W        W78437   3.231  43.044  14.851
 6822W        W78438   3.836  20.023   1.279
 6823W        W78439  17.612  25.732  12.114
 6824W        W78440  33.437  24.906   1.334
 6825W        W78441   2.139  21.585   2.692
 6826W        W78442  31.924  37.837   2.607
 6827W        W78443  12.425   6.223  10.182
 6828W        W78444   3.524  35.873  10.537
 6829W        W78445  32.421   3.709  13.132
 6830W        W78446  41.806   7.806   1.094
 6831W        W78447  36.939   8.155   4.133
 6832W        W78448  24.122   0.939  12.250
 6833W        W78449  36.878   6.556  12.438
 6834W        W78450   1.626  22.838  14.708
 6835W        W78451  34.109  29.573  12.418
 6836W        W78452   4.278   8.150   2.128
 6837W        W78453  20.162  17.131   1.263
 6838W        W78454  17.206  35.266  13.856
 6839W        W78455  15.688   7.344   3.701
 6840W        W78456  38.920  15.254   3.590
 6841W        W78457  38.234   8.843  12.273
 6842W        W78458   1.802  21.982   9.908
 6843W        W78459  10.147  16.761   3.057
 6844W        W78460   0.892  12.133   3.551
 6845W        W78461   3.949   0.466  14.604
 6846W        W78462   3.959  11.135   2.219
 6847W        W78463   3.016  18.841  10.693
 6848W        W78464  22.250  41.002   0.509
 6849W        W78465  42.311   1.442  13.531
 6850W        W78466  38.671  26.616  13.269
 6851W        W78467  16.894  29.672   4.234
 6852W        W78468   1.419   0.477  10.133
 6853W        W78469  21.080  41.789  14.267
 6854W        W78470  23.966  43.314  12.945
 6855W        W78471  18.724  13.855   0.923
 6856W        W78472  24.164  37.337  13.545
 6857W        W78473  15.597  40.696   0.026
 6858W        W78474  21.506  22.281   4.344
 6859W        W78475   4.390  39.495   0.435
 6860W        W78476  20.698  40.059  10.402
 6861W        W78477   1.736  23.715   3.162
 6862W        W78478  27.881  16.255   2.957
 6863W        W78479  14.996   6.977   4.165
 6864W        W78480  20.659   8.707  12.417
 6865W        W78481  35.060   6.043  14.766
 6866W        W78482   5.776   7.808   0.282
 6867W        W78483   4.235  43.439   3.679
 6868W        W78484  16.692  26.512  14.804
 6869W        W78485  33.365   5.220   2.408
 6870W        W78486   5.191  38.120  12.025
 6871W        W78487  25.990  32.543   2.126
 6872W        W78488  28.077  13.035   4.512
 6873W        W78489   2.930  35.242  13.994
 6874W        W78490  32.431  26.132  12.080
 6875W        W78491  12.078  22.835  13.482
 6876W        W78492  22.547   2.524   4.973
 6877W        W78493  18.925  22.635   0.987
 6878W        W78494  36.543  23.543   0.190
 6879W        W78495   3.889  18.078  14.953
 6880W        W78496   3.368  42.251   0.339
 6881W        W78497  35.283   2.467  10.697
 6882W        W78498  10.780  37.901   0.310
 6883W        W78499  29.884  11.965  12.849
 6884W        W78500  27.399  29.489   2.697
 6885W        W78501  13.313  17.224   5.103
 6886W        W78502  38.103   0.076   4.195
 6887W        W78503  38.043  19.822  14.070
 6888W        W78504  41.853  14.639  13.012
 6889W        W78505  43.379  11.710   1.962
 6890W        W78506   1.520  19.099   1.865
 6891W        W78507  28.397   1.767  12.134
 6892W        W78508  24.914  37.444  12.881
 6893W        W78509   1.794  29.748  13.021
 6894W        W78510   0.859  34.302   3.135
 6895W        W78511  13.237  16.864   0.175
 6896W        W78512  19.511  37.084  13.780
 6897W        W78513  29.628  36.143  12.459
 6898W        W78514  18.403   0.028   1.510
 6899W        W78515  11.660  37.970  11.882
 6900W        W78516  39.816  39.585   4.213
 6901W        W78517  32.456  17.089  14.640
 6902W        W78518  21.570  10.916  14.723
 6903W        W78519  20.330  12.695  14.065
 6904W        W78520  37.005  15.730  13.936
 6905W        W78521  44.002   4.107  11.628
 6906W        W78522   6.079   1.550  14.774
 6907W        W78523  42.464   9.183  13.867
 6908W        W78524  17.730  28.174   2.339
 6909W        W78525  35.874  15.553   0.958
 6910W        W78526  15.107   7.011  14.451
 6911W        W78527  17.039  12.939  10.152
 6912W        W78528   3.746   5.380  12.058
 6913W        W78529  13.343  23.470  12.483
 6914W        W78530  23.839  18.633  13.062
 6915W        W78531  31.913  12.202   4.891
 6916W        W78532  10.721  30.402   3.771
 6917W        W78533  24.733  36.409   3.761
 6918W        W78534   1.328  35.329   1.172
 6919W        W78535  16.383  30.628   5.132
 6920W        W78536   4.893  13.085   2.331
 6921W        W78537   6.802  17.416  13.355
 6922W        W78538  43.073  32.491   4.443
 6923W        W78539  40.014  10.165   0.874
 6924W        W78540   6.818   3.528   1.843
 6925W        W78541  43.004   3.246  12.584
 6926W        W78542  39.470  13.234  14.544
 6927W        W78543  24.690  30.752   0.709
 6928W        W78544  22.250  12.545   3.341
 6929W        W78545  34.050  19.466  14.470
 6930W        W78546   0.098   2.364   2.137
 6931W        W78547  12.289  36.060   3.382
 6932W        W78548   4.384   6.910   1.718
 6933W        W78549   8.818  36.842  10.724
 6934W        W78550   8.040   9.563   1.933
 6935W        W78551  10.819  25.468   2.061
 6936W        W78552   1.165  34.461   9.772
 6937W        W78553  32.094   8.711   2.257
 6938W        W78554  32.119  13.268  14.330
 6939W        W78555   0.894  33.099  11.972
 6940W        W78556  21.084  35.482  11.585
 6941W        W78557  22.975  43.674  13.097
 6942W        W78558  22.766   9.829   4.614
 6943W        W78559   0.796  30.175   0.325
 6944W        W78560  10.812   4.703   4.489
 6945W        W78561  40.176  30.113   0.420
 6946W        W78562  14.368  27.694  14.462
 6947W        W78563   2.315  17.084  10.360
 6948W        W78564   3.779  20.775   3.569
 6949W        W78565  25.654  13.091   0.426
 6950W        W78566   7.660  24.438  12.010
 6951W        W78567   0.938  22.166   0.831
 6952W        W78568   1.379  31.653  12.982
 6953W        W78569  12.620  33.944  12.413
 6954W        W78570   5.810  23.373   2.309
 6955W        W78571   7.747  30.539  11.704
 6956W        W78572  31.016  10.371  13.925
 6957W        W78573   2.890  42.240  11.224
 6958W        W78574  42.062   1.972  14.340
 6959W        W78575  32.440   2.572   3.009
 6960W        W78576  14.790  43.988  14.814
 6961W        W78577  32.696  38.327   2.679
 6962W        W78578  23.045  44.372  11.211
 6963W        W78579   1.236  32.342  11.185
 6964W        W78580  13.860  30.341  11.440
 6965W        W78581  19.510   4.504   3.814
 6966W        W78582  42.981   4.024  13.872
 6967W        W78583  18.192  25.541   1.785
 6968W        W78584  33.598   9.342   2.351
 6969W        W78585  11.802  41.238   4.144
 6970W        W78586  20.104   3.837  12.535
 6971W        W78587  24.766  25.667   1.952
 6972W        W78588  37.888  12.440  11.762
 6973W        W78589  29.488  13.608  12.981
 6974W        W78590  36.713  23.995  10.102
 6975W        W78591  12.101  15.803  14.427
 6976W        W78592   8.291  31.425   4.245
 6977W        W78593  29.235  28.316   1.813
 6978W        W78594  42.758  23.949  11.186
 6979W        W78595  27.583   9.002   4.621
 6980W        W78596  25.433  22.575  11.951
 6981W        W78597  41.794  39.239   5.002
 6982W        W78598  20.080  16.319  12.370
 6983W        W78599  27.473   3.884  12.368
 6984W        W78600  35.402  30.385  13.014
 6985W        W78601  35.145  42.588   2.386
 6986W        W78602   5.301   6.315   2.425
 6987W        W78603   7.189  44.179  14.283
 6988W        W78604  39.067   5.023   4.661
 6989W        W78605   1.626   1.770   4.111
 6990W        W78606  36.844  18.087  13.735
 6991W        W78607  30.430  42.781   4.079
 6992W        W78608  21.157  36.617   1.898
 6993W        W78609   9.123   9.300  11.555
 6994W        W78610  26.225  18.810   4.370
 6995W        W78611  22.255  29.692   1.083
 6996W        W78612  26.590  18.241  11.284
 6997W        W78613  37.679   9.536  11.185
 6998W        W78614  19.066   8.218   0.265
 6999W        W78615  11.362  39.519   4.510
 7000W        W78616  10.886  37.357  14.887
 7001W        W78617  38.454  29.300  12.793
 7002W        W78618  21.648   7.845  12.006
 7003W        W78619  31.423  40.124  14.352
 7004W        W78620  28.061   0.498  10.598
 7005W        W78621  18.954  19.029   2.161
 7006W        W78622  12.617  42.110   2.823
 7007W        W78623   5.258  39.353  10.949
 7008W        W78624   3.734  25.070   4.636
 7009W        W78625  11.912  21.653  14.484
 7010W        W78626  37.825  42.201  11.570
 7011W        W78627   6.118  36.007   4.217
 7012W        W78628  35.558  21.544  12.475
 7013W        W78629   4.885   2.758  11.208
 7014W        W78630  20.815  25.004  11.109
 7015W        W78631   7.696  24.180  10.713
 7016W        W78632  32.931   1.332   1.980
 7017W        W78633  42.821  44.274  13.478
 7018W        W78634  22.287   9.890   4.428
 7019W        W78635  20.889  17.088   0.002
 7020W        W78636  41.239  23.231  12.438
 7021W        W78637   2.948   3.298  12.412
 7022W        W78638   5.883  24.948  13.133
 7023W        W78639  36.509   3.321  13.929
 7024W        W78640  29.476  22.563  11.240
 7025W        W78641  31.162  19.487   4.044
 7026W        W78642   6.223  32.659  11.965
 7027W        W78643  14.770  23.647  13.185
 7028W        W78644  29.210  13.306   3.141
 7029W        W78645  38.883  13.377  10.129
 7030W        W78646  19.328  28.766  13.079
 7031W        W78647  31.517  26.279   3.570
 7032W        W78648  13.128   8.941   3.666
 7033W        W78649  30.298  16.395   3.550
 7034W        W78650  12.283  10.772   1.974
 7035W        W78651   6.293  38.119   4.053
 7036W        W78652  24.426  38.327   0.338
 7037W        W78653  44.791  44.019   0.282
 7038W        W78654  35.723  16.804  12.136
 7039W        W78655  42.241  43.010   0.340
 7040W        W78656  36.563  34.329  13.826
 7041W        W78657  42.102  38.737  11.908
 7042W        W78658  33.434  41.282   0.238
 7043W        W78659  14.374  10.616  12.895
 7044W        W78660  12.079  23.522   1.364
 7045W        W78661  32.174  12.619   2.202
 7046W        W78662  38.482   9.884   1.283
 7047W        W78663  27.443  24.035  13.505
 7048W        W78664  28.942  22.526   3.381
 7049W        W78665  36.933  15.772   0.536
 7050W        W78666  24.465   7.606  11.135
 7051W        W78667  26.439  13.710   1.415
 7052W        W78668  31.195   4.995   0.546
 7053W        W78669  27.727  17.692   3.211
 7054W        W78670  14.537   7.151  14.575
 7055W        W78671  44.015  17.043  11.983
 7056W        W78672  18.139   3.538   1.199
 7057W        W78673  18.690  41.308   9.799
 7058W        W78674   3.821   5.792   4.796
 7059W        W78675  20.634  11.192   4.042
 7060W        W78676  33.453  11.300  12.519
 7061W        W78677  26.865  10.171   3.645
 7062W        W78678  40.377   7.116  11.150
 7063W        W78679  31.862  21.710   0.675
 7064W        W78680  20.327  11.737   1.873
 7065W        W78681   2.382   1.318   3.558
 7066W        W78682  20.266  32.178  14.522
 7067W        W78683   4.040  20.044  11.978
 7068W        W78684  16.558  30.716  12.518
 7069W        W78685   7.205  17.035   1.168
 7070W        W78686  32.597  11.178   0.277
 7071W        W78687  17.109  34.388  10.853
 7072W        W78688  21.000  30.586  11.476
 7073W        W78689  19.357  21.771  12.893
 7074W        W78690  39.658   9.118   3.736
 7075W        W78691   7.776  42.786  11.615
 7076W        W78692  10.359  21.540  12.674
 7077W        W78693  33.300   5.378   4.544
 7078W        W78694  29.038  26.658   9.901
 7079W        W78695  13.920   9.312   4.824
 7080W        W78696  27.847   1.912   1.226
 7081W        W78697  35.113  10.004  12.639
 7082W        W78698   4.211  28.129  13.291
 7083W        W78699  17.260  14.612  11.101
 7084W        W78700  39.971  42.042  10.794
 7085W        W78701   4.649  21.232   2.341
 7086W        W78702  31.098   0.503   4.061
 7087W        W78703   6.734  21.466  11.505
 7088W        W78704  29.415  18.631   0.363
 7089W        W78705   5.647  21.058  13.361
 7090W        W78706  34.030   0.929  11.408
 7091W        W78707   8.640   0.307   1.738
 7092W        W78708  17.693  24.557   0.879
 7093W        W78709  40.573  29.416  11.038
 7094W        W78710  10.803  27.978   0.899
 7095W        W78711  35.443   8.634  10.564
 7096W        W78712  34.038   5.997  14.991
 7097W        W78713  30.634  27.404   4.269
 7098W        W78714   0.885  32.478   0.219
 7099W        W78715   4.360  19.687  11.213
 7100W        W78716  27.081  20.938  12.952
 7101W        W78717  32.885  32.779  14.801
 7102W        W78718  27.461   3.904   0.306
 7103W        W78719  24.544  31.042  12.548
 7104W        W78720   2.974   7.546   0.980
 7105W        W78721   8.352  18.338   2.641
 7106W        W78722   3.435  18.107   4.676
 7107W        W78723  12.210  27.544   1.925
 7108W        W78724  26.261  35.887  14.815
 7109W        W78725   0.892  11.891   4.553
 7110W        W78726  23.945  41.516  14.753
 7111W        W78727  43.059   7.374  11.569
 7112W        W78728  39.418  20.499  13.617
 7113W        W78729  23.642   2.445   3.098
 7114W        W78730  28.931  16.659  12.091
 7115W        W78731  17.714  38.377  11.644
 7116W        W78732  27.887  41.725  11.521
 7117W        W78733  19.191  40.646  10.878
 7118W        W78734  32.370  12.747  14.057
 7119W        W78735  15.161  32.585  10.526
 7120W        W78736  16.212  29.520  12.138
 7121W        W78737  18.713   0.040   4.831
 7122W        W78738  39.782  33.566   2.871
 7123W        W78739  10.345  25.257  10.481
 7124W        W78740  11.439  37.139   0.736
 7125W        W78741  31.805  11.955  14.829
 7126W        W78742  18.070   6.694  11.608
 7127W        W78743  38.936  39.262   0.904
 7128W        W78744   1.489  34.001  12.397
 7129W        W78745  11.736  12.359  13.397
 7130W        W78746  32.009  25.654  11.178
 7131W        W78747  32.175  17.204  13.043
 7132W        W78748   4.934  32.514   3.635
 7133W        W78749  43.881   9.046   3.781
 7134W        W78750  43.980  24.437  10.695
 7135W        W78751   6.410  43.482   3.672
 7136W        W78752  20.534   1.372   1.668
 7137W        W78753  12.760  44.045  13.858
 7138W        W78754  19.741  31.894  12.524
 7139W        W78755  11.292  40.836  14.500
 7140W        W78756  20.158  44.015   0.784
 7141W        W78757  28.412  12.156  14.987
 7142W        W78758  24.718   8.226   3.770
 7143W        W78759  43.935  34.503   1.254
 7144W        W78760  17.527  33.815   0.304
 7145W        W78761  34.992  16.125  12.113
 7146W        W78762  17.794  43.761   2.805
 7147W        W78763  25.116  17.362   1.736
 7148W        W78764  12.116  38.897  11.907
 7149W        W78765  40.052  43.269   2.179
 7150W        W78766  10.143  33.564  12.803
 7151W        W78767  16.777  30.920  12.080
 7152W        W78768  32.077  32.640   4.135
 7153W        W78769  34.543  10.634   4.879
 7154W        W78770  28.674  41.012  13.302
 7155W        W78771  36.804  20.250   3.367
 7156W        W78772   4.658  44.854  14.960
 7157W        W78773  38.745  37.843  14.642
 7158W        W78774  41.333  38.446   2.207
 7159W        W78775  41.471  29.635   4.154
 7160W        W78776  12.677  31.950   3.528
 7161W        W78777   5.680  44.844   4.604
 7162W        W78778  36.767  27.613   4.173
 7163W        W78779   2.484   2.922   2.690
 7164W        W78780  42.964  28.481  14.703
 7165W        W78781  19.696  12.700  12.309
 7166W        W78782  28.143  20.361  14.476
 7167W        W78783   5.774   7.764   1.278
 7168W        W78784  41.966  19.462   4.084
 7169W        W78785   9.028  21.994  11.631
 7170W        W78786   7.126  31.261   0.917
 7171W        W78787  28.540  27.182  11.060
 7172W        W78788  14.685  26.179  10.663
 7173W        W78789  36.396  23.677  12.559
 7174W        W78790  20.784  31.478   0.718
 7175W        W78791   9.434  33.859  12.038
 7176W        W78792   7.711  42.734   1.002
 7177W        W78793  12.292   0.227  12.226
 7178W        W78794  14.909   8.624   2.752
 7179W        W78795  20.998  26.137   2.207
 7180W        W78796  32.852  26.025   1.782
 7181W        W78797  23.992  40.360  11.026
 7182W        W78798  30.416  32.527   4.593
 7183W        W78799  37.100  39.514  11.127
 7184W        W78800  16.710   3.005  11.158
 7185W        W78801  36.866   5.096   1.429
 7186W        W78802  25.218  21.959  12.066
 7187W        W78803  35.541  34.316   4.210
 7188W        W78804  27.580  43.054   0.783
 7189W        W78805  37.330  41.512   1.762
 7190W        W78806  13.633  37.997  12.556
 7191W        W78807   3.310  41.265  13.425
 7192W        W78808   7.926  37.119   3.119
 7193W        W78809  11.461   8.210   0.020
 7194W        W78810  16.312   1.881  14.884
 7195W        W78811   8.986  41.604  10.990
 7196W        W78812  28.498   4.231   2.797
 7197W        W78813  28.532  21.826   0.408
 7198W        W78814  17.976  11.359  14.843
 7199W        W78815  44.348   4.217  13.200
 7200W        W78816   3.714  44.186  10.591
 7201W        W78817  24.231  43.834  11.979
 7202W        W78818  30.122  14.180   1.710
 7203W        W78819   0.886   5.002   4.012
 7204W        W78820   7.803   1.793   4.089
 7205W        W78821  32.955  11.397   2.661
 7206W        W78822   6.464  15.605   0.232
 7207W        W78823  40.756  31.058  10.685
 7208W        W78824  34.329  18.051   2.256
 7209W        W78825  12.802  13.430  13.260
 7210W        W78826  27.689   9.830   1.699
 7211W        W78827  11.890  31.535   4.673
 7212W        W78828   6.123   5.985   4.632
 7213W        W78829  34.320   2.795   4.228
 7214W        W78830  21.921  32.572  11.099
 7215W        W78831   4.154  30.921   0.492
 7216W        W78832  37.762  44.824  11.063
 7217W        W78833  29.887   7.355  14.542
 7218W        W78834  24.595  15.556  13.797
 7219W        W78835  15.624   2.923  11.679
 7220W        W78836   2.515  27.934  11.149
 7221W        W78837  44.695  44.259   1.233
 7222W        W78838  15.675  34.987  14.513
 7223W        W78839  23.740   0.380   0.555
 7224W        W78840  18.209  36.234  10.697
 7225W        W78841  30.064  36.371   0.912
 7226W        W78842  27.150  22.500   3.155
 7227W        W78843  44.387   5.343   1.325
 7228W        W78844  36.183  14.788  13.228
 7229W        W78845  24.822  19.162   3.229
 7230W        W78846  34.635  26.275  14.395
 7231W        W78847  37.338   0.988   4.229
 7232W        W78848   7.069  36.502  11.141
 7233W        W78849  27.467  10.641  11.894
 7234W        W78850   2.028  23.553  14.398
 7235W        W78851  20.146  39.510  13.063
 7236W        W78852   6.136  34.796   0.129
 7237W        W78853  37.304  25.735   0.870
 7238W        W78854   3.878   3.943  11.229
 7239W        W78855  14.563  24.594   4.154
 7240W        W78856  36.123  32.488  13.562
 7241W        W78857  36.527  34.003   3.634
 7242W        W78858  40.249   5.346  14.176
 7243W        W78859  18.077  21.043  10.232
 7244W        W78860  17.227  19.456  12.512
 7245W        W78861  31.187   6.296   4.493
 7246W        W78862  38.319   3.223   3.115
 7247W        W78863  25.374   3.950  14.916
 7248W        W78864  34.533  18.314  11.095
 7249W        W78865  36.471  43.285  12.538
 7250W        W78866  36.038  31.207   4.739
 7251W        W78867  25.112  21.592   2.622
 7252W        W78868  16.468  22.589   1.475
 7253W        W78869  30.103  32.680  14.968
 7254W        W78870  14.246  29.350   0.229
 7255W        W78871  27.081  12.329  12.893
 7256W        W78872  21.477  25.603   3.237
 7257W        W78873  12.853  22.718   2.441
 7258W        W78874   4.282   0.912  10.982
 7259W        W78875  16.672   3.625   3.825
 7260W        W78876  23.548  11.379   3.558
 7261W        W78877   1.993  10.125   1.275
 7262W        W78878  14.651  15.865  12.806
 7263W        W78879  28.910  27.999   2.104
 7264W        W78880  32.249  10.039   1.273
 7265W        W78881  25.040  14.709  12.041
 7266W        W78882  37.527  18.060   2.887
 7267W        W78883   7.228  26.733   0.260
 7268W        W78884  34.426  21.367  13.002
 7269W        W78885  27.242   3.320   0.728
 7270W        W78886  23.306  33.060  12.737
 7271W        W78887   0.516  21.531   0.396
 7272W        W78888  14.524  22.489   0.271
 7273W        W78889  39.054   6.856   0.303
 7274W        W78890  34.892  14.397   4.706
 7275W        W78891  24.539  12.444   0.152
 7276W        W78892  34.436  16.105  10.506
 7277W        W78893  36.438  14.958   4.633
 7278W        W78894  41.045  30.161   2.438
 7279W        W78895  13.628  29.887   2.292
 7280W        W78896  16.245   0.991  12.829
 7281W        W78897   9.680  35.358   0.400
 7282W        W78898  12.126  26.972  11.338
 7283W        W78899  14.382  16.596   4.182
 7284W        W78900  11.687   2.005  12.028
 7285W        W78901   9.835   5.840  12.119
 7286W        W78902  28.291  30.939  14.737
 7287W        W78903  30.379  19.252  12.391
 7288W        W78904  33.322   9.258   5.098
 7289W        W78905  43.804  24.063  12.466
 7290W        W78906   7.181  17.164   1.674
 7291W        W78907  22.894  33.317   4.725
 7292W        W78908   3.936  30.350   2.784
 7293W        W78909  25.422  14.558   0.924
 7294W        W78910  32.178   7.797   4.090
 7295W        W78911   4.323  26.339  12.319
 7296W        W78912  16.739  41.048  12.109
 7297W        W78913  36.562  25.168   0.553
 7298W        W78914  28.735  39.700  11.540
 7299W        W78915  22.586   0.426  14.846
 7300W        W78916   4.901  41.008  13.038
 7301W        W78917  36.114  15.229   1.803
 7302W        W78918  24.997  43.909   0.688
 7303W        W78919  35.947  41.875  13.572
 7304W        W78920  26.721   2.043  13.466
 7305W        W78921  20.479   8.332   0.845
 7306W        W78922   3.609   8.264  11.161
 7307W        W78923  18.732  23.505  13.935
 7308W        W78924   8.265  18.700  10.670
 7309W        W78925  17.746  36.400   3.827
 7310W        W78926  35.345  33.438  11.697
 7311W        W78927  15.994  19.706   2.751
 7312W        W78928  22.272   6.795  10.823
 7313W        W78929   1.048  31.600   0.331
 7314W        W78930  43.126   8.788  12.840
 7315W        W78931  41.588   1.786   2.212
 7316W        W78932   1.316  42.483   4.205
 7317W        W78933   4.897  23.129  10.984
 7318W        W78934  25.962  14.349  11.217
 7319W        W78935  12.886   7.389  13.972
 7320W        W78936  43.665  44.208   3.233
 7321W        W78937  21.224  26.880   2.800
 7322W        W78938  22.542  14.123  13.009
 7323W        W78939  12.730  34.870   3.239
 7324W        W78940  26.971  41.551  13.381
 7325W        W78941  23.963  11.036  14.932
 7326W        W78942   9.811  37.019  12.088
 7327W        W78943  33.867  43.822   4.160
 7328W        W78944  39.391  38.670  13.845
 7329W        W78945  16.672  26.997  10.772
 7330W        W78946  43.092  11.787   3.415
 7331W        W78947  18.629   8.803  11.642
 7332W        W78948   4.789  14.939  14.620
 7333W        W78949  31.806  20.390  13.391
 7334W        W78950   5.912  17.798  12.822
 7335W        W78951   2.145  43.987   4.620
 7336W        W78952  30.509   9.786  10.637
 7337W        W78953  20.551  44.351  14.441
 7338W        W78954  28.222  42.324   1.804
 7339W        W78955  17.579  31.477   0.798
 7340W        W78956  23.493  29.807   1.700
 7341W        W78957   0.335  34.854   1.029
 7342W        W78958  37.046   1.034  12.637
 7343W        W78959  31.674  15.916   4.639
 7344W        W78960  10.830  19.566  13.399
 7345W        W78961  36.914   2.646   4.183
 7346W        W78962  27.177  34.335   4.171
 7347W        W78963  36.003  24.705  12.906
 7348W        W78964  27.748   4.778   2.817
 7349W        W78965  24.504  17.104  13.948
 7350W        W78966  13.538  24.632  13.120
 7351W        W78967  31.877   2.443  11.645
 7352W        W78968   1.872  30.673   4.237
 7353W        W78969  11.956   3.735  11.640
 7354W        W78970  13.792  24.101  11.863
 7355W        W78971  29.036  33.313   4.523
 7356W        W78972  31.893   0.261   2.831
 7357W        W78973  23.190  30.981   4.798
 7358W        W78974  21.228  12.157   1.447
 7359W        W78975  32.677  10.812   3.719
 7360W        W78976  25.241   8.655  11.809
 7361W        W78977   4.661  21.486  11.628
 7362W        W78978  26.817  24.273  11.998
 7363W        W78979   2.773  31.069   3.121
 7364W        W78980   3.465  23.138   3.742
 7365W        W78981   3.402   6.319   1.052
 7366W        W78982   2.894  37.963   3.905
 7367W        W78983  26.906  34.645  11.191
 7368W        W78984  41.015  21.149  10.735
 7369W        W78985  15.339  24.443   0.794
 7370W        W78986  20.104   6.913  12.704
 7371W        W78987  25.539  18.603  12.310
 7372W        W78988  22.676  23.570  14.762
 7373W        W78989  39.817  11.629  11.498
 7374W        W78990  28.431  26.944   0.769
 7375W        W78991   7.741  11.337   2.181
 7376W        W78992  34.507  19.451  10.404
 7377W        W78993  38.034  38.990   2.284
 7378W        W78994  28.384  23.278  11.904
 7379W        W78995  15.441  33.657   4.068
 7380W        W78996  10.615   5.452   0.427
 7381W        W78997  36.754   6.228   0.749
 7382W        W78998  15.778  22.066   3.613
 7383W        W78999  32.167  33.742   1.887
 7384W        W79000  18.191  30.928  10.742
 7385W        W79001  44.501  12.447   3.714
 7386W        W79002  21.721   2.176   1.841
 7387W        W79003  37.911  21.193  11.016
 7388W        W79004  42.799  41.416  10.415
 7389W        W79005  39.554  43.462  14.353
 7390W        W79006  16.228   7.342  14.841
 7391W        W79007  26.669   9.790  10.779
 7392W        W79008  27.178  41.531   2.755
 7393W        W79009   5.879  22.308  12.946
 7394W        W79010   2.163  26.114  12.124
 7395W        W79011  43.090  13.668   1.498
 7396W        W79012  31.043  10.375   5.155
 7397W        W79013  22.717  26.897  14.051
 7398W        W79014  43.745  24.386   3.935
 7399W        W79015  14.849  27.453   1.373
 7400W        W79016  23.558  16.025   2.329
 7401W        W79017   1.558  27.670  12.003
 7402W        W79018  24.575  27.473   0.060
 7403W        W79019   4.645  25.402  10.119
 7404W        W79020  23.574  22.582  13.986
 7405W        W79021  24.219  42.525  11.113
 7406W        W79022  23.013  43.121   2.648
 7407W        W79023  23.546   0.831  14.811
 7408W        W79024  44.016  20.519   2.368
 7409W        W79025   3.056   7.233  14.450
 7410W        W79026  39.797  32.962   2.259
 7411W        W79027  17.311  41.100   1.703
 7412W        W79028   4.690  39.087  13.054
 7413W        W79029  34.592  12.546   2.956
 7414W        W79030  23.036   3.183  12.927
 7415W        W79031  25.043  14.471   5.325
 7416W        W79032  39.366   5.748   0.523
 7417W        W79033  35.137  36.320  12.871
 7418W        W79034  11.505  39.041   1.844
 7419W        W79035  35.862   4.833  14.099
 7420W        W79036   1.331  13.102  14.091
 7421W        W79037   9.891   6.123   1.259
 7422W        W79038  32.341  24.431   1.140
 7423W        W79039  28.546   0.795  10.767
 7424W        W79040  34.494  21.861   4.116
 7425W        W79041  18.312  24.595   2.323
 7426W        W79042   0.527  27.623  14.943
 7427W        W79043   0.948  11.816  14.899
 7428W        W79044  38.627  27.074  12.971
 7429W        W79045  26.596  41.058   0.459
 7430W        W79046  24.523  23.896   4.057
 7431W        W79047  33.881  17.569  14.407
 7432W        W79048  37.998  16.075   2.844
 7433W        W79049  26.579  28.126  13.423
 7434W        W79050   8.245  32.132  11.214
 7435W        W79051  34.991   6.837   4.921
 7436W        W79052  39.910  44.430   1.622
 7437W        W79053  40.619  14.177   1.728
 7438W        W79054  39.378  29.132   0.789
 7439W        W79055  13.940  42.912  12.569
 7440W        W79056   0.764  35.809   0.430
 7441W        W79057  18.847   7.308   0.745
 7442W        W79058   7.410  12.970  12.049
 7443W        W79059   3.706  19.526  14.373
 7444W        W79060  23.493  22.669  11.090
 7445W        W79061  40.299  13.077   1.594
 7446W        W79062  33.464  28.050  11.988
 7447W        W79063  29.163  12.815  11.152
 7448W        W79064  12.289  30.649  11.547
 7449W        W79065  12.675  10.224  13.964
 7450W        W79066  28.655   7.650  11.601
 7451W        W79067  20.316  22.096   3.032
 7452W        W79068  31.886  30.124  11.820
 7453W        W79069  16.384  17.415   3.614
 7454W        W79070  13.604  35.439  13.521
 7455W        W79071   6.757   8.998   0.853
 7456W        W79072   9.313   3.831   1.924
 7457W        W79073  25.358   7.764  14.453
 7458W        W79074  26.798  10.100   3.115
 7459W        W79075  17.019   5.576  10.820
 7460W        W79076  35.312  44.107   0.935
 7461W        W79077  18.785   8.663   3.356
 7462W        W79078  18.130  20.520   1.835
 7463W        W79079  30.019  33.604  14.770
 7464W        W79080  21.128  23.982   1.352
 7465W        W79081  39.076  16.301   1.418
 7466W        W79082  36.327  41.835  11.044
 7467W        W79083   0.576  17.016  14.769
 7468W        W79084  20.760   7.795   2.690
 7469W        W79085  37.369  10.681  10.194
 7470W        W79086  38.505  36.597  12.015
 7471W        W79087  43.515  11.162  12.972
 7472W        W79088  36.097  31.486  12.462
 7473W        W79089   1.905   8.895   3.399
 7474W        W79090  27.103  38.528   2.289
 7475W        W79091  10.589  22.402  14.402
 7476W        W79092  10.787  22.206  11.677
 7477W        W79093  12.599  30.378  11.995
 7478W        W79094  18.748  44.482   3.224
 7479W        W79095   2.094   0.689   0.942
 7480W        W79096  33.865  40.811   1.893
 7481W        W79097  43.318   6.122  14.300
 7482W        W79098  32.574  14.290  13.860
 7483W        W79099  41.166   7.435  11.833
 7484W        W79100  19.972  12.319  13.916
 7485W        W79101   6.099  16.868   0.820
 7486W        W79102  16.077  40.112   0.352
 7487W        W79103  37.543  25.759  10.673
 7488W        W79104  24.254   4.259  13.835
 7489W        W79105  28.053   0.945  10.915
 7490W        W79106  37.365  30.149   0.046
 7491W        W79107  32.704  35.477  14.505
 7492W        W79108  29.072   0.909   3.350
 7493W        W79109  10.114  22.248   4.153
 7494W        W79110  38.299  44.081  11.999
 7495W        W79111  24.088  41.888  12.090
 7496W        W79112  22.465  41.910   0.394
 7497W        W79113  43.938   0.971   3.873
 7498W        W79114  38.554   6.286  14.307
 7499W        W79115  29.872  39.855   3.002
 7500W        W79116   5.009  28.093   4.991
 7501W        W79117   8.230  19.644  10.831
 7502W        W79118  25.272  41.020   1.910
 7503W        W79119  41.549  23.989   2.181
 7504W        W79120  19.200  41.066  11.680
 7505W        W79121  35.823  44.399   0.929
 7506W        W79122  42.801  38.560   3.388
 7507W        W79123  42.864  19.069   3.674
 7508W        W79124  16.595   2.994  12.626
 7509W        W79125  40.915  23.289   4.089
 7510W        W79126   2.368   7.772  12.797
 7511W        W79127  28.606  34.299  10.410
 7512W        W79128  43.585  33.445   2.160
 7513W        W79129  37.256  38.124  14.823
 7514W        W79130  33.119  14.083  14.761
 7515W        W79131  18.082  31.723   4.443
 7516W        W79132   3.292  11.843  14.322
 7517W        W79133   8.287  15.860  11.137
 7518W        W79134  29.869  25.947  11.204
 7519W        W79135  29.513  34.087  13.054
 7520W        W79136   9.286  33.538   0.473
 7521W        W79137  25.928  40.777   3.049
 7522W        W79138  22.933  11.859   1.748
 7523W        W79139  27.360   3.570   4.274
 7524W        W79140  41.728   9.740   4.064
 7525W        W79141  26.649  12.132  14.544
 7526W        W79142  15.885  13.418   2.331
 7527W        W79143  22.128  30.914  12.004
 7528W        W79144  15.011  11.166  10.658
 7529W        W79145  43.229   0.382   0.114
 7530W        W79146  37.325   1.906   0.045
 7531W        W79147  37.757   2.192   1.780
 7532W        W79148  16.131  36.045  12.152
 7533W        W79149  42.764  14.764   4.228
 7534W        W79150  41.256  14.709  14.838
 7535W        W79151  12.141  21.523   4.576
 7536W        W79152   8.389  10.925   4.727
 7537W        W79153   0.405   3.181  14.222
 7538W        W79154  21.666  39.836  14.760
 7539W        W79155   0.877  42.848  11.572
 7540W        W79156  30.391  22.246  11.428
 7541W        W79157  23.228   5.771   4.633
 7542W        W79158  11.335   9.272  13.320
 7543W        W79159  34.429  19.599  12.637
 7544W        W79160  36.561  22.512   3.206
 7545W        W79161  12.425  29.891  12.037
 7546W        W79162  44.904   3.743   4.131
 7547W        W79163   6.709  17.409   1.815
 7548W        W79164   9.699  22.205   0.669
 7549W        W79165   3.804  14.637  13.951
 7550W        W79166  11.620  43.770  14.303
 7551W        W79167   2.024   9.082  12.952
 7552W        W79168  41.785  30.439   1.329
 7553W        W79169  28.597  44.074  11.649
 7554W        W79170  34.929  30.694  13.113
 7555W        W79171  31.664  29.923   3.572
 7556W        W79172   5.859  43.795   1.886
 7557W        W79173   9.751  32.490   1.929
 7558W        W79174  32.544  36.776  13.985
 7559W        W79175  29.591   2.388  12.009
 7560W        W79176  32.129   7.737   0.317
 7561W        W79177   7.458   5.788   4.864
 7562W        W79178  24.223  32.141   4.065
 7563W        W79179  27.467  32.893  12.182
 7564W        W79180  32.619  21.765  13.914
 7565W        W79181   5.307  25.220   0.223
 7566W        W79182  12.260  17.048   1.035
 7567W        W79183  20.069   5.486  11.726
 7568W        W79184   9.713   5.296   4.961
 7569W        W79185  16.362  16.176  12.527
 7570W        W79186  39.363  30.462   0.573
 7571W        W79187  12.732   6.982  14.758
 7572W        W79188  27.247  23.152  12.155
 7573W        W79189  13.812   9.140  11.243
 7574W        W79190   8.875  25.852  13.910
 7575W        W79191  41.441  37.600  10.114
 7576W        W79192  15.069  40.561  13.748
 7577W        W79193  10.677  41.364  11.117
 7578W        W79194  17.370  24.179  11.988
 7579W        W79195  26.480  37.748   4.544
 7580W        W79196  30.552  24.215   1.495
 7581W        W79197   8.279   5.334  11.243
 7582W        W79198  27.421   4.657   4.136
 7583W        W79199  16.407   8.469  14.396
 7584W        W79200  34.471  43.787   1.391
 7585W        W79201  17.560  23.058  11.466
 7586W        W79202  35.537  19.137   3.565
 7587W        W79203  43.225  36.161  13.174
 7588W        W79204  19.333   7.296  14.872
 7589W        W79205   2.307  12.580  13.999
 7590W        W79206  38.013  23.216   4.576
 7591W        W79207  31.648  32.064  14.921
 7592W        W79208  21.003   5.262  11.542
 7593W        W79209   7.923  25.488  11.997
 7594W        W79210  39.463  43.505  11.526
 7595W        W79211  43.023  21.747  12.573
 7596W        W79212  20.058  18.736  10.712
 7597W        W79213  14.389  11.929   2.993
 7598W        W79214  33.626  25.115  11.128
 7599W        W79215  10.625  33.395   4.675
 7600W        W79216   4.896  20.718   3.679
 7601W        W79217   8.800  25.466   0.394
 7602W        W79218   6.481  34.664  13.937
 7603W        W79219   4.958  24.389   5.010
 7604W        W79220  10.034   5.886  10.203
 7605W        W79221  41.294  32.095  12.446
 7606W        W79222  17.141   8.196  12.069
 7607W        W79223  29.916  26.605  13.044
 7608W        W79224  33.109  14.831  11.718
 7609W        W79225  18.403  35.513   0.413
 7610W        W79226   5.747   0.570  12.668
 7611W        W79227  40.531  24.353   3.977
 7612W        W79228  16.122  29.584  14.827
 7613W        W79229  35.996  21.683  14.185
 7614W        W79230   5.305  35.551  14.834
 7615W        W79231  24.981   3.200  12.957
 7616W        W79232  26.720  34.548  14.760
 7617W        W79233  28.243   4.567  11.244
 7618W        W79234  30.121  24.208  11.013
 7619W        W79235  22.323  42.308  14.643
 7620W        W79236  25.658  31.901   2.511
 7621W        W79237  29.733  21.384  14.181
 7622W        W79238   4.685  27.987  10.232
 7623W        W79239  27.471  30.526  12.611
 7624W        W79240   8.039  28.437   2.604
 7625W        W79241   3.014  32.957   3.111
 7626W        W79242  12.872   0.759  11.976
 7627W        W79243  11.631  23.256   1.358
 7628W        W79244  19.787   8.723   1.286
 7629W        W79245  32.560   8.708  14.358
 7630W        W79246  30.762  12.164  14.446
 7631W        W79247  41.556   1.070  11.173
 7632W        W79248  17.612   2.945   0.058
 7633W        W79249  22.481  29.123  10.778
 7634W        W79250  20.997  11.905  10.707
 7635W        W79251  23.898  23.199  11.816
 7636W        W79252  22.124   2.938   3.739
 7637W        W79253  20.065  30.958   0.939
 7638W        W79254   2.882  27.221  10.507
 7639W        W79255  24.042  34.657  13.953
 7640W        W79256   3.111  20.304  12.018
 7641W        W79257  44.260   0.772  14.970
 7642W        W79258  34.532  30.402  12.052
 7643W        W79259  27.087  10.240  11.606
 7644W        W79260  36.054  39.858  11.643
 7645W        W79261  30.834  12.137   4.064
 7646W        W79262  42.731  41.051   0.458
 7647W        W79263  26.731   6.351  12.362
 7648W        W79264  19.677  41.316  12.056
 7649W        W79265  18.451  36.975   4.707
 7650W        W79266  20.859  19.526  10.998
 7651W        W79267  20.201   5.837   2.702
 7652W        W79268   8.250   5.740  12.860
 7653W        W79269  15.665   5.805  10.114
 7654W        W79270   2.794  29.301  12.136
 7655W        W79271  25.416   5.872  14.754
 7656W        W79272   7.551  34.093  13.459
 7657W        W79273  23.611  13.372  14.947
 7658W        W79274  39.217  37.376   4.206
 7659W        W79275  41.915  20.800   1.351
 7660W        W79276  13.696  43.936   0.865
 7661W        W79277  30.618   8.733   4.626
 7662W        W79278  30.550  30.247  11.472
 7663W        W79279  29.455  33.211  12.004
 7664W        W79280   9.125  16.763  13.300
 7665W        W79281  30.215  39.007  10.684
 7666W        W79282  27.599  23.537  13.546
 7667W        W79283  20.848  42.228  12.023
 7668W        W79284  37.412   1.027   3.722
 7669W        W79285  22.519  37.326   3.725
 7670W        W79286   1.871  44.536   4.010
 7671W        W79287   9.834   9.303  14.830
 7672W        W79288  35.765   3.746   2.837
 7673W        W79289   4.607  17.316  12.670
 7674W        W79290  19.529   6.777   3.238
 7675W        W79291  26.304  29.047   2.257
 7676W        W79292  33.925  37.528  11.640
 7677W        W79293   1.506   4.750   1.243
 7678W        W79294  23.797  26.082   1.019
 7679W        W79295  33.026  43.234  12.549
 7680W        W79296  17.632   6.172   1.740
 7681W        W79297  42.417  39.082   4.704
 7682W        W79298  28.954  17.697   2.908
 7683W        W79299   8.708  14.228   0.695
 7684W        W79300  19.769   1.546   2.828
 7685W        W79301  43.574  32.371  11.390
 7686W        W79302   3.182  18.858   4.235
 7687W        W79303  39.783  11.713   5.392
 7688W        W79304   2.695   3.956  13.632
 7689W        W79305  23.043  42.839  10.666
 7690W        W79306  11.792  21.795  14.971
 7691W        W79307  38.283  40.409   3.582
 7692W        W79308  20.119  41.552   3.021
 7693W        W79309   1.952   3.019   2.665
 7694W        W79310  33.007  23.485   4.239
 7695W        W79311   9.751  20.741  13.574
 7696W        W79312  38.092   2.346   2.773
 7697W        W79313  32.446  27.214   1.808
 7698W        W79314   6.428  20.581  13.896
 7699W        W79315   9.421  36.564  12.940
 7700W        W79316  17.297  43.472   1.701
 7701W        W79317  32.524   4.192  13.291
 7702W        W79318   8.118  24.620  12.024
 7703W        W79319  29.373  33.959   2.069
 7704W        W79320  13.331  35.529  10.565
 7705W        W79321   3.384  41.217   3.655
 7706W        W79322  42.938  22.259  12.556
 7707W        W79323  35.570  34.437  12.728
 7708W        W79324  28.682   0.292   1.371
 7709W        W79325   4.847  44.343   2.301
 7710W        W79326  41.070  18.133  10.663
 7711W        W79327  42.421  39.748   3.142
 7712W        W79328  42.287  34.019   4.658
 7713W        W79329  23.240   4.232  11.233
 7714W        W79330   5.993   5.684   0.914
 7715W        W79331   4.896  43.903   5.033
 7716W        W79332  44.812  37.366  14.145
 7717W        W79333  30.759  43.936  10.669
 7718W        W79334  28.558  23.602   3.022
 7719W        W79335  43.410   3.345   0.759
 7720W        W79336  25.940   6.970   2.178
 7721W        W79337   4.698   4.932  10.541
 7722W        W79338  44.077  21.565   2.288
 7723W        W79339  37.528  10.180   2.864
 7724W        W79340   2.331  27.740   0.322
 7725W        W79341  21.477  38.902   4.290
 7726W        W79342  21.772  26.551  10.526
 7727W        W79343   7.297   8.797   3.912
 7728W        W79344  43.914  20.657  11.653
 7729W        W79345  37.749  42.545   3.217
 7730W        W79346  37.886  16.299   4.818
 7731W        W79347   7.687  33.091   0.858
 7732W        W79348  17.686  19.129  12.591
 7733W        W79349  38.293  16.610   4.551
 7734W        W79350   2.742  37.561   1.311
 7735W        W79351  25.641   6.913  11.514
 7736W        W79352   6.310  24.582  14.810
 7737W        W79353  41.114  22.501   3.693
 7738W        W79354  27.646  23.882   0.779
 7739W        W79355  41.405   7.362  13.976
 7740W        W79356  27.065   0.336   1.936
 7741W        W79357  27.222  19.047   3.096
 7742W        W79358  31.231  23.608  10.211
 7743W        W79359  16.394  30.965  10.844
 7744W        W79360  42.800   1.664  12.370
 7745W        W79361  28.155   5.115  13.412
 7746W        W79362  30.171  42.536  13.539
 7747W        W79363  16.351   6.987   3.632
 7748W        W79364  37.618  13.298  12.555
 7749W        W79365   7.420   4.745  12.486
 7750W        W79366  43.393  27.074   0.868
 7751W        W79367   2.888  14.711  11.937
 7752W        W79368  17.134  39.826   3.125
 7753W        W79369  20.052   9.852  12.163
 7754W        W79370  22.135  28.798   0.890
 7755W        W79371  18.874  30.673   2.124
 7756W        W79372  21.051  32.636   3.479
 7757W        W79373  44.367  21.275   1.288
 7758W        W79374  26.497  12.606   0.258
 7759W        W79375  37.605  13.387   0.736
 7760W        W79376  37.287   7.780   0.000
 7761W        W79377  39.552  32.090   2.153
 7762W        W79378  43.929   8.031   0.774
 7763W        W79379  36.992  39.645   2.077
 7764W        W79380  42.230  17.277   0.859
 7765W        W79381  42.731  25.461  13.204
 7766W        W79382  29.361  35.844  10.707
 7767W        W79383   0.711  32.499   4.802
 7768W        W79384  36.423   4.305  11.466
 7769W        W79385   4.136  32.802  14.327
 7770W        W79386  29.937   3.863   0.645
 7771W        W79387   3.779  41.783  10.778
 7772W        W79388  28.477  15.601  12.429
 7773W        W79389  27.665  20.704  10.653
 7774W        W79390   5.947  36.569  11.796
 7775W        W79391  35.987  26.692   0.377
 7776W        W79392   9.917  42.073   0.826
 7777W        W79393  15.501  20.142   0.251
 7778W        W79394  31.018  19.240  11.391
 7779W        W79395   4.374  14.224  13.958
 7780W        W79396  41.915   3.728  12.422
 7781W        W79397  43.305  28.963   4.576
 7782W        W79398  10.768  20.032  13.606
 7783W        W79399  18.990  14.295  13.378
 7784W        W79400  39.759  41.547   0.253
 7785W        W79401  34.710  13.193   0.737
 7786W        W79402  13.070  10.870   0.543
 7787W        W79403  22.022  17.593  14.294
 7788W        W79404   0.868  37.491   1.510
 7789W        W79405  29.741  30.030   0.949
 7790W        W79406  43.714   9.823   2.244
 7791W        W79407   3.382  32.821  11.942
 7792W        W79408  31.396  10.759  13.950
 7793W        W79409  33.161  41.003   4.173
 7794W        W79410  37.045  33.717  14.356
 7795W        W79411  14.545  23.637   1.121
 7796W        W79412   4.402  14.384  11.011
 7797W        W79413  18.314   4.300   0.689
 7798W        W79414  40.687  30.252  13.404
 7799W        W79415  43.340  24.621   0.961
 7800W        W79416  11.967  12.665   4.005
 7801W        W79417  44.251  28.866   4.588
 7802W        W79418  33.648  30.596   3.612
 7803W        W79419  25.980  26.444   2.304
 7804W        W79420  17.749   4.154  12.340
 7805W        W79421  15.109  41.332  14.029
 7806W        W79422   0.254  38.039   1.269
 7807W        W79423  36.160  23.218  12.581
 7808W        W79424   9.499  17.001  11.578
 7809W        W79425  31.398  42.244  12.610
 7810W        W79426   0.489   3.745  14.726
 7811W        W79427  44.176  30.917  10.894
 7812W        W79428  33.656  42.687   0.239
 7813W        W79429   8.839   6.812  11.983
 7814W        W79430  33.309   1.362  12.765
 7815W        W79431  15.642  25.423  14.561
 7816W        W79432  17.207  17.812   5.006
 7817W        W79433   1.753  41.026   4.685
 7818W        W79434  14.081   4.708  11.130
 7819W        W79435   8.270  24.564   3.843
 7820W        W79436  42.419  14.703   1.301
 7821W        W79437  31.294   5.796  12.970
 7822W        W79438  41.282  42.002   4.104
 7823W        W79439  21.435  42.425   1.014
 7824W        W79440   7.798  15.047   1.391
 7825W        W79441  34.860  14.351   3.267
 7826W        W79442  25.072  13.902   3.515
 7827W        W79443  43.754  13.471   2.333
 7828W        W79444  36.386  19.727   1.300
 7829W        W79445  34.391  37.399   4.418
 7830W        W79446   9.337   1.279  10.714
 7831W        W79447  40.776   9.741  12.093
 7832W        W79448  32.001  33.800  13.556
 7833W        W79449  44.225  20.284   0.444
 7834W        W79450  19.090   2.401  10.480
 7835W        W79451  14.750   9.175  12.920
 7836W        W79452  14.561  24.033   0.280
 7837W        W79453  32.509   1.010  12.541
 7838W        W79454  31.708   1.994  11.463
 7839W        W79455   9.265   9.671   4.597
 7840W        W79456  40.461  38.086  14.468
 7841W        W79457   5.781  15.473   2.252
 7842W        W79458  37.783   3.399   0.256
 7843W        W79459  21.980  28.485   2.190
 7844W        W79460  28.703  28.746  12.017
 7845W        W79461  43.007   2.239  11.561
 7846W        W79462  29.527  35.508   1.870
 7847W        W79463  24.287  16.651  11.266
 7848W        W79464  39.044  17.368   2.966
 7849W        W79465  10.360   1.106   3.268
 7850W        W79466  20.728  43.855   2.686
 7851W        W79467   9.274  31.355   0.521
 7852W        W79468  34.764  39.551  13.456
 7853W        W79469  37.527  13.692   9.775
 7854W        W79470  34.997  13.146  13.537
 7855W        W79471   8.317  21.512  11.214
 7856W        W79472   8.340  29.961   4.706
 7857W        W79473  21.201  33.493  14.523
 7858W        W79474  19.048  15.332   2.407
 7859W        W79475  39.456   0.855  12.341
 7860W        W79476  19.666  37.150   0.510
 7861W        W79477  36.551  20.142   0.648
 7862W        W79478  37.902   1.039   0.376
 7863W        W79479   3.793   5.495  13.899
 7864W        W79480   6.958   0.991   1.608
 7865W        W79481  44.683  25.141   3.175
 7866W        W79482   2.505  18.627   0.759
 7867W        W79483  21.476  18.218   3.880
 7868W        W79484  22.207   3.904   4.604
 7869W        W79485  23.240  25.442   0.509
 7870W        W79486  33.383  18.076   0.033
 7871W        W79487  11.349  31.951  12.484
 7872W        W79488  28.349  36.999   1.910
 7873W        W79489  32.146  14.551  13.743
 7874W        W79490  20.533  44.348   3.544
 7875W        W79491  19.336  23.239  14.113
 7876W        W79492  13.194   6.855  14.534
 7877W        W79493   1.049  43.119  10.883
 7878W        W79494  34.136  21.286   1.296
 7879W        W79495   7.975  19.121  12.259
 7880W        W79496  38.914  25.082  12.021
 7881W        W79497  28.100  14.517  12.333
 7882W        W79498  14.218  31.108  11.743
 7883W        W79499  18.949  41.321  10.261
 7884W        W79500  42.328  31.974  12.607
 7885W        W79501  33.298  38.121   3.318
 7886W        W79502   8.723   5.312   4.892
 7887W        W79503  13.716   0.375  10.885
 7888W        W79504  26.237  38.793  13.842
 7889W        W79505  18.169  11.903   0.883
 7890W        W79506  20.589   7.169  11.660
 7891W        W79507  25.478  35.674  12.665
 7892W        W79508  35.849  17.975  12.202
 7893W        W79509  29.001  30.968   3.895
 7894W        W79510   7.491  27.914  13.546
 7895W        W79511  31.283  14.816  14.817
 7896W        W79512  30.518  25.461   2.320
 7897W        W79513  19.581  33.979   4.348
 7898W        W79514  31.540  29.210   0.237
 7899W        W79515  23.212  38.738   2.291
 7900W        W79516  14.715  26.458  11.859
 7901W        W79517  28.863  39.886   4.095
 7902W        W79518  37.404  23.167  14.356
 7903W        W79519  43.119  38.814   2.458
 7904W        W79520   3.736  26.358   1.995
 7905W        W79521  41.347  14.762   1.731
 7906W        W79522   0.844  39.816   2.378
 7907W        W79523   1.725  38.599  12.023
 7908W        W79524  27.536  25.301   3.811
 7909W        W79525  25.415  13.034   3.269
 7910W        W79526  34.639  21.298  11.011
 7911W        W79527  20.648  34.790   4.024
 7912W        W79528  27.469  37.704   4.222
 7913W        W79529  44.412  32.255  10.252
 7914W        W79530   7.889  28.692  10.576
 7915W        W79531  19.165  33.643  13.325
 7916W        W79532  25.557  21.319  10.196
 7917W        W79533  25.692   7.912  11.532
 7918W        W79534  28.442  29.864  13.384
 7919W        W79535   6.401   7.987  13.089
 7920W        W79536   1.493  36.881   3.623
 7921W        W79537  42.629  26.647  13.124
 7922W        W79538  39.347  24.986  11.670
 7923W        W79539  43.722   7.109  10.719
 7924W        W79540  18.304   1.771  14.834
 7925W        W79541  44.739  14.049  12.511
 7926W        W79542  39.375  40.547   0.761
 7927W        W79543  26.027  39.822   2.364
 7928W        W79544  41.369  42.363  12.584
 7929W        W79545  36.865  35.922   3.410
 7930W        W79546  24.267  42.048   0.700
 7931W        W79547  13.945  36.067   3.728
 7932W        W79548   1.959  25.555  12.792
 7933W        W79549  14.813   2.903   3.816
 7934W        W79550  23.692  21.475   4.090
 7935W        W79551  26.465  26.566   2.433
 7936W        W79552  12.373  23.606   2.821
 7937W        W79553  31.030  14.675   0.487
 7938W        W79554  25.561  11.134  11.125
 7939W        W79555  34.637  12.318   0.408
 7940W        W79556  30.840  27.579  14.727
 7941W        W79557   1.784  28.547   1.338
 7942W        W79558   0.369  18.626  10.641
 7943W        W79559  12.410  42.436  14.931
 7944W        W79560  25.019  36.640   2.768
 7945W        W79561   4.832  27.576   1.049
 7946W        W79562   1.818  19.123  13.416
 7947W        W79563   0.227  25.549  13.585
 7948W        W79564  26.034  18.990  12.875
 7949W        W79565  35.244   9.124  12.129
 7950W        W79566  16.787  13.066  12.396
 7951W        W79567  34.901  23.949   0.062
 7952W        W79568  23.564  30.339   3.167
 7953W        W79569   7.585  29.603  11.482
 7954W        W79570   5.251  12.382   1.842
 7955W        W79571  39.108  36.491  14.316
 7956W        W79572  28.160   6.048   4.916
 7957W        W79573  21.792   1.290  14.234
 7958W        W79574   8.857   8.818  11.555
 7959W        W79575  26.738   0.415  14.823
 7960W        W79576  10.723  42.838   0.978
 7961W        W79577  12.103  13.741   0.323
 7962W        W79578  43.352   6.803   3.442
 7963W        W79579  17.186  20.300  12.005
 7964W        W79580   9.167  18.694   0.750
 7965W        W79581  36.902  42.433   0.797
 7966W        W79582  16.817  16.277   2.818
 7967W        W79583   9.741  21.562   2.422
 7968W        W79584  10.879   0.926   2.248
 7969W        W79585  37.323  37.873  13.494
 7970W        W79586  29.259  39.486   0.304
 7971W        W79587   3.807   0.520   1.523
 7972W        W79588  36.052   4.741   0.536
 7973W        W79589   4.996  36.351   4.995
 7974W        W79590  40.052  26.467  13.734
 7975W        W79591  23.687   5.312  14.531
 7976W        W79592  18.139  38.066   2.823
 7977W        W79593  44.687   2.663   2.123
 7978W        W79594  30.545   1.725   3.561
 7979W        W79595  31.584  42.555   1.788
 7980W        W79596   6.784  29.109   2.337
 7981W        W79597  29.729  25.915   3.366
 7982W        W79598  32.250  24.606   0.330
 7983W        W79599  33.571  37.980  12.898
 7984W        W79600  28.939  26.137  12.696
 7985W        W79601  29.871  19.712   1.903
 7986W        W79602  38.925  17.256   4.325
 7987W        W79603  27.251  13.315  13.899
 7988W        W79604  16.773  35.810  10.423
 7989W        W79605  26.769  33.588   0.967
 7990W        W79606   5.304  41.592   4.708
 7991W        W79607  21.053  12.819   0.245
 7992W        W79608  24.571  44.814   2.715
 7993W        W79609  34.648  21.177   1.393
 7994W        W79610  24.799  44.734  10.701
 7995W        W79611  33.310  30.036  12.429
 7996W        W79612  38.822  21.730   1.836
 7997W        W79613  18.139  19.518  12.514
 7998W        W79614  41.336  19.812  10.646
 7999W        W79615  11.647   9.739  13.039
 8000W        W79616  26.143  37.354  14.432
 8001W        W79617  18.698   3.355  14.735
 8002W        W79618  10.891  42.655   3.728
 8003W        W79619  28.798   0.645   0.041
 8004W        W79620  40.756  13.882   3.306
 8005W        W79621  36.502  18.090  10.710
 8006W        W79622  35.811   0.904   2.390
 8007W        W79623   1.842  16.357   0.434
 8008W        W79624  16.692   4.861  11.423
 8009W        W79625  38.273   6.315   1.761
 8010W        W79626  25.928  38.559   0.793
 8011W        W79627  30.139  27.663   0.879
 8012W        W79628  42.963  29.647   0.879
 8013W        W79629   3.452   4.967  10.304
 8014W        W79630  25.754   8.662  11.875
 8015W        W79631  29.000  25.200   1.634
 8016W        W79632   8.201  31.382  10.825
 8017W        W79633  33.515   1.704  13.101
 8018W        W79634  16.995   3.210   0.674
 8019W        W79635   7.751   9.419   4.223
 8020W        W79636  42.225  30.719   1.282
 8021W        W79637  39.050  24.105  13.950
 8022W        W79638   9.345  20.546   3.728
 8023W        W79639  28.550  37.408   0.806
 8024W        W79640  40.162   2.828  12.992
 8025W        W79641  24.746  10.144   4.183
 8026W        W79642  21.109  13.240   0.947
 8027W        W79643  21.144  31.072   0.774
 8028W        W79644   5.039  26.701  11.457
 8029W        W79645   9.129  19.021  14.817
 8030W        W79646   5.154  43.350  14.341
 8031W        W79647  16.991  41.952  13.466
 8032W        W79648  33.660  25.226  11.665
 8033W        W79649  12.530  39.290  10.931
 8034W        W79650  44.833  39.065  11.495
 8035W        W79651  26.245  38.496   4.045
 8036W        W79652  16.793   7.228   3.726
 8037W        W79653  30.570  10.763   4.402
 8038W        W79654   6.580  21.162   3.731
 8039W        W79655  22.957  36.743  12.606
 8040W        W79656  21.795   6.388   2.403
 8041W        W79657  40.434  20.683  11.367
 8042W        W79658  12.289  33.628   0.820
 8043W        W79659  35.569  24.608   1.279
 8044W        W79660  29.743  22.776   1.207
 8045W        W79661  15.497  41.179   3.550
 8046W        W79662  21.618  13.596  13.006
 8047W        W79663  42.356  40.427  10.911
 8048W        W79664   0.894  42.489   1.189
 8049W        W79665  10.988  35.057   0.020
 8050W        W79666   4.935   9.304   2.483
 8051W        W79667  31.506  42.615   2.693
 8052W        W79668  15.669  44.306  14.195
 8053W        W79669  34.163   5.958   3.765
 8054W        W79670  30.618   4.083   1.919
 8055W        W79671   9.853   4.150  13.955
 8056W        W79672  29.352  31.072  11.050
 8057W        W79673  21.481  33.322  13.795
 8058W        W79674  29.987   4.432  10.748
 8059W        W79675   4.732  42.168   2.831
 8060W        W79676  39.081  14.682  10.167
 8061W        W79677  24.272  43.447  12.523
 8062W        W79678  26.648  17.565  13.608
 8063W        W79679  25.211  44.859   1.218
 8064W        W79680  14.652  33.956   3.542
 8065W        W79681   9.602  17.250   4.243
 8066W        W79682  29.901   7.443   4.016
 8067W        W79683  43.565   9.218  10.765
 8068W        W79684  10.148  31.103  12.861
 8069W        W79685  13.002  34.512  11.574
 8070W        W79686  19.794  23.582  12.394
 8071W        W79687  15.053   4.664  10.317
 8072W        W79688  25.522  27.071   0.402
 8073W        W79689   6.295  26.969  10.847
 8074W        W79690  21.338  24.469   1.641
 8075W        W79691  27.957  16.595  11.157
 8076W        W79692  34.755  18.104  10.197
 8077W        W79693  24.142  21.626  10.446
 8078W        W79694  19.203  34.253   2.736
 8079W        W79695  37.676  19.574  11.116
 8080W        W79696  27.204  43.954  11.067
 8081W        W79697  42.279   9.791   0.314
 8082W        W79698  22.559  26.381  14.006
 8083W        W79699  32.582  14.460   1.752
 8084W        W79700   4.257   3.114  14.509
 8085W        W79701  22.725  42.830  12.763
 8086W        W79702  29.952   8.382  14.880
 8087W        W79703  29.837  26.174  12.766
 8088W        W79704  39.520  12.710   1.838
 8089W        W79705  40.889  25.404   1.795
 8090W        W79706  40.186  34.964  13.767
 8091W        W79707  23.990   4.666   0.184
 8092W        W79708  13.858  40.921   2.937
 8093W        W79709  15.846  39.068   2.142
 8094W        W79710  15.287  29.388  12.383
 8095W        W79711  40.461  40.098  14.295
 8096W        W79712   1.218  41.494   4.259
 8097W        W79713  30.089  36.666   4.712
 8098W        W79714  11.194  12.378   0.806
 8099W        W79715  27.868  41.097  14.576
 8100W        W79716   3.320  34.547   0.943
 8101W        W79717  23.541  37.883   2.260
 8102W        W79718  30.091  14.537   3.949
 8103W        W79719  43.299  27.501  13.764
 8104W        W79720  34.875  19.006  10.678
 8105W        W79721   4.280  29.438  14.786
 8106W        W79722  24.244  44.443  13.231
 8107W        W79723   6.316   0.507  13.323
 8108W        W79724  25.072  10.148   2.174
 8109W        W79725  20.741  22.253  11.434
 8110W        W79726   2.953   5.123  10.954
 8111W        W79727  17.336  38.775   5.160
 8112W        W79728  12.233  26.712  12.660
 8113W        W79729  33.693  22.127  11.598
 8114W        W79730  17.468  26.511  13.384
 8115W        W79731  24.030  24.771  10.584
 8116W        W79732   2.264  13.740  11.477
 8117W        W79733   9.376  36.892   0.470
 8118W        W79734  25.348   3.863  13.480
 8119W        W79735  12.956  23.499   3.439
 8120W        W79736  32.749  18.587  14.143
 8121W        W79737  38.901  22.748  10.533
 8122W        W79738  14.835  25.707   2.624
 8123W        W79739  23.078  16.396   4.091
 8124W        W79740  37.957  16.748   4.168
 8125W        W79741   4.385  32.336   1.756
 8126W        W79742  28.219  27.342  10.658
 8127W        W79743   8.664  12.277  11.008
 8128W        W79744  27.148  13.227   1.457
 8129W        W79745  22.614   0.745  11.970
 8130W        W79746  24.037  39.570   3.101
 8131W        W79747   3.520   3.311  14.968
 8132W        W79748  39.820  16.861   3.930
 8133W        W79749  26.436  24.257   4.001
 8134W        W79750   4.009  37.510   0.254
 8135W        W79751  21.794  33.179  12.872
 8136W        W79752  26.831  27.661  11.158
 8137W        W79753   9.142  36.869   1.480
 8138W        W79754  43.110  13.272   1.158
 8139W        W79755  13.013   3.469   3.636
 8140W        W79756  16.135  41.382  13.629
 8141W        W79757  33.080   8.275   2.765
 8142W        W79758  11.906  24.105  14.750
 8143W        W79759  41.014   1.339   2.875
 8144W        W79760  38.060   0.584   4.277
 8145W        W79761  25.041  32.802  11.642
 8146W        W79762  25.237  34.881   0.112
 8147W        W79763  25.730   4.437   4.429
 8148W        W79764  35.635  26.153   1.282
 8149W        W79765  18.540  14.624   0.451
 8150W        W79766   1.461   7.711   1.639
 8151W        W79767  25.179  17.695   0.999
 8152W        W79768  16.224  44.801   2.428
 8153W        W79769  14.259  44.969  10.490
 8154W        W79770   3.505  37.339  11.079
 8155W        W79771  18.085  26.409   2.419
 8156W        W79772  13.059  12.962  11.199
 8157W        W79773  13.202  25.885   0.688
 8158W        W79774  23.039  16.113   1.644
 8159W        W79775   8.573  18.249  13.801
 8160W        W79776  22.319  13.184   0.250
 8161W        W79777  31.562  42.452  11.143
 8162W        W79778  10.714  19.289   2.312
 8163W        W79779  18.132  33.985   4.571
 8164W        W79780  17.298  15.096   0.041
 8165W        W79781   0.195  14.634   4.147
 8166W        W79782  38.947  18.525   0.659
 8167W        W79783  20.071   2.342  12.000
 8168W        W79784   6.251   4.799   0.519
 8169W        W79785  28.600  44.802  12.624
 8170W        W79786  43.030  24.131  11.604
 8171W        W79787   4.980   5.812   2.742
 8172W        W79788   4.856   5.065  11.386
 8173W        W79789  37.284   5.702  13.291
 8174W        W79790  38.815  13.342   1.708
 8175W        W79791  32.136  40.385   2.293
 8176W        W79792  27.925  37.969  13.574
 8177W        W79793  43.801   2.817  12.746
 8178W        W79794  12.702   4.768  11.120
 8179W        W79795  11.661  23.584   2.243
 8180W        W79796  18.302   7.960  12.902
 8181W        W79797  44.868  23.498  14.730
 8182W        W79798   5.977   9.655  14.490
 8183W        W79799  37.628  43.217   3.427
 8184W        W79800   4.016  18.369   1.812
 8185W        W79801  33.276  23.126   2.635
 8186W        W79802  17.274  39.503   3.840
 8187W        W79803  37.323  16.120  14.065
 8188W        W79804   4.188  29.114   2.140
 8189W        W79805   1.670  28.121  11.480
 8190W        W79806  43.813   2.216  14.260
 8191W        W79807  16.210  35.589   1.254
 8192W        W79808  17.552  11.674  13.868
 8193W        W79809  37.515  24.125  13.306
 8194W        W79810  12.825   7.882  14.743
 8195W        W79811  41.705  24.200  13.825
 8196W        W79812  15.260  39.836   3.295
 8197W        W79813  30.666  27.042   4.649
 8198W        W79814   9.992   4.325   2.888
 8199W        W79815  39.579  13.705   1.391
 8200W        W79816  41.998   1.867   5.098
 8201W        W79817  26.312  34.418  13.812
 8202W        W79818  27.679  26.548  12.954
 8203W        W79819  19.124  17.707  13.126
 8204W        W79820  44.501  13.755   0.777
 8205W        W79821  17.286  18.024  11.077
 8206W        W79822  35.014  26.250  11.086
 8207W        W79823  17.530  35.397  14.525
 8208W        W79824   5.162  37.921  14.124
 8209W        W79825   5.729  42.493  10.513
 8210W        W79826  37.024  31.235  10.952
 8211W        W79827  19.652  32.130   1.812
 8212W        W79828  42.495  32.141  11.130
 8213W        W79829   7.099   0.016  11.668
 8214W        W79830  10.334  28.495  13.912
 8215W        W79831  29.946  26.029   0.659
 8216W        W79832   1.420  44.517  10.174
 8217W        W79833   5.722  34.353  11.693
 8218W        W79834  25.025  18.102   0.291
 8219W        W79835  21.020  36.576  13.871
 8220W        W79836   2.943  27.558  14.074
 8221W        W79837  17.322  28.654   4.496
 8222W        W79838  39.502  36.407   3.615
 8223W        W79839  26.478  43.485   2.284
 8224W        W79840  36.876  12.307   2.336
 8225W        W79841  32.475  21.261   2.841
 8226W        W79842   0.277  18.174  12.440
 8227W        W79843  42.780  33.888   2.387
 8228W        W79844   4.548  41.518  14.905
 8229W        W79845  30.110  39.545  14.030
 8230W        W79846   4.069  34.001   1.752
 8231W        W79847   8.807  25.249   1.369
 8232W        W79848   4.342  20.284   2.393
 8233W        W79849   3.416   1.963   1.017
 8234W        W79850  31.534   3.897   3.611
 8235W        W79851  34.473  10.311   2.728
 8236W        W79852  15.837  22.227  14.419
 8237W        W79853  12.808  32.340  10.435
 8238W        W79854  28.482  30.135   3.238
 8239W        W79855   4.145  12.981   2.873
 8240W        W79856  39.081  26.739  12.966
 8241W        W79857  29.650   6.473  12.993
 8242W        W79858  28.370  12.704  10.775
 8243W        W79859  15.076  10.823  11.879
 8244W        W79860   9.933  33.749  12.015
 8245W        W79861   4.783  24.612   1.749
 8246W        W79862  15.511  30.446   3.254
 8247W        W79863  39.807  29.013   4.210
 8248W        W79864  12.285  17.536   0.727
 8249W        W79865  33.805  25.586  11.147
 8250W        W79866  31.413  28.355  11.593
 8251W        W79867  11.139  27.537  13.145
 8252W        W79868  34.812  43.442  10.736
 8253W        W79869  15.920  17.098   1.703
 8254W        W79870  28.393  42.817  11.602
 8255W        W79871  39.560  30.431   2.026
 8256W        W79872  28.420   7.109  11.172
 8257W        W79873  36.923  31.703  11.858
 8258W        W79874  17.264  25.410  11.793
 8259W        W79875   0.077  38.349  14.328
 8260W        W79876  19.953  21.135   2.274
 8261W        W79877  21.859  29.881  13.519
 8262W        W79878   4.952  39.882  10.871
 8263W        W79879  34.787   0.834   2.120
 8264W        W79880  44.174  44.275  12.493
 8265W        W79881   8.877   5.125  14.450
 8266W        W79882  34.383  42.440  12.967
 8267W        W79883  38.242  27.416  13.126
 8268W        W79884  33.471   3.752  10.838
 8269W        W79885  43.656  19.423  12.997
 8270W        W79886  25.143  11.304  14.343
 8271W        W79887  27.610  41.003   4.647
 8272W        W79888   8.616  31.137   1.480
 8273W        W79889  17.902  41.843  14.359
 8274W        W79890  20.998  13.272   0.008
 8275W        W79891  20.318  21.413   4.806
 8276W        W79892  19.415  19.289   2.216
 8277W        W79893   6.678  16.205   1.307
 8278W        W79894   9.404   5.808   3.350
 8279W        W79895   8.728   9.429   3.334
 8280W        W79896  23.623   2.087  11.553
 8281W        W79897  26.412  27.684   1.337
 8282W        W79898   0.952  43.809   2.867
 8283W        W79899  31.095  38.346  10.737
 8284W        W79900  38.786  39.510  14.258
 8285W        W79901   8.109  28.076  11.965
 8286W        W79902   0.014  42.941   5.054
 8287W        W79903  43.978  27.585   3.496
 8288W        W79904   2.168  41.378  11.980
 8289W        W79905  16.595  36.420  11.091
 8290W        W79906  41.407  35.827  10.209
 8291W        W79907   9.628   5.333  12.449
 8292W        W79908  42.035   4.722  10.791
 8293W        W79909  37.624  12.862   0.630
 8294W        W79910  12.712  36.586   3.498
 8295W        W79911   8.299  28.442   3.086
 8296W        W79912  19.848  34.969  14.179
 8297W        W79913  14.650  24.470   4.662
 8298W        W79914  13.527   6.473   5.653
 8299W        W79915  10.121  14.145  10.740
 8300W        W79916  34.114   9.091   2.259
 8301W        W79917  41.506   7.816  13.026
 8302W        W79918  14.898  32.938   1.279
 8303W        W79919  34.458   1.299   2.192
 8304W        W79920   1.456   8.606  13.446
 8305W        W79921  10.814  19.071   1.771
 8306W        W79922   8.287  11.304   0.537
 8307W        W79923   1.803  23.985   0.689
 8308W        W79924  32.076  36.399   3.215
 8309W        W79925  31.060  12.067  13.315
 8310W        W79926  37.083  23.430   0.803
 8311W        W79927  20.603   2.341  12.079
 8312W        W79928  33.985  29.803   2.076
 8313W        W79929   7.353  17.539   3.917
 8314W        W79930   4.269  31.116   2.693
 8315W        W79931   4.245   7.840  14.066
 8316W        W79932  39.287  17.317   1.248
 8317W        W79933  35.531  13.844  12.160
 8318W        W79934  25.075  18.304   3.938
 8319W        W79935  44.873  44.524   0.240
 8320W        W79936  24.207   0.744  11.170
 8321W        W79937  21.044   1.357   4.211
 8322W        W79938   8.426   0.534   1.299
 8323W        W79939  11.267  10.337   4.258
 8324W        W79940   3.291  19.272   2.369
 8325W        W79941   2.276  28.181   3.741
 8326W        W79942  37.891  18.028   3.703
 8327W        W79943  37.894  29.938   0.749
 8328W        W79944  44.310  44.798   2.785
 8329W        W79945   7.176  43.470  14.834
 8330W        W79946  30.324  20.648  10.732
 8331W        W79947  21.697  26.937  14.774
 8332W        W79948  36.359   5.648  13.110
 8333W        W79949  24.704  18.670   2.719
 8334W        W79950  38.053  24.096   2.702
 8335W        W79951   5.393  21.757   3.932
 8336W        W79952  41.264  27.523  12.012
 8337W        W79953  36.506  21.113   2.977
 8338W        W79954   4.782  35.942   4.732
 8339W        W79955  17.737  27.693  14.475
 8340W        W79956  39.359  20.026  13.882
 8341W        W79957  15.099  30.670  11.196
 8342W        W79958   2.229   4.017   4.607
 8343W        W79959  14.104  42.414   3.653
 8344W        W79960  32.956  18.749  11.511
 8345W        W79961  30.388   7.816   2.633
 8346W        W79962  28.885  15.973  11.052
 8347W        W79963  10.629   2.172   3.870
 8348W        W79964  38.822  22.607   2.828
 8349W        W79965  34.585  32.576   0.270
 8350W        W79966  11.391   4.184   1.355
 8351W        W79967  33.142  17.188  13.384
 8352W        W79968  30.241  35.787  11.632
 8353W        W79969  21.276   8.793  13.354
 8354W        W79970   8.444  12.295  14.944
 8355W        W79971   7.281  36.925   2.721
 8356W        W79972  38.836   3.293   0.974
 8357W        W79973  10.559  38.131  12.600
 8358W        W79974  11.315  20.273  14.375
 8359W        W79975  20.799  22.015  10.622
 8360W        W79976  41.865  10.944   0.896
 8361W        W79977  42.094  19.616  13.908
 8362W        W79978  13.633  30.401   4.128
 8363W        W79979  27.296  31.655  13.315
 8364W        W79980   7.842  12.759   0.895
 8365W        W79981   3.824  12.558   2.104
 8366W        W79982  24.074  22.256   4.592
 8367W        W79983  21.958  28.899   1.366
 8368W        W79984  13.303  16.317   3.274
 8369W        W79985  16.139  18.931  11.149
 8370W        W79986  31.132  22.170   2.097
 8371W        W79987  10.955  31.330  10.955
 8372W        W79988  36.036   8.455  13.181
 8373W        W79989  20.507   7.573   1.578
 8374W        W79990  41.932  38.563  12.365
 8375W        W79991  15.569   1.348   2.917
 8376W        W79992   8.621  24.792   2.269
 8377W        W79993  10.625  31.583   0.479
 8378W        W79994  40.340  23.079   2.095
 8379W        W79995  15.151  31.387   0.583
 8380W        W79996  27.625  33.294   1.240
 8381W        W79997   9.169  32.019  13.473
 8382W        W79998  18.426   8.424  12.442
 8383W        W79999  10.287  26.108  13.483
 8384W        W80000  30.671  26.445   0.372
 8385W        W80001  31.596  13.706  13.456
 8386W        W80002  18.278  15.659  13.492
 8387W        W80003  17.065   2.265   0.829
 8388W        W80004  44.183  35.614   3.313
 8389W        W80005  21.844  29.914   4.775
 8390W        W80006   4.788  35.328  11.100
 8391W        W80007   6.916  35.587   3.218
 8392W        W80008  36.988  35.278   4.784
 8393W        W80009  23.152  30.068  14.019
 8394W        W80010  34.443  16.693  10.607
 8395W        W80011   3.797  18.350  11.489
 8396W        W80012  42.657  24.424  13.864
 8397W        W80013  36.357  15.080   2.434
 8398W        W80014  23.217   1.045  14.350
 8399W        W80015   3.416  37.387  13.570
 8400W        W80016   3.836  12.751   1.602
 8401W        W80017  23.125   9.653  14.771
 8402W        W80018  43.392  33.110   2.504
 8403W        W80019  40.097  21.633  13.886
 8404W        W80020  35.043   9.699   1.865
 8405W        W80021  43.409  19.633   1.116
 8406W        W80022   8.143  24.509   2.388
 8407W        W80023  14.064  18.256  11.087
 8408W        W80024  23.494  44.024  14.530
 8409W        W80025  28.979  21.933  12.788
 8410W        W80026   8.366  21.450  13.585
 8411W        W80027  36.856   7.860   2.823
 8412W        W80028  23.007   9.280  14.438
 8413W        W80029   9.455  24.149  12.935
 8414W        W80030   1.881   9.614  12.142
 8415W        W80031  36.514  14.767  12.178
 8416W        W80032  10.862  18.371  12.940
 8417W        W80033  30.349  36.712   3.512
 8418W        W80034   3.805  18.034  12.429
 8419W        W80035  41.416   4.523   1.864
 8420W        W80036   9.476  16.736   2.152
 8421W        W80037  27.053  11.233  14.337
 8422W        W80038  41.099  10.236   3.552
 8423W        W80039  17.558   6.845  11.623
 8424W        W80040  28.593  18.741   1.315
 8425W        W80041  20.831  35.407  12.958
 8426W        W80042  24.485   4.241   4.002
 8427W        W80043  15.169  26.590  14.063
 8428W        W80044   3.562  35.174  13.764
 8429W        W80045  19.596  14.351   3.335
 8430W        W80046  19.528  12.671   0.958
 8431W        W80047  25.925  38.064   1.485
 8432W        W80048  41.622  22.867   3.040
 8433W        W80049  38.040  25.833   2.460
 8434W        W80050   4.151  43.308  14.010
 8435W        W80051  27.623  40.142   1.013
 8436W        W80052  29.386  18.990  13.528
 8437W        W80053  40.948  21.625  10.544
 8438W        W80054   1.973   7.862   4.446
 8439W        W80055  20.695  18.005   1.198
 8440W        W80056   3.964  35.346   2.253
 8441W        W80057  14.229  18.476   4.232
 8442W        W80058  21.577  17.970   1.771
 8443W        W80059  24.214  33.105  13.901
 8444W        W80060  22.930  33.557   2.849
 8445W        W80061  37.531   6.804  14.912
 8446W        W80062  18.355  36.079   1.743
 8447W        W80063  23.479  37.391   0.240
 8448W        W80064  20.145  43.584  11.148
 8449W        W80065  17.248  39.334   0.561
 8450W        W80066  14.524   6.241   1.267
 8451W        W80067  41.547  32.478   0.864
 8452W        W80068  19.838  44.369   4.331
 8453W        W80069   8.869   7.336  11.199
 8454W        W80070  35.583  36.168   4.008
 8455W        W80071  36.869  35.974   2.891
 8456W        W80072   4.562  14.589   2.246
 8457W        W80073  43.605  27.905   3.688
 8458W        W80074  43.473  35.797   4.227
 8459W        W80075   2.256  16.071  13.313
 8460W        W80076  23.605  10.179  10.613
 8461W        W80077  34.569  40.539  14.244
 8462W        W80078  20.309  39.763   0.020
 8463W        W80079  39.078   6.750  11.540
 8464W        W80080  24.103  12.293  14.259
 8465W        W80081  10.941  17.683   4.205
 8466W        W80082   2.268  38.369   1.798
 8467W        W80083  35.596  42.021  11.850
 8468W        W80084  16.658   7.352   4.551
 8469W        W80085   7.088   7.810  14.233
 8470W        W80086  39.942  38.777   3.511
 8471W        W80087  37.234  12.732   3.883
 8472W        W80088  14.635   0.437  10.410
 8473W        W80089  37.325  43.240   0.521
 8474W        W80090  32.663   8.772   2.304
 8475W        W80091  36.535  29.469  14.811
 8476W        W80092  24.712  16.814  14.781
 8477W        W80093  25.072   0.932   4.543
 8478W        W80094  27.575  20.701  11.548
 8479W        W80095  26.947   1.866  12.499
 8480W        W80096  26.168  39.123  10.113
 8481W        W80097   7.416  31.546  12.067
 8482W        W80098  15.618  18.012  10.243
 8483W        W80099  38.348  21.263  13.386
 8484W        W80100  36.025   2.224  14.980
 8485W        W80101  16.673   9.781   2.393
 8486W        W80102   3.262  17.747   3.314
 8487W        W80103  17.112  29.183   2.814
 8488W        W80104  25.622  13.528   4.604
 8489W        W80105  31.974  27.629   3.744
 8490W        W80106  42.006  30.201   2.984
 8491W        W80107  10.885  37.819  12.349
 8492W        W80108  40.354  14.853  12.172
 8493W        W80109  26.910  24.332   0.393
 8494W        W80110   0.334  20.945  11.009
 8495W        W80111  16.737  36.557  14.819
 8496W        W80112  39.595  39.991  14.204
 8497W        W80113  17.098  44.471   5.112
 8498W        W80114   5.993  28.043   4.654
 8499W        W80115  33.309  44.280  11.204
 8500W        W80116  13.058  18.618  11.887
 8501W        W80117  15.204  22.776   0.429
 8502W        W80118   5.342  24.572  14.361
 8503W        W80119  13.450  33.848   0.221
 8504W        W80120  31.399  10.748   3.147
 8505W        W80121  32.653  15.792   2.329
 8506W        W80122  17.637  41.318   2.350
 8507W        W80123  39.077  15.812  13.199
 8508W        W80124  30.412   7.189   1.943
 8509W        W80125  37.322  30.722  12.261
 8510W        W80126  24.756  39.729   1.649
 8511W        W80127  20.011   0.908   3.470
 8512W        W80128   5.277  43.318   4.361
 8513W        W80129  14.244  35.513   3.608
 8514W        W80130  12.364  21.669   0.848
 8515W        W80131  10.876  25.678  13.924
 8516W        W80132  14.854  18.182   1.836
 8517W        W80133  31.434  32.943  10.727
 8518W        W80134  34.959  25.225   1.866
 8519W        W80135  15.281   4.037  14.936
 8520W        W80136  29.876  20.791   4.271
 8521W        W80137  40.410   5.263  10.807
 8522W        W80138  24.133  14.081   3.641
 8523W        W80139  16.013   9.167   1.344
 8524W        W80140  25.592   2.037  10.945
 8525W        W80141   9.307  27.776  12.314
 8526W        W80142  15.045  23.195  13.017
 8527W        W80143  17.907  43.507   4.145
 8528W        W80144  43.774  38.582   0.535
 8529W        W80145  43.224   1.835  12.637
 8530W        W80146  19.200  19.636   0.744
 8531W        W80147  18.161  34.670  12.713
 8532W        W80148   8.734   5.696   0.477
 8533W        W80149  29.564  40.524   0.931
 8534W        W80150  37.027  19.220  14.972
 8535W        W80151   9.210  42.306   3.280
 8536W        W80152  44.819  23.629  13.717
 8537W        W80153  13.271  31.687   4.119
 8538W        W80154  20.041   6.718  13.765
 8539W        W80155   1.420  22.507   1.438
 8540W        W80156  15.559  24.729  11.986
 8541W        W80157  12.666  28.736  11.662
 8542W        W80158   5.051  10.702   0.218
 8543W        W80159   0.608  31.570   1.781
 8544W        W80160   1.324  44.457  13.887
 8545W        W80161  43.467  22.695  12.840
 8546W        W80162   9.525  17.509  11.655
 8547W        W80163  36.884  44.510  14.404
 8548W        W80164   3.089  21.505  14.464
 8549W        W80165   5.445   4.181   1.640
 8550W        W80166  15.318  28.243   0.901
 8551W        W80167  37.869  43.906  13.964
 8552W        W80168  16.001  39.799   0.952
 8553W        W80169  44.797  11.073  13.527
 8554W        W80170  19.666  18.001  11.525
 8555W        W80171   2.301   5.308   3.348
 8556W        W80172   2.745   3.796   0.153
 8557W        W80173  13.860  24.199  13.875
 8558W        W80174  17.708   8.338  14.459
 8559W        W80175  36.985  31.973  13.357
 8560W        W80176  25.605  39.982   3.388
 8561W        W80177  22.474   7.853  13.343
 8562W        W80178  13.986  39.012  12.560
 8563W        W80179  32.356   3.758  12.613
 8564W        W80180  41.007  39.551  10.569
 8565W        W80181  36.290  37.506   4.668
 8566W        W80182  11.355  26.175  14.380
 8567W        W80183   4.390  25.185   1.132
 8568W        W80184  19.570  24.900   0.729
 8569W        W80185  42.717  29.109  11.598
 8570W        W80186  38.005  15.050  14.287
 8571W        W80187  32.426  32.588   3.386
 8572W        W80188  44.688  31.591  13.378
 8573W        W80189  29.607   6.632   0.880
 8574W        W80190  19.127  31.999  10.849
 8575W        W80191  19.658  42.206  10.243
 8576W        W80192  36.487   0.202   2.456
 8577W        W80193  13.538   2.355   2.591
 8578W        W80194  44.703  24.640  13.501
 8579W        W80195  28.212  20.075  11.911
 8580W        W80196   2.361  31.642   2.735
 8581W        W80197  27.214   8.546   4.473
 8582W        W80198  21.946  27.604  11.628
 8583W        W80199  30.129  15.664  14.906
 8584W        W80200   6.947  15.158  10.414
 8585W        W80201   4.424  24.459   0.389
 8586W        W80202   4.670  25.397   4.941
 8587W        W80203  12.215  39.015   1.272
 8588W        W80204  30.564  39.487  13.789
 8589W        W80205   7.456  17.260  13.928
 8590W        W80206  10.697  41.259  12.652
 8591W        W80207  44.244   1.736   2.170
 8592W        W80208  22.624  31.701   0.929
 8593W        W80209   8.380  21.591  10.716
 8594W        W80210  32.775  34.676   3.252
 8595W        W80211  42.041  38.978  10.167
 8596W        W80212  11.252  29.083  14.945
 8597W        W80213  22.762  31.379   1.405
 8598W        W80214  44.695  44.471  10.553
 8599W        W80215   5.022  44.546  13.941
 8600W        W80216  39.774  27.954  11.718
 8601W        W80217  12.059  28.314  10.436
 8602W        W80218   0.712  34.063   3.642
 8603W        W80219  41.689  27.263   3.612
 8604W        W80220  11.410  41.597   2.753
 8605W        W80221  17.037  33.844  13.782
 8606W        W80222   7.907  10.824  14.213
 8607W        W80223  42.164   6.512   2.290
 8608W        W80224   2.858  16.072  14.917
 8609W        W80225  19.841  20.660   0.128
 8610W        W80226  34.452  28.660  14.321
 8611W        W80227   5.438  31.076  14.734
 8612W        W80228  39.858  19.676  10.893
 8613W        W80229  22.796  36.551   2.281
 8614W        W80230  26.740   2.208   3.777
 8615W        W80231  10.236  10.793  13.052
 8616W        W80232  42.520   1.553   1.464
 8617W        W80233  19.484  26.524   0.242
 8618W        W80234   5.014  33.375   2.811
 8619W        W80235   3.427   7.353  10.677
 8620W        W80236   8.093  31.886  12.537
 8621W        W80237  11.427  43.496  13.109
 8622W        W80238  25.044  20.552   2.794
 8623W        W80239   0.957  23.888   1.243
 8624W        W80240  44.084   3.056   2.652
 8625W        W80241   7.494  41.521  10.797
 8626W        W80242  31.107   8.247   3.226
 8627W        W80243   2.797  26.489   4.020
 8628W        W80244  32.867  30.508  13.556
 8629W        W80245  19.587  11.730   4.623
 8630W        W80246  36.496  30.664  13.518
 8631W        W80247  34.649  16.706   4.354
 8632W        W80248  15.820  23.580  13.051
 8633W        W80249  26.171  39.778   0.503
 8634W        W80250  12.682  13.366  10.412
 8635W        W80251  15.535  12.178   1.426
 8636W        W80252  25.454  30.560  13.834
 8637W        W80253  38.982   1.924   0.947
 8638W        W80254  30.954   7.721  13.383
 8639W        W80255  21.449  26.101  13.486
 8640W        W80256   6.691  11.061  14.957
 8641W        W80257  44.719  30.707  12.114
 8642W        W80258  24.193  39.774  11.407
 8643W        W80259  28.235  22.568   0.192
 8644W        W80260  11.810   0.459  12.021
 8645W        W80261  13.735  13.924   3.889
 8646W        W80262  39.162  35.926  14.673
 8647W        W80263   6.385   6.316   1.454
 8648W        W80264  33.513  19.533  11.553
 8649W        W80265  43.408   1.430   0.366
 8650W        W80266  16.629  16.645  11.621
 8651W        W80267  24.215   8.401  13.519
 8652W        W80268  26.114  34.459   1.731
 8653W        W80269   7.211  42.428   3.600
 8654W        W80270  37.827   9.645   3.130
 8655W        W80271  18.313   5.185   1.712
 8656W        W80272  22.250  44.795   3.318
 8657W        W80273  20.062  30.937   2.877
 8658W        W80274  24.629  32.529  11.458
 8659W        W80275   6.982  15.456   1.447
 8660W        W80276  41.852  18.727  12.101
 8661W        W80277   8.197  19.906  12.539
 8662W        W80278  35.645   6.892   3.734
 8663W        W80279  37.574   6.253   0.020
 8664W        W80280  43.071  14.194  13.472
 8665W        W80281   7.311   1.441   1.187
 8666W        W80282  11.517  13.207   1.436
 8667W        W80283  12.366   3.400  12.132
 8668W        W80284  24.992   2.459  13.560
 8669W        W80285   6.305  41.548   2.931
 8670W        W80286  12.267  38.134  11.481
 8671W        W80287   3.478  29.613   2.685
 8672W        W80288  32.899  16.857  10.609
 8673W        W80289  17.183  29.210  13.091
 8674W        W80290  13.843   8.775   4.622
 8675W        W80291   0.892  17.305   3.676
 8676W        W80292   4.223  13.082  12.982
 8677W        W80293  32.210  32.550  10.799
 8678W        W80294  22.587  38.040   0.016
 8679W        W80295  37.833  37.841  12.573
 8680W        W80296  36.508   2.289  13.914
 8681W        W80297  39.780  29.406  12.918
 8682W        W80298  43.570   2.404  11.498
 8683W        W80299  13.888   3.171   4.505
 8684W        W80300  15.490  30.740  13.495
 8685W        W80301  31.512  24.715   2.102
 8686W        W80302  42.956   9.513   1.196
 8687W        W80303  10.272   8.292   3.674
 8688W        W80304  41.891  28.714   2.830
 8689W        W80305  36.994   2.202   4.913
 8690W        W80306  15.226  41.054   3.990
 8691W        W80307  14.163  33.192   1.857
 8692W        W80308  22.620  15.805   2.439
 8693W        W80309  29.933   0.803  13.182
 8694W        W80310  17.206  26.036   1.572
 8695W        W80311  31.423   2.894   4.982
 8696W        W80312  18.994  17.666   2.507
 8697W        W80313   9.774  33.416   3.945
 8698W        W80314   2.908  28.888   4.015
 8699W        W80315  24.630  34.079  10.709
 8700W        W80316  43.319  10.868  13.371
 8701W        W80317  37.800  31.451  12.123
 8702W        W80318  41.902  34.767   1.382
 8703W        W80319  21.533   7.407   4.643
 8704W        W80320  28.470   4.363  13.910
 8705W        W80321  20.722  27.586   0.813
 8706W        W80322  24.199  31.874  13.842
 8707W        W80323  36.993   2.460  13.863
 8708W        W80324  27.927  18.542   2.138
 8709W        W80325  19.023  31.496  10.837
 8710W        W80326  43.768  10.269  11.635
 8711W        W80327  12.668  39.991   1.345
 8712W        W80328  38.617  12.660  13.067
 8713W        W80329  33.461  34.098   2.973
 8714W        W80330   1.023  42.187  12.352
 8715W        W80331   7.159   8.164   2.298
 8716W        W80332  16.385  18.150  12.330
 8717W        W80333  27.018  43.992   3.108
 8718W        W80334  22.114  29.443   2.674
 8719W        W80335   9.804   9.435   1.684
 8720W        W80336  38.395   2.156  14.953
 8721W        W80337  36.931  13.391   0.242
 8722W        W80338   8.764  13.863  13.935
 8723W        W80339  22.868  41.840   2.956
 8724W        W80340  35.940  39.249   2.901
 8725W        W80341  34.508  42.245  13.896
 8726W        W80342  16.573  12.902  11.050
 8727W        W80343  37.571  11.041   1.261
 8728W        W80344  14.126  17.645   1.787
 8729W        W80345   9.123  23.462   1.059
 8730W        W80346  38.053  33.011  14.453
 8731W        W80347  42.768   2.764  13.494
 8732W        W80348  19.351   4.832  10.991
 8733W        W80349   3.803  17.570   2.295
 8734W        W80350  13.236  31.378   0.374
 8735W        W80351  28.626  12.263  10.732
 8736W        W80352  14.208   2.518   5.098
 8737W        W80353   0.890  37.040   1.735
 8738W        W80354  17.802  44.825  11.571
 8739W        W80355  32.183  21.202   2.388
 8740W        W80356   2.120  15.543  12.495
 8741W        W80357  44.996  41.281   2.318
 8742W        W80358  25.386  37.322   4.048
 8743W        W80359  25.143  33.652   1.895
 8744W        W80360  20.955  21.567  11.288
 8745W        W80361   0.679   0.824  11.063
 8746W        W80362  12.108  40.875  11.614
 8747W        W80363  21.514  28.157  13.787
 8748W        W80364  21.433   6.766   2.185
 8749W        W80365  23.996  11.925  10.801
 8750W        W80366   1.252   3.284  14.938
 8751W        W80367  44.468  25.414   0.911
 8752W        W80368  21.711  17.262   3.851
 8753W        W80369  33.058   7.536   3.219
 8754W        W80370   1.224   3.491  11.929
 8755W        W80371  38.049   8.020  12.271
 8756W        W80372   0.945  28.589  13.295
 8757W        W80373  16.178  18.797  10.232
 8758W        W80374  14.968   8.683   3.719
 8759W        W80375  16.256  37.048  14.472
 8760W        W80376   8.639   2.817   3.144
 8761W        W80377  41.360  20.762  12.430
 8762W        W80378  39.974  37.002  12.791
 8763W        W80379  44.408  42.443   1.213
 8764W        W80380  11.375  41.862  11.117
 8765W        W80381  41.838   3.749   1.709
 8766W        W80382  17.259  38.095  11.683
 8767W        W80383  16.577  19.279  14.430
 8768W        W80384  35.512  23.825  11.290
 8769W        W80385   4.383  39.343  10.471
 8770W        W80386   9.749  36.665   0.864
 8771W        W80387  23.725   5.834  14.440
 8772W        W80388  27.282  35.894  11.096
 8773W        W80389  42.913  25.724  12.805
 8774W        W80390  31.612  35.322  14.956
 8775W        W80391  23.045  11.233   0.032
 8776W        W80392  11.187  15.631  13.522
 8777W        W80393  19.323  33.443   2.378
 8778W        W80394  42.274  28.012   0.272
 8779W        W80395  18.850  10.255  12.778
 8780W        W80396  34.019  28.568   2.150
 8781W        W80397  16.785  43.412   0.750
 8782W        W80398   4.794  20.252  11.534
 8783W        W80399  11.531  39.008  13.797
 8784W        W80400  37.164  31.692   1.284
 8785W        W80401  32.161  28.584   0.009
 8786W        W80402  28.553  13.117   0.820
 8787W        W80403  36.228  33.998   0.452
 8788W        W80404  13.882  29.445   2.440
 8789W        W80405  32.067  33.177  11.892
 8790W        W80406  19.604  18.507  14.873
 8791W        W80407   7.274  39.555  10.627
 8792W        W80408  28.515  22.688  14.012
 8793W        W80409  20.632  15.604  12.449
 8794W        W80410   4.735   8.832   2.375
 8795W        W80411   7.243  43.792   1.393
 8796W        W80412   2.094   3.315  12.134
 8797W        W80413  20.179  40.079   3.705
 8798W        W80414  43.066   5.378   3.880
 8799W        W80415  10.162  20.525   2.373
 8800W        W80416  36.015  36.569   3.285
 8801W        W80417  25.538   5.930  11.025
 8802W        W80418  29.524  44.267  10.524
 8803W        W80419  25.621  36.095  13.582
 8804W        W80420   0.483  18.686  14.362
 8805W        W80421  17.583  41.742   4.679
 8806W        W80422   9.347   5.407   4.225
 8807W        W80423  10.268   1.387  10.162
 8808W        W80424   5.723  30.612  10.599
 8809W        W80425  43.246   3.850   0.785
 8810W        W80426  12.380  17.814  10.668
 8811W        W80427  17.293  43.502  13.978
 8812W        W80428  38.913  39.582  11.643
 8813W        W80429  11.938  39.427   4.738
 8814W        W80430  13.897   7.330   1.885
 8815W        W80431  32.854  18.800   3.864
 8816W        W80432  35.911  36.081   3.335
 8817W        W80433  14.845  16.863   1.003
 8818W        W80434  40.914  12.230   1.868
 8819W        W80435  10.910  21.548   3.844
 8820W        W80436  18.633  42.873   0.817
 8821W        W80437  22.751  13.329   3.709
 8822W        W80438   7.936  20.058   1.399
 8823W        W80439  29.394  40.314   1.389
 8824W        W80440  10.598  20.781   2.325
 8825W        W80441  14.883   0.353   3.704
 8826W        W80442   6.201  24.532  13.301
 8827W        W80443  31.205  30.135   5.024
 8828W        W80444  21.615  37.813   0.890
 8829W        W80445  43.614  38.062   1.964
 8830W        W80446   7.361  39.486  14.047
 8831W        W80447  19.682  18.984   1.903
 8832W        W80448  26.261  20.670  14.520
 8833W        W80449   2.865  21.767   3.783
 8834W        W80450  44.041  34.609   2.167
 8835W        W80451  21.416  40.034  13.879
 8836W        W80452  29.469  41.377  14.566
 8837W        W80453  14.757  22.281  14.810
 8838W        W80454  34.248  16.483  13.487
 8839W        W80455  36.073  37.388  14.044
 8840W        W80456  42.176  43.992   2.180
 8841W        W80457  21.107  26.223  13.845
 8842W        W80458  44.257   4.175   2.836
 8843W        W80459  37.530   5.744  10.636
 8844W        W80460   2.285  40.457   0.798
 8845W        W80461   2.613  43.355   1.352
 8846W        W80462  19.919  32.011   2.854
 8847W        W80463  10.819  29.022  11.659
 8848W        W80464   9.531  24.766   3.604
 8849W        W80465  21.953  29.927  12.966
 8850W        W80466  18.870  27.885   3.330
 8851W        W80467  39.897  31.465  11.867
 8852W        W80468  19.255  22.096   0.098
 8853W        W80469  28.160  19.763   2.346
 8854W        W80470   8.591  29.509   4.535
 8855W        W80471  37.145  41.281  11.086
 8856W        W80472  30.459  19.826  11.130
 8857W        W80473  30.398  25.983  12.611
 8858W        W80474  42.740  22.909  10.923
 8859W        W80475   4.425  21.172  14.604
 8860W        W80476  10.394  17.144   5.168
 8861W        W80477   6.309  30.619  12.831
 8862W        W80478  39.027  15.328  13.445
 8863W        W80479  27.261  18.666   1.384
 8864W        W80480  43.850  28.019   3.230
 8865W        W80481  14.570  19.131   4.585
 8866W        W80482   8.075   9.101   3.536
 8867W        W80483  18.774   7.705  10.687
 8868W        W80484  31.057  21.312  14.440
 8869W        W80485  25.917  10.374   3.619
 8870W        W80486  13.474  12.010  13.536
 8871W        W80487   5.682   6.739   3.584
 8872W        W80488  30.150   4.358   1.689
 8873W        W80489  13.633  10.285   2.601
 8874W        W80490   0.534   4.447  13.830
 8875W        W80491  42.360   3.941  11.148
 8876W        W80492  32.750  42.021  14.681
 8877W        W80493  19.674   2.997   1.895
 8878W        W80494  16.702  22.736  11.858
 8879W        W80495  37.972   5.877   1.724
 8880W        W80496   0.094  30.804   4.452
 8881W        W80497  21.027   2.742   2.243
 8882W        W80498  20.245   3.923  13.047
 8883W        W80499  12.318  38.973  11.416
 8884W        W80500  39.854  23.662   0.791
 8885W        W80501  36.114  43.071  14.791
 8886W        W80502  20.631  19.007  12.418
 8887W        W80503  25.773  23.243   0.450
 8888W        W80504  43.940   0.269  14.370
 8889W        W80505  10.374  32.328   3.281
 8890W        W80506   4.956  32.952   0.597
 8891W        W80507  30.353  33.821  14.417
 8892W        W80508  33.623  37.847   4.555
 8893W        W80509   3.245   2.822   0.835
 8894W        W80510  13.587  41.362  11.116
 8895W        W80511   4.015  16.317  13.572
 8896W        W80512  24.587  29.708  13.346
 8897W        W80513  16.594  31.526   4.828
 8898W        W80514  31.885  32.905   0.027
 8899W        W80515  25.032  17.560  11.224
 8900W        W80516  25.790  22.214  14.396
 8901W        W80517   2.785  35.897   2.410
 8902W        W80518  18.824  27.486   1.980
 8903W        W80519  33.532  31.094   3.533
 8904W        W80520  27.786  24.885  11.078
 8905W        W80521   4.221  30.893   4.123
 8906W        W80522  43.015   3.128   1.178
 8907W        W80523   8.083  27.899   4.641
 8908W        W80524  13.798  30.125  13.792
 8909W        W80525  19.975  16.792  13.048
 8910W        W80526  31.714  41.977   0.033
 8911W        W80527   1.823  28.111   4.700
 8912W        W80528  20.743  35.913   3.682
 8913W        W80529  15.214  17.844  11.380
 8914W        W80530  21.015  30.460   3.802
 8915W        W80531  15.555  39.107  13.334
 8916W        W80532  40.573  13.697  13.906
 8917W        W80533  36.735  12.736   2.079
 8918W        W80534  31.378  31.291   3.679
 8919W        W80535  10.106  42.278   4.137
 8920W        W80536  13.458  15.195  11.131
 8921W        W80537  39.881  35.291   2.338
 8922W        W80538   1.031  24.032  13.872
 8923W        W80539   4.402  10.254  14.276
 8924W        W80540  40.654   3.746  14.612
 8925W        W80541  22.262  34.511   4.294
 8926W        W80542  27.745  19.247  11.574
 8927W        W80543   5.997  10.768  11.113
 8928W        W80544   0.366   7.421   1.446
 8929W        W80545  16.345  39.348  12.443
 8930W        W80546   5.840  19.765   0.401
 8931W        W80547   4.635  21.234  14.125
 8932W        W80548  41.277  44.449   3.299
 8933W        W80549  40.693  16.076  11.921
 8934W        W80550  11.441   9.811  10.562
 8935W        W80551   2.403  42.304   1.379
 8936W        W80552  25.606  36.139   1.304
 8937W        W80553  16.357  25.906   2.140
 8938W        W80554  26.564   9.330  14.024
 8939W        W80555  35.106  21.122  11.106
 8940W        W80556  30.164  33.867   1.230
 8941W        W80557  29.108  26.631  13.588
 8942W        W80558  12.360  39.297  12.208
 8943W        W80559  13.609  20.575   1.296
 8944W        W80560  18.847  25.583  13.469
 8945W        W80561  28.976  44.028  12.091
 8946W        W80562  39.764  22.250   4.928
 8947W        W80563  26.895  44.783   0.987
 8948W        W80564  37.054  12.586  11.215
 8949W        W80565  37.169  36.599  13.047
 8950W        W80566  27.178   7.606  13.911
 8951W        W80567  37.565  30.216   3.807
 8952W        W80568   9.319  11.106   0.826
 8953W        W80569  16.829  38.871   3.334
 8954W        W80570  19.963  44.250   2.705
 8955W        W80571  26.501  41.851   0.290
 8956W        W80572  24.681  30.617  12.277
 8957W        W80573  21.182  26.361   2.844
 8958W        W80574  38.811   1.083  11.647
 8959W        W80575   0.915  12.500   1.682
 8960W        W80576  34.953  44.872   1.265
 8961W        W80577   5.620  13.286   1.776
 8962W        W80578  13.006  15.219  12.815
 8963W        W80579  36.548   7.873   1.499
 8964W        W80580  14.770  44.722  13.160
 8965W        W80581   6.778  43.419   2.688
 8966W        W80582  40.349  23.675  14.905
 8967W        W80583  21.767  38.331   0.907
 8968W        W80584  29.003  32.425  12.191
 8969W        W80585  43.001   0.387  10.705
 8970W        W80586  11.853  24.734  14.130
 8971W        W80587  16.000  27.146  11.270
 8972W        W80588  21.129  43.534   2.666
 8973W        W80589  28.473   8.824  12.750
 8974W        W80590  37.438  10.724   3.730
 8975W        W80591  23.545   9.703   4.129
 8976W        W80592  40.508   7.978  12.087
 8977W        W80593  33.048  44.683  12.748
 8978W        W80594  34.223  32.029  13.344
 8979W        W80595   9.310  14.256   4.099
 8980W        W80596  39.818  20.057   2.180
 8981W        W80597  34.318  31.907   5.055
 8982W        W80598  24.248  23.521  11.615
 8983W        W80599  42.442  10.164   4.143
 8984W        W80600  43.844   9.380  14.513
 8985W        W80601   0.019  17.295  13.968
 8986W        W80602  29.642  13.261  13.799
 8987W        W80603  17.175  27.725   0.695
 8988W        W80604   4.000  11.859   3.678
 8989W        W80605  18.515  39.080   0.758
 8990W        W80606  12.098  41.260   4.602
 8991W        W80607  22.332  10.942   0.859
 8992W        W80608   1.327  41.447  13.795
 8993W        W80609  23.482  20.554  14.952
 8994W        W80610  32.729  35.834  13.312
 8995W        W80611  43.319  29.701  11.948
 8996W        W80612  38.847  37.498   2.944
 8997W        W80613  27.007   5.874  12.430
 8998W        W80614  11.928  14.529  10.736
 8999W        W80615   7.554  27.736  10.410
 9000W        W80616  24.552   4.782  12.017
 9001W        W80617  12.384  18.236  14.486
 9002W        W80618  43.897  36.559  14.355
 9003W        W80619  29.733  20.270   2.706
 9004W        W80620  25.952  28.352  12.598
 9005W        W80621   1.839   6.493  12.055
 9006W        W80622  22.133  11.180   3.622
 9007W        W80623   5.188  19.178  12.023
 9008W        W80624  20.615   3.425  12.550
 9009W        W80625  13.088  10.633   2.253
 9010W        W80626  20.714   4.146   1.412
 9011W        W80627   7.292  17.577   4.601
 9012W        W80628  16.756  28.416  14.080
 9013W        W80629  23.187  11.270   0.538
 9014W        W80630  44.915  14.552  12.500
 9015W        W80631  37.076  24.876   4.622
 9016W        W80632  10.987  24.782  12.015
 9017W        W80633  30.830  33.475  14.457
 9018W        W80634  41.887  19.583  13.431
 9019W        W80635  13.879  11.295   1.041
 9020W        W80636   2.430  34.726  11.774
 9021W        W80637  17.156  25.594   4.821
 9022W        W80638  15.184   2.092   3.038
 9023W        W80639  40.834  29.459  13.802
 9024W        W80640  23.700  23.977  10.423
 9025W        W80641  16.549   3.783   4.598
 9026W        W80642  20.499  21.725   1.895
 9027W        W80643  15.297  26.367   3.032
 9028W        W80644  28.433   5.421   4.444
 9029W        W80645  44.209  43.701  13.135
 9030W        W80646  12.839  14.936   4.185
 9031W        W80647   0.822   3.863   1.797
 9032W        W80648  24.521   3.462  13.404
 9033W        W80649  37.515  40.374   4.483
 9034W        W80650  13.252  31.898   3.297
 9035W        W80651  14.041  11.855  14.887
 9036W        W80652  20.148  18.056   0.028
 9037W        W80653  20.334   1.051  12.964
 9038W        W80654  18.231  10.315   1.738
 9039W        W80655  10.085  21.167   3.672
 9040W        W80656  39.487  22.436  12.396
 9041W        W80657  22.537  19.529  11.664
 9042W        W80658  28.550  24.504  10.649
 9043W        W80659  38.553  41.274  11.075
 9044W        W80660  37.565  23.670   0.461
 9045W        W80661  16.410  13.928   1.697
 9046W        W80662  25.809  10.156   1.723
 9047W        W80663  44.763   2.866   3.838
 9048W        W80664  30.355  23.328   3.772
 9049W        W80665  18.363  35.202  14.724
 9050W        W80666  20.957  15.709   0.706
 9051W        W80667  11.395   1.715  10.999
 9052W        W80668  42.282   4.222   3.451
 9053W        W80669   2.674   5.494   1.862
 9054W        W80670  32.713  19.251  14.862
 9055W        W80671  26.272  44.007  11.123
 9056W        W80672   1.403  40.922  12.080
 9057W        W80673  40.573  18.216   1.670
 9058W        W80674   8.911  11.603  11.989
 9059W        W80675  21.472  20.144   3.258
 9060W        W80676  18.538  32.516  12.003
 9061W        W80677  42.020  32.638  12.976
 9062W        W80678   2.180  15.653  11.585
 9063W        W80679  15.465  42.571   4.020
 9064W        W80680  20.585  29.916   0.384
 9065W        W80681  33.059   1.968   1.328
 9066W        W80682  23.759  16.546  14.630
 9067W        W80683  32.545  32.473  11.649
 9068W        W80684  12.325  14.718  11.032
 9069W        W80685  16.127  17.064  11.096
 9070W        W80686  27.042  34.458  10.737
 9071W        W80687  35.479  18.279   3.139
 9072W        W80688   5.779  28.074  10.984
 9073W        W80689  21.670  24.059   1.733
 9074W        W80690  25.220   2.176  11.789
 9075W        W80691  32.991  41.935   1.701
 9076W        W80692   0.396  44.250   4.932
 9077W        W80693  28.420  40.504   0.505
 9078W        W80694  38.147  12.208  13.735
 9079W        W80695  23.610   7.191  14.094
 9080W        W80696   9.092  29.934  13.996
 9081W        W80697  44.552  34.229  14.755
 9082W        W80698  35.357  13.035  13.910
 9083W        W80699  39.329  10.355  13.801
 9084W        W80700   9.416  23.942  13.736
 9085W        W80701  34.798  37.127   1.353
 9086W        W80702  28.855  30.506   0.310
 9087W        W80703  24.171  24.271   4.057
 9088W        W80704  24.033   6.637  11.910
 9089W        W80705  43.860  24.519  11.619
 9090W        W80706  13.732  29.846  11.502
 9091W        W80707   5.467  22.993   2.292
 9092W        W80708  44.244  30.373  12.223
 9093W        W80709  41.071  10.765  13.030
 9094W        W80710  27.059  36.337   1.839
 9095W        W80711  36.018   4.826   4.307
 9096W        W80712  24.651  17.627  11.882
 9097W        W80713  44.887  10.140   4.728
 9098W        W80714   3.911  36.872   2.440
 9099W        W80715   9.766  35.883   2.877
 9100W        W80716  16.559  10.994   0.305
 9101W        W80717   7.875  31.636   4.439
 9102W        W80718  29.603  11.908   2.701
 9103W        W80719   0.871   9.342  12.926
 9104W        W80720  36.040  44.063  12.437
 9105W        W80721  20.483  27.567  12.024
 9106W        W80722  16.473  11.676  13.845
 9107W        W80723  15.365   6.328  11.849
 9108W        W80724  29.507  15.650  11.455
 9109W        W80725  26.110  42.069  11.198
 9110W        W80726  35.289  44.249   4.171
 9111W        W80727  17.555  43.147  14.224
 9112W        W80728  30.497  12.024   1.828
 9113W        W80729  20.672  11.907  14.520
 9114W        W80730  16.620  11.573  10.342
 9115W        W80731  12.774  33.367  12.042
 9116W        W80732  35.571   0.260   0.897
 9117W        W80733  24.065   8.899   0.401
 9118W        W80734  38.349  41.786  14.705
 9119W        W80735  42.365  37.819  12.427
 9120W        W80736  21.136  21.179  10.742
 9121W        W80737   1.313  33.943   4.846
 9122W        W80738  44.780  34.495   2.778
 9123W        W80739  11.221  29.946  14.103
 9124W        W80740  40.301  33.291  10.633
 9125W        W80741  11.797  19.811  11.709
 9126W        W80742   7.765  18.697  13.118
 9127W        W80743   6.713  29.764   1.206
 9128W        W80744   4.886   2.400  13.463
 9129W        W80745   3.045  21.334   4.735
 9130W        W80746   2.432  42.305   2.329
 9131W        W80747  44.055   5.941   3.104
 9132W        W80748   4.859  38.105   0.295
 9133W        W80749   9.440   4.812  12.469
 9134W        W80750  19.813  41.895   2.755
 9135W        W80751  38.727  28.684  11.085
 9136W        W80752   7.101  29.586  10.794
 9137W        W80753  16.744  13.128  13.791
 9138W        W80754  40.339  38.571  12.879
 9139W        W80755   1.267  15.852   1.939
 9140W        W80756   7.881   4.033  12.320
 9141W        W80757  36.585   5.660  14.913
 9142W        W80758  17.657  16.534  12.904
 9143W        W80759  11.082  36.642   1.802
 9144W        W80760  16.782  21.053  10.676
 9145W        W80761  36.406   1.570  13.411
 9146W        W80762  44.148   5.401   3.137
 9147W        W80763  28.887   2.555  11.093
 9148W        W80764  24.581  12.774  10.736
 9149W        W80765  28.158  16.562   3.326
 9150W        W80766   9.425  32.166  11.537
 9151W        W80767  30.596  26.292   0.861
 9152W        W80768  21.440   8.606  12.879
 9153W        W80769  40.788  24.617  14.893
 9154W        W80770  22.235  22.663   4.607
 9155W        W80771  23.682  44.751   2.753
 9156W        W80772  42.839  44.679  11.367
 9157W        W80773   1.321  19.589  14.822
 9158W        W80774   5.819  34.953   0.514
 9159W        W80775   0.103  41.145   4.617
 9160W        W80776  10.782   4.600  12.784
 9161W        W80777  32.004  32.433  14.187
 9162W        W80778   7.264   6.014   2.356
 9163W        W80779  31.494  13.199  13.701
 9164W        W80780  35.027  35.374   0.432
 9165W        W80781  19.008  10.630  14.427
 9166W        W80782  32.932  18.196  14.824
 9167W        W80783  12.067  20.122   4.525
 9168W        W80784  22.444  17.512  13.414
 9169W        W80785  36.460  38.265  11.993
 9170W        W80786  14.683  25.439  14.217
 9171W        W80787   5.885  13.161   1.297
 9172W        W80788   5.309  43.385  11.844
 9173W        W80789  30.858   5.352   4.193
 9174W        W80790   7.814  39.421  12.632
 9175W        W80791  26.935  26.177  14.775
 9176W        W80792  10.747   5.394   4.889
 9177W        W80793  17.227  12.729  11.669
 9178W        W80794   7.785   0.789   1.797
 9179W        W80795   2.322  21.845  12.016
 9180W        W80796  22.282  21.121   3.762
 9181W        W80797  36.821  40.439  12.076
 9182W        W80798  17.124  43.292   4.410
 9183W        W80799  13.087  13.496  11.331
 9184W        W80800  20.170  26.054   4.347
 9185W        W80801  17.465  12.635  14.271
 9186W        W80802  31.575  44.708   2.352
 9187W        W80803  42.369   7.992   0.471
 9188W        W80804  17.344   7.998  14.303
 9189W        W80805  41.843  36.156   4.996
 9190W        W80806  40.287  26.274   4.082
 9191W        W80807   3.006  42.450   3.557
 9192W        W80808   3.706  11.736  10.173
 9193W        W80809  33.944  28.108   2.415
 9194W        W80810  27.158  16.567  11.618
 9195W        W80811  24.934  27.450   2.822
 9196W        W80812   6.340  22.227   4.759
 9197W        W80813  23.758  11.240  13.755
 9198W        W80814   1.255  11.364  12.063
 9199W        W80815   3.243  29.658  13.080
 9200W        W80816  43.191  24.703   3.338
 9201W        W80817  35.390  28.972  14.770
 9202W        W80818   6.802  11.260  11.607
 9203W        W80819  28.669  36.989  11.519
 9204W        W80820   9.177  27.681  10.662
 9205W        W80821   7.683  14.263   1.768
 9206W        W80822  17.526  30.238   1.367
 9207W        W80823  31.335   1.221  12.912
 9208W        W80824  39.692  15.174  11.140
 9209W        W80825  41.410  26.958   0.773
 9210W        W80826   6.803   8.271  12.926
 9211W        W80827  13.375  28.074   2.402
 9212W        W80828   1.497  32.643   4.206
 9213W        W80829  33.031  10.123   0.791
 9214W        W80830   6.564   7.800  12.227
 9215W        W80831   4.328  24.054   3.241
 9216W        W80832  17.632  38.929  12.817
 9217W        W80833  44.914  42.531  11.849
 9218W        W80834  37.812   7.418  14.517
 9219W        W80835  42.771  15.629  10.758
 9220W        W80836  23.057  38.917   1.816
 9221W        W80837   8.797  26.425   4.306
 9222W        W80838  13.989  22.586   4.400
 9223W        W80839  14.185   1.948   2.223
 9224W        W80840   1.751   9.003   2.007
 9225W        W80841  25.123  33.937   0.296
 9226W        W80842   6.836  32.896  10.471
 9227W        W80843  33.054   1.883  10.160
 9228W        W80844   4.744   1.069  14.874
 9229W        W80845   6.712  30.390  12.630
 9230W        W80846  20.079  14.306  10.621
 9231W        W80847   8.606  44.206  13.332
 9232W        W80848  40.511  26.457   4.500
 9233W        W80849  27.984   3.313  13.963
 9234W        W80850   2.875   7.589   4.693
 9235W        W80851   2.369  41.017   3.644
 9236W        W80852   0.555   0.628   2.257
 9237W        W80853  41.319  38.519  10.643
 9238W        W80854  11.741  38.276   0.920
 9239W        W80855  11.645  13.281   0.035
 9240W        W80856  23.055  26.214   3.221
 9241W        W80857   6.403  13.460   4.156
 9242W        W80858  12.650  41.831  10.688
 9243W        W80859   9.896  31.981  13.869
 9244W        W80860  16.316   6.259   5.030
 9245W        W80861  17.622  27.565  11.876
 9246W        W80862  31.313  30.898  14.302
 9247W        W80863  38.579  39.899   1.393
 9248W        W80864  16.689  29.721   2.317
 9249W        W80865  40.614   4.687   4.601
 9250W        W80866  13.802  21.124   4.937
 9251W        W80867  39.941  41.305  12.189
 9252W        W80868  38.328   3.711  12.499
 9253W        W80869   9.563  35.185  10.858
 9254W        W80870  20.194  36.399   5.049
 9255W        W80871  18.693  30.466  12.257
 9256W        W80872  16.222  30.092   4.408
 9257W        W80873  42.974   3.660   1.276
 9258W        W80874  30.385  14.220   4.231
 9259W        W80875  37.016  30.126   1.311
 9260W        W80876  15.174  11.914   1.749
 9261W        W80877  21.035  27.143  10.988
 9262W        W80878  28.456  38.681  13.532
 9263W        W80879  42.826  27.211   0.780
 9264W        W80880  33.122  16.485   3.128
 9265W        W80881  21.906  44.084  12.037
 9266W        W80882  11.824  29.486   0.707
 9267W        W80883  14.134  37.461  12.080
 9268W        W80884  39.525  38.114   2.756
 9269W        W80885  22.888   8.884  10.571
 9270W        W80886  43.888  34.062  13.598
 9271W        W80887  12.891  20.095   4.233
 9272W        W80888   8.298  19.137   4.550
 9273W        W80889  11.897   7.458  13.983
 9274W        W80890  31.513  10.057  14.153
 9275W        W80891  32.223  40.696   1.016
 9276W        W80892  10.761  33.964   0.382
 9277W        W80893   5.822   7.339  11.313
 9278W        W80894  43.132  35.348  14.629
 9279W        W80895  20.597   3.948   3.190
 9280W        W80896  23.650  10.565   4.688
 9281W        W80897   1.595  38.010   4.342
 9282W        W80898   8.979  13.278  12.142
 9283W        W80899  20.773  13.695  13.321
 9284W        W80900  44.249  15.855  13.044
 9285W        W80901  44.374  13.114  14.396
 9286W        W80902   8.691  41.048   2.710
 9287W        W80903  20.680  25.490   2.189
 9288W        W80904  40.199  12.850   4.550
 9289W        W80905   5.568   0.838  13.542
 9290W        W80906  36.384  10.431   0.862
 9291W        W80907  27.042  39.826  14.431
 9292W        W80908  44.576  41.469  13.129
 9293W        W80909  21.220  31.062  12.865
 9294W        W80910  15.767  38.537  14.418
 9295W        W80911  38.916  31.260  11.415
 9296W        W80912  22.117  22.783  14.298
 9297W        W80913  23.793   1.869  10.346
 9298W        W80914  30.933  30.580  11.504
 9299W        W80915  32.858   4.217   1.401
 9300W        W80916  23.437  38.215  13.975
 9301W        W80917  11.077  33.974   3.575
 9302W        W80918  10.700  19.784   1.458
 9303W        W80919  10.684  18.297  11.636
 9304W        W80920   4.052   6.437  14.569
 9305W        W80921  23.060  29.052   4.424
 9306W        W80922  11.311  32.134   1.308
 9307W        W80923  20.468  10.494  14.461
 9308W        W80924  22.809  21.861  10.679
 9309W        W80925   5.576  43.606   2.262
 9310W        W80926  36.447   7.199   1.871
 9311W        W80927   3.710  24.522   4.192
 9312W        W80928  22.210  17.046   0.426
 9313W        W80929  14.386  12.538  10.817
 9314W        W80930  22.840  36.297  10.620
 9315W        W80931   4.762  37.404   1.968
 9316W        W80932  18.049   6.186  13.296
 9317W        W80933  40.617   8.357   0.942
 9318W        W80934  14.084   7.620  11.339
 9319W        W80935  19.536  41.016  12.451
 9320W        W80936  31.940  43.949  13.718
 9321W        W80937   8.791  42.537  11.501
 9322W        W80938  35.975  22.126   0.209
 9323W        W80939  21.717  18.594   3.609
 9324W        W80940  35.962   4.283   0.745
 9325W        W80941   4.833  35.788   2.727
 9326W        W80942  19.590  27.164   2.891
 9327W        W80943  43.490  29.443   2.732
 9328W        W80944   2.683   2.885   4.819
 9329W        W80945  20.742  31.107  12.622
 9330W        W80946  21.264  35.014   1.333
 9331W        W80947  28.184  19.154   1.316
 9332W        W80948   7.711  29.614  13.922
 9333W        W80949  21.356   9.878   1.061
 9334W        W80950  29.650   1.695  14.820
 9335W        W80951  43.812  12.928   2.340
 9336W        W80952  16.769  36.494   2.153
 9337W        W80953  12.278   0.032   4.263
 9338W        W80954  41.248   3.516  13.633
 9339W        W80955  30.918  34.983   5.035
 9340W        W80956   5.253  13.306   3.899
 9341W        W80957   7.867  26.117   1.340
 9342W        W80958  14.821  15.743  14.905
 9343W        W80959   6.781   7.509   2.961
 9344W        W80960  19.265  42.484   9.948
 9345W        W80961  26.927  23.223   4.595
 9346W        W80962  13.574  29.896   4.155
 9347W        W80963  14.264  29.953  11.494
 9348W        W80964  38.442  26.184   4.117
 9349W        W80965  30.847  29.388  14.353
 9350W        W80966  32.432  21.787   3.646
 9351W        W80967  34.309   6.958   3.187
 9352W        W80968   0.477  38.496   1.423
 9353W        W80969  31.582  42.304   3.573
 9354W        W80970  26.546  15.283   3.412
 9355W        W80971  18.810  26.718   2.914
 9356W        W80972  41.609  24.134  11.455
 9357W        W80973  37.250   8.105   3.693
 9358W        W80974   1.355  30.189   0.988
 9359W        W80975  32.751  37.361   2.926
 9360W        W80976  26.631  44.690  13.392
 9361W        W80977  13.196   7.336   3.635
 9362W        W80978  27.915  42.928   2.847
 9363W        W80979  41.453  20.336  10.726
 9364W        W80980  35.137   6.990   0.736
 9365W        W80981  43.848   7.124   2.737
 9366W        W80982  40.492  32.259   4.992
 9367W        W80983  20.067  10.326  12.858
 9368W        W80984   4.767   0.098   5.474
 9369W        W80985  28.421  37.876  13.471
 9370W        W80986   1.970  34.931   3.008
 9371W        W80987   6.847  33.313  14.395
 9372W        W80988  12.280  12.791   3.601
 9373W        W80989   3.260  16.668   1.928
 9374W        W80990  41.391  38.781   0.178
 9375W        W80991   4.780   8.412  14.483
 9376W        W80992  44.469  33.405   2.441
 9377W        W80993  26.133   9.887  12.422
 9378W        W80994  30.485  17.992  14.138
 9379W        W80995   6.742  36.804   3.694
 9380W        W80996  12.682  30.065  12.960
 9381W        W80997  28.648  37.005   4.681
 9382W        W80998  19.692  38.804   5.162
 9383W        W80999  25.481   7.601   0.338
 9384W        W81000  43.284   4.218   1.509
 9385W        W81001  14.262  18.271   0.371
 9386W        W81002  31.870  41.929  13.314
 9387W        W81003  17.696   4.872   0.242
 9388W        W81004  41.224  36.065   0.336
 9389W        W81005   9.263   0.874   2.160
 9390W        W81006  24.098  18.013  10.863
 9391W        W81007  13.342  22.286   0.894
 9392W        W81008  39.195   4.186   2.658
 9393W        W81009   5.017   2.963   1.312
 9394W        W81010  12.400  10.707  13.790
 9395W        W81011  16.974  35.870  13.002
 9396W        W81012   1.449  18.305  13.506
 9397W        W81013  29.960  42.758   1.856
 9398W        W81014  42.127  34.065   3.370
 9399W        W81015   0.991  13.731   1.190
 9400W        W81016  41.974  12.477   2.222
 9401W        W81017  39.461  25.058  13.798
 9402W        W81018  39.950  22.498  11.084
 9403W        W81019  38.068  36.995  12.736
 9404W        W81020  11.221  41.419  11.897
 9405W        W81021   6.592  18.021  12.099
 9406W        W81022  18.159  24.703   0.217
 9407W        W81023  29.565  10.556   2.384
 9408W        W81024  25.403  28.721   0.774
 9409W        W81025  27.743   2.555   1.967
 9410W        W81026  26.584  30.650   0.220
 9411W        W81027  43.068  10.647  13.814
 9412W        W81028  14.098  22.271   2.217
 9413W        W81029  27.103  42.555   4.250
 9414W        W81030  44.330  17.968  11.639
 9415W        W81031  15.707   3.272  14.276
 9416W        W81032  39.091  25.146  11.247
 9417W        W81033  28.740  23.246  12.460
 9418W        W81034  12.807  40.954   3.675
 9419W        W81035   6.621   6.857   3.159
 9420W        W81036  44.303  21.046   2.584
 9421W        W81037  27.029  37.572   1.927
 9422W        W81038  36.447  25.211  11.363
 9423W        W81039  22.165  28.630   3.123
 9424W        W81040  35.124  39.615   1.842
 9425W        W81041  31.576  16.770  11.034
 9426W        W81042   6.794  17.076   2.652
 9427W        W81043  17.347  33.729  13.398
 9428W        W81044  44.825  19.783  13.001
 9429W        W81045   4.980  29.731  13.556
 9430W        W81046  31.961  19.511   2.216
 9431W        W81047  30.618  34.597  10.791
 9432W        W81048  14.103  28.624   2.222
 9433W        W81049  22.706  14.916   0.684
 9434W        W81050  11.637  25.224   0.914
 9435W        W81051  40.607  36.118  11.521
 9436W        W81052  19.139  41.256   3.693
 9437W        W81053  23.496   0.282   2.029
 9438W        W81054  35.896  40.486  14.200
 9439W        W81055  44.870  14.611   3.757
 9440W        W81056  33.864  35.035  12.394
 9441W        W81057  35.321  34.465   0.982
 9442W        W81058  31.818  36.326  11.669
 9443W        W81059  21.719   6.609   3.281
 9444W        W81060  40.287  40.374  12.484
 9445W        W81061  10.748  16.556  14.855
 9446W        W81062  43.772  40.366   0.518
 9447W        W81063  17.907  33.604  14.100
 9448W        W81064  39.969  41.864   4.448
 9449W        W81065  19.260  10.095   0.296
 9450W        W81066   3.634  29.928  11.143
 9451W        W81067  27.680  18.680  10.618
 9452W        W81068  19.961  12.963   0.825
 9453W        W81069   8.799  43.576  12.876
 9454W        W81070  11.653  12.111   3.208
 9455W        W81071  29.654   3.455   1.235
 9456W        W81072  25.530  10.577   4.504
 9457W        W81073  10.320   1.357  12.278
 9458W        W81074   7.717   8.680   3.660
 9459W        W81075   9.819   4.400   1.378
 9460W        W81076  43.823  35.912  10.151
 9461W        W81077  24.848  13.626  12.798
 9462W        W81078   9.948  32.151   3.567
 9463W        W81079  15.049  35.458   3.275
 9464W        W81080  33.701  10.085  12.091
 9465W        W81081   8.770   8.806  13.097
 9466W        W81082  20.446   4.517   4.853
 9467W        W81083  38.069   6.963   4.248
 9468W        W81084   7.456  15.246   3.849
 9469W        W81085  33.509  16.804   3.157
 9470W        W81086   0.081  35.003  10.749
 9471W        W81087  31.703   4.850  12.025
 9472W        W81088  27.054   7.336  12.406
 9473W        W81089   0.562  24.690  13.025
 9474W        W81090   2.438  25.498   4.166
 9475W        W81091   4.698  29.336  10.191
 9476W        W81092  44.770   8.906  11.551
 9477W        W81093  18.330  13.637  13.502
 9478W        W81094  20.194  12.218  11.253
 9479W        W81095   4.589  41.359   0.929
 9480W        W81096  37.994  12.108  14.221
 9481W        W81097  36.558   2.884  10.705
 9482W        W81098   4.677  29.986  12.394
 9483W        W81099  29.138  30.216   2.615
 9484W        W81100  29.591  36.020  11.112
 9485W        W81101  10.524   6.793  11.548
 9486W        W81102  12.560  31.630  14.914
 9487W        W81103  40.000  13.401  14.727
 9488W        W81104  24.767  40.956   4.382
 9489W        W81105   2.431   2.842   0.414
 9490W        W81106   1.876  23.099   4.011
 9491W        W81107  37.687  16.643  10.210
 9492W        W81108  42.027  28.210   2.765
 9493W        W81109  25.193  44.902   4.425
 9494W        W81110  43.136  31.650  11.129
 9495W        W81111  19.613  32.642   3.593
 9496W        W81112  41.574  35.845   4.112
 9497W        W81113  39.938  27.408  10.764
 9498W        W81114  32.477  41.885  11.196
 9499W        W81115   9.092  41.800  14.079
 9500W        W81116   8.912  29.701  14.812
 9501W        W81117  39.490  28.234   4.021
 9502W        W81118  13.626  13.690  13.144
 9503W        W81119   4.882  19.331   3.641
 9504W        W81120  36.106  38.977   0.914
 9505W        W81121  40.585  27.614   4.897
 9506W        W81122   1.493  33.419   2.171
 9507W        W81123   1.120  28.601  12.075
 9508W        W81124  10.208  39.062  12.501
 9509W        W81125  23.979  12.599  14.941
 9510W        W81126  37.942  30.894   4.199
 9511W        W81127  42.054  29.634   4.140
 9512W        W81128  42.780   9.891   2.656
 9513W        W81129  28.243  11.705   0.842
 9514W        W81130  22.204  19.120  11.076
 9515W        W81131  41.937   2.900   3.475
 9516W        W81132  24.082  10.070  12.942
 9517W        W81133  18.753  10.177  10.663
 9518W        W81134  27.366  42.807  12.761
 9519W        W81135  15.330  43.794   2.822
 9520W        W81136  29.454  19.997  13.458
 9521W        W81137  23.746  33.887   3.167
 9522W        W81138   2.994  43.020   1.355
 9523W        W81139   1.436   1.334   3.060
 9524W        W81140   1.768   0.133  14.217
 9525W        W81141  29.182   3.236  11.617
 9526W        W81142   7.960  40.345   0.677
 9527W        W81143  32.428  32.268  11.185
 9528W        W81144  43.527   3.254  10.289
 9529W        W81145  23.556  38.458   0.433
 9530W        W81146  12.939   5.289   3.095
 9531W        W81147   6.797  35.563   4.127
 9532W        W81148  11.287  16.252  10.628
 9533W        W81149   4.757  17.199  12.180
 9534W        W81150  13.077  35.828   0.021
 9535W        W81151  21.702  26.161   1.495
 9536W        W81152  36.821  37.769  14.845
 9537W        W81153   3.036  10.610   3.209
 9538W        W81154   6.904  30.676   3.636
 9539W        W81155  27.270  42.414   2.962
 9540W        W81156  29.957  27.939   4.456
 9541W        W81157  27.868  26.139  13.753
 9542W        W81158  24.996  34.619  12.964
 9543W        W81159  29.636  12.817  12.543
 9544W        W81160  37.868  13.169  11.971
 9545W        W81161   6.290  12.391  13.973
 9546W        W81162  19.715  20.994  11.615
 9547W        W81163  25.553  33.885   4.268
 9548W        W81164  33.088  15.867  11.482
 9549W        W81165  26.065  19.341  12.462
 9550W        W81166  14.059  17.257  11.089
 9551W        W81167  11.330  40.865  13.411
 9552W        W81168  23.205  10.615  12.782
 9553W        W81169  33.053   9.424  13.327
 9554W        W81170   8.849   0.758  13.405
 9555W        W81171  19.550  43.303   5.293
 9556W        W81172   7.182  30.505  12.421
 9557W        W81173  32.066   4.467  13.936
 9558W        W81174  22.236  18.346   1.141
 9559W        W81175  39.255  40.659  12.847
 9560W        W81176  41.959  23.956  13.451
 9561W        W81177  24.345  33.462  13.516
 9562W        W81178  23.524  29.959   0.811
 9563W        W81179  34.359  18.947  10.541
 9564W        W81180   9.899  20.114   1.713
 9565W        W81181  44.120   4.156   0.656
 9566W        W81182  30.985  30.109  10.281
 9567W        W81183  33.041  20.466  10.508
 9568W        W81184   4.259   0.075  10.198
 9569W        W81185  21.115  35.687  14.015
 9570W        W81186  43.826  14.274  14.719
 9571W        W81187  28.584  20.239  10.588
 9572W        W81188   2.702  37.019  11.614
 9573W        W81189  33.434  32.681   1.373
 9574W        W81190  32.682   6.348   0.448
 9575W        W81191  23.648  19.579   1.612
 9576W        W81192  34.552   1.964  13.937
 9577W        W81193  42.861  24.568   3.752
 9578W        W81194  28.058  43.027   1.317
 9579W        W81195   1.420  37.893   2.101
 9580W        W81196  17.825  34.603   3.723
 9581W        W81197  14.120  33.946   4.200
 9582W        W81198   0.001  44.338   4.144
 9583W        W81199   2.938  12.293   1.089
 9584W        W81200  10.338  37.353   3.676
 9585W        W81201  39.285   5.757   1.027
 9586W        W81202  26.336  16.316  13.914
 9587W        W81203  44.287  30.011   0.945
 9588W        W81204  37.405  30.372  11.121
 9589W        W81205   3.581  38.028  11.572
 9590W        W81206  27.678  21.210  11.534
 9591W        W81207  41.522  20.926  11.902
 9592W        W81208  32.583  17.398  12.788
 9593W        W81209  42.830   5.877  14.969
 9594W        W81210  31.142  42.791   2.334
 9595W        W81211  22.571  42.039   4.604
 9596W        W81212   0.877   5.684  10.650
 9597W        W81213  26.912  23.505  12.366
 9598W        W81214   0.429  13.279   4.364
 9599W        W81215   5.212  28.900  13.870
 9600W        W81216  12.238  28.448   4.249
 9601W        W81217  27.429   5.155  12.894
 9602W        W81218   8.220  40.347   3.680
 9603W        W81219  14.861  35.058   1.229
 9604W        W81220  34.491   1.648  14.338
 9605W        W81221  27.071  25.567  11.681
 9606W        W81222  43.436   9.449  13.471
 9607W        W81223  42.074  34.346   0.822
 9608W        W81224  14.284  32.344   0.930
 9609W        W81225  31.722   7.481  14.885
 9610W        W81226  27.202  17.678   2.402
 9611W        W81227  18.747  37.563   5.242
 9612W        W81228  27.853   0.883   2.823
 9613W        W81229  10.992  31.787   3.706
 9614W        W81230  33.907  17.202   1.152
 9615W        W81231  10.822  21.310   4.309
 9616W        W81232  44.176   3.032  11.458
 9617W        W81233  32.170  10.185   2.237
 9618W        W81234  33.923   6.246   2.792
 9619W        W81235  21.143  41.816  14.788
 9620W        W81236  27.611   4.481  13.533
 9621W        W81237  12.887  39.715  14.053
 9622W        W81238  23.984  39.925   0.278
 9623W        W81239   6.270  31.987   1.158
 9624W        W81240   7.395  21.177  13.403
 9625W        W81241  13.679   5.384  12.655
 9626W        W81242  21.667  23.645  12.842
 9627W        W81243   3.816  36.878   1.927
 9628W        W81244  28.579  21.256   2.229
 9629W        W81245  33.310  27.149  14.775
 9630W        W81246  28.167  15.259   1.407
 9631W        W81247  34.942  42.495  12.429
 9632W        W81248   5.255  38.137  12.824
 9633W        W81249  12.435   0.954  10.827
 9634W        W81250  23.176  14.096   3.718
 9635W        W81251  17.866  22.749  11.201
 9636W        W81252  40.235  17.901   3.673
 9637W        W81253  22.137  35.779   3.601
 9638W        W81254  38.808  36.126   1.972
 9639W        W81255   4.474  18.573  11.585
 9640W        W81256  13.047  34.206   2.811
 9641W        W81257   5.020  23.929  13.602
 9642W        W81258  27.100  31.662  13.821
 9643W        W81259  21.701  23.294   1.388
 9644W        W81260   3.493  20.856  12.271
 9645W        W81261  40.526  10.245   2.628
 9646W        W81262   4.732  10.167   4.221
 9647W        W81263  12.536   8.308  14.840
 9648W        W81264  11.848  15.598  14.005
 9649W        W81265  44.801  22.200   0.862
 9650W        W81266  31.909  25.972   1.754
 9651W        W81267  18.750   1.436   4.810
 9652W        W81268  17.078  41.770   4.077
 9653W        W81269  18.115  42.385   1.699
 9654W        W81270  30.281  24.078   0.706
 9655W        W81271  40.585   8.393   4.892
 9656W        W81272  41.932   5.397   0.922
 9657W        W81273  36.814  22.765  11.556
 9658W        W81274   5.050  28.717   4.190
 9659W        W81275  10.305   6.629   1.931
 9660W        W81276   2.236  36.290   0.870
 9661W        W81277  29.496  10.404   1.490
 9662W        W81278  41.525  31.770  13.934
 9663W        W81279  15.927   0.456   0.350
 9664W        W81280  28.859   8.426   1.801
 9665W        W81281   7.240  44.269   0.201
 9666W        W81282   3.488  26.282   3.720
 9667W        W81283  36.808   2.718   0.927
 9668W        W81284  27.175  44.462  14.285
 9669W        W81285  16.255  38.201  11.202
 9670W        W81286   1.892  10.726  12.671
 9671W        W81287  18.725  36.472  11.531
 9672W        W81288  43.744   9.397   3.379
 9673W        W81289  22.480  44.051  13.755
 9674W        W81290  25.691  29.644   1.128
 9675W        W81291  35.549  43.284  12.581
 9676W        W81292  24.179   3.373   1.977
 9677W        W81293  22.788  33.117  10.845
 9678W        W81294   4.432  41.018   3.780
 9679W        W81295  10.686  28.497   1.709
 9680W        W81296  20.993  23.070  10.679
 9681W        W81297   9.867  41.180  13.957
 9682W        W81298  19.549   1.097   4.595
 9683W        W81299  31.701   5.902  11.311
 9684W        W81300  17.277  31.032   1.981
 9685W        W81301  31.636  29.878   2.234
 9686W        W81302  43.370  17.283   3.617
 9687W        W81303  23.353   4.139   1.733
 9688W        W81304  26.505  34.435  14.295
 9689W        W81305  38.923   6.364   0.142
 9690W        W81306  42.863   3.223   3.744
 9691W        W81307  16.523  22.120  12.885
 9692W        W81308   9.066  33.668   4.551
 9693W        W81309  30.884  44.755  12.020
 9694W        W81310  11.380  18.216  14.412
 9695W        W81311  14.579  42.941   0.529
 9696W        W81312  37.877   7.789   2.750
 9697W        W81313   1.657  39.871   2.838
 9698W        W81314  40.949  30.667   2.270
 9699W        W81315   6.527  21.988  11.524
 9700W        W81316   9.191   7.257   4.925
 9701W        W81317  14.274  42.962   3.268
 9702W        W81318  37.291  42.300   2.307
 9703W        W81319   4.345  36.602   1.279
 9704W        W81320  12.301  28.480   0.626
 9705W        W81321  15.301  36.964   3.410
 9706W        W81322  26.519  40.235  12.081
 9707W        W81323  23.446  41.970   0.350
 9708W        W81324  39.262  35.917  11.798
 9709W        W81325  17.559   9.423  13.093
 9710W        W81326  43.928   3.454  10.570
 9711W        W81327  16.084  44.169   3.091
 9712W        W81328  10.151   8.898   2.650
 9713W        W81329  37.577  13.851  10.654
 9714W        W81330   5.141  29.213   4.103
 9715W        W81331  30.391  29.628   3.270
 9716W        W81332  29.418  15.984   0.628
 9717W        W81333  10.648  36.845   4.287
 9718W        W81334   5.243   0.497  14.848
 9719W        W81335  33.319  37.351  10.711
 9720W        W81336  36.383   8.461  14.414
 9721W        W81337  31.158  40.110  13.802
 9722W        W81338  38.425  31.089   1.276
 9723W        W81339  11.173  21.147   0.998
 9724W        W81340   9.543  43.004  11.218
 9725W        W81341  31.896  37.973  14.829
 9726W        W81342  23.396   7.518   0.351
 9727W        W81343  40.806  39.245  12.127
 9728W        W81344  19.462  23.726   1.865
 9729W        W81345   9.716  21.125   2.168
 9730W        W81346  37.895  36.026   1.417
 9731W        W81347  42.611  35.276  10.756
 9732W        W81348  25.621   8.861  13.883
 9733W        W81349  32.620   0.296  14.440
 9734W        W81350  14.751  15.096  12.407
 9735W        W81351  22.525   6.510   1.879
 9736W        W81352   3.861  21.077  13.440
 9737W        W81353  35.045  13.042   0.355
 9738W        W81354  39.341   6.648  14.942
 9739W        W81355  11.117  24.179   4.327
 9740W        W81356   5.477  38.065  13.716
 9741W        W81357   5.869  14.785   1.753
 9742W        W81358  28.480  20.151   2.154
 9743W        W81359  30.783  30.202  12.976
 9744W        W81360  23.644  40.262   4.173
 9745W        W81361  42.073   1.453  14.342
 9746W        W81362  11.548  27.565  12.321
 9747W        W81363  18.529  13.261   1.854
 9748W        W81364  42.710  44.340  14.442
 9749W        W81365  34.936  30.221   4.172
 9750W        W81366  31.231  43.733  10.656
 9751W        W81367  28.638  29.099   3.781
 9752W        W81368   2.388  23.496  14.934
 9753W        W81369  24.941  22.766   1.806
 9754W        W81370  15.194  12.107  10.715
 9755W        W81371  43.046  22.319  14.973
 9756W        W81372  15.941   7.097  13.386
 9757W        W81373  33.832  33.105   3.063
 9758W        W81374  21.770   1.122  11.108
 9759W        W81375   9.972  35.845  13.358
 9760W        W81376   1.694  19.713  14.445
 9761W        W81377  40.993  17.593   2.776
 9762W        W81378   9.399  37.091  12.934
 9763W        W81379  32.817  41.463  12.475
 9764W        W81380   5.874  21.340  11.445
 9765W        W81381  42.495   1.348   4.653
 9766W        W81382  40.286   2.759   2.865
 9767W        W81383  38.874   8.389  13.674
 9768W        W81384  33.219  15.223  12.056
 9769W        W81385   2.487  25.550   0.368
 9770W        W81386  15.852  33.769  12.861
 9771W        W81387  34.443  43.992  10.161
 9772W        W81388  26.606  42.081   4.691
 9773W        W81389  10.356  18.794   0.931
 9774W        W81390  35.268   7.262  10.324
 9775W        W81391  36.448  26.552   4.610
 9776W        W81392  12.390  15.683   4.075
 9777W        W81393  11.014  44.462  11.451
 9778W        W81394  13.647  19.189   4.612
 9779W        W81395  18.060  29.212  13.832
 9780W        W81396  39.558  12.283  10.293
 9781W        W81397   6.891  40.272  11.902
 9782W        W81398   9.589   5.337   0.654
 9783W        W81399  20.162   2.324   2.628
 9784W        W81400  38.558  36.403   0.558
 9785W        W81401  41.835  37.052   0.696
 9786W        W81402  22.926  23.537  13.374
 9787W        W81403  39.900  28.682   2.269
 9788W        W81404  36.382  20.012  13.773
 9789W        W81405  30.832  14.903  13.549
 9790W        W81406  37.351  34.938  14.762
 9791W        W81407  10.943  31.727   1.319
 9792W        W81408   0.287  31.076  11.629
 9793W        W81409  35.094  36.104  12.088
 9794W        W81410  13.887   6.218   2.426
 9795W        W81411  21.200   3.794  10.801
 9796W        W81412  25.695  16.806   4.213
 9797W        W81413   9.772   3.902   1.657
 9798W        W81414  41.866  17.024  13.872
 9799W        W81415  24.582   5.459   4.187
 9800W        W81416   8.894  15.804  13.740
 9801W        W81417  27.522  10.362   0.021
 9802W        W81418  28.983   4.640   2.224
 9803W        W81419  27.023  24.589  11.548
 9804W        W81420  32.616   6.460   2.862
 9805W        W81421   5.902  41.107   0.366
 9806W        W81422  34.965  26.217   1.817
 9807W        W81423  38.612  14.972   3.037
 9808W        W81424  27.244   6.637   3.918
 9809W        W81425   4.364  43.796  12.033
 9810W        W81426  18.674   8.680  14.899
 9811W        W81427  12.794   0.082   4.492
 9812W        W81428  29.926  28.436   4.468
 9813W        W81429  30.352  30.601   3.246
 9814W        W81430  44.469  34.936   1.688
 9815W        W81431  33.535  37.838   3.682
 9816W        W81432   7.344  26.020   3.811
 9817W        W81433  26.989  27.983  13.096
 9818W        W81434   9.171  34.381  12.849
 9819W        W81435   3.411  12.822  13.469
 9820W        W81436  19.809   7.771   5.177
 9821W        W81437  19.808  28.561   2.908
 9822W        W81438  37.626  20.318  12.548
 9823W        W81439  32.146  44.615   0.920
 9824W        W81440  14.870  40.157   0.004
 9825W        W81441   7.320  17.518  14.520
 9826W        W81442  20.610  17.937  11.581
 9827W        W81443  15.477  19.124   5.474
 9828W        W81444  35.457   5.704   3.308
 9829W        W81445   8.193  12.607  13.308
 9830W        W81446  38.527  35.243  12.872
 9831W        W81447  42.035   3.760   2.354
 9832W        W81448  35.526  41.352  10.672
 9833W        W81449  34.853   2.717   2.375
 9834W        W81450   7.335  12.825   2.266
 9835W        W81451  44.873   1.352   0.540
 9836W        W81452   0.236  38.784  12.553
 9837W        W81453  39.799  44.040  11.117
 9838W        W81454  44.265   5.907  13.478
 9839W        W81455   6.320  18.504   5.136
 9840W        W81456  20.715  19.498  12.572
 9841W        W81457  36.625  43.978   3.279
 9842W        W81458  17.425  14.191   1.681
 9843W        W81459  11.123  37.824  14.911
 9844W        W81460   9.877  30.882   2.733
 9845W        W81461  25.208   6.113  10.687
 9846W        W81462  37.329   1.424   0.802
 9847W        W81463  16.529  31.457   0.971
 9848W        W81464  24.671   1.692  13.906
 9849W        W81465   4.471  27.671   3.649
 9850W        W81466  43.996  10.104  10.774
 9851W        W81467  12.747   9.222   2.731
 9852W        W81468  38.297  43.835   2.186
 9853W        W81469   7.401  28.407  11.070
 9854W        W81470  27.046  27.902  10.764
 9855W        W81471  25.136   9.207   4.137
 9856W        W81472  22.147  30.230   3.779
 9857W        W81473  21.391  15.676   4.623
 9858W        W81474  23.569  39.991  14.397
 9859W        W81475   0.816  40.940   1.736
 9860W        W81476  23.610   3.503  13.614
 9861W        W81477  41.226  34.007   4.659
 9862W        W81478   2.794   1.235   1.505
 9863W        W81479  40.511  35.011   5.156
 9864W        W81480   1.542  25.097  14.387
 9865W        W81481  39.959  30.866   0.767
 9866W        W81482  14.681   5.913   3.189
 9867W        W81483  38.696   4.936  12.049
 9868W        W81484   3.176  40.525  12.121
 9869W        W81485   4.460  22.850  14.891
 9870W        W81486  13.120  27.419   0.863
 9871W        W81487  18.637   9.452   3.784
 9872W        W81488   9.133  30.506  14.344
 9873W        W81489   8.119   9.048   1.919
 9874W        W81490  23.345  19.210   3.083
 9875W        W81491  19.615   3.746  13.443
 9876W        W81492  25.070  30.907  12.447
 9877W        W81493  38.150  38.536   4.255
 9878W        W81494  28.452  29.458   1.654
 9879W        W81495  29.908   9.789   0.051
 9880W        W81496  25.301  31.891   2.157
 9881W        W81497  30.078  38.516   4.808
 9882W        W81498  35.378  10.063  11.490
 9883W        W81499  37.259  24.859  11.471
 9884W        W81500  10.776   0.002   3.237
 9885W        W81501  40.924  11.580   4.797
 9886W        W81502  27.008  10.877   3.259
 9887W        W81503  28.791  43.833   4.145
 9888W        W81504  25.028  39.487   3.682
 9889W        W81505  31.118  30.681   3.657
 9890W        W81506  23.487   4.785  13.781
 9891W        W81507  14.697   8.705   0.398
 9892W        W81508  18.461   2.891  14.511
 9893W        W81509   4.108  11.594  11.637
 9894W        W81510  28.470   1.967   0.323
 9895W        W81511  12.816   6.286   5.417
 9896W        W81512  36.838   3.185  13.185
 9897W        W81513  13.108  39.848   0.431
 9898W        W81514  39.122  32.647   3.286
 9899W        W81515  42.282   8.337  11.008
 9900W        W81516   7.759  24.690   4.633
 9901W        W81517  43.866  17.315  10.633
 9902W        W81518   7.158  23.492  11.118
 9903W        W81519  30.016  18.313   1.826
 9904W        W81520   3.789   2.794   0.549
 9905W        W81521  30.594  24.478  10.812
 9906W        W81522  23.496   2.144  14.788
 9907W        W81523  10.911  27.817  13.507
 9908W        W81524  32.927  13.941   3.921
 9909W        W81525   1.728  15.396  11.675
 9910W        W81526  21.022  18.193  11.360
 9911W        W81527  15.930  19.639   1.877
 9912W        W81528  21.559  15.875  11.537
 9913W        W81529  23.960   2.234   4.521
 9914W        W81530  19.538  26.418   1.261
 9915W        W81531  30.739  12.724  13.929
 9916W        W81532   6.885  44.097  14.819
 9917W        W81533  10.316  37.428  14.197
 9918W        W81534  12.335  25.594  11.620
 9919W        W81535  43.690  13.056  12.474
 9920W        W81536   6.320  35.042   4.311
 9921W        W81537  35.986   5.934   2.120
 9922W        W81538  19.721  35.678   0.406
 9923W        W81539   5.653   2.837  13.078
 9924W        W81540  41.025  19.102   0.211
 9925W        W81541   1.860  26.194  13.902
 9926W        W81542   8.395  18.555   4.946
 9927W        W81543  28.545  43.251  14.761
 9928W        W81544  27.511  14.131   0.888
 9929W        W81545  22.090  38.036  11.911
 9930W        W81546   2.958  34.431   4.360
 9931W        W81547  11.356  30.135   2.848
 9932W        W81548  32.277  27.731  12.539
 9933W        W81549   1.328  44.468   4.681
 9934W        W81550  43.302  23.727  13.853
 9935W        W81551   5.633  31.897   2.835
 9936W        W81552  41.766   0.470  12.018
 9937W        W81553  20.543  19.647   1.302
 9938W        W81554  23.444  36.586   1.718
 9939W        W81555   8.445  43.459   4.563
 9940W        W81556   0.330   9.462   2.609
 9941W        W81557   8.161  39.488   2.068
 9942W        W81558  42.806  13.350   0.720
 9943W        W81559  27.434  32.327   1.194
 9944W        W81560  28.106  13.653  11.761
 9945W        W81561  32.970  20.100  11.135
 9946W        W81562  18.403   3.037  12.161
 9947W        W81563  13.009  31.550  12.934
 9948W        W81564   1.368  18.605   1.792
 9949W        W81565   8.318  27.787   0.546
 9950W        W81566  33.441  25.494   4.648
 9951W        W81567  37.082  24.482   0.870
 9952W        W81568  41.955  22.118   4.161
 9953W        W81569  32.538   9.702   3.114
 9954W        W81570  20.026   0.322   4.814
 9955W        W81571  29.559  28.500   3.147
 9956W        W81572  16.630  31.398  10.999
 9957W        W81573  36.820  35.013  12.877
 9958W        W81574  22.815  29.877   3.218
 9959W        W81575   7.167  27.658   4.663
 9960W        W81576  38.593   7.165   1.014
 9961W        W81577  24.262  28.576  13.986
 9962W        W81578   8.844  30.957  14.373
 9963W        W81579  44.724  23.934   4.213
 9964W        W81580  41.237  13.098  14.927
 9965W        W81581  16.650   7.311   1.449
 9966W        W81582  28.106  24.218   4.140
 9967W        W81583  29.875   2.393   4.408
 9968W        W81584   6.371  19.652  12.947
 9969W        W81585  27.530  12.918  11.686
 9970W        W81586   4.391  13.235   2.218
 9971W        W81587  41.190  21.510   2.794
 9972W        W81588  42.562  28.069  10.716
 9973W        W81589  42.862  43.469  12.962
 9974W        W81590  35.108  15.585  14.537
 9975W        W81591  42.909  43.987  13.051
 9976W        W81592  18.583  41.751  11.958
 9977W        W81593  40.411  31.440  14.730
 9978W        W81594  27.180   3.957   1.298
 9979W        W81595  14.652   8.571   9.970
 9980W        W81596  38.648  34.228  11.466
 9981W        W81597   2.968   7.107  10.661
 9982W        W81598  43.440   5.563   4.215
 9983W        W81599  20.605  43.560   0.186
 9984W        W81600   4.507  42.053   4.808
 9985W        W81601  16.215  41.049   2.268
 9986W        W81602   4.534  10.858   0.341
 9987W        W81603  26.066   4.474  13.078
 9988W        W81604  29.274  33.526   0.308
 9989W        W81605   2.456   4.708  13.003
 9990W        W81606  44.000  14.325   3.938
 9991W        W81607   1.813  38.603  14.755
 9992W        W81608  13.646  43.799   0.371
 9993W        W81609  34.824  21.258   3.341
 9994W        W81610   7.237  29.147  13.954
 9995W        W81611  11.390  16.613  13.094
 9996W        W81612  44.391  40.944   1.441
 9997W        W81613   9.171   3.537   3.312
 9998W        W81614  44.336  38.192   4.980
 9999W        W81615  23.520  18.961   3.780
10000W        W81616  21.173   2.901   3.853
10001W        W81617  18.730  44.669   5.162
10002W        W81618  18.056  40.562   1.457
10003W        W81619  23.544  44.470   1.379
10004W        W81620  22.071  29.586  11.484
10005W        W81621   2.311  37.434  10.345
10006W        W81622   5.674   6.510   0.311
10007W        W81623  17.653  32.507  14.499
10008W        W81624  38.539   6.087  12.596
10009W        W81625  21.173  11.343   2.657
10010W        W81626  35.487  32.718   0.447
10011W        W81627  14.146   6.636   9.762
10012W        W81628  42.513  11.575   2.177
10013W        W81629  18.610  25.999  11.488
10014W        W81630  39.922   9.133   0.934
10015W        W81631   5.626  17.275   4.228
10016W        W81632   2.992  26.142   3.655
10017W        W81633  14.091  24.913   1.027
10018W        W81634  12.749  43.317   4.097
10019W        W81635  30.095  13.374  14.008
10020W        W81636  40.243  29.606  13.040
10021W        W81637   3.781  41.408  11.656
10022W        W81638  31.106  16.419   1.289
10023W        W81639   6.937   1.775  12.006
10024W        W81640   1.438   0.773   5.167
10025W        W81641  20.544   9.778  12.423
10026W        W81642  23.168  38.479   2.753
10027W        W81643  17.169  28.754  14.031
10028W        W81644  17.779  13.023  14.422
10029W        W81645  36.479  44.610  14.084
10030W        W81646  36.409  43.485   3.785
10031W        W81647   5.930  12.794  12.718
10032W        W81648   1.750  19.607   2.729
10033W        W81649  24.062  34.180   1.293
10034W        W81650  31.854  30.088  11.323
10035W        W81651  37.624  26.548   2.918
10036W        W81652  27.445   8.149  11.890
10037W        W81653  35.255  24.356   3.229
10038W        W81654  12.883  20.310  12.811
10039W        W81655  26.201  31.717  14.487
10040W        W81656  38.226   9.799   1.730
10041W        W81657  23.155  17.530  11.926
10042W        W81658  29.759   8.232   4.925
10043W        W81659  10.444  11.761   1.403
10044W        W81660  31.647  17.617  11.024
10045W        W81661   7.153  11.131   0.268
10046W        W81662  38.127   0.714   0.754
10047W        W81663   5.740  15.671   1.758
10048W        W81664  41.748  26.106  11.969
10049W        W81665  13.804  40.406   4.762
10050W        W81666   4.124   1.407  10.050
10051W        W81667   0.359   5.411  13.799
10052W        W81668  29.740  14.101   5.046
10053W        W81669  39.403  17.050   1.797
10054W        W81670  23.197  25.156  14.680
10055W        W81671  33.652   1.217   2.702
10056W        W81672   6.374  26.999  11.960
10057W        W81673  44.911  26.992  10.915
10058W        W81674   3.371  20.653   0.694
10059W        W81675  11.798  30.866   1.014
10060W        W81676  28.574   3.218   4.955
10061W        W81677  23.581  30.878  11.567
10062W        W81678  43.688  38.542   5.117
10063W        W81679  13.717   9.744  14.628
10064W        W81680  19.930   4.695  12.080
10065W        W81681  21.566  30.364   4.762
10066W        W81682  31.239  16.259  12.900
10067W        W81683  40.480   1.789  13.514
10068W        W81684   8.840  34.354  14.818
10069W        W81685  16.890  35.916   0.532
10070W        W81686   8.370  19.311   0.318
10071W        W81687  11.765  17.185   2.398
10072W        W81688   9.735  32.928   1.173
10073W        W81689   6.117   8.815  13.027
10074W        W81690  36.660  29.855  14.472
10075W        W81691  40.457  19.921   4.199
10076W        W81692  34.673  21.117  12.582
10077W        W81693  29.623   7.447  11.595
10078W        W81694  13.225  37.791   3.738
10079W        W81695   2.270  35.583  11.547
10080W        W81696  40.338  39.787   2.814
10081W        W81697  31.365  37.257  13.869
10082W        W81698  18.614  10.118   0.841
10083W        W81699  18.714  43.444   1.973
10084W        W81700  29.162  44.712   3.735
10085W        W81701  22.987   9.371  11.459
10086W        W81702  44.513   9.779   4.623
10087W        W81703   1.030  40.786   0.719
10088W        W81704  20.668   3.014  13.507
10089W        W81705  41.352  38.410  11.679
10090W        W81706   8.368   6.438  12.589
10091W        W81707  25.111   5.720  12.346
10092W        W81708  20.069   5.953   3.814
10093W        W81709  22.679  33.628  13.306
10094W        W81710  10.696  17.719  13.395
10095W        W81711  16.195  35.649   0.693
10096W        W81712  17.855  39.284   2.647
10097W        W81713   1.187  41.282  11.765
10098W        W81714  39.364  29.727   4.112
10099W        W81715  37.560  16.163   2.571
10100W        W81716  44.836  26.473  14.776
10101W        W81717  22.243  35.550   0.798
10102W        W81718  36.527   7.210  14.873
10103W        W81719   4.959  32.636  11.495
10104W        W81720  19.443  37.484  14.999
10105W        W81721  15.827   7.241  11.150
10106W        W81722  21.728  43.229  12.845
10107W        W81723  26.226  37.859   3.421
10108W        W81724  36.900  40.917  12.342
10109W        W81725  21.340  19.156   0.233
10110W        W81726  42.011   9.400   4.665
10111W        W81727  21.792  13.202   0.307
10112W        W81728   5.392  36.475  13.498
10113W        W81729   6.420  13.955   4.241
10114W        W81730  22.597  25.748   4.859
10115W        W81731   3.191  19.379   4.229
10116W        W81732  39.906   1.342  10.735
10117W        W81733   0.294  23.240  10.232
10118W        W81734  15.657  28.187  14.138
10119W        W81735  19.103   0.199   2.298
10120W        W81736  12.123  36.898   4.662
10121W        W81737  40.007  35.747   3.315
10122W        W81738  12.660  21.640   4.622
10123W        W81739  17.132  42.545   3.251
10124W        W81740  30.534  21.033  11.659
10125W        W81741   8.290   6.642  10.610
10126W        W81742   3.230  11.205  13.200
10127W        W81743  24.681   7.768  11.960
10128W        W81744   9.179  34.163  11.649
10129W        W81745   8.788  12.839  13.884
10130W        W81746  27.292  29.467   2.149
10131W        W81747  38.855  34.350  11.928
10132W        W81748  41.884  34.430   4.308
10133W        W81749  23.744  13.181  13.643
10134W        W81750  15.336  41.888   4.387
10135W        W81751  12.677   9.210  13.830
10136W        W81752  22.933  30.425  12.980
10137W        W81753   2.964   7.888  11.915
10138W        W81754  39.550  37.844   1.273
10139W        W81755  21.309   8.181   0.237
10140W        W81756  13.096  23.114  11.181
10141W        W81757  31.513  10.340  12.245
10142W        W81758  17.775  44.966   4.024
10143W        W81759  25.649   1.187  14.221
10144W        W81760   8.676  25.316   2.310
10145W        W81761  13.882  15.696   4.122
10146W        W81762  18.221  24.905  13.978
10147W        W81763  17.298   0.806  11.622
10148W        W81764  18.731  37.455  11.661
10149W        W81765  41.991  11.642   4.140
10150W        W81766  44.651  13.116   4.971
10151W        W81767  21.551  11.404  10.692
10152W        W81768   8.600  14.056   4.580
10153W        W81769  29.518   6.794  10.517
10154W        W81770  31.196  23.404   2.799
10155W        W81771  20.259   0.510  12.916
10156W        W81772  30.836  28.463  10.266
10157W        W81773   5.869  20.167   3.328
10158W        W81774  34.394   1.727  12.603
10159W        W81775  32.629  43.558  12.606
10160W        W81776  11.025  39.606   3.323
10161W        W81777   3.299   2.542   1.715
10162W        W81778  10.721  43.559   1.377
10163W        W81779   3.293  34.631   1.826
10164W        W81780  28.531  34.124   1.828
10165W        W81781  43.271  20.550   0.943
10166W        W81782  17.533  23.687  12.130
10167W        W81783   0.372  43.152   3.434
10168W        W81784  28.106  26.119   1.791
10169W        W81785   4.616  25.683   3.656
10170W        W81786  22.984   3.573   5.149
10171W        W81787  34.872  22.147  14.024
10172W        W81788  43.607  24.758   4.288
10173W        W81789  34.570  28.653  10.621
10174W        W81790  15.286  19.544  13.950
10175W        W81791  23.636  13.272  12.609
10176W        W81792  22.073  35.733  14.251
10177W        W81793  19.181  43.761  13.244
10178W        W81794  17.597  43.714  10.006
10179W        W81795  29.736   0.374   2.196
10180W        W81796  22.143   4.326   1.403
10181W        W81797   4.715  28.174   2.831
10182W        W81798  43.899  34.726   0.776
10183W        W81799  21.723  13.332  11.139
10184W        W81800  36.345  37.250  11.112
10185W        W81801  14.509  37.335  14.430
10186W        W81802  18.333  29.644  13.794
10187W        W81803   6.879  39.876  11.560
10188W        W81804  37.377  43.861   3.616
10189W        W81805  25.812  35.649   3.735
10190W        W81806  28.464  43.558   4.925
10191W        W81807  22.164  20.982   4.782
10192W        W81808  16.607  38.439   1.301
10193W        W81809  37.317  29.017   0.868
10194W        W81810  26.246   4.377  11.121
10195W        W81811  40.883  17.027   0.169
10196W        W81812  22.539  22.392   0.467
10197W        W81813  20.675  15.984  11.433
10198W        W81814  27.219   2.348   3.692
10199W        W81815  16.908   7.733  14.267
10200W        W81816  17.401  26.486   4.985
10201W        W81817  35.034  12.653   4.632
10202W        W81818  27.444  42.327   2.308
10203W        W81819   3.378  30.016   1.890
10204W        W81820  16.573  30.138   1.336
10205W        W81821  26.088  37.486   0.736
10206W        W81822  17.924  26.538  10.228
10207W        W81823  23.193  11.754   2.792
10208W        W81824  14.466   7.947  11.225
10209W        W81825  12.353  32.932  13.413
10210W        W81826  33.895  38.516   4.125
10211W        W81827  15.863  29.295   4.981
10212W        W81828  35.657  11.153  13.488
10213W        W81829  37.110  29.780   1.677
10214W        W81830   9.971  30.679   1.342
10215W        W81831   3.556  27.614  10.510
10216W        W81832  38.959   0.489  10.811
10217W        W81833  24.113  40.820   0.212
10218W        W81834  20.926   6.746  13.912
10219W        W81835  33.436   3.734   1.513
10220W        W81836   0.297  11.205  14.310
10221W        W81837  29.881   8.202   1.751
10222W        W81838  19.716   5.910   4.177
10223W        W81839   6.254   3.988   1.231
10224W        W81840  16.066  40.486   2.253
10225W        W81841  28.993   0.977  13.057
10226W        W81842  26.164   5.670   4.142
10227W        W81843  19.553  17.212   0.424
10228W        W81844  11.234  18.737  14.397
10229W        W81845  43.056  12.844   0.879
10230W        W81846  12.023  10.857   0.987
10231W        W81847  14.201  42.853  13.030
10232W        W81848  15.483  43.311   2.688
10233W        W81849  14.254  16.653  11.113
10234W        W81850   6.294  27.003   3.906
10235W        W81851  27.422  42.542  14.125
10236W        W81852   0.635   9.072   4.227
10237W        W81853  29.544  33.045  13.852
10238W        W81854   4.061  14.062   4.947
10239W        W81855  31.975   9.305   2.696
10240W        W81856  44.197  21.927   2.684
10241W        W81857   0.061   2.829  13.292
10242W        W81858  19.146  14.631  11.235
10243W        W81859  23.844  35.443  14.986
10244W        W81860  32.115  37.009  12.393
10245W        W81861  40.069  28.980   1.656
10246W        W81862  26.648  12.691   0.773
10247W        W81863  28.880  39.189   3.753
10248W        W81864  42.921   6.377  11.278
10249W        W81865  35.367  43.873   2.424
10250W        W81866  12.347  32.595  14.765
10251W        W81867  11.208  20.025  12.863
10252W        W81868   9.088   9.134  14.496
10253W        W81869   1.381  13.806   3.613
10254W        W81870  22.536  13.639   2.224
10255W        W81871  27.037  41.631   1.636
10256W        W81872  32.941  43.248   4.127
10257W        W81873   9.867   1.982  14.083
10258W        W81874  24.101  34.710  11.784
10259W        W81875  43.545  37.262   4.179
10260W        W81876  15.147  44.340   0.695
10261W        W81877  16.573  39.341  13.369
10262W        W81878  34.965   3.330   4.105
10263W        W81879  11.238  27.964  12.368
10264W        W81880  42.360  43.242   1.853
10265W        W81881  23.214  33.105  13.772
10266W        W81882  20.311   2.309  14.835
10267W        W81883  39.921   0.839   0.288
10268W        W81884  17.092  33.115   0.483
10269W        W81885   5.855  15.210   2.704
10270W        W81886   6.410  24.119  11.165
10271W        W81887  18.229   2.169  14.479
10272W        W81888   7.865   8.262  14.474
10273W        W81889   7.325  10.176   4.560
10274W        W81890  17.474  25.915  14.992
10275W        W81891   3.464  40.247   3.135
10276W        W81892  41.230  26.164  11.814
10277W        W81893  42.488  24.551   2.805
10278W        W81894  33.954  21.654  14.971
10279W        W81895  29.911   3.427   3.250
10280W        W81896   9.889  26.246  11.741
10281W        W81897  40.970  32.950   1.828
10282W        W81898  26.951  16.355   0.650
10283W        W81899  38.925  20.262   3.151
10284W        W81900  24.727  35.823   2.858
10285W        W81901   6.943  14.564   4.018
10286W        W81902  31.803  19.215  11.768
10287W        W81903   0.472  23.896   1.071
10288W        W81904  38.099  13.433   5.154
10289W        W81905   6.354   6.074   2.364
10290W        W81906  43.169  41.130   3.108
10291W        W81907  21.156  28.214   0.318
10292W        W81908  44.241   2.449  12.988
10293W        W81909  37.402   5.712   2.327
10294W        W81910  19.450  34.044  14.363
10295W        W81911   6.471  17.585   1.360
10296W        W81912  33.137   5.788  11.514
10297W        W81913  40.276  23.218   0.546
10298W        W81914   2.198  13.796  10.983
10299W        W81915   1.220  30.275  11.020
10300W        W81916  36.714   4.299   0.207
10301W        W81917  43.880   4.893   0.181
10302W        W81918  28.682   9.784  12.550
10303W        W81919  17.074  14.081   0.354
10304W        W81920  26.261  34.390  12.312
10305W        W81921  22.298   9.817  14.633
10306W        W81922  44.750  15.843   0.209
10307W        W81923  21.527  24.591   0.852
10308W        W81924  30.931  23.242   3.520
10309W        W81925  12.584  35.050  11.493
10310W        W81926  18.345   5.906  12.022
10311W        W81927   2.365   0.972   2.768
10312W        W81928  42.212  22.129   3.705
10313W        W81929  28.511  30.024  13.965
10314W        W81930  20.322  29.190  12.903
10315W        W81931  42.793  19.041   2.226
10316W        W81932  17.203  26.511   1.895
10317W        W81933  31.372  43.015   1.890
10318W        W81934  39.779  38.928   4.814
10319W        W81935  37.147  13.873  14.364
10320W        W81936  31.194  21.549  14.006
10321W        W81937  15.808  14.323   4.537
10322W        W81938  15.467  30.720   0.205
10323W        W81939  22.542  38.960  14.950
10324W        W81940  27.865  29.980  12.025
10325W        W81941  34.251  27.491   0.846
10326W        W81942  37.458   2.257   3.181
10327W        W81943  26.781  26.579  12.124
10328W        W81944  31.374   7.866  14.890
10329W        W81945  42.850  25.926   0.549
10330W        W81946   8.631  13.191   2.299
10331W        W81947  42.949  29.620   3.418
10332W        W81948  22.696  34.550  12.414
10333W        W81949   2.762  42.267   4.013
10334W        W81950   9.740  13.419  14.805
10335W        W81951  36.075  17.357   4.519
10336W        W81952   7.156  28.895  13.472
10337W        W81953  38.452  44.698  12.853
10338W        W81954  38.922  26.965  14.431
10339W        W81955  18.686  36.360   3.916
10340W        W81956  40.294  41.292  12.580
10341W        W81957  44.322  37.361   0.421
10342W        W81958  29.576   7.714   1.787
10343W        W81959  36.526   9.603   1.377
10344W        W81960  35.368  21.722  12.931
10345W        W81961  35.218  17.535   4.133
10346W        W81962  17.772  21.137   2.749
10347W        W81963   6.476  22.627  12.591
10348W        W81964  29.550  28.182   9.859
10349W        W81965  34.215  40.915   3.208
10350W        W81966  42.861  23.002   4.121
10351W        W81967  39.462  37.011  11.992
10352W        W81968  29.563  15.699   2.063
10353W        W81969  21.166  43.897   4.128
10354W        W81970  37.854  31.486   0.696
10355W        W81971  20.464   7.146  10.673
10356W        W81972  19.137  44.603   5.501
10357W        W81973  32.036  38.796  10.265
10358W        W81974  22.150  29.372  14.816
10359W        W81975  38.288  35.967   4.246
10360W        W81976  21.922  35.567  14.779
10361W        W81977   5.354   8.184   2.745
10362W        W81978  23.561  43.003  14.467
10363W        W81979  30.580  26.209  10.707
10364W        W81980  27.028  14.660  14.290
10365W        W81981   4.394  35.316  14.193
10366W        W81982  34.667  33.143  12.496
10367W        W81983  26.233  36.546  12.119
10368W        W81984   7.798  43.832   0.644
10369W        W81985  28.542   2.976   1.821
10370W        W81986  10.841  18.991   0.824
10371W        W81987   5.289   2.523  11.436
10372W        W81988  39.672  31.656  10.752
10373W        W81989  34.075  38.508   0.359
10374W        W81990  39.661  30.523   3.905
10375W        W81991  28.708  23.129   1.790
10376W        W81992  23.214  21.949   0.131
10377W        W81993  26.653  25.166   0.850
10378W        W81994  28.848  12.849  12.928
10379W        W81995   7.365  26.490  13.617
10380W        W81996   9.640  10.488  13.608
10381W        W81997   6.172  43.583  13.466
10382W        W81998  30.109  41.318  10.382
10383W        W81999  18.199  10.889  13.925
10384W        W82000  31.413  26.194   0.362
10385W        W82001   3.511  26.073  13.346
10386W        W82002  20.166  12.301   1.687
10387W        W82003  36.857  35.177   0.007
10388W        W82004  15.297  24.214   2.120
10389W        W82005  18.680  18.177  14.029
10390W        W82006  21.990  42.858  10.702
10391W        W82007  20.950  41.937  13.780
10392W        W82008  38.688  14.735   1.235
10393W        W82009  10.934   0.706   3.599
10394W        W82010  23.954  24.483  12.366
10395W        W82011   3.931  44.493  12.445
10396W        W82012   0.836  35.589  13.903
10397W        W82013  33.126  26.525  12.313
10398W        W82014   3.864  13.738  10.738
10399W        W82015  15.845  19.720   1.383
10400W        W82016  24.764  32.837  14.931
10401W        W82017  23.501  40.348   1.151
10402W        W82018   0.112  22.761  10.412
10403W        W82019  36.890  31.980  10.565
10404W        W82020   7.301  24.431   3.023
10405W        W82021  16.699  15.731  11.489
10406W        W82022   0.387  15.565   0.993
10407W        W82023  38.025  12.378   1.463
10408W        W82024  21.002  33.034  14.638
10409W        W82025  33.260  11.522  14.769
10410W        W82026  20.248  43.687   4.725
10411W        W82027  10.541  12.711   4.161
10412W        W82028  27.501  24.559  11.340
10413W        W82029   8.404  41.432  10.559
10414W        W82030  20.232  40.191  10.669
10415W        W82031  30.506  19.700  14.312
10416W        W82032  33.867  28.025  12.912
10417W        W82033   9.529   7.289   4.136
10418W        W82034  21.668  39.245  11.083
10419W        W82035  40.331  12.216   1.819
10420W        W82036   9.251  22.945   1.259
10421W        W82037  12.574  26.867  14.486
10422W        W82038   1.512  26.722  12.132
10423W        W82039   5.455   8.686   0.427
10424W        W82040  30.352  34.934  14.457
10425W        W82041  36.539  31.477   0.347
10426W        W82042   4.696  24.670  14.999
10427W        W82043  12.053  43.252  11.123
10428W        W82044  18.585  28.190   0.848
10429W        W82045  36.019  35.838  13.422
10430W        W82046  43.293  15.776   2.252
10431W        W82047   2.425  24.485   9.836
10432W        W82048  27.481  23.221  11.677
10433W        W82049  19.145  30.206   0.253
10434W        W82050  40.303  16.688  12.546
10435W        W82051  31.345  15.786  11.598
10436W        W82052  29.845  15.419   1.743
10437W        W82053  38.324  10.690   3.838
10438W        W82054  35.045  10.175  12.159
10439W        W82055   9.849  30.184  14.899
10440W        W82056  19.632  24.394   4.265
10441W        W82057  36.493   3.458   3.403
10442W        W82058  42.929  20.564   0.299
10443W        W82059  30.688  40.140   0.350
10444W        W82060  42.256  39.487   4.995
10445W        W82061  26.574  32.588  11.233
10446W        W82062  11.918  39.693  12.462
10447W        W82063   5.318   0.305   5.051
10448W        W82064  27.905  20.731   2.366
10449W        W82065  39.009  34.029  12.321
10450W        W82066  27.955   6.328   2.347
10451W        W82067  13.540  12.299  13.980
10452W        W82068  16.577  16.351  10.789
10453W        W82069  18.690  18.762  11.731
10454W        W82070   5.416  12.289   4.593
10455W        W82071   0.805  32.585  12.083
10456W        W82072  41.020  13.143  13.391
10457W        W82073   5.223  44.967  14.887
10458W        W82074  16.284   0.521   4.168
10459W        W82075  41.373  26.101  12.304
10460W        W82076  14.737  16.785   3.839
10461W        W82077  40.043  34.923  11.154
10462W        W82078  12.276  42.387  11.630
10463W        W82079  27.462   3.711  10.704
10464W        W82080  27.054  22.774   2.718
10465W        W82081  42.261  19.028  11.444
10466W        W82082  24.274  10.822  14.567
10467W        W82083   4.557  10.022   4.683
10468W        W82084  42.227  28.976   3.179
10469W        W82085   0.007   3.715  14.894
10470W        W82086  32.104  36.462   4.659
10471W        W82087  24.430  30.582  13.838
10472W        W82088   7.007  35.833   4.526
10473W        W82089  39.909  21.521  11.585
10474W        W82090  10.703  14.520  12.018
10475W        W82091  11.210  37.731   9.690
10476W        W82092  29.460   6.121  12.615
10477W        W82093  25.140   3.464   2.186
10478W        W82094  23.572  33.502   1.000
10479W        W82095  27.557  34.835  13.864
10480W        W82096  22.261  11.113  12.038
10481W        W82097  10.143  14.055   1.756
10482W        W82098  24.469   7.682   4.663
10483W        W82099  20.075  44.042   5.482
10484W        W82100   4.238  33.122   2.651
10485W        W82101  23.723  13.088   3.103
10486W        W82102  11.974  22.783  12.416
10487W        W82103  34.916   6.159  13.901
10488W        W82104  33.934  31.063   0.852
10489W        W82105  38.517  39.479   1.089
10490W        W82106  40.422   8.989   0.932
10491W        W82107  23.185  25.650  13.961
10492W        W82108   9.168  42.289   2.401
10493W        W82109   6.287  31.305  11.527
10494W        W82110  16.674  34.175   1.661
10495W        W82111  24.835  42.961  12.148
10496W        W82112   8.263  34.781  14.277
10497W        W82113  26.923  23.129   1.460
10498W        W82114  13.558  23.373   4.117
10499W        W82115  43.520  44.148   3.961
10500W        W82116  28.461  44.356  12.382
10501W        W82117  42.028   1.395   4.326
10502W        W82118  14.695   8.179   1.471
10503W        W82119  21.555  26.089  12.475
10504W        W82120  42.892  26.186   3.148
10505W        W82121  22.657   4.777  14.759
10506W        W82122   9.410  40.117   0.472
10507W        W82123  13.116  42.001   4.115
10508W        W82124  15.913   1.679  10.262
10509W        W82125  32.646  19.191  13.459
10510W        W82126  18.857   5.685   3.104
10511W        W82127  22.147   4.631  14.715
10512W        W82128  11.322  20.803  14.944
10513W        W82129  15.413  22.951   1.721
10514W        W82130  13.662  23.115  11.484
10515W        W82131  34.071  24.067   9.870
10516W        W82132   1.668  15.174   1.244
10517W        W82133   0.415  20.586  13.891
10518W        W82134  14.049  24.032   0.320
10519W        W82135   3.312  43.829   0.253
10520W        W82136  31.561  16.723   3.641
10521W        W82137  29.810   7.355   4.920
10522W        W82138  19.628  14.109   2.345
10523W        W82139   9.610  24.719  11.923
10524W        W82140  43.056  43.249  13.843
10525W        W82141  36.052   2.096   0.876
10526W        W82142  34.843  32.228   0.890
10527W        W82143  32.631  20.556  11.427
10528W        W82144  43.495   5.317   4.667
10529W        W82145   3.533  29.964  11.889
10530W        W82146  24.381  32.641   4.074
10531W        W82147  37.387  40.017   1.744
10532W        W82148  11.546   7.587  10.215
10533W        W82149  15.717  20.424   4.283
10534W        W82150  34.359  19.184  12.354
10535W        W82151  34.163  42.019  14.418
10536W        W82152  10.270  31.218   4.851
10537W        W82153  40.217  38.270  14.885
10538W        W82154  28.570  17.570  11.634
10539W        W82155  38.020  41.571  12.448
10540W        W82156  40.520  33.440   4.329
10541W        W82157  42.906   6.928  13.093
10542W        W82158  40.022  31.173   1.713
10543W        W82159  13.363  43.781  12.516
10544W        W82160  41.052  35.942  14.662
10545W        W82161  12.737  25.990   1.382
10546W        W82162   0.347  19.958  12.425
10547W        W82163  40.621  12.741  12.885
10548W        W82164  24.108  25.359  14.985
10549W        W82165  16.567   4.634  14.223
10550W        W82166   5.386   9.842   1.242
10551W        W82167  44.703   1.017   0.179
10552W        W82168   8.848  15.049   4.422
10553W        W82169   6.046   8.245  10.206
10554W        W82170  39.099  20.251  11.877
10555W        W82171   1.202  11.473  12.563
10556W        W82172   7.652  26.432   0.866
10557W        W82173  41.003  41.043  12.456
10558W        W82174  26.990   6.636  12.022
10559W        W82175  29.437  20.585   0.310
10560W        W82176  42.124  20.240   2.823
10561W        W82177  39.054  43.245  13.656
10562W        W82178  14.249  43.738  13.519
10563W        W82179  30.397  22.739   0.629
10564W        W82180  19.191  11.567   2.332
10565W        W82181  38.817  28.866  12.007
10566W        W82182   7.229  25.238   0.370
10567W        W82183  19.586   4.681   2.257
10568W        W82184  19.732  43.506   2.167
10569W        W82185  25.711  29.428  14.231
10570W        W82186  41.091   9.319   5.146
10571W        W82187  14.147  23.740  11.978
10572W        W82188  16.705   5.382   0.422
10573W        W82189   5.161  23.129  11.482
10574W        W82190   7.272   7.641   3.185
10575W        W82191  24.541   1.805  12.457
10576W        W82192   2.039   6.374  14.417
10577W        W82193  12.726  36.782  13.824
10578W        W82194   3.942  12.242  10.893
10579W        W82195  22.531  16.765   2.182
10580W        W82196  11.786   9.408   2.355
10581W        W82197   8.701  15.505   4.652
10582W        W82198  21.010  32.569   2.428
10583W        W82199  28.643  43.415   3.862
10584W        W82200   6.419  12.444   1.333
10585W        W82201  40.928  40.922   2.802
10586W        W82202   9.390  38.830   1.383
10587W        W82203  30.069  17.194   1.503
10588W        W82204   3.359  13.929   0.498
10589W        W82205  26.642   4.461  12.465
10590W        W82206  13.658   7.416  14.613
10591W        W82207   5.943  17.021  14.888
10592W        W82208  34.413   1.310   4.561
10593W        W82209  24.109  23.748  10.635
10594W        W82210  11.848  30.165   1.782
10595W        W82211   0.135  42.678   3.558
10596W        W82212  23.783  29.605  14.570
10597W        W82213  40.351   0.417  14.590
10598W        W82214  41.524   3.476  12.659
10599W        W82215  39.373   3.286  14.868
10600W        W82216  17.497  19.260  14.064
10601W        W82217  44.790  17.206  12.513
10602W        W82218   1.628  33.908  13.368
10603W        W82219  20.463  33.933   4.114
10604W        W82220   5.275  35.168   1.672
10605W        W82221  42.220  36.831   1.291
10606W        W82222  17.210  14.970   3.878
10607W        W82223  39.450  35.968  10.755
10608W        W82224  14.824  13.802   4.474
10609W        W82225  18.032  26.173  11.501
10610W        W82226  30.669  32.148  12.487
10611W        W82227  22.635  32.438  14.597
10612W        W82228   9.675  33.408   1.429
10613W        W82229  18.253   2.094   1.744
10614W        W82230  38.821  37.667   0.121
10615W        W82231  20.275  35.438  12.848
10616W        W82232  25.742   9.204  12.931
10617W        W82233  13.312  37.276   3.900
10618W        W82234   0.711  31.591   3.742
10619W        W82235  17.033   5.277  14.454
10620W        W82236  32.188  18.576  13.994
10621W        W82237  16.929  31.547   3.530
10622W        W82238  33.655  12.722  14.505
10623W        W82239  17.216  33.026   1.415
10624W        W82240  10.634   9.072  12.048
10625W        W82241  44.329  26.394   1.194
10626W        W82242  14.736   5.239   2.491
10627W        W82243  18.604   2.714   0.480
10628W        W82244  12.182  13.247   0.176
10629W        W82245   4.832  25.166  14.957
10630W        W82246  23.118  21.229  14.962
10631W        W82247   3.817   0.732   5.432
10632W        W82248   2.942   8.109  10.660
10633W        W82249   9.792  44.758   2.737
10634W        W82250  12.395  37.348   4.573
10635W        W82251   7.044  28.518  10.726
10636W        W82252  39.325  44.512  10.711
10637W        W82253  42.609   6.633  11.617
10638W        W82254  33.595   8.397  10.428
10639W        W82255   3.972  21.567   4.522
10640W        W82256  13.067  44.243  14.333
10641W        W82257  17.230  25.876   2.575
10642W        W82258  31.245  34.070  13.858
10643W        W82259  44.544  33.314  10.136
10644W        W82260  21.220   3.916  14.842
10645W        W82261  44.268  40.421  12.019
10646W        W82262  28.219  19.087  11.521
10647W        W82263   6.721  19.289   4.574
10648W        W82264  13.448   2.862   0.578
10649W        W82265  30.105  10.416   4.137
10650W        W82266  25.434   9.583  11.956
10651W        W82267  17.648  24.823   1.777
10652W        W82268   5.401  32.438  14.361
10653W        W82269  30.392  28.633  10.684
10654W        W82270  29.541  42.865  10.652
10655W        W82271  20.715   0.224   0.914
10656W        W82272  44.258  12.092   1.077
10657W        W82273  15.162  27.267  11.648
10658W        W82274  42.320   1.803  13.895
10659W        W82275  12.449   4.015   2.783
10660W        W82276  12.227  22.072   0.093
10661W        W82277  31.398  43.744   1.332
10662W        W82278  35.506   8.475   0.945
10663W        W82279  24.926  37.084  10.945
10664W        W82280  34.044   5.926  10.452
10665W        W82281   6.608  11.141  13.465
10666W        W82282  20.716   2.482   4.517
10667W        W82283  10.587  40.929  11.337
10668W        W82284   0.425   5.199  14.260
10669W        W82285   5.137  15.743  14.294
10670W        W82286  22.639  15.178  12.603
10671W        W82287  14.826  17.262  14.530
10672W        W82288   7.880   1.191  12.378
10673W        W82289  17.235  27.898   5.020
10674W        W82290   0.538  10.882  11.140
10675W        W82291  23.477  10.743   1.415
10676W        W82292  28.035  27.861   0.818
10677W        W82293  17.091  32.651   3.685
10678W        W82294  29.012  14.059  12.440
10679W        W82295  20.931  31.199   0.304
10680W        W82296  20.662  16.160   0.790
10681W        W82297   3.864   8.152  10.725
10682W        W82298   3.725   8.717  12.966
10683W        W82299  28.068  10.563  10.539
10684W        W82300  32.625  36.535   2.054
10685W        W82301  43.949   6.139   1.389
10686W        W82302   2.908   3.336   4.642
10687W        W82303  20.288   4.897  11.143
10688W        W82304   2.843  25.076   3.244
10689W        W82305  31.810   6.051   9.718
10690W        W82306  23.102  16.155  13.606
10691W        W82307  29.110  36.206  12.592
10692W        W82308  35.877  29.302  12.086
10693W        W82309  27.715  27.576   1.840
10694W        W82310  10.278  37.807  13.872
10695W        W82311  25.340  19.740  14.339
10696W        W82312  34.122   5.875   4.507
10697W        W82313  22.678  17.518  12.906
10698W        W82314  36.358   2.527   3.149
10699W        W82315  36.845  23.542   2.734
10700W        W82316  28.207  40.835  12.476
10701W        W82317  40.575  41.059  13.006
10702W        W82318  38.492  39.656  13.484
10703W        W82319  17.562  12.103   4.522
10704W        W82320  29.858  42.927   0.984
10705W        W82321  44.817  39.857   4.456
10706W        W82322   2.545  34.079   1.927
10707W        W82323  39.146  14.018  14.605
10708W        W82324  36.025  37.670   1.667
10709W        W82325  15.763  18.595   3.444
10710W        W82326  15.361  16.169  11.555
10711W        W82327  36.724  29.313  14.363
10712W        W82328  16.793  30.628  11.625
10713W        W82329  42.799  44.386   1.898
10714W        W82330  37.366  21.975   3.727
10715W        W82331  21.780  28.519   1.717
10716W        W82332  24.676  35.524  14.741
10717W        W82333  17.879   5.464  14.788
10718W        W82334   1.978  23.194  14.851
10719W        W82335  23.498   1.773   0.173
10720W        W82336  11.285  10.387   1.810
10721W        W82337  24.877  13.624  13.831
10722W        W82338  12.407   6.339   1.415
10723W        W82339  21.444  41.529  11.026
10724W        W82340   2.833   2.190  13.515
10725W        W82341  32.435  36.765   1.638
10726W        W82342   4.126  29.037   2.654
10727W        W82343  21.672  29.022   4.266
10728W        W82344  36.081  20.086  11.158
10729W        W82345  31.769  34.159  13.860
10730W        W82346  17.466  17.043  11.362
10731W        W82347  44.757  38.170  13.056
10732W        W82348  10.637  33.790  14.437
10733W        W82349  11.725  44.423   1.673
10734W        W82350  22.180  41.491   1.618
10735W        W82351  43.234  31.840  13.071
10736W        W82352   3.413   5.872  14.062
10737W        W82353  33.639  34.525  13.927
10738W        W82354  11.572  26.130  10.705
10739W        W82355  38.432  33.630   3.169
10740W        W82356  15.156   3.994   1.248
10741W        W82357   4.612  23.869   4.569
10742W        W82358  40.959  20.512   1.940
10743W        W82359  29.053  31.932   3.216
10744W        W82360  29.652  33.623  13.269
10745W        W82361  10.051  21.584  13.075
10746W        W82362   2.415  16.019   0.170
10747W        W82363  43.544  13.780   2.914
10748W        W82364  29.021  44.428   2.346
10749W        W82365  25.857  10.570  12.941
10750W        W82366   0.252  16.249   3.267
10751W        W82367   2.865  39.544   4.148
10752W        W82368   8.614  24.399  14.142
10753W        W82369   7.269  23.527   3.542
10754W        W82370  42.034  11.066  13.039
10755W        W82371   3.429   9.633   4.107
10756W        W82372  39.483   0.002   1.527
10757W        W82373  16.087  36.481  13.025
10758W        W82374  12.548  38.263  14.106
10759W        W82375   7.811  41.542  11.720
10760W        W82376  39.857   7.180  13.882
10761W        W82377  44.036  32.465  11.597
10762W        W82378  10.036  42.916  11.472
10763W        W82379  23.655  20.808  13.391
10764W        W82380  15.099   5.916   0.877
10765W        W82381  15.871   9.845   0.791
10766W        W82382  35.487   3.896  13.001
10767W        W82383  36.841  10.565  12.299
10768W        W82384  25.252  27.216   3.151
10769W        W82385  40.182  26.054   3.628
10770W        W82386  16.514  37.490  14.462
10771W        W82387   8.760  10.578   0.368
10772W        W82388   1.746  20.228  14.561
10773W        W82389  44.734   4.433  11.094
10774W        W82390   5.090  25.019  14.216
10775W        W82391  30.115   8.704  14.460
10776W        W82392  31.449  18.639  10.768
10777W        W82393  20.455  13.842  13.774
10778W        W82394  11.772  10.803  11.923
10779W        W82395  19.199  24.585   0.837
10780W        W82396  24.521  12.225  11.483
10781W        W82397   4.162  42.918   4.862
10782W        W82398  32.581  37.787  12.540
10783W        W82399  31.953  23.502  10.724
10784W        W82400  33.069   1.937  12.979
10785W        W82401  34.662  38.483   1.335
10786W        W82402  40.879  20.037   0.320
10787W        W82403   7.575  19.188   0.841
10788W        W82404  24.487  15.049  11.038
10789W        W82405  13.326   8.870   4.561
10790W        W82406   8.225   2.060  11.634
10791W        W82407  38.046  26.468   1.654
10792W        W82408   5.327  19.883   5.022
10793W        W82409  31.771  32.011   1.730
10794W        W82410  19.781  32.471   2.629
10795W        W82411  31.388   2.454  10.712
10796W        W82412  37.421  10.864   5.553
10797W        W82413  36.942   4.756   0.224
10798W        W82414   2.431  25.015   4.642
10799W        W82415  23.668   6.238   4.146
10800W        W82416  21.638  26.177  11.612
10801W        W82417   9.426  18.076  14.771
10802W        W82418   6.611   8.525   2.336
10803W        W82419  34.413  31.655   3.682
10804W        W82420   7.384  18.000   1.642
10805W        W82421   3.289  14.773   2.555
10806W        W82422   1.796   7.883  11.968
10807W        W82423  24.065  10.458  14.236
10808W        W82424  25.679  19.277   1.971
10809W        W82425  24.948   7.367  10.293
10810W        W82426  33.930  44.959  13.222
10811W        W82427  32.446  25.435  11.921
10812W        W82428  39.238   8.080  14.891
10813W        W82429  27.261  37.962  14.891
10814W        W82430   7.372  39.984   1.366
10815W        W82431  31.037  32.378   4.337
10816W        W82432  38.310   2.179   3.639
10817W        W82433  43.728  28.206  14.015
10818W        W82434  21.653  14.568  13.056
10819W        W82435   0.284  16.566   0.366
10820W        W82436  14.028   4.228  11.960
10821W        W82437  20.473   2.008  11.183
10822W        W82438  43.296  44.510   1.831
10823W        W82439  27.143  18.251   0.558
10824W        W82440  29.409  14.764  11.544
10825W        W82441  21.024   0.277  13.913
10826W        W82442  20.311  26.739   1.763
10827W        W82443  29.727   9.245  13.339
10828W        W82444   5.963  21.674  10.477
10829W        W82445  28.128  12.639  14.878
10830W        W82446  44.495  42.860  11.879
10831W        W82447   5.253   8.006  11.490
10832W        W82448   9.196  39.118   3.426
10833W        W82449   2.514  19.534   0.522
10834W        W82450  15.202  14.819   1.880
10835W        W82451   4.862   9.891   1.266
10836W        W82452   4.408  10.071  10.538
10837W        W82453   8.776   3.433  11.524
10838W        W82454  36.845   7.607  10.990
10839W        W82455  43.423   1.031  14.261
10840W        W82456  16.796  12.212   2.961
10841W        W82457   2.856  24.425  11.089
10842W        W82458  43.815  16.484   3.257
10843W        W82459  19.282  28.984  14.701
10844W        W82460   6.615  33.447  12.177
10845W        W82461  35.284  17.596  14.580
10846W        W82462  11.091  10.371  13.918
10847W        W82463   6.899  19.475   2.833
10848W        W82464  21.421  41.779  13.633
10849W        W82465   8.853  31.544  12.134
10850W        W82466  22.406  27.449   1.522
10851W        W82467  29.865  36.949   2.800
10852W        W82468  11.165   3.063   4.626
10853W        W82469  19.242  35.446  11.200
10854W        W82470  16.152  17.312   4.074
10855W        W82471   5.480  17.171   4.719
10856W        W82472  10.434  22.656   1.666
10857W        W82473  29.632  41.309  13.112
10858W        W82474   3.374  44.019   3.813
10859W        W82475  16.902  44.878  10.684
10860W        W82476  32.589  36.026   4.010
10861W        W82477  30.053  39.336  14.490
10862W        W82478  39.760  18.875   2.720
10863W        W82479   0.938  43.195  12.562
10864W        W82480  24.201  12.384  10.653
10865W        W82481  19.722  15.551  11.547
10866W        W82482  29.376   1.973  13.356
10867W        W82483  44.141  39.327   2.854
10868W        W82484   4.269  32.292  14.309
10869W        W82485  24.168  18.612  14.412
10870W        W82486   4.317  39.535  12.368
10871W        W82487   0.026  20.440   4.190
10872W        W82488  35.441  20.019   1.830
10873W        W82489  42.789  21.118  13.944
10874W        W82490   1.239   6.315  14.043
10875W        W82491  43.252  15.919  14.354
10876W        W82492  44.676  33.041   0.853
10877W        W82493   5.178  34.922  12.123
10878W        W82494  14.524  16.180  11.015
10879W        W82495  36.966  42.174   1.236
10880W        W82496   2.509  11.897   3.583
10881W        W82497  43.428  29.463   4.628
10882W        W82498   5.771  33.124   1.897
10883W        W82499  24.503  32.327   3.666
10884W        W82500   2.843  44.037   2.671
10885W        W82501  32.379  39.611   1.276
10886W        W82502   5.206  13.455   2.562
10887W        W82503  28.273  10.107  13.018
10888W        W82504  11.646  39.845  10.173
10889W        W82505  41.442  36.570  14.376
10890W        W82506   0.756  24.532  14.492
10891W        W82507  34.956  34.255  11.158
10892W        W82508  30.710  21.250  13.005
10893W        W82509  37.946  25.515  13.592
10894W        W82510  23.882  27.437   1.892
10895W        W82511  29.939  14.258   1.076
10896W        W82512  16.212  10.311  10.968
10897W        W82513   4.166  39.819   4.493
10898W        W82514   1.353  14.063   5.187
10899W        W82515  26.159  44.753   2.187
10900W        W82516   1.875  26.218  14.442
10901W        W82517   8.258  43.829  13.044
10902W        W82518   8.737   2.266   3.650
10903W        W82519  33.999  39.746   1.764
10904W        W82520   0.409  22.684   4.619
10905W        W82521  13.623  32.627  14.030
10906W        W82522  18.399  36.400  12.271
10907W        W82523  22.842  32.451  12.620
10908W        W82524  18.591  15.170   1.194
10909W        W82525  42.008   6.211  11.191
10910W        W82526  21.514  41.425  10.489
10911W        W82527   7.254  40.289  13.003
10912W        W82528  43.780  22.359  13.088
10913W        W82529  18.301  23.545  12.921
10914W        W82530  27.908   8.273  14.803
10915W        W82531  31.570   9.871   2.857
10916W        W82532  33.139  26.794  13.494
10917W        W82533   7.163  15.690   3.733
10918W        W82534  20.960  41.478   5.002
10919W        W82535  11.991  17.829   3.818
10920W        W82536   5.430  44.806   5.037
10921W        W82537  30.830   6.305   1.854
10922W        W82538  16.937  16.183  11.664
10923W        W82539  29.890  28.993   0.381
10924W        W82540  13.774   6.435   2.879
10925W        W82541  12.822   6.779  11.090
10926W        W82542  42.908  15.378   0.918
10927W        W82543  43.179  36.081   1.783
10928W        W82544  44.546  35.191  11.271
10929W        W82545  34.382  24.052  10.339
10930W        W82546   4.817  40.948  13.961
10931W        W82547  33.410  31.950  13.740
10932W        W82548  40.024  28.069   0.231
10933W        W82549  42.017   7.893  12.850
10934W        W82550  23.206  42.670  12.584
10935W        W82551  29.696   5.910   1.393
10936W        W82552  16.266  11.948   2.452
10937W        W82553  33.852  42.128   3.962
10938W        W82554  41.354  40.607  12.014
10939W        W82555  33.032  35.287  12.561
10940W        W82556  34.841   2.840   4.291
10941W        W82557  33.427  15.593  12.397
10942W        W82558  27.586   7.870   3.665
10943W        W82559  32.974  28.913  11.922
10944W        W82560  28.205   9.908   1.032
10945W        W82561   5.187   1.413   4.525
10946W        W82562  26.788  39.774  12.963
10947W        W82563  20.210  19.082   4.787
10948W        W82564   8.622   5.052  14.988
10949W        W82565  42.488   1.264   1.895
10950W        W82566  34.140   7.467   3.252
10951W        W82567  40.465  25.822   2.487
10952W        W82568   3.273  16.690   4.882
10953W        W82569  40.612  44.711  11.098
10954W        W82570  20.287   0.477   3.395
10955W        W82571  44.496   4.919  11.957
10956W        W82572  24.178  43.219   2.416
10957W        W82573  32.878  44.934  10.773
10958W        W82574   4.189  13.665   4.588
10959W        W82575  35.069  23.207   1.643
10960W        W82576  31.761  22.237  13.266
10961W        W82577   6.965  22.979   3.678
10962W        W82578  16.176   7.831   2.711
10963W        W82579   6.627   0.292   0.915
10964W        W82580   8.310  17.826   2.858
10965W        W82581  30.599  35.516   0.972
10966W        W82582  22.589  35.516   3.978
10967W        W82583  33.984  15.583  11.085
10968W        W82584   1.964  11.331   4.196
10969W        W82585   7.185  44.741  11.232
10970W        W82586  31.915   4.389  14.958
10971W        W82587  12.720  17.698  14.479
10972W        W82588  42.891  14.413  13.011
10973W        W82589  10.070  36.777   2.684
10974W        W82590   6.221  41.071   3.808
10975W        W82591  36.791  26.274   1.880
10976W        W82592  19.760  43.357  14.993
10977W        W82593  10.593  35.638  12.318
10978W        W82594   7.175  42.362   4.123
10979W        W82595  12.218  10.634  12.471
10980W        W82596  13.097   8.867  10.780
10981W        W82597  33.784  37.996   3.244
10982W        W82598  12.620  23.200   2.345
10983W        W82599  18.230  17.321   2.452
10984W        W82600  32.772   7.720   4.098
10985W        W82601  12.705   4.401   3.507
10986W        W82602  38.373  26.024  13.995
10987W        W82603  16.363   8.125  11.160
10988W        W82604  42.257  29.946  14.651
10989W        W82605  41.523   4.782  12.565
10990W        W82606  38.094  23.860  13.583
10991W        W82607  41.283   8.857  11.584
10992W        W82608  19.566  13.661  12.504
10993W        W82609  19.079  22.489   2.780
10994W        W82610  20.753  23.489  14.810
10995W        W82611   4.846  29.557   3.850
10996W        W82612  33.630  34.169   1.007
10997W        W82613  17.087   5.125   2.925
10998W        W82614  23.301  29.357  11.552
10999W        W82615  39.900  33.662   4.787
11000W        W82616  42.976  12.768  13.950
11001W        W82617  28.542   2.985  13.311
11002W        W82618  37.428  21.797   4.404
11003W        W82619  24.489  42.954   4.954
11004W        W82620  14.257  25.061  13.770
11005W        W82621  11.683  34.400   0.355
11006W        W82622  27.706  29.676   0.448
11007W        W82623  37.308  32.605   4.275
11008W        W82624  12.900  24.300   2.399
11009W        W82625   1.992  44.946  12.885
11010W        W82626  35.957  31.193   4.241
11011W        W82627  11.362  15.553   2.362
11012W        W82628   2.413  22.686   3.607
11013W        W82629  23.340   5.671   4.134
11014W        W82630   5.643   4.405   3.022
11015W        W82631  28.043   5.819   2.321
11016W        W82632  24.973  44.643  12.897
11017W        W82633  37.370  19.745   4.691
11018W        W82634   6.145  18.215  14.371
11019W        W82635  36.412  29.434  11.154
11020W        W82636  34.837  44.293   3.864
11021W        W82637  39.284  28.655  12.409
11022W        W82638  24.490  28.148   1.797
11023W        W82639  16.236  26.317  13.822
11024W        W82640  35.084  41.467  13.419
11025W        W82641  19.546  20.162   1.936
11026W        W82642  13.865   0.906   4.117
11027W        W82643   1.900  39.719  13.181
11028W        W82644   6.473  40.557   0.491
11029W        W82645  20.274   0.826  13.848
11030W        W82646   6.257  23.615   4.558
11031W        W82647  35.791  37.481  13.033
11032W        W82648  31.834  27.212  13.799
11033W        W82649  32.929  32.609   3.531
11034W        W82650  20.436  22.392  10.744
11035W        W82651  28.488  25.556  13.548
11036W        W82652   9.910  21.127  13.267
11037W        W82653  17.563  13.258   4.186
11038W        W82654   4.745  39.906   3.331
11039W        W82655   3.524  41.512  14.810
11040W        W82656  43.429  15.709   3.315
11041W        W82657  38.979   6.804   4.825
11042W        W82658   3.910  23.721  13.364
11043W        W82659  30.100   5.816   1.727
11044W        W82660  23.058   9.853  13.809
11045W        W82661  18.690  43.292  11.099
11046W        W82662  12.658  43.430  12.500
11047W        W82663   7.332  16.604  10.824
11048W        W82664  18.730  31.352  13.402
11049W        W82665   0.964  34.791   3.182
11050W        W82666  33.008  36.189   2.353
11051W        W82667   8.237   9.163  14.188
11052W        W82668  13.611  32.065  13.834
11053W        W82669  39.857  42.998  10.983
11054W        W82670   4.779  35.959   2.226
11055W        W82671  39.278  26.046   2.624
11056W        W82672  27.584   1.065   1.860
11057W        W82673  28.962  36.123   0.041
11058W        W82674  19.710  31.892   4.193
11059W        W82675  15.599  22.207  10.237
11060W        W82676  42.953  14.639   1.445
11061W        W82677   5.813  31.089  11.614
11062W        W82678  34.943  11.674  13.943
11063W        W82679  21.107  43.911   0.829
11064W        W82680  30.191   7.377  14.990
11065W        W82681   4.011   3.705   4.037
11066W        W82682  42.440  26.449  13.992
11067W        W82683  38.470   5.935   0.464
11068W        W82684  24.176  44.464   4.593
11069W        W82685  17.291  23.571   4.858
11070W        W82686  13.202   5.358  13.503
11071W        W82687  15.009  31.410  14.647
11072W        W82688  19.212  22.989   2.817
11073W        W82689   9.043  32.526  14.102
11074W        W82690  14.068  16.716  13.565
11075W        W82691  37.969  36.531  10.766
11076W        W82692  32.569  25.380   2.240
11077W        W82693   9.135  31.828   3.283
11078W        W82694  13.326  10.873  12.842
11079W        W82695  29.510   8.642  10.901
11080W        W82696  36.947  39.830  13.670
11081W        W82697  25.408  23.711   4.651
11082W        W82698   9.252  44.386  10.127
11083W        W82699  22.620  14.093  10.735
11084W        W82700   1.124  35.046   3.593
11085W        W82701  37.905   3.506   4.309
11086W        W82702  20.046  23.779  10.527
11087W        W82703  14.110  33.422  10.647
11088W        W82704  41.164  42.631   3.240
11089W        W82705  36.118  19.135  13.462
11090W        W82706  32.060  23.780  14.542
11091W        W82707  23.448  30.680   2.783
11092W        W82708  37.949  32.143  14.243
11093W        W82709   9.206  16.879  12.490
11094W        W82710  40.998  11.802   2.465
11095W        W82711  22.631  44.729   0.613
11096W        W82712  44.340  37.606  11.133
11097W        W82713  16.114  25.289   2.615
11098W        W82714  13.553  26.179  13.645
11099W        W82715  26.232  21.962  14.286
11100W        W82716  13.658  11.114   3.895
11101W        W82717  24.100   0.812  14.957
11102W        W82718  44.000  30.168   0.539
11103W        W82719  35.462   4.316  13.713
11104W        W82720   3.838   7.813  11.134
11105W        W82721   6.411  44.405   3.687
11106W        W82722  10.420  26.193   3.346
11107W        W82723  15.906   3.200   1.350
11108W        W82724  42.016  39.361   0.840
11109W        W82725  21.010  32.372   1.334
11110W        W82726  13.241  38.820  12.044
11111W        W82727  12.792   3.934   1.756
11112W        W82728  36.737  41.377   0.411
11113W        W82729   8.269  41.995  10.792
11114W        W82730  37.445  43.769  11.232
11115W        W82731   9.674  38.698  14.221
11116W        W82732  35.668  12.222  13.755
11117W        W82733  27.605  33.727  11.560
11118W        W82734  44.009  20.306  12.997
11119W        W82735  28.103  42.211  10.647
11120W        W82736   1.431  26.471  13.079
11121W        W82737  15.276  14.289  14.922
11122W        W82738   7.149  10.259   0.171
11123W        W82739  35.864  31.348  14.877
11124W        W82740   3.854  29.084   4.133
11125W        W82741   1.880  11.478  12.795
11126W        W82742   4.009  30.596  14.216
11127W        W82743  20.224  34.601   1.283
11128W        W82744  21.522  21.631   1.806
11129W        W82745  23.500  25.748   4.651
11130W        W82746   4.016  21.698  10.650
11131W        W82747  30.444  23.101  10.393
11132W        W82748  34.144  13.228   1.852
11133W        W82749  15.506  12.815   1.204
11134W        W82750  25.892  18.998  11.128
11135W        W82751  38.623   8.313  11.477
11136W        W82752  40.399  11.264  14.433
11137W        W82753   9.095  29.099  14.546
11138W        W82754  38.577  19.705  14.956
11139W        W82755  44.469  31.077  12.716
11140W        W82756  30.930   1.746  12.152
11141W        W82757  13.902  15.170  14.400
11142W        W82758  16.707  40.460   2.776
11143W        W82759  12.072  14.877   1.608
11144W        W82760  25.689  14.242   1.337
11145W        W82761  37.920  12.390   3.399
11146W        W82762  15.990  42.583   4.142
11147W        W82763  38.564  31.366  12.995
11148W        W82764  38.622  38.917  12.907
11149W        W82765  30.958  30.094  10.790
11150W        W82766   4.481   0.735   4.250
11151W        W82767  31.690  17.084   2.252
11152W        W82768  18.656  16.808   1.737
11153W        W82769  38.046  38.880  14.908
11154W        W82770  20.145  18.283  11.178
11155W        W82771  23.085   5.286   4.399
11156W        W82772  39.301  25.997  11.475
11157W        W82773  23.555  44.915   0.660
11158W        W82774  13.588   8.328   4.374
11159W        W82775  35.641  22.802   4.132
11160W        W82776  28.600  25.691   0.524
11161W        W82777  18.457  23.911  13.750
11162W        W82778  37.065  22.709   2.370
11163W        W82779   2.205  33.180   0.504
11164W        W82780   3.283  16.333   2.333
11165W        W82781   8.907  23.428  13.361
11166W        W82782   8.511  20.558  13.917
11167W        W82783  43.461  25.731   4.272
11168W        W82784  30.688   8.795  11.596
11169W        W82785  20.473  20.560  14.300
11170W        W82786  36.155  32.416  10.724
11171W        W82787  28.361  19.102   2.634
11172W        W82788  26.246  17.721  10.682
11173W        W82789   7.138  17.229  12.546
11174W        W82790   4.906  37.613  10.352
11175W        W82791  14.665  43.403  13.454
11176W        W82792  13.936  32.388  14.983
11177W        W82793  40.455  30.169   3.667
11178W        W82794  19.646  11.096  11.108
11179W        W82795   1.424  33.424   1.643
11180W        W82796  16.381   2.910   0.720
11181W        W82797  10.606  21.773   0.396
11182W        W82798  18.040  15.314   4.068
11183W        W82799  41.278   3.417  11.670
11184W        W82800   0.748  41.981   1.477
11185W        W82801  23.425  21.801   0.729
11186W        W82802  24.649  23.453   2.033
11187W        W82803  20.937  28.952  14.008
11188W        W82804  25.630   1.790   2.666
11189W        W82805   7.263  35.575   0.410
11190W        W82806  18.650  41.558  14.502
11191W        W82807  31.149  36.944   3.891
11192W        W82808   3.836  13.069   4.112
11193W        W82809  40.029  10.642  14.019
11194W        W82810   3.702  12.725   3.022
11195W        W82811  21.145  10.708   1.364
11196W        W82812  24.599   5.512   1.755
11197W        W82813  29.542  34.268  11.893
11198W        W82814  27.678  15.072   1.609
11199W        W82815  28.637   3.034  14.082
11200W        W82816  11.781  28.496   0.308
11201W        W82817  35.909   8.314   3.525
11202W        W82818  29.638  36.204  13.922
11203W        W82819   2.936  43.949  13.907
11204W        W82820  41.335   8.150   1.329
11205W        W82821  44.264  20.531   4.973
11206W        W82822  34.023  11.356   3.175
11207W        W82823  31.013   5.999   2.258
11208W        W82824  14.295   4.189  13.354
11209W        W82825   0.430  37.587   4.999
11210W        W82826   1.999  44.547   1.605
11211W        W82827   8.707   6.425  10.820
11212W        W82828  35.492  38.637  13.534
11213W        W82829  16.393   1.941   1.605
11214W        W82830  18.485  10.298  12.436
11215W        W82831   8.698  41.585   0.912
11216W        W82832  10.935  22.551   2.503
11217W        W82833  19.840  29.318  13.820
11218W        W82834  26.979  16.071  11.666
11219W        W82835  14.503   3.269  10.993
11220W        W82836  43.884  13.000  14.362
11221W        W82837  22.020  36.323   1.021
11222W        W82838  15.746  42.890  12.340
11223W        W82839  13.189  22.799  10.252
11224W        W82840   0.282  20.153   1.873
11225W        W82841  38.701  20.305   2.685
11226W        W82842  21.168  37.436  12.272
11227W        W82843  14.679   1.143   3.099
11228W        W82844  12.355   5.164  12.341
11229W        W82845  16.579  31.708   4.333
11230W        W82846  29.044  30.540   4.622
11231W        W82847  16.043  28.030  14.479
11232W        W82848  30.621   8.937  12.083
11233W        W82849  19.518  38.949  11.645
11234W        W82850  39.255  41.491  14.932
11235W        W82851  34.641   2.336   3.799
11236W        W82852  37.100  17.419   4.776
11237W        W82853  43.701   9.532   1.802
11238W        W82854  23.153  16.514  13.967
11239W        W82855  35.744  31.163  11.533
11240W        W82856  18.893  42.874  14.260
11241W        W82857   8.242  15.122   1.692
11242W        W82858  25.078  26.957  11.077
11243W        W82859  24.420  33.415  12.067
11244W        W82860  22.930  20.581  12.917
11245W        W82861  35.211  20.991  12.599
11246W        W82862   1.884  34.887  13.381
11247W        W82863  28.597   0.265   3.810
11248W        W82864  30.775   8.592  11.135
11249W        W82865  36.940  44.675  12.566
11250W        W82866  22.801  24.162   3.803
11251W        W82867  17.091  41.454  11.908
11252W        W82868  43.805  38.346  13.446
11253W        W82869  36.426  21.036  13.895
11254W        W82870   0.160   0.916   3.114
11255W        W82871  38.119   7.141   2.886
11256W        W82872  15.245  43.916  12.136
11257W        W82873   0.275  19.746   0.015
11258W        W82874  26.634   3.217   0.846
11259W        W82875  18.685  28.689  14.711
11260W        W82876  22.255  10.910  13.228
11261W        W82877   2.197  26.925  12.630
11262W        W82878  16.690  28.400  14.820
11263W        W82879   7.166  30.489  13.224
11264W        W82880   7.783   5.964   0.039
11265W        W82881  26.957   8.830   4.110
11266W        W82882   2.557  43.891   1.381
11267W        W82883   9.908  14.275  14.463
11268W        W82884  40.834  41.555  13.379
11269W        W82885  41.342  14.824   4.370
11270W        W82886  10.156  22.264   3.179
11271W        W82887   6.672   3.373  12.521
11272W        W82888  10.899  10.800   2.346
11273W        W82889  32.914  21.715   2.190
11274W        W82890   2.728  27.002   3.898
11275W        W82891  24.122   5.669  12.116
11276W        W82892  44.015   4.947  14.279
11277W        W82893  31.067  10.288   1.381
11278W        W82894  39.838  16.451   3.591
11279W        W82895   7.647  32.658  13.001
11280W        W82896   2.839  15.162   0.847
11281W        W82897  24.741   5.809   2.861
11282W        W82898  11.545  42.374  11.016
11283W        W82899  43.979  33.748   1.056
11284W        W82900  21.480  29.039  10.615
11285W        W82901   8.892  19.581   3.812
11286W        W82902   4.204  25.296  11.785
11287W        W82903  14.375  43.863  12.674
11288W        W82904  44.087  11.353   2.103
11289W        W82905   4.204  34.937   4.118
11290W        W82906   5.993   1.820   4.564
11291W        W82907   4.202  43.019  10.930
11292W        W82908  22.587  18.247   2.000
11293W        W82909  32.807  27.126   4.624
11294W        W82910  37.342  25.053   3.764
11295W        W82911  19.177  24.059  10.682
11296W        W82912   5.469   0.828   1.538
11297W        W82913   2.077   0.825   4.341
11298W        W82914  38.587  23.255   3.775
11299W        W82915   2.818  26.143  13.840
11300W        W82916  42.416   1.375  12.629
11301W        W82917  37.504   5.174  13.384
11302W        W82918   9.433  23.642   2.048
11303W        W82919   9.097  15.083   1.725
11304W        W82920  26.861  32.108  10.547
11305W        W82921  15.273  10.763   0.536
11306W        W82922   7.858  38.555   0.749
11307W        W82923  25.246   1.871   3.012
11308W        W82924  30.685  21.542  12.557
11309W        W82925  30.575   9.362  12.865
11310W        W82926  14.364  35.204   2.296
11311W        W82927  42.309   7.393  13.421
11312W        W82928  19.302  28.602  11.084
11313W        W82929  37.936  31.081  14.511
11314W        W82930  27.380  10.860   2.884
11315W        W82931  38.016  35.165   3.678
11316W        W82932  22.033  19.137  13.880
11317W        W82933   8.386   6.547  14.354
11318W        W82934   7.813  34.085   1.455
11319W        W82935  37.511  15.534  10.220
11320W        W82936  18.354  34.344   1.359
11321W        W82937  34.391   9.572   4.059
11322W        W82938  14.829  40.862   0.507
11323W        W82939  26.514  44.191   3.500
11324W        W82940   1.880  14.346   0.398
11325W        W82941  41.530  27.951  14.188
11326W        W82942  39.425   8.440  14.007
11327W        W82943  44.410  33.659   1.996
11328W        W82944  24.066  15.815  12.964
11329W        W82945   9.893  23.233   4.153
11330W        W82946  32.420  35.999   1.658
11331W        W82947  18.197   9.288  12.883
11332W        W82948  32.017   3.534   1.262
11333W        W82949  37.195   5.984  13.730
11334W        W82950   0.869   6.855  12.892
11335W        W82951  43.972   0.065   3.702
11336W        W82952  20.193   3.576   3.243
11337W        W82953  35.566  20.290   2.261
11338W        W82954   4.860  21.716   5.050
11339W        W82955  24.796  29.406  14.789
11340W        W82956  10.869  30.117  11.414
11341W        W82957  37.186  43.735   0.910
11342W        W82958  30.492  37.966   0.643
11343W        W82959  16.634  34.410  12.912
11344W        W82960  23.737  21.802  14.421
11345W        W82961  27.952   3.594  12.973
11346W        W82962  22.363  26.718  11.574
11347W        W82963  17.096  13.353   2.894
11348W        W82964  18.045  41.356  14.501
11349W        W82965  31.556  42.922   4.980
11350W        W82966  17.240  21.029  14.333
11351W        W82967  29.235   3.110   9.834
11352W        W82968  34.529  17.636   4.603
11353W        W82969  15.175   2.433  12.594
11354W        W82970  37.993   5.045  13.430
11355W        W82971   0.894  42.523  13.674
11356W        W82972  30.929  21.796   1.234
11357W        W82973  31.639   8.605  14.496
11358W        W82974  34.703  36.606  12.864
11359W        W82975  38.622  11.927  14.757
11360W        W82976  14.725  37.828  14.566
11361W        W82977  38.860  18.276   1.975
11362W        W82978  41.978  40.027   3.225
11363W        W82979  25.672  27.608  14.867
11364W        W82980   8.395  34.405  13.341
11365W        W82981  38.355   5.262   4.107
11366W        W82982  19.118   9.766   2.924
11367W        W82983  27.995  34.137  12.115
11368W        W82984  28.670  18.663   2.596
11369W        W82985  25.966   2.736  12.433
11370W        W82986  26.392   7.164   2.355
11371W        W82987  37.940   2.484   0.468
11372W        W82988   1.256   6.662   4.475
11373W        W82989  28.520  31.879  10.484
11374W        W82990  15.746  19.659   4.946
11375W        W82991  41.908  35.790  14.300
11376W        W82992  26.406   8.304  14.865
11377W        W82993   3.366   9.495   2.239
11378W        W82994   7.573  24.495  13.534
11379W        W82995  13.310  40.426  12.004
11380W        W82996  44.074  26.553  12.013
11381W        W82997  11.803  12.953   0.406
11382W        W82998  29.938   0.311  13.515
11383W        W82999  29.389   6.628  14.257
11384W        W83000  38.946  33.011  10.471
11385W        W83001   3.537  28.999  10.452
11386W        W83002  43.242   6.897  14.022
11387W        W83003  33.562  44.042  11.620
11388W        W83004  33.970  44.406   4.995
11389W        W83005  16.063   6.174   0.469
11390W        W83006  40.882   3.281  13.301
11391W        W83007  28.765  40.326  12.939
11392W        W83008  40.355   8.628  12.791
11393W        W83009  19.177  28.243  10.722
11394W        W83010  25.339  36.090  12.390
11395W        W83011  42.042  19.662  14.780
11396W        W83012  33.321  11.444  13.972
11397W        W83013  39.480  22.692  13.693
11398W        W83014  15.102  16.864   1.685
11399W        W83015   9.816  33.025  10.746
11400W        W83016  37.787  25.450   4.076
11401W        W83017   3.518  44.710  13.980
11402W        W83018  19.203   4.305  12.006
11403W        W83019  28.585  27.383   3.410
11404W        W83020  12.167   8.264   0.879
11405W        W83021  16.600  25.159  11.110
11406W        W83022  34.518  31.607   2.729
11407W        W83023  31.166  11.199   1.867
11408W        W83024   6.745  27.414  14.476
11409W        W83025   7.328  27.189   2.686
11410W        W83026   2.492  31.857   3.587
11411W        W83027   5.563  20.463   4.148
11412W        W83028  22.583  28.136  14.798
11413W        W83029  26.405  29.539  12.557
11414W        W83030  44.452  40.919  10.305
11415W        W83031   0.380  28.451  11.416
11416W        W83032  25.097  23.215   4.187
11417W        W83033  11.819  32.598  10.719
11418W        W83034  21.218  40.762  14.280
11419W        W83035   7.813  31.047   2.599
11420W        W83036  23.748   8.682   1.841
11421W        W83037  10.326  20.570  14.954
11422W        W83038  34.491   6.430   3.260
11423W        W83039  13.549   0.729  13.445
11424W        W83040   9.787  36.526   2.312
11425W        W83041  22.141  17.118   4.093
11426W        W83042  40.441  36.352  14.753
11427W        W83043  42.329  39.454   2.134
11428W        W83044  21.156  44.323   0.033
11429W        W83045  34.773  12.821  11.454
11430W        W83046  29.111  31.549  14.778
11431W        W83047  19.155   5.171  10.637
11432W        W83048  11.686  18.525   3.438
11433W        W83049  39.936   6.288   4.397
11434W        W83050  36.870   9.104  13.910
11435W        W83051  23.446  36.407   3.111
11436W        W83052  17.167  25.523   1.804
11437W        W83053  37.339  21.017   1.835
11438W        W83054   6.268  34.582  13.457
11439W        W83055  20.822  44.830  12.612
11440W        W83056   0.132  42.781   2.275
11441W        W83057  26.905  43.267  12.301
11442W        W83058  32.446  36.789  12.908
11443W        W83059  36.296   3.793  13.810
11444W        W83060  23.946  16.784  11.635
11445W        W83061   1.279  33.105  11.541
11446W        W83062  14.561  41.401  14.074
11447W        W83063  11.379  13.561   3.200
11448W        W83064  14.535  17.321   0.901
11449W        W83065  18.527   7.623  13.463
11450W        W83066  34.640  26.195   0.454
11451W        W83067   1.894  35.273   3.828
11452W        W83068   7.865  31.525  11.319
11453W        W83069  29.205  24.186   1.441
11454W        W83070  22.091   4.293  10.757
11455W        W83071   9.190  26.984   2.284
11456W        W83072  22.348   3.912   2.870
11457W        W83073  16.738  18.692   3.438
11458W        W83074  22.470   9.411  11.535
11459W        W83075  10.604  38.081   2.915
11460W        W83076  39.274  24.740  12.113
11461W        W83077  36.997   6.964  10.649
11462W        W83078  38.644  12.097  13.839
11463W        W83079   7.247  29.770   0.364
11464W        W83080  33.120  13.246  10.596
11465W        W83081  44.873  34.984  14.720
11466W        W83082  10.247   5.891   3.369
11467W        W83083  30.448  33.934  13.099
11468W        W83084  22.150  26.650   0.867
11469W        W83085  23.287  27.410   1.242
11470W        W83086   3.458  30.919   3.184
11471W        W83087  30.098   8.264   1.268
11472W        W83088  41.778  16.724   0.320
11473W        W83089  23.319  14.554   4.691
11474W        W83090  19.422  32.755   4.502
11475W        W83091   3.219  35.828   0.360
11476W        W83092  22.819  25.641   0.260
11477W        W83093  41.508   4.698  10.796
11478W        W83094   5.268  16.787  11.201
11479W        W83095  12.366  42.490  10.736
11480W        W83096  34.206  37.018   0.327
11481W        W83097   1.498   9.397   2.290
11482W        W83098  36.640   4.905  13.521
11483W        W83099  28.019  12.092  11.534
11484W        W83100  16.139   2.235   4.909
11485W        W83101  14.763   8.652  12.940
11486W        W83102  35.931  11.808  10.687
11487W        W83103  14.610  28.193  12.518
11488W        W83104  18.020  18.319   3.673
11489W        W83105  31.657   8.096  13.403
11490W        W83106  22.271   1.077  13.027
11491W        W83107  29.695  38.501   2.238
11492W        W83108  25.613  35.611  14.848
11493W        W83109  15.785  24.006   4.492
11494W        W83110  24.061  15.785  10.357
11495W        W83111   3.772  14.426   3.697
11496W        W83112  30.642  22.708   4.520
11497W        W83113  37.616  15.174  11.394
11498W        W83114  32.375  43.821  14.975
11499W        W83115  44.971  23.298   3.551
11500W        W83116   7.990  18.236  14.825
11501W        W83117  13.266  40.309  13.538
11502W        W83118   7.287   9.514  12.946
11503W        W83119  29.493   8.620  14.860
11504W        W83120  13.861  32.860   0.278
11505W        W83121  19.583  19.230   4.166
11506W        W83122  38.915   8.730  11.627
11507W        W83123   6.262  38.500  13.204
11508W        W83124  41.511  35.574  12.457
11509W        W83125   6.456  39.051   1.323
11510W        W83126   4.651  31.451  13.640
11511W        W83127  37.169  19.630  12.550
11512W        W83128   1.811  19.099   1.413
11513W        W83129  15.601   3.669   5.472
11514W        W83130  40.921  18.211   2.904
11515W        W83131  42.421  43.946  13.581
11516W        W83132  11.024  20.974  12.525
11517W        W83133  12.755  27.677  11.755
11518W        W83134   0.873   3.488   3.069
11519W        W83135  12.078   0.897  11.207
11520W        W83136  25.832  34.902   4.113
11521W        W83137  40.869  16.511  11.082
11522W        W83138  43.323  41.108  12.012
11523W        W83139   0.513   6.353   0.891
11524W        W83140  36.416  36.993  10.653
11525W        W83141   4.243  16.847  11.173
11526W        W83142  14.082  11.298  12.533
11527W        W83143  43.890  25.556   4.066
11528W        W83144  41.720  16.267  12.055
11529W        W83145  27.512  24.362   0.680
11530W        W83146  36.276  37.488  12.849
11531W        W83147  12.109  19.795  12.778
11532W        W83148  37.577   6.454  13.120
11533W        W83149  17.425  35.956   2.233
11534W        W83150   4.807  19.478  13.878
11535W        W83151  20.357  19.747   4.053
11536W        W83152  41.075  37.281   2.114
11537W        W83153  33.546  17.612  11.479
11538W        W83154  12.444  13.630   2.970
11539W        W83155  17.164  16.675  10.526
11540W        W83156  13.678  31.516   1.659
11541W        W83157  43.513  11.375  13.448
11542W        W83158   8.719  31.903  14.911
11543W        W83159  20.556   1.953  13.458
11544W        W83160  16.215  12.890  14.273
11545W        W83161   7.608  27.662   2.777
11546W        W83162  43.264  44.334  11.895
11547W        W83163  23.764  15.918  12.452
11548W        W83164  16.321  36.682   2.310
11549W        W83165  35.992   3.978  12.586
11550W        W83166  37.398  20.461  12.045
11551W        W83167   0.063  40.609  13.097
11552W        W83168  34.593  14.181   0.929
11553W        W83169  15.665  34.611   1.301
11554W        W83170  42.836  26.994  11.052
11555W        W83171  34.071  33.958  11.408
11556W        W83172   7.972  29.864  11.241
11557W        W83173  21.485   8.585   0.828
11558W        W83174  40.602  19.987  12.481
11559W        W83175  35.867  15.208  11.852
11560W        W83176  30.787   1.315   4.600
11561W        W83177  36.488  42.494   4.880
11562W        W83178  32.159   8.381  11.578
11563W        W83179   0.457  19.111  12.376
11564W        W83180   5.783  31.930   3.347
11565W        W83181   1.786  18.567   1.481
11566W        W83182  34.144  18.254  11.437
11567W        W83183  38.935  22.575   1.411
11568W        W83184  17.307  21.249   1.185
11569W        W83185  30.449  44.811   3.387
11570W        W83186  38.996  13.997   2.337
11571W        W83187  29.567  25.237  11.648
11572W        W83188  14.317  37.055   2.267
11573W        W83189  34.742  17.351   9.898
11574W        W83190   2.689  37.479   4.655
11575W        W83191  39.544  18.727   2.259
11576W        W83192  10.076  32.390  12.464
11577W        W83193  28.199  39.881   1.675
11578W        W83194   0.031   3.562  11.700
11579W        W83195   0.204   5.866   3.677
11580W        W83196  22.413  11.783  14.624
11581W        W83197  32.887   3.233  10.695
11582W        W83198  36.428  25.644   0.756
11583W        W83199  22.009  32.063   0.202
11584W        W83200   9.478   5.972  13.916
11585W        W83201  32.905  38.342   4.125
11586W        W83202  34.529  43.185  13.505
11587W        W83203  38.591  35.453   2.622
11588W        W83204  38.431  28.568   3.902
11589W        W83205  23.399   7.783   4.516
11590W        W83206   2.907  10.969   0.419
11591W        W83207  11.580   9.645  11.108
11592W        W83208  39.580  42.915   0.803
11593W        W83209   4.321  30.368  12.361
11594W        W83210  22.489  25.197   0.215
11595W        W83211  26.863  36.003  13.080
11596W        W83212   2.270  42.860  12.255
11597W        W83213   2.714  13.560  14.590
11598W        W83214  43.131  35.385   0.170
11599W        W83215  42.225  31.819   3.065
11600W        W83216  23.710  11.579   1.501
11601W        W83217   6.842  29.705   3.290
11602W        W83218  18.722  31.885  13.426
11603W        W83219   0.301  30.460   3.400
11604W        W83220   3.484  32.588   4.713
11605W        W83221   7.189  39.668  14.514
11606W        W83222  24.452  28.522   4.769
11607W        W83223   7.005  22.647   4.127
11608W        W83224   1.019  27.093   1.011
11609W        W83225  15.269  37.254   0.793
11610W        W83226   8.619  21.833  13.892
11611W        W83227  28.912   7.271  11.184
11612W        W83228  11.823  24.761  10.792
11613W        W83229   4.512  31.952  11.410
11614W        W83230  22.052   4.209   0.028
11615W        W83231  43.404  42.963  14.400
11616W        W83232  36.870  36.016  11.031
11617W        W83233  39.815  43.049   4.447
11618W        W83234  23.088   5.513  12.115
11619W        W83235   8.868  21.074   4.574
11620W        W83236  36.876  39.237   4.872
11621W        W83237  35.164  44.008  12.388
11622W        W83238  38.122  37.417  13.589
11623W        W83239  20.905  40.017  13.980
11624W        W83240  13.215  40.364   3.434
11625W        W83241   5.994  31.939  10.972
11626W        W83242  15.774  21.769   0.968
11627W        W83243  34.380  32.100   2.706
11628W        W83244  43.199  44.184   2.237
11629W        W83245  40.096   2.717  14.509
11630W        W83246  11.624  37.003   3.883
11631W        W83247  39.494  39.133  13.032
11632W        W83248   6.757  18.819   3.861
11633W        W83249  10.009  15.214   1.465
11634W        W83250  41.624  21.683  11.118
11635W        W83251  33.904   3.044  12.542
11636W        W83252   1.936  19.990   1.812
11637W        W83253  16.826   8.239   0.817
11638W        W83254  34.586  33.494   1.866
11639W        W83255   5.956  21.513   0.033
11640W        W83256   2.703  12.749   0.745
11641W        W83257   6.190   9.295  11.100
11642W        W83258  28.175  38.068   9.956
11643W        W83259  34.432  13.590   2.847
11644W        W83260   7.857  30.593   1.703
11645W        W83261  25.985  12.302  13.103
11646W        W83262  40.933  37.909  14.506
11647W        W83263  26.962  10.488  14.371
11648W        W83264  32.402  22.575   2.425
11649W        W83265  21.429  44.900   2.860
11650W        W83266   5.118  37.277   0.877
11651W        W83267   0.749  17.722   1.473
11652W        W83268  31.461  20.131   1.256
11653W        W83269  29.138   5.934   4.013
11654W        W83270  23.646   6.670  12.242
11655W        W83271  10.488  42.014  13.933
11656W        W83272  10.701  30.675  14.204
11657W        W83273  17.070  37.076   4.251
11658W        W83274   5.243  31.519  12.977
11659W        W83275  31.366  29.388   0.706
11660W        W83276  38.855   2.980   2.625
11661W        W83277  24.746  40.051  13.140
11662W        W83278  39.261   9.836   0.945
11663W        W83279  33.861  11.940  12.034
11664W        W83280  41.943   6.648  10.504
11665W        W83281  29.924  14.620  14.435
11666W        W83282  22.747  14.182  11.255
11667W        W83283   3.880  35.018  13.369
11668W        W83284  15.341  31.993   1.325
11669W        W83285   5.279  11.851  12.443
11670W        W83286  15.705   4.197   2.708
11671W        W83287  17.534  44.221  10.127
11672W        W83288  24.881  16.895   4.065
11673W        W83289  13.121  12.752  12.547
11674W        W83290  32.405  31.058   4.115
11675W        W83291  26.153  32.199   3.649
11676W        W83292  21.101  42.771  14.815
11677W        W83293  15.111   8.939  11.692
11678W        W83294   9.335  30.356  13.802
11679W        W83295  42.536   5.858   2.703
11680W        W83296  26.055   2.032  13.853
11681W        W83297  19.073  30.046   2.894
11682W        W83298  34.400  35.973   1.741
11683W        W83299  37.466   0.376  12.202
11684W        W83300  44.192  24.967   3.285
11685W        W83301  21.298  23.545   2.621
11686W        W83302  37.163   1.068  11.144
11687W        W83303  13.705  16.085  14.264
11688W        W83304  42.938  12.111  12.945
11689W        W83305  44.758  35.385   0.401
11690W        W83306  37.940   7.431   3.294
11691W        W83307  23.394  40.774  11.992
11692W        W83308  37.407   8.291  12.526
11693W        W83309  35.069   4.612   0.920
11694W        W83310  10.286  25.941  12.986
11695W        W83311   6.096  36.964   4.300
11696W        W83312  27.010  15.324  12.616
11697W        W83313  25.723  43.028  12.560
11698W        W83314  30.637  25.241  11.536
11699W        W83315  22.585  37.130  14.948
11700W        W83316  13.809   0.214   3.172
11701W        W83317  18.296  37.586  12.509
11702W        W83318   0.682   5.617   1.314
11703W        W83319   3.877  37.131   2.903
11704W        W83320  32.614  13.363  11.412
11705W        W83321   5.243  29.622   1.706
11706W        W83322  18.179  26.080   0.486
11707W        W83323   2.404  39.852  13.072
11708W        W83324   1.481  44.857   3.752
11709W        W83325  32.005   5.179   3.681
11710W        W83326  11.615   0.992   4.685
11711W        W83327  26.934  10.643  11.860
11712W        W83328  19.322   5.672  12.236
11713W        W83329  42.179  21.748  11.908
11714W        W83330  42.017   9.335  11.758
11715W        W83331  33.132  38.099  11.106
11716W        W83332  14.026  35.795   0.874
11717W        W83333   8.713  12.366  11.868
11718W        W83334  23.150  30.165   2.922
11719W        W83335   4.533  42.962  13.080
11720W        W83336  43.600  34.927   3.963
11721W        W83337   5.097  10.819  10.688
11722W        W83338  19.140   3.975  13.511
11723W        W83339  34.343   0.402  11.525
11724W        W83340  22.704  15.636   4.448
11725W        W83341  31.107  36.414  10.395
11726W        W83342  44.670   2.369  12.135
11727W        W83343  16.592  25.087   3.343
11728W        W83344  26.035  43.471   0.176
11729W        W83345  11.335  40.875   2.425
11730W        W83346  16.088  36.865   2.747
11731W        W83347  29.089  41.007   0.260
11732W        W83348   9.860  41.819  10.869
11733W        W83349  39.339  26.289   4.159
11734W        W83350  33.408  23.565   1.327
11735W        W83351  34.505  34.003   1.992
11736W        W83352  42.641  34.100   3.201
11737W        W83353  35.061  32.210  12.850
11738W        W83354   0.565  35.334   5.158
11739W        W83355  31.125  10.852   3.609
11740W        W83356  26.438  42.415  13.738
11741W        W83357  41.280  20.142  13.827
11742W        W83358  18.080  30.914  13.406
11743W        W83359  21.186  26.023   4.485
11744W        W83360   2.487  14.591   0.434
11745W        W83361  32.939  31.571  14.465
11746W        W83362  10.250  37.937  14.409
11747W        W83363   6.241  41.512   0.334
11748W        W83364  35.918  26.728   2.661
11749W        W83365  35.159  23.663   4.232
11750W        W83366   7.309   5.777  14.851
11751W        W83367  23.643  34.094  13.436
11752W        W83368  25.541  34.490   0.289
11753W        W83369   7.941  32.817  11.650
11754W        W83370   3.282  13.787   4.344
11755W        W83371  11.072  43.792   2.298
11756W        W83372   8.196  40.299   2.609
11757W        W83373  20.276   7.361   4.917
11758W        W83374  34.366  32.379   0.699
11759W        W83375  16.081  15.160   5.511
11760W        W83376  25.208  18.570  12.695
11761W        W83377  11.694   5.767   2.584
11762W        W83378  29.862   2.083  13.873
11763W        W83379  24.158  29.257  11.217
11764W        W83380   8.972  26.482  12.118
11765W        W83381   0.790  39.503  14.494
11766W        W83382  24.446  42.288  11.517
11767W        W83383  40.087  35.517  11.951
11768W        W83384  31.381  34.873  11.573
11769W        W83385  20.976  41.634  12.863
11770W        W83386  28.167   0.933   2.202
11771W        W83387  34.821  25.077   4.830
11772W        W83388  34.093  12.026   0.486
11773W        W83389  35.405  38.898  12.526
11774W        W83390  41.377  32.215  10.915
11775W        W83391  42.942  13.283   4.339
11776W        W83392   5.594   6.035  10.935
11777W        W83393  25.566  35.750   2.554
11778W        W83394   0.756  39.449   2.008
11779W        W83395  31.489   8.438  12.041
11780W        W83396  38.276  20.946   1.888
11781W        W83397  11.738  40.043  12.815
11782W        W83398  27.851  15.747   0.027
11783W        W83399   6.288  30.712  10.680
11784W        W83400  22.454   3.322   4.326
11785W        W83401  16.727  22.657  13.700
11786W        W83402  41.815  25.220   1.341
11787W        W83403  11.472  15.169  11.205
11788W        W83404  41.041  11.227  14.772
11789W        W83405  35.614  10.844   0.980
11790W        W83406  35.605  39.108   4.375
11791W        W83407   2.892  42.836   1.827
11792W        W83408   5.331  11.476   4.289
11793W        W83409   3.338   4.832   4.085
11794W        W83410  27.045  18.862   4.092
11795W        W83411  25.171  20.658   4.303
11796W        W83412   5.545  22.856   0.838
11797W        W83413  32.561  16.259  14.990
11798W        W83414   6.335  14.258  14.196
11799W        W83415  10.397  18.517   2.303
11800W        W83416  39.472  16.111  10.388
11801W        W83417  43.298  28.164   4.156
11802W        W83418  38.492  25.500   1.797
11803W        W83419   0.468  39.331   4.008
11804W        W83420  42.349   3.268  12.101
11805W        W83421   1.464   0.999   0.311
11806W        W83422  33.931  39.444  12.617
11807W        W83423  10.866   0.364   2.291
11808W        W83424  29.445   3.976   0.410
11809W        W83425  10.227   0.363  10.048
11810W        W83426  11.822  26.701   3.294
11811W        W83427  14.091  27.022  11.556
11812W        W83428  39.305   6.241  10.029
11813W        W83429  24.208  28.197   0.349
11814W        W83430   3.988  11.736   2.717
11815W        W83431  14.564  23.466  14.340
11816W        W83432   1.757  30.585   3.733
11817W        W83433  11.795  19.497   2.548
11818W        W83434  26.967  32.476   1.411
11819W        W83435  38.722  16.885   4.644
11820W        W83436  41.475  40.405  13.919
11821W        W83437   5.368  14.290  14.975
11822W        W83438  43.444  22.171   0.267
11823W        W83439  12.620  29.634  14.818
11824W        W83440   9.907  11.817   0.321
11825W        W83441  26.112   6.893   1.696
11826W        W83442   2.456   6.552  11.286
11827W        W83443  15.312   2.447   3.371
11828W        W83444   7.320  26.022   0.806
11829W        W83445   4.868  10.940  14.275
11830W        W83446  18.855  38.026   1.328
11831W        W83447  44.304   7.009   2.432
11832W        W83448  43.027   4.236   4.213
11833W        W83449  20.043  27.164  14.840
11834W        W83450  36.966  43.281  12.018
11835W        W83451  43.019  10.128   3.574
11836W        W83452  30.882  17.144   4.140
11837W        W83453  34.667   7.629   1.280
11838W        W83454  15.736  44.837  14.257
11839W        W83455   3.778  41.021   4.503
11840W        W83456   6.432  40.790   2.295
11841W        W83457  28.879  43.255  13.980
11842W        W83458  26.742  41.531   0.587
11843W        W83459  32.612  29.135   4.612
11844W        W83460  32.565  33.599  14.163
11845W        W83461  22.303   5.714   3.241
11846W        W83462   6.673  43.632  14.852
11847W        W83463   5.385  32.482   1.715
11848W        W83464  27.018   9.934   4.123
11849W        W83465   4.248  24.262   2.180
11850W        W83466  41.461  40.067   3.383
11851W        W83467  35.052   6.220  12.942
11852W        W83468  20.124  42.883   4.120
11853W        W83469  20.010  37.332   2.438
11854W        W83470  33.415  37.278  12.165
11855W        W83471  28.131  43.882   4.662
11856W        W83472  33.447  21.221  12.484
11857W        W83473  36.639  28.124   2.381
11858W        W83474   6.973  27.146   3.129
11859W        W83475   3.377   3.000   3.691
11860W        W83476  23.380  16.196   0.318
11861W        W83477   1.266  36.617  12.620
11862W        W83478  25.495  30.973  11.635
11863W        W83479  21.600  29.888  11.613
11864W        W83480  34.772   9.608   1.059
11865W        W83481  23.533  18.560  12.648
11866W        W83482  30.641  29.117   0.681
11867W        W83483   5.249  37.303   4.615
11868W        W83484   8.590  44.969   0.861
11869W        W83485   9.752  35.076   2.238
11870W        W83486  35.281  27.577   0.801
11871W        W83487  27.793  12.728  11.252
11872W        W83488  44.417  20.720  11.613
11873W        W83489   7.922  14.533  11.097
11874W        W83490   6.667   6.688  11.281
11875W        W83491  25.449  10.904   2.189
11876W        W83492   4.447   8.801   1.884
11877W        W83493  40.009  20.800   1.237
11878W        W83494  43.766  40.346  11.959
11879W        W83495  19.358   2.760  11.805
11880W        W83496  42.582  16.755   2.698
11881W        W83497  11.546  22.646  14.219
11882W        W83498  18.481  17.772   2.602
11883W        W83499  10.186  22.288   5.005
11884W        W83500  43.025   6.822   2.703
11885W        W83501  43.571  25.081  12.677
11886W        W83502  15.408  33.542   2.969
11887W        W83503  14.083   9.339   0.710
11888W        W83504  38.937  25.287   2.923
11889W        W83505  21.592   8.651   4.079
11890W        W83506  11.738  26.767   0.731
11891W        W83507  44.808  39.132  14.034
11892W        W83508  33.424   3.237   1.646
11893W        W83509  39.023  30.656   0.247
11894W        W83510   0.353   9.719   0.495
11895W        W83511   1.548  29.484   2.698
11896W        W83512  42.277  36.465  11.122
11897W        W83513  33.912   4.688   2.812
11898W        W83514  37.866  28.604   4.028
11899W        W83515  25.946  38.383  13.909
11900W        W83516  32.623   1.261   4.518
11901W        W83517  11.882  27.020   1.198
11902W        W83518  19.668  42.883  12.582
11903W        W83519  11.850  27.231   3.949
11904W        W83520  35.100   1.530   0.742
11905W        W83521   4.428  15.819   2.188
11906W        W83522  25.554  30.150  13.509
11907W        W83523  24.730  19.307   4.593
11908W        W83524  27.805  26.476  12.257
11909W        W83525  16.699  29.201   4.156
11910W        W83526  42.492  21.327  14.371
11911W        W83527  29.927  22.446  12.037
11912W        W83528  33.702  44.450   2.226
11913W        W83529  23.532  42.558  10.676
11914W        W83530  17.882  43.310   5.136
11915W        W83531  18.880  23.689   2.731
11916W        W83532  42.669  35.341  14.858
11917W        W83533  12.415  41.825   2.437
11918W        W83534  25.173  20.197  11.170
11919W        W83535   7.579  44.352   5.079
11920W        W83536  30.520   4.816   2.325
11921W        W83537  18.571  19.402  10.429
11922W        W83538  18.249  26.954  13.523
11923W        W83539   1.781  13.755  14.781
11924W        W83540   2.742  42.040  12.162
11925W        W83541  10.851   9.380  13.451
11926W        W83542  24.560   6.109  11.192
11927W        W83543  22.652   7.208  13.815
11928W        W83544  17.710  26.252  12.975
11929W        W83545  22.423  21.615   3.611
11930W        W83546   9.531  12.660   4.023
11931W        W83547  21.055  17.556   0.081
11932W        W83548   4.048  18.818  11.493
11933W        W83549   1.788  36.155  14.671
11934W        W83550  33.823  36.589  13.108
11935W        W83551  32.210   6.735  13.025
11936W        W83552  17.600   7.195   2.666
11937W        W83553  26.573  44.572   5.006
11938W        W83554  35.799  17.797  13.020
11939W        W83555  17.022   8.371   2.469
11940W        W83556  35.122  30.556  12.634
11941W        W83557  23.353   0.832  13.877
11942W        W83558  32.563  24.699   4.665
11943W        W83559  19.077  38.718  12.331
11944W        W83560  25.647  28.085   4.529
11945W        W83561  26.675  44.019   2.138
11946W        W83562  38.006  28.228  12.128
11947W        W83563   7.319  30.969   2.390
11948W        W83564  42.462  21.571   0.865
11949W        W83565  10.267  33.185   3.658
11950W        W83566  22.383  29.178  14.143
11951W        W83567  17.541  15.346   4.072
11952W        W83568  14.758  41.042   2.492
11953W        W83569   3.941  23.074   3.537
11954W        W83570  10.177  34.678   1.179
11955W        W83571  35.627   7.612  12.045
11956W        W83572  32.400  38.016   3.407
11957W        W83573  30.464  31.258  11.559
11958W        W83574   7.698   0.804   0.857
11959W        W83575  16.510  43.298   2.737
11960W        W83576  18.208  38.644   4.196
11961W        W83577  18.479  44.768  10.254
11962W        W83578  42.766  43.939   4.690
11963W        W83579   0.146  38.208   9.592
11964W        W83580   2.273  40.691   2.686
11965W        W83581  21.055  29.956   2.627
11966W        W83582   4.792  41.073   4.975
11967W        W83583  18.676  31.962  14.825
11968W        W83584  13.178  27.215   1.802
11969W        W83585  28.869  39.806  12.193
11970W        W83586  44.452   4.520   0.074
11971W        W83587   8.599   2.840  10.964
11972W        W83588  39.984  18.138  12.949
11973W        W83589  17.513  24.563  14.864
11974W        W83590  42.667  34.003  12.870
11975W        W83591   8.279  38.025  10.937
11976W        W83592  11.458  33.395   4.235
11977W        W83593  13.305  12.837  12.026
11978W        W83594  32.456  44.442   5.449
11979W        W83595  17.166   2.374   1.725
11980W        W83596  31.504   6.056   0.044
11981W        W83597   0.744  28.634   3.258
11982W        W83598  42.510  34.510  10.543
11983W        W83599   0.746  29.619  10.707
11984W        W83600   5.617   1.361  14.854
11985W        W83601   5.436  25.126  12.899
11986W        W83602  42.370  36.821   2.342
11987W        W83603  19.559   5.473  13.805
11988W        W83604  40.839   3.282  13.831
11989W        W83605  31.393  27.110  11.099
11990W        W83606  32.232  17.163   2.221
11991W        W83607  30.735   6.953   3.954
11992W        W83608  23.389  11.661  14.953
11993W        W83609   2.229  10.115   4.277
11994W        W83610   2.908  39.613  14.881
11995W        W83611  16.558  15.294   3.174
11996W        W83612  33.832   3.497  10.565
11997W        W83613   6.565  28.543   4.165
11998W        W83614  27.443  18.078   2.885
11999W        W83615  12.919  29.101  13.312
12000W        W83616  10.589  16.885   2.826
12001W        W83617   2.849  11.700  12.887
12002W        W83618  20.696   5.952  12.583
12003W        W83619   3.476   5.318   0.363
12004W        W83620   9.702  17.593  14.807
12005W        W83621  16.325   6.797  12.612
12006W        W83622  12.493   5.447  14.014
12007W        W83623  13.124  32.979  14.929
12008W        W83624  43.235  44.892  11.095
12009W        W83625  17.039   3.780   0.467
12010W        W83626  19.362  43.987   3.688
12011W        W83627  44.557  29.459   5.109
12012W        W83628   7.907   6.185  12.592
12013W        W83629   3.995  16.176  10.651
12014W        W83630   3.028   0.879  10.675
12015W        W83631  32.867  17.980   2.258
12016W        W83632  40.524  18.310   1.180
12017W        W83633  42.848  30.545  13.047
12018W        W83634  33.373  43.863  14.874
12019W        W83635  30.827  23.003  11.375
12020W        W83636   0.305  24.906   2.701
12021W        W83637  37.435   4.818  13.021
12022W        W83638  37.928  31.584  13.527
12023W        W83639  40.468   8.267   0.408
12024W        W83640  20.275  20.611  12.872
12025W        W83641   5.611   9.240   3.307
12026W        W83642  27.011   1.097  14.283
12027W        W83643  26.229  25.288  11.055
12028W        W83644  44.050  11.674  11.187
12029W        W83645  28.427   0.052   0.335
12030W        W83646  39.656  21.271   2.094
12031W        W83647  27.010  29.195  13.699
12032W        W83648  17.226  28.688  10.454
12033W        W83649  28.302  15.212  12.667
12034W        W83650  37.906  38.624   1.413
12035W        W83651  42.988  30.967   1.303
12036W        W83652   6.315  44.368  10.710
12037W        W83653  23.772  20.722   3.180
12038W        W83654   0.612   8.210  10.759
12039W        W83655  11.831  17.618  12.521
12040W        W83656  33.498   3.723   4.470
12041W        W83657   1.999  36.247   1.921
12042W        W83658  14.972  23.794   1.367
12043W        W83659  34.210  16.828  14.020
12044W        W83660  43.315  19.503  11.513
12045W        W83661  41.026  20.123   4.943
12046W        W83662  16.207  28.427  10.820
12047W        W83663   8.362   1.361  14.451
12048W        W83664  35.112  25.887   1.275
12049W        W83665  27.914  32.353   1.406
12050W        W83666   9.454  41.707  11.150
12051W        W83667  40.325   3.669   4.587
12052W        W83668   0.880  11.774  11.061
12053W        W83669  11.332   7.627  14.392
12054W        W83670   5.351  15.939  12.351
12055W        W83671   9.366  18.298  13.423
12056W        W83672  27.649  11.638   1.294
12057W        W83673  10.100  32.641   2.306
12058W        W83674  31.547   4.456  14.159
12059W        W83675   7.847   4.971   2.677
12060W        W83676  38.092  12.381  12.447
12061W        W83677   3.414  11.634  12.908
12062W        W83678   5.368  26.682  13.777
12063W        W83679  19.395  10.452   1.200
12064W        W83680  17.476   0.017   3.208
12065W        W83681  31.867  34.954  11.509
12066W        W83682  18.570  18.283  13.071
12067W        W83683   7.388   0.501   0.499
12068W        W83684  29.562  19.251   1.883
12069W        W83685  36.128  31.349   1.313
12070W        W83686  37.867  33.899  14.462
12071W        W83687  11.358  16.820  10.382
12072W        W83688   9.154  25.538  11.110
12073W        W83689  26.218   0.743   2.370
12074W        W83690  20.969  40.813   3.300
12075W        W83691  42.990  33.432   3.851
12076W        W83692   4.811  34.176  13.449
12077W        W83693  12.772  15.338  10.644
12078W        W83694   9.747  13.382   2.384
12079W        W83695  25.636  37.803   0.724
12080W        W83696  37.040  27.154   4.301
12081W        W83697  17.474  21.747  13.894
12082W        W83698  15.213   9.775  12.222
12083W        W83699  39.021  43.371  11.764
12084W        W83700  38.459  32.812   4.632
12085W        W83701  26.196  41.009   1.708
12086W        W83702  43.314   7.827   4.405
12087W        W83703  36.540  14.402  11.816
12088W        W83704  39.561  17.299  14.014
12089W        W83705  21.619  27.094   1.894
12090W        W83706  21.499  28.192   4.135
12091W        W83707  37.433  39.377   4.706
12092W        W83708  24.521   3.244   1.006
12093W        W83709  33.537  39.811   0.991
12094W        W83710  17.721  28.686   2.361
12095W        W83711   4.441  30.495   0.886
12096W        W83712   6.963   0.231  14.035
12097W        W83713   8.078  28.660   0.440
12098W        W83714  19.904  43.720   5.097
12099W        W83715   6.371   8.458  12.674
12100W        W83716  34.566  41.559   3.993
12101W        W83717  35.468  37.623   3.859
12102W        W83718  41.772  36.554   1.436
12103W        W83719  35.060  14.550  10.952
12104W        W83720  25.766  14.210  12.039
12105W        W83721  36.191  23.267  11.198
12106W        W83722   7.340  33.074  11.952
12107W        W83723  19.402  13.636   2.442
12108W        W83724   8.322  31.333   1.125
12109W        W83725   9.690  40.835   0.318
12110W        W83726  41.424   5.379   2.149
12111W        W83727  21.657  31.376   2.218
12112W        W83728  35.556  36.912   1.840
12113W        W83729  36.389   7.073   3.711
12114W        W83730   6.816  10.714   2.153
12115W        W83731   6.770  18.621  13.954
12116W        W83732   3.697  29.819   0.942
12117W        W83733  35.052  12.212   3.793
12118W        W83734  40.110  20.253  12.669
12119W        W83735  41.463  22.159  10.876
12120W        W83736  22.012  31.687   2.455
12121W        W83737  37.908  26.591   2.460
12122W        W83738  15.526  25.912   3.134
12123W        W83739   0.356  26.207   2.718
12124W        W83740  19.847  39.974   9.901
12125W        W83741  35.495  44.973   3.245
12126W        W83742  10.827  37.539   3.694
12127W        W83743  17.759   9.237  13.551
12128W        W83744  33.989   1.989  12.393
12129W        W83745  28.497  22.159  14.979
12130W        W83746  35.830  43.295  11.945
12131W        W83747   3.159  27.148   1.222
12132W        W83748   0.235  24.326   3.334
12133W        W83749  13.567  32.830  12.649
12134W        W83750  44.074   0.842   0.841
12135W        W83751  29.454  13.432   3.595
12136W        W83752   1.218  33.500   3.218
12137W        W83753  44.237  28.105   1.926
12138W        W83754  27.323  37.654   1.223
12139W        W83755  11.130  21.192  14.099
12140W        W83756   2.069  18.773  14.237
12141W        W83757  38.877  18.333   1.461
12142W        W83758  44.637  19.631   3.636
12143W        W83759   1.859   5.840   4.611
12144W        W83760   6.050  34.081  12.433
12145W        W83761  23.982   9.283  12.430
12146W        W83762  24.774  24.121   3.672
12147W        W83763  30.737  34.833  13.508
12148W        W83764  27.092  10.593  10.655
12149W        W83765  12.126  11.396  12.931
12150W        W83766  42.331  44.494  13.473
12151W        W83767   4.573  14.926   3.143
12152W        W83768  34.981   7.742   4.859
12153W        W83769  38.906  40.313  12.097
12154W        W83770   8.815   3.722  12.828
12155W        W83771  15.173  35.348  13.557
12156W        W83772  28.456   2.243  11.420
12157W        W83773  34.531  42.238  11.218
12158W        W83774   9.234  13.150   3.156
12159W        W83775  22.026  41.520  10.501
12160W        W83776  10.589   5.529  12.713
12161W        W83777  17.290  11.152  11.085
12162W        W83778   5.783  35.530  14.411
12163W        W83779  18.643  24.515   0.329
12164W        W83780  22.935  44.797  13.211
12165W        W83781   4.337  18.515   2.764
12166W        W83782  44.565  15.491  11.141
12167W        W83783  12.876  40.754   3.195
12168W        W83784  13.441   1.365  12.093
12169W        W83785  36.550   6.767   3.207
12170W        W83786  17.165   7.804  12.403
12171W        W83787   8.686  35.067  14.393
12172W        W83788  10.175  11.159  11.111
12173W        W83789  13.283  22.131   2.890
12174W        W83790   3.209  15.715   1.982
12175W        W83791  25.605  27.931  12.488
12176W        W83792   5.988  12.599  12.220
12177W        W83793   3.256  17.139  13.028
12178W        W83794  25.968  30.672  11.548
12179W        W83795  36.443  41.069  10.635
12180W        W83796   1.371   8.277  12.666
12181W        W83797  32.413  19.052   2.835
12182W        W83798   2.793  24.920   3.760
12183W        W83799  18.326   7.302  14.742
12184W        W83800  21.983  26.463   3.197
12185W        W83801  11.072  11.623   4.431
12186W        W83802  14.605   6.282  10.615
12187W        W83803  15.226  17.697  11.888
12188W        W83804   2.558  40.497   2.304
12189W        W83805  14.589  23.533  11.127
12190W        W83806  19.653  22.319  14.253
12191W        W83807   7.367   6.267   4.677
12192W        W83808  42.077  32.454  12.481
12193W        W83809   0.862  12.177  14.076
12194W        W83810  23.441  31.997   4.618
12195W        W83811  40.389   2.928   2.383
12196W        W83812  14.442  23.180  13.931
12197W        W83813  19.681  16.156  10.602
12198W        W83814  43.423  44.711  14.019
12199W        W83815  39.789  35.979  12.024
12200W        W83816  34.752  18.254  11.547
12201W        W83817  35.462  40.467   3.594
12202W        W83818   1.226  40.546   1.763
12203W        W83819  35.697  19.596   2.818
12204W        W83820   6.932  23.157   0.975
12205W        W83821  11.917   6.295   0.480
12206W        W83822  17.550  18.800   3.157
12207W        W83823  33.580  22.639   4.334
12208W        W83824  23.148   8.439  10.730
12209W        W83825   9.362   5.753   2.783
12210W        W83826   2.370  22.101   0.945
12211W        W83827  15.707  17.882  12.618
12212W        W83828  32.918   3.916  11.454
12213W        W83829  30.701  43.829   3.192
12214W        W83830  29.995  28.362  14.904
12215W        W83831  37.459  10.821   4.680
12216W        W83832   9.947  30.306  11.517
12217W        W83833  37.511  33.393   4.743
12218W        W83834  26.050  19.162   1.163
12219W        W83835  16.266  42.011  11.789
12220W        W83836  33.155  31.110   0.331
12221W        W83837   8.552  26.246  14.040
12222W        W83838  31.480  43.946   5.207
12223W        W83839  28.095  19.005  10.572
12224W        W83840  21.939  39.667  11.185
12225W        W83841  30.690   3.428   0.298
12226W        W83842  25.790  37.128   0.457
12227W        W83843   2.261   4.815   2.571
12228W        W83844  36.547  28.971   2.173
12229W        W83845   9.195  43.990   2.680
12230W        W83846  37.049  23.571  10.619
12231W        W83847  43.596  39.406   3.745
12232W        W83848  32.567  42.394  14.366
12233W        W83849  43.317   8.827  12.349
12234W        W83850   1.212  11.284  13.041
12235W        W83851  21.222  28.941   4.556
12236W        W83852   9.372  44.993  14.821
12237W        W83853  29.439   6.330   2.613
12238W        W83854  43.456   0.703  12.904
12239W        W83855  22.082   8.326  11.900
12240W        W83856  18.189  37.320   2.130
12241W        W83857  30.868  30.168   1.745
12242W        W83858  26.235   2.182  11.598
12243W        W83859  32.837  24.225   2.820
12244W        W83860   0.314  28.434   2.399
12245W        W83861  14.214   4.354   4.608
12246W        W83862  43.312  14.078   1.256
12247W        W83863   5.709  14.211   3.411
12248W        W83864  26.593  22.306  11.589
12249W        W83865   5.368   5.865  12.460
12250W        W83866   6.945   1.811   3.787
12251W        W83867  29.500   3.539   5.143
12252W        W83868  20.596  44.826   4.664
12253W        W83869  43.321  17.897   4.201
12254W        W83870  27.662  40.327   2.345
12255W        W83871   8.619  42.908   3.660
12256W        W83872   5.377  24.691   2.444
12257W        W83873  39.957  33.389  11.589
12258W        W83874  39.882   0.339   1.632
12259W        W83875  26.922  13.869   3.602
12260W        W83876  12.149   1.830  11.764
12261W        W83877  35.442  23.942  10.788
12262W        W83878  16.143  28.178   2.825
12263W        W83879   5.606  19.271   0.392
12264W        W83880  19.060  11.890  14.873
12265W        W83881  24.038  17.811   1.837
12266W        W83882   1.406  43.021   4.317
12267W        W83883  31.054   6.161   1.376
12268W        W83884  21.061  43.255  11.617
12269W        W83885  16.043  23.690   0.992
12270W        W83886  37.464  17.462  12.185
12271W        W83887  17.194  38.068   1.276
12272W        W83888  23.777  42.874   2.352
12273W        W83889  35.702   1.764  12.680
12274W        W83890   2.446  12.995  11.168
12275W        W83891  34.638   6.923   3.614
12276W        W83892  28.908   5.189   2.957
12277W        W83893   1.017   8.407  11.023
12278W        W83894  16.838  16.434  11.203
12279W        W83895   9.213  22.947   0.347
12280W        W83896  35.578  28.350  12.360
12281W        W83897  44.964  30.723   2.364
12282W        W83898   5.933  11.570  14.104
12283W        W83899   7.709  11.372  12.391
12284W        W83900   3.460   0.275   3.257
12285W        W83901  16.346  39.304  14.036
12286W        W83902  17.627  10.276  13.397
12287W        W83903   9.923  33.542  11.540
12288W        W83904   4.269  35.892   4.793
12289W        W83905  15.609  20.925   5.047
12290W        W83906  29.399   9.216   4.267
12291W        W83907  30.486   4.593  13.853
12292W        W83908  41.778  18.638   2.895
12293W        W83909  26.245  28.578  11.235
12294W        W83910  38.821  35.422   3.711
12295W        W83911  10.144   0.412  12.314
12296W        W83912  33.944   2.716  13.547
12297W        W83913  41.455   3.791  11.360
12298W        W83914   8.934  41.993  12.344
12299W        W83915  22.177   6.891  11.327
12300W        W83916  41.821  11.355  11.156
12301W        W83917  15.652   5.259   2.737
12302W        W83918  13.594   8.745   3.578
12303W        W83919  26.010  43.450  11.004
12304W        W83920  17.589   1.427   2.793
12305W        W83921  24.153  33.511  12.562
12306W        W83922  15.582  11.192  10.591
12307W        W83923  38.598   6.345   3.277
12308W        W83924   1.900  31.214   2.052
12309W        W83925  20.245   0.908   1.103
12310W        W83926  43.545  13.165  12.989
12311W        W83927  16.307  18.542  13.072
12312W        W83928  43.038  12.445  11.130
12313W        W83929   4.148  43.163   2.251
12314W        W83930  39.053  30.005  11.587
12315W        W83931  19.338  16.335   0.859
12316W        W83932  35.192  43.908   3.798
12317W        W83933  16.742  36.039   0.041
12318W        W83934   2.349  30.730   0.512
12319W        W83935  30.151  38.387   0.425
12320W        W83936  40.260  31.626   0.975
12321W        W83937  44.820  31.178  11.796
12322W        W83938  20.252  17.329   2.910
12323W        W83939  35.397   7.522   3.623
12324W        W83940  18.539  27.637   4.598
12325W        W83941  16.433  44.493   4.320
12326W        W83942  28.803  38.493   3.680
12327W        W83943   2.856  43.386   0.005
12328W        W83944  19.168  33.742  10.615
12329W        W83945   8.414  40.457  11.954
12330W        W83946  37.627  32.168  12.295
12331W        W83947   0.916  30.586   5.105
12332W        W83948  19.691  16.988  11.656
12333W        W83949  36.921  16.375  13.309
12334W        W83950  13.257   4.211  14.626
12335W        W83951   9.674  40.437  14.348
12336W        W83952  41.492   9.236  14.543
12337W        W83953   0.165   0.673  11.019
12338W        W83954  43.266  39.142   4.639
12339W        W83955  31.254  18.391   0.231
12340W        W83956  24.600  10.301  14.123
12341W        W83957  33.245  34.967  11.571
12342W        W83958  21.686  33.548  11.328
12343W        W83959   9.806  24.842  13.947
12344W        W83960  36.887  16.595   3.241
12345W        W83961  41.223  13.745  13.378
12346W        W83962  25.469  38.097  14.495
12347W        W83963  43.368  15.267  11.296
12348W        W83964  10.354  31.974  13.552
12349W        W83965   4.823   1.096   2.264
12350W        W83966  23.109  26.341  10.263
12351W        W83967   3.143  10.832  13.547
12352W        W83968  10.187  22.024  12.375
12353W        W83969  33.872  18.642  11.594
12354W        W83970  23.824  36.011  10.688
12355W        W83971  10.660  25.026   2.319
12356W        W83972  10.147   7.934   1.804
12357W        W83973  38.835  30.288   1.827
12358W        W83974   5.286  36.514  10.597
12359W        W83975  36.697  21.825  11.317
12360W        W83976  20.889  34.282   2.090
12361W        W83977  29.071  16.436  12.906
12362W        W83978  21.925  32.885  10.651
12363W        W83979  36.062   3.226   0.385
12364W        W83980   0.245  11.244  11.422
12365W        W83981  21.187   8.015  14.768
12366W        W83982  11.013   0.368  11.350
12367W        W83983  40.305  29.903   4.112
12368W        W83984  37.988  15.463   1.275
12369W        W83985   0.543  41.915   3.645
12370W        W83986  24.775   3.385   3.644
12371W        W83987  44.547  13.342   3.620
12372W        W83988  12.881   4.723   4.773
12373W        W83989  35.415   7.379  14.707
12374W        W83990  39.134  30.981   5.051
12375W        W83991   7.847  15.226   2.315
12376W        W83992  14.285  12.680   2.181
12377W        W83993  10.861  22.645  12.406
12378W        W83994  18.248  34.486   2.717
12379W        W83995  15.233  25.955  13.377
12380W        W83996  28.157   9.654   1.882
12381W        W83997  32.369  19.035   0.437
12382W        W83998   9.645  31.061   1.398
12383W        W83999  30.762   2.467  13.943
12384W        W84000  29.698  24.261   1.325
12385W        W84001  37.543  15.160   0.487
12386W        W84002  22.704  17.294  11.903
12387W        W84003   4.331  19.328  10.834
12388W        W84004  31.011   6.229  14.952
12389W        W84005  19.420  39.769  13.964
12390W        W84006   9.701  14.034  13.996
12391W        W84007   4.022  42.667   5.301
12392W        W84008  10.253   7.352  12.125
12393W        W84009  37.575  15.510  12.252
12394W        W84010  16.612  32.699  14.480
12395W        W84011  10.411  39.585   4.146
12396W        W84012  29.184  42.769  11.138
12397W        W84013   7.684  22.277  10.519
12398W        W84014   5.721  14.340   0.797
12399W        W84015  12.380  19.988  13.478
12400W        W84016   3.761   9.036  12.027
12401W        W84017   2.432  32.981  13.440
12402W        W84018  31.057   4.422   0.477
12403W        W84019  12.706  30.880  11.134
12404W        W84020   9.877  20.612   1.936
12405W        W84021  23.483   1.438   1.402
12406W        W84022  25.723  13.342  10.606
12407W        W84023  29.069   8.752   3.046
12408W        W84024  28.143  11.878   1.314
12409W        W84025  34.545   3.891  12.608
12410W        W84026  27.915  22.110  11.186
12411W        W84027  31.873   7.444   0.681
12412W        W84028  36.777  42.885   5.362
12413W        W84029  23.487  35.027  11.630
12414W        W84030  38.636  10.824  13.994
12415W        W84031  26.104  33.946  12.056
12416W        W84032  29.207  42.823   2.211
12417W        W84033  40.043  42.231  12.910
12418W        W84034  20.998  25.424  11.410
12419W        W84035   6.260  34.218   3.790
12420W        W84036  22.562  19.403   4.061
12421W        W84037  41.414  14.004   2.317
12422W        W84038   8.444  38.000  11.426
12423W        W84039  43.462  33.537  12.861
12424W        W84040  13.406  15.088  14.255
12425W        W84041  21.415  23.679  11.134
12426W        W84042  20.753  12.061  13.505
12427W        W84043  17.765  18.597   2.750
12428W        W84044   5.019  12.423  11.873
12429W        W84045  30.048  38.075   2.325
12430W        W84046  10.059   7.950   0.939
12431W        W84047  43.490  16.276   2.671
12432W        W84048  20.742  16.704  14.054
12433W        W84049  26.277  21.992   2.247
12434W        W84050  34.709  38.778   3.627
12435W        W84051  16.920  14.036   1.646
12436W        W84052  18.725   9.096  13.576
12437W        W84053  39.383  27.674  13.917
12438W        W84054  43.283   3.971  11.277
12439W        W84055  37.607  28.550  11.424
12440W        W84056  34.347   0.949   0.807
12441W        W84057  36.421  43.235   2.232
12442W        W84058  11.258  34.107   0.517
12443W        W84059   9.268   9.154  13.613
12444W        W84060   7.381  17.024  14.421
12445W        W84061  17.155  12.314  11.378
12446W        W84062  42.565  12.843   1.752
12447W        W84063  31.151  33.940   0.417
12448W        W84064  21.130  29.059  12.596
12449W        W84065  42.422  35.000   3.199
12450W        W84066  20.549   8.710  14.868
12451W        W84067  18.475  34.638  10.263
12452W        W84068  23.568  14.575   4.143
12453W        W84069   4.150  33.153   4.323
12454W        W84070  30.506  43.307  12.873
12455W        W84071  39.050  18.668  13.931
12456W        W84072  11.126  15.154   4.606
12457W        W84073  14.907   3.313   1.345
12458W        W84074  36.272  22.701   3.594
12459W        W84075  21.682  26.101   2.882
12460W        W84076  29.960  20.580   0.272
12461W        W84077  24.687  14.275   0.465
12462W        W84078  34.197  43.486  11.373
12463W        W84079  32.669   4.822   0.256
12464W        W84080   3.173   8.299   1.640
12465W        W84081  43.298   1.342  12.550
12466W        W84082  32.629  28.765  12.837
12467W        W84083  11.461  37.303  12.593
12468W        W84084   4.100  30.100   0.825
12469W        W84085  30.868   2.881  12.614
12470W        W84086   4.737  39.584  11.224
12471W        W84087  34.543  23.121  12.670
12472W        W84088  40.938  39.522  12.557
12473W        W84089  39.890  24.044   1.460
12474W        W84090  15.876  28.538  13.766
12475W        W84091  44.037  16.255   0.727
12476W        W84092  12.576  34.596  11.273
12477W        W84093  19.005  23.557  12.098
12478W        W84094   0.290  41.356  11.281
12479W        W84095   6.336  34.307   0.248
12480W        W84096   8.675  32.027  13.303
12481W        W84097   3.301  32.469   0.364
12482W        W84098  25.611  44.950  11.840
12483W        W84099   1.009  13.823  11.928
12484W        W84100  28.041  10.058  10.656
12485W        W84101   7.736  10.242   0.788
12486W        W84102  10.351  21.100  11.940
12487W        W84103  19.086   7.804  14.961
12488W        W84104   4.873   2.012  14.909
12489W        W84105  34.605  14.302  12.048
12490W        W84106  15.824  37.326   1.834
12491W        W84107  16.630  11.751   1.193
12492W        W84108  20.184   3.523  14.351
12493W        W84109   0.788  38.811  12.521
12494W        W84110   3.889   2.359   4.121
12495W        W84111  12.148  27.037   2.650
12496W        W84112  25.685  14.600  14.012
12497W        W84113   0.321  43.707  11.201
12498W        W84114  24.549  20.424   1.783
12499W        W84115   7.059  23.431  13.324
12500W        W84116  11.928  19.747   1.701
12501W        W84117  21.293  16.787  14.902
12502W        W84118  25.580  44.483  12.059
12503W        W84119  13.993   8.873   5.117
12504W        W84120   3.540  17.318   3.178
12505W        W84121  11.320   6.395  14.987
12506W        W84122  11.330  29.745   0.591
12507W        W84123  25.029  25.472   4.646
12508W        W84124  10.559  32.432   2.305
12509W        W84125  19.299  25.669  13.111
12510W        W84126  22.495   3.146   3.234
12511W        W84127  35.020  20.545   2.412
12512W        W84128  43.868  42.879  13.557
12513W        W84129  32.798  38.032  13.771
12514W        W84130   7.797  22.049  10.965
12515W        W84131  12.996  16.100   4.704
12516W        W84132  15.024  15.273   3.704
12517W        W84133  25.243  41.780  10.864
12518W        W84134  44.868  25.513   0.137
12519W        W84135  23.740  43.910   2.061
12520W        W84136  26.021  10.790  12.090
12521W        W84137   2.901  22.175   0.196
12522W        W84138  28.147   1.667  14.399
12523W        W84139  10.112   0.770  14.806
12524W        W84140  14.388  20.559  11.998
12525W        W84141  37.397  25.617   4.375
12526W        W84142   2.259  12.808  14.468
12527W        W84143  33.312  35.174   1.873
12528W        W84144  29.156  14.577   4.589
12529W        W84145   6.011  21.042   0.281
12530W        W84146  42.518  15.168  10.720
12531W        W84147  28.058  37.850  13.076
12532W        W84148   6.669  35.603  12.404
12533W        W84149   1.831  31.078   4.586
12534W        W84150  28.203  11.307  11.102
12535W        W84151  11.172  35.519  14.838
12536W        W84152  27.076  11.111  10.676
12537W        W84153  35.455  13.676   2.728
12538W        W84154  13.739  32.809  13.126
12539W        W84155  16.130  36.431   3.730
12540W        W84156  27.172  34.911   0.132
12541W        W84157  43.452  39.912  10.618
12542W        W84158  40.357  34.900   0.762
12543W        W84159  27.270  32.993   2.350
12544W        W84160  28.921  27.862   4.673
12545W        W84161   1.306  12.635   0.926
12546W        W84162  15.359   3.920   3.829
12547W        W84163  32.195   3.317   4.533
12548W        W84164  15.202  42.798   4.423
12549W        W84165   5.830  37.084  11.754
12550W        W84166   6.329  28.145   1.253
12551W        W84167  30.945  21.062   0.822
12552W        W84168  17.128  12.378  10.519
12553W        W84169  37.271  44.994  13.541
12554W        W84170  29.136  12.562   3.608
12555W        W84171  22.466  44.472  10.216
12556W        W84172  24.938  21.203   5.015
12557W        W84173   7.600  43.121   3.744
12558W        W84174  18.092  43.785   5.186
12559W        W84175   4.238  24.136  14.402
12560W        W84176  42.129   8.170   0.909
12561W        W84177  40.364  14.055   2.173
12562W        W84178  10.557  10.458   0.223
12563W        W84179  44.867  40.015  11.418
12564W        W84180   4.402  12.725  13.356
12565W        W84181  11.398   4.538  10.674
12566W        W84182  36.548  12.235  12.597
12567W        W84183  23.483  13.976  14.187
12568W        W84184  37.983  20.196   1.261
12569W        W84185   0.113   5.623  11.068
12570W        W84186  22.077  14.161   4.783
12571W        W84187  19.453   1.465  12.050
12572W        W84188  14.335   5.394   1.680
12573W        W84189  36.567  44.104   1.898
12574W        W84190  25.591  39.991   1.947
12575W        W84191  43.958  35.610  12.329
12576W        W84192  41.928  41.038  13.791
12577W        W84193  41.075  20.410  11.135
12578W        W84194  14.345  11.069  14.667
12579W        W84195  43.406  17.804  11.825
12580W        W84196  34.379   1.410  12.197
12581W        W84197  31.185  30.151   3.627
12582W        W84198  15.408  27.569   1.237
12583W        W84199  17.994  26.996   1.851
12584W        W84200   6.873  27.551  11.187
12585W        W84201   1.616   6.924   2.620
12586W        W84202  41.696  19.013   4.810
12587W        W84203   5.398  21.027  11.993
12588W        W84204   8.728  32.658   3.298
12589W        W84205  27.172  16.851  12.060
12590W        W84206   4.886  18.839   0.407
12591W        W84207  22.601   0.626   3.709
12592W        W84208  14.267  44.063   4.080
12593W        W84209  23.231  16.156   3.660
12594W        W84210   5.225  40.549   4.612
12595W        W84211  22.661   8.714   4.998
12596W        W84212   9.186  18.718   0.232
12597W        W84213  25.418   4.436  11.971
12598W        W84214  28.297   3.427  11.667
12599W        W84215   9.316  20.629  13.277
12600W        W84216  30.561  43.984  11.127
12601W        W84217  30.620  27.989   1.842
12602W        W84218  19.669  15.624  10.663
12603W        W84219  32.892  11.193   1.248
12604W        W84220  33.778   1.211  12.026
12605W        W84221  20.047  22.645  14.493
12606W        W84222  42.343  36.046  14.409
12607W        W84223   9.014   6.941   3.761
12608W        W84224  32.816   6.378   0.955
12609W        W84225  38.904  39.782   0.870
12610W        W84226  37.939   3.532  10.872
12611W        W84227  15.338  36.451   2.627
12612W        W84228  33.566  29.644  12.171
12613W        W84229  27.587  43.879  13.764
12614W        W84230  25.048  20.152   4.146
12615W        W84231  12.714  20.850   2.104
12616W        W84232  30.648  18.996   1.373
12617W        W84233  32.050  44.080  14.649
12618W        W84234   6.273  19.181  11.689
12619W        W84235   6.551  34.418   2.624
12620W        W84236  10.713  12.153   0.387
12621W        W84237  41.381  26.674   1.699
12622W        W84238  40.945  14.443  12.938
12623W        W84239  19.062  40.827   4.597
12624W        W84240  36.622   4.298   3.014
12625W        W84241  14.682  29.874  13.332
12626W        W84242  44.937   0.565  12.823
12627W        W84243   1.371  25.935   4.507
12628W        W84244  29.674  18.336   0.019
12629W        W84245  13.087  26.080  12.800
12630W        W84246  25.150  28.041   3.673
12631W        W84247  23.961  23.748   0.432
12632W        W84248   9.169   6.991   0.209
12633W        W84249   0.453   0.025   0.820
12634W        W84250  15.131  44.892  11.594
12635W        W84251   6.943  20.112   4.220
12636W        W84252  39.266   1.248  12.617
12637W        W84253  18.112  19.992  14.366
12638W        W84254   5.304  26.235  10.618
12639W        W84255  19.721  17.866   4.204
12640W        W84256   4.425  15.764   1.266
12641W        W84257   7.459  16.235   1.784
12642W        W84258  23.636  33.143   2.736
12643W        W84259  26.396  22.645   5.045
12644W        W84260  34.472  22.835  13.536
12645W        W84261  37.650  21.771  13.467
12646W        W84262  17.043  28.679   2.840
12647W        W84263  24.295  26.977   2.170
12648W        W84264   0.241  11.611   0.328
12649W        W84265   9.617  24.935  12.399
12650W        W84266  15.743   0.572   3.567
12651W        W84267  34.064  43.716   1.745
12652W        W84268  36.199  38.891  13.015
12653W        W84269  12.484  27.653  14.119
12654W        W84270  25.293  25.006   3.722
12655W        W84271  32.609  20.745  10.578
12656W        W84272  34.545   4.177   3.214
12657W        W84273  39.601   3.698   4.678
12658W        W84274   6.003  32.439   1.224
12659W        W84275  33.995   2.090  10.877
12660W        W84276  14.579   4.979   0.775
12661W        W84277  20.791  13.668  14.725
12662W        W84278  17.841  21.294   3.717
12663W        W84279  37.905  41.970   1.261
12664W        W84280  38.899  19.834   1.407
12665W        W84281   2.021  26.664  13.725
12666W        W84282  17.095  29.128   4.501
12667W        W84283  32.811  20.424   1.866
12668W        W84284   7.669  34.731  11.033
12669W        W84285  38.604  23.997  10.636
12670W        W84286  28.154  15.718  12.056
12671W        W84287   8.476  27.009   0.275
12672W        W84288  43.261  41.542  11.690
12673W        W84289  34.941  26.981   3.649
12674W        W84290  21.566  26.585   0.940
12675W        W84291   6.726  44.220   4.104
12676W        W84292  11.760  44.135   3.921
12677W        W84293  21.110  14.161  11.139
12678W        W84294  41.435  12.314   3.758
12679W        W84295   0.987   5.405   0.895
12680W        W84296  23.248  42.965   0.935
12681W        W84297  38.943  10.202   5.216
12682W        W84298  15.927  38.887   5.284
12683W        W84299  30.868  16.076   0.978
12684W        W84300   9.430  44.599   2.387
12685W        W84301  28.099   7.904  13.951
12686W        W84302   1.378   8.646  11.339
12687W        W84303  13.202  21.723   4.350
12688W        W84304  14.747  25.850   4.834
12689W        W84305   8.149  41.896  11.301
12690W        W84306  38.537  28.799  12.815
12691W        W84307  12.217  43.496   0.417
12692W        W84308  27.199  35.318   1.928
12693W        W84309   1.457  15.122   1.698
12694W        W84310  20.357  29.366  11.594
12695W        W84311   6.446  40.579  11.083
12696W        W84312   8.498  30.078   0.715
12697W        W84313  40.410  22.506  12.413
12698W        W84314  19.550  32.207  10.601
12699W        W84315  21.489  11.563   0.829
12700W        W84316  44.626  14.593   4.201
12701W        W84317  34.391  44.085   0.922
12702W        W84318  20.779  38.580  14.894
12703W        W84319  18.308  20.618   0.452
12704W        W84320  23.399   9.186  14.883
12705W        W84321  40.754  17.618  14.300
12706W        W84322  24.162  26.164   0.664
12707W        W84323  35.637   9.851  14.823
12708W        W84324  12.435   2.522  13.047
12709W        W84325   1.350  22.294   2.635
12710W        W84326  44.986   9.593   4.710
12711W        W84327   1.230  24.479   0.706
12712W        W84328  16.037   7.568   0.312
12713W        W84329   0.778  30.694   4.609
12714W        W84330  43.040  22.475  13.049
12715W        W84331  40.097   7.257   2.119
12716W        W84332  32.486  22.723  12.965
12717W        W84333  17.066  31.920   3.183
12718W        W84334  32.450  19.538  11.394
12719W        W84335  40.338  23.027  11.544
12720W        W84336  21.726  15.670   1.990
12721W        W84337  14.165  34.114  12.493
12722W        W84338  27.694  38.387  13.358
12723W        W84339  22.339  32.915   0.462
12724W        W84340  13.072  28.111  13.408
12725W        W84341  13.359  23.115   0.996
12726W        W84342  15.584   2.745  12.555
12727W        W84343   4.330   6.797  11.890
12728W        W84344  20.428   1.858  12.034
12729W        W84345   5.296   5.764   3.167
12730W        W84346  43.695  21.050  12.483
12731W        W84347  28.049  35.358   0.836
12732W        W84348   5.038  24.651   4.575
12733W        W84349  34.038  20.092   1.778
12734W        W84350   4.334  13.851   3.087
12735W        W84351  23.818  25.641   2.315
12736W        W84352  27.448  25.632   0.470
12737W        W84353   7.422  40.540   4.187
12738W        W84354  43.958  43.900  11.390
12739W        W84355  28.357   8.345   1.804
12740W        W84356  28.669  24.012   0.831
12741W        W84357   4.510   4.197   0.882
12742W        W84358  10.817  18.091  12.081
12743W        W84359   6.526   4.459   3.599
12744W        W84360   1.961  22.971  13.792
12745W        W84361   1.830  21.374  10.238
12746W        W84362  42.163  24.894   5.279
12747W        W84363   0.356  35.947   5.125
12748W        W84364  43.706  22.602  12.052
12749W        W84365  44.900  17.723   2.158
12750W        W84366   8.260  22.807   0.330
12751W        W84367   1.233   6.286   4.148
12752W        W84368  18.272  31.874  14.469
12753W        W84369  39.271  42.190   3.246
12754W        W84370  31.442  27.553   3.777
12755W        W84371  27.966   8.623   3.930
12756W        W84372   4.265  17.017   2.780
12757W        W84373  20.317  40.300   1.939
12758W        W84374  31.103  12.217   3.616
12759W        W84375  29.048   7.388  14.751
12760W        W84376  28.147  22.288   3.814
12761W        W84377   7.823  29.901  14.403
12762W        W84378   0.643  24.047  14.308
12763W        W84379  13.765   5.756   2.255
12764W        W84380  11.909  25.166  13.376
12765W        W84381   1.707  30.023   1.324
12766W        W84382   7.836  16.676  13.956
12767W        W84383  20.693  15.545  13.418
12768W        W84384  43.400  18.220   3.338
12769W        W84385  39.432  35.982   4.324
12770W        W84386   9.174  41.143   0.323
12771W        W84387   8.231  28.644  13.157
12772W        W84388  32.649  12.055   0.380
12773W        W84389  37.436   9.596   1.404
12774W        W84390  36.831  20.273  14.794
12775W        W84391  42.448   7.651   2.823
12776W        W84392  44.750  32.890  13.043
12777W        W84393   0.449  29.653   0.884
12778W        W84394   3.943   2.810  14.248
12779W        W84395  42.427  43.838  11.001
12780W        W84396   7.331   2.183   4.281
12781W        W84397  42.822  19.471   9.921
12782W        W84398   2.474  44.921   1.224
12783W        W84399  30.486  11.751  10.948
12784W        W84400  41.900  41.735   1.203
12785W        W84401  29.019  12.403  11.522
12786W        W84402   5.374  41.268  13.838
12787W        W84403  22.549  36.606   1.831
12788W        W84404   8.840  25.564  12.711
12789W        W84405  39.944  35.536  13.799
12790W        W84406   4.014  25.095   2.612
12791W        W84407   9.141  29.382   2.889
12792W        W84408  43.047  17.151   2.242
12793W        W84409  30.940  19.662   0.755
12794W        W84410  14.665  22.965  14.357
12795W        W84411  35.019   1.853  13.762
12796W        W84412  39.215  15.603   3.300
12797W        W84413  38.824  21.413   0.493
12798W        W84414  25.162  13.294   4.509
12799W        W84415  24.643   3.279  13.903
12800W        W84416  33.017  17.793   3.619
12801W        W84417  14.628  35.035  11.321
12802W        W84418  31.878  19.366  13.279
12803W        W84419  21.246   9.962  14.972
12804W        W84420   7.242  11.524   4.325
12805W        W84421   1.866  18.585  10.736
12806W        W84422  35.297  16.612   3.549
12807W        W84423  16.639  24.832   4.838
12808W        W84424  30.538  43.966   1.731
12809W        W84425  44.386   6.856   3.752
12810W        W84426  36.844  30.577   2.230
12811W        W84427  30.748  25.584  13.511
12812W        W84428  39.946  35.270   4.206
12813W        W84429  24.946   7.232  14.725
12814W        W84430  44.734  36.172  12.389
12815W        W84431  13.789  23.424   2.871
12816W        W84432  33.211  31.233   3.901
12817W        W84433  32.982   5.145   2.788
12818W        W84434  23.560  44.916   4.794
12819W        W84435  12.845  25.674  14.839
12820W        W84436   6.839  13.344   0.904
12821W        W84437  17.942  23.686  11.214
12822W        W84438  29.902  36.526   0.256
12823W        W84439   9.288  22.658  14.418
12824W        W84440   0.487   0.085   2.264
12825W        W84441  36.549  20.237  11.444
12826W        W84442  21.764  25.938  12.023
12827W        W84443  27.195  35.561  13.928
12828W        W84444  23.405  29.720  11.154
12829W        W84445   5.656  14.390   4.209
12830W        W84446   7.758  30.230  10.970
12831W        W84447  17.803   8.878   1.340
12832W        W84448   9.332  16.094  14.343
12833W        W84449  16.347  14.289   4.530
12834W        W84450  34.906  26.599   4.521
12835W        W84451  34.932  11.707   2.141
12836W        W84452   5.902  44.735  14.262
12837W        W84453  21.536  18.223   4.395
12838W        W84454  24.565  36.590  12.930
12839W        W84455  19.799  22.707   1.213
12840W        W84456   8.712  40.203   3.762
12841W        W84457  26.634  43.601   4.706
12842W        W84458  27.476  32.587   2.623
12843W        W84459  15.412   8.200  13.315
12844W        W84460  19.499   1.260   4.123
12845W        W84461  12.194   7.935   2.796
12846W        W84462   0.155  10.810   0.941
12847W        W84463   7.839  25.240   1.847
12848W        W84464  44.905  21.344   0.720
12849W        W84465  23.538   4.661  12.059
12850W        W84466  26.548  35.098  13.476
12851W        W84467  35.900   1.772   3.202
12852W        W84468  33.811  35.516   4.083
12853W        W84469   3.997  27.660  13.361
12854W        W84470   1.929   3.724  14.483
12855W        W84471  34.518  38.553  12.176
12856W        W84472  28.136  37.857   1.661
12857W        W84473  26.953  13.672  13.087
12858W        W84474   0.266   5.914   1.279
12859W        W84475  37.792   0.702   1.151
12860W        W84476  12.101  20.193  12.464
12861W        W84477  30.494  27.945  12.476
12862W        W84478  40.409  29.241   4.883
12863W        W84479   9.048  35.223   2.880
12864W        W84480   2.759  32.524   0.433
12865W        W84481  23.539   0.420  13.385
12866W        W84482   2.911  38.493   1.169
12867W        W84483  12.258  28.126   3.792
12868W        W84484   5.842   6.388  13.458
12869W        W84485  26.721  21.823  13.018
12870W        W84486  39.544   7.858  13.920
12871W        W84487  43.983   1.991  11.528
12872W        W84488  11.136  22.548  12.821
12873W        W84489   2.470   7.186  12.996
12874W        W84490  39.056   8.458   3.774
12875W        W84491  22.207  17.336   3.624
12876W        W84492  35.679  19.587   3.329
12877W        W84493  41.973  39.988  14.095
12878W        W84494  19.218  16.128  12.973
12879W        W84495   9.226   4.397  13.450
12880W        W84496  39.938  44.579   4.694
12881W        W84497  44.842  12.613  11.359
12882W        W84498  23.028  28.210   0.245
12883W        W84499  42.370  10.683  10.732
12884W        W84500  19.243   7.245   4.081
12885W        W84501   4.901   2.095   4.022
12886W        W84502  21.523  41.018  13.136
12887W        W84503  16.606  26.943  12.553
12888W        W84504   7.701  29.140  12.991
12889W        W84505  23.482  43.993   0.566
12890W        W84506  37.073   2.378   2.870
12891W        W84507   3.406  13.037   1.165
12892W        W84508  13.543  19.793   4.105
12893W        W84509  28.996   0.715  13.501
12894W        W84510  12.250  39.290   1.843
12895W        W84511  12.941  10.365   4.828
12896W        W84512  11.134  28.440  12.524
12897W        W84513  20.208  19.202   2.863
12898W        W84514  24.010  10.339  13.369
12899W        W84515  12.842   2.013  10.574
12900W        W84516  21.717  25.463  11.128
12901W        W84517  28.236   1.509  11.504
12902W        W84518  14.712   2.650   4.960
12903W        W84519  41.361  19.502  11.087
12904W        W84520  36.776  14.854  14.348
12905W        W84521  25.975  36.771  12.510
12906W        W84522   1.188   2.195  12.871
12907W        W84523  44.838  10.151  14.017
12908W        W84524  19.991  28.024   4.173
12909W        W84525   4.770   2.243   2.647
12910W        W84526  14.557  37.858   0.045
12911W        W84527  34.185  41.969  12.420
12912W        W84528  28.879  20.111  11.433
12913W        W84529  19.225  14.617   3.035
12914W        W84530   0.446  17.004  14.076
12915W        W84531  43.389  35.504   4.625
12916W        W84532  25.666  23.250   2.381
12917W        W84533  28.703  16.829  13.009
12918W        W84534   4.359  25.122   5.233
12919W        W84535  23.360  28.953   0.642
12920W        W84536   6.656  19.584  13.773
12921W        W84537  12.189  11.623  10.691
12922W        W84538  15.844  14.138  14.931
12923W        W84539  13.789   6.822   0.504
12924W        W84540  33.991   4.474   2.313
12925W        W84541  41.103  29.493  11.088
12926W        W84542   2.484  29.776  12.404
12927W        W84543  32.578   1.860  12.863
12928W        W84544  19.707  22.766   4.661
12929W        W84545  23.828   6.939   1.226
12930W        W84546  43.494   1.961  14.567
12931W        W84547  15.576  18.298   4.767
12932W        W84548  15.461  28.583  11.447
12933W        W84549  13.903  37.633   3.179
12934W        W84550   9.140  11.885   3.707
12935W        W84551   4.286  41.278  12.060
12936W        W84552  24.707  27.124   2.463
12937W        W84553   1.455  32.599  12.411
12938W        W84554  42.364  39.646  12.016
12939W        W84555  29.829  35.916   0.961
12940W        W84556   0.840   2.212   0.298
12941W        W84557  38.683  33.826  13.467
12942W        W84558  15.873  31.939  10.818
12943W        W84559  34.094   9.679  14.788
12944W        W84560  15.002   9.355   3.224
12945W        W84561  26.609   0.453   1.683
12946W        W84562   7.941   3.066  13.280
12947W        W84563  10.240  36.413  10.340
12948W        W84564  43.198  42.552   1.208
12949W        W84565  15.651  31.210  12.014
12950W        W84566   9.755  43.430   4.128
12951W        W84567   5.523  25.801   3.767
12952W        W84568  14.519  10.805   2.252
12953W        W84569  30.590  27.236  10.642
12954W        W84570  22.068  21.995   3.719
12955W        W84571  31.638  33.740   3.726
12956W        W84572  30.662   6.638  12.904
12957W        W84573  43.673  36.496   1.301
12958W        W84574  22.364  23.403  11.644
12959W        W84575  28.624  22.763   4.650
12960W        W84576  39.033  20.788   1.870
12961W        W84577  26.520  16.092  13.491
12962W        W84578  15.058  13.692   0.746
12963W        W84579  42.481   4.027   3.920
12964W        W84580  21.003  10.541   2.303
12965W        W84581  14.056   2.897   3.138
12966W        W84582  19.051  28.881  13.531
12967W        W84583   0.868   0.296   1.422
12968W        W84584   5.399  34.019  12.558
12969W        W84585  28.380  27.657  11.077
12970W        W84586   8.675  13.835  10.547
12971W        W84587  26.240  35.356   2.811
12972W        W84588   3.358  22.030   3.322
12973W        W84589  10.377  34.673   0.703
12974W        W84590  38.393   7.374   1.446
12975W        W84591   9.184  37.944   4.883
12976W        W84592  11.668   7.641   1.590
12977W        W84593  15.791  40.004   1.393
12978W        W84594   1.831  27.484   0.279
12979W        W84595  41.208  39.353   2.850
12980W        W84596  11.042  18.999   1.300
12981W        W84597  35.667  30.474   4.636
12982W        W84598  33.869  17.775  13.405
12983W        W84599  36.512   0.333   4.887
12984W        W84600  28.458   2.049  14.242
12985W        W84601  40.967  17.193   2.275
12986W        W84602   1.385  11.218   2.927
12987W        W84603   7.994   2.247   0.491
12988W        W84604  38.109  31.788   4.949
12989W        W84605   8.750  10.291  14.019
12990W        W84606  13.924  11.518   4.898
12991W        W84607  30.537  35.426  13.639
12992W        W84608  11.184  19.101  10.707
12993W        W84609   9.322  41.818  14.589
12994W        W84610  40.460  35.406   4.845
12995W        W84611  37.834  21.229   1.905
12996W        W84612  43.276  16.696   2.127
12997W        W84613  36.363  16.984   2.114
12998W        W84614  27.619  28.940   2.309
12999W        W84615  17.833  37.968  14.290
13000W        W84616   1.748  30.994  13.959
13001W        W84617   6.050  42.147   2.148
13002W        W84618  36.613  33.409   4.882
13003W        W84619  21.497   3.461   2.786
13004W        W84620  42.495  14.044   2.296
13005W        W84621  21.538  19.012  13.179
13006W        W84622  10.754  23.096   1.740
13007W        W84623  34.528  21.665   1.537
13008W        W84624   3.260  32.296   3.328
13009W        W84625  41.894  32.401   0.429
13010W        W84626  30.867   1.219  13.921
13011W        W84627  32.460  25.691  10.407
13012W        W84628  43.497  37.764   4.129
13013W        W84629   4.442  21.777   4.570
13014W        W84630  28.202   0.107   1.143
13015W        W84631  23.989   5.239   1.883
13016W        W84632  26.219  43.523   3.735
13017W        W84633  42.755  39.119  14.505
13018W        W84634  33.210  18.702  10.453
13019W        W84635  15.043  23.648  14.388
13020W        W84636  28.714  28.051  11.184
13021W        W84637  10.603  13.777   3.307
13022W        W84638  28.418  40.436  10.653
13023W        W84639  28.723  31.581   4.223
13024W        W84640  13.666  33.711   3.719
13025W        W84641   1.973  22.828  11.989
13026W        W84642  32.518  13.202  11.889
13027W        W84643   2.891  16.910  13.957
13028W        W84644  24.089  29.688   4.187
13029W        W84645   1.993  15.801   3.784
13030W        W84646   2.341  12.731   1.728
13031W        W84647  22.642  35.972  13.045
13032W        W84648  17.638  11.623   2.762
13033W        W84649  13.395  21.541  13.429
13034W        W84650  14.434   5.905  10.286
13035W        W84651  38.259   9.241   3.728
13036W        W84652  24.596  40.276   3.154
13037W        W84653   4.847   4.087  11.498
13038W        W84654  21.363  11.821   0.278
13039W        W84655   4.726   1.346   2.730
13040W        W84656  41.750  27.627   1.419
13041W        W84657   2.335  42.557   4.694
13042W        W84658  17.984  35.548  14.828
13043W        W84659  25.228  32.637  14.393
13044W        W84660  37.901  21.140  14.964
13045W        W84661  39.584  34.304   1.356
13046W        W84662  32.874  14.282  10.637
13047W        W84663  42.761  42.963  10.580
13048W        W84664   2.298  17.816  11.646
13049W        W84665  12.269  40.066  12.542
13050W        W84666  14.868  11.079   1.962
13051W        W84667  14.491  15.079   4.839
13052W        W84668  32.967  19.689  11.458
13053W        W84669  30.603   4.695  10.206
13054W        W84670   3.413  18.650   4.678
13055W        W84671   7.724   0.814  14.431
13056W        W84672  20.521  38.649  13.946
13057W        W84673  42.247   6.923   4.637
13058W        W84674  18.737   6.149   2.614
13059W        W84675  28.660  12.634   2.921
13060W        W84676  25.996  14.090   3.821
13061W        W84677  22.611   6.351  13.348
13062W        W84678  24.579   2.423  14.568
13063W        W84679   6.135  16.178   4.177
13064W        W84680  27.513  17.544  13.332
13065W        W84681   5.005   5.759  13.167
13066W        W84682   6.828  28.416  14.318
13067W        W84683   6.478  26.528  10.572
13068W        W84684   4.237  14.171   0.452
13069W        W84685  18.533  14.822  14.102
13070W        W84686  12.854  42.101   2.369
13071W        W84687   8.110  18.012   1.329
13072W        W84688  41.532  27.455  12.436
13073W        W84689  10.548  19.736  14.392
13074W        W84690   7.811  26.213   0.404
13075W        W84691  16.149  26.433  14.692
13076W        W84692   1.870   5.708  10.793
13077W        W84693  14.957  17.297   1.904
13078W        W84694  23.250  19.269   1.788
13079W        W84695  28.166  37.741   2.153
13080W        W84696  38.053  13.679  10.577
13081W        W84697  29.727  19.302  11.075
13082W        W84698   6.767  31.554   0.318
13083W        W84699  23.502   0.330  11.925
13084W        W84700  30.224  32.347   3.619
13085W        W84701  35.426   8.533   2.804
13086W        W84702   8.486  35.796   4.288
13087W        W84703  27.802  40.367  12.576
13088W        W84704  23.173  26.449   0.752
13089W        W84705  24.208   4.809   0.644
13090W        W84706  31.648  24.509  13.373
13091W        W84707  20.749  23.978  14.993
13092W        W84708  16.633  22.713   4.749
13093W        W84709   4.347  20.795   1.436
13094W        W84710  11.910  39.394   1.465
13095W        W84711  37.401  25.110   4.268
13096W        W84712   5.848  35.790  13.307
13097W        W84713   6.211  24.240  14.432
13098W        W84714   2.028   5.317   4.548
13099W        W84715  41.928  42.771   3.228
13100W        W84716  25.910   5.898  13.950
13101W        W84717  20.312  14.975  13.597
13102W        W84718   5.323  34.573   0.407
13103W        W84719  14.237  22.755   3.151
13104W        W84720  38.987   8.790   2.846
13105W        W84721  38.100   9.328  12.038
13106W        W84722   4.209  44.733   3.308
13107W        W84723  26.126   4.896  11.843
13108W        W84724  27.249   4.945   3.716
13109W        W84725  28.243  37.621   3.597
13110W        W84726  17.809  35.266  12.882
13111W        W84727  37.576  34.965   4.998
13112W        W84728  21.592   3.361   3.282
13113W        W84729   6.423  30.655   4.575
13114W        W84730  43.515  21.015   1.028
13115W        W84731   7.263  37.937  14.324
13116W        W84732  12.703   5.252   0.782
13117W        W84733  24.839   6.948  12.901
13118W        W84734  33.232  10.309   3.172
13119W        W84735   7.994  43.471  14.521
13120W        W84736  42.357  38.648   0.212
13121W        W84737   4.241  11.331   3.723
13122W        W84738   3.155   1.586   4.449
13123W        W84739  43.671  12.159   2.891
13124W        W84740   6.674  25.581  14.806
13125W        W84741  42.554  20.745   3.680
13126W        W84742   9.717  40.408   1.939
13127W        W84743  36.896  26.648  14.946
13128W        W84744  36.477  19.250  10.925
13129W        W84745  28.517  10.943   0.070
13130W        W84746  32.642  36.037   1.183
13131W        W84747  12.285   0.969   2.327
13132W        W84748  40.380  44.186  10.658
13133W        W84749  25.032  40.593   3.151
13134W        W84750  40.554   0.800   5.023
13135W        W84751  39.306   6.691  14.430
13136W        W84752  23.480  27.557  14.459
13137W        W84753   1.174  28.895  11.390
13138W        W84754   7.705  23.509  11.163
13139W        W84755   1.169  14.627   0.909
13140W        W84756  26.212   0.430  10.698
13141W        W84757  32.460  16.150   1.510
13142W        W84758  43.654   8.272  11.146
13143W        W84759  29.946  20.192  12.549
13144W        W84760   4.221  14.986  13.460
13145W        W84761  27.039   1.813   3.654
13146W        W84762   6.394  37.237   1.372
13147W        W84763  34.551   8.234  10.404
13148W        W84764  39.917  37.510  12.691
13149W        W84765  25.977   1.653   2.318
13150W        W84766  39.298  19.603  13.588
13151W        W84767   7.632  25.623   3.109
13152W        W84768  36.978  17.837  10.675
13153W        W84769  41.971   4.886   3.791
13154W        W84770  17.643  18.625   0.287
13155W        W84771  11.563  12.382  12.898
13156W        W84772  30.975  31.372   0.832
13157W        W84773  30.173  14.092  13.498
13158W        W84774  36.600  10.196  11.133
13159W        W84775  39.441  32.065   3.754
13160W        W84776  37.602  21.607   3.458
13161W        W84777  29.081  42.305   2.172
13162W        W84778   2.477  20.687  13.919
13163W        W84779   7.278  26.231   0.329
13164W        W84780  18.549  13.078   4.410
13165W        W84781  10.174   7.669   3.120
13166W        W84782  21.532   8.656  10.711
13167W        W84783  30.967  41.826  10.666
13168W        W84784  40.933  18.565   0.926
13169W        W84785   2.052  44.734   4.474
13170W        W84786   8.932   9.210  12.425
13171W        W84787  13.338  17.308   3.352
13172W        W84788  28.064  27.550   0.210
13173W        W84789  34.745  33.468   5.014
13174W        W84790  13.785  14.808  14.040
13175W        W84791   8.010  11.837   4.218
13176W        W84792  24.254  16.129   2.872
13177W        W84793   9.186  41.303   4.558
13178W        W84794  33.327  35.406  10.583
13179W        W84795  29.338  42.985  13.342
13180W        W84796  12.241  40.369   0.377
13181W        W84797  33.993  35.828  12.062
13182W        W84798   5.413  28.292   1.848
13183W        W84799   2.708  16.190  13.057
13184W        W84800   3.294  20.787  11.826
13185W        W84801  38.997   2.997   2.130
13186W        W84802   2.981   6.184   0.762
13187W        W84803  44.551   9.832  11.968
13188W        W84804  33.480  42.422  12.143
13189W        W84805  35.910  25.296   0.351
13190W        W84806  40.318  10.742  10.644
13191W        W84807  15.850  19.098  12.882
13192W        W84808  40.804   5.983   1.777
13193W        W84809  39.878  32.388  10.908
13194W        W84810   1.168   7.617  13.378
13195W        W84811  30.062  35.506   1.717
13196W        W84812   6.631   2.257  11.173
13197W        W84813   2.948  41.101   2.908
13198W        W84814   1.026   5.812  13.738
13199W        W84815  39.916  17.561  13.746
13200W        W84816  41.293  38.447   3.949
13201W        W84817  10.662  17.894   3.833
13202W        W84818  25.542  40.031  10.713
13203W        W84819  18.422  37.187  11.183
13204W        W84820   0.716  15.350   2.883
13205W        W84821   9.163  40.986   4.123
13206W        W84822   0.448  43.754   1.263
13207W        W84823  37.877  15.737  10.569
13208W        W84824  33.071  36.404   2.822
13209W        W84825  38.593  32.555  10.679
13210W        W84826   3.933  16.606  14.816
13211W        W84827   3.736   6.143  11.645
13212W        W84828   0.218  44.816   4.036
13213W        W84829   8.296  11.192  14.048
13214W        W84830  33.541  40.046  13.554
13215W        W84831  20.177  26.925  11.675
13216W        W84832  17.519  10.668  10.977
13217W        W84833  10.178   0.070  14.394
13218W        W84834   7.862   3.680  11.948
13219W        W84835  40.073  42.547  11.147
13220W        W84836  13.058  36.357  11.090
13221W        W84837  11.676  25.199  10.562
13222W        W84838  23.376   3.930   1.207
13223W        W84839  41.382  11.639   2.871
13224W        W84840  11.842  28.525   0.837
13225W        W84841  15.512  43.862   1.484
13226W        W84842   3.289  34.163   2.769
13227W        W84843  26.382  21.554   3.628
13228W        W84844   0.478   8.712   4.584
13229W        W84845  30.009  17.576  10.592
13230W        W84846  20.500  13.040   0.871
13231W        W84847  43.476  40.813  10.626
13232W        W84848  13.583   8.649  10.731
13233W        W84849  44.188  34.092  12.877
13234W        W84850   0.941  33.108  14.518
13235W        W84851  30.458  39.881  10.696
13236W        W84852  16.343   9.893   0.539
13237W        W84853  41.396  37.133  12.467
13238W        W84854  26.909   4.384   1.753
13239W        W84855   0.562  23.067  12.127
13240W        W84856  11.113  41.099  12.961
13241W        W84857   0.371  44.514   0.841
13242W        W84858   6.782   1.799  14.343
13243W        W84859  14.159  13.546  10.729
13244W        W84860  44.192  10.380   2.863
13245W        W84861  30.642  26.018   3.377
13246W        W84862  20.050   5.729  10.859
13247W        W84863  20.802  12.851   2.191
13248W        W84864  20.641   2.910   1.941
13249W        W84865   0.722  22.237  11.188
13250W        W84866  29.507  16.398   4.704
13251W        W84867  42.091   0.480   1.191
13252W        W84868   3.687  24.232  10.738
13253W        W84869   5.420  44.842  11.858
13254W        W84870   6.151  29.686   0.660
13255W        W84871   5.853  12.324   3.189
13256W        W84872  17.835   1.719  10.709
13257W        W84873  34.011  19.584   1.824
13258W        W84874   9.420  10.545  11.031
13259W        W84875  37.084   4.757  11.009
13260W        W84876   2.455  39.571   3.724
13261W        W84877  31.055  27.266   3.306
13262W        W84878  14.522  24.989  12.459
13263W        W84879  27.245   2.825  13.809
13264W        W84880   7.620  18.063  13.910
13265W        W84881   8.970   9.536   3.783
13266W        W84882   2.010  15.093   4.130
13267W        W84883  29.724  21.423  12.947
13268W        W84884  38.866   3.138  14.649
13269W        W84885   4.306  32.536  13.864
13270W        W84886  37.075  41.811   3.894
13271W        W84887  16.731  26.964   0.058
13272W        W84888  13.292  34.339  15.000
13273W        W84889  25.877  34.952  12.896
13274W        W84890   5.761  36.374  10.745
13275W        W84891  39.269  33.322  13.091
13276W        W84892  28.418  44.767   0.793
13277W        W84893  29.091  20.540  14.570
13278W        W84894   8.927   8.731  12.617
13279W        W84895   7.337   5.688  12.396
13280W        W84896  26.096  28.676  12.157
13281W        W84897  10.570  42.250   3.855
13282W        W84898  10.924  24.967   1.885
13283W        W84899   0.274   5.120   1.735
13284W        W84900  40.732  35.916  13.839
13285W        W84901  36.277  21.192  14.845
13286W        W84902  19.110   6.415  13.940
13287W        W84903   8.065   7.839  12.479
13288W        W84904  19.243   6.325   2.765
13289W        W84905  39.510   9.122  13.678
13290W        W84906  40.578  27.942   2.657
13291W        W84907   4.449   3.892   2.284
13292W        W84908   2.988   0.879  13.787
13293W        W84909  25.158  44.507  11.525
13294W        W84910   3.470   1.036  14.790
13295W        W84911   2.278   3.459   1.285
13296W        W84912  26.455  22.784   4.538
13297W        W84913  26.190  43.628  11.452
13298W        W84914  21.079  35.399   0.069
13299W        W84915  36.638  28.429   0.852
13300W        W84916  28.044  23.744   3.620
13301W        W84917  44.316  25.012  11.251
13302W        W84918  23.673   0.380   4.528
13303W        W84919  20.681  32.118  12.781
13304W        W84920  15.178  14.171   0.878
13305W        W84921  36.834  15.383   3.744
13306W        W84922   9.846  42.640  11.046
13307W        W84923  25.064  27.769  13.899
13308W        W84924  37.675  21.999   1.232
13309W        W84925  36.099  29.113  12.912
13310W        W84926  44.051  27.298  11.202
13311W        W84927  42.892  43.536  14.670
13312W        W84928  21.944  26.514  14.959
13313W        W84929   0.306  41.309  11.792
13314W        W84930  29.888  16.285  12.531
13315W        W84931  16.567   1.781  13.496
13316W        W84932  40.139  13.815   0.514
13317W        W84933  41.341   4.761   0.464
13318W        W84934  32.181  15.943  13.916
13319W        W84935  17.827   0.182   1.864
13320W        W84936  30.939  31.834  12.790
13321W        W84937  28.731   4.160  12.762
13322W        W84938   9.178  35.400  13.375
13323W        W84939  26.401   5.716   2.370
13324W        W84940  14.211   3.720   3.310
13325W        W84941  33.661  34.009  12.320
13326W        W84942  43.779  30.077   4.301
13327W        W84943  23.314  39.925  13.457
13328W        W84944  16.049  10.535   3.298
13329W        W84945  11.033  33.052   2.238
13330W        W84946   6.634   5.196  13.439
13331W        W84947  30.559  22.624  10.597
13332W        W84948  21.768   8.716  14.292
13333W        W84949  12.735   0.589  10.626
13334W        W84950   6.229  39.380  10.790
13335W        W84951  12.287  41.538  14.727
13336W        W84952  11.546  43.264  11.173
13337W        W84953  12.131   8.624   2.493
13338W        W84954  35.356  43.568   0.877
13339W        W84955   7.429  21.532  10.521
13340W        W84956  33.840  16.238  14.066
13341W        W84957  36.863  31.803   4.194
13342W        W84958   5.193  10.204   0.256
13343W        W84959  19.191  20.733  13.329
13344W        W84960  40.601  41.964   2.829
13345W        W84961   9.778  16.564   1.177
13346W        W84962  43.131   5.456   3.295
13347W        W84963   3.728  12.581   4.286
13348W        W84964  16.307  31.608  11.586
13349W        W84965  42.080   2.870  14.288
13350W        W84966  35.446  29.976   2.990
13351W        W84967  41.829  31.385   0.083
13352W        W84968  24.451   8.319   3.297
13353W        W84969  27.126  40.208  10.238
13354W        W84970  19.268  26.598  12.109
13355W        W84971  22.163  40.361  12.347
13356W        W84972  12.388  25.270  12.042
13357W        W84973  22.039  43.717   4.053
13358W        W84974   1.217  33.100  12.916
13359W        W84975   2.995  21.128  13.113
13360W        W84976  29.940  15.116  13.189
13361W        W84977   4.320  21.064  11.419
13362W        W84978   8.917  31.513  12.647
13363W        W84979   1.466  24.814  11.525
13364W        W84980  19.552  35.117   1.135
13365W        W84981  26.005  11.818   4.440
13366W        W84982  10.761  10.215  13.016
13367W        W84983   0.952  27.036   3.189
13368W        W84984  11.121  22.082  13.539
13369W        W84985   0.599   0.792  11.994
13370W        W84986  42.531  28.370   0.566
13371W        W84987  43.860  12.762  12.982
13372W        W84988  39.899   0.506   3.574
13373W        W84989   2.313   4.051  13.304
13374W        W84990   9.866  25.547  12.959
13375W        W84991   0.494  44.400  12.053
13376W        W84992  43.496  16.366  14.404
13377W        W84993  32.866   1.205  13.465
13378W        W84994  10.154  41.308   1.790
13379W        W84995  10.637  33.913  10.710
13380W        W84996  36.913  19.967   4.838
13381W        W84997  29.437   7.117   3.946
13382W        W84998   9.393  27.476   0.933
13383W        W84999  29.209   5.879   1.223
13384W        W85000  28.561  19.690  12.118
13385W        W85001   0.881   6.672   1.362
13386W        W85002  19.668   8.692  10.464
13387W        W85003   1.853  16.599  13.129
13388W        W85004  42.488  16.269   4.626
13389W        W85005   5.176  12.998   0.892
13390W        W85006  43.998  25.427   3.586
13391W        W85007  32.518  39.509  14.292
13392W        W85008  39.036  24.325  12.294
13393W        W85009  18.184  15.333   1.461
13394W        W85010  27.727  19.200  14.953
13395W        W85011  39.901  42.531   1.899
13396W        W85012  10.064  28.031  13.901
13397W        W85013  38.400  20.080   0.497
13398W        W85014   8.132  26.026   4.437
13399W        W85015  18.858   2.631  13.862
13400W        W85016   1.354   8.248   1.648
13401W        W85017  12.183  17.499   2.395
13402W        W85018  36.015  36.913  13.834
13403W        W85019  23.372  33.164   1.862
13404W        W85020  12.808  19.844   0.397
13405W        W85021   4.351  27.714   0.107
13406W        W85022  35.401   6.758  10.401
13407W        W85023  21.280  34.160  13.936
13408W        W85024  12.708   1.049  14.918
13409W        W85025  24.253  18.412   2.637
13410W        W85026  32.470  11.465  13.951
13411W        W85027  43.060  30.097   0.202
13412W        W85028  24.203  14.795  12.934
13413W        W85029  20.949   1.926  13.004
13414W        W85030  43.540  34.081   2.808
13415W        W85031  31.100  36.159   4.176
13416W        W85032  28.881  41.804  14.795
13417W        W85033  40.843   9.754   0.470
13418W        W85034  24.173  16.049  10.793
13419W        W85035   9.597  33.519  11.102
13420W        W85036  40.259   6.220  13.595
13421W        W85037   2.936   2.791  12.908
13422W        W85038  43.367   7.407   0.006
13423W        W85039  21.002  44.065  13.512
13424W        W85040   0.887  30.576  11.689
13425W        W85041  33.990  40.708  12.662
13426W        W85042  14.351  15.849  11.974
13427W        W85043  13.808  30.380  14.570
13428W        W85044  43.236  28.332  12.486
13429W        W85045  37.309   6.420   1.407
13430W        W85046  26.530   1.628   3.774
13431W        W85047  13.630  12.833   2.802
13432W        W85048   8.472  21.050  13.262
13433W        W85049  11.615   6.884   2.032
13434W        W85050  34.461  29.448   0.830
13435W        W85051  37.460  11.666   1.244
13436W        W85052  33.553  14.586  12.514
13437W        W85053  16.073   6.739  13.998
13438W        W85054  26.261  41.113  14.050
13439W        W85055  40.931  43.788   2.808
13440W        W85056  30.201  12.295  13.075
13441W        W85057  13.229  14.781   4.493
13442W        W85058  13.630  30.457  12.051
13443W        W85059   1.267   9.895  13.938
13444W        W85060   1.810   9.819  11.681
13445W        W85061   0.616  13.113   0.369
13446W        W85062  39.995  12.464   3.135
13447W        W85063  39.464  20.016   3.168
13448W        W85064  13.875   5.134  14.784
13449W        W85065   6.750  31.659  13.423
13450W        W85066  29.826  38.759   2.677
13451W        W85067   3.437  42.499  13.995
13452W        W85068   2.749   8.563  13.302
13453W        W85069  20.210   3.535   4.504
13454W        W85070  23.475  23.198   0.742
13455W        W85071  44.365   0.690  12.821
13456W        W85072  11.619   5.042  13.794
13457W        W85073  23.583  27.397   0.511
13458W        W85074  22.058  43.236   3.204
13459W        W85075  44.886   5.311  10.705
13460W        W85076  29.537  33.522   0.774
13461W        W85077  24.411  32.547   3.196
13462W        W85078   0.090  27.158   3.684
13463W        W85079  42.528   2.974  11.726
13464W        W85080  12.610  42.309   1.949
13465W        W85081  17.133   7.258   3.314
13466W        W85082   8.276  10.641   1.444
13467W        W85083  40.456   6.279   1.393
13468W        W85084  39.482  28.144   1.768
13469W        W85085  20.260   3.959   4.200
13470W        W85086  27.606  23.457   1.465
13471W        W85087  43.835  33.787   3.705
13472W        W85088  16.501  10.399   2.402
13473W        W85089  10.404  18.257   0.941
13474W        W85090  15.974  18.525  14.437
13475W        W85091  12.068  23.664  14.983
13476W        W85092  16.245  31.235  12.992
13477W        W85093   7.132  18.211  12.809
13478W        W85094  40.432  14.700   1.814
13479W        W85095  43.035  20.679  13.996
13480W        W85096  34.890  29.551  12.081
13481W        W85097   4.405  11.368  14.821
13482W        W85098  25.026  36.928   2.347
13483W        W85099  28.731  31.891  14.698
13484W        W85100   1.816  30.692   2.130
13485W        W85101  42.392  19.008  13.250
13486W        W85102   5.615  15.565  11.579
13487W        W85103  44.731  40.374  11.080
13488W        W85104  39.781  10.372  10.134
13489W        W85105   8.188   4.384  12.830
13490W        W85106  42.259  41.050   3.767
13491W        W85107   6.824  31.429   1.730
13492W        W85108  33.961  15.513   3.283
13493W        W85109   1.909  40.802  10.650
13494W        W85110   2.852   9.937   0.290
13495W        W85111  34.550   7.686   4.551
13496W        W85112  42.340  28.012   3.415
13497W        W85113  28.469  36.037  12.799
13498W        W85114  22.724  41.480  13.349
13499W        W85115  26.515  30.671  12.327
13500W        W85116  29.181   9.207  13.495
13501W        W85117  31.689  11.760  12.568
13502W        W85118   2.387  32.835  10.515
13503W        W85119  41.547   5.705   1.300
13504W        W85120  32.393  18.817   1.933
13505W        W85121  26.985  23.894  11.009
13506W        W85122   0.807  21.158  11.122
13507W        W85123  35.534   9.454  14.001
13508W        W85124  14.776  39.097   3.214
13509W        W85125  33.208  15.803  11.969
13510W        W85126  32.888  15.574  12.661
13511W        W85127  35.460  30.364   3.347
13512W        W85128  32.724  40.500  12.460
13513W        W85129  16.590  40.288  13.461
13514W        W85130   6.964  42.222   0.267
13515W        W85131  12.901   4.066  10.765
13516W        W85132  16.245  23.453   0.022
13517W        W85133  31.411  42.044  13.094
13518W        W85134  17.182  15.754   2.390
13519W        W85135   4.728  27.226   3.675
13520W        W85136   3.055   2.501  11.731
13521W        W85137  39.527  27.568  11.525
13522W        W85138   3.432   6.779  11.631
13523W        W85139  11.477  32.183   2.599
13524W        W85140   9.289  25.574   4.387
13525W        W85141   2.779  34.769  10.701
13526W        W85142  16.668  32.353   3.824
13527W        W85143  19.380   1.989  11.926
13528W        W85144  29.014  43.512   1.348
13529W        W85145  40.852  12.436   0.393
13530W        W85146  15.169  38.902  14.572
13531W        W85147  24.086  14.987  10.687
13532W        W85148  16.380  28.862  14.908
13533W        W85149  12.901  11.266   3.177
13534W        W85150  41.018  19.329  13.468
13535W        W85151  20.737  20.802  12.950
13536W        W85152  35.702  24.822  13.302
13537W        W85153   7.141  44.714   1.301
13538W        W85154  41.308  27.996   3.286
13539W        W85155  25.164  16.311   0.826
13540W        W85156   0.449   4.621  12.887
13541W        W85157   9.811  43.959  12.091
13542W        W85158  21.615  13.148  13.347
13543W        W85159  35.487  21.373  13.859
13544W        W85160   0.413  11.906  11.734
13545W        W85161  37.978  13.987   9.738
13546W        W85162  16.541   8.584   1.837
13547W        W85163  16.146  36.520  14.482
13548W        W85164  34.943  27.131   3.081
13549W        W85165   5.908  20.568   3.646
13550W        W85166  14.395  14.140  11.211
13551W        W85167   4.406  35.940   2.951
13552W        W85168  16.471  34.981   3.405
13553W        W85169  17.957  31.397  10.769
13554W        W85170  15.676   0.905  11.060
13555W        W85171  33.686  14.673  13.289
13556W        W85172  16.783  44.482   5.531
13557W        W85173  12.567  18.117  12.755
13558W        W85174  31.953  34.649   2.189
13559W        W85175  33.338  10.408  12.996
13560W        W85176  12.175   1.199  14.962
13561W        W85177  12.172  38.444  10.692
13562W        W85178  35.347  32.163  14.079
13563W        W85179  14.996  39.976   0.841
13564W        W85180   2.738   3.576   1.050
13565W        W85181  39.347  40.928  14.388
13566W        W85182  24.560  39.936  14.425
13567W        W85183  15.660  20.202   3.781
13568W        W85184  36.309   6.717   2.751
13569W        W85185   4.289   2.940   3.595
13570W        W85186  17.834  11.709   3.237
13571W        W85187  41.116  23.504  12.015
13572W        W85188  34.641  44.229  13.430
13573W        W85189  19.092  22.593  14.897
13574W        W85190  22.555   7.835  12.822
13575W        W85191  43.966  32.384   1.049
13576W        W85192   7.131  42.938   3.729
13577W        W85193  27.668  14.276   2.777
13578W        W85194  21.648  43.007  13.782
13579W        W85195  14.058  22.538   1.321
13580W        W85196  32.485   5.841  11.093
13581W        W85197  32.472  22.283  12.073
13582W        W85198  33.206  41.298   2.469
13583W        W85199  37.407  25.182  12.414
13584W        W85200   2.282  24.998  14.838
13585W        W85201  29.122  11.791   1.400
13586W        W85202  29.035  31.463  11.340
13587W        W85203  10.953   5.933  10.689
13588W        W85204   1.636  43.997   0.302
13589W        W85205  44.836  44.331   0.722
13590W        W85206  30.587  28.699  14.134
13591W        W85207  41.437   6.238   3.366
13592W        W85208  19.739  33.955  12.591
13593W        W85209  17.516  35.503  12.502
13594W        W85210  10.811  32.303   3.608
13595W        W85211  16.211   4.387   3.728
13596W        W85212  23.782  19.061   2.849
13597W        W85213  33.666  24.675  10.633
13598W        W85214  39.468  44.343  12.937
13599W        W85215  25.185  19.118  11.453
13600W        W85216  27.468  43.018   3.583
13601W        W85217  24.629  31.247   0.843
13602W        W85218   0.756  10.658  13.866
13603W        W85219  16.815  10.072   4.203
13604W        W85220  14.527   3.961   4.715
13605W        W85221  42.562  34.271   3.691
13606W        W85222  39.486  10.483   4.107
13607W        W85223   4.759  12.232   2.420
13608W        W85224  44.297  14.368   2.151
13609W        W85225  23.914  23.194   3.627
13610W        W85226  31.726  41.610   4.612
13611W        W85227  14.772  19.616  14.066
13612W        W85228  10.342  20.274   4.949
13613W        W85229  11.387  13.756  12.976
13614W        W85230  20.663  38.881   2.193
13615W        W85231   6.314  40.216   9.743
13616W        W85232   5.950  42.162   4.691
13617W        W85233  24.893  19.661   5.083
13618W        W85234   9.713   3.453   1.381
13619W        W85235   7.170  38.026   1.287
13620W        W85236  36.990  21.270   2.277
13621W        W85237  22.114  39.586   3.754
13622W        W85238   1.498   5.436   0.737
13623W        W85239  26.088  28.968  13.473
13624W        W85240  32.404   0.668  12.097
13625W        W85241   4.152  35.491  13.329
13626W        W85242   1.436  31.158   4.217
13627W        W85243  35.123  36.384   3.844
13628W        W85244  25.492  15.933  14.973
13629W        W85245  42.967  27.089   3.621
13630W        W85246  10.412  14.251  14.453
13631W        W85247  24.151  15.117   4.589
13632W        W85248   4.366  40.292   3.288
13633W        W85249  21.640  33.151   1.700
13634W        W85250  20.591  17.700   3.662
13635W        W85251  40.350  12.948   3.294
13636W        W85252   4.786  27.569  11.510
13637W        W85253  35.661  30.672  11.387
13638W        W85254  21.534  37.870  11.128
13639W        W85255  28.859  32.524  13.923
13640W        W85256  30.556  19.265  12.886
13641W        W85257   7.078  15.562  13.352
13642W        W85258   8.696  31.383  14.918
13643W        W85259  19.036  41.914   3.169
13644W        W85260  37.781   9.137  11.495
13645W        W85261  41.798  33.501  14.256
13646W        W85262   6.273  30.751  13.337
13647W        W85263   0.700  19.566  12.498
13648W        W85264  20.205  35.030   2.394
13649W        W85265  20.252  28.679  12.931
13650W        W85266  26.304  28.690   3.296
13651W        W85267  18.811  27.387   1.473
13652W        W85268  21.975   7.738  13.462
13653W        W85269  33.823   9.200   0.837
13654W        W85270   3.649  44.087   4.605
13655W        W85271  42.438  19.592   2.401
13656W        W85272  30.498  39.315  11.847
13657W        W85273  38.052  19.745  14.961
13658W        W85274  18.090  36.968   0.438
13659W        W85275  42.506  42.288   2.115
13660W        W85276  18.094  29.668   4.575
13661W        W85277  12.759  14.825  10.740
13662W        W85278  18.501  11.147   4.037
13663W        W85279  26.940  25.104  12.399
13664W        W85280  14.640  40.615   0.098
13665W        W85281  36.109   1.940  12.998
13666W        W85282   2.253   3.414   2.757
13667W        W85283  40.872  23.176  10.773
13668W        W85284  21.722   2.056   4.124
13669W        W85285   0.423  20.148   3.606
13670W        W85286  39.330   0.442   4.808
13671W        W85287  42.318  18.515  11.574
13672W        W85288  32.869   1.347  14.424
13673W        W85289  13.591  44.544  11.861
13674W        W85290  34.855  10.868   2.718
13675W        W85291  42.437   3.939   0.032
13676W        W85292  43.956  43.512   4.204
13677W        W85293  23.666  22.407  10.688
13678W        W85294  29.485  41.114   2.859
13679W        W85295   1.966  23.594   1.492
13680W        W85296   6.418  18.438  12.371
13681W        W85297  33.188  13.285   4.569
13682W        W85298   6.243   9.272   0.424
13683W        W85299  12.223  35.352  11.290
13684W        W85300  31.992  13.891   2.643
13685W        W85301  36.095  32.091  11.197
13686W        W85302  44.449   5.988  12.448
13687W        W85303  10.255   9.150  11.567
13688W        W85304  20.720  13.085  11.115
13689W        W85305   9.761  25.569   0.804
13690W        W85306  16.836  38.410   2.660
13691W        W85307  23.359   1.950   0.661
13692W        W85308  36.024  15.361  10.589
13693W        W85309  12.298   6.255   4.548
13694W        W85310  32.369  42.457   0.503
13695W        W85311  16.166   4.450  14.651
13696W        W85312  39.446  42.954   3.599
13697W        W85313  26.073  19.603  14.855
13698W        W85314  35.419  18.811  11.097
13699W        W85315   1.357   0.800  13.320
13700W        W85316  33.004  36.385  10.539
13701W        W85317  34.379  39.574   4.018
13702W        W85318  21.694  31.970   1.665
13703W        W85319  43.390  19.204   2.996
13704W        W85320  39.938  28.096  10.814
13705W        W85321  17.635  36.212   0.437
13706W        W85322   4.666  25.232  14.005
13707W        W85323  38.614   2.977  11.977
13708W        W85324  24.775  30.259   0.497
13709W        W85325  11.257  19.045  11.607
13710W        W85326  14.865  41.800  14.117
13711W        W85327  28.927  26.071  14.894
13712W        W85328  42.627  32.581  14.440
13713W        W85329   8.672  16.664   2.550
13714W        W85330  11.867  37.060  11.866
13715W        W85331   6.768   5.316   3.420
13716W        W85332  25.225  40.961  11.012
13717W        W85333  28.089   8.134   4.549
13718W        W85334  28.891  37.659  13.411
13719W        W85335  23.540  35.193   4.639
13720W        W85336  11.390  44.841   1.570
13721W        W85337  44.072  40.837  12.850
13722W        W85338  19.821  17.013   2.864
13723W        W85339  32.872   2.887  11.464
13724W        W85340  25.209  42.785  14.083
13725W        W85341  23.524  32.810   4.815
13726W        W85342   5.909  39.460  14.097
13727W        W85343  27.406  33.083   0.808
13728W        W85344  16.777   8.240  14.952
13729W        W85345   7.061  27.113   3.685
13730W        W85346  12.168  41.876  11.584
13731W        W85347   6.298  25.950  12.403
13732W        W85348  13.360  16.819   3.199
13733W        W85349  38.276   7.235  14.328
13734W        W85350  23.016  15.989   1.125
13735W        W85351  30.125  39.231   5.017
13736W        W85352   9.253  14.140  14.959
13737W        W85353  16.593  41.551  12.101
13738W        W85354  28.071   2.982  11.539
13739W        W85355  32.997  22.776   3.053
13740W        W85356   1.436  21.955  14.506
13741W        W85357   3.101  20.993   2.475
13742W        W85358  30.165  25.620   0.903
13743W        W85359  23.842  29.524   3.343
13744W        W85360  38.749  21.291   4.548
13745W        W85361  24.492  26.638   1.757
13746W        W85362  27.503  17.039   4.481
13747W        W85363   3.274  38.318  11.270
13748W        W85364  16.244  16.047  11.043
13749W        W85365  19.736  34.308  11.600
13750W        W85366  12.397   6.622   4.206
13751W        W85367   3.232  10.771  12.717
13752W        W85368   9.299   5.135  12.065
13753W        W85369   1.780  27.971  14.463
13754W        W85370  32.983  22.423   1.709
13755W        W85371   4.422   8.670   0.811
13756W        W85372  19.128  10.586  12.136
13757W        W85373  17.767  39.987  13.344
13758W        W85374  26.239  23.749  11.533
13759W        W85375  34.775  13.338   3.188
13760W        W85376   4.267   0.505   3.798
13761W        W85377  35.598  12.396  12.330
13762W        W85378  38.027  29.005  14.011
13763W        W85379   9.164  31.419   4.149
13764W        W85380  25.991  41.482  10.492
13765W        W85381   3.410  21.493   3.279
13766W        W85382  43.327  35.341   2.103
13767W        W85383  36.046  12.707  10.703
13768W        W85384   2.442  18.118   3.437
13769W        W85385  23.042  33.504  10.609
13770W        W85386  31.082  15.555  10.769
13771W        W85387  33.581   4.949   0.673
13772W        W85388  40.975  37.642   3.683
13773W        W85389  16.071  32.403  10.649
13774W        W85390  34.998   5.949  11.075
13775W        W85391  39.022  20.788   3.889
13776W        W85392   9.335   0.758  10.732
13777W        W85393  12.391  24.559   1.827
13778W        W85394  36.625  44.596  13.115
13779W        W85395  17.096  38.941   0.261
13780W        W85396  13.358  11.427  12.073
13781W        W85397   6.964   9.841  14.381
13782W        W85398  42.232  36.404   4.136
13783W        W85399  26.196  16.225   9.779
13784W        W85400  34.977  44.868  10.089
13785W        W85401  32.046  24.404   1.773
13786W        W85402  20.850  40.958  13.906
13787W        W85403  35.024  20.366   3.228
13788W        W85404  29.572  22.697   3.604
13789W        W85405  30.422  28.064   1.250
13790W        W85406  32.944  27.820  13.644
13791W        W85407  34.588  30.116   2.714
13792W        W85408  32.890  39.287  11.691
13793W        W85409   9.907  43.032   1.319
13794W        W85410  19.249  12.743   3.917
13795W        W85411  11.383  19.608  10.763
13796W        W85412  11.346  31.589  10.655
13797W        W85413  16.685  12.835   3.754
13798W        W85414   4.283  10.130  11.575
13799W        W85415   0.124  33.481  11.580
13800W        W85416  21.567  31.351  12.572
13801W        W85417  44.763   3.702  12.113
13802W        W85418   8.921  40.348  11.074
13803W        W85419  23.664   4.228   2.630
13804W        W85420  14.807  35.304  12.847
13805W        W85421  42.827  39.582   2.243
13806W        W85422  26.057  39.278   0.427
13807W        W85423  35.905   2.279   3.193
13808W        W85424  15.053  42.417  12.910
13809W        W85425  36.192  44.085   0.726
13810W        W85426  27.630   0.826  12.134
13811W        W85427  12.756  28.999   2.640
13812W        W85428  26.141  25.653   5.034
13813W        W85429  41.932  21.761   4.900
13814W        W85430  34.437  31.978  11.168
13815W        W85431  35.516  41.757  12.834
13816W        W85432   0.270   0.427  11.817
13817W        W85433  25.283   8.010   1.863
13818W        W85434  17.180  16.685  12.461
13819W        W85435   7.224  26.733  12.198
13820W        W85436  20.715  14.762  14.518
13821W        W85437   7.456  18.778  11.493
13822W        W85438  27.058  40.597   0.785
13823W        W85439   7.822   9.209  13.843
13824W        W85440   3.309  16.265  14.715
13825W        W85441  22.234  37.302  14.528
13826W        W85442  20.947  39.826   0.218
13827W        W85443  12.069  44.390  14.418
13828W        W85444  18.282  31.117   0.060
13829W        W85445  31.341  24.671   3.665
13830W        W85446  33.129  14.713  10.408
13831W        W85447  20.313   2.984  12.642
13832W        W85448  32.743  26.152   0.829
13833W        W85449   3.415  17.753  12.602
13834W        W85450  30.913  38.273   4.808
13835W        W85451  36.089   1.478   3.578
13836W        W85452  23.321  39.315  14.290
13837W        W85453  14.595  33.434  10.449
13838W        W85454  41.077   9.196   4.633
13839W        W85455  44.022  23.338   2.411
13840W        W85456  17.191  22.262  13.887
13841W        W85457   6.214   5.495   3.342
13842W        W85458  11.155  27.131   2.290
13843W        W85459   0.257  19.325   4.011
13844W        W85460  20.172  20.669   2.384
13845W        W85461  35.331  24.492   2.743
13846W        W85462  31.990  29.221   3.867
13847W        W85463  28.185   2.782   2.162
13848W        W85464   9.645  43.926  13.006
13849W        W85465  17.116   5.899   3.670
13850W        W85466  15.677  41.985  14.409
13851W        W85467  22.800  18.187  13.348
13852W        W85468  28.797  10.320  12.965
13853W        W85469  32.999   1.666  14.007
13854W        W85470  22.091  10.387   0.422
13855W        W85471  14.234  40.394  14.849
13856W        W85472  34.543   0.135  11.049
13857W        W85473  22.198  39.050   1.745
13858W        W85474  18.032   9.165   4.953
13859W        W85475   5.005  20.796  14.859
13860W        W85476  26.045  42.125  14.103
13861W        W85477  40.162  40.637   2.766
13862W        W85478  42.336  17.905  13.920
13863W        W85479  19.816  37.476  12.310
13864W        W85480  18.804  32.538   1.737
13865W        W85481  36.056  28.986   3.715
13866W        W85482  35.366  24.846  11.138
13867W        W85483  41.936   6.336   3.570
13868W        W85484   6.907  11.062   3.752
13869W        W85485  11.770  39.923  13.350
13870W        W85486  29.989  11.360   4.246
13871W        W85487  28.831   7.296   1.065
13872W        W85488  25.078  44.734   2.626
13873W        W85489  17.037  14.547   1.642
13874W        W85490  28.332  36.618   1.486
13875W        W85491   4.783  31.341  14.940
13876W        W85492  40.515  25.596   0.019
13877W        W85493  30.013  30.454  14.322
13878W        W85494  30.708  17.570  12.516
13879W        W85495  41.032   0.500  10.720
13880W        W85496  38.466  28.111  10.438
13881W        W85497  20.188  18.038  14.362
13882W        W85498  23.663  21.049   0.814
13883W        W85499  11.831  13.161  11.061
13884W        W85500  12.043  20.368  13.538
13885W        W85501  35.683   6.465   0.677
13886W        W85502  22.727  20.249  13.302
13887W        W85503  17.867  14.672   4.659
13888W        W85504  13.756  39.207  10.766
13889W        W85505  36.626  17.534  14.960
13890W        W85506  26.503  43.048  12.526
13891W        W85507   3.379  15.786   0.469
13892W        W85508  12.613  28.254  12.400
13893W        W85509   6.592  35.987   3.376
13894W        W85510  11.429  21.721  14.319
13895W        W85511   3.370   1.707  12.740
13896W        W85512  32.886   9.395  12.423
13897W        W85513  28.459  31.526   3.763
13898W        W85514  16.094  16.624  12.525
13899W        W85515  19.457   3.317   0.351
13900W        W85516  31.637  15.665   2.338
13901W        W85517  24.247  15.730   1.215
13902W        W85518   4.220   9.111   3.207
13903W        W85519  19.648  30.100   4.755
13904W        W85520  39.229   4.081  14.404
13905W        W85521  40.690  12.070  11.143
13906W        W85522  27.070   1.439   1.229
13907W        W85523  40.173  43.480  12.608
13908W        W85524  18.948  14.771  12.170
13909W        W85525   9.894  27.970   4.339
13910W        W85526   0.652  15.189   1.244
13911W        W85527  18.807  32.026   1.013
13912W        W85528  36.640  22.175   0.230
13913W        W85529  36.649  12.552  10.646
13914W        W85530  41.169  41.844  14.301
13915W        W85531  22.956  11.401  11.560
13916W        W85532  16.051   2.241  11.145
13917W        W85533  31.946   2.432   3.062
13918W        W85534  38.806  10.709   0.005
13919W        W85535   8.154  10.227  11.538
13920W        W85536  10.174  32.137  10.723
13921W        W85537   1.253  14.828  11.148
13922W        W85538   3.238   0.757   3.172
13923W        W85539  16.850   4.708  13.793
13924W        W85540  32.658   3.922   0.089
13925W        W85541  43.054   9.681   0.704
13926W        W85542  18.023  28.992   0.238
13927W        W85543  35.785  11.391  12.709
13928W        W85544  23.705  37.567  13.373
13929W        W85545  26.189  18.837  11.578
13930W        W85546  14.793  38.929  12.090
13931W        W85547  21.690  23.567  13.760
13932W        W85548  15.321  22.140  14.312
13933W        W85549  35.945   0.389   0.171
13934W        W85550  28.412   7.193   1.377
13935W        W85551  22.134   9.871   0.583
13936W        W85552   6.416  18.693  11.544
13937W        W85553  36.585  23.410  10.865
13938W        W85554  32.650  41.518  13.898
13939W        W85555  33.186  17.241  11.953
13940W        W85556   2.369  36.270  14.945
13941W        W85557   5.260  28.469  12.096
13942W        W85558  30.369  42.932   0.213
13943W        W85559   6.240  23.033  12.832
13944W        W85560  24.966  24.732  12.514
13945W        W85561  18.544  40.043   3.912
13946W        W85562  14.799  18.323  11.470
13947W        W85563   9.392   4.808  10.780
13948W        W85564  24.542   9.712   0.213
13949W        W85565  19.596  14.414   4.483
13950W        W85566  40.802   9.322  13.091
13951W        W85567  34.701  26.835  12.899
13952W        W85568  40.101  26.918   0.453
13953W        W85569  17.201  37.293   0.954
13954W        W85570   6.265  36.875  11.011
13955W        W85571  42.886  33.981  14.555
13956W        W85572  30.052  35.175   0.418
13957W        W85573  15.762  30.176  11.560
13958W        W85574   4.495  14.073  13.083
13959W        W85575   7.719  17.059   1.240
13960W        W85576  29.777  44.956  12.880
13961W        W85577   0.238  31.075  13.998
13962W        W85578  20.656  27.960  12.301
13963W        W85579  13.639   4.779  13.857
13964W        W85580  13.688   0.325  13.955
13965W        W85581  40.262   3.288   9.870
13966W        W85582  30.673  31.524  13.842
13967W        W85583  13.732  23.536   1.002
13968W        W85584  14.831  26.603  10.379
13969W        W85585  17.772  13.095   4.657
13970W        W85586   3.756   1.431   0.541
13971W        W85587  15.135  34.399  11.985
13972W        W85588  31.881  10.395  10.911
13973W        W85589  14.057   4.187  11.070
13974W        W85590   4.888  11.293  11.596
13975W        W85591  40.855  35.458   3.758
13976W        W85592  39.360   5.803   2.800
13977W        W85593  34.470  17.111  12.772
13978W        W85594  39.419  32.435  11.113
13979W        W85595  30.685   8.073  12.591
13980W        W85596  20.652  31.031  14.513
13981W        W85597  44.804  19.716   2.260
13982W        W85598   4.935  24.631  13.462
13983W        W85599   7.423  35.855  14.791
13984W        W85600  24.806  24.128   0.058
13985W        W85601  21.285   0.771   4.874
13986W        W85602  29.149  13.589   4.289
13987W        W85603  39.015  24.994   1.954
13988W        W85604  20.051   0.503  10.513
13989W        W85605  33.637   5.910   3.720
13990W        W85606   4.912  25.339   3.275
13991W        W85607   4.232   3.654  14.460
13992W        W85608  28.602  13.215  12.614
13993W        W85609   1.307  15.646  14.578
13994W        W85610   5.192   1.423   2.094
13995W        W85611  30.323  41.637   2.463
13996W        W85612  44.970   0.008  10.395
13997W        W85613  41.483  11.516   4.258
13998W        W85614   1.867  41.468   0.245
13999W        W85615  39.097  18.658  11.579
14000W        W85616  22.194   6.057   2.573
14001W        W85617  32.105  41.986   4.779
14002W        W85618  43.958   5.100   4.855
14003W        W85619  32.376  37.873  11.524
14004W        W85620  31.428  25.446   3.287
14005W        W85621  42.975  27.635   2.333
14006W        W85622   1.044  14.985   2.700
14007W        W85623  34.563  12.236   1.341
14008W        W85624   8.436  34.067   2.748
14009W        W85625  19.073  31.024   3.423
14010W        W85626  10.410  28.544   3.900
14011W        W85627  33.541  36.718   1.419
14012W        W85628  24.505  32.936   4.493
14013W        W85629   4.908  23.604  14.984
14014W        W85630  38.167  42.909  13.826
14015W        W85631  30.419   6.414  10.547
14016W        W85632   0.471  15.299   1.903
14017W        W85633  40.985  37.122   0.163
14018W        W85634  42.070   5.442  14.527
14019W        W85635  43.540  18.903  12.489
14020W        W85636  19.861  21.711  12.024
14021W        W85637  34.879  33.049   3.106
14022W        W85638  35.539   5.677  10.468
14023W        W85639  35.131  37.435   4.208
14024W        W85640  22.297  22.570  12.385
14025W        W85641  20.553  32.087  11.511
14026W        W85642  32.453  27.078  12.920
14027W        W85643  41.707  33.673  14.974
14028W        W85644  22.889   9.125  14.921
14029W        W85645   2.473  39.386   2.729
14030W        W85646  10.868  32.287  14.688
14031W        W85647   9.339  24.602   3.122
14032W        W85648  31.580  31.570  13.819
14033W        W85649  22.600   8.372   4.587
14034W        W85650  38.800  15.740   1.850
14035W        W85651  33.693  37.970   1.506
14036W        W85652  18.500  37.266   0.260
14037W        W85653  26.745   3.706   1.066
14038W        W85654   4.271  37.767  13.805
14039W        W85655  16.141  38.985  14.815
14040W        W85656   8.232  27.528  10.627
14041W        W85657  32.625  28.135  11.577
14042W        W85658  20.982  17.374   2.115
14043W        W85659  35.038  37.307   3.709
14044W        W85660   1.985  15.578   3.334
14045W        W85661  23.983  19.769   0.774
14046W        W85662  28.200  39.323   0.798
14047W        W85663  35.852  37.879   3.399
14048W        W85664   9.316   6.621  12.036
14049W        W85665  19.509   8.328  14.963
14050W        W85666  16.830   1.689   3.630
14051W        W85667  21.732   7.921   0.420
14052W        W85668   9.179   4.907  14.800
14053W        W85669   5.206  31.167   0.169
14054W        W85670   7.813  27.637  14.958
14055W        W85671  39.988  11.655   4.637
14056W        W85672  30.005  33.372   3.141
14057W        W85673  10.776   6.850   2.077
14058W        W85674  40.072   5.913   0.518
14059W        W85675  33.848  35.443   1.372
14060W        W85676   8.179  32.976  10.384
14061W        W85677   2.454  32.953  14.863
14062W        W85678  31.575  18.787   1.012
14063W        W85679  30.810  36.039  10.121
14064W        W85680  38.033   1.266   1.875
14065W        W85681  26.241   4.168  13.480
14066W        W85682   3.197  35.345  12.005
14067W        W85683  39.442  29.511   2.130
14068W        W85684  43.260  14.061  11.623
14069W        W85685  42.358  15.698   3.906
14070W        W85686  18.606  43.489   2.879
14071W        W85687  39.061   3.800  12.827
14072W        W85688  38.488  10.385  12.617
14073W        W85689  31.596   1.676  10.137
14074W        W85690  37.351  38.328  14.318
14075W        W85691  21.278   8.412  11.598
14076W        W85692  33.778  40.429   4.058
14077W        W85693  39.520   5.286   4.644
14078W        W85694  18.152  13.880   1.354
14079W        W85695  42.184  33.799  12.910
14080W        W85696  16.414  12.587   1.354
14081W        W85697  31.426   1.983  10.496
14082W        W85698  23.608   1.299   1.873
14083W        W85699  39.796  32.383  12.421
14084W        W85700  24.208   7.859  13.481
14085W        W85701  42.501  25.250   4.850
14086W        W85702  13.755  15.033   3.105
14087W        W85703   3.426  36.051  12.480
14088W        W85704   0.936   0.936   5.120
14089W        W85705  20.438   6.590   2.063
14090W        W85706  35.816  32.028  11.663
14091W        W85707  33.418  22.832   5.190
14092W        W85708  21.825   1.276  12.053
14093W        W85709   2.220  22.119  10.700
14094W        W85710  14.503   7.303   2.756
14095W        W85711  36.432  40.717  14.867
14096W        W85712  14.813   5.570   3.979
14097W        W85713  25.543  43.453   1.277
14098W        W85714   5.785  38.446  13.011
14099W        W85715   1.685  40.457  12.066
14100W        W85716   4.758   1.345   1.824
14101W        W85717  43.994  14.785  11.634
14102W        W85718  42.753  22.541  14.349
14103W        W85719  35.826  21.569   2.713
14104W        W85720  34.586  31.926   3.171
14105W        W85721  18.537  44.502  12.009
14106W        W85722  34.127   8.436  10.677
14107W        W85723   0.359  11.482   2.197
14108W        W85724  14.144  40.342  13.882
14109W        W85725  22.748   0.432  13.863
14110W        W85726  37.321   2.616   4.976
14111W        W85727  18.577  34.529   3.196
14112W        W85728  36.755   2.891  11.206
14113W        W85729  15.730  29.563   4.562
14114W        W85730  24.141  29.897  14.331
14115W        W85731  22.937   8.941   4.136
14116W        W85732   4.735   4.792   3.679
14117W        W85733   0.465   1.516   0.981
14118W        W85734  26.508  26.441  10.642
14119W        W85735   9.392  18.094  12.938
14120W        W85736  35.044  12.676  11.887
14121W        W85737  44.459  15.275   1.799
14122W        W85738  39.372  32.321  14.340
14123W        W85739  27.624  35.166   1.668
14124W        W85740   2.476  37.535  12.089
14125W        W85741  29.031  14.716   2.734
14126W        W85742  16.186  16.035  14.623
14127W        W85743   7.465  39.009   4.448
14128W        W85744  10.992  25.512   3.743
14129W        W85745   1.589  24.288  10.414
14130W        W85746  20.870  14.976   2.710
14131W        W85747  12.310  40.634   3.825
14132W        W85748  34.562  35.924   4.360
14133W        W85749  18.525   9.859   1.821
14134W        W85750   0.381   9.691  13.553
14135W        W85751  44.303  11.728   0.253
14136W        W85752  14.026  14.264   1.124
14137W        W85753  18.150  37.647   4.041
14138W        W85754  17.008   1.651  14.413
14139W        W85755  31.952  14.193   0.889
14140W        W85756  35.369  16.454  11.982
14141W        W85757   5.190  21.181  10.714
14142W        W85758  29.716  32.939   1.350
14143W        W85759   6.493   0.205  14.294
14144W        W85760   2.174  39.950   3.936
14145W        W85761  44.410  20.771   1.246
14146W        W85762  23.487  37.069   1.904
14147W        W85763  27.934   6.963   1.387
14148W        W85764  14.037   8.744   1.167
14149W        W85765  34.995   1.238   2.402
14150W        W85766   6.019  25.722   3.925
14151W        W85767  32.437  34.245  14.763
14152W        W85768  44.208  44.448   3.247
14153W        W85769  14.161  17.801   9.965
14154W        W85770   7.254  31.900   4.305
14155W        W85771  18.631  39.388   3.973
14156W        W85772  44.344  27.070   1.277
14157W        W85773  29.206  36.503   1.908
14158W        W85774  27.713  35.263   0.229
14159W        W85775   6.169  12.778   0.997
14160W        W85776  27.442  43.770  12.311
14161W        W85777  43.253  38.100  11.931
14162W        W85778  29.201  42.579  14.399
14163W        W85779  29.513  31.365  11.487
14164W        W85780  42.975   1.499   3.117
14165W        W85781  24.703   3.810   4.180
14166W        W85782  30.775  18.442  13.490
14167W        W85783   1.498   8.733   4.350
14168W        W85784   8.552  41.323  14.929
14169W        W85785  36.091  42.976   2.585
14170W        W85786   7.437   4.708   0.490
14171W        W85787   6.468  17.200   4.515
14172W        W85788  31.088  44.293  14.110
14173W        W85789  15.675  39.387   0.667
14174W        W85790  16.930  34.812  12.047
14175W        W85791   3.656  16.987  11.218
14176W        W85792  22.779  43.951   3.174
14177W        W85793   8.859  40.021   4.242
14178W        W85794   6.894  31.024   2.704
14179W        W85795   1.808  33.439  13.530
14180W        W85796  34.224  41.805   3.639
14181W        W85797   5.073  20.088   4.617
14182W        W85798  19.299  32.842  13.914
14183W        W85799  12.820  42.792   3.225
14184W        W85800   7.413   9.249   4.710
14185W        W85801  32.152   6.419   1.966
14186W        W85802  21.717   3.687  11.080
14187W        W85803  22.236  39.992   0.737
14188W        W85804   9.450  26.897  12.917
14189W        W85805  33.475  30.511  13.348
14190W        W85806   6.069  21.748  11.723
14191W        W85807  33.118  23.013  13.543
14192W        W85808  17.231  33.582   1.434
14193W        W85809   8.876  10.045   3.918
14194W        W85810   7.693  13.916  14.535
14195W        W85811  16.101  43.727   0.394
14196W        W85812  29.771   3.775  14.998
14197W        W85813  18.566  10.906  14.478
14198W        W85814   0.246  28.927  11.594
14199W        W85815  33.584  11.207   1.782
14200W        W85816  14.638   2.147   3.500
14201W        W85817   6.270  35.433   1.726
14202W        W85818   4.617  36.002   4.232
14203W        W85819   2.210  11.669  12.452
14204W        W85820   6.612   6.233  11.026
14205W        W85821  40.905   0.384   0.451
14206W        W85822  25.165  14.959   1.146
14207W        W85823  40.891  41.065   4.122
14208W        W85824  32.771  36.388   1.548
14209W        W85825  33.468  43.196  11.934
14210W        W85826  16.331   6.809  14.851
14211W        W85827  25.272  14.286  11.895
14212W        W85828  26.784  31.476  14.260
14213W        W85829   5.302   2.747  13.531
14214W        W85830   7.908  42.049  12.642
14215W        W85831  25.474  10.068   4.778
14216W        W85832  34.421  33.878  14.812
14217W        W85833   6.712  41.552  14.050
14218W        W85834  21.730  26.565  12.342
14219W        W85835   0.342  28.078  14.723
14220W        W85836  28.566  18.038   1.765
14221W        W85837  13.278  25.011   4.656
14222W        W85838  13.885  18.643  12.155
14223W        W85839  35.785  30.996   2.810
14224W        W85840  15.768  33.077  14.903
14225W        W85841  21.508  33.036  13.360
14226W        W85842   4.301  23.823   1.910
14227W        W85843  13.835  29.462  10.610
14228W        W85844  38.357  25.589   5.038
14229W        W85845  33.333  16.199   3.514
14230W        W85846  34.169  38.684   3.700
14231W        W85847  23.564  21.105   4.438
14232W        W85848  42.594   9.646   3.101
14233W        W85849  33.698  20.878   0.279
14234W        W85850  10.618   9.339   1.833
14235W        W85851  10.301   9.794  14.077
14236W        W85852  44.798  33.531   3.310
14237W        W85853  29.616   6.375   4.689
14238W        W85854  27.380  19.749  13.990
14239W        W85855  33.373  41.347  14.659
14240W        W85856  36.258  29.588   1.453
14241W        W85857  31.353  43.889  11.607
14242W        W85858  44.771  18.046  13.495
14243W        W85859  12.841  19.854  14.056
14244W        W85860  44.953  16.550   4.151
14245W        W85861  32.542  25.746  14.510
14246W        W85862  31.506  26.124   4.076
14247W        W85863  28.681  24.598  11.131
14248W        W85864   1.022  28.144   3.290
14249W        W85865   4.192  33.071   1.737
14250W        W85866  34.949   3.887   0.436
14251W        W85867  41.951  21.255   3.156
14252W        W85868  31.259  13.229   2.666
14253W        W85869  25.661  12.577   0.274
14254W        W85870  23.530  38.427  14.440
14255W        W85871  19.571   0.059   4.772
14256W        W85872   5.337  33.499   2.256
14257W        W85873  37.663  23.237  14.815
14258W        W85874  12.231  19.072  12.121
14259W        W85875  34.277  18.537   2.343
14260W        W85876  27.912  38.844  10.310
14261W        W85877   4.858  40.458   3.256
14262W        W85878  23.682  13.667  10.708
14263W        W85879  38.669   1.115   5.004
14264W        W85880  11.187  35.857   0.706
14265W        W85881  40.196  31.440  14.260
14266W        W85882  23.015  10.350   3.579
14267W        W85883  24.266  40.574   2.460
14268W        W85884  15.758  25.929  14.607
14269W        W85885  32.972  23.594   1.041
14270W        W85886  43.949  36.063   0.334
14271W        W85887  16.142   5.986   3.730
14272W        W85888  44.147   0.995  11.876
14273W        W85889   0.271  33.874  11.917
14274W        W85890   8.383  38.857  13.482
14275W        W85891   3.787  18.683  11.086
14276W        W85892  10.214  11.112   0.807
14277W        W85893  24.060  10.654  13.764
14278W        W85894   5.466  44.488   5.440
14279W        W85895  29.401  28.695  10.160
14280W        W85896  41.536  27.003   3.163
14281W        W85897  20.487  34.420   4.760
14282W        W85898  37.816   6.003  13.129
14283W        W85899  27.960  20.718   1.858
14284W        W85900  44.066  43.939  14.245
14285W        W85901  15.053  29.088   3.726
14286W        W85902  30.447  25.975   2.393
14287W        W85903  16.742  44.934   9.731
14288W        W85904  33.586  23.465   3.539
14289W        W85905  42.366  36.781  11.584
14290W        W85906  42.849   5.278  11.024
14291W        W85907  30.143  18.039  10.844
14292W        W85908  20.575  43.286  12.947
14293W        W85909  39.330  19.094  10.672
14294W        W85910   2.432   3.012  12.533
14295W        W85911  30.353  24.875   4.550
14296W        W85912  43.706  22.657  10.756
14297W        W85913  21.768   1.998   1.340
14298W        W85914  13.319  14.314   4.708
14299W        W85915  44.898  21.083  14.932
14300W        W85916  40.952  30.736  14.346
14301W        W85917  17.073  24.162   1.943
14302W        W85918  18.873  15.196  11.244
14303W        W85919   7.656  42.968   9.803
14304W        W85920  38.139  33.497  14.272
14305W        W85921   9.595   6.114   4.324
14306W        W85922  31.876  17.211   0.277
14307W        W85923  12.876   5.258  11.118
14308W        W85924  42.831  42.998  11.083
14309W        W85925  21.696  41.955  14.035
14310W        W85926  34.919  34.134   3.708
14311W        W85927  20.937  41.481  11.190
14312W        W85928   3.028   8.696   4.119
14313W        W85929   7.486  14.330  12.047
14314W        W85930  13.396  42.483  10.782
14315W        W85931  39.331  23.684  14.025
14316W        W85932   0.669  39.437  11.940
14317W        W85933  44.603  31.489   1.853
14318W        W85934   4.286  32.355  11.133
14319W        W85935  38.925  16.850   0.943
14320W        W85936  17.319  12.373   1.250
14321W        W85937   3.443   4.218  10.737
14322W        W85938   5.801   0.777   2.457
14323W        W85939  35.537  28.091  13.401
14324W        W85940  40.622  26.149  14.525
14325W        W85941  37.998  20.746   3.164
14326W        W85942  30.553  20.872   2.521
14327W        W85943  14.572  17.733   5.404
14328W        W85944  44.969  41.909  10.553
14329W        W85945  35.302  28.891  10.941
14330W        W85946  36.444  37.322  10.228
14331W        W85947  30.883  41.997  11.900
14332W        W85948  33.768   0.481  11.507
14333W        W85949   4.309  38.055  13.398
14334W        W85950  39.962  40.778  13.389
14335W        W85951  43.381   2.771   3.324
14336W        W85952   0.931  30.426  13.527
14337W        W85953  18.127  14.776   2.777
14338W        W85954  40.839  26.770  12.760
14339W        W85955  12.246  14.367   1.543
14340W        W85956  40.407  10.421   4.004
14341W        W85957  40.762  36.285   2.983
14342W        W85958   6.698  11.658   4.984
14343W        W85959  28.494  29.952  11.347
14344W        W85960  44.747   1.874   5.144
14345W        W85961   2.282  18.467   4.956
14346W        W85962  16.597  13.914  12.761
14347W        W85963  10.958  33.074  12.155
14348W        W85964  19.485  13.199  13.716
14349W        W85965  12.325  39.930   3.674
14350W        W85966  33.649   0.263  11.998
14351W        W85967   4.709  44.889  12.530
14352W        W85968  37.055  11.897   4.276
14353W        W85969  43.584  26.131   3.939
14354W        W85970   9.296  33.101  13.401
14355W        W85971  10.727  32.125   1.928
14356W        W85972   5.163  29.904   0.876
14357W        W85973  13.873  33.213  13.398
14358W        W85974  27.150  36.029  10.616
14359W        W85975   5.783  44.715   1.489
14360W        W85976  14.370  35.190  10.813
14361W        W85977  11.539   7.243   0.345
14362W        W85978  38.090  28.489  11.236
14363W        W85979  31.483   3.325   2.876
14364W        W85980   8.442  29.778  12.978
14365W        W85981  36.944  35.844   4.779
14366W        W85982   6.201  14.228   0.182
14367W        W85983  38.348  37.406  12.927
14368W        W85984   0.763  17.548   4.098
14369W        W85985  43.413  16.052   4.190
14370W        W85986  36.457  36.300   4.150
14371W        W85987  31.182  38.925   4.248
14372W        W85988  14.435  19.558  11.165
14373W        W85989  10.792  18.035   0.514
14374W        W85990  43.660  37.476  12.432
14375W        W85991   7.609  18.038   3.275
14376W        W85992  14.506  24.694  13.015
14377W        W85993  19.186  30.122   1.448
14378W        W85994  44.548  11.653  12.678
14379W        W85995  29.590  28.807   3.576
14380W        W85996  26.078  22.451   3.216
14381W        W85997  42.945  35.582   3.382
14382W        W85998  23.216  20.049  13.136
14383W        W85999  24.121  39.761  10.075
14384W        W86000  12.102  27.897   3.334
14385W        W86001  40.027  30.158   4.508
14386W        W86002  13.199   9.351  13.034
14387W        W86003  42.400  35.012   0.895
14388W        W86004  40.050  13.723  13.895
14389W        W86005  10.651  33.544  13.008
14390W        W86006  44.941   7.179   2.935
14391W        W86007  36.210  21.567   4.103
14392W        W86008  41.890   5.297  12.678
14393W        W86009  25.448  26.445  13.167
14394W        W86010  10.689  44.533   4.134
14395W        W86011  38.571  19.768  11.582
14396W        W86012  15.236  11.554  13.252
14397W        W86013  26.703  10.824   0.808
14398W        W86014  25.324  24.954  14.900
14399W        W86015  15.282  41.907   1.322
14400W        W86016  22.728   3.536  12.087
14401W        W86017   3.462  17.740  11.019
14402W        W86018   4.262  16.084  11.510
14403W        W86019  13.648   1.223   0.686
14404W        W86020  28.143   8.223   1.317
14405W        W86021   2.436  44.029   1.887
14406W        W86022  20.816  41.037   1.168
14407W        W86023  44.076  11.847   2.704
14408W        W86024  12.144   2.184  13.998
14409W        W86025  30.998  37.075  11.650
14410W        W86026  21.315  38.401   2.284
14411W        W86027  28.989  28.980  12.606
14412W        W86028   2.304  19.732  13.557
14413W        W86029  37.380  42.446  11.502
14414W        W86030  26.635  23.439   0.353
14415W        W86031  18.779  18.051   2.214
14416W        W86032  42.797  12.747  11.518
14417W        W86033  36.507  16.221   3.216
14418W        W86034  16.127   5.702   4.225
14419W        W86035  16.649  13.784   0.700
14420W        W86036  28.396  15.585  10.745
14421W        W86037   6.571   0.171  12.987
14422W        W86038  13.399  16.531   1.268
14423W        W86039   7.879   9.718   0.688
14424W        W86040  28.937  28.502  12.435
14425W        W86041   0.754   3.697  11.985
14426W        W86042   6.804  10.912   2.634
14427W        W86043  13.689  26.231  10.550
14428W        W86044  16.316  11.396   0.072
14429W        W86045  26.360  29.777  13.024
14430W        W86046  39.387  30.706  10.479
14431W        W86047  35.619  25.018  13.763
14432W        W86048  15.075  19.262   4.641
14433W        W86049   9.324   1.068  12.519
14434W        W86050  40.817  23.673  11.166
14435W        W86051  26.651  14.006  13.603
14436W        W86052  35.581  29.560   2.720
14437W        W86053   6.399  14.878   1.902
14438W        W86054  33.583  12.290   1.376
14439W        W86055   1.700  20.667  14.292
14440W        W86056  41.966  44.920   1.902
14441W        W86057   6.921  41.064   1.435
14442W        W86058   1.252  25.677   3.817
14443W        W86059  40.339   2.425  11.860
14444W        W86060  12.831  33.444  14.776
14445W        W86061  13.749  20.152   2.171
14446W        W86062  41.893  20.418   0.980
14447W        W86063   6.929  35.130   2.736
14448W        W86064  26.665   2.880   3.348
14449W        W86065  15.253   3.690   0.836
14450W        W86066   4.925  13.531  13.571
14451W        W86067  40.388  34.555   3.908
14452W        W86068   1.377  29.627  12.521
14453W        W86069  42.234  34.896  12.530
14454W        W86070   0.972  28.320  12.865
14455W        W86071  30.947  26.880  13.080
14456W        W86072  38.428   5.550   4.795
14457W        W86073  23.537  24.967  10.731
14458W        W86074   5.257   7.477  10.686
14459W        W86075  41.044  22.163  10.598
14460W        W86076  42.741   8.733  10.429
14461W        W86077  35.976   1.934  11.639
14462W        W86078  40.928   7.193   4.381
14463W        W86079   4.867  33.469   0.386
14464W        W86080  16.126  42.436   5.461
14465W        W86081   7.377  41.252   1.232
14466W        W86082  36.430  30.639  11.951
14467W        W86083  18.174   6.473   3.801
14468W        W86084  38.475   4.885   0.376
14469W        W86085  19.603  34.971  13.311
14470W        W86086  44.265  16.584  11.969
14471W        W86087   3.946   2.972  10.808
14472W        W86088  26.378   3.715  14.319
14473W        W86089  17.570   7.887   1.361
14474W        W86090  16.793  41.882   1.267
14475W        W86091  39.923  40.723  11.034
14476W        W86092  22.580  10.608  13.491
14477W        W86093  21.158  19.989  12.011
14478W        W86094  24.679  15.073   0.954
14479W        W86095   5.847  39.947   4.938
14480W        W86096   2.276  12.712   3.211
14481W        W86097  13.592  30.582   5.096
14482W        W86098  43.571  43.289  13.911
14483W        W86099  23.035  30.873  13.328
14484W        W86100   5.156   3.682  11.471
14485W        W86101  39.869   6.113   2.149
14486W        W86102  21.128  10.475   0.263
14487W        W86103  29.780  13.190  12.884
14488W        W86104   1.935  36.574  14.932
14489W        W86105  44.927   9.893   4.271
14490W        W86106  22.503  15.826   1.047
14491W        W86107   1.455  30.058   2.703
14492W        W86108  16.819  22.585   1.854
14493W        W86109  21.581   0.938   0.009
14494W        W86110  12.221  37.353  10.958
14495W        W86111   6.211  22.733  13.568
14496W        W86112  19.867  17.488  11.025
14497W        W86113  41.579  23.102  13.987
14498W        W86114  39.370  14.336   2.224
14499W        W86115  28.232  34.580  10.185
14500W        W86116  19.623  38.478  11.469
14501W        W86117   4.763  18.798   0.900
14502W        W86118  14.782  23.520   0.263
14503W        W86119  28.103  36.428   1.022
14504W        W86120  29.136  37.941  13.772
14505W        W86121  17.047  17.526   0.724
14506W        W86122  44.339  44.922  14.510
14507W        W86123  32.059  28.219  13.297
14508W        W86124  15.845   7.676   4.823
14509W        W86125  15.583  19.284   4.630
14510W        W86126  25.351  20.896  11.963
14511W        W86127  28.030  12.625  13.820
14512W        W86128   0.282   8.716  12.527
14513W        W86129  31.893  17.857  10.640
14514W        W86130  25.913  17.047  12.102
14515W        W86131  29.164  34.054   1.265
14516W        W86132   6.275  29.499   1.128
14517W        W86133  32.393  14.250   4.028
14518W        W86134  25.070   9.869  14.876
14519W        W86135  35.329  28.317  13.843
14520W        W86136   8.580  38.029  12.352
14521W        W86137   3.263   3.729  12.478
14522W        W86138   0.416   4.191   1.678
14523W        W86139  12.149  10.579  11.614
14524W        W86140   9.030  44.845  13.829
14525W        W86141  12.214   4.433  13.313
14526W        W86142   0.664  10.644   3.435
14527W        W86143  35.403  38.581  12.067
14528W        W86144  25.214  39.006  11.443
14529W        W86145  21.355  24.109   0.840
14530W        W86146  13.622  41.001  10.755
14531W        W86147  13.387   5.390   1.278
14532W        W86148  17.021  36.193   4.692
14533W        W86149  33.472  22.256  14.803
14534W        W86150  32.545  32.105   2.279
14535W        W86151  28.851  33.086  11.441
14536W        W86152  30.119  23.896  10.613
14537W        W86153  16.199  17.020   3.195
14538W        W86154  36.206  43.980  11.002
14539W        W86155  43.996   8.791   4.581
14540W        W86156   9.770   7.241   0.481
14541W        W86157   6.807  27.939   1.214
14542W        W86158  31.995  39.910   0.371
14543W        W86159  14.144   7.351   3.652
14544W        W86160  40.107  20.523  11.011
14545W        W86161  42.049  30.016   1.981
14546W        W86162  38.408  31.910  14.419
14547W        W86163   4.291  22.081  12.151
14548W        W86164  41.961  29.029  13.240
14549W        W86165   4.496  23.975  11.015
14550W        W86166   1.899  28.086  11.939
14551W        W86167  25.448   2.789  14.495
14552W        W86168  31.039  15.451   2.883
14553W        W86169  33.074  11.460  13.505
14554W        W86170  11.601  31.588   2.632
14555W        W86171  35.603  14.239   3.659
14556W        W86172  37.573  11.827  10.626
14557W        W86173   1.783  37.176   1.621
14558W        W86174  22.732  28.656   1.871
14559W        W86175   2.990   4.746  14.705
14560W        W86176  13.849  34.513  13.383
14561W        W86177  22.141  25.964   1.686
14562W        W86178   4.893  44.941   4.235
14563W        W86179  17.073  11.351  14.600
14564W        W86180  16.144  28.933  10.900
14565W        W86181  18.736  28.561   4.445
14566W        W86182  35.505  19.159   4.611
14567W        W86183  26.940  39.896  11.939
14568W        W86184  28.988   6.327   3.240
14569W        W86185  29.635  12.883   4.686
14570W        W86186   3.502  36.323   5.089
14571W        W86187  29.210   7.389   4.766
14572W        W86188   0.892   7.897  11.085
14573W        W86189   0.210  22.465   4.190
14574W        W86190  21.249  43.070  12.633
14575W        W86191   2.275  18.180  14.844
14576W        W86192  10.160  34.839   1.936
14577W        W86193   1.436  15.293  10.883
14578W        W86194  38.603  34.784   4.084
14579W        W86195   2.107  18.485   1.082
14580W        W86196   3.316  36.903  12.112
14581W        W86197  33.149  17.138   2.838
14582W        W86198  42.040  21.316   1.300
14583W        W86199  20.270   4.650   0.378
14584W        W86200  40.540  10.310  14.397
14585W        W86201  31.168   2.743  11.810
14586W        W86202  40.361  26.168  12.417
14587W        W86203  44.709  15.610   2.786
14588W        W86204  27.733  21.188  14.995
14589W        W86205  39.297  23.220   3.369
14590W        W86206  29.318  40.639   2.614
14591W        W86207  30.499  43.877   3.656
14592W        W86208  15.912  12.068   2.930
14593W        W86209  42.396  44.771   1.647
14594W        W86210   8.755  14.704  12.973
14595W        W86211   4.445   0.446  13.903
14596W        W86212  31.856  41.638   2.943
14597W        W86213  12.178   0.316   1.839
14598W        W86214  32.536   8.220  14.536
14599W        W86215   1.214  24.841   2.619
14600W        W86216  28.090  11.855  13.201
14601W        W86217   2.477   0.945   1.185
14602W        W86218   6.242  30.806  11.572
14603W        W86219  10.182   4.025  12.494
14604W        W86220  44.474  24.593  12.098
14605W        W86221   6.777  12.602   0.021
14606W        W86222  33.426  13.880   2.821
14607W        W86223   7.621  38.122   0.466
14608W        W86224  31.221  28.627   1.767
14609W        W86225   6.321  40.816   3.345
14610W        W86226  12.219  18.129   3.230
14611W        W86227   2.076  22.330  10.195
14612W        W86228   0.256  10.256  14.855
14613W        W86229  29.253  21.255  14.368
14614W        W86230  36.046  38.508  11.008
14615W        W86231  13.152  12.991  13.392
14616W        W86232  40.919  21.121   4.114
14617W        W86233  17.751  24.671   2.277
14618W        W86234  23.551  11.952  11.803
14619W        W86235  41.998  33.048  11.035
14620W        W86236  38.349   4.339   4.611
14621W        W86237  14.777   6.960  11.451
14622W        W86238   3.828  10.601   3.309
14623W        W86239   8.435   6.330   1.707
14624W        W86240  16.887   8.202  12.588
14625W        W86241  16.632  19.735  12.934
14626W        W86242  33.937   9.909   1.934
14627W        W86243  24.149   0.982  10.716
14628W        W86244   1.573  33.872  11.510
14629W        W86245  39.104  43.568   0.259
14630W        W86246   2.706   7.109   4.620
14631W        W86247  23.430   9.745  10.385
14632W        W86248   0.279  17.485   1.377
14633W        W86249  14.142  11.516  14.513
14634W        W86250   3.368  40.179   3.657
14635W        W86251  44.053  13.224  12.817
14636W        W86252  38.508  32.363   3.824
14637W        W86253  26.940  14.763   1.462
14638W        W86254  12.600  14.126  14.838
14639W        W86255  27.707  16.250  12.866
14640W        W86256  39.299  10.260   0.635
14641W        W86257  40.275  23.089   4.592
14642W        W86258  42.148  44.219  11.169
14643W        W86259   1.457  14.773   4.561
14644W        W86260   5.358  33.622   0.275
14645W        W86261  36.340   7.685  14.915
14646W        W86262  34.666  43.447  11.580
14647W        W86263   2.915  32.054  14.891
14648W        W86264  40.241   7.434  10.119
14649W        W86265  14.204  19.945   3.346
14650W        W86266  12.742  22.189   4.769
14651W        W86267  29.238  15.654  11.941
14652W        W86268  22.797  19.750  12.055
14653W        W86269  25.046  32.466  10.744
14654W        W86270  38.297  22.588   2.811
14655W        W86271  31.505  25.938   3.189
14656W        W86272  36.639  39.306  11.128
14657W        W86273   1.958  40.295   2.908
14658W        W86274  28.016  29.690  11.075
14659W        W86275  15.902  28.131  12.542
14660W        W86276  17.232  36.143   1.769
14661W        W86277  41.692   3.501   0.573
14662W        W86278  14.214   1.741   1.699
14663W        W86279  11.689   9.576   4.193
14664W        W86280  27.065   8.826  11.539
14665W        W86281  36.503  15.996   2.233
14666W        W86282  37.600  25.908   2.160
14667W        W86283  24.142  26.835  11.057
14668W        W86284  15.792  16.583  13.002
14669W        W86285   5.214  22.210   1.870
14670W        W86286   9.753  16.523   3.341
14671W        W86287  13.604  36.280  14.001
14672W        W86288  34.380   4.235   1.161
14673W        W86289  20.041  32.384   3.761
14674W        W86290  14.290  31.518   4.146
14675W        W86291  23.245  33.577  13.550
14676W        W86292  17.242  12.144   3.227
14677W        W86293  10.753  16.064   2.292
14678W        W86294  13.116   4.883  13.796
14679W        W86295  15.326   3.908   2.326
14680W        W86296   1.573  17.824  13.350
14681W        W86297  43.052  36.092   4.149
14682W        W86298   7.743  23.523   1.211
14683W        W86299  40.665  21.840   4.067
14684W        W86300   9.942  21.304   4.550
14685W        W86301  42.911   9.355  13.487
14686W        W86302  19.314  26.067   4.856
14687W        W86303  32.122   3.273   1.705
14688W        W86304  23.951  10.817   0.418
14689W        W86305  42.553  22.826   1.430
14690W        W86306  23.454   9.661   0.561
14691W        W86307   7.463  30.739   0.301
14692W        W86308   0.965  35.662  10.765
14693W        W86309  40.287   0.028   3.725
14694W        W86310   0.414  13.832   1.790
14695W        W86311  31.525  35.388   4.068
14696W        W86312  11.742   2.159   2.682
14697W        W86313  30.955  34.645   4.185
14698W        W86314  24.167   0.523   4.724
14699W        W86315  30.338  33.301  14.413
14700W        W86316  18.318  30.053  14.111
14701W        W86317   6.258  27.426  10.617
14702W        W86318  20.166  37.471   1.472
14703W        W86319  36.103  34.623  10.666
14704W        W86320  13.141  41.598   1.847
14705W        W86321  26.623  16.878  10.187
14706W        W86322  28.478  34.564   0.802
14707W        W86323  10.049   1.946  12.771
14708W        W86324  20.472  23.642  11.872
14709W        W86325   2.757  22.106  14.713
14710W        W86326  35.368  10.316  13.887
14711W        W86327  41.578   4.818  13.953
14712W        W86328   9.790  29.591  10.799
14713W        W86329  14.821  42.534  12.460
14714W        W86330  34.980  29.349   4.616
14715W        W86331  25.421  19.208  11.017
14716W        W86332  35.884  28.103   0.018
14717W        W86333   9.837   2.415   2.743
14718W        W86334   9.793   7.813  14.295
14719W        W86335   9.613  40.578   2.861
14720W        W86336  31.931  10.725  13.882
14721W        W86337  22.551   6.785  12.681
14722W        W86338  21.577  34.631   1.686
14723W        W86339  15.252  10.773  10.422
14724W        W86340  11.849  22.210   1.902
14725W        W86341  22.304   0.767   4.123
14726W        W86342  11.040  22.070  14.472
14727W        W86343  43.940  29.098   2.220
14728W        W86344  18.241   9.299   0.912
14729W        W86345  29.430  35.247   4.191
14730W        W86346  21.502  31.929   3.514
14731W        W86347  18.166  26.917  12.081
14732W        W86348  20.468  43.822   1.158
14733W        W86349  24.034  15.679   1.686
14734W        W86350  17.199  23.206   3.893
14735W        W86351   3.301  10.921  10.529
14736W        W86352  32.603  35.971  10.868
14737W        W86353  28.103   6.598   1.709
14738W        W86354   3.840   6.168  10.735
14739W        W86355   9.774   2.174  12.366
14740W        W86356  11.079  13.987   3.213
14741W        W86357  32.375  25.010  12.416
14742W        W86358  16.349   8.060  13.594
14743W        W86359  16.720  42.584   1.685
14744W        W86360  28.435  13.060   2.745
14745W        W86361  40.128  11.473   5.100
14746W        W86362  43.878   7.282  14.862
14747W        W86363  18.785  31.388   3.153
14748W        W86364   4.394  19.680   0.592
14749W        W86365  29.830   1.218   1.050
14750W        W86366  28.516   6.904  10.688
14751W        W86367  29.839  21.036  12.617
14752W        W86368   8.787   9.097   0.350
14753W        W86369  30.563  19.668  11.976
14754W        W86370  30.338  13.556   4.564
14755W        W86371  31.514   5.136  11.643
14756W        W86372   3.750  29.907   2.233
14757W        W86373  23.668  37.258  13.799
14758W        W86374  26.653  13.229   1.296
14759W        W86375  33.125  21.609   4.312
14760W        W86376  20.329  39.577  12.576
14761W        W86377  43.218   0.416  11.174
14762W        W86378   1.951   5.416  14.368
14763W        W86379   5.853   3.514   0.054
14764W        W86380   1.053   9.889  12.061
14765W        W86381  35.626  16.659   4.602
14766W        W86382  23.300  16.532  14.898
14767W        W86383  34.386  32.351  12.823
14768W        W86384  16.043  37.511   0.299
14769W        W86385   1.297  14.362  14.368
14770W        W86386  24.309  19.995   0.113
14771W        W86387  12.180  43.830   3.706
14772W        W86388  13.658  36.551   1.858
14773W        W86389  28.701  41.903  11.193
14774W        W86390   9.272  11.600   0.757
14775W        W86391  30.602  24.729  13.406
14776W        W86392  31.587  19.733   4.165
14777W        W86393  43.817  15.284  11.596
14778W        W86394  14.547  42.487   2.312
14779W        W86395  15.621  38.008  11.409
14780W        W86396   7.222  22.133  13.749
14781W        W86397  28.016  23.564   1.161
14782W        W86398   6.412  37.762  13.981
14783W        W86399  35.791  21.196   2.282
14784W        W86400  12.135   2.555  10.529
14785W        W86401  42.477  10.606  14.289
14786W        W86402  24.002   8.413  14.423
14787W        W86403  13.804   8.099  14.767
14788W        W86404  41.029  34.791  13.381
14789W        W86405   9.412  43.275  14.336
14790W        W86406  42.962  36.352  14.934
14791W        W86407  24.074  29.861   3.714
14792W        W86408  26.773  34.225  13.116
14793W        W86409  18.303  20.782  13.873
14794W        W86410  25.132  27.753   0.836
14795W        W86411  44.917  16.024   4.105
14796W        W86412  39.867  20.059  13.895
14797W        W86413  43.557  40.795  12.836
14798W        W86414  28.155  32.189  13.411
14799W        W86415  40.666  23.311   1.306
14800W        W86416  29.468  37.056   3.621
14801W        W86417  33.140   7.949   2.332
14802W        W86418  18.501  44.338   2.789
14803W        W86419   0.168  16.731  10.763
14804W        W86420  22.566  38.864  13.048
14805W        W86421  21.191   1.337   3.244
14806W        W86422  43.946  38.528   3.238
14807W        W86423  13.975   5.861  14.405
14808W        W86424  36.829   6.285   4.016
14809W        W86425  36.128   4.382  12.935
14810W        W86426  23.006  12.806   1.875
14811W        W86427   3.776  15.589   0.716
14812W        W86428  26.574   5.625  11.486
14813W        W86429  12.879  20.102   1.552
14814W        W86430   3.270   9.467  10.727
14815W        W86431  44.519  30.371   0.019
14816W        W86432  26.968  19.477  11.688
14817W        W86433  25.698  35.773  12.198
14818W        W86434   8.614   4.165   1.666
14819W        W86435   1.513  22.143   5.126
14820W        W86436   6.938   1.864  13.849
14821W        W86437  14.359   3.022   5.101
14822W        W86438  43.637  18.748   4.077
14823W        W86439  29.378  30.775   1.292
14824W        W86440   3.718  11.366  11.397
14825W        W86441  36.893  37.151   1.893
14826W        W86442  25.311  35.568   3.659
14827W        W86443  28.724  18.529   0.834
14828W        W86444   5.190  22.600   4.101
14829W        W86445  18.350  44.810  11.603
14830W        W86446   0.399  31.134   1.612
14831W        W86447  30.628   9.763   0.840
14832W        W86448  26.620  26.717   1.962
14833W        W86449  30.625  40.290  11.600
14834W        W86450  24.557  16.050  14.007
14835W        W86451  37.266  19.083   0.431
14836W        W86452  35.916  30.081   3.173
14837W        W86453   6.251   2.786   1.846
14838W        W86454  25.754  32.843  12.577
14839W        W86455  18.664  42.275   0.444
14840W        W86456   9.198  25.485  11.997
14841W        W86457  35.875   7.413  13.892
14842W        W86458   7.409  44.277   1.217
14843W        W86459  39.940  26.133  13.296
14844W        W86460  15.208  10.271   1.757
14845W        W86461  41.891   1.899  12.138
14846W        W86462  13.893   1.120   0.252
14847W        W86463   1.756  26.876  13.318
14848W        W86464  44.937   0.380   1.601
14849W        W86465  11.143  42.551  13.332
14850W        W86466   8.425  10.668   3.242
14851W        W86467  24.558  38.480  14.328
14852W        W86468  37.409  29.999   0.534
14853W        W86469  36.336  13.671   3.356
14854W        W86470  30.988  10.029  10.576
14855W        W86471   7.637   9.742   1.646
14856W        W86472   5.375   3.646  13.043
14857W        W86473  17.173  29.186  10.699
14858W        W86474  11.874  41.442   2.882
14859W        W86475  39.126  20.587   4.366
14860W        W86476  32.402  25.960  12.645
14861W        W86477  11.769   6.929  10.350
14862W        W86478  11.339   9.600   3.680
14863W        W86479  24.655  33.848  13.304
14864W        W86480  21.393  20.234  11.612
14865W        W86481  30.807  21.529  10.788
14866W        W86482   6.198   1.476   1.357
14867W        W86483  36.586  25.713   1.261
14868W        W86484  35.943   9.829  10.849
14869W        W86485  33.592  31.488   2.168
14870W        W86486   1.747  27.083  13.840
14871W        W86487  26.098  40.628  13.992
14872W        W86488  35.332  17.296   1.308
14873W        W86489  40.900   7.508  14.578
14874W        W86490  17.981  20.679   1.388
14875W        W86491  19.312  29.044  12.620
14876W        W86492  24.526   0.366  11.144
14877W        W86493   5.708  43.384   3.077
14878W        W86494   9.325  20.486   4.623
14879W        W86495  22.493  19.397  12.238
14880W        W86496  16.075  31.886  14.830
14881W        W86497  28.974  33.536  11.159
14882W        W86498  36.122  40.902   3.097
14883W        W86499  29.620   3.024   4.242
14884W        W86500  32.170   3.959  14.231
14885W        W86501  20.749  16.493  11.327
14886W        W86502  15.645   8.693   0.519
14887W        W86503  11.387  36.137   0.322
14888W        W86504  17.995  19.717  11.473
14889W        W86505   4.525  29.282  14.345
14890W        W86506  21.596   3.080  14.017
14891W        W86507   2.076   9.878   3.024
14892W        W86508  25.867  29.376  12.623
14893W        W86509  37.938  23.516  12.215
14894W        W86510   0.243  25.478   2.002
14895W        W86511  37.477  15.838   4.248
14896W        W86512  20.203  13.177   0.341
14897W        W86513   3.134   9.127   1.297
14898W        W86514  35.538   2.036   1.463
14899W        W86515  18.596   9.831  14.473
14900W        W86516  39.564  12.956  13.411
14901W        W86517  38.078  21.337   3.031
14902W        W86518  14.721   3.988  12.838
14903W        W86519  36.710  17.444   4.418
14904W        W86520   4.622  34.056   4.541
14905W        W86521  36.575  30.884  14.017
14906W        W86522  20.674  21.352  13.822
14907W        W86523  12.546  21.111   1.661
14908W        W86524  12.266  29.419  11.989
14909W        W86525  24.515  43.390  12.079
14910W        W86526   5.643  37.824   0.493
14911W        W86527   0.089  26.621  12.164
14912W        W86528  41.415   0.356   4.399
14913W        W86529   0.361  43.255   2.176
14914W        W86530  38.923  12.648  14.167
14915W        W86531  25.007  11.291   3.599
14916W        W86532   5.410  22.516  13.270
14917W        W86533   2.666  22.471  11.172
14918W        W86534   8.103  16.324  14.737
14919W        W86535  34.842  21.499   2.437
14920W        W86536   4.901   5.424   2.357
14921W        W86537  36.084  42.830  13.699
14922W        W86538  20.034  18.789   3.103
14923W        W86539  21.579   8.098  12.580
14924W        W86540  26.053   6.015   1.963
14925W        W86541  15.894   6.398  14.925
14926W        W86542   7.009  28.703   4.679
14927W        W86543  11.019  16.812  14.454
14928W        W86544  32.268  35.960  13.533
14929W        W86545  35.985   0.969  11.947
14930W        W86546  23.469  40.709  13.903
14931W        W86547  20.164  44.916  13.842
14932W        W86548  22.367  13.036   4.068
14933W        W86549  41.380  21.017  12.934
14934W        W86550  12.904   3.718   0.161
14935W        W86551  19.774   5.706  12.514
14936W        W86552  13.846  27.104   3.320
14937W        W86553  18.505  25.576  14.416
14938W        W86554  34.366  33.417  13.366
14939W        W86555  14.082  42.910   3.788
14940W        W86556  38.814  12.930   1.261
14941W        W86557   5.768  11.847  13.590
14942W        W86558  34.453  43.744  13.396
14943W        W86559  32.461  24.599   3.073
14944W        W86560  41.106  21.658   4.258
14945W        W86561  15.286  11.608  12.409
14946W        W86562  26.768  22.997  12.332
14947W        W86563  31.112   1.768   4.605
14948W        W86564   0.079   7.400  13.933
14949W        W86565  12.269  27.500   2.440
14950W        W86566  28.374  17.678   0.246
14951W        W86567  33.134  24.657   3.669
14952W        W86568  30.056   7.220  13.522
14953W        W86569   8.237  38.125   4.490
14954W        W86570  40.991   8.363   2.592
14955W        W86571  31.597   9.576  13.911
14956W        W86572  22.602   8.329  11.219
14957W        W86573  24.788  13.702  11.444
14958W        W86574  36.897  15.479  12.570
14959W        W86575  32.999  20.452  13.527
14960W        W86576  34.066   9.833  11.346
14961W        W86577  29.452  35.442  13.533
14962W        W86578   4.703  39.936   0.544
14963W        W86579  17.533  10.378   3.707
14964W        W86580  43.344   9.199   3.150
14965W        W86581   9.586  26.063   0.098
14966W        W86582  11.742  17.615   3.019
14967W        W86583  33.825  18.315   2.292
14968W        W86584  32.614  38.318   1.786
14969W        W86585  42.072  17.825  12.170
14970W        W86586  41.477  15.985  14.472
14971W        W86587  37.344  10.198   3.745
14972W        W86588  25.063  13.201  12.511
14973W        W86589  11.770   6.177  11.393
14974W        W86590  25.568  25.500   2.139
14975W        W86591  12.137  25.377   0.964
14976W        W86592   8.237  30.738  14.392
14977W        W86593  39.062  14.302   0.896
14978W        W86594  41.911  43.607  13.262
14979W        W86595   6.498  23.642  10.445
14980W        W86596   8.923  38.990  11.080
14981W        W86597  26.222  28.991  14.872
14982W        W86598  12.556  16.685  14.366
14983W        W86599   5.688   1.423  10.663
14984W        W86600  15.909  35.960   0.121
14985W        W86601  17.562  14.207  12.013
14986W        W86602  36.533   3.510   1.039
14987W        W86603  42.011  12.956  14.421
14988W        W86604   9.134  11.875  10.658
14989W        W86605  34.905  26.896  10.758
14990W        W86606   9.141  13.749   4.554
14991W        W86607  11.122  20.926  13.626
14992W        W86608  25.966  12.291   3.165
14993W        W86609  26.897  11.880   1.310
14994W        W86610   6.635  36.619  14.216
14995W        W86611  25.002  30.392   3.335
14996W        W86612  43.783  16.066  13.082
14997W        W86613   8.743  23.793   3.737
14998W        W86614  24.664  43.080  14.954
14999W        W86615  31.281  39.424  12.087
15000W        W86616   3.057  30.359   4.218
15001W        W86617  15.155   8.296   1.734
15002W        W86618  27.709  25.779   1.666
15003W        W86619  31.462  40.580   3.229
15004W        W86620  31.064  27.866  12.902
15005W        W86621  31.540  30.180   4.476
15006W        W86622  14.595  36.597   2.208
15007W        W86623   2.366  39.491  13.450
15008W        W86624  32.870  16.131   3.736
15009W        W86625  33.453  42.914  12.548
15010W        W86626  38.168  16.097  13.448
15011W        W86627  34.671  32.402   4.727
15012W        W86628  36.634  16.960   1.681
15013W        W86629  14.591  26.857   2.655
15014W        W86630   2.286  24.535  11.841
15015W        W86631  27.993  35.877   0.395
15016W        W86632  34.944  43.549  12.451
15017W        W86633  15.655   8.788   2.405
15018W        W86634   5.361  20.583  13.109
15019W        W86635  21.076  29.663  14.518
15020W        W86636   2.996  21.748  11.545
15021W        W86637  30.088  34.348   1.722
15022W        W86638  34.781  40.445   4.165
15023W        W86639  22.547  30.134  13.793
15024W        W86640  12.334  23.804   4.112
15025W        W86641  29.657  31.868  12.502
15026W        W86642   2.184  34.031   4.594
15027W        W86643  17.052  11.975  13.130
15028W        W86644   8.830  35.859  11.019
15029W        W86645  31.561   7.436  11.145
15030W        W86646  31.197  17.380  14.587
15031W        W86647  17.819  23.184  12.413
15032W        W86648  33.815  24.542  14.087
15033W        W86649  32.649  21.123  14.848
15034W        W86650  25.883  16.497  13.892
15035W        W86651   0.909  28.481   1.663
15036W        W86652  27.503   6.159   1.670
15037W        W86653   2.681  23.262   3.229
15038W        W86654  22.009  28.533  11.583
15039W        W86655  37.915  41.631  13.400
15040W        W86656  27.794  21.711  11.510
15041W        W86657   5.935  16.936  13.055
15042W        W86658  13.782   1.688   4.937
15043W        W86659  12.929  24.665  14.974
15044W        W86660  11.474   4.328   2.726
15045W        W86661  40.882  44.183  14.600
15046W        W86662  10.902   6.068   1.292
15047W        W86663  13.585  39.215   2.872
15048W        W86664  24.261   8.768  11.644
15049W        W86665  12.894   9.408   0.038
15050W        W86666  39.483   7.141  10.668
15051W        W86667   1.366   0.446  12.940
15052W        W86668  28.478  11.834  14.523
15053W        W86669  41.443  43.946  12.154
15054W        W86670  25.211  26.490  10.899
15055W        W86671   4.016  32.033  14.950
15056W        W86672  30.379  12.248  10.791
15057W        W86673   9.754  38.738   1.725
15058W        W86674   3.481  43.562   1.618
15059W        W86675  36.552  31.052   1.395
15060W        W86676  40.032  24.660  14.375
15061W        W86677   4.431  12.785   2.487
15062W        W86678  27.663  30.340  14.086
15063W        W86679  31.782  25.688   4.277
15064W        W86680  38.095  35.138  11.157
15065W        W86681  22.178  22.501  12.874
15066W        W86682  35.353  31.403  14.860
15067W        W86683   6.398  14.638   4.647
15068W        W86684  28.876  15.021  13.791
15069W        W86685  29.036  17.387  11.450
15070W        W86686  34.619  27.342   3.410
15071W        W86687  38.027  26.106  14.376
15072W        W86688  44.713  31.003   4.157
15073W        W86689  24.250  30.824   0.984
15074W        W86690  27.606   6.682   0.129
15075W        W86691   3.693  29.939  13.090
15076W        W86692  38.771  20.305   1.897
15077W        W86693   3.904   9.622  14.335
15078W        W86694  26.986   7.277   1.221
15079W        W86695  11.598  23.779   1.270
15080W        W86696  35.379  23.924   3.618
15081W        W86697  12.751   1.308  11.115
15082W        W86698  33.075  15.998  12.437
15083W        W86699   5.613  21.251  13.838
15084W        W86700  10.634  38.956  12.240
15085W        W86701   3.088  44.479   0.634
15086W        W86702  30.144   0.818   0.957
15087W        W86703  18.118  40.838  13.654
15088W        W86704  36.887  35.166   0.823
15089W        W86705  28.736   6.984  12.959
15090W        W86706   6.946  29.928  13.428
15091W        W86707  13.823  44.410   0.970
15092W        W86708   8.381   9.218   2.599
15093W        W86709  13.355   6.318   5.184
15094W        W86710  10.488  25.026   3.218
15095W        W86711  25.640  16.767   0.734
15096W        W86712  44.029  24.706  13.936
15097W        W86713  10.083  20.416  11.038
15098W        W86714   5.261  35.017  11.610
15099W        W86715  20.531  32.365  11.074
15100W        W86716  26.598   1.210  14.570
15101W        W86717  13.559  11.101  12.453
15102W        W86718  14.100  13.275   4.920
15103W        W86719  39.332  42.325   1.027
15104W        W86720   2.275  21.595  13.964
15105W        W86721  33.967  22.059   3.759
15106W        W86722  31.607  32.379  11.594
15107W        W86723  29.505  38.951   0.840
15108W        W86724  17.353  27.984  12.577
15109W        W86725  36.101  34.955  12.250
15110W        W86726  32.254   7.013   0.955
15111W        W86727  24.637  31.006  13.050
15112W        W86728   9.238  37.245   3.031
15113W        W86729  23.161  31.140   3.031
15114W        W86730  39.644   0.387   4.395
15115W        W86731  34.959   6.985  14.042
15116W        W86732  27.519  41.835   0.227
15117W        W86733  42.428  24.653   0.665
15118W        W86734  35.177  14.785  13.421
15119W        W86735  24.120  14.558  10.391
15120W        W86736  10.605  40.763  12.842
15121W        W86737  15.928  38.488   1.890
15122W        W86738   7.820  33.504   0.009
15123W        W86739   2.375   5.851   4.275
15124W        W86740  41.917  26.480  10.250
15125W        W86741   6.611  16.910   0.959
15126W        W86742  43.683  33.500   2.682
15127W        W86743  31.535   8.252  10.676
15128W        W86744  31.155   5.945  13.446
15129W        W86745  10.385  31.157  11.937
15130W        W86746  27.970  13.898  10.929
15131W        W86747  23.548   9.677   0.054
15132W        W86748  39.356  21.450  12.513
15133W        W86749  16.683  38.285   4.504
15134W        W86750   2.039  34.464  12.166
15135W        W86751  38.736  15.025   2.270
15136W        W86752  14.326  19.697  13.522
15137W        W86753  33.123  19.994   1.871
15138W        W86754   7.819  19.560  12.479
15139W        W86755   9.083  13.775  13.551
15140W        W86756  33.851   5.638   1.891
15141W        W86757  19.558   4.516  14.368
15142W        W86758   2.013  30.522   3.282
15143W        W86759  24.170  17.798   3.794
15144W        W86760  22.446   2.708  14.577
15145W        W86761  11.192  25.865  10.928
15146W        W86762  10.886  14.747   0.840
15147W        W86763   2.908  27.111   3.396
15148W        W86764  30.841  40.483   1.670
15149W        W86765   0.443  32.092   4.609
15150W        W86766  42.456  18.399  14.057
15151W        W86767  16.629  16.130  13.898
15152W        W86768  44.911  36.601  10.256
15153W        W86769   3.175  12.052  13.059
15154W        W86770  39.739   8.786   0.347
15155W        W86771  31.159  14.699  12.571
15156W        W86772  39.850   1.932  13.981
15157W        W86773  12.819  20.368   2.394
15158W        W86774  40.449  35.346  14.955
15159W        W86775  15.606  13.636   0.815
15160W        W86776  28.378  32.507   2.598
15161W        W86777  19.685   5.859  13.481
15162W        W86778  42.884  31.198   1.779
15163W        W86779  13.199  27.645   2.672
15164W        W86780  31.374  17.517   2.292
15165W        W86781  40.004  43.806  10.690
15166W        W86782  29.722  28.029  11.963
15167W        W86783  34.196  37.849   1.366
15168W        W86784  35.211   9.860  14.041
15169W        W86785  38.562  14.353   4.842
15170W        W86786  25.924  21.198   2.779
15171W        W86787  35.683  37.858  11.907
15172W        W86788  40.369  12.222  12.904
15173W        W86789  34.990  37.680   0.663
15174W        W86790  22.218   1.350   0.985
15175W        W86791   1.011  21.107   3.125
15176W        W86792  32.312  12.305  14.401
15177W        W86793  15.770  40.191  10.287
15178W        W86794  16.238  16.280   1.953
15179W        W86795  32.578   1.508  12.475
15180W        W86796   7.162  27.101  14.342
15181W        W86797  24.242  27.687  14.751
15182W        W86798  34.463  44.849   4.986
15183W        W86799  17.143  42.365  13.759
15184W        W86800  30.237  10.840   1.432
15185W        W86801  11.308  34.357  13.385
15186W        W86802  24.187  34.118  11.988
15187W        W86803  35.413  31.421  12.846
15188W        W86804  19.453  29.175   4.332
15189W        W86805  18.637  31.083  11.675
15190W        W86806  18.359  25.106   2.851
15191W        W86807  33.348  44.365   1.856
15192W        W86808  29.077  31.860   2.208
15193W        W86809  34.044  21.167  14.838
15194W        W86810   0.898   9.592  12.454
15195W        W86811  11.150   2.439   1.595
15196W        W86812  20.433  20.188   2.296
15197W        W86813   3.877  19.970  14.798
15198W        W86814  17.118   2.413  13.941
15199W        W86815  10.358  43.879   3.675
15200W        W86816  39.458   0.195  12.913
15201W        W86817  29.159   9.949  12.981
15202W        W86818   1.468   3.080   2.876
15203W        W86819  32.416   4.413  10.719
15204W        W86820  31.044  10.422  12.075
15205W        W86821  25.569  35.897  11.189
15206W        W86822  18.431  10.651  10.632
15207W        W86823   6.854  19.652   1.909
15208W        W86824  19.188  28.370   1.763
15209W        W86825  25.619   5.571   2.854
15210W        W86826  37.150  40.391  11.150
15211W        W86827  10.551  40.833   0.672
15212W        W86828  16.234  33.896  13.478
15213W        W86829  37.694  13.828   2.123
15214W        W86830  44.968  17.351  10.593
15215W        W86831  22.705  36.132  12.524
15216W        W86832  20.973  24.481   3.711
15217W        W86833   8.792  35.388   2.472
15218W        W86834  31.875  24.159   3.171
15219W        W86835  26.017  37.419  13.947
15220W        W86836  18.152  42.656  12.997
15221W        W86837   3.352  43.313   3.702
15222W        W86838  39.501   9.961   4.075
15223W        W86839   9.020   6.231   0.097
15224W        W86840   4.263  29.657   2.147
15225W        W86841  13.055  31.059  13.097
15226W        W86842   9.866   1.661  14.485
15227W        W86843  39.725   3.461   0.400
15228W        W86844  20.591  43.790  10.239
15229W        W86845  40.373  44.516   3.611
15230W        W86846   7.745  29.654   3.226
15231W        W86847  23.672  24.112  12.816
15232W        W86848   1.939  15.225   2.605
15233W        W86849  40.005   4.164  12.498
15234W        W86850   6.736  22.633   2.420
15235W        W86851  10.723   6.029  12.792
15236W        W86852  28.995  10.284   1.690
15237W        W86853  19.092  44.228  13.403
15238W        W86854  27.214  18.189  14.882
15239W        W86855  13.160  38.833   4.608
15240W        W86856  14.604  40.306  13.573
15241W        W86857  14.166  22.910  14.455
15242W        W86858  44.338   4.465  13.668
15243W        W86859  14.846   2.742   2.439
15244W        W86860  24.445   4.277  12.077
15245W        W86861  34.623  19.814   3.670
15246W        W86862  32.509  39.889  14.658
15247W        W86863  35.792  16.775   3.655
15248W        W86864  21.476  43.480  11.373
15249W        W86865  28.073  35.777  10.449
15250W        W86866  29.673   1.184  14.823
15251W        W86867  31.820  22.147   0.360
15252W        W86868  41.414  21.973   2.769
15253W        W86869  34.850  10.252  13.911
15254W        W86870   8.094  11.751   0.853
15255W        W86871   7.836  31.040  11.542
15256W        W86872  23.155   1.844  11.623
15257W        W86873  22.577  38.690   1.783
15258W        W86874  30.388  37.001   0.742
15259W        W86875  11.194  28.221  11.462
15260W        W86876  31.216  16.850  14.618
15261W        W86877  26.451  26.922   3.197
15262W        W86878  23.554  40.388   3.676
15263W        W86879  18.585   0.400  14.827
15264W        W86880  44.568  34.964   2.562
15265W        W86881  35.593  15.742   4.602
15266W        W86882  20.260   5.097   3.284
15267W        W86883  22.289  11.814   4.832
15268W        W86884  38.923  31.726   3.334
15269W        W86885  25.993  15.897   3.904
15270W        W86886   2.974   9.887   4.641
15271W        W86887  15.649  17.336   4.980
15272W        W86888  12.816  12.045   1.384
15273W        W86889   0.019  28.042  14.312
15274W        W86890   2.985  20.956  14.389
15275W        W86891  40.414  11.702  14.175
15276W        W86892  17.300  13.916   3.681
15277W        W86893  37.060   0.298  13.912
15278W        W86894  23.226  22.931  14.896
15279W        W86895  27.634   0.850   0.130
15280W        W86896  42.697   9.579  11.193
15281W        W86897  19.780  40.916   1.148
15282W        W86898  33.525   8.425  14.302
15283W        W86899  25.571  28.733   2.322
15284W        W86900  41.995  15.574   1.280
15285W        W86901   6.304   0.998  13.063
15286W        W86902  37.519  19.084   1.953
15287W        W86903  27.002   5.239   2.890
15288W        W86904  12.365  37.141  13.621
15289W        W86905  16.747  37.346  11.504
15290W        W86906   2.447  18.468   0.271
15291W        W86907  28.401  26.379   1.394
15292W        W86908  12.097  31.016   2.839
15293W        W86909  31.047  21.583   3.751
15294W        W86910  13.965  39.388  14.755
15295W        W86911  33.508   0.853  13.001
15296W        W86912  44.737  38.043   1.232
15297W        W86913  15.028  41.959  11.405
15298W        W86914  30.905  34.660  14.991
15299W        W86915  40.570  41.607   3.667
15300W        W86916  14.543  14.045  13.423
15301W        W86917   4.880  30.336   0.178
15302W        W86918   4.793  23.979  11.459
15303W        W86919  17.127  20.689  14.749
15304W        W86920  22.105  14.677  10.626
15305W        W86921  19.932  20.840   3.726
15306W        W86922   4.928  25.066  13.143
15307W        W86923  13.655  19.284   4.083
15308W        W86924  13.807  19.707  13.488
15309W        W86925   6.031  36.466   0.402
15310W        W86926   4.844  29.182   3.126
15311W        W86927  10.416   3.457  13.897
15312W        W86928  32.905  10.685   2.339
15313W        W86929  40.338  39.128   2.201
15314W        W86930  41.859   7.463   0.144
15315W        W86931   3.192  35.992   4.787
15316W        W86932  41.506  29.945  11.872
15317W        W86933  38.062  40.048   1.367
15318W        W86934  17.683  25.194   2.144
15319W        W86935  12.636  32.359  11.929
15320W        W86936  38.833  15.324   2.703
15321W        W86937  37.713   9.868   1.732
15322W        W86938  35.097  44.961   5.050
15323W        W86939  42.905  14.793  10.767
15324W        W86940  37.591  29.108   0.401
15325W        W86941   1.564   9.398  13.011
15326W        W86942  39.885   9.004   4.848
15327W        W86943  34.993  36.732  11.594
15328W        W86944  10.202   9.852  11.159
15329W        W86945  27.641   8.009   0.268
15330W        W86946  23.058  14.850   4.188
15331W        W86947  13.100  10.382   2.706
15332W        W86948  39.782  40.824   1.935
15333W        W86949  31.395  13.682  14.894
15334W        W86950  35.329  27.579  12.944
15335W        W86951  36.093  42.233  10.761
15336W        W86952  43.418  16.057  13.467
15337W        W86953  18.336   0.292  10.979
15338W        W86954   2.510  36.529  13.996
15339W        W86955  28.149  26.336  10.997
15340W        W86956  20.199  40.525  11.057
15341W        W86957  22.980   4.763   3.809
15342W        W86958  10.747  26.973   4.155
15343W        W86959  25.626   4.335   2.236
15344W        W86960  41.473  39.859  10.679
15345W        W86961   2.221  15.153  11.602
15346W        W86962  26.290  17.677   2.453
15347W        W86963  13.144  25.690   3.714
15348W        W86964   5.306  43.025  13.521
15349W        W86965  43.834  36.065  12.534
15350W        W86966   2.209  42.937  12.764
15351W        W86967  44.569  41.173   0.969
15352W        W86968   2.696   3.789   4.469
15353W        W86969  32.143  35.084  13.719
15354W        W86970   0.786   5.142  10.653
15355W        W86971  11.198  25.978   3.708
15356W        W86972  42.546  24.968  14.892
15357W        W86973  35.395  37.407   0.930
15358W        W86974  35.649  38.054   2.238
15359W        W86975   8.425   2.349   3.218
15360W        W86976  34.577  18.014  12.783
15361W        W86977  25.510  21.049  12.921
15362W        W86978  10.215  15.259   4.550
15363W        W86979  20.789  17.216  14.268
15364W        W86980  38.423   9.227   3.253
15365W        W86981  19.533   5.036  14.398
15366W        W86982   8.793  20.630   3.614
15367W        W86983  21.972  34.050  11.615
15368W        W86984  34.157  42.587  11.341
15369W        W86985  31.073   6.975  11.575
15370W        W86986  38.813  44.795  14.215
15371W        W86987  35.599  39.819  14.368
15372W        W86988  24.188   3.353  10.937
15373W        W86989  23.273  27.516  14.979
15374W        W86990  38.012  23.061  12.991
15375W        W86991  43.975   7.039  11.614
15376W        W86992  14.433  32.477   2.294
15377W        W86993  32.686  27.539  12.771
15378W        W86994  38.192  14.087   0.785
15379W        W86995  39.785  14.643  11.375
15380W        W86996  39.929  11.954   3.083
15381W        W86997  29.176  41.840   4.554
15382W        W86998  36.072   5.241  14.419
15383W        W86999  43.238   2.343   3.603
15384W        W87000  32.564   5.461  12.631
15385W        W87001  11.361  10.448  13.498
15386W        W87002  10.486  43.768  14.060
15387W        W87003  39.812  14.225   2.888
15388W        W87004  26.003   5.396   1.645
15389W        W87005  24.374  13.040   1.808
15390W        W87006  22.139  32.990   1.770
15391W        W87007  22.776  33.001   1.166
15392W        W87008  26.838  33.827  12.814
15393W        W87009  22.694  27.625   2.800
15394W        W87010  44.035  31.959   0.229
15395W        W87011  43.228  25.550  13.320
15396W        W87012  30.720  14.089  14.472
15397W        W87013  36.016  41.800  13.047
15398W        W87014  44.866  24.592   3.648
15399W        W87015  10.537  29.556   2.784
15400W        W87016  20.692   0.196   3.289
15401W        W87017  16.123   8.098  14.109
15402W        W87018  23.285  20.485   2.346
15403W        W87019  34.108  19.555   0.888
15404W        W87020  44.386  11.257   1.697
15405W        W87021  35.121  26.141   2.358
15406W        W87022  17.339  44.953  14.893
15407W        W87023  32.113  38.776  14.521
15408W        W87024  24.145  24.755   4.182
15409W        W87025   2.200  21.991   3.802
15410W        W87026  12.416   5.428  10.977
15411W        W87027  35.235  26.631   4.118
15412W        W87028   3.830  33.046  10.634
15413W        W87029  30.386  32.678  12.029
15414W        W87030  41.977  13.459   2.043
15415W        W87031  14.599  20.839   1.122
15416W        W87032   7.783  24.084  12.365
15417W        W87033  15.246  17.368   2.342
15418W        W87034  22.195  12.844  12.903
15419W        W87035  38.902  14.323  13.610
15420W        W87036   4.222  17.019   1.820
15421W        W87037  24.277   8.741   1.855
15422W        W87038  25.541  19.766   0.717
15423W        W87039  18.059  29.018  11.152
15424W        W87040  39.122  11.202   4.886
15425W        W87041  27.328  23.236  10.544
15426W        W87042  21.707  22.579  13.491
15427W        W87043  40.484  21.395   4.189
15428W        W87044  39.950   3.490  14.088
15429W        W87045   0.429   1.672   4.657
15430W        W87046  34.015  35.096   4.281
15431W        W87047  40.330  28.107  13.877
15432W        W87048  20.994  13.429  10.832
15433W        W87049  35.499  21.161   2.712
15434W        W87050  37.915  36.507   3.358
15435W        W87051  38.125  18.382   0.296
15436W        W87052  24.648  37.766   1.229
15437W        W87053   9.413  44.691   4.090
15438W        W87054  15.519   5.761  11.572
15439W        W87055  35.379  17.053   4.365
15440W        W87056  18.175   3.706  14.343
15441W        W87057  11.004  33.212  11.231
15442W        W87058   1.491   3.428  13.580
15443W        W87059  20.791  32.696   4.945
15444W        W87060  25.854  36.265  12.418
15445W        W87061  10.280  20.176  10.615
15446W        W87062  20.330  43.431  12.534
15447W        W87063  42.096  24.912   1.008
15448W        W87064  10.121  14.871  12.461
15449W        W87065   5.287  42.524  13.395
15450W        W87066   3.938  37.474  10.843
15451W        W87067  40.295  31.193  11.580
15452W        W87068   1.411  44.973   1.143
15453W        W87069  23.365   3.910   2.955
15454W        W87070   8.275  42.589   3.931
15455W        W87071  25.235   0.558  10.218
15456W        W87072  21.484  25.277  12.385
15457W        W87073   2.342  30.276  12.531
15458W        W87074  11.888   9.525   2.857
15459W        W87075  23.764  35.950   0.721
15460W        W87076   1.585  35.940   3.869
15461W        W87077  32.465  21.145   4.296
15462W        W87078  10.898  41.552   2.852
15463W        W87079  24.571  27.490  10.558
15464W        W87080  35.683  19.053   1.676
15465W        W87081   2.664  24.624  13.949
15466W        W87082  15.848   8.351   3.789
15467W        W87083  41.313  39.806   2.657
15468W        W87084  39.808  38.586   0.067
15469W        W87085  18.259  32.573  11.518
15470W        W87086   3.496   3.257  12.434
15471W        W87087  37.581  28.466  11.947
15472W        W87088  11.152  23.430   3.686
15473W        W87089   4.443  38.425   0.302
15474W        W87090  28.062  21.310   1.359
15475W        W87091  42.348  30.050   1.402
15476W        W87092  31.181  42.753   1.472
15477W        W87093  23.145  38.238   2.262
15478W        W87094  44.497  18.804   2.687
15479W        W87095  43.339  26.825  14.100
15480W        W87096  20.721  34.117  13.877
15481W        W87097   2.744  35.898  14.636
15482W        W87098  43.631  21.518  13.853
15483W        W87099  29.074  18.247  13.125
15484W        W87100   2.496  40.451  12.986
15485W        W87101   6.905  44.300   1.093
15486W        W87102  21.742  32.902  11.967
15487W        W87103   2.494  44.848  11.517
15488W        W87104  29.736  26.217   4.313
15489W        W87105  31.340   2.334  11.535
15490W        W87106  39.850  39.440  12.499
15491W        W87107   6.163   3.357  14.187
15492W        W87108  14.833  22.269   0.849
15493W        W87109  32.076  37.902  12.512
15494W        W87110   7.128   1.350  14.799
15495W        W87111  38.585  12.794   0.410
15496W        W87112  29.876  28.047   4.946
15497W        W87113  24.962  21.587   0.751
15498W        W87114   6.116  44.029   2.775
15499W        W87115  33.896  38.080   4.995
15500W        W87116  29.537  38.261  13.035
15501W        W87117  34.884  22.616   3.813
15502W        W87118   0.079  11.387   4.119
15503W        W87119  31.231  42.474   0.814
15504W        W87120   8.759  15.682   2.283
15505W        W87121  19.223  34.888   0.318
15506W        W87122   0.732   4.742   5.015
15507W        W87123  26.618  30.971   4.230
15508W        W87124  44.423  13.948  12.939
15509W        W87125  20.201   7.586   3.350
15510W        W87126  14.765  23.815   0.687
15511W        W87127   2.940  14.304  12.388
15512W        W87128  35.820  14.698   4.745
15513W        W87129  21.567  19.402  14.486
15514W        W87130  32.506  44.894   4.314
15515W        W87131  34.443   5.533   0.047
15516W        W87132  43.429  18.957   0.461
15517W        W87133  30.931  16.616   2.352
15518W        W87134   9.808   6.383   2.163
15519W        W87135   9.595  36.976   1.763
15520W        W87136  14.490  25.327   9.788
15521W        W87137   6.392   9.931   1.225
15522W        W87138  39.110  36.122   2.411
15523W        W87139  33.370  32.495  12.549
15524W        W87140   2.678  33.049   0.353
15525W        W87141  16.360  44.946  12.498
15526W        W87142  36.091  40.814   2.581
15527W        W87143  21.541  41.878   4.139
15528W        W87144  42.490  31.540  14.390
15529W        W87145  18.654  12.825  14.806
15530W        W87146  11.930  38.612   4.702
15531W        W87147   8.795  26.703   2.489
15532W        W87148  32.140   8.733  11.146
15533W        W87149  31.351  35.975   1.777
15534W        W87150  44.796   3.413  12.555
15535W        W87151  25.964  32.430   1.627
15536W        W87152  34.966   1.185   0.339
15537W        W87153  32.411  27.945  11.147
15538W        W87154  32.870  19.303   2.946
15539W        W87155  44.853  35.351   3.102
15540W        W87156  43.398  17.568   4.612
15541W        W87157  17.724  14.181   3.544
15542W        W87158  39.876  43.499  11.172
15543W        W87159  43.798  29.523  12.102
15544W        W87160  24.867  34.948   2.436
15545W        W87161  26.213  31.346   3.476
15546W        W87162   4.221  44.019  11.043
15547W        W87163  17.682  11.116   2.660
15548W        W87164  39.529  34.448  10.556
15549W        W87165  38.377  44.314   1.296
15550W        W87166  21.248  34.942   3.215
15551W        W87167  39.078  16.443   3.270
15552W        W87168  40.949  11.628  12.616
15553W        W87169  14.217   4.905   1.376
15554W        W87170   4.787  42.670   3.732
15555W        W87171  25.715  35.298   2.739
15556W        W87172  20.045   4.366  14.343
15557W        W87173  43.507   9.181   1.321
15558W        W87174  24.529  37.368  12.507
15559W        W87175  12.868  38.348   1.541
15560W        W87176  20.244  26.084   0.516
15561W        W87177  28.128  29.428  11.524
15562W        W87178  26.031  44.311  14.781
15563W        W87179  27.176   0.991  11.987
15564W        W87180  41.916  38.389   0.815
15565W        W87181  32.288   8.311   3.986
15566W        W87182  38.896  24.892   4.665
15567W        W87183  38.781  18.758   4.149
15568W        W87184  31.260  12.830  14.023
15569W        W87185  40.088  27.998  13.107
15570W        W87186  34.408  28.458   3.219
15571W        W87187   4.483  36.616  11.271
15572W        W87188  13.337  40.019   0.890
15573W        W87189  44.405  19.279  14.703
15574W        W87190  19.376  39.318   1.884
15575W        W87191  39.815  36.793   3.225
15576W        W87192   9.340  41.797   0.146
15577W        W87193  10.155   5.019  11.074
15578W        W87194  24.162  31.106   4.082
15579W        W87195  11.928  35.449   0.788
15580W        W87196   5.260   6.837   4.738
15581W        W87197  10.185  28.453  11.582
15582W        W87198   0.866  17.123   5.157
15583W        W87199  37.952  41.770   0.310
15584W        W87200  43.654  22.168   4.778
15585W        W87201  26.659  30.141  14.941
15586W        W87202  25.673  43.772  11.528
15587W        W87203   0.835   9.676  10.596
15588W        W87204   9.303  32.059   2.730
15589W        W87205   3.772  36.015  11.606
15590W        W87206  20.947   2.399  11.230
15591W        W87207  16.134  14.733   4.654
15592W        W87208   3.818  42.542   4.630
15593W        W87209   3.777  30.434  11.853
15594W        W87210   3.022  15.286   1.724
15595W        W87211  28.540  33.834   1.380
15596W        W87212   0.193   8.775   1.389
15597W        W87213  31.916  17.257  14.021
15598W        W87214   6.269  38.951   1.792
15599W        W87215  18.116  31.602  13.037
15600W        W87216  15.302  25.106  12.885
15601W        W87217   9.764  17.334  14.341
15602W        W87218  11.706   4.005   0.495
15603W        W87219  34.936   0.251   2.834
15604W        W87220  29.034   5.732  13.792
15605W        W87221  13.764   6.164   4.890
15606W        W87222  16.610  39.859  10.754
15607W        W87223  40.597  31.073   4.586
15608W        W87224  25.130   0.580  10.726
15609W        W87225  38.532  30.222   1.360
15610W        W87226  14.992  10.816   2.438
15611W        W87227   3.228  26.754  14.566
15612W        W87228   6.924  44.739  12.055
15613W        W87229  32.213  11.744  11.282
15614W        W87230  22.819   5.662   3.242
15615W        W87231  10.570  23.965  14.991
15616W        W87232  17.878   2.245  13.444
15617W        W87233  41.727  43.965  14.754
15618W        W87234  22.316  25.491  12.457
15619W        W87235  21.791  32.432  14.034
15620W        W87236  15.214  40.768  13.044
15621W        W87237   0.933  29.416  12.770
15622W        W87238  27.335   7.102  13.878
15623W        W87239  16.835   0.372  13.429
15624W        W87240  31.966   3.818   0.818
15625W        W87241  29.380   3.215  12.519
15626W        W87242  31.662   2.924  10.583
15627W        W87243  23.155  20.983  13.540
15628W        W87244  13.089  28.127  12.545
15629W        W87245   5.963  32.590  11.528
15630W        W87246   5.893  28.863   0.859
15631W        W87247  31.620  11.324   0.813
15632W        W87248  33.980  22.752   4.031
15633W        W87249   7.130  33.523  13.067
15634W        W87250  10.264  31.113   1.242
15635W        W87251  10.364  22.444  13.925
15636W        W87252  43.782  20.203   0.717
15637W        W87253  42.745   7.374  12.531
15638W        W87254  25.666   4.272  13.326
15639W        W87255  19.353   0.529  11.024
15640W        W87256  20.970  27.132   0.930
15641W        W87257   8.898   6.308   1.347
15642W        W87258   9.508  36.506   1.294
15643W        W87259   5.606  12.269   2.205
15644W        W87260  38.560  39.409   1.588
15645W        W87261  15.559   3.248  12.476
15646W        W87262  31.983  37.152  10.579
15647W        W87263  21.314  43.098   1.169
15648W        W87264  34.460  23.333   3.740
15649W        W87265  41.545   4.009  10.918
15650W        W87266   7.881  24.070  14.808
15651W        W87267  40.673   6.744   2.270
15652W        W87268  20.099   5.734  13.754
15653W        W87269  32.842   5.371   2.321
15654W        W87270  22.491  44.344   2.256
15655W        W87271  34.880  29.190   1.032
15656W        W87272   4.959  17.777   2.654
15657W        W87273  42.778  42.432  12.799
15658W        W87274  29.518  18.131   0.485
15659W        W87275  11.822   1.794   2.331
15660W        W87276  28.002   9.578   1.378
15661W        W87277   8.852  20.303  14.871
15662W        W87278  24.789   3.362  10.727
15663W        W87279   2.803  28.916   2.221
15664W        W87280  29.272   1.824  10.749
15665W        W87281  33.000  43.878   4.441
15666W        W87282  15.729  32.554   4.440
15667W        W87283  11.548  27.004  13.324
15668W        W87284  23.875  10.137  14.708
15669W        W87285  30.926   0.153  11.661
15670W        W87286  22.203  42.774   0.449
15671W        W87287  38.622  22.622  11.423
15672W        W87288   1.534  36.973   2.091
15673W        W87289  28.242   4.444   0.229
15674W        W87290  26.804  33.517  12.401
15675W        W87291  18.607  35.323   2.242
15676W        W87292   3.404  37.557   0.917
15677W        W87293  37.421   2.377  10.666
15678W        W87294  30.729  33.270  10.198
15679W        W87295  22.431  13.711   1.258
15680W        W87296  15.580   1.516  14.204
15681W        W87297  34.372  38.526  13.080
15682W        W87298   9.656  36.021   2.394
15683W        W87299   1.808  25.231  14.836
15684W        W87300   1.295  41.856   2.627
15685W        W87301  22.990   7.714   1.505
15686W        W87302  19.744  11.867  14.157
15687W        W87303  35.172  41.791   2.812
15688W        W87304  24.870  25.176   1.747
15689W        W87305  31.546  24.505   0.665
15690W        W87306   4.302  26.488   0.904
15691W        W87307  21.925  14.208   1.873
15692W        W87308  40.858  35.021  10.734
15693W        W87309  36.213  10.464   1.467
15694W        W87310  22.036  23.750   9.860
15695W        W87311  15.106  14.340   3.734
15696W        W87312  23.997   4.044  10.812
15697W        W87313  38.133  22.169   3.173
15698W        W87314   9.296  41.545   5.025
15699W        W87315   8.504  41.825   4.976
15700W        W87316  25.538  32.689   1.856
15701W        W87317  14.381  10.494   1.406
15702W        W87318  35.981  33.894   3.843
15703W        W87319  18.240  17.033   3.545
15704W        W87320  20.766  35.063   0.395
15705W        W87321  21.128   1.563   2.798
15706W        W87322  37.257  37.623  11.777
15707W        W87323  13.774  21.112  11.507
15708W        W87324   2.877  17.673   4.581
15709W        W87325  27.164  44.586  13.418
15710W        W87326  16.030  31.987  10.324
15711W        W87327   4.943  18.071  14.942
15712W        W87328  30.856  33.519   3.302
15713W        W87329  15.364  26.995  13.808
15714W        W87330   7.110  13.783   1.331
15715W        W87331  36.603  38.321   3.406
15716W        W87332   3.613  11.875   3.345
15717W        W87333  18.245  20.790   3.698
15718W        W87334  19.552  33.554   4.040
15719W        W87335   3.344  39.092   0.957
15720W        W87336  44.390  41.507  11.147
15721W        W87337   4.375  36.833   3.674
15722W        W87338   9.326  38.550   2.172
15723W        W87339  12.356  36.033   4.905
15724W        W87340   2.458  15.176  12.468
15725W        W87341  34.510  30.141   0.273
15726W        W87342   8.892  14.686   3.124
15727W        W87343   0.034  38.623  13.001
15728W        W87344  13.762  20.088   1.273
15729W        W87345  26.135  37.276  13.453
15730W        W87346  29.976  26.546  10.500
15731W        W87347  22.982  43.267  10.975
15732W        W87348  25.796  14.801   4.211
15733W        W87349  12.705   7.899   2.990
15734W        W87350  39.852  42.319  12.452
15735W        W87351   7.283  39.542   4.266
15736W        W87352   7.884  29.631   2.741
15737W        W87353  36.490   5.114  11.008
15738W        W87354  30.337  27.646   4.612
15739W        W87355  38.419  44.446  11.620
15740W        W87356   3.765  40.608  13.013
15741W        W87357  24.809  28.149  14.310
15742W        W87358   3.061  38.345   4.645
15743W        W87359  12.817  17.721  13.502
15744W        W87360   8.400  35.557  11.524
15745W        W87361  11.708  21.815  10.427
15746W        W87362  36.555  17.259  10.248
15747W        W87363  41.397  21.134   2.496
15748W        W87364  18.811  35.436  10.883
15749W        W87365  27.982  26.504  10.541
15750W        W87366  29.017  38.237   0.886
15751W        W87367  27.426  32.940  10.580
15752W        W87368   5.708  44.045  14.792
15753W        W87369   7.248  14.796  12.141
15754W        W87370  36.386  20.785   1.249
15755W        W87371  20.342  35.401  12.079
15756W        W87372  23.822  14.342  13.991
15757W        W87373  22.184  26.982  13.413
15758W        W87374  25.831  22.818   3.688
15759W        W87375   7.635  38.792   2.609
15760W        W87376  12.293  15.144   2.886
15761W        W87377   3.816  42.853   1.007
15762W        W87378  44.891  26.212   3.639
15763W        W87379   4.870  27.400  11.043
15764W        W87380   8.587   8.462   0.784
15765W        W87381  35.968  33.191  14.252
15766W        W87382  41.515  15.028   3.091
15767W        W87383  18.337  24.520  10.936
15768W        W87384  22.605  38.568   3.149
15769W        W87385  38.974  13.104   3.917
15770W        W87386  36.974  28.298  14.328
15771W        W87387  31.753  20.990   2.572
15772W        W87388  20.587   4.512   0.926
15773W        W87389  12.670  25.236  12.511
15774W        W87390  42.084  16.263   0.273
15775W        W87391  12.743  41.437   4.626
15776W        W87392  28.147  22.812  14.765
15777W        W87393  16.602   1.856   3.102
15778W        W87394  21.178  29.887  14.037
15779W        W87395   9.648  34.803   1.798
15780W        W87396   6.120  43.748   2.327
15781W        W87397  10.766  17.203  13.392
15782W        W87398  14.231   8.908   1.639
15783W        W87399  27.848   8.248   1.762
15784W        W87400  28.229  29.506  13.003
15785W        W87401  10.493   5.463  13.724
15786W        W87402  37.984   6.405  11.165
15787W        W87403  24.347   5.369  11.487
15788W        W87404  19.756  17.273  12.057
15789W        W87405  36.181  23.624   4.376
15790W        W87406  12.234  24.972  12.480
15791W        W87407   4.883  44.007   3.236
15792W        W87408  42.817  40.930  14.949
15793W        W87409  31.161  37.823  14.361
15794W        W87410  32.962  17.729  11.966
15795W        W87411  44.064   6.677   0.208
15796W        W87412   6.823   3.870   3.342
15797W        W87413  20.525   7.095   1.923
15798W        W87414  42.970   4.194   2.056
15799W        W87415  35.325  32.613   3.414
15800W        W87416   9.665  14.655   0.570
15801W        W87417   2.751  31.561  13.681
15802W        W87418   3.215  21.053   2.963
15803W        W87419  12.395  11.485  12.078
15804W        W87420   5.951  27.258  12.193
15805W        W87421  37.006  17.902   1.834
15806W        W87422  44.661  30.367  13.869
15807W        W87423   9.805  44.198  12.564
15808W        W87424   1.932  32.819  12.557
15809W        W87425   4.494  26.103   4.617
15810W        W87426  29.452  26.678  11.179
15811W        W87427  35.584  16.289  12.863
15812W        W87428  29.100  41.318   1.583
15813W        W87429   1.021   1.313  11.547
15814W        W87430  17.532   0.902   3.274
15815W        W87431   8.500  29.753   3.650
15816W        W87432  38.651  30.430  12.053
15817W        W87433  43.766  41.873   2.265
15818W        W87434  10.599  12.076  13.849
15819W        W87435  28.516  41.427  14.013
15820W        W87436  19.766  21.011  13.868
15821W        W87437  39.212  13.707   1.753
15822W        W87438  43.495  32.701  10.450
15823W        W87439   5.412  21.712   1.900
15824W        W87440  17.487   0.974   4.670
15825W        W87441   7.522  41.793  12.873
15826W        W87442  11.534  17.173   2.878
15827W        W87443  34.831  17.886   4.239
15828W        W87444  37.845  44.838  11.592
15829W        W87445  30.094  22.019   3.739
15830W        W87446  15.146  40.558   0.260
15831W        W87447  12.900  11.667  12.084
15832W        W87448  35.562  30.647  12.183
15833W        W87449  42.369  20.400  11.545
15834W        W87450   8.232  12.405  12.849
15835W        W87451  37.056  39.473  12.050
15836W        W87452  21.418   6.891  14.035
15837W        W87453  38.242  42.381   3.159
15838W        W87454  22.154   2.306  10.709
15839W        W87455  32.860   0.711   2.552
15840W        W87456  29.983  38.995  14.103
15841W        W87457  24.697   6.207  14.560
15842W        W87458   8.081  11.634  13.837
15843W        W87459  15.573  12.185   1.958
15844W        W87460  35.922  30.149   0.660
15845W        W87461  44.788  31.566  14.971
15846W        W87462  19.266  42.589  11.009
15847W        W87463  39.906  13.557   3.719
15848W        W87464  23.201  26.484   3.689
15849W        W87465  27.875  19.748  13.761
15850W        W87466  35.754   8.323  12.023
15851W        W87467  40.043  32.387  11.931
15852W        W87468  35.033  28.631  12.616
15853W        W87469  10.658  29.927  11.876
15854W        W87470  16.706   4.520   1.507
15855W        W87471  28.229  12.677   3.649
15856W        W87472   5.422  14.397   5.069
15857W        W87473  39.333  43.892   4.854
15858W        W87474   2.870  29.939  10.732
15859W        W87475  19.630  23.235  13.224
15860W        W87476   5.296  18.690  14.196
15861W        W87477  39.649  23.815  11.971
15862W        W87478  40.004  18.725   3.722
15863W        W87479  25.816   5.256  12.065
15864W        W87480   6.439   7.314   3.335
15865W        W87481   7.138  44.922   3.688
15866W        W87482   5.699  20.629   3.133
15867W        W87483  29.017  11.693  13.401
15868W        W87484  23.022  12.747   4.282
15869W        W87485   7.697   5.176  12.456
15870W        W87486  17.188  27.881  12.078
15871W        W87487  38.865  37.060  14.011
15872W        W87488  32.119  11.422   0.941
15873W        W87489  14.279  21.984  14.470
15874W        W87490  29.577  41.969   0.742
15875W        W87491  23.613  25.506   1.297
15876W        W87492  39.048  42.907  11.520
15877W        W87493  41.718   8.612   4.914
15878W        W87494  44.330  36.615   0.010
15879W        W87495   5.512  15.346   3.999
15880W        W87496  12.803  13.251   2.798
15881W        W87497   9.838  41.441  10.530
15882W        W87498  42.956   1.330   1.666
15883W        W87499  38.542  40.428   4.531
15884W        W87500   5.928  38.832   1.425
15885W        W87501  14.654   7.736   4.528
15886W        W87502  36.555  17.543   2.823
15887W        W87503   5.634  23.883   2.320
15888W        W87504   9.279  29.106   4.509
15889W        W87505  23.327  26.776  12.402
15890W        W87506  23.138  31.419  10.458
15891W        W87507   4.180  44.678   0.086
15892W        W87508  27.587  13.952  14.447
15893W        W87509  23.042  44.539   1.192
15894W        W87510   4.139  15.175  12.416
15895W        W87511  26.108   6.364  14.025
15896W        W87512  11.686  23.543  11.078
15897W        W87513  19.458  25.371  12.366
15898W        W87514   1.006  42.425   0.154
15899W        W87515  13.352  23.650   0.677
15900W        W87516  16.857  44.802  13.879
15901W        W87517  28.371  38.879  11.228
15902W        W87518  40.360  19.627   1.048
15903W        W87519   4.720  18.898  12.914
15904W        W87520   3.813  24.549   3.672
15905W        W87521  36.519  12.734  11.126
15906W        W87522  28.486  15.856  13.364
15907W        W87523  42.793  10.727  11.811
15908W        W87524  24.517  14.725  13.501
15909W        W87525  16.535  12.924   5.016
15910W        W87526  42.461   3.473   2.263
15911W        W87527  13.269  19.557   2.870
15912W        W87528   9.084   1.366   1.283
15913W        W87529  31.548  39.861  11.996
15914W        W87530  16.120  36.966  10.643
15915W        W87531  40.527   0.196   4.183
15916W        W87532  34.527   9.650  11.594
15917W        W87533  20.487  28.925  10.749
15918W        W87534  26.225  40.257  11.199
15919W        W87535   5.886  39.455   4.092
15920W        W87536   1.675  22.782   1.805
15921W        W87537  28.634  19.225   0.489
15922W        W87538  11.057  42.274  10.909
15923W        W87539  41.980  12.142   1.814
15924W        W87540  12.444  33.818  13.844
15925W        W87541  29.411  21.029   1.743
15926W        W87542  26.188  37.057  12.004
15927W        W87543   8.396  35.913   3.754
15928W        W87544  17.928  24.802  11.221
15929W        W87545  17.583  43.840   1.970
15930W        W87546  23.969  21.144  10.302
15931W        W87547  23.238  17.343   1.776
15932W        W87548  32.899  37.589  12.950
15933W        W87549   0.392  34.116   3.246
15934W        W87550  43.871  25.750  11.217
15935W        W87551  10.968  43.462  13.480
15936W        W87552  14.138  30.056  13.410
15937W        W87553  35.189  26.741  11.173
15938W        W87554  20.328  28.623   3.020
15939W        W87555  18.879  16.904  12.059
15940W        W87556  38.067  10.738   0.430
15941W        W87557   0.932  40.733  10.725
15942W        W87558  19.771  25.720  13.350
15943W        W87559  37.756  11.952   2.795
15944W        W87560  34.599   4.884  12.277
15945W        W87561  21.288  18.330  10.393
15946W        W87562  15.276  19.131  11.925
15947W        W87563  41.264  17.294   1.796
15948W        W87564  34.535   5.220   3.238
15949W        W87565  36.510   5.769   0.907
15950W        W87566  42.239  43.203  11.923
15951W        W87567  10.828  17.963   1.018
15952W        W87568  36.898  42.060  14.849
15953W        W87569   5.122  26.758   0.276
15954W        W87570   6.974  11.405  12.099
15955W        W87571  18.704   6.164   1.250
15956W        W87572  19.586  26.133   3.217
15957W        W87573  21.765  12.606  13.039
15958W        W87574   9.300  36.086   4.151
15959W        W87575  36.645  15.165   2.865
15960W        W87576   2.457  16.874  14.902
15961W        W87577  31.208   4.813   3.229
15962W        W87578  13.266  44.735  10.486
15963W        W87579  32.312  11.830   2.246
15964W        W87580  39.440  10.088  12.821
15965W        W87581   1.793  37.899  13.005
15966W        W87582   1.056   2.209  11.602
15967W        W87583  23.294  13.784   2.850
15968W        W87584  32.395   1.418  11.612
15969W        W87585   3.370  34.690  14.796
15970W        W87586   9.714   3.482  10.720
15971W        W87587  12.935  12.855   4.196
15972W        W87588  16.322  30.134   4.920
15973W        W87589  17.085  38.346   2.199
15974W        W87590   3.174  28.001  13.319
15975W        W87591  21.026  40.820   1.994
15976W        W87592   4.843  38.363  14.298
15977W        W87593   5.289  42.896  11.646
15978W        W87594  28.170  34.191  13.599
15979W        W87595  19.019  18.715  10.760
15980W        W87596  30.389  13.569   0.910
15981W        W87597  30.826  13.618   4.877
15982W        W87598  41.305   4.329  12.570
15983W        W87599  24.372   1.705   3.389
15984W        W87600  40.546  23.927   0.747
15985W        W87601  21.637   9.374   3.727
15986W        W87602  15.550  37.865   0.283
15987W        W87603  32.081  26.675   2.182
15988W        W87604  41.283  36.881   2.465
15989W        W87605   7.192  29.484  11.821
15990W        W87606  36.586   3.539  13.458
15991W        W87607  40.013  31.673   3.717
15992W        W87608   3.530  24.151   5.097
15993W        W87609  40.018  37.616   3.507
15994W        W87610  20.997  31.717   0.295
15995W        W87611  42.797  18.271  11.586
15996W        W87612  16.676   7.203  11.218
15997W        W87613  31.913  11.826  13.172
15998W        W87614  10.592  34.868  11.710
15999W        W87615   7.154  12.661   1.239
16000W        W87616  36.486  26.146  12.030
16001W        W87617   9.593  42.721  12.446
16002W        W87618  24.582   2.185   3.337
16003W        W87619  11.033  29.152  13.550
16004W        W87620  21.377  21.252  11.191
16005W        W87621  36.715   4.828   5.011
16006W        W87622  30.387  41.824  14.582
16007W        W87623  26.072  15.304   4.628
16008W        W87624   4.040  43.571  11.493
16009W        W87625  34.545  27.776   1.251
16010W        W87626  29.589  16.146  11.574
16011W        W87627  14.148   1.016  11.727
16012W        W87628  13.844  43.385  10.525
16013W        W87629   5.897  13.849   0.926
16014W        W87630  15.817  25.539   0.779
16015W        W87631   3.599  27.736   3.947
16016W        W87632   7.005  12.221  11.158
16017W        W87633  21.110   1.891  13.503
16018W        W87634  17.461  43.352  11.629
16019W        W87635  27.901  30.697  11.210
16020W        W87636   7.840  12.206   2.721
16021W        W87637  44.434  33.176   4.866
16022W        W87638  40.423  24.231   3.480
16023W        W87639  17.051   7.775   0.687
16024W        W87640  32.965  17.760  10.646
16025W        W87641   3.794  21.555  11.117
16026W        W87642   0.267  14.401  10.589
16027W        W87643   6.244  29.635  14.822
16028W        W87644   9.372  18.098  12.010
16029W        W87645  24.123   1.291   3.202
16030W        W87646  18.504  27.120   1.851
16031W        W87647  16.826   2.893  13.923
16032W        W87648  36.585   5.168   4.660
16033W        W87649   3.468  18.553  10.656
16034W        W87650  33.325   1.655   5.042
16035W        W87651  20.198   5.142  12.111
16036W        W87652  15.005  22.265  12.987
16037W        W87653   1.985  29.563   1.447
16038W        W87654  20.040  13.421  10.728
16039W        W87655  16.183  42.614  14.061
16040W        W87656  34.593   7.310   0.805
16041W        W87657  37.467  19.239   4.866
16042W        W87658  39.909  43.829  14.577
16043W        W87659   5.742  44.377   4.288
16044W        W87660  27.534  29.797  14.982
16045W        W87661  28.386  22.551  13.526
16046W        W87662  40.881  23.017  14.746
16047W        W87663  31.598  31.617  12.395
16048W        W87664   4.244  25.490  13.918
16049W        W87665  29.169  17.262  13.804
16050W        W87666   5.960   6.220   3.638
16051W        W87667  36.003  20.535   3.247
16052W        W87668  30.872  30.053   4.095
16053W        W87669  39.433  26.016   4.590
16054W        W87670  35.454  12.747   2.843
16055W        W87671  31.618  44.065  14.926
16056W        W87672  44.022  31.378  10.699
16057W        W87673  17.543   3.356  13.044
16058W        W87674  14.809  29.972   3.706
16059W        W87675   3.094  36.413  10.767
16060W        W87676   5.862   6.925   2.650
16061W        W87677  19.757  11.716  10.347
16062W        W87678  27.217   2.305   4.645
16063W        W87679  15.738   7.779   1.430
16064W        W87680  20.110   2.256   0.704
16065W        W87681   1.964  33.828   0.376
16066W        W87682  41.792  20.755  13.180
16067W        W87683  37.557  23.439   2.242
16068W        W87684   7.900  41.020  14.011
16069W        W87685  25.091  14.577  11.477
16070W        W87686  31.685  33.397  13.400
16071W        W87687  21.738  41.951  11.658
16072W        W87688   5.103  23.070   2.696
16073W        W87689  16.892  14.158   3.404
16074W        W87690  17.171  41.076  11.545
16075W        W87691  26.521  38.959   1.287
16076W        W87692  23.055  41.395   3.103
16077W        W87693  26.605  15.451   0.956
16078W        W87694  42.830  39.244   4.103
16079W        W87695   1.981  25.559   2.241
16080W        W87696  25.702  16.430  10.402
16081W        W87697  26.770  33.981  13.564
16082W        W87698  41.225   7.724  12.594
16083W        W87699  15.659  29.392  14.968
16084W        W87700  38.538  18.182  12.601
16085W        W87701   9.269  15.875  14.970
16086W        W87702  37.764  38.057  10.636
16087W        W87703  23.441  23.585   1.924
16088W        W87704  23.521  40.532  11.199
16089W        W87705   7.287  16.716   1.929
16090W        W87706  24.674   3.546   1.953
16091W        W87707  40.649   1.647   1.353
16092W        W87708  39.906   8.834  12.913
16093W        W87709  18.806  16.101  13.895
16094W        W87710   9.853  15.405   0.908
16095W        W87711   8.937  36.419  14.750
16096W        W87712  44.277  22.978   1.001
16097W        W87713  10.864  10.815  13.879
16098W        W87714  23.696  35.602   1.965
16099W        W87715  27.229   0.379   3.425
16100W        W87716  39.709  37.476   4.252
16101W        W87717   3.200  32.996   2.613
16102W        W87718   3.844  29.944   4.247
16103W        W87719  41.363   6.983   4.120
16104W        W87720  39.339  22.298   1.270
16105W        W87721  12.233  37.368   2.692
16106W        W87722  34.149  36.596  14.504
16107W        W87723  13.172   9.713  14.539
16108W        W87724   9.595  17.182  12.841
16109W        W87725  18.566  19.245  13.999
16110W        W87726   1.675   5.405  13.890
16111W        W87727  30.773  42.365  10.822
16112W        W87728  24.700  11.652  12.192
16113W        W87729   9.369   9.835   2.264
16114W        W87730  28.260  12.185  13.584
16115W        W87731  13.137  35.032  12.683
16116W        W87732  34.479  42.513   0.911
16117W        W87733   8.940   3.039   4.159
16118W        W87734   3.711  35.430  13.083
16119W        W87735  25.254  40.553   2.241
16120W        W87736  23.978   8.694   4.082
16121W        W87737  28.395   7.498   0.802
16122W        W87738  16.204  35.380   3.615
16123W        W87739  22.518  43.806   4.267
16124W        W87740  11.892  10.787   3.788
16125W        W87741  10.712  33.839  11.592
16126W        W87742  25.972  14.863   0.362
16127W        W87743  36.542  20.627  10.663
16128W        W87744  28.075  37.224   2.304
16129W        W87745   8.599  40.405   4.490
16130W        W87746  11.616  35.218   1.756
16131W        W87747   4.365  37.996   1.902
16132W        W87748  28.618   2.796   0.885
16133W        W87749   7.888  36.334   3.668
16134W        W87750  44.943  42.972  11.596
16135W        W87751  23.737   1.295   3.865
16136W        W87752  17.081  14.847  10.613
16137W        W87753   4.785   6.458   1.428
16138W        W87754   2.069  30.351  14.360
16139W        W87755   1.964  40.325  12.499
16140W        W87756   2.686   4.650   2.325
16141W        W87757  18.364  14.088   2.735
16142W        W87758  37.504  24.030  12.122
16143W        W87759   0.793  32.182   5.212
16144W        W87760  15.396   6.305  10.167
16145W        W87761  26.017  35.567  11.606
16146W        W87762   8.882   5.881  13.930
16147W        W87763  15.584   1.112   3.683
16148W        W87764  27.945  42.873   3.742
16149W        W87765   6.243  38.942   3.105
16150W        W87766  22.816  30.684  12.549
16151W        W87767  35.798  15.444  11.409
16152W        W87768   1.994  13.134   3.667
16153W        W87769  14.791  23.568   3.622
16154W        W87770   4.981  10.052   9.885
16155W        W87771  34.473   7.915  12.496
16156W        W87772  33.723  33.844  11.037
16157W        W87773   1.176  21.170  14.888
16158W        W87774   4.419  35.878  12.399
16159W        W87775   1.882  24.095   1.722
16160W        W87776  36.499   2.298   4.571
16161W        W87777  34.074  31.578   0.910
16162W        W87778  12.754  34.358  13.154
16163W        W87779   4.811  34.695  13.461
16164W        W87780  11.261  43.955   4.665
16165W        W87781  31.616  42.916  12.909
16166W        W87782  28.211   5.980   2.781
16167W        W87783  29.122  30.665  14.281
16168W        W87784  26.367  36.085   4.414
16169W        W87785  13.158  13.652  14.465
16170W        W87786  31.852   7.440  12.445
16171W        W87787  39.803  25.041  12.492
16172W        W87788  11.185   6.923  13.001
16173W        W87789  28.683  22.329   2.656
16174W        W87790  18.332   9.803   2.309
16175W        W87791  40.442  14.211   4.531
16176W        W87792   5.244  31.586  11.964
16177W        W87793  33.480  43.803  11.175
16178W        W87794  27.602   8.381   3.670
16179W        W87795  21.795  24.032   3.557
16180W        W87796  23.552   8.109  11.169
16181W        W87797   3.462  28.352   2.505
16182W        W87798   3.639  44.853  12.195
16183W        W87799   6.711  39.834  14.370
16184W        W87800  41.559  20.302   3.785
16185W        W87801  41.814  10.780   3.625
16186W        W87802   3.560  26.189   1.527
16187W        W87803  44.403  44.095   4.560
16188W        W87804   5.895  31.605  11.685
16189W        W87805   8.332  17.790   1.945
16190W        W87806   0.380  38.963  10.828
16191W        W87807  19.245   7.304  13.891
16192W        W87808  19.808  44.774  14.230
16193W        W87809  39.570   5.282  11.968
16194W        W87810  23.612  39.499  11.153
16195W        W87811  41.031  32.106   2.262
16196W        W87812   5.209  17.649  11.724
16197W        W87813  15.106  34.888  12.131
16198W        W87814  27.068  43.285   3.398
16199W        W87815  43.938  28.715  14.870
16200W        W87816  25.130  30.518   4.676
16201W        W87817  13.255  12.208   4.108
16202W        W87818  32.905   0.012   3.722
16203W        W87819  19.258   4.949   9.794
16204W        W87820   0.870  26.251  13.740
16205W        W87821  15.757  15.151  12.542
16206W        W87822   5.197  15.736  10.648
16207W        W87823  34.099   3.137  11.634
16208W        W87824  24.228  43.768  12.914
16209W        W87825  19.860  23.151  14.037
16210W        W87826  30.590  11.737  13.995
16211W        W87827   9.124   1.266  12.058
16212W        W87828   7.399  40.964  13.835
16213W        W87829  36.546  20.079  14.304
16214W        W87830  25.060  32.096   3.185
16215W        W87831   5.391  30.537   4.609
16216W        W87832  17.333   2.872  12.057
16217W        W87833  21.386   0.237  11.775
16218W        W87834  25.788  40.465  10.555
16219W        W87835  20.000  10.534   1.256
16220W        W87836  30.887  40.458   2.583
16221W        W87837  15.840  17.535  11.134
16222W        W87838  24.528  31.398   3.660
16223W        W87839   7.654  26.601   4.133
16224W        W87840  43.959   4.367   0.192
16225W        W87841  20.243  33.072   1.831
16226W        W87842   4.885  44.054  14.726
16227W        W87843  41.770  14.353  14.734
16228W        W87844  25.495  11.227   3.374
16229W        W87845  17.260  36.301  13.787
16230W        W87846  21.618  11.160  14.267
16231W        W87847  20.987  34.917   3.658
16232W        W87848  38.438  24.827   4.989
16233W        W87849  41.762  28.273   3.541
16234W        W87850  39.841  11.180   5.415
16235W        W87851  21.669   1.201   0.994
16236W        W87852  23.043   1.545   0.253
16237W        W87853  38.251  40.091  13.835
16238W        W87854  27.577  42.449   4.444
16239W        W87855  30.872  43.491   3.645
16240W        W87856  39.545  40.822  12.446
16241W        W87857   7.146   2.441   0.270
16242W        W87858   7.307  13.231  14.971
16243W        W87859   2.186  43.833   3.351
16244W        W87860  19.135  44.972  12.440
16245W        W87861  15.644  20.728  13.096
16246W        W87862  26.744  34.813   2.796
16247W        W87863  39.094  24.570   2.283
16248W        W87864  33.344  22.022  14.338
16249W        W87865  43.530  19.607   0.624
16250W        W87866  42.923   3.005   3.280
16251W        W87867   2.201   8.661   3.800
16252W        W87868  26.022  30.164  11.652
16253W        W87869  15.811  38.029  14.335
16254W        W87870  34.988   2.304  13.982
16255W        W87871  18.766   9.265   4.769
16256W        W87872  11.878   4.320   4.123
16257W        W87873   0.860   5.780   4.511
16258W        W87874  12.926   8.169   1.411
16259W        W87875  36.884   7.539  14.673
16260W        W87876  12.118  20.880  13.433
16261W        W87877   5.893  17.583  13.787
16262W        W87878  11.186  37.590  13.881
16263W        W87879  32.236  28.205   3.717
16264W        W87880  26.227  21.022   4.320
16265W        W87881   3.005  20.615  11.459
16266W        W87882  29.119  37.554  11.601
16267W        W87883  44.722   5.233   4.143
16268W        W87884  33.929  30.599  10.625
16269W        W87885  33.195  29.404   4.116
16270W        W87886  42.707   8.586   3.146
16271W        W87887  36.060  11.570  12.034
16272W        W87888  40.871  22.742  12.365
16273W        W87889  42.534  29.418   3.208
16274W        W87890  22.425  22.304  14.408
16275W        W87891  15.400  22.997   2.890
16276W        W87892  34.096  22.523   3.580
16277W        W87893  25.179   0.350   2.869
16278W        W87894  19.736  35.917   1.301
16279W        W87895   5.818   9.158  14.648
16280W        W87896  27.005  10.622  13.503
16281W        W87897  36.622   0.006  12.802
16282W        W87898  12.846  37.926  14.430
16283W        W87899  44.415  40.000   0.846
16284W        W87900  16.355   3.939   2.324
16285W        W87901   6.914  37.155   4.597
16286W        W87902   6.221  15.754   1.954
16287W        W87903  32.433  41.102  12.462
16288W        W87904  27.401  13.382  12.942
16289W        W87905   1.254  32.175  12.959
16290W        W87906  30.431   0.417   2.782
16291W        W87907  31.561  33.600  12.512
16292W        W87908  21.429  39.783   3.334
16293W        W87909  39.127  41.060  13.598
16294W        W87910   8.348  13.169   3.678
16295W        W87911  33.234  38.476   3.692
16296W        W87912  15.167   5.454   2.676
16297W        W87913   6.504  11.662  10.213
16298W        W87914   9.259  14.815  11.958
16299W        W87915   1.389  42.370   3.686
16300W        W87916  26.648  42.548  11.586
16301W        W87917   5.748  20.530  12.514
16302W        W87918   6.877  28.528   3.739
16303W        W87919  11.640  33.915  11.571
16304W        W87920  33.128  38.834  13.566
16305W        W87921  16.773  36.030  11.947
16306W        W87922   8.899  15.357  14.536
16307W        W87923  34.201   6.404   2.347
16308W        W87924   3.449   5.412  14.272
16309W        W87925   5.836  29.320  13.957
16310W        W87926   8.824  42.638   0.829
16311W        W87927  15.076  29.227  13.011
16312W        W87928  17.721  40.047   0.727
16313W        W87929  10.965  25.132  11.661
16314W        W87930  17.731  22.086   1.442
16315W        W87931   1.440  20.127   4.129
16316W        W87932  42.408  28.602   2.809
16317W        W87933  14.529  24.726  14.039
16318W        W87934   5.830  41.922  11.391
16319W        W87935   4.250  22.747  13.376
16320W        W87936   1.440  28.458   3.320
16321W        W87937  40.447   3.139   4.509
16322W        W87938   0.800  11.365   1.862
16323W        W87939  40.457  20.446  13.508
16324W        W87940   1.671   7.747  13.390
16325W        W87941  38.145  44.758   1.427
16326W        W87942  32.072  15.579   1.008
16327W        W87943  35.861  25.956  14.995
16328W        W87944   1.927   6.365   0.977
16329W        W87945  12.512  30.131  13.467
16330W        W87946  14.912   8.436  13.395
16331W        W87947  30.607  37.585  13.441
16332W        W87948  17.753   5.982  14.767
16333W        W87949  17.362   2.847  12.983
16334W        W87950  19.061  43.994  10.226
16335W        W87951   5.848  18.116   4.583
16336W        W87952  35.904  30.355  14.307
16337W        W87953  39.205  12.287  11.725
16338W        W87954  35.894  28.595   1.388
16339W        W87955  35.360  14.792   2.466
16340W        W87956  39.607   8.149  11.604
16341W        W87957  23.004  29.555  14.856
16342W        W87958   8.700  28.858  14.276
16343W        W87959  21.132   7.504  14.894
16344W        W87960  34.538  14.790  11.215
16345W        W87961  42.746  31.271  12.618
16346W        W87962   5.562   5.195  10.767
16347W        W87963   0.980  22.216  14.454
16348W        W87964   3.273  28.933  13.717
16349W        W87965  18.307  37.042  14.518
16350W        W87966  32.012  26.446   3.147
16351W        W87967  28.429  14.300  11.048
16352W        W87968  14.609   0.451   4.193
16353W        W87969  23.280   5.557  14.328
16354W        W87970  31.859  22.697   0.813
16355W        W87971  16.859  44.388   1.932
16356W        W87972   9.637  42.816  14.442
16357W        W87973  35.379   0.379  13.291
16358W        W87974  37.589  29.764  12.531
16359W        W87975   9.631   2.338  11.819
16360W        W87976  31.896  39.559  14.950
16361W        W87977  14.532  31.643  13.024
16362W        W87978  32.027  26.129   2.273
16363W        W87979  35.608   6.412   1.223
16364W        W87980  10.611  32.891   4.469
16365W        W87981  39.494  41.500  13.151
16366W        W87982  14.582  26.127  11.512
16367W        W87983  38.827  29.389  12.211
16368W        W87984  30.960  41.859  13.333
16369W        W87985  17.141   6.199   1.898
16370W        W87986  27.910  32.398   2.416
16371W        W87987  37.473  13.038  13.453
16372W        W87988  23.133   8.619   3.741
16373W        W87989  10.263  41.512  12.834
16374W        W87990  18.357  30.988  11.220
16375W        W87991  26.445  36.307  11.715
16376W        W87992  24.028  31.121  12.580
16377W        W87993  26.568  20.199   0.275
16378W        W87994  44.505  29.592   1.880
16379W        W87995  35.668  29.467   3.723
16380W        W87996  28.326   0.014   1.636
16381W        W87997  16.833  25.664   2.225
16382W        W87998  13.813  35.440   4.376
16383W        W87999  41.199   4.727  10.368
16384W        W88000  44.001  25.958   2.637
16385W        W88001  27.221  15.121  10.267
16386W        W88002  39.320  15.645   4.634
16387W        W88003  11.308  10.337  14.973
16388W        W88004  15.022  16.716  10.589
16389W        W88005   1.527  23.027   5.206
16390W        W88006   0.246   2.716   3.942
16391W        W88007  36.287  19.070   4.906
16392W        W88008   9.314  20.802   4.209
16393W        W88009  26.217   6.385  12.381
16394W        W88010  21.713  11.233   1.437
16395W        W88011  23.707  41.836   4.166
16396W        W88012  41.894   2.204  12.544
16397W        W88013  42.469  12.087   2.265
16398W        W88014  26.645  16.197   2.374
16399W        W88015  27.903  10.579   4.422
16400W        W88016   4.472  44.708   2.350
16401W        W88017   0.501  29.002  12.583
16402W        W88018  31.483   0.004  10.955
16403W        W88019  13.284  36.350  11.562
16404W        W88020  20.662   3.420   4.331
16405W        W88021  42.367  29.537  13.179
16406W        W88022  33.657   6.096   1.266
16407W        W88023  30.749  36.512   4.049
16408W        W88024   5.619  30.549   2.259
16409W        W88025  33.588  34.930   4.498
16410W        W88026  25.906  34.613   1.278
16411W        W88027  36.178   0.964  12.433
16412W        W88028  10.926  18.616  11.968
16413W        W88029  41.415  44.964  13.494
16414W        W88030  11.357   7.997   1.302
16415W        W88031  39.413  22.235   0.750
16416W        W88032   9.330  12.377   3.636
16417W        W88033   1.489  35.668  14.328
16418W        W88034   2.187  40.462  12.027
16419W        W88035  44.423   0.278   1.461
16420W        W88036  33.649  33.368  13.000
16421W        W88037  12.354   7.138  13.398
16422W        W88038  43.560   4.669  11.645
16423W        W88039  14.654   4.712  11.631
16424W        W88040  28.736   3.401  11.385
16425W        W88041  37.916  35.536   1.300
16426W        W88042  43.074  36.287  10.212
16427W        W88043  28.511  34.395  11.414
16428W        W88044  21.212   5.352  12.736
16429W        W88045  29.981  16.541  13.108
16430W        W88046  21.012  18.922  13.106
16431W        W88047   9.355  31.473   1.426
16432W        W88048  20.508  23.671  13.293
16433W        W88049  18.239  32.376  12.407
16434W        W88050  15.095  43.259   1.525
16435W        W88051  38.144  21.832  11.214
16436W        W88052  27.041   8.534  14.520
16437W        W88053   6.137  11.806   4.544
16438W        W88054  30.772  21.101   9.884
16439W        W88055  23.685  25.546  13.828
16440W        W88056  17.328   5.449   1.175
16441W        W88057  22.294  23.210   3.246
16442W        W88058  43.912  22.113  13.526
16443W        W88059  31.268  27.377  10.229
16444W        W88060  25.551   7.424  11.428
16445W        W88061  23.763  15.282   1.927
16446W        W88062   2.485  23.071  13.164
16447W        W88063  19.421  25.105   3.734
16448W        W88064  36.120  41.442   1.110
16449W        W88065  28.612  42.768  11.111
16450W        W88066  11.262   6.197  12.576
16451W        W88067  19.796  42.432   3.281
16452W        W88068  24.951  13.139  14.683
16453W        W88069  31.714  16.129  11.702
16454W        W88070   2.260  13.631   4.210
16455W        W88071  11.379  25.183   3.640
16456W        W88072  31.936  19.909  10.713
16457W        W88073   3.372  17.346   3.657
16458W        W88074   4.318  31.058   2.187
16459W        W88075  24.523  40.831   1.525
16460W        W88076  41.066  28.225  14.422
16461W        W88077  22.015  18.038  12.143
16462W        W88078  13.982  15.409   4.747
16463W        W88079  37.876  27.628  10.974
16464W        W88080   4.479  23.577   1.456
16465W        W88081  20.752  37.952   1.840
16466W        W88082  36.214  40.038   1.145
16467W        W88083  24.152  14.886  11.975
16468W        W88084  35.121  22.535   3.369
16469W        W88085  32.611  22.280  14.752
16470W        W88086  26.349  29.928   1.369
16471W        W88087  18.074  43.011   4.137
16472W        W88088   1.147  30.662  14.474
16473W        W88089  14.660  29.769  13.857
16474W        W88090   8.817  15.230   0.891
16475W        W88091   1.696   6.755   3.561
16476W        W88092  20.090  41.628  11.425
16477W        W88093  12.253  15.624   3.078
16478W        W88094   0.550  30.670   0.821
16479W        W88095  16.117  13.344  14.007
16480W        W88096   4.741  40.757  14.459
16481W        W88097  12.710  22.208   0.225
16482W        W88098  22.605  19.567   2.344
16483W        W88099  30.865  34.870  14.486
16484W        W88100  21.705  28.661   2.825
16485W        W88101  11.798  15.790   2.239
16486W        W88102  10.855  40.531   3.527
16487W        W88103  24.035  27.625   2.364
16488W        W88104  14.815   1.822  14.981
16489W        W88105  18.354   3.786  14.814
16490W        W88106  20.770  12.582  13.322
16491W        W88107  15.722  27.504  10.098
16492W        W88108  22.632  13.408   0.895
16493W        W88109  25.053   2.973  14.026
16494W        W88110   3.440  38.743  11.033
16495W        W88111  36.537  11.318  11.119
16496W        W88112   6.575  31.438  12.485
16497W        W88113  27.526  15.381   3.250
16498W        W88114  14.544  35.345  13.886
16499W        W88115  21.253  44.525   1.586
16500W        W88116  26.720  17.603   2.167
16501W        W88117  37.000  44.389   1.778
16502W        W88118  31.940  39.331  10.423
16503W        W88119   0.007  13.597   1.521
16504W        W88120  43.983  18.074  14.858
16505W        W88121  30.073  14.396  13.928
16506W        W88122  31.377  16.731  11.998
16507W        W88123   3.357  30.246  13.563
16508W        W88124  16.630   0.749  14.748
16509W        W88125  15.965  41.259   4.065
16510W        W88126  42.094  11.180   1.391
16511W        W88127  16.606  38.449   3.560
16512W        W88128  31.494  23.718  10.660
16513W        W88129  42.776  22.221   0.391
16514W        W88130  26.642  37.102  13.384
16515W        W88131  10.100  21.961  13.443
16516W        W88132  44.795  40.262  14.340
16517W        W88133  10.686  16.032  12.845
16518W        W88134   3.246   4.825   4.584
16519W        W88135  24.487  44.517   1.838
16520W        W88136  11.824   4.863  14.235
16521W        W88137  43.452  15.202  10.793
16522W        W88138   4.188  20.061  13.312
16523W        W88139   9.467  42.082  12.477
16524W        W88140  24.524   4.851   1.172
16525W        W88141  31.617  34.112   3.337
16526W        W88142  20.234  41.938   4.440
16527W        W88143  19.557  16.181   2.856
16528W        W88144   0.173  28.125  11.758
16529W        W88145  43.278   3.529  13.420
16530W        W88146  30.814  30.331  13.513
16531W        W88147  32.387  18.711  13.189
16532W        W88148   2.672  44.770   0.249
16533W        W88149  27.860  36.555   4.644
16534W        W88150  26.434  24.692   0.923
16535W        W88151   7.851   8.798  11.578
16536W        W88152  12.196  18.445   0.414
16537W        W88153  34.676  18.520  10.595
16538W        W88154  25.119   3.293   2.702
16539W        W88155  25.742   5.061   2.873
16540W        W88156  16.635   7.676  10.951
16541W        W88157  30.157   0.015   2.215
16542W        W88158  10.434  18.646  10.647
16543W        W88159  12.852  14.057  12.506
16544W        W88160  15.769   1.787   4.193
16545W        W88161   0.387  42.708  11.996
16546W        W88162  15.144   3.834  12.586
16547W        W88163  41.742  22.024   2.115
16548W        W88164  33.148  27.647   3.808
16549W        W88165  10.168  35.184  12.562
16550W        W88166  19.174  28.768  10.621
16551W        W88167  26.608  28.714  14.350
16552W        W88168  11.841   3.271   4.980
16553W        W88169  34.835   0.663   4.041
16554W        W88170  17.772   6.353  13.682
16555W        W88171  12.130  20.340  14.457
16556W        W88172  18.601  39.593   4.446
16557W        W88173  12.746   2.778   4.026
16558W        W88174  36.264  27.442   0.969
16559W        W88175   8.432  41.562   4.009
16560W        W88176  10.626  36.512  12.157
16561W        W88177  22.571   9.557  13.469
16562W        W88178  21.754  31.085   4.126
16563W        W88179  44.890  18.140   4.778
16564W        W88180  36.357  30.764   3.634
16565W        W88181  44.940  42.957  12.156
16566W        W88182  26.402  13.188   3.066
16567W        W88183  32.928   9.084  10.722
16568W        W88184  33.481  24.745  12.555
16569W        W88185  19.507  31.107   0.845
16570W        W88186  42.903   7.305   3.616
16571W        W88187  18.286   2.191   3.239
16572W        W88188   1.313  10.956  10.690
16573W        W88189  16.664  38.587  12.927
16574W        W88190  19.085   1.823  11.167
16575W        W88191  38.174  10.826  13.082
16576W        W88192  22.369  42.242   4.158
16577W        W88193   7.279  41.018  10.653
16578W        W88194  19.978  43.912   1.272
16579W        W88195  32.735  26.156   2.691
16580W        W88196   6.221  12.439  10.683
16581W        W88197   9.390  32.688   0.041
16582W        W88198  27.563  40.455  10.407
16583W        W88199  17.248  37.167   3.076
16584W        W88200   4.816  21.079   4.362
16585W        W88201  22.714  43.539  12.380
16586W        W88202   9.944   7.731  10.775
16587W        W88203  27.765  29.391  13.763
16588W        W88204  35.393  26.091  12.356
16589W        W88205  32.056  23.423   4.834
16590W        W88206  24.665  21.279   2.927
16591W        W88207  22.242   3.954  12.970
16592W        W88208  17.247  43.500  14.972
16593W        W88209   4.802  29.041   4.540
16594W        W88210  27.984  41.250   0.895
16595W        W88211   5.220  11.505   2.368
16596W        W88212  25.686  18.222   0.676
16597W        W88213   3.275   0.909  11.123
16598W        W88214  22.631  27.949   4.429
16599W        W88215  40.818   6.806  14.490
16600W        W88216  22.662  19.117   0.962
16601W        W88217  19.793   8.642  10.962
16602W        W88218  21.272  26.934  14.482
16603W        W88219  19.183  25.545   2.156
16604W        W88220  16.054  37.409  13.500
16605W        W88221  44.769  16.221  13.786
16606W        W88222  16.197  23.923   2.615
16607W        W88223  21.463   9.668  10.478
16608W        W88224   5.881  12.077  14.039
16609W        W88225  25.472  32.803   0.910
16610W        W88226  31.718  44.838  12.582
16611W        W88227   5.720  27.078  13.817
16612W        W88228   7.256  37.265   1.773
16613W        W88229  31.052  19.406   3.515
16614W        W88230  20.107  38.374  13.797
16615W        W88231   8.399  12.804  12.000
16616W        W88232  42.482  17.147   3.629
16617W        W88233  36.365  34.035  13.006
16618W        W88234  25.675  21.683  14.483
16619W        W88235  23.711  17.739  11.073
16620W        W88236   5.325  38.926  12.398
16621W        W88237  14.395  19.009  10.514
16622W        W88238  17.658   2.239   1.514
16623W        W88239  13.765  44.831  14.703
16624W        W88240   7.785  37.504   0.250
16625W        W88241  24.947  23.259   3.640
16626W        W88242  42.645  31.456  11.763
16627W        W88243  21.098  43.944  11.058
16628W        W88244  10.821  12.635  12.126
16629W        W88245  38.469   2.361   3.179
16630W        W88246  32.978  18.247  11.845
16631W        W88247   3.831  33.451  13.490
16632W        W88248  41.749  18.594   1.546
16633W        W88249   1.849  36.022   2.377
16634W        W88250  32.562  20.207  12.377
16635W        W88251  42.723   2.528  12.134
16636W        W88252  35.167   8.850   1.886
16637W        W88253  27.953  34.033  14.450
16638W        W88254  24.626  30.508  10.898
16639W        W88255  23.796  23.250  12.361
16640W        W88256  44.414  19.565   1.641
16641W        W88257  25.199  30.059   2.248
16642W        W88258  21.052   2.035  14.265
16643W        W88259  36.482   9.687  12.624
16644W        W88260   2.872  36.181   3.827
16645W        W88261  33.967  14.058   3.312
16646W        W88262   2.283   1.461   0.231
16647W        W88263  29.776  18.627   3.278
16648W        W88264  36.798  27.639   2.191
16649W        W88265  21.052  25.887  11.702
16650W        W88266  30.666  32.603  10.643
16651W        W88267  22.612  42.073   3.342
16652W        W88268  39.821   6.624   4.804
16653W        W88269  38.186  20.494   4.473
16654W        W88270  34.984  27.916   3.626
16655W        W88271  18.264  27.615   2.821
16656W        W88272  33.471  25.901  13.612
16657W        W88273  37.663  22.802   1.029
16658W        W88274  11.809  20.969  14.777
16659W        W88275  20.548  36.128  10.698
16660W        W88276  14.225  24.588   2.792
16661W        W88277  27.948  13.456   1.244
16662W        W88278   7.929   0.278  11.538
16663W        W88279  28.354  32.735  13.878
16664W        W88280  26.132  14.334  13.994
16665W        W88281  10.276  16.699   1.164
16666W        W88282  27.142  41.363   0.281
16667W        W88283  29.019  31.378   2.392
16668W        W88284  28.013  25.034  11.548
16669W        W88285  25.980  31.055  13.300
16670W        W88286   1.885  11.763   1.884
16671W        W88287  25.934  15.730   1.940
16672W        W88288  25.633  27.483  12.203
16673W        W88289  42.052  21.075  14.284
16674W        W88290  20.196  19.268  10.720
16675W        W88291  20.160   4.496   4.069
16676W        W88292  43.307  38.040   0.969
16677W        W88293  21.876   4.216  11.215
16678W        W88294   1.858  15.744  12.086
16679W        W88295   1.241   5.893  13.251
16680W        W88296   6.195  17.063   5.075
16681W        W88297   1.731   0.028  11.022
16682W        W88298   7.941  29.136   0.288
16683W        W88299  12.275  44.360  10.528
16684W        W88300  24.473  36.824   1.736
16685W        W88301   3.207  38.361   3.758
16686W        W88302  21.763   0.376  11.454
16687W        W88303   4.654  29.919  11.057
16688W        W88304  30.525  11.174  12.267
16689W        W88305   9.644   6.858  14.301
16690W        W88306  27.530   8.299  14.403
16691W        W88307   1.436  24.051  14.845
16692W        W88308   2.230  20.354   4.213
16693W        W88309   4.769  40.074   0.055
16694W        W88310  44.800   9.493  12.446
16695W        W88311  34.144  14.587  11.481
16696W        W88312  17.707  16.060   2.780
16697W        W88313  27.433  25.892   2.100
16698W        W88314  44.368   9.226  12.604
16699W        W88315  10.855  28.423  13.931
16700W        W88316  43.806  43.318  14.935
16701W        W88317  16.375   4.174  14.276
16702W        W88318  17.744  41.908  13.206
16703W        W88319   5.720  11.868  12.720
16704W        W88320  18.994  19.494   1.188
16705W        W88321  34.430   9.555   4.581
16706W        W88322  30.058  27.128   2.723
16707W        W88323  24.566  37.066   5.104
16708W        W88324  10.930  34.565  14.801
16709W        W88325  11.390   3.869  13.008
16710W        W88326  32.502  14.870   0.339
16711W        W88327  34.917  39.344   4.358
16712W        W88328  33.860  39.927   0.235
16713W        W88329  14.092   9.227  11.666
16714W        W88330   2.783  39.034   0.042
16715W        W88331  10.734  24.071   4.646
16716W        W88332  19.225  43.393   2.078
16717W        W88333  18.137   3.889  12.547
16718W        W88334  32.192  22.129  11.462
16719W        W88335   8.316  22.304  12.923
16720W        W88336  30.290   2.359   4.107
16721W        W88337  17.161  15.813  12.398
16722W        W88338  36.359  44.912   3.635
16723W        W88339  31.508  44.153  10.001
16724W        W88340  23.095  35.688  14.757
16725W        W88341   2.630  23.533  13.319
16726W        W88342  39.384  25.630   2.330
16727W        W88343   9.158  14.199   3.197
16728W        W88344  12.988   7.216   5.645
16729W        W88345  19.055  11.460  13.069
16730W        W88346   8.254  27.013   1.128
16731W        W88347  14.469   0.034  12.847
16732W        W88348   2.075  22.206   4.817
16733W        W88349  34.767  31.530  11.992
16734W        W88350  39.533   2.460  12.092
16735W        W88351  39.867  21.914   2.189
16736W        W88352  18.081  39.906   1.691
16737W        W88353  22.071  19.704  13.843
16738W        W88354  33.132  13.652  12.513
16739W        W88355  42.539   1.822  11.944
16740W        W88356  37.030  12.783  13.431
16741W        W88357  30.855  10.730   2.155
16742W        W88358  19.471   7.085   2.819
16743W        W88359  29.559   1.668   3.763
16744W        W88360   3.909  44.912   4.134
16745W        W88361  33.887  11.120   3.610
16746W        W88362  12.443  43.313  14.977
16747W        W88363   7.624  23.180  11.988
16748W        W88364  40.553   3.471  12.416
16749W        W88365   6.191   1.659   2.246
16750W        W88366  33.491  17.693  10.615
16751W        W88367  19.536  29.024   2.926
16752W        W88368  12.701   3.929   2.307
16753W        W88369  39.479  15.049  13.367
16754W        W88370   2.885  35.201  13.313
16755W        W88371  11.439  44.051   1.344
16756W        W88372  11.429  27.581   0.417
16757W        W88373  32.611  28.819   1.255
16758W        W88374  39.898   7.778   3.783
16759W        W88375  19.998   8.854  11.501
16760W        W88376  18.242   0.993  12.516
16761W        W88377   7.798  35.139   4.738
16762W        W88378  28.483  29.477  11.079
16763W        W88379  41.439  13.135  12.547
16764W        W88380   3.827  39.300   0.902
16765W        W88381  21.799   0.862  12.922
16766W        W88382   8.812  17.685   2.244
16767W        W88383  21.407  29.053  13.711
16768W        W88384  30.443  13.058   0.856
16769W        W88385  23.917  14.818   3.231
16770W        W88386  44.202   1.941  12.980
16771W        W88387  19.199  33.139  14.321
16772W        W88388  38.913  37.540   1.450
16773W        W88389  41.289  41.951   3.155
16774W        W88390  38.818  36.539   2.311
16775W        W88391  28.699  14.277   5.463
16776W        W88392  34.093  43.985  11.504
16777W        W88393  38.969  34.002   3.582
16778W        W88394   4.745   9.067  13.111
16779W        W88395   4.879   1.543  14.717
16780W        W88396  32.311  37.648  14.899
16781W        W88397  32.873  44.074   9.681
16782W        W88398  27.448   0.765   1.177
16783W        W88399  40.549  36.855  11.125
16784W        W88400  39.528  24.282  12.175
16785W        W88401  25.732  30.688   3.832
16786W        W88402  23.143  33.723   2.378
16787W        W88403  26.622  16.982   5.421
16788W        W88404  18.887  38.609   2.841
16789W        W88405  20.249  42.476  13.507
16790W        W88406   8.903   2.793   1.393
16791W        W88407  39.404  33.973  11.991
16792W        W88408  30.172  32.570   0.472
16793W        W88409  16.067  17.978   4.723
16794W        W88410  42.999  12.354   4.640
16795W        W88411   7.646  12.824  11.598
16796W        W88412  32.968  15.135  13.911
16797W        W88413  17.003  32.622   2.910
16798W        W88414  20.192  19.665   3.077
16799W        W88415  36.906  43.770  11.958
16800W        W88416  41.904  16.496  13.815
16801W        W88417  31.699  32.434  10.786
16802W        W88418  42.033  43.589   0.499
16803W        W88419  25.968  23.448   4.138
16804W        W88420   1.478  43.247   3.539
16805W        W88421  17.271  44.487  12.397
16806W        W88422  10.378   2.468  13.559
16807W        W88423   8.870  16.836  10.677
16808W        W88424  41.317  25.103  13.118
16809W        W88425  21.827  32.850   1.327
16810W        W88426  27.589  10.061  10.373
16811W        W88427  17.482  16.730  10.090
16812W        W88428  21.181  37.186   0.068
16813W        W88429   7.136   5.829   4.359
16814W        W88430  23.933  44.776  11.122
16815W        W88431  40.328  11.126  11.971
16816W        W88432  38.067  42.996   2.223
16817W        W88433  13.710  36.791   2.873
16818W        W88434  11.333   7.763   2.713
16819W        W88435  18.450  17.167  12.813
16820W        W88436  37.460  15.825  11.216
16821W        W88437  44.681  38.462   9.718
16822W        W88438  22.481   5.734  14.027
16823W        W88439  33.113  41.059  11.230
16824W        W88440  14.114   4.616   4.150
16825W        W88441  42.017  16.616   4.079
16826W        W88442   5.918  23.220  14.283
16827W        W88443  17.896  17.273  11.164
16828W        W88444   9.042   9.565  12.799
16829W        W88445   2.271  28.131   2.634
16830W        W88446  20.132  15.393  10.665
16831W        W88447  44.359   5.263  10.758
16832W        W88448  32.020  32.680  13.194
16833W        W88449   1.480  24.321   3.612
16834W        W88450  16.812  26.576  12.047
16835W        W88451  39.282  19.124  12.839
16836W        W88452  43.965  35.296  14.912
16837W        W88453   1.042  41.307  14.835
16838W        W88454   4.237  29.385   1.721
16839W        W88455  32.980   1.190  12.375
16840W        W88456  39.903   6.854   0.711
16841W        W88457  10.838  28.073   3.744
16842W        W88458  39.715  39.769   0.489
16843W        W88459   8.223  43.014  10.713
16844W        W88460  18.309  18.783   3.623
16845W        W88461  20.684  25.122   3.061
16846W        W88462   3.998  33.563   2.777
16847W        W88463  19.372  44.098  11.043
16848W        W88464  12.190  39.797  12.024
16849W        W88465  11.420   0.204  11.086
16850W        W88466   2.285  34.434  12.602
16851W        W88467  36.372  31.931  13.953
16852W        W88468  33.595   6.901  14.026
16853W        W88469  30.003  21.675  13.840
16854W        W88470  29.348   1.884   3.299
16855W        W88471   9.692  11.893   0.783
16856W        W88472  37.467  39.966  10.429
16857W        W88473  14.801  11.678   0.288
16858W        W88474  39.232  20.273   2.759
16859W        W88475  33.382   9.675  12.087
16860W        W88476   6.172  16.585  11.886
16861W        W88477  12.292   2.851   2.219
16862W        W88478   0.684  17.154  11.146
16863W        W88479  42.795   3.500   1.864
16864W        W88480  16.281  35.796   5.086
16865W        W88481  36.299  27.279   3.196
16866W        W88482  11.362  16.553   0.975
16867W        W88483   8.335  32.700   2.927
16868W        W88484   5.068   0.148  11.060
16869W        W88485   0.319  40.907  14.589
16870W        W88486  26.559  22.741   4.046
16871W        W88487   1.063  14.816  14.438
16872W        W88488  40.840  40.085   1.263
16873W        W88489   3.007  32.992  11.001
16874W        W88490  27.087  11.716  13.511
16875W        W88491  12.515  26.631  11.868
16876W        W88492  27.450  27.915   1.089
16877W        W88493  16.648   7.612   2.715
16878W        W88494  26.208  36.848  11.126
16879W        W88495  11.514  11.855  11.534
16880W        W88496  15.277   9.411   4.741
16881W        W88497   5.800  44.291  10.726
16882W        W88498  44.740   2.524  12.899
16883W        W88499  41.714   0.765   2.331
16884W        W88500  39.836  23.233   3.266
16885W        W88501  31.096   2.222  11.089
16886W        W88502   1.758  36.051  10.635
16887W        W88503   7.997   6.165  14.334
16888W        W88504  29.586  43.786   3.764
16889W        W88505  21.186  39.351   0.334
16890W        W88506  28.652   3.824  11.056
16891W        W88507   2.751  41.842   2.309
16892W        W88508  18.076  14.324  11.974
16893W        W88509  23.769   3.106   1.858
16894W        W88510  15.788  18.620   4.115
16895W        W88511  11.348   1.271   0.969
16896W        W88512  17.290  36.861  13.606
16897W        W88513  29.117  30.081  10.167
16898W        W88514  32.404   8.859  12.245
16899W        W88515  44.880  11.370  12.957
16900W        W88516   3.756  35.021  11.610
16901W        W88517  28.921  13.592   2.809
16902W        W88518   9.732  25.206   1.231
16903W        W88519   5.629  12.236  12.337
16904W        W88520  17.689  13.663   0.720
16905W        W88521  25.954  13.329  14.472
16906W        W88522   2.545  22.544  10.054
16907W        W88523  19.487   3.634   0.784
16908W        W88524  29.560  33.250  11.062
16909W        W88525   0.889   6.967   4.315
16910W        W88526  17.652  41.858   2.292
16911W        W88527  23.818  28.375   4.026
16912W        W88528   1.210  44.836  13.315
16913W        W88529   1.724  12.367   2.533
16914W        W88530   2.973   7.872   4.190
16915W        W88531  17.192   3.623   0.962
16916W        W88532   4.749  28.394  13.109
16917W        W88533  27.789  16.485   0.854
16918W        W88534  29.256  21.261   0.844
16919W        W88535  43.661  30.669   5.094
16920W        W88536  16.110  12.755   0.899
16921W        W88537  29.932  21.238   2.784
16922W        W88538  12.056  15.915   2.695
16923W        W88539  30.043  21.146   4.617
16924W        W88540  13.244  39.318  13.245
16925W        W88541  15.560   9.798   0.278
16926W        W88542  32.592  18.261  13.339
16927W        W88543  37.026   3.884   4.668
16928W        W88544  15.568  42.375   4.506
16929W        W88545  28.824  37.007   2.867
16930W        W88546  33.541   6.777   3.573
16931W        W88547  39.011   8.746   1.413
16932W        W88548   4.777  35.181  11.587
16933W        W88549   9.777  29.904   1.888
16934W        W88550  22.269  34.983  13.557
16935W        W88551  24.312  36.043  14.002
16936W        W88552  18.742  10.327  13.282
16937W        W88553   2.470  25.853  11.541
16938W        W88554  39.561  42.266   2.826
16939W        W88555  23.651   2.670  14.815
16940W        W88556  12.301   1.358  11.974
16941W        W88557  16.982  24.033   2.494
16942W        W88558  38.113  21.703   3.399
16943W        W88559  39.080  17.227  13.276
16944W        W88560   6.343  19.773  10.736
16945W        W88561  16.858   9.864  14.294
16946W        W88562  42.918  35.508   2.875
16947W        W88563  29.595  42.785   3.698
16948W        W88564  30.223  17.144   4.926
16949W        W88565   8.223  14.048  14.498
16950W        W88566  30.464  40.966  14.004
16951W        W88567  22.588  38.923  11.450
16952W        W88568   4.812   6.288  13.861
16953W        W88569  27.546  10.858   0.204
16954W        W88570  14.698  37.029  13.366
16955W        W88571  25.889  23.151  14.966
16956W        W88572  18.696  12.638   4.625
16957W        W88573  31.398   2.864   3.646
16958W        W88574  28.003  22.013   4.276
16959W        W88575  14.755  17.815  11.596
16960W        W88576  20.241  20.293  13.447
16961W        W88577  15.175  27.929   4.143
16962W        W88578  22.216   7.862  14.299
16963W        W88579  11.366   3.705  12.167
16964W        W88580  22.743  37.830   3.740
16965W        W88581  11.200  42.952   0.683
16966W        W88582   5.735   2.353  12.914
16967W        W88583  15.189   4.271  12.857
16968W        W88584  19.343  23.590   1.026
16969W        W88585  18.124   3.334  13.799
16970W        W88586   9.901  30.431  12.183
16971W        W88587   1.951  22.303  11.630
16972W        W88588  35.585  14.813   2.937
16973W        W88589  40.102  15.293   0.924
16974W        W88590  19.278  21.230   1.446
16975W        W88591  12.236  13.089  13.805
16976W        W88592  16.304  40.262   1.825
16977W        W88593  22.692  26.758   1.622
16978W        W88594  19.157  14.304   5.114
16979W        W88595  28.459  32.224  13.826
16980W        W88596  10.074   4.322   1.841
16981W        W88597   7.586  24.175  12.827
16982W        W88598  42.535  21.204   1.247
16983W        W88599  16.339  33.924  14.013
16984W        W88600  37.167   9.656  11.233
16985W        W88601  13.254  39.347  14.280
16986W        W88602   2.479   5.455  13.509
16987W        W88603  15.132  21.515  13.856
16988W        W88604  36.401   8.138  10.599
16989W        W88605   7.345  30.555  10.900
16990W        W88606  40.433  24.837  11.653
16991W        W88607  21.017  32.043   4.718
16992W        W88608  35.586  40.294   2.281
16993W        W88609  29.769  38.859   5.049
16994W        W88610  37.312  18.021   3.740
16995W        W88611   3.805  41.910   2.277
16996W        W88612  20.682  34.871   4.535
16997W        W88613  30.248  28.517   1.434
16998W        W88614   3.994  10.660  14.016
16999W        W88615  25.076  25.723  14.941
17000W        W88616   7.883  16.092   0.170
17001W        W88617  30.040  13.708  10.656
17002W        W88618  12.602  38.897  14.817
17003W        W88619  40.074  20.643   0.229
17004W        W88620  13.364  17.697  14.832
17005W        W88621  44.952  23.429   2.279
17006W        W88622  35.817   7.467  13.351
17007W        W88623  38.928   0.979   0.307
17008W        W88624  19.026  44.908   0.972
17009W        W88625  28.910  27.448   3.813
17010W        W88626  28.466   4.464   3.290
17011W        W88627  11.751  23.685   0.413
17012W        W88628  15.858  36.082  14.459
17013W        W88629  41.894  25.049  14.282
17014W        W88630  25.574  30.570   1.284
17015W        W88631  34.941   8.845  13.452
17016W        W88632  31.627   3.809  10.638
17017W        W88633  26.211  16.190   4.605
17018W        W88634  35.916  14.502   4.044
17019W        W88635  24.437  20.963  14.467
17020W        W88636  28.407  25.245   0.878
17021W        W88637  30.434  43.740   1.269
17022W        W88638   3.022  15.075   3.705
17023W        W88639  18.010  14.810  11.475
17024W        W88640  32.846  31.526   0.248
17025W        W88641  20.585  26.354   4.588
17026W        W88642  25.773  21.114   4.559
17027W        W88643   6.733  42.349  14.414
17028W        W88644  24.496  35.843  13.551
17029W        W88645  34.395  42.485  12.468
17030W        W88646  22.551   0.218   4.599
17031W        W88647  39.238   9.809   2.694
17032W        W88648  33.454  31.003  11.145
17033W        W88649  26.088  31.946  10.994
17034W        W88650   1.650  26.818   4.952
17035W        W88651   7.339   4.865   3.736
17036W        W88652   0.013  24.755   3.177
17037W        W88653  28.247   1.791  10.765
17038W        W88654  44.787  12.140  12.359
17039W        W88655  19.169  35.865   4.400
17040W        W88656  34.887  12.360  13.203
17041W        W88657   5.492  36.477  12.052
17042W        W88658  11.066  19.761  14.287
17043W        W88659  27.257   2.576   2.667
17044W        W88660  23.263  32.307   0.484
17045W        W88661  31.395  13.336  11.132
17046W        W88662  43.199   7.259  12.839
17047W        W88663   4.230  28.177  10.405
17048W        W88664  28.983  11.320  13.795
17049W        W88665   7.342  13.883  11.392
17050W        W88666  16.310  10.379   2.894
17051W        W88667   7.434  25.551   4.111
17052W        W88668   8.018   4.335   3.880
17053W        W88669  39.258  29.457   2.658
17054W        W88670   1.419  13.155  11.641
17055W        W88671  18.463  26.165  14.987
17056W        W88672  17.739   9.214   2.656
17057W        W88673   5.192  39.818   4.173
17058W        W88674  16.302  16.765  12.975
17059W        W88675  44.419  19.327   0.221
17060W        W88676  17.215  20.974   1.617
17061W        W88677   8.606  10.624   2.711
17062W        W88678  19.346  39.322  13.749
17063W        W88679  39.884  26.908  14.424
17064W        W88680   5.643   1.456  13.818
17065W        W88681  22.299  30.549  11.240
17066W        W88682   8.764  25.790   3.670
17067W        W88683  41.103  10.181   0.749
17068W        W88684  27.586   7.733   0.697
17069W        W88685  38.021  18.030  12.534
17070W        W88686   8.905  30.591  13.079
17071W        W88687  37.447  25.705  14.407
17072W        W88688  34.990  22.994  14.393
17073W        W88689  30.611  11.774   3.767
17074W        W88690  16.808  17.158   1.496
17075W        W88691   3.950  17.955  11.048
17076W        W88692  35.548  25.242  11.497
17077W        W88693  10.618  37.999   3.933
17078W        W88694  41.572  31.246   1.782
17079W        W88695  23.106  11.253   1.273
17080W        W88696   0.675   1.709   0.385
17081W        W88697  27.892  33.541  12.844
17082W        W88698   1.988  32.002  13.430
17083W        W88699  22.903   4.302   0.864
17084W        W88700  15.733   5.180   3.660
17085W        W88701  29.113  15.920  12.948
17086W        W88702  23.259  10.852   1.896
17087W        W88703  12.489  23.220  10.604
17088W        W88704  28.556  11.383   4.037
17089W        W88705   9.310  34.095  14.724
17090W        W88706  17.636  22.291   2.334
17091W        W88707  42.953  31.697   0.874
17092W        W88708  37.093  34.871  13.381
17093W        W88709  19.003   7.233  10.546
17094W        W88710   5.123  39.879  13.781
17095W        W88711  12.141   3.726  12.482
17096W        W88712  15.970   0.084  11.022
17097W        W88713   5.982   6.601  11.705
17098W        W88714  20.279   4.784  14.138
17099W        W88715  18.167  33.843  14.475
17100W        W88716  25.728  40.425  11.071
17101W        W88717   5.923   6.095   4.143
17102W        W88718  40.274  21.688   3.766
17103W        W88719  23.962  11.584   0.861
17104W        W88720  38.381  41.301  14.529
17105W        W88721  38.916  29.645  13.190
17106W        W88722  35.815   9.860   4.558
17107W        W88723  10.640  11.142  12.962
17108W        W88724   3.937  15.814  11.815
17109W        W88725  31.654  10.193   2.273
17110W        W88726  20.170  16.889  10.750
17111W        W88727  43.870  17.332   2.998
17112W        W88728   3.193  25.906  12.393
17113W        W88729  12.381   0.400   2.962
17114W        W88730  37.045  12.280  12.555
17115W        W88731  39.895  26.719   1.470
17116W        W88732  41.845  35.073  10.137
17117W        W88733  15.154   8.944   2.355
17118W        W88734   9.282   8.647   3.179
17119W        W88735  20.075   0.388  12.098
17120W        W88736  17.259  15.168  14.300
17121W        W88737  25.163  15.146  12.307
17122W        W88738  22.117  24.139  12.112
17123W        W88739  30.530   7.719   0.797
17124W        W88740  41.438   1.714  13.913
17125W        W88741  33.066  42.000   0.691
17126W        W88742  26.364  43.924   2.534
17127W        W88743  30.163   3.907  13.426
17128W        W88744  20.765  41.058   2.863
17129W        W88745  31.438  32.108  11.999
17130W        W88746  36.964  10.216   4.899
17131W        W88747  16.415  30.122  13.840
17132W        W88748   5.189  24.003   0.202
17133W        W88749  43.751  27.626  12.601
17134W        W88750  28.976  13.309   1.319
17135W        W88751  36.954  21.353  12.247
17136W        W88752   3.169  29.976  11.532
17137W        W88753  17.258  20.529   2.959
17138W        W88754   1.317  22.273   4.120
17139W        W88755  42.896   9.363   4.586
17140W        W88756   7.830  21.723  13.364
17141W        W88757  34.565  12.859   0.290
17142W        W88758  30.278  31.607   0.466
17143W        W88759  19.954  23.695  11.910
17144W        W88760  44.353  22.412   1.817
17145W        W88761  15.264  16.240   0.512
17146W        W88762  12.614  13.205  11.928
17147W        W88763   8.091  19.934  13.408
17148W        W88764  35.507  12.871  12.021
17149W        W88765  25.676  26.524  11.968
17150W        W88766  24.709  30.489   3.743
17151W        W88767  24.061  23.617  12.100
17152W        W88768  43.724  18.695  11.218
17153W        W88769   2.311  23.716   0.907
17154W        W88770  11.041  16.214  11.075
17155W        W88771  18.363  27.638   1.818
17156W        W88772  15.119   0.539   2.359
17157W        W88773  42.052  33.337  10.214
17158W        W88774  39.242   0.802   2.751
17159W        W88775  11.726  20.756   1.806
17160W        W88776  24.149  40.444   1.882
17161W        W88777  17.085  19.016   3.229
17162W        W88778  13.724  24.398   4.102
17163W        W88779  35.633  22.601   3.339
17164W        W88780   1.226  16.908   4.445
17165W        W88781  33.089  17.620  14.870
17166W        W88782   3.477  41.774   4.113
17167W        W88783  16.029  15.154   1.286
17168W        W88784  33.496   9.852   2.208
17169W        W88785  10.689  34.522  13.019
17170W        W88786  36.523  34.074   1.758
17171W        W88787  24.716  31.644   4.070
17172W        W88788  38.380  41.437   0.455
17173W        W88789  14.217   7.856  12.967
17174W        W88790   3.422  26.351  11.570
17175W        W88791  36.969  17.306   0.930
17176W        W88792  18.336  35.855  13.550
17177W        W88793  27.030  17.099   3.764
17178W        W88794  41.049  42.555   4.267
17179W        W88795  27.885  32.426  12.941
17180W        W88796  24.797  24.782  12.019
17181W        W88797  10.674  30.012  12.404
17182W        W88798  26.469  16.119  14.375
17183W        W88799  42.844   2.153   4.977
17184W        W88800  27.020  42.820  13.891
17185W        W88801  12.219  16.223  10.690
17186W        W88802  28.152  30.446  12.122
17187W        W88803  13.247   3.483  14.202
17188W        W88804  36.206  35.386  11.061
17189W        W88805  11.199  22.079   1.259
17190W        W88806   6.169   6.724  14.410
17191W        W88807   1.751   9.503  13.472
17192W        W88808  24.494   0.808   2.586
17193W        W88809  30.620  34.954  11.178
17194W        W88810  23.497  36.097  13.431
17195W        W88811   3.828   9.868   0.789
17196W        W88812  44.852  28.940   3.032
17197W        W88813   7.255   2.634   1.919
17198W        W88814  32.992  37.526   0.450
17199W        W88815  23.939   6.260   3.157
17200W        W88816   1.861  35.662  13.806
17201W        W88817   2.289   5.194  12.161
17202W        W88818  36.919  33.453  11.571
17203W        W88819  19.798   0.222  14.465
17204W        W88820   1.849   2.927  11.400
17205W        W88821  34.623   6.839  13.637
17206W        W88822  44.435   5.426  14.588
17207W        W88823  43.410  42.902   3.345
17208W        W88824   8.230  37.472  12.932
17209W        W88825  29.221  19.046   0.125
17210W        W88826  29.668  15.874   3.831
17211W        W88827  42.492  33.661   0.361
17212W        W88828  17.289  31.933   1.459
17213W        W88829  42.936  43.731   1.266
17214W        W88830   1.923  43.529   0.329
17215W        W88831  25.108  10.010   2.715
17216W        W88832  34.001  25.669  13.472
17217W        W88833   8.153   3.472   1.063
17218W        W88834  12.568   3.943  14.818
17219W        W88835  28.173  15.015  13.123
17220W        W88836   0.007   8.905   1.856
17221W        W88837  31.759  27.208   3.547
17222W        W88838  37.644   8.337   0.833
17223W        W88839  39.893  10.896   2.419
17224W        W88840   8.836  26.234   2.715
17225W        W88841  10.654  27.042   1.000
17226W        W88842  12.547   7.198   1.331
17227W        W88843  37.049  33.447   2.088
17228W        W88844  25.978   0.312  14.400
17229W        W88845  33.629  34.922   2.252
17230W        W88846   2.573   7.280  13.497
17231W        W88847   6.954  30.731   3.120
17232W        W88848  29.597  14.333   4.611
17233W        W88849   4.650  17.343  13.183
17234W        W88850  30.418  41.448  11.129
17235W        W88851  44.256  36.626   3.006
17236W        W88852  35.117   7.756  14.442
17237W        W88853  35.342   4.890  14.330
17238W        W88854  35.482   6.335  12.649
17239W        W88855  41.459  24.505  11.120
17240W        W88856  43.036  12.115  12.067
17241W        W88857  30.945  33.956  13.438
17242W        W88858  16.323  28.893   2.364
17243W        W88859  11.344   8.720  13.929
17244W        W88860   3.818  38.524   1.468
17245W        W88861   1.481  12.112   3.760
17246W        W88862  40.692  25.352   5.012
17247W        W88863  28.915  14.365   3.168
17248W        W88864  36.874  43.041   3.245
17249W        W88865  40.626  22.589  11.487
17250W        W88866  29.542   5.196  13.890
17251W        W88867   9.130  21.598   4.599
17252W        W88868  16.203   8.002   4.663
17253W        W88869  34.948  25.515   0.145
17254W        W88870  28.171  19.503   0.014
17255W        W88871   5.145  33.987  14.963
17256W        W88872  13.567  36.703  11.139
17257W        W88873  26.638  15.857   0.626
17258W        W88874  30.105  42.963  12.031
17259W        W88875  43.798  12.781  14.828
17260W        W88876   3.656  13.221  13.656
17261W        W88877  35.407  16.771   0.280
17262W        W88878  25.442  38.167   0.400
17263W        W88879   4.845  28.180   3.591
17264W        W88880  20.272  23.239  12.605
17265W        W88881   8.325  35.851  11.103
17266W        W88882  39.348   6.236  11.104
17267W        W88883   8.339   4.293  12.360
17268W        W88884   4.163  28.910  13.963
17269W        W88885   0.273  19.523   1.321
17270W        W88886   6.994  31.922   0.011
17271W        W88887  22.641   2.207   2.866
17272W        W88888  30.981   1.424   2.779
17273W        W88889  34.118  30.166  11.825
17274W        W88890  44.793  10.249   0.148
17275W        W88891  31.744  42.409   3.091
17276W        W88892  22.551  16.085  14.437
17277W        W88893  21.588   8.121   3.182
17278W        W88894   1.133   7.937   0.298
17279W        W88895   0.773  15.259  14.302
17280W        W88896  21.730   4.283  12.430
17281W        W88897  39.080  43.130   3.933
17282W        W88898  15.250  40.064   1.413
17283W        W88899  37.661  34.698   4.557
17284W        W88900  37.406  28.854   3.850
17285W        W88901  19.102  15.817  14.860
17286W        W88902  21.619   9.427  13.096
17287W        W88903  25.222   1.475  14.081
17288W        W88904  41.400  27.050   2.659
17289W        W88905   8.861  18.959  11.717
17290W        W88906  35.006  36.249   0.898
17291W        W88907  40.025  30.017   2.786
17292W        W88908   3.617  39.706   3.685
17293W        W88909   1.931  26.697  14.215
17294W        W88910   5.163  42.507   1.389
17295W        W88911   0.360  37.693   5.491
17296W        W88912   3.516  16.136   1.919
17297W        W88913  25.720   4.791  10.385
17298W        W88914   4.378   5.080  14.627
17299W        W88915  38.060  17.855   0.289
17300W        W88916   2.242   5.917  13.533
17301W        W88917  19.944  15.619   2.176
17302W        W88918  20.148  14.845  10.622
17303W        W88919  42.373  23.640  13.419
17304W        W88920  37.867  13.312  11.463
17305W        W88921  22.948   9.281   0.991
17306W        W88922  37.536  22.142   3.258
17307W        W88923   6.420  38.291  14.045
17308W        W88924  34.076  31.499   1.921
17309W        W88925  12.877  38.507   0.029
17310W        W88926   2.162  35.082   2.267
17311W        W88927  29.953  25.774  13.081
17312W        W88928  28.687  35.377  13.050
17313W        W88929   9.490  30.534  11.861
17314W        W88930  32.177  35.937  11.664
17315W        W88931  17.094  21.513   1.659
17316W        W88932  21.130  39.861   1.553
17317W        W88933  17.332  31.134  13.989
17318W        W88934  24.907   1.804   3.387
17319W        W88935  14.855  34.804  12.667
17320W        W88936  17.094  43.876  13.695
17321W        W88937  35.461  33.277   4.063
17322W        W88938   0.437  14.272  14.853
17323W        W88939  34.415  41.901   2.245
17324W        W88940  30.835  27.578  13.317
17325W        W88941  18.586  22.718   2.845
17326W        W88942  17.682   3.329   4.037
17327W        W88943  31.126  19.668  10.604
17328W        W88944  13.709  36.764  14.123
17329W        W88945   8.443  15.282   3.756
17330W        W88946   4.990  28.623   1.868
17331W        W88947   3.254  44.347  10.437
17332W        W88948  31.831   5.319  13.931
17333W        W88949  11.102   9.749  10.958
17334W        W88950  26.958  24.430   3.849
17335W        W88951   4.692  40.607   4.670
17336W        W88952  42.055  34.948   4.151
17337W        W88953  20.981  32.263  14.024
17338W        W88954   5.843  14.619  12.422
17339W        W88955  17.106  14.337  10.702
17340W        W88956  11.731  25.059  14.973
17341W        W88957  27.102  26.202  11.066
17342W        W88958  40.570  23.594  10.706
17343W        W88959  14.376   7.318  13.417
17344W        W88960   5.898   9.679   0.338
17345W        W88961   1.766  23.141   1.347
17346W        W88962   3.056   3.390   0.152
17347W        W88963  44.786   4.664  12.359
17348W        W88964  17.866  41.422  12.510
17349W        W88965   9.227  29.085  12.996
17350W        W88966  37.839  39.134  12.579
17351W        W88967  14.922   0.758  14.473
17352W        W88968   0.795   8.235   1.487
17353W        W88969   4.422   1.198  11.390
17354W        W88970   9.820  29.274  11.622
17355W        W88971  12.515  29.090  10.719
17356W        W88972  23.766  44.520  13.816
17357W        W88973  24.692  29.236   1.004
17358W        W88974  39.323  27.845  11.125
17359W        W88975  13.366  35.560   4.103
17360W        W88976  18.382  11.734  10.973
17361W        W88977  37.748   4.776   1.387
17362W        W88978   8.646   8.625  13.987
17363W        W88979   6.205  40.814  11.465
17364W        W88980   9.357  44.011   0.019
17365W        W88981  30.997  37.050  13.009
17366W        W88982   0.300  43.051   2.683
17367W        W88983   1.627  19.742   4.718
17368W        W88984  16.597  37.477   0.352
17369W        W88985   0.991  38.081   3.940
17370W        W88986  27.981  42.917  12.032
17371W        W88987  40.025  43.487  13.798
17372W        W88988  43.427   6.912   2.322
17373W        W88989   7.924   9.027   0.177
17374W        W88990  37.528  42.512   5.170
17375W        W88991  17.089  42.433  11.342
17376W        W88992  10.904  17.149   0.615
17377W        W88993  11.645  13.437   0.542
17378W        W88994  43.903  42.722  12.546
17379W        W88995  38.559  35.939  13.755
17380W        W88996  32.136  39.057   2.756
17381W        W88997  13.022  22.706   1.074
17382W        W88998  15.515  40.666   5.243
17383W        W88999  17.017  30.922   4.140
17384W        W89000  30.232   9.145  10.751
17385W        W89001  34.163  19.621   4.564
17386W        W89002  44.484   8.377   3.704
17387W        W89003  28.503  23.155  14.961
17388W        W89004  16.674  21.753   0.462
17389W        W89005  14.611  27.501   0.897
17390W        W89006  43.737  42.722  11.691
17391W        W89007  14.261  31.063   0.978
17392W        W89008  24.790  33.941   2.382
17393W        W89009  44.890   4.918  11.036
17394W        W89010  17.795  43.441   0.799
17395W        W89011  23.990   0.284  13.631
17396W        W89012  23.812  27.579  12.285
17397W        W89013  41.208  37.552  11.482
17398W        W89014  37.456  15.052   0.996
17399W        W89015  30.260  18.520  12.129
17400W        W89016  11.647   7.212   2.574
17401W        W89017  16.399   3.729  14.020
17402W        W89018  15.735  32.596   3.437
17403W        W89019  38.312  24.584  12.931
17404W        W89020  14.883   9.133   2.774
17405W        W89021   1.753  13.281   1.916
17406W        W89022  28.055  12.236  12.853
17407W        W89023  38.254  10.147  11.676
17408W        W89024  40.546  22.790  13.875
17409W        W89025  43.941  18.060  11.988
17410W        W89026   2.312  42.230   3.774
17411W        W89027  44.290  38.993  13.881
17412W        W89028   0.980  19.545   1.826
17413W        W89029  29.595  33.055   4.037
17414W        W89030  35.513  42.680   1.940
17415W        W89031   7.750  23.501   0.684
17416W        W89032  33.478  34.816  14.384
17417W        W89033   5.450   9.379   2.431
17418W        W89034  21.796  28.711  12.432
17419W        W89035   6.936  33.798  14.239
17420W        W89036  35.291  36.574  12.015
17421W        W89037   2.315   9.218   0.760
17422W        W89038  34.631   5.922   4.610
17423W        W89039  18.832  17.933  14.467
17424W        W89040  41.755   6.642   1.398
17425W        W89041  24.242   0.461  10.707
17426W        W89042  41.451  23.719   3.128
17427W        W89043  32.008  31.668  10.664
17428W        W89044  25.567   8.423   5.005
17429W        W89045  22.864   8.118  13.131
17430W        W89046  23.052  32.679   2.565
17431W        W89047  21.299  43.069  14.442
17432W        W89048  18.237  16.119   2.332
17433W        W89049   2.817  13.415  14.065
17434W        W89050  25.369   9.220   3.103
17435W        W89051  38.427   3.851   4.890
17436W        W89052  32.360  40.122  12.463
17437W        W89053  20.647  24.952   4.257
17438W        W89054   3.356  20.741  14.698
17439W        W89055  26.890   7.138  11.128
17440W        W89056  31.623  14.562   3.683
17441W        W89057  30.642   3.344  13.945
17442W        W89058  22.564  25.931  12.382
17443W        W89059   0.395  44.690  11.145
17444W        W89060  22.106  44.166  14.527
17445W        W89061  26.494  40.588  13.331
17446W        W89062  39.041  20.717  13.917
17447W        W89063  20.886   8.144   0.558
17448W        W89064  20.663   8.446   1.329
17449W        W89065  38.473  24.543   3.379
17450W        W89066  42.031  39.919   1.978
17451W        W89067  31.624  20.609   1.478
17452W        W89068  26.754  30.604   2.858
17453W        W89069  11.315   0.666  11.916
17454W        W89070  16.078  15.294   9.776
17455W        W89071  33.043  23.098   2.178
17456W        W89072   0.890  31.472   2.675
17457W        W89073  40.401  35.802   2.869
17458W        W89074  30.700  15.579   0.878
17459W        W89075  33.458  36.522  13.526
17460W        W89076  12.747  20.746  12.039
17461W        W89077  21.090  23.004   3.957
17462W        W89078  33.342  37.572   1.447
17463W        W89079  27.877  28.685  12.406
17464W        W89080  31.162   5.216   2.904
17465W        W89081  38.453   8.634   0.051
17466W        W89082   8.816  40.515  12.406
17467W        W89083  12.109  13.291   3.620
17468W        W89084  16.510  16.651   5.076
17469W        W89085  11.328  32.060   4.106
17470W        W89086  36.766  41.500   3.600
17471W        W89087   5.995  30.618   1.271
17472W        W89088  21.495  31.913  10.381
17473W        W89089   2.228  13.322  14.547
17474W        W89090  15.061  14.765   2.822
17475W        W89091  17.285  19.135   4.965
17476W        W89092  25.926  30.219  12.973
17477W        W89093  18.282   6.427   4.561
17478W        W89094   0.986  25.639   4.265
17479W        W89095   1.863  32.006   0.796
17480W        W89096   6.229   3.194   3.411
17481W        W89097  32.094  30.469   2.824
17482W        W89098  15.304   1.958  14.053
17483W        W89099  36.476  20.503  13.927
17484W        W89100  16.609  38.526  12.046
17485W        W89101   9.458   3.732  12.000
17486W        W89102   4.352  20.208   0.568
17487W        W89103  20.441  22.213   4.086
17488W        W89104  41.489  25.729  13.621
17489W        W89105  24.908  13.454   3.825
17490W        W89106  10.832  38.585  12.549
17491W        W89107  44.089  14.282  11.428
17492W        W89108  24.521  44.759  12.695
17493W        W89109  10.776  32.149  13.826
17494W        W89110  27.432   7.681   2.589
17495W        W89111  27.892  28.141   2.961
17496W        W89112  34.406  14.170   3.085
17497W        W89113  12.131   1.779  14.992
17498W        W89114  44.358   6.201   1.748
17499W        W89115  32.941  28.951   9.891
17500W        W89116  22.438  30.502  12.920
17501W        W89117  41.803  14.332  14.052
17502W        W89118  21.743  31.502   3.299
17503W        W89119  28.513   8.649   3.164
17504W        W89120  29.878  23.853   1.011
17505W        W89121  30.522  13.138  11.102
17506W        W89122  26.180  41.142  10.842
17507W        W89123   8.900  18.974   4.069
17508W        W89124  44.762  42.783   3.141
17509W        W89125  44.470  40.437   3.304
17510W        W89126  36.815   5.051  14.825
17511W        W89127   0.106  42.987   0.847
17512W        W89128  28.056  13.184   3.564
17513W        W89129  14.028  42.779  13.542
17514W        W89130  18.696  36.455   4.413
17515W        W89131   9.386  19.147   3.069
17516W        W89132  14.456  30.101  11.027
17517W        W89133   1.034   0.083  13.730
17518W        W89134  17.350  26.088  12.563
17519W        W89135  34.102  39.205   3.759
17520W        W89136   4.844   7.365   3.300
17521W        W89137  42.344   8.076   1.409
17522W        W89138  29.934  32.233   1.895
17523W        W89139  10.620  29.042   0.777
17524W        W89140  29.699  33.232   2.728
17525W        W89141  42.521  11.616   4.173
17526W        W89142  20.054  12.949  14.859
17527W        W89143  15.581   8.425  11.557
17528W        W89144  26.191   1.541  13.850
17529W        W89145  19.737  13.320   0.543
17530W        W89146  24.924   6.247   3.293
17531W        W89147  13.463  22.686  14.252
17532W        W89148  34.192   3.290  11.155
17533W        W89149  28.511  33.866  12.815
17534W        W89150   1.316  42.980  11.802
17535W        W89151   6.806  29.447   2.842
17536W        W89152   3.376   8.675   5.178
17537W        W89153  14.338  25.541  14.592
17538W        W89154  39.870  28.212   4.760
17539W        W89155  34.203   2.958  12.126
17540W        W89156  10.451  11.285   3.622
17541W        W89157  33.969  11.229  12.624
17542W        W89158  23.772   4.998  11.140
17543W        W89159  15.617  26.718   1.474
17544W        W89160   0.330  33.605   1.908
17545W        W89161  20.014  20.543  11.399
17546W        W89162  10.208  36.099  12.954
17547W        W89163  36.105  44.357   2.782
17548W        W89164   3.657  37.870   1.696
17549W        W89165  30.652  34.883  12.061
17550W        W89166  15.009  12.584   4.062
17551W        W89167  36.667  24.532   4.462
17552W        W89168  26.173  35.913  13.847
17553W        W89169  18.663  12.492   5.121
17554W        W89170  17.039  31.603   4.512
17555W        W89171  33.807  10.092  13.866
17556W        W89172   1.315  16.109  14.328
17557W        W89173  40.486  20.972  11.945
17558W        W89174  13.870  43.817  12.562
17559W        W89175  25.989   3.832  12.477
17560W        W89176  14.303  29.579  13.490
17561W        W89177  21.606   5.834   2.384
17562W        W89178  21.507  35.933   0.421
17563W        W89179   3.877   4.985   1.436
17564W        W89180  20.158   8.776   3.769
17565W        W89181   7.601  16.216  13.823
17566W        W89182  18.731   1.229  10.699
17567W        W89183  21.474  22.245   4.860
17568W        W89184   3.868   1.362  14.544
17569W        W89185  21.778  13.312   1.699
17570W        W89186  19.934  20.507   1.486
17571W        W89187  13.189  25.008  11.542
17572W        W89188  42.884  35.086  11.967
17573W        W89189   5.733  34.113   1.203
17574W        W89190   6.239  29.460  11.991
17575W        W89191  16.404  32.031   2.120
17576W        W89192  43.484   1.855   2.934
17577W        W89193  10.961  25.159   3.363
17578W        W89194   2.827  22.178   1.225
17579W        W89195  32.502  19.314  10.657
17580W        W89196  23.846  18.625  13.989
17581W        W89197  17.683  37.820   4.829
17582W        W89198  33.714  35.915   0.268
17583W        W89199   2.780  25.920  11.105
17584W        W89200  30.881  33.326  11.038
17585W        W89201  12.783   9.276  10.803
17586W        W89202   9.346   5.850  10.661
17587W        W89203   1.514  22.785   2.707
17588W        W89204   6.372   5.438   1.171
17589W        W89205  40.024  29.635   0.288
17590W        W89206  35.329  22.302  13.810
17591W        W89207  27.556  36.887  13.731
17592W        W89208  23.692  34.038   0.240
17593W        W89209  34.089  35.563  13.094
17594W        W89210  44.423  40.301   1.660
17595W        W89211   4.662   4.313   3.246
17596W        W89212  40.131  26.220   2.405
17597W        W89213   7.879   8.754   1.172
17598W        W89214   7.751  38.145  10.895
17599W        W89215   9.230  37.928   2.251
17600W        W89216  43.274  37.193   4.621
17601W        W89217   6.610  44.876   3.712
17602W        W89218   6.877   8.984  13.922
17603W        W89219  35.909  18.466  12.022
17604W        W89220  11.834  10.238  13.032
17605W        W89221  23.173  19.191   1.125
17606W        W89222  32.140  29.560  12.552
17607W        W89223  40.724  39.475   2.918
17608W        W89224  43.335  24.359   2.235
17609W        W89225  18.979   9.620  11.039
17610W        W89226   3.351  38.657  13.097
17611W        W89227  44.368  37.069  14.011
17612W        W89228  15.615  38.500  13.899
17613W        W89229  38.988  30.502  12.468
17614W        W89230  29.559  40.569   1.794
17615W        W89231  43.957  26.721   1.310
17616W        W89232  33.442  22.578  10.691
17617W        W89233  40.401  11.006   3.168
17618W        W89234  40.606  37.246  14.805
17619W        W89235  40.459  28.747  13.019
17620W        W89236  27.209  13.727   1.672
17621W        W89237  36.927  44.958  11.664
17622W        W89238  40.970  19.162  13.979
17623W        W89239  12.831   6.502  14.474
17624W        W89240  23.228  30.357   2.448
17625W        W89241  11.896   7.190   1.694
17626W        W89242  44.680  30.557   2.759
17627W        W89243  12.898  30.531  12.429
17628W        W89244  41.851   9.508  10.877
17629W        W89245  20.704  14.162   5.090
17630W        W89246  21.765  38.075   3.709
17631W        W89247  23.709  17.760  14.012
17632W        W89248   2.972  34.225   0.680
17633W        W89249  23.472  40.999  14.352
17634W        W89250  25.003  11.866  13.525
17635W        W89251   2.960   9.883   1.195
17636W        W89252  27.328  36.275  12.481
17637W        W89253  19.006  35.280  13.928
17638W        W89254   7.824  40.699   1.020
17639W        W89255  40.548  28.919  13.514
17640W        W89256  38.546  38.544   4.618
17641W        W89257  13.897   3.365   0.061
17642W        W89258  40.416   4.648   3.748
17643W        W89259  22.667   1.238  11.746
17644W        W89260  28.130   5.772   3.235
17645W        W89261  27.077  31.772  12.811
17646W        W89262  18.590  23.211   0.749
17647W        W89263   9.779  38.021   3.898
17648W        W89264  35.915  39.500   3.363
17649W        W89265  35.106   1.646   2.702
17650W        W89266   7.300  37.929   3.294
17651W        W89267  19.827  37.962   3.244
17652W        W89268   2.350  40.695   0.261
17653W        W89269  23.705  10.270  13.849
17654W        W89270  16.063   4.766  13.372
17655W        W89271  22.645  32.394  12.127
17656W        W89272   4.394   5.741  12.439
17657W        W89273   4.776   1.143   5.061
17658W        W89274  15.115  24.114  12.654
17659W        W89275  16.260  19.850  10.738
17660W        W89276   8.215   7.067  14.413
17661W        W89277  25.523  35.407   3.222
17662W        W89278  37.026   0.915  13.131
17663W        W89279   2.743  39.244  12.596
17664W        W89280  20.113   6.184   2.321
17665W        W89281  24.650  11.155  14.453
17666W        W89282  14.053   3.784  10.528
17667W        W89283  21.301  10.670  11.852
17668W        W89284   0.682   3.464   2.089
17669W        W89285  39.890  24.966   4.516
17670W        W89286  44.244  14.805   1.841
17671W        W89287  26.513   1.387  11.479
17672W        W89288  27.347   1.282   3.172
17673W        W89289   1.033   2.039  13.540
17674W        W89290  41.789  42.439  12.902
17675W        W89291   9.418  39.999  14.197
17676W        W89292   5.043  30.222  13.369
17677W        W89293   1.698  18.211   3.741
17678W        W89294  30.178   7.720   3.111
17679W        W89295  24.159  38.568   4.834
17680W        W89296  37.558  41.981   1.827
17681W        W89297  39.855   6.113  12.384
17682W        W89298   9.425  43.206   1.275
17683W        W89299   0.124  37.907  12.431
17684W        W89300  38.984  29.109   4.749
17685W        W89301  33.658   2.209   3.622
17686W        W89302  33.106  25.298   0.608
17687W        W89303  24.021  25.216   1.438
17688W        W89304   6.414  11.782   0.259
17689W        W89305  43.025  37.880  11.492
17690W        W89306   8.836   2.078   1.190
17691W        W89307   2.804  25.998   0.388
17692W        W89308  42.167  26.166  14.331
17693W        W89309  31.222  23.627   2.300
17694W        W89310  40.825   9.965  11.650
17695W        W89311  44.694  28.157  13.916
17696W        W89312  30.118  32.990   3.856
17697W        W89313   3.512   9.389  12.614
17698W        W89314  43.350  13.352   3.104
17699W        W89315   6.177  36.016   2.015
17700W        W89316  43.369  21.802  14.259
17701W        W89317  19.270  43.246  10.560
17702W        W89318  10.543  29.129  11.234
17703W        W89319  38.528  36.390   4.063
17704W        W89320   5.391  30.970  14.249
17705W        W89321   6.140  14.233  10.684
17706W        W89322  20.082  23.516  13.026
17707W        W89323  10.730  34.766   5.052
17708W        W89324  14.807  11.247  11.555
17709W        W89325  41.450  44.318   2.401
17710W        W89326  37.220  43.223  12.471
17711W        W89327  30.019  31.054   0.007
17712W        W89328   9.261  35.191   2.350
17713W        W89329  33.871  38.775   1.467
17714W        W89330   9.408  33.920   4.277
17715W        W89331   1.922  21.766  12.778
17716W        W89332  34.523  23.137   0.981
17717W        W89333  36.452  21.104   4.503
17718W        W89334   1.053  26.787   4.168
17719W        W89335  14.607   4.429  14.072
17720W        W89336  39.690  16.730  13.164
17721W        W89337  39.606  41.995  13.333
17722W        W89338  41.194  43.924  13.169
17723W        W89339  17.769  30.393   0.395
17724W        W89340   6.099  39.942  14.030
17725W        W89341   7.159   5.822   1.446
17726W        W89342  20.808   9.550  12.024
17727W        W89343  40.335   5.310  12.651
17728W        W89344  18.679  12.918  11.564
17729W        W89345   7.286  36.068   0.236
17730W        W89346  39.940  10.981  14.399
17731W        W89347   9.831   0.017  12.115
17732W        W89348  34.329   2.997  14.038
17733W        W89349  27.907  44.415  14.811
17734W        W89350  19.657  24.028   0.161
17735W        W89351   3.686   7.476   1.823
17736W        W89352  38.428  18.529   1.743
17737W        W89353   9.207  34.475   3.210
17738W        W89354   6.831  35.899  11.999
17739W        W89355  31.917  35.581  11.939
17740W        W89356  21.038  17.101  13.380
17741W        W89357  32.585  18.547   2.792
17742W        W89358  28.472  36.810  11.054
17743W        W89359   4.056  24.802  11.780
17744W        W89360  33.156  28.025  12.422
17745W        W89361  30.444  11.693   2.223
17746W        W89362  10.643  38.133  13.223
17747W        W89363  10.824  17.192   2.077
17748W        W89364  36.874  19.519   3.663
17749W        W89365  31.128   1.875   2.536
17750W        W89366   4.185  20.953   3.854
17751W        W89367  11.842   6.874  10.868
17752W        W89368   9.132  31.001   3.238
17753W        W89369   6.771  13.725   2.942
17754W        W89370   8.661   0.822   1.803
17755W        W89371  27.077  28.771   1.424
17756W        W89372  35.171   2.634   0.675
17757W        W89373   0.546  34.488  14.315
17758W        W89374  37.961  30.243   1.175
17759W        W89375  26.032  35.537   2.352
17760W        W89376  14.729  19.459   4.962
17761W        W89377  10.695  19.840  11.598
17762W        W89378   4.028   2.876  11.727
17763W        W89379  41.039  14.797   2.935
17764W        W89380  16.533   8.645   0.918
17765W        W89381   8.941  23.981  11.956
17766W        W89382  42.850  38.118  14.386
17767W        W89383   7.432  38.751  13.893
17768W        W89384  10.768  34.204  13.446
17769W        W89385   6.417  32.011  10.088
17770W        W89386  20.294  31.497   4.750
17771W        W89387   3.639  13.217   1.749
17772W        W89388  32.580  14.833  13.748
17773W        W89389  32.942  28.400   4.160
17774W        W89390  42.726   0.304   0.201
17775W        W89391  23.255   0.865  11.164
17776W        W89392  43.667  12.413  10.645
17777W        W89393  19.085  34.082   4.613
17778W        W89394  40.443   8.845   3.619
17779W        W89395   2.305  18.183  12.428
17780W        W89396  35.743  21.690   3.953
17781W        W89397  32.555  34.124   3.157
17782W        W89398   1.258   9.080   1.901
17783W        W89399  44.955  17.068   4.137
17784W        W89400  21.696  15.094  13.724
17785W        W89401   8.044  24.254  13.823
17786W        W89402  23.232  33.134   0.896
17787W        W89403   7.330   3.017  12.830
17788W        W89404  19.994  35.582   4.144
17789W        W89405  40.334  19.620  10.675
17790W        W89406   7.668   9.612  12.604
17791W        W89407  34.607  43.031   1.828
17792W        W89408  37.812  23.698  13.194
17793W        W89409  24.215  20.743   2.870
17794W        W89410  17.748  29.187   3.187
17795W        W89411   6.420  31.002   4.180
17796W        W89412  36.374  10.625  13.546
17797W        W89413   2.737  30.430   0.241
17798W        W89414   1.960  21.530  10.728
17799W        W89415  16.252  35.819  12.575
17800W        W89416  20.378   7.088   3.230
17801W        W89417  44.540  28.518   1.811
17802W        W89418  44.443  31.162  13.569
17803W        W89419  40.673  39.853  14.677
17804W        W89420  27.906  44.787   0.810
17805W        W89421  11.368  38.139  14.580
17806W        W89422  10.478  38.966   0.557
17807W        W89423   8.360   0.407   4.642
17808W        W89424  19.155  40.290  13.441
17809W        W89425  39.867  20.752  12.444
17810W        W89426  14.496  41.846   1.864
17811W        W89427  40.492  43.323   1.922
17812W        W89428   6.434  11.698   2.253
17813W        W89429  13.458  17.192   4.610
17814W        W89430   9.298  11.207  11.956
17815W        W89431  11.283   1.491  14.019
17816W        W89432  14.859  33.005  12.164
17817W        W89433  32.294  31.462  11.869
17818W        W89434  24.056  24.203  11.922
17819W        W89435   9.797  35.032   1.364
17820W        W89436  44.167  23.449  14.046
17821W        W89437  28.218  10.122   3.138
17822W        W89438  41.162  21.342  11.196
17823W        W89439  17.820  44.432  13.786
17824W        W89440   7.624   3.379   0.989
17825W        W89441  36.929  41.282  10.570
17826W        W89442   4.517   4.655  11.168
17827W        W89443   9.354   7.914   1.291
17828W        W89444   0.864  40.427   0.356
17829W        W89445   6.092  41.449   4.233
17830W        W89446  21.649  41.282   4.805
17831W        W89447  18.757  16.205   2.312
17832W        W89448  37.266  11.520  13.346
17833W        W89449  21.480  28.652   3.691
17834W        W89450  13.204  14.564  14.473
17835W        W89451  15.726  26.398  12.877
17836W        W89452   9.784   6.718  10.512
17837W        W89453  33.329  40.061  11.681
17838W        W89454  30.580  29.126   2.442
17839W        W89455  11.094   1.038  12.163
17840W        W89456  15.610  41.827  12.361
17841W        W89457  19.804  14.338   1.389
17842W        W89458  19.444  38.009  11.557
17843W        W89459   9.168   1.302   0.418
17844W        W89460  18.545  30.379   2.399
17845W        W89461   6.673  38.146  11.146
17846W        W89462  23.537  23.041   1.906
17847W        W89463  31.082  34.436  13.533
17848W        W89464   8.829  23.468  11.969
17849W        W89465  27.453  44.304   4.136
17850W        W89466  21.625  26.091   0.020
17851W        W89467  20.199  30.591   1.720
17852W        W89468  16.546  23.105  12.880
17853W        W89469  31.000  26.749   3.301
17854W        W89470  28.097  37.134   3.724
17855W        W89471  29.976   8.306  13.900
17856W        W89472  30.547  29.843   1.947
17857W        W89473  18.342   6.993  11.240
17858W        W89474  15.651  36.875   4.258
17859W        W89475  26.572  26.057   5.032
17860W        W89476  43.228   2.773   1.494
17861W        W89477  29.847  42.401  10.643
17862W        W89478  10.929  34.591  10.661
17863W        W89479  17.870  16.379   5.080
17864W        W89480  44.461  32.770   2.373
17865W        W89481  29.193  31.648   1.552
17866W        W89482  35.568  29.499  11.713
17867W        W89483   4.302  41.025  14.786
17868W        W89484  22.990  18.082  13.899
17869W        W89485  28.349  33.622   5.144
17870W        W89486  39.266   9.836   1.805
17871W        W89487  13.189  18.629   2.472
17872W        W89488   1.373  36.081  11.433
17873W        W89489  42.346  19.475   3.260
17874W        W89490  21.020  18.623  10.724
17875W        W89491  26.122  38.788   0.302
17876W        W89492  36.519  37.247  14.320
17877W        W89493  23.018  39.112   1.311
17878W        W89494  42.373  15.034   2.407
17879W        W89495   9.151  26.208  10.335
17880W        W89496  33.846  35.090   3.221
17881W        W89497  31.472  16.678  13.072
17882W        W89498  25.325   3.284   0.378
17883W        W89499  18.783  11.870   3.225
17884W        W89500   9.115  40.282  13.126
17885W        W89501  14.054  18.523   1.875
17886W        W89502  40.012  23.934  13.588
17887W        W89503  22.916   8.644   2.444
17888W        W89504   0.176   6.491  11.381
17889W        W89505   6.487   3.543  13.785
17890W        W89506   9.150  43.933   3.652
17891W        W89507  13.181  18.612   0.729
17892W        W89508  44.570   4.800  11.453
17893W        W89509  30.156  38.096   4.201
17894W        W89510  16.054  24.001  12.528
17895W        W89511  32.492  23.649  12.301
17896W        W89512  32.532  20.709   1.531
17897W        W89513   6.198  18.822  12.071
17898W        W89514  39.518  10.852  11.659
17899W        W89515  17.174  35.664  12.106
17900W        W89516  34.658  37.555  13.849
17901W        W89517  33.505  33.885  10.549
17902W        W89518   1.108   0.587   4.747
17903W        W89519  21.493   3.438   4.869
17904W        W89520  42.220  14.744  13.500
17905W        W89521  44.677  17.665   0.701
17906W        W89522  44.340  39.017  11.035
17907W        W89523  44.855   7.830  10.607
17908W        W89524  33.900  24.644  14.889
17909W        W89525  22.968  16.102  14.780
17910W        W89526  24.595   5.238  12.344
17911W        W89527  10.364   6.791   3.389
17912W        W89528  18.523   4.195  11.955
17913W        W89529  19.077  13.722  12.938
17914W        W89530  44.253  11.334  12.365
17915W        W89531  16.121   4.181   3.246
17916W        W89532  40.276   8.362  10.978
17917W        W89533   2.282  40.911   9.971
17918W        W89534  17.832  19.863  11.002
17919W        W89535   2.288  27.281   4.831
17920W        W89536  12.614  39.352   0.900
17921W        W89537  43.695   8.782  13.838
17922W        W89538  19.792  11.029  14.345
17923W        W89539  22.167   9.347   3.730
17924W        W89540  33.098  21.968  12.682
17925W        W89541   1.820  21.635  14.239
17926W        W89542  29.625   4.706  11.572
17927W        W89543  18.015  37.481  14.480
17928W        W89544  23.200  26.925  11.002
17929W        W89545   7.634   8.089  11.061
17930W        W89546  34.386  23.455   2.318
17931W        W89547  35.872  15.945   4.211
17932W        W89548   4.974  19.352  12.871
17933W        W89549  23.488   3.271  13.159
17934W        W89550  39.223  30.262   4.036
17935W        W89551  35.814  43.800  10.675
17936W        W89552  35.945   3.397   3.551
17937W        W89553  43.824  42.191  14.314
17938W        W89554  40.166  37.485   4.001
17939W        W89555  10.898  28.747  11.230
17940W        W89556  37.501  44.845   0.728
17941W        W89557  29.487  20.688  10.847
17942W        W89558  36.101  10.274   2.370
17943W        W89559  19.512  27.439  12.118
17944W        W89560  25.418   6.837   0.818
17945W        W89561  36.362  33.521   3.822
17946W        W89562   6.496  21.261   0.736
17947W        W89563  26.043   0.625  11.549
17948W        W89564  22.772  21.877   3.288
17949W        W89565  29.925  32.412  12.072
17950W        W89566   7.760  41.386  14.405
17951W        W89567  16.869   7.768   3.147
17952W        W89568  18.526  20.333   0.877
17953W        W89569   7.457   2.170   1.736
17954W        W89570  21.654  13.793  14.408
17955W        W89571  37.877  12.041   1.876
17956W        W89572  21.037  40.863  12.417
17957W        W89573  31.986   0.872   4.487
17958W        W89574  32.624   8.318   0.945
17959W        W89575  26.211  17.272  11.292
17960W        W89576  33.394  39.530   4.112
17961W        W89577  16.651   6.243  11.425
17962W        W89578  20.966   1.921  12.050
17963W        W89579  31.663  14.776  13.867
17964W        W89580  43.529  21.108   3.231
17965W        W89581  43.290   6.062  11.091
17966W        W89582  26.034   7.664   3.538
17967W        W89583  37.312  44.885  10.355
17968W        W89584  14.547  13.649  12.152
17969W        W89585  23.263  12.601   2.281
17970W        W89586  33.960  31.823  11.359
17971W        W89587  39.057  30.290  13.329
17972W        W89588  22.770  11.990   2.607
17973W        W89589  32.596  30.438   2.793
17974W        W89590   8.945   1.442   3.308
17975W        W89591  31.228  12.839  10.226
17976W        W89592  32.965  23.390  11.588
17977W        W89593  13.067  30.924  10.429
17978W        W89594  43.003   4.584   4.595
17979W        W89595  36.962  18.313   0.897
17980W        W89596  18.707   0.236  12.566
17981W        W89597  40.726   5.005  10.494
17982W        W89598  43.752   2.194  11.083
17983W        W89599  40.933  18.597   3.848
17984W        W89600  12.763  20.308  13.782
17985W        W89601  42.773  33.524  14.336
17986W        W89602  38.916  40.502  10.718
17987W        W89603  33.536  38.333   0.712
17988W        W89604  16.359  44.311   0.355
17989W        W89605  14.383  11.453   3.261
17990W        W89606  18.200  29.456   3.198
17991W        W89607  42.967  16.225  11.131
17992W        W89608  12.043  16.808  11.564
17993W        W89609   5.844  16.481   2.276
17994W        W89610   3.346  13.240   3.108
17995W        W89611   2.274  23.057   2.287
17996W        W89612  15.221  26.477  13.550
17997W        W89613  22.346  23.521  10.193
17998W        W89614  24.826  39.021   3.772
17999W        W89615  40.969  42.943   0.258
18000W        W89616  44.425  18.558  11.604
18001W        W89617  10.181  33.101   1.352
18002W        W89618  14.113   0.972   1.397
18003W        W89619  10.742  35.159  12.203
18004W        W89620  39.693  26.933  11.447
18005W        W89621  20.111  27.940   2.445
18006W        W89622  13.270  15.194  10.653
18007W        W89623  17.605  30.506  12.063
18008W        W89624  13.787  29.617  11.994
18009W        W89625   0.020   2.390  12.505
18010W        W89626  10.826  22.792   2.949
18011W        W89627  15.296  38.022   2.812
18012W        W89628  37.904  17.851   1.410
18013W        W89629  22.629   4.393   0.363
18014W        W89630  44.944  39.421  13.395
18015W        W89631  28.601   4.703   3.739
18016W        W89632  41.769  22.483  13.291
18017W        W89633  11.860  29.080  14.651
18018W        W89634  27.067  10.227  14.838
18019W        W89635   7.935   6.669  10.976
18020W        W89636  11.231  22.682   1.259
18021W        W89637   6.686  43.943   2.797
18022W        W89638  28.576  34.313  10.928
18023W        W89639  41.514  18.211   1.297
18024W        W89640  11.067  32.417  14.235
18025W        W89641   7.246  27.745   1.407
18026W        W89642  41.210  27.712   4.571
18027W        W89643  13.151   4.632  10.255
18028W        W89644  24.910  33.189   1.895
18029W        W89645  35.339  14.588   4.557
18030W        W89646  28.040  34.619  12.666
18031W        W89647  20.712  36.568   0.642
18032W        W89648   5.545  18.701  13.200
18033W        W89649  17.774  15.262  11.680
18034W        W89650  43.474   2.033  12.250
18035W        W89651  43.260  37.272  12.023
18036W        W89652  15.325  26.551  11.209
18037W        W89653  33.764   1.050   2.219
18038W        W89654  28.455   8.628  11.358
18039W        W89655  36.997  41.886  12.167
18040W        W89656  34.092  17.817   4.363
18041W        W89657  16.630  33.138  14.983
18042W        W89658  44.530  13.303  14.854
18043W        W89659  10.628  37.942   3.412
18044W        W89660  15.064   8.140   3.296
18045W        W89661   9.716  25.790  14.689
18046W        W89662  19.277  29.341  14.344
18047W        W89663  36.771  40.835  10.317
18048W        W89664  17.038  44.488   0.919
18049W        W89665  11.630  42.692   0.384
18050W        W89666  10.904  12.443  11.402
18051W        W89667  15.400  22.499   4.139
18052W        W89668  18.256  41.862   5.039
18053W        W89669  11.203  29.540   1.995
18054W        W89670   7.169  29.918  11.535
18055W        W89671  23.636  13.695  11.216
18056W        W89672  43.044  36.462   4.596
18057W        W89673  37.105  43.092  11.028
18058W        W89674   7.509  35.909   4.516
18059W        W89675  39.472  25.923  13.318
18060W        W89676  22.555  21.733   1.766
18061W        W89677  39.917  10.932   9.948
18062W        W89678   9.210  34.048   0.240
18063W        W89679  42.920  10.317   4.933
18064W        W89680  35.722   5.566  13.664
18065W        W89681   0.684  14.640   1.809
18066W        W89682   2.450  43.781  13.892
18067W        W89683   2.223  38.470  13.038
18068W        W89684  28.225   2.350   2.857
18069W        W89685   1.193   1.943   4.360
18070W        W89686  26.543  10.291  14.074
18071W        W89687  14.091  26.954   4.197
18072W        W89688  20.775  18.383   0.123
18073W        W89689  19.984  37.992  13.100
18074W        W89690  21.060   8.547  14.815
18075W        W89691   9.308  20.026   2.307
18076W        W89692  42.937  44.042  14.847
18077W        W89693  23.755  28.921   4.626
18078W        W89694  35.995   8.463   2.021
18079W        W89695  31.856  21.326  14.388
18080W        W89696  34.905  41.263   3.730
18081W        W89697  11.367  22.742   4.170
18082W        W89698  21.785  10.742   4.152
18083W        W89699  33.860  18.849   2.406
18084W        W89700  10.400  11.612  11.039
18085W        W89701  43.472  19.708   1.610
18086W        W89702  29.197  43.738  12.524
18087W        W89703  27.988  44.949   3.118
18088W        W89704  30.674  36.206   4.889
18089W        W89705   9.704   3.003  10.545
18090W        W89706  22.351  31.119  14.110
18091W        W89707  14.826   1.391   0.379
18092W        W89708  18.347  27.075   4.664
18093W        W89709  21.200  16.109   0.973
18094W        W89710  34.451   4.047  11.095
18095W        W89711  21.789  30.010   1.304
18096W        W89712  29.985  17.201   3.466
18097W        W89713  14.192  42.683   4.635
18098W        W89714  12.601  40.065  11.700
18099W        W89715  14.643   3.418   5.492
18100W        W89716  21.667   0.736   1.422
18101W        W89717  36.037   3.819   0.509
18102W        W89718  35.843  16.901   0.520
18103W        W89719  11.354   2.335  13.365
18104W        W89720   3.688   3.917  12.739
18105W        W89721  33.154   9.478   2.121
18106W        W89722  13.388  11.257  13.781
18107W        W89723  31.448  38.001  11.578
18108W        W89724  39.366  12.337   0.439
18109W        W89725  36.041   3.443   1.853
18110W        W89726  29.893  17.140  10.873
18111W        W89727  11.883  24.295  13.310
18112W        W89728  21.181  24.340  11.572
18113W        W89729  34.874  29.441  14.275
18114W        W89730  30.673  38.831   4.247
18115W        W89731   1.588  43.069   1.515
18116W        W89732  22.352  41.264   5.099
18117W        W89733  37.506   5.782   0.940
18118W        W89734  32.639  31.709   3.117
18119W        W89735   4.155  17.574   2.703
18120W        W89736  39.082  27.669  13.441
18121W        W89737  26.040  22.128   1.238
18122W        W89738   6.378   8.752  14.411
18123W        W89739  31.718  33.617   4.575
18124W        W89740  37.020  44.036  13.442
18125W        W89741  33.921  41.197  11.555
18126W        W89742  18.513  38.658  11.043
18127W        W89743  31.856  31.854   2.806
18128W        W89744  26.711  31.298  11.950
18129W        W89745  42.219  24.131  12.104
18130W        W89746  34.438  35.888  14.506
18131W        W89747  25.067  30.688  10.644
18132W        W89748  29.601   2.213  10.720
18133W        W89749  10.806   8.578  12.998
18134W        W89750  11.391   3.352   1.062
18135W        W89751  39.986   1.930  13.485
18136W        W89752  32.494  28.109   2.356
18137W        W89753   4.905  11.096   2.277
18138W        W89754  42.294  22.602  13.503
18139W        W89755  15.182  42.149  14.366
18140W        W89756  26.863  43.525  10.389
18141W        W89757  32.145  38.526   2.725
18142W        W89758  22.317   7.943   2.692
18143W        W89759   5.390  20.057  14.833
18144W        W89760  12.214  39.817  11.484
18145W        W89761  37.395  11.181   4.039
18146W        W89762  37.931  18.911  10.670
18147W        W89763  23.458  44.807  13.148
18148W        W89764  29.654  19.128   0.508
18149W        W89765  14.373  19.306  13.881
18150W        W89766   4.295   3.822  14.963
18151W        W89767  31.887  30.190   1.704
18152W        W89768   2.853  40.459   4.976
18153W        W89769  12.145  42.250  14.047
18154W        W89770  40.045  28.064  14.324
18155W        W89771  30.327  21.048   4.158
18156W        W89772  10.580  32.341  12.568
18157W        W89773  33.645  26.837   4.876
18158W        W89774  11.694  15.128  12.938
18159W        W89775  21.124  26.215  10.824
18160W        W89776  36.379  36.840   4.695
18161W        W89777  23.944  20.497  12.922
18162W        W89778  18.816   1.356   3.435
18163W        W89779  16.194  28.653   4.429
18164W        W89780  35.375  44.747   2.730
18165W        W89781   6.418  41.902  12.653
18166W        W89782  25.125  27.481  13.471
18167W        W89783  11.746  39.587  11.550
18168W        W89784   3.498  16.728   1.013
18169W        W89785   6.453  12.795  11.976
18170W        W89786  29.612  14.986  10.044
18171W        W89787  31.714  39.915   1.829
18172W        W89788  14.524   5.398  10.346
18173W        W89789  27.060  28.164   2.858
18174W        W89790   5.332   1.337   1.605
18175W        W89791  24.886  26.696  10.560
18176W        W89792   0.507  43.912   3.145
18177W        W89793  26.063   9.597  10.671
18178W        W89794  23.567  29.166   3.628
18179W        W89795  14.016  28.557   1.306
18180W        W89796  23.925  44.647  14.928
18181W        W89797  19.592  10.266  10.509
18182W        W89798  20.204   2.766   0.552
18183W        W89799  39.686  16.665   0.475
18184W        W89800  40.340  33.955  11.173
18185W        W89801   6.834  10.749   4.151
18186W        W89802  28.728  32.457  14.656
18187W        W89803  24.945  17.060  11.980
18188W        W89804  14.137  29.865   0.247
18189W        W89805  31.338  24.616   4.714
18190W        W89806  24.579  35.683   4.171
18191W        W89807  20.019   5.351   0.291
18192W        W89808  30.015   7.811   4.716
18193W        W89809  14.377   0.354   1.947
18194W        W89810  25.134  26.683  10.059
18195W        W89811   2.503   2.385  14.755
18196W        W89812  16.125   6.223   4.185
18197W        W89813   3.784  22.500   4.764
18198W        W89814  44.350  13.835   3.610
18199W        W89815   5.680  40.393   1.105
18200W        W89816  11.832  43.098   4.662
18201W        W89817   3.573   2.859  14.627
18202W        W89818  12.800  16.750  11.965
18203W        W89819   7.140  14.518  14.852
18204W        W89820  31.910   4.015   0.318
18205W        W89821  30.407   6.871  10.804
18206W        W89822  26.463  27.854  12.100
18207W        W89823  39.297  14.295  12.160
18208W        W89824  15.784   2.875  13.952
18209W        W89825  14.220  31.592   1.725
18210W        W89826  20.115  11.185   3.157
18211W        W89827   3.528  27.897   4.621
18212W        W89828  34.186  12.755  13.493
18213W        W89829  24.227  21.567   3.256
18214W        W89830  37.469  32.030   3.122
18215W        W89831   5.226   6.579   4.280
18216W        W89832  26.129  13.601  10.044
18217W        W89833   7.016  13.327  11.149
18218W        W89834  13.772  19.815   1.736
18219W        W89835  17.736  40.811   3.315
18220W        W89836  39.288  27.028  14.795
18221W        W89837  24.588  16.248   4.880
18222W        W89838  30.692  32.800  13.149
18223W        W89839  40.427   8.438  10.498
18224W        W89840  26.851  17.762   4.164
18225W        W89841   3.861  28.558  10.336
18226W        W89842  42.912  42.131   3.073
18227W        W89843  22.270  14.748  11.434
18228W        W89844  11.576  43.034  11.666
18229W        W89845  32.596  15.303   1.664
18230W        W89846  33.889   1.533   1.360
18231W        W89847  12.254  42.971   2.950
18232W        W89848  35.030  13.562  11.025
18233W        W89849  13.371  36.993   1.668
18234W        W89850  16.728  31.487  12.942
18235W        W89851   7.113   3.831  11.659
18236W        W89852  41.244  28.513   2.653
18237W        W89853  26.048  22.221   0.188
18238W        W89854  11.314  12.929  11.543
18239W        W89855  27.330  30.332   1.267
18240W        W89856   6.965   3.814  12.586
18241W        W89857  41.305  13.632   3.324
18242W        W89858   1.277   7.488   3.129
18243W        W89859  32.035  36.096  13.990
18244W        W89860  34.982   6.379   3.066
18245W        W89861  29.526  19.078  11.527
18246W        W89862   4.675   7.617   2.814
18247W        W89863   9.604  25.084   0.731
18248W        W89864  29.003  39.365   4.226
18249W        W89865   2.999  41.983   2.743
18250W        W89866  18.125  12.348   2.698
18251W        W89867   0.263  20.509   3.166
18252W        W89868   1.303  25.777   1.374
18253W        W89869  44.387  14.303  13.952
18254W        W89870  22.532  30.920   1.425
18255W        W89871  33.460  23.654   0.330
18256W        W89872  39.106  42.729   0.819
18257W        W89873  38.003  13.834  13.354
18258W        W89874   2.477  40.015  12.131
18259W        W89875  23.640  12.524  14.280
18260W        W89876  26.690  37.733  11.180
18261W        W89877  28.225  43.395  12.974
18262W        W89878  13.070  32.549  12.140
18263W        W89879  12.589  14.345   3.390
18264W        W89880  36.606   7.170  10.932
18265W        W89881  18.495  26.408   1.342
18266W        W89882  26.546  16.680   2.606
18267W        W89883  31.278  41.352   2.877
18268W        W89884  32.069  31.424  13.089
18269W        W89885   4.710  22.651   3.175
18270W        W89886   3.627  19.630   4.375
18271W        W89887  26.837  15.613   0.194
18272W        W89888   7.272   4.485  13.982
18273W        W89889  44.530  42.500   1.714
18274W        W89890  43.522  28.996   0.946
18275W        W89891   5.162  31.102   2.877
18276W        W89892   7.642   3.895   4.085
18277W        W89893  33.167   9.833  12.512
18278W        W89894  11.612  14.099  10.638
18279W        W89895  17.813  23.759   3.780
18280W        W89896  33.836  41.349  14.926
18281W        W89897  33.021  41.125   1.763
18282W        W89898  38.239  43.400  10.728
18283W        W89899   0.970  31.998  13.361
18284W        W89900  31.914  25.193  13.847
18285W        W89901  38.836  26.506   4.156
18286W        W89902   2.425  14.242  14.578
18287W        W89903  11.786  26.500   1.181
18288W        W89904  10.929  36.377  14.865
18289W        W89905  16.165   3.366   0.925
18290W        W89906  10.856  32.816  14.501
18291W        W89907  26.497  33.937  14.499
18292W        W89908  13.896  10.907  13.978
18293W        W89909  25.046  15.648   4.278
18294W        W89910  23.691  30.425   3.660
18295W        W89911   3.793  44.176   3.555
18296W        W89912   8.725  35.519  10.647
18297W        W89913  10.311   0.955  13.975
18298W        W89914  44.518  33.144  12.065
18299W        W89915  10.346   8.493  13.252
18300W        W89916  21.515  17.717   3.652
18301W        W89917  37.829  37.027  13.688
18302W        W89918  33.326  34.948   4.071
18303W        W89919  20.911   6.634   2.275
18304W        W89920  12.724  17.146   1.270
18305W        W89921   6.696  29.037  13.772
18306W        W89922  25.989  35.808  14.395
18307W        W89923  20.952  17.490   4.899
18308W        W89924  31.400  14.156   4.600
18309W        W89925  13.551   7.794   3.310
18310W        W89926   5.778  23.446   3.767
18311W        W89927  20.367  14.780   0.850
18312W        W89928  28.400  20.614  13.042
18313W        W89929  20.553  12.392   3.146
18314W        W89930  35.021  18.856  14.896
18315W        W89931  40.075  41.167  13.063
18316W        W89932  11.948  43.954   4.391
18317W        W89933   1.981  15.177   1.674
18318W        W89934  44.623   1.019  12.103
18319W        W89935   5.353   3.399  11.844
18320W        W89936   1.872   9.194   1.015
18321W        W89937  39.197   9.005  11.241
18322W        W89938  31.880  16.766  13.366
18323W        W89939  26.037  11.353  11.215
18324W        W89940  35.884  12.852   3.657
18325W        W89941   2.858  12.626   1.689
18326W        W89942   8.828  31.108   0.364
18327W        W89943   8.219   8.243  14.102
18328W        W89944  35.435   2.689  11.591
18329W        W89945  20.045  27.581  14.508
18330W        W89946   5.835  37.123  11.238
18331W        W89947  42.496  25.867  12.487
18332W        W89948   6.378  29.449   3.232
18333W        W89949  13.414  38.872  14.490
18334W        W89950  28.494  16.231   1.760
18335W        W89951  10.189   3.387   1.703
18336W        W89952  42.254  10.366  12.990
18337W        W89953  16.848  44.206   9.652
18338W        W89954  25.093   5.454  14.897
18339W        W89955  16.957   0.780  13.874
18340W        W89956  23.532  14.743   2.828
18341W        W89957  33.487  16.625  11.635
18342W        W89958  27.654  28.451   4.603
18343W        W89959  30.883  43.858   0.895
18344W        W89960   8.300  10.692  13.367
18345W        W89961   8.811  16.537   0.390
18346W        W89962  29.599  31.455  13.766
18347W        W89963  27.252  30.843   2.608
18348W        W89964  12.799  33.476   2.734
18349W        W89965  25.674  31.764  11.235
18350W        W89966  42.994  42.203  12.346
18351W        W89967   2.371  35.550  14.508
18352W        W89968  28.525  25.977   2.102
18353W        W89969   3.982  33.130   0.741
18354W        W89970  17.555  15.181   0.905
18355W        W89971  42.428  35.458   2.121
18356W        W89972  39.702  15.683   0.345
18357W        W89973  23.055  14.352  10.896
18358W        W89974  37.400  37.210  10.360
18359W        W89975  17.172  22.752   2.992
18360W        W89976   6.058  13.794  10.964
18361W        W89977  12.128  36.967   3.708
18362W        W89978  35.024  20.675   1.925
18363W        W89979  28.080   4.532  12.093
18364W        W89980  11.241  25.573   0.811
18365W        W89981   9.160   6.821  11.548
18366W        W89982  40.552  29.455   3.295
18367W        W89983  27.516  39.913  10.501
18368W        W89984   2.433   0.476   4.581
18369W        W89985   9.489   6.742   3.937
18370W        W89986  15.665   1.754  12.559
18371W        W89987  17.558  22.138   4.029
18372W        W89988   4.326   5.764  13.969
18373W        W89989  16.107  31.705   0.719
18374W        W89990  36.494  37.605   2.399
18375W        W89991  28.416  12.587  12.890
18376W        W89992  41.266  27.666   1.210
18377W        W89993  36.525  36.824   2.681
18378W        W89994  22.253  13.076   3.217
18379W        W89995   9.636  35.865   0.232
18380W        W89996  15.740  41.647   3.806
18381W        W89997  22.063   5.184  12.474
18382W        W89998  22.710  12.657  11.328
18383W        W89999  22.983  40.502  13.991
18384W        W90000  10.158  16.110   0.466
18385W        W90001  35.506   4.914  12.825
18386W        W90002  31.118   8.525  10.760
18387W        W90003  39.820  42.538  11.590
18388W        W90004  39.914  40.808  11.977
18389W        W90005   2.989  15.871   3.241
18390W        W90006  40.020   3.698   4.169
18391W        W90007  10.424  44.475  12.999
18392W        W90008  29.723  11.223   0.350
18393W        W90009   2.018  22.699   0.065
18394W        W90010   4.327  18.255   0.165
18395W        W90011  10.760  14.353   3.016
18396W        W90012  16.036   2.888  14.409
18397W        W90013  28.557  29.420   3.017
18398W        W90014   5.852  14.128   2.707
18399W        W90015  23.405  32.171  11.418
18400W        W90016  37.780  22.607   1.892
18401W        W90017  13.351  37.970  10.288
18402W        W90018  37.395  36.838   2.589
18403W        W90019  30.823   8.987  14.795
18404W        W90020   9.916  24.491   2.753
18405W        W90021  28.125  30.343  13.825
18406W        W90022   9.969   3.201  13.737
18407W        W90023  30.412  26.077  12.101
18408W        W90024   1.626  44.992  10.129
18409W        W90025   4.654   3.000   3.098
18410W        W90026  26.591  32.998  14.056
18411W        W90027  29.775  44.076  12.701
18412W        W90028   9.177  24.975  12.043
18413W        W90029  29.049  13.024  12.448
18414W        W90030  40.260  14.129  10.587
18415W        W90031  10.431  40.821   3.422
18416W        W90032  34.052   0.711   3.740
18417W        W90033  20.743  13.399  13.737
18418W        W90034  43.887   5.280  13.888
18419W        W90035  20.960  33.404   0.008
18420W        W90036  20.153  29.015   0.270
18421W        W90037  21.501  22.193  12.518
18422W        W90038  13.230  27.584  11.557
18423W        W90039  40.393  32.402  10.910
18424W        W90040  38.232  32.405   3.345
18425W        W90041  28.128  14.011  12.636
18426W        W90042  18.450  37.505  14.790
18427W        W90043  22.610  24.177  11.977
18428W        W90044  44.466  44.252  12.965
18429W        W90045  22.735   8.118  10.759
18430W        W90046  16.508  32.529   1.900
18431W        W90047  20.296  33.202  11.184
18432W        W90048   1.932  24.252  13.507
18433W        W90049   5.187  23.625  10.393
18434W        W90050  23.213   2.493   0.059
18435W        W90051  17.292  17.163  14.314
18436W        W90052  34.917  24.005   3.923
18437W        W90053  36.653  14.165  12.941
18438W        W90054  27.506  37.597   1.722
18439W        W90055   4.729  24.178   2.053
18440W        W90056  21.335  18.162   3.019
18441W        W90057  32.970  26.549   1.925
18442W        W90058   3.716  12.675  11.111
18443W        W90059  28.625  32.067   0.498
18444W        W90060  27.838  23.296  14.003
18445W        W90061  14.822  31.009   4.562
18446W        W90062  20.157  26.650   4.995
18447W        W90063  19.011  26.404   1.205
18448W        W90064   6.267  20.982   4.146
18449W        W90065  10.211   0.421  12.813
18450W        W90066  32.057  20.582   1.762
18451W        W90067  19.811  33.088  12.041
18452W        W90068  34.554  24.325  14.922
18453W        W90069  14.998   4.726  13.522
18454W        W90070  43.009  25.273   1.727
18455W        W90071  14.345  40.977   0.643
18456W        W90072  12.218  36.830  12.150
18457W        W90073   7.799   7.795   0.032
18458W        W90074  36.970  25.018  14.128
18459W        W90075   8.734  15.835   1.674
18460W        W90076  13.793  41.725   1.224
18461W        W90077   9.747   3.283  13.272
18462W        W90078  29.707  33.983  14.938
18463W        W90079   0.286   1.453   0.011
18464W        W90080  17.213  22.703  12.922
18465W        W90081  38.587  32.532  12.063
18466W        W90082  44.366  31.444   1.329
18467W        W90083  27.981  13.200  10.381
18468W        W90084  37.569  26.778   4.209
18469W        W90085   3.369   5.856   2.319
18470W        W90086  18.063   9.721   2.766
18471W        W90087   9.895  21.753   3.785
18472W        W90088   0.962  21.791   2.310
18473W        W90089  34.971  23.699   4.725
18474W        W90090  24.181   8.646  13.983
18475W        W90091  43.839  14.655  11.167
18476W        W90092  23.202  14.788  10.706
18477W        W90093   7.879   8.995   5.120
18478W        W90094  31.476  30.568   5.212
18479W        W90095   7.329  32.390   2.983
18480W        W90096  38.599  38.448  12.537
18481W        W90097  12.329  41.733   4.595
18482W        W90098  42.010  37.223  13.772
18483W        W90099   5.496  35.318  12.017
18484W        W90100   1.947  20.634  11.541
18485W        W90101  10.160  11.243   2.154
18486W        W90102  22.238  41.899   0.901
18487W        W90103   2.011  16.205   2.603
18488W        W90104  44.428   8.775  13.377
18489W        W90105  17.781  15.146  14.010
18490W        W90106  31.823  20.131   1.637
18491W        W90107  29.386  15.437   3.722
18492W        W90108   8.637   6.445   3.316
18493W        W90109  20.050  10.123  10.301
18494W        W90110   9.287  37.885  11.805
18495W        W90111   7.147   9.402   3.191
18496W        W90112  32.883  26.095  11.110
18497W        W90113  21.803  28.006  12.842
18498W        W90114   1.210  36.307  13.757
18499W        W90115  24.984   3.745  12.490
18500W        W90116  22.302  28.074   2.283
18501W        W90117   2.826  23.563   1.805
18502W        W90118  37.035   8.124   2.393
18503W        W90119  13.860  36.138   2.244
18504W        W90120  11.196   7.779   1.742
18505W        W90121  20.496   4.743   1.886
18506W        W90122  28.118  30.967   2.222
18507W        W90123   7.224  26.584   3.753
18508W        W90124   8.251  13.480   4.540
18509W        W90125  38.107  22.572  13.138
18510W        W90126  32.439   1.158   2.173
18511W        W90127  24.639   5.732   0.896
18512W        W90128  22.474  27.945   1.336
18513W        W90129  12.536  22.595  13.465
18514W        W90130  29.561  16.591  12.808
18515W        W90131  24.832  14.127  12.991
18516W        W90132  32.634  22.094  10.450
18517W        W90133  36.353  43.761  12.757
18518W        W90134   3.118  11.916   3.178
18519W        W90135  27.721  35.882  11.402
18520W        W90136  11.418   3.729   1.902
18521W        W90137  24.044  19.693   1.945
18522W        W90138   3.250  30.651   0.258
18523W        W90139  36.096   9.641   0.721
18524W        W90140  37.014  40.515   4.281
18525W        W90141  44.548  33.966   3.428
18526W        W90142  27.470  43.743   4.068
18527W        W90143  23.427  20.551   0.932
18528W        W90144  14.475   4.330   3.953
18529W        W90145  25.760   1.237   2.938
18530W        W90146  18.539  33.215   3.694
18531W        W90147   0.732   1.969  12.746
18532W        W90148  19.741  42.770  13.996
18533W        W90149   3.742   3.685   0.808
18534W        W90150  12.409  38.788  14.287
18535W        W90151  24.969  36.302   4.660
18536W        W90152   5.220  25.496   2.895
18537W        W90153  13.578   9.299   2.376
18538W        W90154  10.583  42.280   1.837
18539W        W90155   7.210  33.326   2.948
18540W        W90156  17.134  25.111   4.614
18541W        W90157   2.388  17.021   1.892
18542W        W90158  13.898  24.654   2.402
18543W        W90159  22.384  27.563   2.373
18544W        W90160  43.015  13.699  12.258
18545W        W90161  12.569  32.453  13.320
18546W        W90162  30.059  30.324   2.919
18547W        W90163  20.733  18.675   2.510
18548W        W90164  14.497  24.696  14.663
18549W        W90165   4.727   7.885   3.284
18550W        W90166  37.303   4.921   4.165
18551W        W90167  43.326  14.765  11.067
18552W        W90168  24.482  21.068   2.172
18553W        W90169  15.010  36.441   0.376
18554W        W90170  20.934   2.408  12.689
18555W        W90171  15.232  16.829   4.714
18556W        W90172  12.321   2.973   4.798
18557W        W90173   1.224  22.582   0.640
18558W        W90174   2.905  25.469  10.171
18559W        W90175  34.246  20.040  13.376
18560W        W90176  24.033  21.578  11.426
18561W        W90177  33.145  14.181   4.452
18562W        W90178  17.513  35.443   0.027
18563W        W90179  33.811   3.028  13.968
18564W        W90180  38.256   7.172  13.820
18565W        W90181  21.267  11.725  12.842
18566W        W90182  44.390  13.341  11.248
18567W        W90183   8.488  26.097  10.485
18568W        W90184  22.559  33.595  10.749
18569W        W90185   8.127  25.951  12.159
18570W        W90186  19.776  28.224   3.306
18571W        W90187   0.352  43.820  13.941
18572W        W90188  24.647  23.944   0.532
18573W        W90189  41.292  12.642  12.488
18574W        W90190  25.542  10.231   0.799
18575W        W90191   1.567  41.490   3.308
18576W        W90192   9.830  11.602   4.171
18577W        W90193  38.464  18.161  14.441
18578W        W90194  37.378  19.124   3.004
18579W        W90195  25.747  39.831   0.990
18580W        W90196  37.976  17.760  12.058
18581W        W90197  29.704  20.720  14.827
18582W        W90198  38.700  30.134   3.069
18583W        W90199   8.389   6.825  12.939
18584W        W90200   6.196  29.930  13.967
18585W        W90201   9.786  39.870  12.648
18586W        W90202  40.333  17.899   0.321
18587W        W90203  26.071  36.066  11.987
18588W        W90204  17.024  10.117   0.933
18589W        W90205  42.695  15.745  12.354
18590W        W90206  39.083   1.291   4.365
18591W        W90207  43.350  15.557  13.489
18592W        W90208  39.603  28.207   3.524
18593W        W90209   7.044  32.322   3.411
18594W        W90210  16.192  18.358   5.073
18595W        W90211  23.609  12.297   0.969
18596W        W90212  31.559  32.546   1.797
18597W        W90213   6.811  24.207   3.078
18598W        W90214  36.960  42.815  12.645
18599W        W90215  37.555   2.492  13.131
18600W        W90216  20.603  26.453  10.108
18601W        W90217  15.176  36.512  12.120
18602W        W90218  44.387  34.561  12.929
18603W        W90219  30.069  14.704  12.907
18604W        W90220  15.635  16.358   5.399
18605W        W90221  36.470  42.000  13.445
18606W        W90222  12.530  36.917   4.304
18607W        W90223   3.331  31.769   3.258
18608W        W90224  36.573  15.985   4.611
18609W        W90225  15.161  32.828   0.853
18610W        W90226  39.924   1.788   0.701
18611W        W90227   8.824  16.035   0.222
18612W        W90228  16.860  31.767   1.224
18613W        W90229  11.618   6.801   1.508
18614W        W90230  24.012  23.234   1.856
18615W        W90231   7.720  32.196  10.477
18616W        W90232  41.262  28.731   4.755
18617W        W90233   3.696  33.437  10.328
18618W        W90234  36.437  28.507  14.489
18619W        W90235   5.228  44.339   1.931
18620W        W90236   3.942  40.029   2.776
18621W        W90237  38.302  39.907  13.058
18622W        W90238  43.559  20.097   3.953
18623W        W90239  16.325  44.381  14.473
18624W        W90240  17.247  21.006   2.703
18625W        W90241   2.270  12.791  10.727
18626W        W90242  36.856   1.036   2.391
18627W        W90243  25.117  34.133   4.605
18628W        W90244  40.307  28.596   0.917
18629W        W90245  26.413  10.321  12.509
18630W        W90246  21.178   5.766  12.425
18631W        W90247  29.344   1.287   4.755
18632W        W90248   3.405  33.528   0.190
18633W        W90249  27.851  36.690   3.613
18634W        W90250   3.455  18.033  11.873
18635W        W90251  32.637  26.713   3.775
18636W        W90252   9.890  13.359  13.325
18637W        W90253  11.815  43.400   3.220
18638W        W90254   4.857   9.450  12.554
18639W        W90255  37.516  23.653  12.463
18640W        W90256   5.746  33.346  12.098
18641W        W90257  30.882   1.063  14.443
18642W        W90258  36.331  18.144  13.104
18643W        W90259  27.077  36.412   5.070
18644W        W90260   7.179   0.000  10.754
18645W        W90261   5.275   2.257   1.836
18646W        W90262  39.024  13.351   4.978
18647W        W90263   2.756   0.994   3.739
18648W        W90264  41.264   7.162  14.491
18649W        W90265  18.043  41.903  14.874
18650W        W90266  25.075   1.988   0.267
18651W        W90267   8.667  27.418  12.862
18652W        W90268   6.301  24.425  10.758
18653W        W90269  40.766  25.067   0.333
18654W        W90270  20.772   0.430  11.149
18655W        W90271  44.192   1.924  13.778
18656W        W90272  36.408  41.200  14.097
18657W        W90273  19.072  39.828   0.290
18658W        W90274   6.222  24.313   1.246
18659W        W90275  40.737  28.955   4.295
18660W        W90276  44.983  32.676   2.364
18661W        W90277   9.483  25.089   4.229
18662W        W90278  19.229  25.205   4.189
18663W        W90279  24.010   4.973  14.283
18664W        W90280  21.329   1.079  11.981
18665W        W90281  23.663  41.024  11.072
18666W        W90282  38.505  41.888  12.595
18667W        W90283  13.236  15.649   4.615
18668W        W90284   3.592  18.670   3.264
18669W        W90285  19.210  15.678  11.576
18670W        W90286  24.010  15.222   1.438
18671W        W90287  44.270  42.370   4.187
18672W        W90288   6.985   2.728   1.411
18673W        W90289  44.819  15.086   3.576
18674W        W90290  25.142  29.630   1.041
18675W        W90291  36.489  33.851   2.645
18676W        W90292  41.272  28.848  14.491
18677W        W90293   7.969  18.618  12.114
18678W        W90294   0.776   4.952  14.815
18679W        W90295  24.507  13.082  14.421
18680W        W90296  16.949  24.149  12.298
18681W        W90297  30.822   8.094   2.745
18682W        W90298   6.884  18.678   3.386
18683W        W90299  38.765   0.679   2.539
18684W        W90300  26.802  13.642   4.464
18685W        W90301  38.720   5.272  10.524
18686W        W90302  23.923   7.820   4.628
18687W        W90303  30.523   9.123   1.454
18688W        W90304  40.440  22.277  13.963
18689W        W90305  20.136  36.031  11.618
18690W        W90306  16.773  20.040   1.892
18691W        W90307   9.406  29.619  11.422
18692W        W90308  29.908   1.427   4.937
18693W        W90309  34.545   5.623   1.269
18694W        W90310  21.447   8.785  11.937
18695W        W90311  25.090  31.993   1.201
18696W        W90312  39.896  16.119   2.205
18697W        W90313   6.855   9.398   2.753
18698W        W90314  34.360  24.899   4.749
18699W        W90315  29.900   0.219   1.738
18700W        W90316  44.070   7.264   3.193
18701W        W90317  12.536   6.127   4.100
18702W        W90318  31.070  28.359  12.008
18703W        W90319  43.907  43.191   3.219
18704W        W90320  23.276   9.787   2.823
18705W        W90321   6.332  14.710  10.701
18706W        W90322  16.758  23.077   3.617
18707W        W90323   0.645   3.902  11.173
18708W        W90324  22.659  30.495  13.422
18709W        W90325  35.045  20.554   1.405
18710W        W90326  12.099   5.902  11.688
18711W        W90327  35.491  24.643   2.270
18712W        W90328   5.773  42.202  12.095
18713W        W90329   2.436  36.137  13.358
18714W        W90330  44.681  16.015  14.256
18715W        W90331   0.734  29.663  11.851
18716W        W90332  37.898  41.344  13.831
18717W        W90333  21.512   1.726   1.686
18718W        W90334  36.083  13.221  10.701
18719W        W90335  43.372  41.567   4.933
18720W        W90336  26.838  43.981  10.679
18721W        W90337  27.009  14.533   3.468
18722W        W90338  30.496  13.497  10.745
18723W        W90339  19.039  17.677  12.319
18724W        W90340  33.093  18.428   0.276
18725W        W90341   1.321  14.434  10.767
18726W        W90342  40.707  35.854   0.328
18727W        W90343  15.592  17.235  11.978
18728W        W90344  30.486  12.950  10.624
18729W        W90345  16.727  22.822   2.705
18730W        W90346  19.810  41.917   0.079
18731W        W90347  29.953  44.696   4.649
18732W        W90348  33.617  21.765   4.425
18733W        W90349  20.308   1.204   0.673
18734W        W90350  30.515  10.835  14.537
18735W        W90351  30.494   4.385   4.333
18736W        W90352  22.713  38.644   4.545
18737W        W90353  22.995  15.260   1.338
18738W        W90354  10.811  37.160   0.794
18739W        W90355  13.004   0.267  14.347
18740W        W90356  13.604  34.936   0.891
18741W        W90357   0.969  29.120   0.371
18742W        W90358   6.801  19.224   0.969
18743W        W90359  32.000  20.218   4.064
18744W        W90360   3.926  17.061   0.867
18745W        W90361  14.847   4.812   0.363
18746W        W90362  33.402  10.672   0.198
18747W        W90363  19.859  15.234  12.248
18748W        W90364  12.753  11.737   1.804
18749W        W90365  11.736  15.991  10.694
18750W        W90366   9.821  26.978   0.728
18751W        W90367  25.968   4.916   2.419
18752W        W90368  11.178   3.719   1.448
18753W        W90369  30.377  38.354  14.786
18754W        W90370   7.433  31.532   1.669
18755W        W90371  18.796  11.942   2.365
18756W        W90372   2.758   2.367   3.592
18757W        W90373  27.984  34.407  13.145
18758W        W90374  39.118  35.554   3.290
18759W        W90375  40.433  27.186   1.116
18760W        W90376   7.694   9.387   3.315
18761W        W90377  24.160   4.597   3.826
18762W        W90378  18.054   1.379   1.182
18763W        W90379  33.657  43.240  12.985
18764W        W90380  38.516  39.451  12.998
18765W        W90381  23.802  18.743   4.162
18766W        W90382   9.780  33.299  13.501
18767W        W90383   1.284   2.780   5.072
18768W        W90384  13.884   1.520  12.400
18769W        W90385   4.000  13.579  14.912
18770W        W90386  16.996  35.711   4.842
18771W        W90387  22.685  36.109  14.895
18772W        W90388  28.793  24.667   0.373
18773W        W90389  13.243  29.785   4.562
18774W        W90390  10.689  12.715   4.661
18775W        W90391   9.922  20.629   3.729
18776W        W90392   8.111  40.840  12.130
18777W        W90393  22.015  43.860   2.596
18778W        W90394  33.732  33.518   4.665
18779W        W90395  37.349  21.675  11.988
18780W        W90396  24.309  32.389   4.513
18781W        W90397  37.019  27.892   1.734
18782W        W90398   7.814  14.318   0.915
18783W        W90399  10.747  20.467  10.451
18784W        W90400  22.033  36.874   4.133
18785W        W90401  26.948  31.020  14.461
18786W        W90402  37.044  39.062  14.753
18787W        W90403  42.887  18.324   1.069
18788W        W90404   8.128  40.590   4.555
18789W        W90405  24.036  29.993  14.859
18790W        W90406   7.831  34.382   0.356
18791W        W90407  26.924  19.871  14.303
18792W        W90408  15.319   0.862  10.699
18793W        W90409   7.385  25.004   0.790
18794W        W90410  42.853  44.368  10.412
18795W        W90411  38.755  19.591  11.137
18796W        W90412  19.732  18.795  11.961
18797W        W90413  31.952   9.485   0.866
18798W        W90414  31.412  10.817  12.071
18799W        W90415   3.025  17.256  10.735
18800W        W90416  28.718   5.826   4.329
18801W        W90417  16.306   3.623   4.170
18802W        W90418  43.493  20.480  13.868
18803W        W90419  42.415  32.957   2.458
18804W        W90420  43.246   7.633  11.165
18805W        W90421  13.737  44.014  14.903
18806W        W90422  36.520  42.922  13.376
18807W        W90423  35.575  35.157   2.514
18808W        W90424  12.297  14.708  12.094
18809W        W90425  27.492   7.479   0.267
18810W        W90426  19.863  29.550  11.605
18811W        W90427  10.589  10.437  10.455
18812W        W90428   3.240  42.609  12.622
18813W        W90429   4.812  39.091  11.167
18814W        W90430   4.385  11.849   2.389
18815W        W90431  13.896  41.755   0.105
18816W        W90432   4.524  24.686  11.568
18817W        W90433  38.839  28.551  13.337
18818W        W90434   2.948  39.973  13.024
18819W        W90435  14.587  14.168  14.721
18820W        W90436  36.367  42.871   4.564
18821W        W90437  30.274   9.421  13.296
18822W        W90438  18.728  20.663  13.596
18823W        W90439  25.532  19.765   4.532
18824W        W90440  15.648  31.561  11.102
18825W        W90441  32.643  25.153  12.856
18826W        W90442  37.337  11.202  12.936
18827W        W90443  18.705  25.702   2.000
18828W        W90444   3.846  34.034   2.882
18829W        W90445   4.006   3.408  14.856
18830W        W90446  27.224   4.310  12.497
18831W        W90447  32.216  33.960   1.387
18832W        W90448   4.881   6.410   9.744
18833W        W90449  31.380  13.245  12.423
18834W        W90450  18.015  25.458  11.931
18835W        W90451   7.580  20.301   1.905
18836W        W90452  41.014  37.167   2.785
18837W        W90453  42.581  33.333  10.265
18838W        W90454  22.295  12.716  11.628
18839W        W90455   7.845   4.540   0.183
18840W        W90456  10.879  18.318  14.320
18841W        W90457  15.264  11.080  12.404
18842W        W90458  22.306  16.677   2.670
18843W        W90459  42.594  21.072   0.727
18844W        W90460   2.645  43.918  14.348
18845W        W90461   9.302  28.535  10.511
18846W        W90462   8.157  19.592   1.255
18847W        W90463  12.692  23.015   4.240
18848W        W90464  25.491  30.971  14.360
18849W        W90465  17.270  22.010   2.994
18850W        W90466  22.971  32.578   1.448
18851W        W90467  31.948  41.071  13.005
18852W        W90468  30.006   4.117   1.258
18853W        W90469  42.885  11.332  10.636
18854W        W90470  26.195  15.665  14.375
18855W        W90471  34.153  14.997  11.848
18856W        W90472  23.616  42.363   2.424
18857W        W90473   9.437   4.446  11.596
18858W        W90474   1.211   1.777   1.420
18859W        W90475  29.763  36.790  10.674
18860W        W90476   0.349  39.041  13.005
18861W        W90477  29.514  39.365  12.642
18862W        W90478  23.780  29.369  13.040
18863W        W90479  29.897  30.569   3.467
18864W        W90480  35.840  36.509   2.772
18865W        W90481  16.866  10.349   1.391
18866W        W90482   6.209  19.619   2.380
18867W        W90483   8.005  17.489   1.263
18868W        W90484  33.742  30.589   0.655
18869W        W90485   5.962  13.247  13.672
18870W        W90486  22.567  34.978  10.549
18871W        W90487  29.672  14.192  14.240
18872W        W90488  16.198   9.416  10.629
18873W        W90489   1.306  26.584   2.838
18874W        W90490  14.031   5.353   0.238
18875W        W90491  11.842  21.855   3.217
18876W        W90492  41.275  40.459  14.434
18877W        W90493  23.285  41.099   2.739
18878W        W90494   2.685  15.240  12.925
18879W        W90495   4.439  38.484  11.575
18880W        W90496  23.663  18.295   1.849
18881W        W90497  25.760  42.828   1.876
18882W        W90498  25.565  11.070   4.811
18883W        W90499  20.180  20.099  12.977
18884W        W90500  35.131  26.456  14.413
18885W        W90501  38.563  21.671   4.228
18886W        W90502  16.737   5.265   2.099
18887W        W90503  37.211  16.641  12.965
18888W        W90504  37.792   1.895  14.125
18889W        W90505  42.505  11.235   0.584
18890W        W90506  38.636  11.254  13.258
18891W        W90507  34.878  25.030  14.287
18892W        W90508  26.576  20.732   2.423
18893W        W90509  22.047  40.447   4.673
18894W        W90510  25.713  28.542  14.568
18895W        W90511  35.092  30.318   2.796
18896W        W90512  32.695   1.235  13.948
18897W        W90513   9.428  36.105  12.566
18898W        W90514  39.376  28.504  10.363
18899W        W90515  44.734  35.948  10.701
18900W        W90516  12.341  32.880   2.646
18901W        W90517   6.276   6.754   0.823
18902W        W90518  10.355   6.221  12.067
18903W        W90519  35.100   0.835   1.689
18904W        W90520  22.718   4.358  12.468
18905W        W90521  37.973  42.324   1.893
18906W        W90522   4.148   8.142   0.210
18907W        W90523  38.275   9.538   2.867
18908W        W90524   2.722  13.146   0.386
18909W        W90525  25.735  39.617  14.205
18910W        W90526  35.561  38.294  13.981
18911W        W90527   5.415  36.273   3.790
18912W        W90528  31.310  12.143  14.484
18913W        W90529   4.858  31.049  13.377
18914W        W90530   6.723  26.006  14.010
18915W        W90531  29.018  12.168   0.799
18916W        W90532  10.836  33.347  11.693
18917W        W90533  26.556  33.462  14.298
18918W        W90534   4.276   5.704   1.904
18919W        W90535  20.873  43.412  12.484
18920W        W90536  38.832  25.348  13.406
18921W        W90537  27.451  32.132   2.326
18922W        W90538   6.195  44.951  11.118
18923W        W90539  28.685  19.280  14.962
18924W        W90540  22.389  42.392  14.108
18925W        W90541  26.170  34.560   2.238
18926W        W90542  37.551  28.315   3.699
18927W        W90543   9.254   2.221   0.825
18928W        W90544   2.780  21.703   1.510
18929W        W90545  41.952  16.811   3.223
18930W        W90546  26.685   6.815  10.718
18931W        W90547  42.299  21.277   2.768
18932W        W90548  18.556  13.585   2.817
18933W        W90549  23.115  21.665   2.889
18934W        W90550  38.294  28.006  11.325
18935W        W90551  34.591   2.792   0.052
18936W        W90552   2.363   3.466   3.244
18937W        W90553  44.350  40.751   1.936
18938W        W90554  41.742  21.728   1.437
18939W        W90555  26.064  26.978   0.432
18940W        W90556  38.482  10.128  12.160
18941W        W90557  20.357  19.589   1.797
18942W        W90558  35.574   9.362   3.876
18943W        W90559  43.222  34.951   0.438
18944W        W90560  44.403  40.251  12.485
18945W        W90561  30.051  43.326  13.610
18946W        W90562  35.102  22.767  11.987
18947W        W90563   4.238  38.931   4.853
18948W        W90564  23.389  20.935   3.983
18949W        W90565   7.175  35.352   4.438
18950W        W90566   5.721  17.848   1.559
18951W        W90567   6.923  41.291  11.565
18952W        W90568  33.900  25.974  13.888
18953W        W90569  35.485  18.283   1.477
18954W        W90570  24.846  12.582  11.704
18955W        W90571   5.276  34.409  11.322
18956W        W90572  30.907   2.375  14.450
18957W        W90573  38.112  11.679  12.067
18958W        W90574  44.042   3.209  14.128
18959W        W90575  15.857   3.922  12.313
18960W        W90576  33.403  37.639  11.153
18961W        W90577  43.815  42.852   4.631
18962W        W90578   8.987  36.836   3.348
18963W        W90579  37.455  39.589   4.150
18964W        W90580  35.630   4.858  11.835
18965W        W90581  11.342  39.855  14.632
18966W        W90582  29.062  41.803   0.716
18967W        W90583  16.205   0.933  11.858
18968W        W90584  16.103  16.652  11.654
18969W        W90585  36.086  25.988  11.673
18970W        W90586   8.750  14.074  11.021
18971W        W90587   5.206  39.796   3.651
18972W        W90588   9.384  43.718   1.388
18973W        W90589  44.356  25.932   4.616
18974W        W90590  19.703  25.640  12.751
18975W        W90591  27.550  37.083   0.987
18976W        W90592  36.933   0.711   3.627
18977W        W90593  20.087  27.031   1.400
18978W        W90594  23.588   5.008   2.232
18979W        W90595  29.559   7.853   0.318
18980W        W90596   4.949  28.650   2.791
18981W        W90597  40.538   8.702   1.354
18982W        W90598   6.995  10.905  12.037
18983W        W90599  11.275   6.804   3.324
18984W        W90600  11.381  10.797  13.895
18985W        W90601   1.038  23.154  12.354
18986W        W90602  42.914   7.834   3.617
18987W        W90603  40.351  17.758   1.667
18988W        W90604  14.587  31.592  14.854
18989W        W90605  24.824  40.436   1.331
18990W        W90606  18.570  39.016  13.820
18991W        W90607  16.601  40.815  13.461
18992W        W90608   6.839  24.193   4.657
18993W        W90609  17.746  34.921  10.713
18994W        W90610  26.061  18.974   0.690
18995W        W90611  44.843  35.569   9.837
18996W        W90612  41.472  12.532   4.234
18997W        W90613  11.261   8.299  11.466
18998W        W90614  21.705  44.225   2.838
18999W        W90615  26.919  13.932   3.090
19000W        W90616  22.769  36.959  14.353
19001W        W90617  43.312  34.118  14.830
19002W        W90618  36.054  17.509  12.514
19003W        W90619  27.260  26.666  13.432
19004W        W90620  27.628  43.836  11.332
19005W        W90621  44.976  13.680   2.038
19006W        W90622   8.216   0.391   3.662
19007W        W90623   3.919   8.291   1.270
19008W        W90624   0.307  22.539   0.461
19009W        W90625  34.269  26.592  10.571
19010W        W90626  11.289   0.467   1.653
19011W        W90627  22.462  38.898  10.950
19012W        W90628  43.381   6.781   0.907
19013W        W90629  15.052  38.062  12.593
19014W        W90630  23.215  14.102   0.812
19015W        W90631  18.478   3.896   4.451
19016W        W90632  29.487  16.480   0.800
19017W        W90633  20.766  23.716  12.326
19018W        W90634  24.679   3.285  14.450
19019W        W90635  14.601  41.724   3.722
19020W        W90636  16.355  44.422  13.328
19021W        W90637  43.901  44.463   2.838
19022W        W90638   0.513  12.457   2.455
19023W        W90639  19.664   9.185  10.632
19024W        W90640  37.039  23.832   3.151
19025W        W90641   8.177  40.310  13.433
19026W        W90642  30.993  22.133   3.727
19027W        W90643  15.124  28.177  14.246
19028W        W90644  41.533  12.866   4.630
19029W        W90645  13.219   2.715   1.315
19030W        W90646   3.388  13.543   0.861
19031W        W90647  26.991   3.389  12.972
19032W        W90648   3.198  26.568   0.820
19033W        W90649   8.523  21.908   1.497
19034W        W90650   1.003   0.460  12.182
19035W        W90651  12.324  38.348   2.366
19036W        W90652   0.337  44.848   2.723
19037W        W90653  27.082  33.861   1.719
19038W        W90654  12.733  43.316   1.411
19039W        W90655  10.959   9.282  11.106
19040W        W90656  42.815   5.598   4.644
19041W        W90657  44.948  35.185   0.860
19042W        W90658  16.825   0.230   2.841
19043W        W90659  15.861  17.104  11.555
19044W        W90660  41.702   1.116  10.165
19045W        W90661  14.068   8.399   4.181
19046W        W90662  35.840  22.568   0.912
19047W        W90663   4.247  44.213   3.301
19048W        W90664   2.317   7.425   4.604
19049W        W90665  20.657  16.633  14.923
19050W        W90666  19.673  40.887  14.868
19051W        W90667   3.678  19.349   0.872
19052W        W90668  30.477  13.981  10.516
19053W        W90669   9.889  10.638  14.028
19054W        W90670  33.229  34.325  10.528
19055W        W90671  11.656  28.678   3.267
19056W        W90672  15.340  37.021  14.500
19057W        W90673  29.553  37.087  12.098
19058W        W90674  16.315  40.344  14.951
19059W        W90675  13.526  25.556   1.969
19060W        W90676  25.154  10.847   3.341
19061W        W90677  19.441  12.704  11.144
19062W        W90678   1.853  15.082  12.498
19063W        W90679  12.555   5.222   4.033
19064W        W90680  34.036  21.803   1.400
19065W        W90681  36.318  37.665  14.952
19066W        W90682  33.590   1.296  14.782
19067W        W90683  35.765   6.014   0.924
19068W        W90684  37.267   0.865   3.258
19069W        W90685  36.205  13.317  11.547
19070W        W90686   2.725  30.646   1.699
19071W        W90687  17.802  29.547  12.565
19072W        W90688  20.166  12.861  12.535
19073W        W90689  11.108  22.456  10.626
19074W        W90690  30.546  26.951   0.242
19075W        W90691  17.778  24.536  14.289
19076W        W90692  11.131  22.488   0.332
19077W        W90693  43.071  11.845  12.511
19078W        W90694   7.161  28.382   3.329
19079W        W90695  10.389  29.718   2.305
19080W        W90696  32.504  14.743   0.907
19081W        W90697  16.120   8.858   1.729
19082W        W90698   1.650   9.915  13.064
19083W        W90699  34.317  11.449  10.559
19084W        W90700   5.219   0.872  11.308
19085W        W90701  34.798  17.771   3.258
19086W        W90702  31.482   0.422   4.988
19087W        W90703  14.551  23.952  14.449
19088W        W90704   3.959  43.406   4.892
19089W        W90705  40.098  19.526   0.017
19090W        W90706   9.569  29.103  14.333
19091W        W90707  14.607  19.257  13.417
19092W        W90708  14.160   1.580  11.134
19093W        W90709   2.412  28.522  13.355
19094W        W90710  38.844  17.642  12.498
19095W        W90711   2.146   0.680  12.871
19096W        W90712   7.581  27.971   4.700
19097W        W90713  43.560  28.740   4.162
19098W        W90714  21.635   8.876  11.162
19099W        W90715   6.804   4.811   1.260
19100W        W90716   3.846  26.267  10.665
19101W        W90717  26.656  26.542   0.904
19102W        W90718  35.569  21.035   1.830
19103W        W90719  16.649  16.277  12.095
19104W        W90720  25.680   8.162  14.382
19105W        W90721  12.092   4.441   1.691
19106W        W90722   8.772  23.253  12.453
19107W        W90723   4.868  31.181   1.316
19108W        W90724  43.892  14.733   1.456
19109W        W90725  33.387  22.431  12.001
19110W        W90726   9.280  12.825   4.857
19111W        W90727  27.000  36.782   4.318
19112W        W90728  17.662  25.182  11.452
19113W        W90729  28.266  44.473  13.367
19114W        W90730   2.713  42.504   5.039
19115W        W90731  12.756  23.084  14.339
19116W        W90732  22.114   6.951  13.950
19117W        W90733  10.200  23.278  12.548
19118W        W90734   8.939  37.819   4.015
19119W        W90735  32.177   9.229   2.215
19120W        W90736  41.756  33.568   1.861
19121W        W90737  18.617  20.389  10.478
19122W        W90738  43.973   7.677   4.191
19123W        W90739  27.620  35.940   2.934
19124W        W90740  38.804   7.880  13.548
19125W        W90741  19.714  29.613  13.407
19126W        W90742  37.092  19.801   0.697
19127W        W90743   5.539  41.324   2.264
19128W        W90744  24.640  37.498  11.657
19129W        W90745   2.374  40.227  13.969
19130W        W90746  29.610  21.659  11.082
19131W        W90747  29.530   8.121   2.826
19132W        W90748  26.435   3.159  13.490
19133W        W90749   6.470  41.510  12.337
19134W        W90750  33.690  21.627  11.120
19135W        W90751  38.432  31.430  13.502
19136W        W90752   2.149  11.679   3.259
19137W        W90753  19.086  19.074   4.034
19138W        W90754  14.692   6.787  10.494
19139W        W90755  43.821   2.268   4.170
19140W        W90756   5.675  32.342  14.875
19141W        W90757  35.144  12.173   4.903
19142W        W90758  42.717  14.254   4.401
19143W        W90759  10.236  17.047  13.515
19144W        W90760   7.793  32.693   2.253
19145W        W90761  28.121   6.993   5.081
19146W        W90762  43.690  19.903  13.140
19147W        W90763  22.696   1.449   0.799
19148W        W90764  44.434  41.991   1.462
19149W        W90765  21.086  31.490  13.112
19150W        W90766  35.911  35.639  11.701
19151W        W90767  11.664  23.212   1.887
19152W        W90768  37.532   7.867   3.175
19153W        W90769  33.893  19.164  12.919
19154W        W90770  15.323  15.759   9.645
19155W        W90771  44.800  29.311  10.914
19156W        W90772  30.561  21.166   4.621
19157W        W90773   2.474  14.462  12.154
19158W        W90774  11.091  41.299   3.372
19159W        W90775  44.233  21.761   4.143
19160W        W90776  20.176  20.057  14.811
19161W        W90777  16.653   5.040   1.531
19162W        W90778  29.022  27.300   4.708
19163W        W90779   9.188  13.556  11.765
19164W        W90780   8.816  24.846  13.977
19165W        W90781   1.318  12.666   2.375
19166W        W90782  10.475  26.652  10.476
19167W        W90783  34.470   0.313   0.443
19168W        W90784  30.934  14.868  12.135
19169W        W90785  12.820   3.346  10.676
19170W        W90786  21.255  12.692  10.183
19171W        W90787   8.143  34.907   1.795
19172W        W90788  22.498   2.774  14.051
19173W        W90789  10.373  41.484   4.585
19174W        W90790  28.530  26.691  14.365
19175W        W90791   4.495  11.651  12.938
19176W        W90792  40.969  28.057  13.329
19177W        W90793  21.788  23.062   3.202
19178W        W90794  36.050  33.105  12.746
19179W        W90795  30.455  42.244   1.350
19180W        W90796  44.170  38.414  11.290
19181W        W90797   3.966  27.685   3.596
19182W        W90798   9.387  40.742  12.998
19183W        W90799  16.744   0.975   2.745
19184W        W90800   2.037   2.264  12.539
19185W        W90801  34.727   1.197  13.412
19186W        W90802  40.028  25.755  12.927
19187W        W90803  27.082  31.611   1.004
19188W        W90804  31.235  10.258   4.155
19189W        W90805  40.468  20.686   2.135
19190W        W90806  26.849  17.621  12.613
19191W        W90807  19.985   2.221  12.487
19192W        W90808  30.709  15.172   3.477
19193W        W90809  12.322  11.126   3.833
19194W        W90810  20.835  13.321  12.024
19195W        W90811  22.237  19.102  11.590
19196W        W90812   7.305  13.623  10.549
19197W        W90813  14.660  34.610   0.326
19198W        W90814   0.956  12.339  13.600
19199W        W90815  42.786  29.884  13.241
19200W        W90816  15.137   1.323  14.025
19201W        W90817  38.504  28.367   4.776
19202W        W90818  30.548  14.211  13.995
19203W        W90819  30.121  25.997   4.093
19204W        W90820  23.307  44.677  14.125
19205W        W90821   1.783  32.597  12.016
19206W        W90822   1.166  36.136  12.459
19207W        W90823  43.867  15.872   4.437
19208W        W90824  16.181  42.923   2.958
19209W        W90825  44.343  38.536  10.658
19210W        W90826  16.334   0.314   4.651
19211W        W90827  27.034  37.839  14.441
19212W        W90828  10.754  19.174   4.801
19213W        W90829  21.897   5.051  14.537
19214W        W90830  11.581  15.618  13.166
19215W        W90831  30.925   0.522   2.701
19216W        W90832  26.157   2.924  14.725
19217W        W90833  32.067  32.671  11.735
19218W        W90834   3.007  37.239  14.289
19219W        W90835   0.155  31.956  10.136
19220W        W90836  40.078  28.721  12.024
19221W        W90837   0.645  25.344   0.224
19222W        W90838  26.978  44.824   1.879
19223W        W90839  31.064  14.159   0.281
19224W        W90840  39.390  10.554   0.149
19225W        W90841  20.244  22.984   1.277
19226W        W90842  18.639  12.897   2.242
19227W        W90843   6.595  21.560   2.892
19228W        W90844  43.253   7.222   5.045
19229W        W90845  12.555   3.078   1.790
19230W        W90846  13.989  39.319  11.893
19231W        W90847   1.773  21.972   2.622
19232W        W90848  20.590   7.375   3.616
19233W        W90849   9.832  36.067   1.417
19234W        W90850   4.594  25.720   3.139
19235W        W90851  35.114   9.312   4.106
19236W        W90852   8.953   0.056   3.172
19237W        W90853  42.447  13.542  12.395
19238W        W90854   2.957  32.913  12.462
19239W        W90855  41.018  29.472   0.268
19240W        W90856  17.753  39.571   0.450
19241W        W90857   4.387  23.091   1.362
19242W        W90858   2.840  31.585   2.932
19243W        W90859   6.893  21.593  10.626
19244W        W90860  19.713  30.350   1.373
19245W        W90861  39.563  41.030  10.824
19246W        W90862   6.713  37.641  11.224
19247W        W90863  25.102  44.335   1.357
19248W        W90864  34.555  13.053   2.826
19249W        W90865   9.546  10.400   3.315
19250W        W90866  12.297   4.407  10.145
19251W        W90867   6.395  29.192  12.446
19252W        W90868  15.097  25.738  11.142
19253W        W90869  16.385  39.360  14.552
19254W        W90870  31.417  44.260  12.541
19255W        W90871   8.710  19.075   4.942
19256W        W90872  11.925   1.864  12.836
19257W        W90873  20.296  26.591   0.449
19258W        W90874  25.965  10.337  11.140
19259W        W90875  26.691  15.627  11.553
19260W        W90876  17.206  18.740   2.099
19261W        W90877  28.110   3.707   1.967
19262W        W90878   7.545  28.630   0.316
19263W        W90879  26.222  14.014   3.197
19264W        W90880  10.345  16.375  11.628
19265W        W90881  29.884  29.159  12.557
19266W        W90882  27.440   5.105  11.605
19267W        W90883   4.155  15.707  14.784
19268W        W90884  17.966  12.910   1.647
19269W        W90885   7.673   5.784  14.057
19270W        W90886  19.219  44.179  12.897
19271W        W90887  33.551  43.408   3.286
19272W        W90888  39.953  40.556   4.378
19273W        W90889  40.105  24.412   2.167
19274W        W90890   9.974  24.138  12.980
19275W        W90891  32.596   9.979   1.666
19276W        W90892  19.874  36.013  11.156
19277W        W90893  40.587  12.731  11.961
19278W        W90894  32.423  39.387  14.850
19279W        W90895  39.204  14.719   1.327
19280W        W90896  13.367  23.578   0.171
19281W        W90897  10.955  23.068  13.458
19282W        W90898  32.988  44.508   3.607
19283W        W90899  19.553  41.091   4.529
19284W        W90900  30.474   1.449  14.463
19285W        W90901  17.262  17.011   4.661
19286W        W90902  31.952  30.502   3.329
19287W        W90903  36.702  17.286  13.610
19288W        W90904  19.672   5.119  12.987
19289W        W90905  15.374  15.120  14.434
19290W        W90906   1.764   2.654   4.313
19291W        W90907  32.683  32.591   0.328
19292W        W90908  18.189   1.156   0.724
19293W        W90909  43.831  37.507   3.167
19294W        W90910  17.892  17.636   4.165
19295W        W90911  41.014   0.105  11.120
19296W        W90912   7.870  36.069  13.970
19297W        W90913  17.656  30.376   4.830
19298W        W90914  30.408   6.906   0.489
19299W        W90915  40.382  34.833  12.905
19300W        W90916  36.703  21.706   2.341
19301W        W90917   0.500  22.086   2.233
19302W        W90918  28.609  37.119   1.464
19303W        W90919  14.483  11.231   0.347
19304W        W90920  42.594   3.190  10.537
19305W        W90921  39.019  37.856   2.172
19306W        W90922  23.151  39.382  11.391
19307W        W90923  14.529  22.543  13.453
19308W        W90924   3.422  24.439   0.440
19309W        W90925  27.498  22.461   2.423
19310W        W90926  11.111  24.724   1.446
19311W        W90927   6.902  14.860   0.933
19312W        W90928  27.726  28.873   0.013
19313W        W90929  10.700  34.356  11.499
19314W        W90930  20.562  37.344  11.161
19315W        W90931  29.660   3.419   3.709
19316W        W90932  18.214  31.411  13.497
19317W        W90933  42.038  16.177   4.365
19318W        W90934   0.737  30.559   3.686
19319W        W90935  37.743  14.858   4.124
19320W        W90936  32.752  32.180  12.909
19321W        W90937  10.702  33.032  13.128
19322W        W90938   1.341  15.637  12.134
19323W        W90939  39.693  40.303   2.404
19324W        W90940  17.556  37.971  14.763
19325W        W90941  15.002   0.202  12.530
19326W        W90942  41.318  20.744  13.415
19327W        W90943  20.010  28.018  10.771
19328W        W90944  21.248  19.303   3.730
19329W        W90945  32.191  26.585  11.952
19330W        W90946  41.507  25.752  14.531
19331W        W90947  15.250   5.187   4.135
19332W        W90948  18.791   6.802   3.712
19333W        W90949   4.303   6.379  10.535
19334W        W90950  17.076   8.387   2.969
19335W        W90951   3.083  34.826  12.900
19336W        W90952  43.581   8.251   1.130
19337W        W90953  11.280  32.048  13.930
19338W        W90954  16.804  42.442   4.282
19339W        W90955  29.520  14.103   4.150
19340W        W90956   1.029  39.826  10.456
19341W        W90957  27.141  27.887   3.824
19342W        W90958   2.240  31.861  13.007
19343W        W90959  21.591  14.053  11.902
19344W        W90960  22.102  29.672   2.209
19345W        W90961  39.316   4.785   0.076
19346W        W90962  14.852  11.901  12.457
19347W        W90963   6.356  34.123  14.742
19348W        W90964  44.347  19.798  14.705
19349W        W90965  20.733  40.360   3.409
19350W        W90966   4.893  33.113  14.581
19351W        W90967  35.633  27.750  14.751
19352W        W90968  27.658  34.004  12.998
19353W        W90969  32.988  13.471   1.266
19354W        W90970  33.849  13.241  11.658
19355W        W90971  31.448  14.222   1.075
19356W        W90972  36.468   4.196  14.761
19357W        W90973  36.511   8.325   3.213
19358W        W90974  38.582  22.505  11.926
19359W        W90975  19.069  32.002   3.580
19360W        W90976  12.075  36.651   4.176
19361W        W90977  21.456  33.433   2.619
19362W        W90978  42.367  29.192   4.076
19363W        W90979  35.488  35.969   3.026
19364W        W90980  17.673   2.686   0.505
19365W        W90981   1.064   0.908   0.897
19366W        W90982   8.094  20.081   0.838
19367W        W90983   3.732  26.578  14.532
19368W        W90984  14.604  35.915   2.825
19369W        W90985  13.553  34.794  14.001
19370W        W90986   0.187   5.656  14.761
19371W        W90987  13.676  10.014   3.156
19372W        W90988  19.113  10.606   3.051
19373W        W90989   8.575  18.048  12.495
19374W        W90990   7.151   1.262  10.719
19375W        W90991  44.192  16.032  14.402
19376W        W90992  39.453  36.072   0.712
19377W        W90993  22.248  29.685  12.380
19378W        W90994  37.403   5.698   0.441
19379W        W90995  44.007   0.469   1.207
19380W        W90996   3.267  28.613  11.153
19381W        W90997   0.396   3.617  12.908
19382W        W90998  11.122   5.419  13.043
19383W        W90999  27.219  44.911   4.922
19384W        W91000  10.246  40.376  10.384
19385W        W91001  36.075  10.383   4.681
19386W        W91002   7.394  29.538  12.841
19387W        W91003  39.034  27.976  10.294
19388W        W91004  11.053  22.546  14.241
19389W        W91005  32.397  40.513   3.709
19390W        W91006  13.163  16.768  12.351
19391W        W91007  41.355  40.610  11.161
19392W        W91008   9.395  10.213   2.653
19393W        W91009   6.357  26.437   5.151
19394W        W91010   6.909   8.171  10.702
19395W        W91011  14.608  28.122   4.550
19396W        W91012  40.285   7.788  11.673
19397W        W91013  10.822   1.692   3.794
19398W        W91014  42.764  31.938   3.208
19399W        W91015  25.682  27.651  13.494
19400W        W91016  25.494   3.747  12.503
19401W        W91017  11.541   8.826  10.015
19402W        W91018  43.435  15.058   4.395
19403W        W91019  21.225   8.151   2.294
19404W        W91020  36.418  37.117  13.310
19405W        W91021  22.069  37.610   3.758
19406W        W91022  36.907  16.283   3.777
19407W        W91023   7.955  19.020  14.549
19408W        W91024   6.227  39.116  14.289
19409W        W91025   1.978   4.206   4.150
19410W        W91026  12.730   2.782   2.508
19411W        W91027  16.685  19.580   2.144
19412W        W91028   7.201  43.929  12.435
19413W        W91029  26.624   8.644   3.225
19414W        W91030   8.414  27.257   4.054
19415W        W91031  21.585   7.130   0.757
19416W        W91032  20.652  40.294  13.480
19417W        W91033  32.539  31.134  11.238
19418W        W91034  19.780  11.185   4.497
19419W        W91035  43.044  14.314  10.610
19420W        W91036   2.771  19.180   0.197
19421W        W91037   5.291  43.115   3.166
19422W        W91038  17.456  37.230   3.634
19423W        W91039  16.794  41.958   2.585
19424W        W91040  43.112  13.427  10.976
19425W        W91041  12.803   8.768  14.773
19426W        W91042   1.821  23.072   4.518
19427W        W91043  23.100  23.998  14.217
19428W        W91044  41.323  27.943   2.315
19429W        W91045  41.885   9.770  13.464
19430W        W91046  27.493   4.220  13.948
19431W        W91047  12.786  30.436   4.134
19432W        W91048   4.326   3.180   2.746
19433W        W91049  37.324   1.714  14.236
19434W        W91050  38.334  33.927   0.840
19435W        W91051  30.040   9.262  14.270
19436W        W91052   0.594  43.882  14.415
19437W        W91053  26.489  28.049   4.571
19438W        W91054  39.941  44.105   2.860
19439W        W91055  22.826  16.536   4.535
19440W        W91056  18.048  13.719   2.346
19441W        W91057   4.179   7.216   0.212
19442W        W91058  12.875  12.567   1.482
19443W        W91059  17.271  20.988   4.962
19444W        W91060  23.184   8.792  14.379
19445W        W91061  18.992   6.897   3.243
19446W        W91062   4.402   1.500   3.688
19447W        W91063  42.486  42.856  13.940
19448W        W91064   8.662   3.217   4.566
19449W        W91065  28.312  26.142  13.998
19450W        W91066   7.591  32.416   3.417
19451W        W91067  33.456  39.856   4.718
19452W        W91068  11.823  21.476   2.359
19453W        W91069  39.863  32.544  14.535
19454W        W91070  26.413   5.934  13.975
19455W        W91071  14.050  20.747  13.331
19456W        W91072   4.129  19.102   0.709
19457W        W91073  17.135  34.605  12.933
19458W        W91074  37.339  23.617  13.417
19459W        W91075  12.135  16.619   0.234
19460W        W91076  12.598  37.926   0.888
19461W        W91077   0.430  21.758   2.616
19462W        W91078  37.876  14.078  11.958
19463W        W91079  23.597  21.887  12.121
19464W        W91080  32.750  13.812  11.197
19465W        W91081  29.947   3.696   2.453
19466W        W91082  17.727  42.266   3.808
19467W        W91083  28.137  19.477  10.276
19468W        W91084  35.422  19.723   1.397
19469W        W91085  14.834  11.663  12.930
19470W        W91086  23.125   1.695  13.433
19471W        W91087   5.281  20.094  11.445
19472W        W91088  32.031  13.321  11.968
19473W        W91089  41.069  29.866   2.873
19474W        W91090  27.714  27.153   1.298
19475W        W91091  32.673   4.678  11.118
19476W        W91092   7.743   4.258   4.863
19477W        W91093  40.585   5.225  11.678
19478W        W91094  30.510  12.923  14.359
19479W        W91095  36.083  17.296  10.566
19480W        W91096  17.484   6.411   0.397
19481W        W91097  27.211  30.110   1.706
19482W        W91098  25.693   9.206   4.322
19483W        W91099   1.190  11.597  11.518
19484W        W91100  32.823  17.842  13.548
19485W        W91101  12.704   5.790   3.319
19486W        W91102   6.139   1.354  13.910
19487W        W91103  42.391  13.669  10.651
19488W        W91104  18.481  19.223   2.212
19489W        W91105  35.462  43.544  10.383
19490W        W91106  13.567  33.376   2.409
19491W        W91107   2.416   8.240  12.580
19492W        W91108  17.101  11.796   0.398
19493W        W91109  24.562  13.578  14.274
19494W        W91110  43.285  31.919   3.064
19495W        W91111  10.748  28.962   4.094
19496W        W91112   5.331  11.738   2.835
19497W        W91113  10.661  15.110   4.341
19498W        W91114  35.590  38.320   3.212
19499W        W91115  34.987  44.423   1.531
19500W        W91116   9.098  43.456  10.611
19501W        W91117  38.104  20.653  14.951
19502W        W91118  24.270  35.093  11.050
19503W        W91119  39.758  34.139   4.648
19504W        W91120  19.320  34.756   2.632
19505W        W91121  39.445  26.487   0.860
19506W        W91122   5.114  35.376  12.948
19507W        W91123  18.650   0.959   4.603
19508W        W91124  38.459  19.052   0.882
19509W        W91125   2.230  38.649  12.173
19510W        W91126  16.455  16.564  10.055
19511W        W91127  23.944  36.150  14.377
19512W        W91128   8.155  13.165   0.611
19513W        W91129  34.728  45.000  14.877
19514W        W91130  39.883  40.283  13.217
19515W        W91131  44.798  39.238   0.431
19516W        W91132  22.441  40.746  12.046
19517W        W91133  42.770   1.551  14.772
19518W        W91134  41.492  19.289  13.288
19519W        W91135  44.329  18.122   1.532
19520W        W91136  37.564  43.045   4.242
19521W        W91137  26.584  29.671  11.112
19522W        W91138  40.078  39.941  14.007
19523W        W91139  19.648  25.031   2.066
19524W        W91140  38.336  17.773   3.117
19525W        W91141  32.874  41.872  12.022
19526W        W91142  19.132  43.757   9.785
19527W        W91143  31.515  23.884   4.960
19528W        W91144   7.497   9.774   4.838
19529W        W91145  35.661  29.957  10.819
19530W        W91146  44.421  17.061   1.304
19531W        W91147   5.708  24.474  13.110
19532W        W91148   2.777  33.893   2.867
19533W        W91149  26.599   9.717   3.379
19534W        W91150  32.621   9.757   4.188
19535W        W91151  35.148  29.562  13.807
19536W        W91152  16.242   9.569  13.498
19537W        W91153  10.752  42.767   4.707
19538W        W91154  24.845  21.120  12.099
19539W        W91155   6.310  32.623  12.679
19540W        W91156  40.610  30.625   1.868
19541W        W91157  41.105  30.547  11.730
19542W        W91158  36.762   3.789   3.077
19543W        W91159  29.531  39.294   4.314
19544W        W91160   1.272   0.518   0.453
19545W        W91161   3.876   0.209   2.866
19546W        W91162  12.612  37.452  14.458
19547W        W91163  17.288  30.969  14.878
19548W        W91164   1.069   6.749  11.604
19549W        W91165  29.321  26.051  13.924
19550W        W91166  42.532   1.744  14.354
19551W        W91167  34.064  15.172   1.784
19552W        W91168  25.087  27.142  11.604
19553W        W91169  35.120  26.891   4.938
19554W        W91170  30.231  12.029  13.532
19555W        W91171  11.276  40.276   0.306
19556W        W91172   3.012  11.159   2.391
19557W        W91173  12.278  38.363   0.886
19558W        W91174  42.997   0.865   2.782
19559W        W91175  24.736  26.154  14.428
19560W        W91176  27.906  12.468   3.158
19561W        W91177  12.561  21.640   2.691
19562W        W91178  32.446  15.349  14.659
19563W        W91179  32.563   8.394  13.056
19564W        W91180  21.510  20.693   2.685
19565W        W91181  10.121   6.303  10.547
19566W        W91182  17.558  14.584  10.620
19567W        W91183  13.802  44.416  13.097
19568W        W91184  34.569   8.020   0.501
19569W        W91185  37.040   1.766   3.654
19570W        W91186  16.345   6.757   2.616
19571W        W91187  21.734  15.823   4.241
19572W        W91188  28.578  25.628  14.554
19573W        W91189  18.675  42.873  14.751
19574W        W91190  41.848  29.965   1.508
19575W        W91191   9.654  18.023   3.242
19576W        W91192  37.326   6.818  12.559
19577W        W91193  39.531  23.573  10.715
19578W        W91194   8.812   6.352  14.610
19579W        W91195  20.764  44.982   1.387
19580W        W91196   4.905  41.599  10.183
19581W        W91197  11.378   7.471   4.222
19582W        W91198  36.805  24.501   2.687
19583W        W91199  25.668   8.380   4.172
19584W        W91200   2.857  30.986   4.582
19585W        W91201  19.536  23.683  10.518
19586W        W91202  43.363  41.405  14.348
19587W        W91203  21.439  11.089   0.650
19588W        W91204   7.740  30.642   3.273
19589W        W91205  29.996  44.257  14.999
19590W        W91206  34.970  28.741   1.305
19591W        W91207  17.158   7.813  13.318
19592W        W91208  41.213  24.038  11.092
19593W        W91209  38.776  10.135  14.446
19594W        W91210   3.445  33.442  11.697
19595W        W91211  15.062   5.917   3.651
19596W        W91212  29.874  31.782   2.825
19597W        W91213  26.087   0.027   3.548
19598W        W91214  36.934  40.882   1.310
19599W        W91215  26.682  39.883   0.670
19600W        W91216  22.826   9.757   1.203
19601W        W91217   6.022   1.694   2.732
19602W        W91218  27.708   9.108  12.054
19603W        W91219  25.625   6.410   1.311
19604W        W91220  37.987  14.267   2.164
19605W        W91221   6.966  33.366   3.626
19606W        W91222   1.265  13.642  11.507
19607W        W91223  12.207  19.655   3.160
19608W        W91224  22.856   3.909   2.882
19609W        W91225  42.502   4.786  13.804
19610W        W91226  16.582  32.436   2.430
19611W        W91227  31.051  30.995  10.331
19612W        W91228  10.161  42.230  10.883
19613W        W91229   3.810  27.104  12.108
19614W        W91230  19.877  34.419   3.714
19615W        W91231  32.627  13.536  12.607
19616W        W91232  41.426  28.259  13.357
19617W        W91233  29.951  44.095   0.507
19618W        W91234   4.879  37.100   3.783
19619W        W91235  17.564  20.652   4.279
19620W        W91236  39.107  29.552  14.067
19621W        W91237  44.903  38.752   3.697
19622W        W91238   8.680  15.674   2.788
19623W        W91239  30.655  13.602  12.294
19624W        W91240  43.504  24.051   4.800
19625W        W91241  42.981  37.618  14.386
19626W        W91242  17.041  26.573  14.315
19627W        W91243  17.833  31.000  11.136
19628W        W91244  21.547   4.914  14.026
19629W        W91245  19.399  39.600   2.952
19630W        W91246  25.957  36.492  12.946
19631W        W91247   7.963  23.219  12.915
19632W        W91248  33.597   1.156  11.147
19633W        W91249  12.875  17.722   0.021
19634W        W91250  42.833  16.126  14.113
19635W        W91251  37.957  40.847   0.721
19636W        W91252   9.379   6.121  12.021
19637W        W91253  20.094  41.794  12.875
19638W        W91254  23.243   2.063  12.555
19639W        W91255   4.344  38.620   3.724
19640W        W91256   1.646  36.359  12.874
19641W        W91257  31.825  14.154  12.523
19642W        W91258  37.081   6.212  13.288
19643W        W91259   3.542  32.610  13.264
19644W        W91260  25.172  39.635  12.505
19645W        W91261   3.117  34.871  13.695
19646W        W91262  22.228   8.113   0.243
19647W        W91263  10.542  44.538   0.230
19648W        W91264   3.015  19.124  11.127
19649W        W91265   2.963   2.481   2.310
19650W        W91266  22.497  24.902   4.279
19651W        W91267  40.968  24.083  12.158
19652W        W91268   5.304  40.798  14.003
19653W        W91269  29.394  33.186  13.353
19654W        W91270  17.276  31.883  11.109
19655W        W91271   7.558  36.408  11.145
19656W        W91272  17.557  32.406   2.396
19657W        W91273  35.494   1.625  13.146
19658W        W91274  28.964  10.653  11.989
19659W        W91275  44.259   8.630  10.656
19660W        W91276   0.819  17.760  12.953
19661W        W91277   6.990  44.281  11.134
19662W        W91278  30.845  13.545  13.597
19663W        W91279   4.399  13.725   4.113
19664W        W91280  19.348  32.502  11.034
19665W        W91281  38.922  19.078  14.239
19666W        W91282  20.994  41.655  11.962
19667W        W91283  34.451  22.342  13.366
19668W        W91284   3.725  11.311   2.635
19669W        W91285  27.557  32.193   4.687
19670W        W91286  34.846   3.389   1.184
19671W        W91287  33.886   3.696   4.819
19672W        W91288  14.931   1.423   2.304
19673W        W91289  23.174  39.640  14.654
19674W        W91290  21.065  15.061   4.057
19675W        W91291  26.765  20.023  14.802
19676W        W91292  40.755   4.618   0.068
19677W        W91293   8.667  25.622  10.744
19678W        W91294   6.392   2.716   2.465
19679W        W91295  30.379   3.892   0.975
19680W        W91296  23.355  18.785  13.945
19681W        W91297  10.748  26.190  13.047
19682W        W91298  30.161  34.625  13.470
19683W        W91299  18.058   0.413  13.894
19684W        W91300  35.108  28.131  12.421
19685W        W91301  29.789  39.285  13.071
19686W        W91302  44.320  19.672   2.155
19687W        W91303  20.587  15.155   3.821
19688W        W91304  30.718  32.280   3.752
19689W        W91305  11.892  31.965   2.826
19690W        W91306  15.199  14.045   3.275
19691W        W91307  13.854  12.512   2.441
19692W        W91308   5.433  17.628  12.699
19693W        W91309  44.991  15.911   9.880
19694W        W91310  16.821  38.380  11.566
19695W        W91311  27.895  13.727   2.848
19696W        W91312  35.517   2.870  14.853
19697W        W91313   9.669  33.039   3.173
19698W        W91314  30.946  18.780  10.737
19699W        W91315  44.986  17.783   2.663
19700W        W91316  15.518  24.463  11.488
19701W        W91317  14.748  31.988   4.704
19702W        W91318  16.167   5.168  12.068
19703W        W91319  42.475  39.171  13.787
19704W        W91320   5.330  44.488   0.380
19705W        W91321  34.896  19.529  11.112
19706W        W91322  38.517  42.925  11.569
19707W        W91323  31.151  11.167   5.187
19708W        W91324  28.047  20.752  10.237
19709W        W91325  41.040   8.420   0.366
19710W        W91326  21.466  30.418   0.319
19711W        W91327  26.926  13.193   4.778
19712W        W91328   3.703  14.662   1.837
19713W        W91329  18.859  15.358  10.765
19714W        W91330  32.185  12.954   3.681
19715W        W91331   7.498   5.500   4.136
19716W        W91332  36.483  39.685  14.875
19717W        W91333  32.178  32.493   0.199
19718W        W91334  19.344  30.648  11.009
19719W        W91335  25.576  36.521  13.299
19720W        W91336  14.241  42.060   2.271
19721W        W91337  18.185  13.613  13.991
19722W        W91338  44.600  12.621   2.708
19723W        W91339  43.876  12.690   0.335
19724W        W91340  18.178  19.613  10.692
19725W        W91341  20.230   0.955   0.230
19726W        W91342  32.258  43.331   1.173
19727W        W91343  37.466   6.972  13.570
19728W        W91344  33.132  43.456   3.635
19729W        W91345  10.718  12.378  14.911
19730W        W91346  15.986  21.619  13.461
19731W        W91347  21.544  33.096   2.200
19732W        W91348  16.081   5.255  14.550
19733W        W91349  40.543  26.918   0.191
19734W        W91350  26.338  17.616   4.139
19735W        W91351  24.164  24.633   3.230
19736W        W91352   8.258  10.092  10.552
19737W        W91353   9.858  31.693  10.770
19738W        W91354  26.622  26.094   2.244
19739W        W91355  20.951  44.349   2.383
19740W        W91356  38.117   5.385  14.241
19741W        W91357  27.864  18.984  11.099
19742W        W91358  19.796  41.287  11.144
19743W        W91359  42.447  37.337   2.439
19744W        W91360  26.265  32.986   2.247
19745W        W91361  29.170  20.096  12.997
19746W        W91362  14.240  27.679   4.459
19747W        W91363   0.397  27.141  13.633
19748W        W91364  34.351  29.774   1.244
19749W        W91365  24.535  28.997  14.061
19750W        W91366   8.484   2.447   1.325
19751W        W91367   9.081  35.980   0.366
19752W        W91368  24.982  31.111  14.399
19753W        W91369   0.321  18.874   2.279
19754W        W91370  24.259  28.680  11.908
19755W        W91371  32.656  25.945   1.312
19756W        W91372  42.600   8.768  12.899
19757W        W91373  29.479  24.422   2.568
19758W        W91374  27.119  19.101  10.644
19759W        W91375  13.702  33.479   1.402
19760W        W91376  27.007   4.466  14.987
19761W        W91377  32.318  35.445  12.605
19762W        W91378  30.082  23.650   0.416
19763W        W91379  11.184  29.096   3.813
19764W        W91380   6.870  12.280  12.611
19765W        W91381  25.102  21.558   3.127
19766W        W91382  10.544   7.757   0.873
19767W        W91383  42.889  17.300   3.310
19768W        W91384   3.819  17.070  14.962
19769W        W91385  42.921  18.829   5.048
19770W        W91386   9.404  21.142  13.383
19771W        W91387  44.290  14.656  13.561
19772W        W91388  30.920   7.197  14.479
19773W        W91389  24.031  37.902  13.104
19774W        W91390  40.996  33.552   4.489
19775W        W91391   9.172  16.813   2.649
19776W        W91392  35.560  12.183  14.282
19777W        W91393  22.344  44.822  12.597
19778W        W91394  21.702  33.407   3.100
19779W        W91395   4.690  20.319  14.284
19780W        W91396  22.413  22.980   3.683
19781W        W91397  22.584  19.826  10.788
19782W        W91398  39.331  12.848   1.366
19783W        W91399  33.931  20.766   2.611
19784W        W91400   8.112  41.523  13.962
19785W        W91401  10.157  11.196  13.545
19786W        W91402  29.407  29.661  12.554
19787W        W91403  20.050  23.242  10.642
19788W        W91404  44.462  32.491   0.237
19789W        W91405   1.206  21.269  13.973
19790W        W91406   5.672  27.495  12.570
19791W        W91407  38.399  25.408  12.526
19792W        W91408  14.358   9.361  14.822
19793W        W91409  14.575  16.640  11.497
19794W        W91410  40.897  12.165  13.540
19795W        W91411   0.379  20.165   4.491
19796W        W91412  31.143  31.390  12.586
19797W        W91413  36.331   9.100  13.244
19798W        W91414  20.110  37.433  14.296
19799W        W91415  12.592   5.036  13.085
19800W        W91416  44.751  26.639  14.286
19801W        W91417   9.814  12.643  12.080
19802W        W91418  27.932   8.947  11.612
19803W        W91419  25.514   8.204  11.901
19804W        W91420  26.954  12.240   5.067
19805W        W91421  39.897  23.005  11.287
19806W        W91422   5.175  32.897  10.217
19807W        W91423  17.814  43.015   0.374
19808W        W91424  42.068  41.392  14.915
19809W        W91425  20.612  43.961   4.412
19810W        W91426  43.481  10.480   0.330
19811W        W91427  17.336   0.398   0.493
19812W        W91428  29.780   3.928   3.784
19813W        W91429  39.600  25.184  11.254
19814W        W91430  20.366  42.891   2.852
19815W        W91431  17.196  10.227   4.506
19816W        W91432  23.870  26.716   1.410
19817W        W91433  11.509  41.437  13.112
19818W        W91434  22.507  20.675   4.535
19819W        W91435  41.936  31.607   0.871
19820W        W91436  36.934  40.329  13.598
19821W        W91437  40.579  31.364  11.109
19822W        W91438  18.047  19.111   3.329
19823W        W91439  30.641  44.789   5.234
19824W        W91440   1.485  19.931   3.655
19825W        W91441  24.807   8.395   4.622
19826W        W91442  44.889   8.638   0.968
19827W        W91443  37.847  43.932   1.894
19828W        W91444  44.353  10.785   1.468
19829W        W91445  10.696  13.588   1.336
19830W        W91446   6.492  30.522   3.223
19831W        W91447  36.091  33.464  11.245
19832W        W91448  39.947   9.639   4.185
19833W        W91449  44.355   3.169  12.444
19834W        W91450  36.864  20.192  13.793
19835W        W91451  26.635  32.230   3.817
19836W        W91452  39.106  27.333   4.160
19837W        W91453   4.920  19.593   1.821
19838W        W91454  39.838  41.300  13.532
19839W        W91455  41.868   2.769  13.373
19840W        W91456  28.161   4.660  14.774
19841W        W91457  13.203  35.320   0.856
19842W        W91458  18.035   7.047   2.908
19843W        W91459  38.977  20.803  14.812
19844W        W91460  24.773  26.583  12.195
19845W        W91461   7.673  17.132  12.998
19846W        W91462  37.228  43.022  14.026
19847W        W91463   6.792  11.288   4.201
19848W        W91464  21.313  32.745  13.776
19849W        W91465   6.326  21.999  13.122
19850W        W91466  29.935  20.549  14.396
19851W        W91467  43.287  41.499   0.648
19852W        W91468  32.010   2.940  11.565
19853W        W91469   9.378  27.227  11.592
19854W        W91470  22.582  40.082  12.471
19855W        W91471  32.573   8.845   4.670
19856W        W91472  30.156   9.732  11.488
19857W        W91473  36.065   5.922   4.087
19858W        W91474  16.272  43.391   3.178
19859W        W91475   4.852  43.621  11.975
19860W        W91476  10.293  19.219   4.068
19861W        W91477  21.281   9.169   1.623
19862W        W91478  44.327  35.316   9.649
19863W        W91479  14.081  31.562   4.610
19864W        W91480  26.409  40.475   4.728
19865W        W91481  17.694  12.562  10.757
19866W        W91482  15.296  14.798  12.472
19867W        W91483  34.071  39.466  12.133
19868W        W91484  18.849  19.496   4.242
19869W        W91485  41.027  31.490  13.844
19870W        W91486   9.199  41.450  13.715
19871W        W91487  38.915  17.294  10.666
19872W        W91488   6.343  27.331   4.329
19873W        W91489  26.902  25.607  12.166
19874W        W91490  36.409  28.206   2.832
19875W        W91491  31.022  44.175   2.991
19876W        W91492   9.207  16.898  11.064
19877W        W91493   5.123  11.501   0.830
19878W        W91494  34.577  24.684   0.291
19879W        W91495  25.973  31.181  11.592
19880W        W91496   3.062   9.794   2.785
19881W        W91497  26.558  40.405  14.804
19882W        W91498  16.185  24.731   3.348
19883W        W91499   0.346  35.192   4.709
19884W        W91500   3.362  10.148   0.735
19885W        W91501   0.521  22.974  10.632
19886W        W91502  33.418  23.709  13.734
19887W        W91503  13.476  18.229  12.181
19888W        W91504  16.611  13.189   2.874
19889W        W91505  38.034   8.170  10.620
19890W        W91506  11.589  31.109   4.769
19891W        W91507  13.329  43.294   4.584
19892W        W91508  24.040  40.514  10.548
19893W        W91509  32.347  41.757   3.090
19894W        W91510  22.562   0.094   3.747
19895W        W91511  39.096   6.849  12.579
19896W        W91512  23.463  28.250  14.837
19897W        W91513   9.952  14.314   2.217
19898W        W91514  14.330  17.053  13.294
19899W        W91515  37.604  35.501  14.420
19900W        W91516  30.656  16.718   4.287
19901W        W91517  23.000  10.084  12.052
19902W        W91518   3.331  24.290   3.817
19903W        W91519  19.373  13.639  11.215
19904W        W91520  44.090   4.691  14.728
19905W        W91521  30.133   3.780   4.142
19906W        W91522  25.725  21.071   1.646
19907W        W91523  31.534  43.400  11.584
19908W        W91524  25.447  29.866  14.357
19909W        W91525  38.236  40.018   3.258
19910W        W91526  44.814  25.678   2.233
19911W        W91527  11.862  43.795  13.298
19912W        W91528  21.142   5.185   3.534
19913W        W91529  32.400  37.518  10.708
19914W        W91530  30.481  44.863   0.775
19915W        W91531  33.449  25.651  14.789
19916W        W91532  18.712  34.948   0.918
19917W        W91533   3.527  41.442  13.908
19918W        W91534   8.687  17.943   3.214
19919W        W91535  38.601  16.698  14.564
19920W        W91536  40.425   8.424  13.942
19921W        W91537  26.998  15.191  12.115
19922W        W91538  27.035   0.409   1.411
19923W        W91539  33.611   5.074  10.980
19924W        W91540  23.048  24.704   1.461
19925W        W91541  22.284  36.612  11.171
19926W        W91542  40.039  42.193   3.647
19927W        W91543   0.476  38.150   3.160
19928W        W91544   6.683   9.288   1.745
19929W        W91545  38.337  29.042  11.815
19930W        W91546  34.664  17.063  10.972
19931W        W91547  34.461  28.544   1.840
19932W        W91548  19.450  34.446   4.578
19933W        W91549  38.990  44.993   3.244
19934W        W91550   1.422   9.706  11.328
19935W        W91551  30.552  35.624   2.509
19936W        W91552   2.082  35.749  13.334
19937W        W91553   4.213  34.658   0.341
19938W        W91554  20.835  14.525  14.958
19939W        W91555  34.918  20.705  13.938
19940W        W91556  31.160  43.843  14.880
19941W        W91557  31.002   3.171   2.757
19942W        W91558  37.568  25.555  13.221
19943W        W91559   7.290   0.345  12.432
19944W        W91560  32.030  44.974   2.407
19945W        W91561   9.743  21.460   1.340
19946W        W91562  12.679   2.534  11.719
19947W        W91563  23.196   8.189   2.359
19948W        W91564  41.963  39.044  13.833
19949W        W91565  33.114  33.077   4.141
19950W        W91566  27.057   4.903  14.252
19951W        W91567  10.235  41.343  10.839
19952W        W91568  35.619  16.528   0.817
19953W        W91569  10.779   6.421   3.957
19954W        W91570   3.563  38.357   4.658
19955W        W91571  44.262  14.175  12.412
19956W        W91572  40.019  35.533   1.878
19957W        W91573  39.968  12.796  12.571
19958W        W91574  21.181   2.452   0.003
19959W        W91575  30.219  13.502   0.435
19960W        W91576  35.427  11.261   0.725
19961W        W91577  43.903   1.394  12.462
19962W        W91578  15.153  39.697  14.160
19963W        W91579  25.884  19.655   2.241
19964W        W91580  20.100  34.476   0.775
19965W        W91581   8.981  42.947  11.176
19966W        W91582  24.953   2.642   1.887
19967W        W91583  12.426  32.010   0.500
19968W        W91584  35.142   6.356  13.471
19969W        W91585  33.622  16.774   1.314
19970W        W91586  34.551  18.732  14.431
19971W        W91587  37.956  19.043   4.651
19972W        W91588  31.647  19.282  14.898
19973W        W91589  30.980  21.520   1.705
19974W        W91590  14.224  13.667   4.555
19975W        W91591  33.607  22.806  14.241
19976W        W91592  26.954   2.449  12.980
19977W        W91593  31.332  35.159   3.268
19978W        W91594  20.761   2.113   0.028
19979W        W91595  35.892  15.334   2.326
19980W        W91596  25.039  33.613  14.894
19981W        W91597  13.766  19.577   1.250
19982W        W91598   7.310  39.948  13.644
19983W        W91599   5.520  22.730  11.445
19984W        W91600  44.491  27.591   1.261
19985W        W91601  12.986  27.186   0.315
19986W        W91602  34.656  16.183  11.753
19987W        W91603  30.707  16.516  13.934
19988W        W91604   8.744  37.232   2.823
19989W        W91605  28.171  33.704  12.431
19990W        W91606   1.926  29.304   4.145
19991W        W91607   6.690  36.151  11.109
19992W        W91608   3.398  26.381  12.257
19993W        W91609  41.312   3.359   0.886
19994W        W91610   0.521  41.254   2.418
19995W        W91611  41.392   9.679  13.306
19996W        W91612  32.183   4.688  10.339
19997W        W91613  28.205   8.398   0.811
19998W        W91614  17.225   2.406   0.348
19999W        W91615  12.680  21.145   3.413
20000W        W91616  32.518  43.310   0.735
20001W        W91617  23.249  42.070   2.710
20002W        W91618  44.558  41.465  14.997
20003W        W91619  29.611   3.448   2.834
20004W        W91620   0.550  17.346  11.826
20005W        W91621  43.998  26.445   3.827
20006W        W91622   0.986  20.660   1.170
20007W        W91623  41.952   8.660   0.954
20008W        W91624  30.361  39.519   0.953
20009W        W91625   3.404   7.872  10.599
20010W        W91626  35.275  28.978   0.781
20011W        W91627  24.664  24.450   4.611
20012W        W91628  42.495   0.199  10.648
20013W        W91629  26.248   6.706   3.114
20014W        W91630   1.182  38.424  12.889
20015W        W91631   4.803   6.962   1.411
20016W        W91632  25.170  27.799  13.007
20017W        W91633  22.186  11.369   0.436
20018W        W91634  35.577  37.666   4.354
20019W        W91635  23.216  15.548  10.768
20020W        W91636  43.798  13.563  12.509
20021W        W91637  19.324  15.344  10.990
20022W        W91638  37.412   8.056   1.731
20023W        W91639  26.720  35.904   4.097
20024W        W91640  40.540  38.055  10.557
20025W        W91641  36.636   6.385  13.519
20026W        W91642  39.623  36.426  14.286
20027W        W91643  17.761  40.507  13.902
20028W        W91644  23.686  13.032  14.172
20029W        W91645  40.620  36.763   2.842
20030W        W91646  24.123   3.161   2.926
20031W        W91647   3.749  13.832   1.361
20032W        W91648   9.447   6.266   2.690
20033W        W91649   9.493  35.397  14.273
20034W        W91650  43.918  38.710   9.882
20035W        W91651  42.758  32.066   4.467
20036W        W91652  11.425  11.663   3.170
20037W        W91653  17.828  33.960  11.470
20038W        W91654  38.308  19.304  11.569
20039W        W91655  41.061  15.177   1.272
20040W        W91656  24.616  19.696   2.683
20041W        W91657  24.203  15.544  14.760
20042W        W91658  25.584  19.155   0.937
20043W        W91659   5.174  17.525   0.352
20044W        W91660  30.959  25.730   4.582
20045W        W91661  30.471   0.945   2.746
20046W        W91662   5.664   9.458   3.792
20047W        W91663  27.578   9.454  11.214
20048W        W91664  13.235  31.114  14.903
20049W        W91665  26.556  32.900  11.620
20050W        W91666  15.711  28.468   2.256
20051W        W91667  41.912  35.906  13.159
20052W        W91668  42.448  41.796   1.884
20053W        W91669  25.578  40.305  11.969
20054W        W91670  25.794  12.284   4.178
20055W        W91671  18.967  29.563   3.630
20056W        W91672  30.688  41.025  11.213
20057W        W91673  37.018   5.787   0.783
20058W        W91674  25.596  39.452   0.661
20059W        W91675  36.465  41.095   3.722
20060W        W91676  23.696   8.238  12.281
20061W        W91677  29.236  22.699   1.347
20062W        W91678   0.811  31.527   1.303
20063W        W91679  42.542  37.928  13.513
20064W        W91680  20.084  11.733   3.894
20065W        W91681   7.243  44.946   1.805
20066W        W91682  42.687  18.592   3.694
20067W        W91683  15.805  44.888   0.943
20068W        W91684  21.867  10.486  14.842
20069W        W91685  22.942  30.035  10.474
20070W        W91686   7.284  21.991   4.664
20071W        W91687   7.907  36.886   0.890
20072W        W91688  13.364  40.565   1.765
20073W        W91689   6.180   9.401  14.922
20074W        W91690  17.677  28.459   4.165
20075W        W91691  40.091  16.147   4.537
20076W        W91692  13.567  36.808  11.653
20077W        W91693  15.830  10.319  13.869
20078W        W91694  44.435  40.923   0.488
20079W        W91695  21.964   5.845  13.953
20080W        W91696  12.639  10.741   0.281
20081W        W91697  31.091  32.061   3.465
20082W        W91698  21.842  21.334  12.908
20083W        W91699  11.423  17.813   4.097
20084W        W91700  31.670  16.653  11.538
20085W        W91701  42.123  10.371   3.768
20086W        W91702  14.868  13.277   0.533
20087W        W91703  34.119  20.810  10.419
20088W        W91704  39.735  16.268   0.824
20089W        W91705  44.913  34.539   0.004
20090W        W91706  11.530   5.411   2.232
20091W        W91707  41.857  26.388   1.648
20092W        W91708  24.025   9.182   4.702
20093W        W91709  11.048   7.913   0.894
20094W        W91710  32.003  26.379  10.644
20095W        W91711  32.115  29.987  13.333
20096W        W91712  21.077  41.495   1.213
20097W        W91713   9.846  35.808   4.861
20098W        W91714  18.261  26.951   3.823
20099W        W91715  10.665  38.935   4.604
20100W        W91716  33.443  13.953   1.881
20101W        W91717  44.675  35.649  14.425
20102W        W91718  13.083  24.678  13.849
20103W        W91719  15.257  41.957  11.954
20104W        W91720  18.809  25.523  12.939
20105W        W91721  17.564  32.886   0.264
20106W        W91722  11.108   0.673  10.976
20107W        W91723  25.008  41.955  14.397
20108W        W91724  33.926  38.519  11.349
20109W        W91725  36.243  12.781  11.593
20110W        W91726  35.009  42.355  11.407
20111W        W91727  15.248  35.408   4.625
20112W        W91728  11.711  31.736  13.900
20113W        W91729  32.615  12.032   1.277
20114W        W91730  16.997  22.337   3.281
20115W        W91731  22.949  19.610  13.861
20116W        W91732   2.471   5.613  14.859
20117W        W91733  37.319  36.336   4.137
20118W        W91734  31.997   5.805  13.798
20119W        W91735  24.466   4.878   3.550
20120W        W91736   6.665  14.135  11.697
20121W        W91737   3.610  27.489   0.401
20122W        W91738  35.547  39.832  11.551
20123W        W91739  19.136   0.107   3.671
20124W        W91740  26.056  41.507   1.716
20125W        W91741  15.094  37.185  11.511
20126W        W91742  12.957  28.639  14.515
20127W        W91743  22.539  43.069  10.702
20128W        W91744  36.308  22.629  13.988
20129W        W91745  32.908   5.855  11.978
20130W        W91746  32.615  41.337  12.032
20131W        W91747  21.957  34.065   0.847
20132W        W91748  24.385  26.464   4.543
20133W        W91749  39.353  33.637  10.923
20134W        W91750  31.903   9.377   1.799
20135W        W91751  29.190  30.651   3.279
20136W        W91752  21.291  13.274   1.964
20137W        W91753  23.527  30.489   4.338
20138W        W91754  16.692   7.593   1.874
20139W        W91755  11.811  41.471   0.881
20140W        W91756  18.026  33.717   4.086
20141W        W91757  28.606   9.447   0.415
20142W        W91758  41.255  23.958  13.889
20143W        W91759   7.609   3.415  10.257
20144W        W91760  23.873  19.724   3.544
20145W        W91761  13.895  16.648   3.978
20146W        W91762  38.964  20.247  14.815
20147W        W91763  31.541  20.490  14.502
20148W        W91764  20.737  27.855  10.479
20149W        W91765  26.686  20.847  11.594
20150W        W91766   9.818  37.689  14.387
20151W        W91767  27.044   6.430   3.475
20152W        W91768  30.622  43.866  12.535
20153W        W91769  39.898  20.952   1.757
20154W        W91770  10.458  35.917  14.883
20155W        W91771  41.511   9.995   2.235
20156W        W91772  41.018   8.985  10.726
20157W        W91773  12.111   5.873   4.835
20158W        W91774  20.309  37.504  12.432
20159W        W91775  11.884  41.383  13.501
20160W        W91776   3.500  40.032  12.064
20161W        W91777  24.779   0.749   2.162
20162W        W91778  20.721   2.823   4.095
20163W        W91779   5.044  24.436  12.606
20164W        W91780  25.228  41.872   4.627
20165W        W91781   4.429  35.782  14.021
20166W        W91782  38.456  37.171  11.881
20167W        W91783  34.043  23.731   1.702
20168W        W91784  39.888  34.451   3.785
20169W        W91785  24.872   2.108   1.947
20170W        W91786  22.753  31.423   3.162
20171W        W91787  41.021  17.388   0.491
20172W        W91788  30.907  19.606  14.725
20173W        W91789   9.586   1.487  11.964
20174W        W91790  42.776  38.785  14.021
20175W        W91791  13.233   5.378   0.774
20176W        W91792   1.544  42.292   0.222
20177W        W91793  26.706  15.327   1.900
20178W        W91794  27.958  23.260  14.938
20179W        W91795  18.631  44.359  14.975
20180W        W91796   8.090   7.875  11.172
20181W        W91797  44.059  40.300  12.860
20182W        W91798  25.120  44.870  13.830
20183W        W91799  29.197  44.539  13.826
20184W        W91800  19.838  15.223   2.847
20185W        W91801   0.207  16.318   3.769
20186W        W91802   6.435  13.178  13.305
20187W        W91803  11.540  44.470  11.530
20188W        W91804   5.076  24.158  11.923
20189W        W91805  31.066  27.091  12.513
20190W        W91806  11.665  38.977   1.327
20191W        W91807  41.747  39.520  13.373
20192W        W91808  21.367  12.194   2.400
20193W        W91809  42.099   5.690   0.513
20194W        W91810  16.579  28.153  11.091
20195W        W91811  12.881   4.896   1.853
20196W        W91812  34.640   1.397   5.449
20197W        W91813  19.372  23.591   3.637
20198W        W91814  37.776   6.371   1.616
20199W        W91815  14.373  16.026  14.968
20200W        W91816  27.511  32.418   3.192
20201W        W91817   9.800  40.681  13.883
20202W        W91818  26.014   6.228   0.521
20203W        W91819  31.574   0.691  11.504
20204W        W91820   2.291  25.797   5.432
20205W        W91821  21.635  14.587   2.376
20206W        W91822  23.075  13.794  14.479
20207W        W91823   8.250   4.442  13.330
20208W        W91824   3.907  12.684  10.596
20209W        W91825   1.652  12.306  12.461
20210W        W91826  34.531  20.787   2.003
20211W        W91827  10.779   3.170   2.824
20212W        W91828   1.299   9.796   2.712
20213W        W91829   8.087  12.180  11.072
20214W        W91830  44.835  37.885  14.275
20215W        W91831  21.391  10.343   2.885
20216W        W91832  23.461  34.326  13.027
20217W        W91833  14.183  27.795  13.991
20218W        W91834  39.813  26.004  11.476
20219W        W91835  22.067  12.055   3.546
20220W        W91836   2.880  37.885  13.558
20221W        W91837   8.159  22.765   3.285
20222W        W91838  31.097  35.386   4.617
20223W        W91839  42.868   5.903   0.502
20224W        W91840   6.460  37.287   3.635
20225W        W91841  45.000   4.496   0.275
20226W        W91842  32.449  26.516   4.216
20227W        W91843  39.679  13.111  14.991
20228W        W91844   6.149   2.239  11.362
20229W        W91845   0.895  35.153  10.710
20230W        W91846  29.600  29.077  10.456
20231W        W91847   9.723  24.056   4.668
20232W        W91848  24.245   7.494   0.895
20233W        W91849  20.800  10.787  11.636
20234W        W91850   0.804  26.526   3.215
20235W        W91851   8.444  18.253   0.823
20236W        W91852  44.209  28.394  13.771
20237W        W91853   1.376  25.414  11.605
20238W        W91854   9.231  27.968   0.901
20239W        W91855  41.568   1.532   0.459
20240W        W91856  40.296  39.275   2.693
20241W        W91857  14.528  28.576  13.457
20242W        W91858  31.467  28.504  13.926
20243W        W91859  15.460   6.198  13.497
20244W        W91860  32.350  19.845   2.194
20245W        W91861  28.083  21.039   4.215
20246W        W91862  29.058  34.954   3.986
20247W        W91863   9.932  19.855  13.562
20248W        W91864  28.102  17.860   0.673
20249W        W91865  10.167  44.844   0.778
20250W        W91866  36.606  22.821  11.062
20251W        W91867  19.993   4.637  10.008
20252W        W91868  12.887  13.773   2.771
20253W        W91869  29.621  33.160   0.420
20254W        W91870  23.176  41.712   4.494
20255W        W91871  26.299  19.043  14.847
20256W        W91872   7.324   6.840   0.033
20257W        W91873   4.662  34.070   2.295
20258W        W91874  23.944  29.718  11.147
20259W        W91875  37.109  32.644   1.513
20260W        W91876   0.496  22.997  13.077
20261W        W91877  43.598  27.901   2.778
20262W        W91878   7.450  34.951  14.820
20263W        W91879  31.538  37.035  14.590
20264W        W91880   5.222  13.117  13.666
20265W        W91881  27.890   3.770  14.409
20266W        W91882  21.047  38.805  11.917
20267W        W91883  18.013  17.793  10.431
20268W        W91884  15.354   2.855   2.288
20269W        W91885   8.596  17.655  12.926
20270W        W91886   9.444  25.065   1.981
20271W        W91887  13.318  41.454  10.693
20272W        W91888  26.208  36.418  13.976
20273W        W91889  14.317  26.046  13.445
20274W        W91890  24.868  34.850   5.303
20275W        W91891  13.804  34.619  11.170
20276W        W91892  41.534  23.721  13.271
20277W        W91893  42.728  14.213  11.449
20278W        W91894   8.677  43.769  10.612
20279W        W91895   4.001  30.582   1.410
20280W        W91896  19.828  16.088  13.725
20281W        W91897  18.205  22.193  13.322
20282W        W91898  39.092  19.746  14.899
20283W        W91899  20.618  12.698  10.637
20284W        W91900  12.126  34.098   0.253
20285W        W91901  17.741  42.343  12.538
20286W        W91902  22.005   2.953   3.227
20287W        W91903  16.438  29.059   0.987
20288W        W91904  20.665  34.962  12.085
20289W        W91905   0.418  20.244  14.973
20290W        W91906  44.142  23.577   1.668
20291W        W91907  43.847   9.702   0.243
20292W        W91908  29.907  12.385   2.198
20293W        W91909  19.029  38.386  14.704
20294W        W91910  25.381   4.283   1.764
20295W        W91911  23.817  36.550   3.711
20296W        W91912  29.193   8.323  10.633
20297W        W91913  36.967  14.111  11.887
20298W        W91914  39.891  17.758  11.989
20299W        W91915  33.882  14.184  12.543
20300W        W91916  15.325  25.198  13.725
20301W        W91917  31.645  33.682   1.940
20302W        W91918  29.419   4.243  13.534
20303W        W91919  22.139  24.802   0.343
20304W        W91920  30.491  43.647   2.289
20305W        W91921  28.638  37.585  10.708
20306W        W91922  41.521  17.182   4.611
20307W        W91923   5.502  40.457  12.487
20308W        W91924  14.438  39.441   3.056
20309W        W91925  18.266  42.285   3.102
20310W        W91926  29.139  12.863   1.129
20311W        W91927  19.823   1.841  14.034
20312W        W91928  26.150  10.611  10.706
20313W        W91929  28.389  17.043   2.891
20314W        W91930  13.108  20.263  14.222
20315W        W91931  29.055  37.518   2.211
20316W        W91932  18.489   7.451   3.894
20317W        W91933   6.153  42.404  14.475
20318W        W91934  43.452  44.749   2.350
20319W        W91935  19.627  30.523   4.039
20320W        W91936   4.999  23.551  12.674
20321W        W91937   4.803   3.432  10.683
20322W        W91938  28.446  30.491  12.553
20323W        W91939  10.969  35.349   4.052
20324W        W91940   3.305  32.850  11.437
20325W        W91941  39.215  24.031   3.725
20326W        W91942  12.548  32.017   2.330
20327W        W91943   3.494  21.633  11.554
20328W        W91944  39.807  27.099   3.692
20329W        W91945  18.745   5.481   1.755
20330W        W91946   5.260  42.085  11.180
20331W        W91947  29.737  32.102  11.699
20332W        W91948   7.315  18.480   0.325
20333W        W91949  18.370  19.787  11.132
20334W        W91950  12.574   0.938   3.691
20335W        W91951  14.257  21.986  10.758
20336W        W91952  34.911  38.326   3.801
20337W        W91953  18.299  26.619   0.900
20338W        W91954  29.532  19.854   1.021
20339W        W91955  30.884   2.732   3.648
20340W        W91956  29.135  37.477   3.629
20341W        W91957  23.194   5.027  11.983
20342W        W91958  44.776  34.635  12.522
20343W        W91959  12.277  10.286  11.167
20344W        W91960  20.211  27.561   1.476
20345W        W91961  44.940  13.182  10.619
20346W        W91962  13.800  22.944  13.331
20347W        W91963  38.302  34.454  14.030
20348W        W91964  44.407  22.527  11.209
20349W        W91965   8.256  12.198  14.466
20350W        W91966  20.517  20.201   0.856
20351W        W91967  10.654  26.469  13.455
20352W        W91968  23.193  16.362   0.772
20353W        W91969  12.052   7.702  11.537
20354W        W91970  28.122  41.766   0.889
20355W        W91971  15.882  23.067   4.668
20356W        W91972  39.927  19.226  13.145
20357W        W91973  35.416  21.152   5.087
20358W        W91974  33.069  25.175  10.280
20359W        W91975  17.195   8.941  11.465
20360W        W91976  35.525  42.685   3.203
20361W        W91977   4.239  35.026   3.226
20362W        W91978  15.709  15.197  14.016
20363W        W91979   5.215   6.730   0.353
20364W        W91980  21.596   9.129   0.947
20365W        W91981   8.760   8.304  12.889
20366W        W91982   6.871  16.401   0.832
20367W        W91983  25.285   4.985  14.913
20368W        W91984  23.525  36.366  12.013
20369W        W91985  31.678  31.608  11.095
20370W        W91986  19.711  21.298   3.686
20371W        W91987   9.356   7.281   2.619
20372W        W91988  41.528  11.332  14.901
20373W        W91989   1.235   2.135   1.806
20374W        W91990  12.932   1.883  12.487
20375W        W91991   0.762  21.000   2.692
20376W        W91992  38.309  37.576   3.737
20377W        W91993  28.939   2.876   1.270
20378W        W91994  39.155  21.152   0.178
20379W        W91995  27.300  20.986   5.001
20380W        W91996  36.614  41.700   5.008
20381W        W91997  19.846  35.262   3.232
20382W        W91998  42.813  42.141   4.410
20383W        W91999  16.693  21.543  14.999
20384W        W92000   8.235  38.924   3.805
20385W        W92001  29.034   2.252  13.621
20386W        W92002  11.705  43.757  11.120
20387W        W92003  25.437   2.362   1.266
20388W        W92004   8.316  36.615  13.898
20389W        W92005  41.109  18.140  14.611
20390W        W92006   6.891  20.407  12.348
20391W        W92007   1.075   0.841   2.345
20392W        W92008  44.726   0.196   3.175
20393W        W92009  31.907  21.789  13.562
20394W        W92010  34.191  21.026  11.611
20395W        W92011   3.919   6.635  11.649
20396W        W92012  14.017   3.914   1.052
20397W        W92013  31.514   5.644  11.712
20398W        W92014  32.883  36.707   2.459
20399W        W92015  40.925   2.303   1.717
20400W        W92016  16.855  32.703   4.151
20401W        W92017  16.005  34.877  13.858
20402W        W92018   3.286  19.505  12.022
20403W        W92019  29.040   5.116  13.347
20404W        W92020  13.449  12.746   1.661
20405W        W92021  35.526  32.605  13.915
20406W        W92022   9.843  23.595   2.888
20407W        W92023  42.203  10.856  14.850
20408W        W92024  37.902  24.318   2.257
20409W        W92025  34.950  15.384   3.326
20410W        W92026   6.837   0.458   2.191
20411W        W92027  18.522  22.529   2.328
20412W        W92028   0.303  31.158   0.787
20413W        W92029  19.745  33.220   2.674
20414W        W92030  35.983  24.988  11.683
20415W        W92031   6.558  17.272   3.072
20416W        W92032  16.320  34.378   2.445
20417W        W92033  18.237  43.509  14.819
20418W        W92034   8.689  30.072   1.382
20419W        W92035  34.922  26.994   2.112
20420W        W92036  30.003  11.365   2.295
20421W        W92037   1.641   2.654   0.795
20422W        W92038  40.047   5.007   1.273
20423W        W92039   7.441  33.156   4.322
20424W        W92040  34.930  35.197  12.046
20425W        W92041  21.209  30.017  12.628
20426W        W92042  19.386  44.425  11.449
20427W        W92043  12.888  41.626  12.013
20428W        W92044   4.390   0.278  14.390
20429W        W92045  36.951   1.446  12.894
20430W        W92046  13.338  38.504   3.330
20431W        W92047  10.547  39.752   3.254
20432W        W92048   1.286  19.514  11.127
20433W        W92049  24.912  24.651   0.939
20434W        W92050  17.181  37.306   2.292
20435W        W92051  11.148  13.857  13.425
20436W        W92052  29.680   3.904  11.096
20437W        W92053  24.443  15.754  11.659
20438W        W92054  35.534  36.003  13.373
20439W        W92055  10.758  28.212  11.205
20440W        W92056   2.117  13.173  12.341
20441W        W92057  36.815   1.287  10.381
20442W        W92058   9.760  20.991   0.662
20443W        W92059  13.335  26.407  14.468
20444W        W92060  24.301  10.682  10.629
20445W        W92061  42.049  35.429   4.773
20446W        W92062  21.550  35.322  13.420
20447W        W92063  37.838  31.913   1.816
20448W        W92064   7.776  14.237   3.579
20449W        W92065  15.753   6.179   9.766
20450W        W92066   5.214  16.800  12.267
20451W        W92067  41.650  17.141  10.742
20452W        W92068   6.461   1.436   2.830
20453W        W92069  32.402  30.605   0.328
20454W        W92070  28.515  40.027  14.399
20455W        W92071  26.325  36.353  12.613
20456W        W92072  17.093   3.016  14.347
20457W        W92073  43.775  15.894   2.469
20458W        W92074  19.381  39.738  11.681
20459W        W92075  38.316  43.492  13.443
20460W        W92076  32.999  43.406  12.057
20461W        W92077  14.796  10.472   3.731
20462W        W92078   4.400  19.199  11.597
20463W        W92079  16.788  39.823  13.398
20464W        W92080   3.448   2.371  14.830
20465W        W92081   3.224  33.041   1.317
20466W        W92082  40.502   9.845  14.129
20467W        W92083  33.850  21.044  13.389
20468W        W92084  33.170  38.053  11.987
20469W        W92085  30.088  29.724   4.555
20470W        W92086  31.988  27.487   4.677
20471W        W92087  20.440  28.423  13.372
20472W        W92088  18.341  34.003   0.531
20473W        W92089  43.051   5.904   2.798
20474W        W92090  24.614  19.744  12.463
20475W        W92091  43.383   0.859   3.853
20476W        W92092   6.275  37.670   4.955
20477W        W92093   9.155   6.667  14.332
20478W        W92094  18.318  28.157  10.648
20479W        W92095  41.371  13.836   4.702
20480W        W92096  41.821  31.629  11.521
20481W        W92097  31.746   8.820   0.121
20482W        W92098  17.488  16.100   0.751
20483W        W92099  39.035  38.471   4.484
20484W        W92100   7.839   0.758   4.088
20485W        W92101  35.511  30.085   2.490
20486W        W92102  13.794  14.535  12.598
20487W        W92103  15.508  40.111  11.455
20488W        W92104  14.394  34.749  10.546
20489W        W92105  24.600   0.176   0.285
20490W        W92106  23.318  41.451   1.324
20491W        W92107  16.078  31.404  13.448
20492W        W92108  14.726  19.295  11.499
20493W        W92109   3.974  22.435  14.256
20494W        W92110  17.517  26.751   0.236
20495W        W92111  33.962   1.052  14.503
20496W        W92112  14.038  25.753  11.126
20497W        W92113  37.910  24.199  11.276
20498W        W92114  22.512  42.409   0.961
20499W        W92115  21.061  18.513   4.868
20500W        W92116   3.834  42.602  14.309
20501W        W92117  38.057  26.224  12.697
20502W        W92118  44.440   1.218  11.020
20503W        W92119  24.225   1.441  13.848
20504W        W92120  43.443  24.550   2.729
20505W        W92121  29.578  21.993   2.385
20506W        W92122   7.155  25.029  11.922
20507W        W92123   3.461  25.409  12.348
20508W        W92124   0.422  44.521   2.330
20509W        W92125   6.268  28.070   1.768
20510W        W92126  35.346  22.950   3.613
20511W        W92127  26.318  43.723   1.869
20512W        W92128  38.559   7.933  12.222
20513W        W92129  29.886  34.574  12.084
20514W        W92130  42.458  14.662  10.558
20515W        W92131   2.750  27.412   1.054
20516W        W92132  32.678   4.251   3.005
20517W        W92133  29.513  26.683   4.217
20518W        W92134  35.337  37.873   3.179
20519W        W92135  14.309  23.489  13.432
20520W        W92136  15.020  44.432  12.311
20521W        W92137  10.834   9.687  11.386
20522W        W92138  30.777   9.096   4.999
20523W        W92139  24.265  40.434   1.379
20524W        W92140   9.884   7.981  13.450
20525W        W92141  18.171   8.026  14.260
20526W        W92142  37.483  31.055  13.962
20527W        W92143   4.377  21.596  12.938
20528W        W92144  19.001  39.546  11.958
20529W        W92145  15.726   1.509   4.648
20530W        W92146  18.765  30.585  11.751
20531W        W92147  19.083  32.945   1.533
20532W        W92148  40.240  21.542  12.450
20533W        W92149  44.455  30.456  11.719
20534W        W92150   7.582  11.376   3.233
20535W        W92151  38.897  25.572  12.556
20536W        W92152   4.678  10.354   0.337
20537W        W92153  19.899  31.803  10.750
20538W        W92154  37.101  37.674   2.748
20539W        W92155   6.706  12.084  14.911
20540W        W92156  37.457  36.711   3.113
20541W        W92157  24.447  39.168  13.073
20542W        W92158   1.895  35.663  14.711
20543W        W92159  39.412  34.931  10.696
20544W        W92160  28.996  32.843   4.758
20545W        W92161  14.030  21.948   4.098
20546W        W92162  31.838  30.028   2.699
20547W        W92163  16.766  33.614   3.519
20548W        W92164   2.780  18.122  14.712
20549W        W92165  20.103  27.796   3.318
20550W        W92166  33.255   7.271   4.607
20551W        W92167  44.821  11.913   0.294
20552W        W92168  12.423  36.673  13.397
20553W        W92169  25.978  31.465  12.526
20554W        W92170   1.971  13.384   2.882
20555W        W92171  27.515  35.773  11.859
20556W        W92172  26.114  21.658  11.955
20557W        W92173  31.521   7.803  11.906
20558W        W92174  36.129   9.285   2.633
20559W        W92175  12.790  27.718   4.226
20560W        W92176  29.689  21.224  14.672
20561W        W92177   5.883  43.386   2.597
20562W        W92178  33.435  26.704  13.909
20563W        W92179  30.577  11.574   0.881
20564W        W92180  12.791   1.231  14.447
20565W        W92181  35.928  27.351   4.048
20566W        W92182  30.924  39.857   1.730
20567W        W92183   8.167  34.364  11.060
20568W        W92184  43.603  24.432   1.357
20569W        W92185  39.067  20.419   1.482
20570W        W92186  35.930  44.912   0.405
20571W        W92187  37.109  17.678  11.872
20572W        W92188  17.795  10.867   3.615
20573W        W92189   8.867  39.999   2.925
20574W        W92190   4.540  23.717  12.453
20575W        W92191  10.682  22.223  12.190
20576W        W92192  41.918  33.253  14.769
20577W        W92193  29.009  23.064   0.199
20578W        W92194  38.815  14.861  12.697
20579W        W92195   0.342   5.217  11.925
20580W        W92196  25.160   7.743  11.581
20581W        W92197   3.264  29.971   3.963
20582W        W92198  34.332  28.596   0.515
20583W        W92199   5.199  22.620  10.230
20584W        W92200  21.482  19.208  14.000
20585W        W92201  23.978  10.819   1.256
20586W        W92202   4.149   4.955   3.253
20587W        W92203  15.773  32.135   3.695
20588W        W92204  43.475   4.499   2.407
20589W        W92205  26.681  29.479   4.403
20590W        W92206  25.579  29.171   4.612
20591W        W92207  18.283   6.020   2.907
20592W        W92208  20.120  17.514   2.262
20593W        W92209   7.181  41.731  12.015
20594W        W92210   7.369  23.181   4.536
20595W        W92211   3.700   0.689   2.912
20596W        W92212   7.708  18.265   3.730
20597W        W92213  22.318  19.759   2.787
20598W        W92214  34.358  40.526  10.819
20599W        W92215  20.109   1.006  11.568
20600W        W92216  23.694  19.998   2.935
20601W        W92217   5.044  21.692  14.904
20602W        W92218  36.004  14.153   4.893
20603W        W92219  31.874  13.684   0.816
20604W        W92220  15.934  12.422   4.368
20605W        W92221  37.956   9.645   2.144
20606W        W92222  43.851  43.062   2.042
20607W        W92223   2.223   7.694  13.294
20608W        W92224  27.753   3.434   2.832
20609W        W92225   2.749  16.639   1.805
20610W        W92226  10.707   2.199  10.578
20611W        W92227  19.583   9.371  13.477
20612W        W92228  30.405  17.128  12.435
20613W        W92229  16.531  44.409  13.983
20614W        W92230   0.006  11.875   4.303
20615W        W92231  12.145  16.730  12.535
20616W        W92232  44.449  36.079   2.214
20617W        W92233  12.104  24.099  12.856
20618W        W92234   1.116  15.835   0.666
20619W        W92235   0.496  23.520   3.616
20620W        W92236   3.982  17.457  11.181
20621W        W92237   6.519  37.018  14.768
20622W        W92238   9.952  21.666  13.897
20623W        W92239  15.063  10.589  12.344
20624W        W92240  37.382  42.853   4.760
20625W        W92241  15.099  44.489   4.057
20626W        W92242  15.561  33.454   0.325
20627W        W92243  14.180   1.036   3.182
20628W        W92244  24.035  37.545  12.518
20629W        W92245  23.087   3.457   4.589
20630W        W92246  40.980  29.191  11.977
20631W        W92247  37.408  29.950  14.585
20632W        W92248  20.044  44.337  14.346
20633W        W92249  25.220   2.394  12.749
20634W        W92250   2.963  39.562   2.648
20635W        W92251  38.070   4.333   0.316
20636W        W92252  42.800  19.570   0.299
20637W        W92253  15.650  35.186  13.369
20638W        W92254  14.114  19.074  13.402
20639W        W92255  21.228   8.763   3.571
20640W        W92256  25.456  44.327   1.749
20641W        W92257  26.981   6.369  14.619
20642W        W92258  15.820   1.155   2.201
20643W        W92259   2.831   7.537   2.763
20644W        W92260  12.463  33.636   3.347
20645W        W92261  24.202  30.600   1.465
20646W        W92262  27.849  35.888   9.923
20647W        W92263  32.426   7.776   4.557
20648W        W92264   6.604  39.628  11.172
20649W        W92265  19.096  39.373  14.999
20650W        W92266  40.539  44.022   1.302
20651W        W92267   5.794  19.329  11.702
20652W        W92268  22.481  10.614  12.500
20653W        W92269  12.066  15.426   2.486
20654W        W92270  21.849  35.068   0.414
20655W        W92271  31.922  11.858  13.838
20656W        W92272  34.409  22.584   1.648
20657W        W92273  10.405  25.737  10.809
20658W        W92274  32.899  23.462  12.559
20659W        W92275  40.801   1.180   4.636
20660W        W92276  23.965  26.083  11.015
20661W        W92277  27.894  26.987  11.545
20662W        W92278  36.029   5.300  13.358
20663W        W92279  12.421  26.017  14.404
20664W        W92280   6.365  21.243   3.253
20665W        W92281  25.676  43.253   3.205
20666W        W92282   3.918  15.780   0.257
20667W        W92283  42.484  15.032   3.253
20668W        W92284  17.071  42.971   0.833
20669W        W92285  12.323  25.065  11.576
20670W        W92286  35.958  32.985   0.281
20671W        W92287  23.130   4.912   2.494
20672W        W92288  17.706  21.103  11.635
20673W        W92289  41.304  32.190   3.361
20674W        W92290  31.008  37.900   4.405
20675W        W92291  16.369  12.306   0.920
20676W        W92292  33.381  38.939   1.510
20677W        W92293  42.213  10.391  11.201
20678W        W92294   3.019   0.687   0.419
20679W        W92295  40.907  43.473  13.239
20680W        W92296  14.085  38.378  14.427
20681W        W92297  24.111  17.388   4.169
20682W        W92298  43.615  38.392  13.929
20683W        W92299  43.010  27.881  11.974
20684W        W92300   3.496  40.467  13.568
20685W        W92301  16.328  14.747  14.360
20686W        W92302  21.776  33.367   1.241
20687W        W92303  21.557  43.733   2.863
20688W        W92304  28.877  11.944  11.686
20689W        W92305  41.505  25.656   4.141
20690W        W92306  12.604  44.617  12.929
20691W        W92307   4.705  18.587   4.171
20692W        W92308   3.069   3.774   1.794
20693W        W92309   8.724  25.284   3.579
20694W        W92310  35.957  12.689  12.902
20695W        W92311   0.895  39.582   2.847
20696W        W92312   4.729  14.117   2.215
20697W        W92313  21.308  36.842  12.062
20698W        W92314  33.834  31.711  13.488
20699W        W92315   2.818   4.783  14.220
20700W        W92316  33.406  14.789   2.330
20701W        W92317   0.279   2.677  14.092
20702W        W92318   7.335  35.575   4.877
20703W        W92319  21.550   4.378   0.219
20704W        W92320   9.456  35.937  10.255
20705W        W92321  13.134  34.091  12.398
20706W        W92322  21.303  11.553  11.115
20707W        W92323  41.444   8.768  14.753
20708W        W92324   0.984   8.821   2.729
20709W        W92325  31.055  19.405  12.973
20710W        W92326  23.225  33.638   4.435
20711W        W92327   5.030  29.235  14.199
20712W        W92328  15.617  36.175   4.612
20713W        W92329  42.790  32.722   2.733
20714W        W92330  17.046  25.682   3.799
20715W        W92331  30.692  36.976  11.106
20716W        W92332  18.040  28.655   2.784
20717W        W92333   1.213   3.856  10.592
20718W        W92334  34.482  32.907  12.083
20719W        W92335  30.837  36.500   0.069
20720W        W92336   8.406  13.690   2.507
20721W        W92337  29.485   8.138  11.013
20722W        W92338  32.735  12.291   4.555
20723W        W92339   7.151  18.277  14.101
20724W        W92340  10.765   9.718   0.842
20725W        W92341  37.674  13.866  14.343
20726W        W92342  40.844   8.367  11.032
20727W        W92343  15.782  34.555   3.675
20728W        W92344  28.104  31.443   2.475
20729W        W92345  16.750  40.817   4.097
20730W        W92346  25.695  19.633  13.951
20731W        W92347  18.567  23.030  10.188
20732W        W92348  32.988   6.287   0.015
20733W        W92349  22.115  23.041   0.506
20734W        W92350  29.371   9.971   3.749
20735W        W92351   2.948   4.142   3.169
20736W        W92352  43.490  39.106  10.979
20737W        W92353  22.782  21.901  14.321
20738W        W92354   2.928  13.883  14.963
20739W        W92355  16.949  29.460  14.965
20740W        W92356  42.359  22.122  12.470
20741W        W92357  19.067   9.605   0.244
20742W        W92358  12.656  25.708  12.037
20743W        W92359  40.938   9.773  14.946
20744W        W92360  22.055  28.200  10.949
20745W        W92361  34.932   2.664  11.103
20746W        W92362  24.892  14.881   5.042
20747W        W92363  28.974  15.853   3.223
20748W        W92364  13.433  23.431  13.765
20749W        W92365   0.816  12.752   2.151
20750W        W92366   9.763  22.136   1.178
20751W        W92367  23.963  23.209   0.476
20752W        W92368   3.755  33.066   1.225
20753W        W92369   9.207  11.655  11.557
20754W        W92370   0.587   3.838  12.473
20755W        W92371  23.641  44.477   0.337
20756W        W92372   8.195  10.350   1.006
20757W        W92373  22.653  38.557   0.755
20758W        W92374  43.100  26.539  12.852
20759W        W92375  42.444  10.919  12.117
20760W        W92376  42.921  31.367  14.933
20761W        W92377  20.759  33.782   2.223
20762W        W92378  15.274  41.550   2.221
20763W        W92379  11.673   4.712  12.941
20764W        W92380  28.199  11.370  11.973
20765W        W92381  26.305  44.441  10.856
20766W        W92382  34.117  27.275   2.406
20767W        W92383  43.087  36.004   3.141
20768W        W92384  15.335  16.385   4.989
20769W        W92385  35.431   6.445   3.793
20770W        W92386  37.996  11.556  14.323
20771W        W92387  42.572   1.068  11.044
20772W        W92388  16.310  26.115   2.850
20773W        W92389   4.782  27.362   3.174
20774W        W92390  16.597  31.964  14.819
20775W        W92391  14.752  17.815  13.603
20776W        W92392  10.908  32.011   0.409
20777W        W92393  24.771  20.209   0.947
20778W        W92394  41.060   2.236   0.062
20779W        W92395  41.854  16.653  11.648
20780W        W92396  37.992   1.762   3.704
20781W        W92397  26.954  15.801  12.762
20782W        W92398  23.160   2.721  13.095
20783W        W92399  32.668  29.736   9.831
20784W        W92400  16.066   1.874   3.120
20785W        W92401  38.388  14.958   0.835
20786W        W92402   0.253   2.682   3.309
20787W        W92403  13.400  29.269   4.627
20788W        W92404  10.593  37.401   0.318
20789W        W92405  25.932  24.215   1.598
20790W        W92406   4.567  38.041  10.455
20791W        W92407  22.746  13.259  12.119
20792W        W92408  38.073  35.470   3.169
20793W        W92409  14.634   3.907   4.212
20794W        W92410  27.420  13.990   5.481
20795W        W92411   3.455   0.608  12.846
20796W        W92412   2.334   7.740   3.437
20797W        W92413  34.553   3.639  14.757
20798W        W92414  20.156   4.419  12.873
20799W        W92415   0.552  10.735   4.848
20800W        W92416   5.631  25.619  10.658
20801W        W92417  28.122  36.998   4.732
20802W        W92418   7.818  27.393  11.914
20803W        W92419  11.960   8.851  14.563
20804W        W92420  27.296  13.538   4.819
20805W        W92421  14.745  28.989   0.956
20806W        W92422  42.290   9.686   1.671
20807W        W92423  21.640  13.105   4.743
20808W        W92424   9.192  39.843   0.854
20809W        W92425   8.328  41.335  14.412
20810W        W92426  15.998   5.983   2.816
20811W        W92427  35.898  34.323  11.512
20812W        W92428   0.498   7.329   4.112
20813W        W92429   6.720   2.387   3.653
20814W        W92430  21.110   0.986   2.856
20815W        W92431  44.252  39.897  10.184
20816W        W92432  25.574  14.735  12.042
20817W        W92433   1.026  32.900  12.459
20818W        W92434   0.350  43.714  12.582
20819W        W92435  11.418   8.724   0.673
20820W        W92436  22.707   1.041  12.414
20821W        W92437   9.835  19.684   2.818
20822W        W92438   4.896  39.304  13.468
20823W        W92439   3.631  37.472   3.901
20824W        W92440  15.075   0.372  14.189
20825W        W92441  35.466  34.637   2.413
20826W        W92442  25.303  22.044  14.422
20827W        W92443  20.764  13.843   4.656
20828W        W92444  42.765   8.157  13.509
20829W        W92445  13.717  25.222   4.485
20830W        W92446  22.072  15.256  14.022
20831W        W92447   5.241  13.360  10.716
20832W        W92448   0.268  21.159   4.408
20833W        W92449  44.452   7.764  12.803
20834W        W92450   7.680   4.972   1.796
20835W        W92451  22.719  42.824  10.237
20836W        W92452  12.373  27.062   2.153
20837W        W92453   2.948  30.554  11.869
20838W        W92454  42.554  20.152  12.511
20839W        W92455  16.104  32.435   2.199
20840W        W92456  19.708  24.247   3.303
20841W        W92457  40.416  16.735  10.372
20842W        W92458   3.308  26.596  14.086
20843W        W92459   4.614   4.011  14.464
20844W        W92460  27.714  28.479   4.096
20845W        W92461  17.294  12.315  14.960
20846W        W92462  14.710   5.224  14.410
20847W        W92463  27.912  31.510   0.928
20848W        W92464   9.213   0.808   0.218
20849W        W92465  43.018  13.094  12.922
20850W        W92466  40.319  41.478  13.410
20851W        W92467   9.299  31.814   1.804
20852W        W92468  24.642   9.277  10.783
20853W        W92469  36.389  10.071  10.688
20854W        W92470  22.401  19.493  12.793
20855W        W92471  25.266   4.902  14.396
20856W        W92472   5.931  36.834   3.077
20857W        W92473  37.257   5.328  10.378
20858W        W92474  22.092  36.331   1.943
20859W        W92475   2.951  29.702   2.665
20860W        W92476   2.652   4.210   0.457
20861W        W92477  18.743  27.460   0.350
20862W        W92478  11.256  22.003  11.491
20863W        W92479  33.328  35.563   1.514
20864W        W92480  40.878  21.488  11.901
20865W        W92481   7.375  12.349  12.809
20866W        W92482  11.540  43.913  12.418
20867W        W92483  40.485   7.218  14.523
20868W        W92484  28.299  44.550   3.310
20869W        W92485  38.476   7.408  12.153
20870W        W92486  37.495  26.249  10.550
20871W        W92487  25.895  12.789   4.260
20872W        W92488   5.770   5.634  11.705
20873W        W92489  28.045  26.943  14.408
20874W        W92490  38.638  41.416   3.677
20875W        W92491   7.870  29.196   5.001
20876W        W92492  38.138  37.011  13.258
20877W        W92493  26.531  10.702   4.167
20878W        W92494  28.464  34.737  10.654
20879W        W92495   4.006  15.168  14.791
20880W        W92496  37.578  17.614  14.333
20881W        W92497   1.223  13.759  12.409
20882W        W92498  37.590  30.565  10.676
20883W        W92499  18.521  32.507   4.613
20884W        W92500   6.976   5.870  13.958
20885W        W92501  15.066   1.374  14.887
20886W        W92502  10.354  10.333   4.317
20887W        W92503  41.450   0.558   1.898
20888W        W92504  28.963   3.328   1.559
20889W        W92505  29.358  24.080   3.964
20890W        W92506  16.771  20.041  14.780
20891W        W92507   5.936  33.671   1.009
20892W        W92508  30.100  35.441  10.718
20893W        W92509  32.098  38.792   1.021
20894W        W92510  31.450   0.749  12.775
20895W        W92511  33.325   9.229   0.939
20896W        W92512  28.324  22.696   1.423
20897W        W92513  11.140   3.856   4.130
20898W        W92514  38.916  44.310  11.548
20899W        W92515  28.538  22.248   4.627
20900W        W92516  19.983  41.036   3.136
20901W        W92517   4.258  13.127   3.647
20902W        W92518   6.417  40.563   1.794
20903W        W92519  10.630   8.790  10.409
20904W        W92520   8.467  34.122   0.115
20905W        W92521  31.202  35.050  12.902
20906W        W92522  13.371  19.711  12.495
20907W        W92523  11.723  42.177   0.320
20908W        W92524  39.140  38.665  14.299
20909W        W92525  20.289   1.467  13.482
20910W        W92526  14.329  23.260   3.716
20911W        W92527  24.995  36.825  11.814
20912W        W92528  41.087  42.353  11.057
20913W        W92529   1.679  37.471  14.295
20914W        W92530  10.683  13.563   4.035
20915W        W92531  25.589  41.960   4.979
20916W        W92532  41.886  17.641   1.901
20917W        W92533  31.544  19.261   4.352
20918W        W92534   5.487  42.188  11.650
20919W        W92535  41.885   2.720  12.502
20920W        W92536   5.496  20.028  12.094
20921W        W92537  44.077  25.930   3.764
20922W        W92538  37.033   9.652   4.172
20923W        W92539  34.310  37.035   2.313
20924W        W92540  18.125   7.390   1.660
20925W        W92541  23.192  41.867  11.979
20926W        W92542   6.905  41.254   3.257
20927W        W92543  17.989  21.743  13.932
20928W        W92544  31.652   7.928  12.399
20929W        W92545   1.169  40.136   3.171
20930W        W92546   9.147  26.465  12.881
20931W        W92547   9.299   9.796  11.585
20932W        W92548  10.605  38.285  14.515
20933W        W92549  26.162  29.139  11.860
20934W        W92550   3.578   5.440  11.160
20935W        W92551   9.387  12.345   4.616
20936W        W92552  21.390  31.472  12.089
20937W        W92553   5.173  31.805   1.308
20938W        W92554  29.569  22.146   0.962
20939W        W92555  34.867  11.557  12.393
20940W        W92556   9.665  30.548  14.578
20941W        W92557  44.918  20.303   2.823
20942W        W92558  32.508  23.901   1.799
20943W        W92559  14.344  17.153   5.123
20944W        W92560  17.802  18.197  11.300
20945W        W92561  12.650  23.505  11.113
20946W        W92562  13.408   8.843  11.173
20947W        W92563  37.364  11.980   0.801
20948W        W92564  11.910  36.935   2.691
20949W        W92565  36.818   5.255   3.411
20950W        W92566  33.804  28.915  12.514
20951W        W92567  39.068  11.198   4.369
20952W        W92568   8.290   4.796   3.374
20953W        W92569   1.958  20.648  10.624
20954W        W92570   7.622  41.896  11.281
20955W        W92571  40.068  31.542  10.425
20956W        W92572  43.903  35.588   4.698
20957W        W92573   7.355   4.856   1.356
20958W        W92574   0.630  31.444   4.229
20959W        W92575  26.113  33.111  14.792
20960W        W92576  13.080   4.351  11.151
20961W        W92577  26.444  21.153   2.710
20962W        W92578   0.332  10.947   2.227
20963W        W92579  17.127  11.990   4.990
20964W        W92580  31.629   6.703  12.923
20965W        W92581  33.654  39.935   3.438
20966W        W92582  41.524  18.943  12.886
20967W        W92583   3.738  29.894  14.687
20968W        W92584  32.623   2.944   2.211
20969W        W92585   3.899   9.013  13.365
20970W        W92586  19.111  20.223  13.459
20971W        W92587   0.389  34.539   0.191
20972W        W92588   7.253  42.265  11.124
20973W        W92589  13.101  43.943   4.522
20974W        W92590  43.971  26.261  11.433
20975W        W92591  38.609  24.535   2.466
20976W        W92592   4.000  30.018  12.106
20977W        W92593  26.998  12.677   2.670
20978W        W92594  35.828  15.871  11.719
20979W        W92595  15.061  42.948   0.724
20980W        W92596  14.647  20.085  11.940
20981W        W92597  25.055  35.419  13.506
20982W        W92598  32.120  16.964  11.574
20983W        W92599   8.114   8.737  12.421
20984W        W92600  43.891  28.122   4.931
20985W        W92601  43.641  27.495  10.951
20986W        W92602  14.827  31.821   4.180
20987W        W92603  34.919  43.722   2.155
20988W        W92604   9.060  39.412   1.644
20989W        W92605   2.735  14.183  13.324
20990W        W92606  44.211  25.493  13.521
20991W        W92607   5.636  34.797   0.058
20992W        W92608  44.323   0.689   2.411
20993W        W92609   5.733  13.303  12.850
20994W        W92610   8.364   3.869  12.624
20995W        W92611  26.196  10.276  12.019
20996W        W92612  28.001  27.219  11.094
20997W        W92613  26.375  16.812  11.061
20998W        W92614  38.461  17.881  12.185
20999W        W92615  38.997  17.816  10.795
21000W        W92616  27.340   7.370  11.948
21001W        W92617  43.931  38.178  11.706
21002W        W92618  29.998  21.358  13.406
21003W        W92619   2.317  28.190  13.755
21004W        W92620  19.584  41.864   5.043
21005W        W92621  41.314  30.657   1.348
21006W        W92622  40.432  10.270  10.978
21007W        W92623   8.146  22.243  12.427
21008W        W92624  26.678   8.791  14.893
21009W        W92625  22.975  32.261   4.645
21010W        W92626  14.323  32.034   1.455
21011W        W92627   9.375  41.231   2.400
21012W        W92628  33.918  27.405  11.535
21013W        W92629  17.775  28.965   1.910
21014W        W92630  13.120  25.496  14.222
21015W        W92631  28.371  22.647   3.424
21016W        W92632  12.069  28.061   0.430
21017W        W92633  41.472   4.530   2.820
21018W        W92634  13.388  40.702  14.479
21019W        W92635   6.350  19.700   0.557
21020W        W92636  42.199  35.089  14.826
21021W        W92637  10.902  43.775  11.764
21022W        W92638  44.766  20.210   0.323
21023W        W92639  37.063  33.588   1.221
21024W        W92640  39.865  14.307  10.900
21025W        W92641  12.313  30.682  12.608
21026W        W92642   6.307   2.887  10.592
21027W        W92643   5.421  44.984  12.900
21028W        W92644   8.777  41.675   1.853
21029W        W92645  10.273  28.700   1.420
21030W        W92646  41.257   6.692   1.294
21031W        W92647  21.190  20.740  11.548
21032W        W92648  43.348  22.743   3.341
21033W        W92649   0.433  11.864   3.463
21034W        W92650   0.422  42.182   4.447
21035W        W92651  42.601  35.120   4.189
21036W        W92652  19.115  26.057   4.355
21037W        W92653  11.331  17.645  12.640
21038W        W92654  10.203  35.687  12.643
21039W        W92655   5.669  19.607   2.372
21040W        W92656  31.496  12.777   2.640
21041W        W92657  26.127  31.468  11.179
21042W        W92658  34.208  31.431   4.541
21043W        W92659   1.027  13.011   1.739
21044W        W92660  28.930  20.422   4.650
21045W        W92661  11.694  22.251   1.373
21046W        W92662  31.183  23.139  10.972
21047W        W92663  13.282  12.656  11.543
21048W        W92664   4.688  23.081  14.417
21049W        W92665  20.614  41.006  10.554
21050W        W92666  10.314   5.359  14.961
21051W        W92667  44.787  41.923  12.385
21052W        W92668  23.976  26.646   2.430
21053W        W92669  28.990  16.675   0.835
21054W        W92670  33.347  14.847  12.943
21055W        W92671  15.427  33.945  13.069
21056W        W92672  22.785  29.622   0.938
21057W        W92673  22.956   6.656  13.612
21058W        W92674   1.748  32.001  12.932
21059W        W92675  25.556  13.328  13.124
21060W        W92676  24.204   3.178   4.542
21061W        W92677  25.143   9.758   3.243
21062W        W92678  29.471  32.152  12.118
21063W        W92679  24.704  21.134   0.800
21064W        W92680  22.083  32.648   3.612
21065W        W92681  41.828  20.719  12.660
21066W        W92682  37.717  28.824   2.579
21067W        W92683  19.788  13.476  13.375
21068W        W92684  43.377  33.989   3.823
21069W        W92685  36.409   1.800  14.035
21070W        W92686  13.784  30.480   0.797
21071W        W92687  38.320  19.978   3.788
21072W        W92688  21.565   5.922   1.509
21073W        W92689  18.567  36.328  12.825
21074W        W92690  29.577   5.603   3.709
21075W        W92691  41.798  17.804   1.364
21076W        W92692  34.371  12.132   2.724
21077W        W92693  14.088  14.153   4.242
21078W        W92694  21.492  28.265  12.491
21079W        W92695  12.850  12.787  10.753
21080W        W92696  32.636  18.624   4.330
21081W        W92697  11.862  17.735  11.657
21082W        W92698  34.854   0.749  10.291
21083W        W92699   7.693   3.531  13.367
21084W        W92700  27.543   5.173   1.902
21085W        W92701  11.127  25.248   2.395
21086W        W92702  43.727  39.428  13.017
21087W        W92703  19.263   2.299   2.678
21088W        W92704  30.134  11.121  14.331
21089W        W92705  17.641  13.247   2.930
21090W        W92706   8.858  28.662  14.731
21091W        W92707  16.430   7.297  13.537
21092W        W92708  21.065  25.152  13.779
21093W        W92709  41.382   3.911   0.425
21094W        W92710  20.026   5.260  13.929
21095W        W92711   0.355  39.590   0.767
21096W        W92712   1.752   3.547  11.169
21097W        W92713   8.066  23.761  11.450
21098W        W92714  32.330  43.084  11.105
21099W        W92715  17.118  29.521   1.478
21100W        W92716   5.309   6.440  13.731
21101W        W92717  26.635  34.189  11.128
21102W        W92718  29.969   1.294  14.403
21103W        W92719   0.802  37.937   2.296
21104W        W92720  20.674   5.181  11.941
21105W        W92721  10.230   1.238   4.628
21106W        W92722  25.257   2.954  13.563
21107W        W92723  28.658  42.284  14.842
21108W        W92724  39.475  15.934   1.362
21109W        W92725  14.706  10.841  14.081
21110W        W92726  43.401   3.254   4.687
21111W        W92727   6.905  37.177   3.389
21112W        W92728  31.416  12.567  11.986
21113W        W92729   4.876  38.973  12.127
21114W        W92730  35.142   9.265   3.599
21115W        W92731  18.994  18.780   4.719
21116W        W92732   9.311  30.856   0.371
21117W        W92733  37.022  34.900   3.787
21118W        W92734  29.417  39.978   3.229
21119W        W92735   6.337   9.083  11.593
21120W        W92736  24.678  21.007   3.684
21121W        W92737  19.488  29.765   2.740
21122W        W92738  29.598  29.824   5.484
21123W        W92739  36.512  12.323   3.679
21124W        W92740  36.303  23.666   4.865
21125W        W92741  19.149   7.324  11.451
21126W        W92742  12.896  44.571   4.609
21127W        W92743  39.254  42.406  11.592
21128W        W92744  27.597  38.928   3.791
21129W        W92745  17.223  42.752   4.347
21130W        W92746   6.015  10.542   1.209
21131W        W92747  19.445  28.637   3.263
21132W        W92748  25.163   7.116  10.707
21133W        W92749  31.320  26.115  14.061
21134W        W92750   7.651  29.398   1.397
21135W        W92751  17.533  27.930   1.691
21136W        W92752  15.248  26.777   3.325
21137W        W92753   5.192  12.276  10.665
21138W        W92754  28.188  18.576  13.084
21139W        W92755   6.528   0.392  13.797
21140W        W92756  42.732  37.412  10.418
21141W        W92757  14.765  39.937  11.202
21142W        W92758  35.441   0.017   0.314
21143W        W92759  16.634  44.338   3.872
21144W        W92760  22.226  14.163   1.003
21145W        W92761  35.550  44.074  11.620
21146W        W92762  35.863  18.811   4.479
21147W        W92763  30.693  38.539   1.771
21148W        W92764  34.167  28.930   2.967
21149W        W92765  29.818  42.260   0.300
21150W        W92766  22.060  11.992   4.078
21151W        W92767  39.856  22.937  11.802
21152W        W92768  44.635  26.378  13.374
21153W        W92769  23.986  43.824   0.254
21154W        W92770  42.544  23.638  12.937
21155W        W92771  16.739  39.110   1.874
21156W        W92772  31.722  12.353   0.811
21157W        W92773   5.218  14.367  10.716
21158W        W92774   6.557   1.907   1.951
21159W        W92775  17.641  31.642  12.429
21160W        W92776  43.906  26.665   1.914
21161W        W92777  24.218  13.881   3.149
21162W        W92778   1.001   5.859   4.023
21163W        W92779  34.637  15.635   3.660
21164W        W92780  27.291  31.623  14.308
21165W        W92781  26.420  32.708   3.921
21166W        W92782  21.575  26.429  10.997
21167W        W92783  25.054   9.111  11.624
21168W        W92784   7.753  21.375  13.781
21169W        W92785  42.474  16.925  12.174
21170W        W92786   8.087  16.268   4.488
21171W        W92787  25.552  25.071   2.394
21172W        W92788  15.247  10.211   3.704
21173W        W92789  38.160  12.754  12.085
21174W        W92790  20.588  16.193  12.362
21175W        W92791  26.799   1.215   0.451
21176W        W92792  23.101  25.640  11.609
21177W        W92793   5.751  30.589  13.529
21178W        W92794   7.973  10.210   1.475
21179W        W92795  26.730  14.886   0.917
21180W        W92796  37.572  29.225   1.288
21181W        W92797  36.518   9.189   1.714
21182W        W92798  13.120  21.525   0.379
21183W        W92799  17.656  40.586  11.862
21184W        W92800  32.109  26.290  13.629
21185W        W92801  25.598  37.321   0.905
21186W        W92802  42.205  13.793  13.340
21187W        W92803   1.428  43.504  11.697
21188W        W92804  21.606  15.338   1.277
21189W        W92805   1.844  29.112  11.950
21190W        W92806  35.453  33.614  14.059
21191W        W92807  21.478  22.059   1.005
21192W        W92808  40.833  28.738   1.305
21193W        W92809  23.193   9.978   9.956
21194W        W92810  22.927  15.897   2.884
21195W        W92811  20.149  38.350  14.317
21196W        W92812  10.869  15.372   0.199
21197W        W92813  25.009  37.304  13.870
21198W        W92814  39.865  33.721  11.965
21199W        W92815  25.923  17.645  11.066
21200W        W92816   9.261  42.361   1.498
21201W        W92817  18.307  44.377   0.908
21202W        W92818  30.648  12.636   2.250
21203W        W92819  41.352   1.891   4.460
21204W        W92820   4.713  20.499  13.544
21205W        W92821  23.997  43.518   0.937
21206W        W92822  36.232  28.894   0.753
21207W        W92823  13.597  26.866  11.595
21208W        W92824  35.498   1.004   0.278
21209W        W92825  30.220   0.517   2.305
21210W        W92826  35.994  24.692   1.593
21211W        W92827  41.561  25.092  14.698
21212W        W92828   0.298   4.680   3.260
21213W        W92829  28.115  41.031  14.061
21214W        W92830   6.558  34.614   4.121
21215W        W92831  23.279  29.396  13.357
21216W        W92832  43.364   4.507   1.908
21217W        W92833  39.943  39.859   2.361
21218W        W92834  26.543  29.706   0.284
21219W        W92835  15.700  40.086   2.796
21220W        W92836   9.152  27.423   0.040
21221W        W92837  19.839  32.471  11.204
21222W        W92838  12.728  22.462  11.918
21223W        W92839   6.584  23.572  10.964
21224W        W92840   7.319  22.772   1.336
21225W        W92841   0.477  35.985   2.426
21226W        W92842  16.685  30.960  12.965
21227W        W92843  26.424  33.124   3.613
21228W        W92844  23.702  31.791   1.892
21229W        W92845  11.382  12.599  14.658
21230W        W92846   0.335  23.771   4.708
21231W        W92847  24.105   1.276   1.737
21232W        W92848  17.195  40.863   4.373
21233W        W92849  20.273  38.353  13.321
21234W        W92850  13.110  35.550  11.918
21235W        W92851  27.149  14.401   4.703
21236W        W92852  10.578  24.608  11.598
21237W        W92853  15.182   4.750  13.034
21238W        W92854  20.494  15.580  11.037
21239W        W92855  37.439  12.308   3.609
21240W        W92856  27.037  36.393  12.061
21241W        W92857  37.643  28.958  13.018
21242W        W92858  26.123  16.357  10.677
21243W        W92859  12.043  42.436  11.157
21244W        W92860   7.863  24.824   2.691
21245W        W92861   6.883  26.674   3.367
21246W        W92862   9.608  26.027   0.978
21247W        W92863  26.691   5.692   0.352
21248W        W92864  24.185  16.954  14.806
21249W        W92865  35.691  38.920   2.264
21250W        W92866  43.819  18.695  14.202
21251W        W92867  28.645   6.286  11.880
21252W        W92868  14.641  14.232   3.554
21253W        W92869   4.961  44.019  11.465
21254W        W92870   3.297  13.155   4.737
21255W        W92871  33.353  35.440   3.856
21256W        W92872  32.575   6.637  14.978
21257W        W92873  16.648   7.834   1.401
21258W        W92874  14.049   5.850   3.655
21259W        W92875   7.883  39.013   1.362
21260W        W92876   4.766  18.377  12.912
21261W        W92877   4.113  19.099   0.143
21262W        W92878  39.359   9.656  10.593
21263W        W92879  22.339  13.276  12.528
21264W        W92880  36.924  44.364  10.611
21265W        W92881   3.472  21.475  12.403
21266W        W92882   0.479  14.474  13.228
21267W        W92883  43.250  11.135  13.832
21268W        W92884  36.466  36.593   2.205
21269W        W92885  17.746  14.608  12.271
21270W        W92886  13.067  15.686   2.751
21271W        W92887  33.483   9.646   1.729
21272W        W92888   0.612  12.777  12.507
21273W        W92889  18.923  22.969  13.938
21274W        W92890  25.149  41.813  11.359
21275W        W92891  26.175  40.390  14.446
21276W        W92892  41.805   2.424  14.324
21277W        W92893  41.042  38.084  10.625
21278W        W92894  31.461  18.573   1.460
21279W        W92895   5.827  19.214   3.605
21280W        W92896  15.865  10.024   3.070
21281W        W92897  43.243  22.693  14.495
21282W        W92898  17.272  25.640   1.255
21283W        W92899  26.365  16.680   5.043
21284W        W92900  33.362   9.166  11.482
21285W        W92901  26.070   0.518   3.347
21286W        W92902  29.133  13.376  11.126
21287W        W92903  40.058  12.942   0.430
21288W        W92904  40.927  31.491   4.675
21289W        W92905  25.619  17.071  14.769
21290W        W92906  18.851   1.407  13.223
21291W        W92907  16.232  32.724  11.961
21292W        W92908  25.174  18.567  14.503
21293W        W92909  33.578  44.394  14.938
21294W        W92910  22.975  38.408  14.413
21295W        W92911  25.285  35.835   0.324
21296W        W92912  13.119  11.261   0.211
21297W        W92913   1.978  40.904   0.545
21298W        W92914   6.374  37.883  11.933
21299W        W92915   9.234  33.078  12.450
21300W        W92916  12.818  12.734  12.131
21301W        W92917   7.872  24.312   3.609
21302W        W92918  38.210  18.399  14.012
21303W        W92919  26.694  37.557   2.306
21304W        W92920  33.965  26.944   0.497
21305W        W92921  13.422  31.954  11.089
21306W        W92922  24.032  10.199   1.015
21307W        W92923   3.390  38.577   0.949
21308W        W92924  11.139  18.740   2.778
21309W        W92925   3.386  37.883   3.622
21310W        W92926  28.615  31.366  14.781
21311W        W92927  20.027   5.504   4.241
21312W        W92928  23.350  29.847   2.547
21313W        W92929  37.416  38.989   1.681
21314W        W92930  22.765  38.829   3.657
21315W        W92931   8.347  34.035   3.259
21316W        W92932   9.254  25.537  14.707
21317W        W92933  29.388  34.764  12.002
21318W        W92934  22.441  31.405  12.049
21319W        W92935  10.313  12.599  10.100
21320W        W92936  40.864  24.805   4.219
21321W        W92937   1.895   7.104   4.103
21322W        W92938  25.019   6.910  12.017
21323W        W92939  15.841   5.976  12.103
21324W        W92940  30.055  31.472   3.607
21325W        W92941   2.849  42.254  12.640
21326W        W92942  29.089  15.673   1.105
21327W        W92943   8.562  11.298   3.372
21328W        W92944  29.644  41.745  12.865
21329W        W92945  13.683   9.236   2.909
21330W        W92946  28.955  27.149  12.742
21331W        W92947  39.350  20.196  10.565
21332W        W92948  13.276  27.743   4.560
21333W        W92949  11.955  36.483  14.981
21334W        W92950   8.154   1.777   2.351
21335W        W92951  36.340  17.684   0.378
21336W        W92952   8.179  43.542   4.141
21337W        W92953  44.248  24.572  12.586
21338W        W92954  12.934   6.293  10.236
21339W        W92955  22.915  44.788  13.809
21340W        W92956  14.710  36.901   2.670
21341W        W92957  24.288  28.187   4.179
21342W        W92958  16.652   9.382  14.287
21343W        W92959  44.576   9.644  12.887
21344W        W92960   0.827   8.419  13.523
21345W        W92961  15.941  35.141   0.539
21346W        W92962   9.627  40.288  12.970
21347W        W92963  27.223  34.653  11.597
21348W        W92964   4.794  35.299  14.909
21349W        W92965  42.738  12.089   0.459
21350W        W92966  22.807   5.355  14.340
21351W        W92967  16.757  11.078   1.751
21352W        W92968  19.196  25.991   2.888
21353W        W92969  10.877  31.162   1.968
21354W        W92970  20.260   0.021  14.333
21355W        W92971  24.973  43.437   0.414
21356W        W92972  34.125  44.779  14.104
21357W        W92973  17.817  16.795  11.006
21358W        W92974  35.524  11.684   3.394
21359W        W92975   9.873  21.737  12.059
21360W        W92976   6.696  42.368   0.929
21361W        W92977   3.957  38.647   0.257
21362W        W92978  23.174   5.916   1.644
21363W        W92979  43.739   6.402   0.872
21364W        W92980  28.054  14.064  12.100
21365W        W92981  20.528  18.641  10.999
21366W        W92982  41.853  43.047   3.677
21367W        W92983  40.517  32.206   2.158
21368W        W92984  13.684  25.014  11.942
21369W        W92985  39.894  29.170   2.095
21370W        W92986  17.106  38.467  11.005
21371W        W92987  29.593  39.354   2.081
21372W        W92988  26.636  28.935  11.526
21373W        W92989  38.015   6.927   3.353
21374W        W92990  29.019  37.661   0.320
21375W        W92991   0.034   2.840  14.921
21376W        W92992  25.060  18.004   4.795
21377W        W92993  10.758   6.596  11.965
21378W        W92994  39.509  37.543  12.070
21379W        W92995  41.498  37.545   3.692
21380W        W92996  13.782  22.099  12.628
21381W        W92997  26.643  18.040  10.838
21382W        W92998  37.180  35.955   2.477
21383W        W92999   1.877  16.004  10.707
21384W        W93000  35.958   7.488   3.138
21385W        W93001  12.309  18.688  10.854
21386W        W93002  36.403  20.788   4.905
21387W        W93003  24.418  43.479   4.260
21388W        W93004   5.647   8.731   4.192
21389W        W93005  31.442   0.962  11.939
21390W        W93006   6.146  23.450  11.644
21391W        W93007  44.218   5.690   3.569
21392W        W93008  37.874   1.452  11.703
21393W        W93009  35.505   0.533   1.348
21394W        W93010  20.618  26.270   0.175
21395W        W93011  17.289   8.874   3.183
21396W        W93012  33.944  10.408  13.460
21397W        W93013  22.644   1.898  13.477
21398W        W93014   7.452  17.013   4.482
21399W        W93015   1.482  35.132  14.399
21400W        W93016  10.247  37.839  11.596
21401W        W93017  18.607  33.252  10.744
21402W        W93018   3.186   5.367  12.919
21403W        W93019  23.090   1.183  13.442
21404W        W93020  44.499  15.969  11.357
21405W        W93021  18.121  15.645   3.234
21406W        W93022  40.181  15.298  11.066
21407W        W93023   4.829   3.441   1.230
21408W        W93024  11.376   6.722  14.376
21409W        W93025   2.053  28.993  12.400
21410W        W93026   1.408  37.595   4.878
21411W        W93027  14.154  37.032  13.434
21412W        W93028  21.594  41.041  14.527
21413W        W93029  43.532  30.880  12.661
21414W        W93030   1.620  17.830   4.631
21415W        W93031  41.891  28.319  12.571
21416W        W93032  15.304  26.715  14.550
21417W        W93033  24.540  39.605   2.481
21418W        W93034  36.585  41.540   2.811
21419W        W93035  38.936  35.192   2.327
21420W        W93036  36.418  24.191  14.197
21421W        W93037  34.342  24.284  11.377
21422W        W93038  19.245  26.998   0.234
21423W        W93039  14.412  12.358   2.628
21424W        W93040  43.336  34.413  11.735
21425W        W93041  14.657   9.803  12.467
21426W        W93042  24.124  29.364  12.563
21427W        W93043  33.459  31.605   3.582
21428W        W93044  40.367  11.632  11.873
21429W        W93045  26.698  18.376  12.939
21430W        W93046   1.293  42.049  14.832
21431W        W93047   8.795  34.899  12.029
21432W        W93048  37.273  34.068   2.397
21433W        W93049  21.923  39.364  13.478
21434W        W93050  35.894  16.550   1.313
21435W        W93051  12.588  16.885   3.730
21436W        W93052  29.147   1.448  13.975
21437W        W93053  24.105  25.446   2.860
21438W        W93054  26.734  44.187  14.258
21439W        W93055  10.548  15.810   2.751
21440W        W93056  26.941  15.161  11.588
21441W        W93057  19.668  28.620   1.854
21442W        W93058  25.589  25.665  11.389
21443W        W93059   3.378  41.364   3.121
21444W        W93060  24.191   8.224   1.421
21445W        W93061  19.040  41.496   1.365
21446W        W93062   9.752   7.421  13.018
21447W        W93063  30.917   6.889  10.721
21448W        W93064   8.891   5.435   3.890
21449W        W93065  43.384  12.646   2.328
21450W        W93066   0.692   8.206   3.018
21451W        W93067  12.075  30.577   2.039
21452W        W93068  43.821  41.519   4.625
21453W        W93069  12.346  32.066  12.521
21454W        W93070  32.613   0.318   4.050
21455W        W93071  41.351  40.056  12.962
21456W        W93072  40.472  17.206  10.102
21457W        W93073   7.237  14.577  14.024
21458W        W93074  32.471  24.864   2.294
21459W        W93075  41.352  23.794   2.619
21460W        W93076  34.285   2.055   5.119
21461W        W93077  22.036   9.471  10.705
21462W        W93078  26.964  43.409   2.458
21463W        W93079  34.421   5.134  14.727
21464W        W93080  27.558  18.599   2.918
21465W        W93081  31.351  27.992  14.117
21466W        W93082  12.840  13.867   3.302
21467W        W93083  44.320  43.319  14.982
21468W        W93084  12.883  21.776   0.792
21469W        W93085  11.259  11.166   2.233
21470W        W93086  30.435  31.852  13.523
21471W        W93087  19.907  18.576   3.654
21472W        W93088   1.016   2.981  13.775
21473W        W93089  30.594  19.689  13.793
21474W        W93090  14.693   6.177  11.913
21475W        W93091  18.041  24.500   1.771
21476W        W93092   2.846  23.735   0.755
21477W        W93093  41.953  36.436  14.519
21478W        W93094  16.342  26.803  12.055
21479W        W93095  43.303  22.856  11.092
21480W        W93096   2.213  38.619   2.720
21481W        W93097  20.269   5.703   2.173
21482W        W93098  44.184  18.224   2.016
21483W        W93099  27.175   7.639  10.664
21484W        W93100  16.261  13.199  10.718
21485W        W93101  42.740  43.485  11.156
21486W        W93102  20.166  29.195   3.190
21487W        W93103   1.714   1.052  13.958
21488W        W93104  40.646  30.246   0.185
21489W        W93105  28.606  21.628  14.929
21490W        W93106  33.014  18.748   1.178
21491W        W93107   7.853  35.931  13.448
21492W        W93108  24.376   1.963   2.050
21493W        W93109  14.689  42.201  11.080
21494W        W93110  17.735  22.940  13.344
21495W        W93111  17.300  32.590  12.531
21496W        W93112  28.487  11.242  11.530
21497W        W93113  28.484  13.612  14.957
21498W        W93114  27.195  11.845  11.172
21499W        W93115  17.172   7.695  11.404
21500W        W93116  34.111  27.457   1.329
21501W        W93117  26.126  12.322   4.603
21502W        W93118   3.334  22.092   9.974
21503W        W93119  13.241  32.084  10.285
21504W        W93120  11.559  13.096  12.003
21505W        W93121   4.278  25.149   1.621
21506W        W93122  24.122   2.766   1.652
21507W        W93123  13.612  29.458  13.898
21508W        W93124  43.596  11.180   2.100
21509W        W93125  31.234   2.559   0.801
21510W        W93126  16.073  31.477   4.711
21511W        W93127  42.443  34.116   2.721
21512W        W93128  13.360   5.282  12.013
21513W        W93129  37.009  34.058   0.910
21514W        W93130  24.368   8.656   0.743
21515W        W93131  15.279   3.279   0.412
21516W        W93132  40.218  32.735  11.257
21517W        W93133  29.487  29.517   1.828
21518W        W93134  10.809  25.479  14.759
21519W        W93135  13.569  21.883  13.060
21520W        W93136  39.938  34.859  11.660
21521W        W93137   9.741  17.317  12.367
21522W        W93138  31.674  19.790   4.687
21523W        W93139  14.212  18.783   0.334
21524W        W93140   1.202  27.508   0.751
21525W        W93141   6.705  32.531  14.037
21526W        W93142   9.854  44.725  12.541
21527W        W93143  44.638  34.416   3.648
21528W        W93144  14.265  38.508   1.144
21529W        W93145  29.375  19.700  10.275
21530W        W93146  16.349  39.286   4.524
21531W        W93147  40.982   3.125  11.965
21532W        W93148  35.400  24.317  11.165
21533W        W93149   9.472  25.317  10.770
21534W        W93150  27.236  17.075  10.181
21535W        W93151  38.334  35.543   3.610
21536W        W93152  41.451  41.058  12.956
21537W        W93153   4.456  43.445  10.704
21538W        W93154   7.441  17.540   3.389
21539W        W93155  33.663  38.116  11.103
21540W        W93156  38.329   4.216  13.934
21541W        W93157  44.612  19.616   3.120
21542W        W93158   4.219  13.201  13.525
21543W        W93159  29.986  12.818  14.363
21544W        W93160  19.746  34.293  14.718
21545W        W93161  20.787  22.027  14.964
21546W        W93162  27.592  14.646   0.769
21547W        W93163  15.191  42.823   1.801
21548W        W93164  30.453  14.082   0.847
21549W        W93165   4.282  34.876  10.751
21550W        W93166  16.520  18.603  11.194
21551W        W93167  21.047  17.645   3.908
21552W        W93168  17.161  14.712  11.989
21553W        W93169  36.932  43.474   0.254
21554W        W93170  26.589   9.732   9.851
21555W        W93171  19.211  40.315  12.899
21556W        W93172   2.657  16.059  11.552
21557W        W93173   5.682  28.416  11.361
21558W        W93174  15.772  21.226   4.676
21559W        W93175  26.999  22.676  11.028
21560W        W93176  14.023   7.919   2.356
21561W        W93177  24.440   8.470   4.194
21562W        W93178   8.600  35.688   0.922
21563W        W93179  16.025   8.387   4.350
21564W        W93180  17.152  31.189  12.875
21565W        W93181  19.391  19.674   4.366
21566W        W93182  20.014   6.319  13.381
21567W        W93183  27.088   6.859  13.459
21568W        W93184  27.690   4.686   3.666
21569W        W93185   9.871   0.284  11.620
21570W        W93186  14.041  43.051   0.531
21571W        W93187  35.218  19.244  13.483
21572W        W93188   6.671  41.978  13.704
21573W        W93189   0.066   3.848  12.588
21574W        W93190   6.234  44.703  11.565
21575W        W93191  29.637  44.837   1.481
21576W        W93192   7.971   9.677  14.749
21577W        W93193  12.999  39.505  11.046
21578W        W93194   2.048   6.838   1.324
21579W        W93195   5.042   0.912   3.180
21580W        W93196   5.015   0.037  12.135
21581W        W93197   0.370   6.925  12.683
21582W        W93198  35.120  16.893   3.132
21583W        W93199   1.756  33.111  12.977
21584W        W93200  36.329  15.772   3.045
21585W        W93201  32.986  25.244   2.885
21586W        W93202  40.828  41.347  11.179
21587W        W93203  37.520  15.290   1.448
21588W        W93204  18.280  12.842   2.623
21589W        W93205  33.040  28.490  14.985
21590W        W93206  41.788  43.571  11.913
21591W        W93207  26.923  13.253   5.280
21592W        W93208  33.399  11.550   0.253
21593W        W93209  22.524  37.994  11.181
21594W        W93210  26.860  26.533  12.626
21595W        W93211  15.976  34.630   4.694
21596W        W93212  30.924   8.119   1.802
21597W        W93213  19.894  41.947  12.421
21598W        W93214  14.375  30.978  11.050
21599W        W93215   2.448  16.535   2.763
21600W        W93216  23.728  44.805  12.067
21601W        W93217  27.019  30.439  12.905
21602W        W93218  44.795  17.194  11.409
21603W        W93219   4.638  25.599  10.603
21604W        W93220   0.311  35.043  12.498
21605W        W93221  12.367  26.848  13.123
21606W        W93222   9.703   7.140   0.977
21607W        W93223  36.464  21.956  13.443
21608W        W93224  17.568  26.066  11.279
21609W        W93225  24.268  37.823   2.606
21610W        W93226   0.753  29.441   1.296
21611W        W93227  29.001  40.719  14.000
21612W        W93228   0.826  34.835  13.435
21613W        W93229  10.755  36.862  14.296
21614W        W93230  38.600   8.099   0.778
21615W        W93231   6.795  39.306   4.614
21616W        W93232  10.948  26.632   4.543
21617W        W93233  42.927  25.503   4.724
21618W        W93234   7.388  30.940   2.900
21619W        W93235  36.533  25.822  14.403
21620W        W93236  33.579   2.620  12.639
21621W        W93237  16.519  33.860  12.078
21622W        W93238  10.305  31.198   0.708
21623W        W93239  43.603  39.913   0.912
21624W        W93240  17.269  27.324   3.973
21625W        W93241  19.975  31.878   3.734
21626W        W93242  43.944  22.015  11.423
21627W        W93243  23.610  22.399   4.121
21628W        W93244  15.095   0.846  11.604
21629W        W93245   3.277   1.144   1.258
21630W        W93246   9.933  43.225  13.492
21631W        W93247  32.400  29.166   3.099
21632W        W93248  14.375  24.732   0.580
21633W        W93249  27.506  40.955   0.371
21634W        W93250   3.749  43.825  14.903
21635W        W93251  38.017   7.392  11.083
21636W        W93252  41.468  31.752   3.116
21637W        W93253  40.615  43.047  13.219
21638W        W93254  41.487  37.546   4.593
21639W        W93255  21.248   5.278   2.387
21640W        W93256  30.006  10.845   2.257
21641W        W93257  21.640   2.946   4.071
21642W        W93258   5.287  10.765   3.895
21643W        W93259  31.578  10.295  14.626
21644W        W93260  30.921   4.899   1.463
21645W        W93261  26.450  30.610  10.223
21646W        W93262   6.080  35.075  12.081
21647W        W93263  23.732   2.146   2.152
21648W        W93264  18.160  25.550   3.657
21649W        W93265  10.599   5.312  12.212
21650W        W93266   7.281  32.331   4.712
21651W        W93267  10.322  14.039   2.914
21652W        W93268  15.387   0.113  14.531
21653W        W93269  11.861  23.474   0.889
21654W        W93270  37.454  36.942   4.771
21655W        W93271  37.933  25.665   4.569
21656W        W93272  19.670   1.562   1.688
21657W        W93273  15.705  20.075   4.656
21658W        W93274  22.095  35.564   0.293
21659W        W93275  10.431   4.803  14.781
21660W        W93276  24.764  23.808  11.075
21661W        W93277  38.608  42.787   0.910
21662W        W93278  11.730   8.085   2.651
21663W        W93279  43.885  10.273  14.005
21664W        W93280  44.526  42.081   4.934
21665W        W93281   1.406  15.738  11.207
21666W        W93282  26.889   3.401   4.180
21667W        W93283   4.210  14.523   1.763
21668W        W93284  19.697  29.127   3.410
21669W        W93285  27.787  17.313   5.116
21670W        W93286   7.621  37.549   3.170
21671W        W93287  40.396  18.555  13.540
21672W        W93288   8.873  10.727   2.265
21673W        W93289   4.921  16.266   1.816
21674W        W93290  32.404   3.364  12.086
21675W        W93291  14.077  27.075  10.698
21676W        W93292  18.266  40.359   0.512
21677W        W93293   2.812   0.401  10.702
21678W        W93294  32.019  19.441  10.510
21679W        W93295  31.912  35.928   1.802
21680W        W93296  36.019  37.155   4.937
21681W        W93297  21.030  33.388  11.561
21682W        W93298  19.227   0.748   0.153
21683W        W93299   2.978  42.521   2.697
21684W        W93300  15.272  35.930  10.784
21685W        W93301   6.283   0.481   3.702
21686W        W93302  24.982  21.691  13.932
21687W        W93303  41.439  29.343  14.460
21688W        W93304   1.164  36.028  10.421
21689W        W93305  40.916  12.172  10.669
21690W        W93306  29.513  40.858  12.879
21691W        W93307   8.640  17.548  12.426
21692W        W93308  10.741  42.770  11.987
21693W        W93309   5.633  20.239  14.400
21694W        W93310  12.796  10.114  12.939
21695W        W93311  40.911  43.339   1.217
21696W        W93312   4.580  19.814  14.213
21697W        W93313   4.870  25.690  11.420
21698W        W93314  35.807  12.874   1.546
21699W        W93315  14.655  19.036   0.298
21700W        W93316   2.658  13.451  13.539
21701W        W93317  20.087  29.362  14.899
21702W        W93318  17.473  21.400   2.420
21703W        W93319   7.199   5.211   0.395
21704W        W93320   8.210  11.234   2.351
21705W        W93321  32.390   4.450   1.485
21706W        W93322  19.074  44.949   0.442
21707W        W93323  39.411  27.997   2.714
21708W        W93324  29.690  40.384  10.474
21709W        W93325  15.823  14.693   2.109
21710W        W93326   9.878  21.536  11.546
21711W        W93327  26.869   3.893   2.599
21712W        W93328  41.082  41.605  11.549
21713W        W93329  26.776  35.498   3.763
21714W        W93330  20.795  16.817   2.636
21715W        W93331  33.050  24.691   1.691
21716W        W93332  20.114  17.199  11.462
21717W        W93333  10.320  43.556  11.985
21718W        W93334  29.454   5.783  13.508
21719W        W93335  37.661   3.981   4.191
21720W        W93336   5.800  17.354   1.706
21721W        W93337  39.328   2.072   2.158
21722W        W93338   5.203   5.260  13.138
21723W        W93339  33.414  10.853   1.434
21724W        W93340   0.406  20.549   1.418
21725W        W93341  39.674  18.773   0.383
21726W        W93342  39.008  17.253  11.537
21727W        W93343  15.627   7.189  10.678
21728W        W93344  20.258  33.891  13.813
21729W        W93345  12.245  37.345  12.235
21730W        W93346  29.669  17.682  14.948
21731W        W93347   4.898  12.908   1.325
21732W        W93348   3.234  32.325   9.787
21733W        W93349  23.455  36.068   1.828
21734W        W93350   1.332   4.430   4.484
21735W        W93351  17.768   8.382   4.599
21736W        W93352  19.632   5.578   2.883
21737W        W93353  12.176  36.373  12.365
21738W        W93354  33.889   8.903   1.759
21739W        W93355  40.795  10.519   4.817
21740W        W93356  22.735   4.276  13.959
21741W        W93357  40.998  24.317  12.627
21742W        W93358  15.357   5.521  14.979
21743W        W93359   5.267  41.989  13.330
21744W        W93360  11.058  30.143   0.422
21745W        W93361  19.347  38.880  14.883
21746W        W93362  24.111   2.851  10.913
21747W        W93363  15.883  28.236   5.003
21748W        W93364  13.844  14.073  12.870
21749W        W93365  13.738   1.885   2.474
21750W        W93366  14.597  36.428   3.572
21751W        W93367  16.574   7.102  13.089
21752W        W93368  32.239  44.193  10.404
21753W        W93369   7.030  33.914   0.226
21754W        W93370  32.549  41.001   1.906
21755W        W93371   4.166  43.320  12.949
21756W        W93372   5.753  43.179  12.045
21757W        W93373  42.070   1.898   2.244
21758W        W93374  27.538  19.737  13.337
21759W        W93375  18.686  43.534   3.381
21760W        W93376  26.780  22.957   0.423
21761W        W93377  42.374  20.522  11.047
21762W        W93378  25.176  33.469  12.424
21763W        W93379  37.514  44.724   0.183
21764W        W93380  25.674  43.850  12.898
21765W        W93381  37.059  19.165   2.218
21766W        W93382  34.597  37.206  11.010
21767W        W93383  31.971  37.942   0.743
21768W        W93384  44.440  29.454  11.482
21769W        W93385  24.580  35.883   4.659
21770W        W93386   0.562  23.787   1.592
21771W        W93387  39.763  37.608  11.167
21772W        W93388  32.493  28.555   4.399
21773W        W93389  25.177  26.246  14.890
21774W        W93390  15.757  27.652  11.166
21775W        W93391  17.072  40.223  11.278
21776W        W93392  28.086  22.094   0.285
21777W        W93393  34.960  21.036  14.563
21778W        W93394  30.989  27.710   1.623
21779W        W93395  21.695  35.139   1.631
21780W        W93396   9.413  44.787   1.882
21781W        W93397  21.362   7.204  12.900
21782W        W93398  19.201   3.632  11.509
21783W        W93399   0.363  36.042   0.164
21784W        W93400  15.607  20.770  14.418
21785W        W93401  15.146   3.865   1.794
21786W        W93402  12.125  22.478  11.569
21787W        W93403   4.127   9.363   3.641
21788W        W93404  10.822   2.859  14.629
21789W        W93405  18.247   0.259   4.661
21790W        W93406  34.395  22.140  12.402
21791W        W93407  42.729   6.898  13.945
21792W        W93408  34.378   9.230  14.784
21793W        W93409  41.851   3.344  14.250
21794W        W93410  38.162   3.415   4.739
21795W        W93411  11.967   4.367  14.429
21796W        W93412  33.414  27.947   2.394
21797W        W93413  18.249  35.002  13.593
21798W        W93414   1.501   3.290  11.535
21799W        W93415  18.716  44.554  10.678
21800W        W93416  14.578  43.029  14.726
21801W        W93417  29.516  17.987  13.052
21802W        W93418   0.873  11.629   4.108
21803W        W93419   3.454  14.214   3.303
21804W        W93420  26.579  19.527  11.369
21805W        W93421   5.481  21.076   0.896
21806W        W93422   5.300  41.841  11.967
21807W        W93423  27.361  23.758   4.157
21808W        W93424  26.189   7.202   3.369
21809W        W93425  35.063  33.538   3.216
21810W        W93426  26.147  11.862  11.197
21811W        W93427  34.938   1.190  10.768
21812W        W93428  27.249  10.619  13.946
21813W        W93429   8.751   4.397  13.251
21814W        W93430  23.021  30.023   0.108
21815W        W93431  43.406   2.902  11.497
21816W        W93432  13.659  11.215  10.719
21817W        W93433  41.901  23.721   2.909
21818W        W93434   9.387  23.067  14.867
21819W        W93435  25.172  43.530  10.538
21820W        W93436   3.201  44.366  13.787
21821W        W93437   1.380   0.851   2.792
21822W        W93438   4.759  11.416  12.071
21823W        W93439  12.994   5.494   1.597
21824W        W93440  26.162  14.061   2.682
21825W        W93441   8.374   2.915   2.697
21826W        W93442   5.919  32.192  10.148
21827W        W93443  12.067  42.743  10.221
21828W        W93444  31.975  11.369  14.500
21829W        W93445  39.179   8.776  14.547
21830W        W93446  30.612  34.846   1.273
21831W        W93447  31.555  43.593  10.080
21832W        W93448  26.194  19.836  11.224
21833W        W93449  10.587  29.577   0.349
21834W        W93450  40.400  33.248  14.356
21835W        W93451  18.178   9.857   1.197
21836W        W93452  24.947  17.549  12.901
21837W        W93453  43.612  36.895  12.031
21838W        W93454  30.056   2.672   2.676
21839W        W93455  44.895  10.914  14.455
21840W        W93456   3.416  29.573   3.652
21841W        W93457  12.927  34.585  13.596
21842W        W93458  19.671  33.387  12.452
21843W        W93459  28.187  35.844  14.424
21844W        W93460  40.994   8.008  14.537
21845W        W93461  39.063  41.356   0.821
21846W        W93462   5.806  23.177   4.223
21847W        W93463  20.542  34.487  13.417
21848W        W93464  32.426  13.638  12.153
21849W        W93465  41.479  28.640  13.027
21850W        W93466   7.994  14.650  14.536
21851W        W93467  16.589  14.219   0.369
21852W        W93468   7.164   5.206  12.479
21853W        W93469  33.632  22.964   0.772
21854W        W93470  41.582  17.239   3.696
21855W        W93471  28.402  28.138  13.107
21856W        W93472  25.102  10.127   1.199
21857W        W93473  33.379  33.662   5.033
21858W        W93474  43.563  28.961  12.487
21859W        W93475   0.184  17.716   0.815
21860W        W93476   7.466  27.075  11.541
21861W        W93477   4.966   7.121   2.864
21862W        W93478   6.977  19.211   4.119
21863W        W93479  43.614  10.625  11.949
21864W        W93480  21.381  19.720   1.692
21865W        W93481  14.872  39.268  14.327
21866W        W93482  16.135  12.665  14.744
21867W        W93483  40.728  21.152   4.589
21868W        W93484   9.370   3.316   0.743
21869W        W93485  30.599  18.317   3.915
21870W        W93486  25.697  14.723   3.264
21871W        W93487  32.309  33.397   3.667
21872W        W93488  23.719   5.220  12.882
21873W        W93489  41.022  29.908   0.583
21874W        W93490   2.567  42.736  13.086
21875W        W93491  31.642  27.639   3.309
21876W        W93492   0.223  31.868  10.689
21877W        W93493  24.294  43.002   3.328
21878W        W93494  25.284  33.002  11.232
21879W        W93495  37.635   8.828   4.173
21880W        W93496  19.134  37.347  14.621
21881W        W93497   2.856  30.333  13.719
21882W        W93498  32.926   4.050  14.297
21883W        W93499  30.970  28.644  13.804
21884W        W93500   0.235  28.197  13.853
21885W        W93501  35.451   3.443  13.756
21886W        W93502  35.626  26.967   4.233
21887W        W93503  18.249  29.772  11.636
21888W        W93504  14.318   3.297  13.368
21889W        W93505  10.897  39.353   4.828
21890W        W93506   9.305  11.917  14.476
21891W        W93507   6.451  14.610   0.952
21892W        W93508  13.146  13.116  10.500
21893W        W93509   1.471  13.138  13.589
21894W        W93510   3.170  38.038   1.811
21895W        W93511  21.198   3.488   1.739
21896W        W93512  31.417  31.782  14.548
21897W        W93513  42.437   0.436   4.144
21898W        W93514  14.502  32.859  13.886
21899W        W93515   4.310  16.286   4.137
21900W        W93516  28.472  24.062   2.801
21901W        W93517  41.737  16.808  12.121
21902W        W93518  15.276  22.619  11.585
21903W        W93519   4.404  18.801  14.454
21904W        W93520  31.450  36.791  12.995
21905W        W93521   5.663  10.039  13.050
21906W        W93522  31.588  39.814  13.952
21907W        W93523  33.076   9.767   3.921
21908W        W93524  30.217   3.380  11.597
21909W        W93525   2.308  37.788  14.803
21910W        W93526  22.552  30.085   0.908
21911W        W93527  27.848  37.713  12.001
21912W        W93528   9.848   4.923  12.969
21913W        W93529  31.256  21.223  11.950
21914W        W93530  26.444  24.002  14.014
21915W        W93531  21.772  28.937   0.385
21916W        W93532  23.136  35.136  12.964
21917W        W93533  38.168  29.494   3.612
21918W        W93534   0.332  42.266  13.956
21919W        W93535  36.786   1.936  12.156
21920W        W93536   9.191  31.727  14.947
21921W        W93537  13.800  38.521  12.532
21922W        W93538  11.694  10.849   1.418
21923W        W93539  16.199  32.428   3.639
21924W        W93540  38.918  20.200  13.336
21925W        W93541  41.998   7.409   3.642
21926W        W93542  15.045  31.107  14.240
21927W        W93543  15.164  35.963   4.415
21928W        W93544  11.536  41.379  11.228
21929W        W93545  37.544   5.820  11.650
21930W        W93546  14.116   3.348   5.448
21931W        W93547   8.220   9.837  13.032
21932W        W93548   7.735  40.397   0.241
21933W        W93549  15.355  33.871  13.663
21934W        W93550  25.565  34.645   3.733
21935W        W93551  11.619  36.905  13.836
21936W        W93552   2.567  43.647  11.127
21937W        W93553  35.464  34.755   1.876
21938W        W93554  37.603   0.833  14.403
21939W        W93555  33.167  10.748  11.364
21940W        W93556  35.597   1.516  11.529
21941W        W93557  42.495  31.865   4.067
21942W        W93558  19.703  38.412   4.054
21943W        W93559  30.255  11.103   4.607
21944W        W93560  28.937  25.568  13.825
21945W        W93561  18.232   6.663   0.451
21946W        W93562  33.000  43.556  12.969
21947W        W93563  30.974  24.713   1.355
21948W        W93564  44.342  34.601  10.118
21949W        W93565  39.273   2.902  13.342
21950W        W93566  27.214  24.151  10.617
21951W        W93567  19.060  35.107   1.280
21952W        W93568  36.980  31.933   0.772
21953W        W93569  20.004  38.284  12.353
21954W        W93570  10.309  31.134   3.842
21955W        W93571  40.367   4.888   4.185
21956W        W93572  44.416   4.909   2.277
21957W        W93573   1.422  10.605   4.657
21958W        W93574  37.004   6.122   2.564
21959W        W93575   9.766   9.714   4.862
21960W        W93576  15.769  27.200   1.347
21961W        W93577  16.038  19.357  12.447
21962W        W93578   8.832  11.648  14.528
21963W        W93579  18.093   8.752   0.878
21964W        W93580   7.791  12.894  13.455
21965W        W93581  33.411   9.744  14.494
21966W        W93582  34.164  12.524   0.341
21967W        W93583  33.519  44.314   5.284
21968W        W93584  19.359  23.781  14.577
21969W        W93585  12.860  31.851   2.690
21970W        W93586  21.210   9.876   2.807
21971W        W93587   2.016  10.237  10.558
21972W        W93588  21.691  27.115   2.810
21973W        W93589  10.592   4.974   4.103
21974W        W93590  23.623  27.181  14.084
21975W        W93591  42.793  30.664   0.433
21976W        W93592  31.689  23.167  13.010
21977W        W93593  24.019  28.125  10.839
21978W        W93594  26.944  29.679   1.817
21979W        W93595  29.687  10.909  14.196
21980W        W93596   1.038  11.211   0.480
21981W        W93597  27.055  18.330  10.981
21982W        W93598  36.950  23.700   1.830
21983W        W93599  21.469  25.274   0.302
21984W        W93600  26.408   7.436  11.187
21985W        W93601  44.266   4.199  14.700
21986W        W93602  16.644  39.167   4.938
21987W        W93603  30.403  43.068  10.740
21988W        W93604  42.856  32.959   2.221
21989W        W93605   1.220  10.231  11.139
21990W        W93606  33.065  35.678  12.144
21991W        W93607  43.326  17.603   2.281
21992W        W93608  42.280  14.823   1.796
21993W        W93609  17.708  17.550  12.386
21994W        W93610  44.919  36.584  11.468
21995W        W93611  34.845  15.756  11.520
21996W        W93612  21.923  30.739   4.811
21997W        W93613   3.259  21.711   5.162
21998W        W93614  36.395  29.590   0.298
21999W        W93615  35.291  38.579  14.919
22000W        W93616  11.603  12.160  14.476
22001W        W93617   4.750   7.694  10.783
22002W        W93618   9.090   0.754  11.997
22003W        W93619  30.087   1.334  11.780
22004W        W93620  19.560  12.619   4.745
22005W        W93621   7.361   8.008   3.609
22006W        W93622  13.314  33.935  13.730
22007W        W93623  10.687  27.312   2.204
22008W        W93624  44.714  19.536  12.528
22009W        W93625  30.241  38.455   1.344
22010W        W93626  21.424  39.788   4.372
22011W        W93627   2.798  40.362   0.711
22012W        W93628  18.108  28.966   1.295
22013W        W93629  36.532  39.926   2.195
22014W        W93630  33.363  31.582   0.287
22015W        W93631   0.031   4.596  11.471
22016W        W93632  16.106  38.542   1.390
22017W        W93633  28.821  32.364   4.698
22018W        W93634  36.075   3.825  10.574
22019W        W93635  43.963  25.248   1.682
22020W        W93636  23.720  18.704   5.111
22021W        W93637  16.743  26.168   1.360
22022W        W93638  18.595  38.464  11.519
22023W        W93639   8.848  17.961   1.771
22024W        W93640  34.037  27.735  13.308
22025W        W93641  26.388  25.215   2.695
22026W        W93642  27.369   6.267   4.264
22027W        W93643  22.554  37.125   1.771
22028W        W93644  41.485   6.152   3.882
22029W        W93645  18.234  13.328   4.750
22030W        W93646  13.816  40.242   0.287
22031W        W93647  13.270  33.298   2.847
22032W        W93648  33.071  17.611   4.121
22033W        W93649  42.735  27.570   3.682
22034W        W93650  13.487  10.145  14.356
22035W        W93651  10.285  16.259   2.965
22036W        W93652   4.361  31.005   0.035
22037W        W93653  25.381   7.838   0.981
22038W        W93654  44.903  39.948   2.882
22039W        W93655  13.798  10.250  14.796
22040W        W93656  17.334  20.799  13.857
22041W        W93657   9.681  17.748   0.837
22042W        W93658   0.101  39.523   2.362
22043W        W93659  22.964   9.264  12.408
22044W        W93660  35.159   8.478   5.263
22045W        W93661  31.637  22.684  13.537
22046W        W93662  40.603  35.621  11.672
22047W        W93663  17.639   4.171  14.497
22048W        W93664  14.353  16.077  11.488
22049W        W93665  28.513  33.303   1.423
22050W        W93666  40.785  11.360  11.764
22051W        W93667   1.423  21.176  12.087
22052W        W93668  12.849  21.679  12.505
22053W        W93669   5.843   3.377  11.646
22054W        W93670  11.345   1.918   2.903
22055W        W93671  36.395  15.186  14.527
22056W        W93672   8.774  20.265  11.944
22057W        W93673   3.792  34.466   2.619
22058W        W93674   0.467   6.349  13.387
22059W        W93675  33.724  19.669  12.029
22060W        W93676  38.829  25.791  11.410
22061W        W93677  43.403  21.764   4.142
22062W        W93678  29.888  37.900   3.794
22063W        W93679  27.729  11.089   4.494
22064W        W93680  28.670   8.058  13.284
22065W        W93681  34.149  23.634   0.304
22066W        W93682  18.489   3.684  11.871
22067W        W93683  15.387  34.100   0.542
22068W        W93684  44.375  10.280   4.533
22069W        W93685   1.076  10.391  11.996
22070W        W93686  43.199  18.085   2.886
22071W        W93687  20.090  19.120   4.268
22072W        W93688  43.511  36.849   0.463
22073W        W93689  36.868  13.585  13.883
22074W        W93690   7.166  25.210   1.220
22075W        W93691   9.408  18.607  12.102
22076W        W93692  31.011  14.671  10.824
22077W        W93693  15.199  20.235   4.556
22078W        W93694  30.455  42.989   2.733
22079W        W93695  43.890  38.419   2.246
22080W        W93696   8.709  20.739   2.239
22081W        W93697   8.726   1.556   0.524
22082W        W93698  24.544  29.520  12.860
22083W        W93699   6.475   1.034   1.439
22084W        W93700  26.036  27.584   3.482
22085W        W93701  19.580  34.800  10.269
22086W        W93702  31.156  29.809  14.365
22087W        W93703  14.651   2.394  10.912
22088W        W93704  16.822  22.733  10.518
22089W        W93705  10.647  30.984   3.212
22090W        W93706  29.973  44.456   4.188
22091W        W93707  13.721  16.722   1.866
22092W        W93708   9.949  20.799   4.676
22093W        W93709  16.882  28.966  11.993
22094W        W93710  23.172   4.537  11.646
22095W        W93711  25.252  36.259  14.571
22096W        W93712   2.658  39.901   3.077
22097W        W93713   9.344  19.759   0.307
22098W        W93714   0.420  22.259  14.004
22099W        W93715  12.155   1.829  11.255
22100W        W93716  16.538  23.047  11.484
22101W        W93717  12.184  12.094   3.318
22102W        W93718  44.950  25.429  14.252
22103W        W93719  25.173   1.512  12.389
22104W        W93720  24.987  11.641   0.489
22105W        W93721  37.840   6.738   2.732
22106W        W93722   5.862  25.599  11.110
22107W        W93723  34.600  43.839  12.142
22108W        W93724  13.536   1.631  13.325
22109W        W93725  23.137  19.583  13.384
22110W        W93726  29.619  22.244  13.311
22111W        W93727  40.036  13.832  14.466
22112W        W93728   2.780  17.312  12.853
22113W        W93729   2.893  19.845  12.022
22114W        W93730  32.037  20.515   5.225
22115W        W93731   6.374  20.148  13.052
22116W        W93732   9.831  34.044  14.007
22117W        W93733   5.799  14.636  10.653
22118W        W93734  31.983  21.587   1.656
22119W        W93735   0.213  23.749   5.543
22120W        W93736  13.350  22.232  14.426
22121W        W93737  27.970  13.374   2.085
22122W        W93738   8.593  40.918  12.652
22123W        W93739  35.860  27.578   4.596
22124W        W93740   5.811  25.233   4.549
22125W        W93741  40.994  43.820   1.407
22126W        W93742  30.213   6.206   3.291
22127W        W93743  39.215  40.308   2.582
22128W        W93744   9.177  38.856   0.023
22129W        W93745  33.676   8.843   2.245
22130W        W93746  27.676   7.445   1.875
22131W        W93747  43.075   8.387  12.525
22132W        W93748  38.014  13.330  14.277
22133W        W93749  33.007   6.348  12.082
22134W        W93750  25.396  27.474   2.600
22135W        W93751   3.141  13.865  14.473
22136W        W93752  32.524  18.031   5.232
22137W        W93753  22.795   6.707   2.284
22138W        W93754  26.218  36.848   4.921
22139W        W93755  25.689  36.520  14.385
22140W        W93756  16.493  43.486  11.605
22141W        W93757  12.914   1.791   4.880
22142W        W93758   5.214   2.151  11.788
22143W        W93759   9.562   8.376  11.707
22144W        W93760   5.384  31.070  11.986
22145W        W93761  16.232  19.144   0.283
22146W        W93762   5.697   0.022  14.685
22147W        W93763  39.422  23.394   0.693
22148W        W93764  34.921   4.385  13.679
22149W        W93765  12.082  31.121  11.473
22150W        W93766  42.094   5.359   3.982
22151W        W93767   8.256   6.260   3.644
22152W        W93768  11.094  12.206  12.025
22153W        W93769  26.491  18.032  10.339
22154W        W93770   3.463  28.542  10.674
22155W        W93771  39.497  10.542  12.611
22156W        W93772   6.302   4.558  12.565
22157W        W93773  29.936  17.592   4.861
22158W        W93774  38.280   0.416   4.713
22159W        W93775  21.001  26.319   4.855
22160W        W93776  20.113  39.551   0.510
22161W        W93777   0.885  35.801   3.167
22162W        W93778  36.783  15.989  12.391
22163W        W93779  43.034  30.547  10.766
22164W        W93780  25.456   1.725  12.806
22165W        W93781  36.998  24.553  10.554
22166W        W93782  43.247   2.316  11.115
22167W        W93783  31.516   5.424  11.242
22168W        W93784  43.114  33.892   2.012
22169W        W93785  34.605  28.803  12.891
22170W        W93786   6.045  35.337  13.149
22171W        W93787  30.168  13.856   1.286
22172W        W93788   9.752  26.762  11.600
22173W        W93789   2.898   3.278   0.650
22174W        W93790  23.308  11.682  14.444
22175W        W93791  17.281  33.288   2.306
22176W        W93792  38.428  33.787  11.664
22177W        W93793   4.248  16.553   4.587
22178W        W93794  19.772  37.064  14.482
22179W        W93795  19.925  33.463   3.098
22180W        W93796  20.538  11.632  12.336
22181W        W93797   0.465  34.378  11.692
22182W        W93798   8.353  17.527   2.426
22183W        W93799   1.412  16.106   0.332
22184W        W93800  16.806  42.785   1.233
22185W        W93801   8.630  29.517  11.635
22186W        W93802  12.497   2.965  11.400
22187W        W93803   8.345   3.849   1.376
22188W        W93804   5.690   6.922  13.471
22189W        W93805  12.251  23.927  12.374
22190W        W93806  29.689  23.034  10.490
22191W        W93807  15.744  26.926  12.927
22192W        W93808   6.881  32.401   1.847
22193W        W93809  20.829  29.135  12.991
22194W        W93810  29.129   2.847  14.132
22195W        W93811  21.171  29.132   4.079
22196W        W93812  24.383  41.088  11.965
22197W        W93813  11.593  21.210   0.644
22198W        W93814  24.931  15.149   4.171
22199W        W93815   3.377   6.726  13.513
22200W        W93816   8.874  15.643  13.202
22201W        W93817  24.195  21.097  13.504
22202W        W93818  34.584  25.257  12.067
22203W        W93819  27.167  31.442   3.309
22204W        W93820  36.816  29.014  11.658
22205W        W93821   9.561   9.244   4.637
22206W        W93822  39.031  11.885   4.685
22207W        W93823  20.713  41.976   0.523
22208W        W93824  26.858  28.595  12.452
22209W        W93825   8.394  12.086   3.941
22210W        W93826  10.296  17.094  11.192
22211W        W93827  36.555  18.528  13.386
22212W        W93828   1.909  42.112  11.164
22213W        W93829  18.974   6.323   1.697
22214W        W93830  25.231  34.256   0.715
22215W        W93831   5.175  20.281   2.859
22216W        W93832  23.455  18.762  14.927
22217W        W93833  22.992   4.439  14.973
22218W        W93834  31.648  26.543  11.956
22219W        W93835  32.472  43.992   2.860
22220W        W93836   3.573  35.434   0.370
22221W        W93837  10.085  16.243   4.901
22222W        W93838  36.156   2.956   2.943
22223W        W93839  34.977  13.385   1.193
22224W        W93840  42.007   7.392  14.132
22225W        W93841  29.504   1.491  13.583
22226W        W93842  28.193  42.777   4.615
22227W        W93843  20.352  16.092  13.787
22228W        W93844  14.929  38.458  14.729
22229W        W93845  18.144  33.398  10.913
22230W        W93846   9.113  24.196   2.876
22231W        W93847  27.602  36.136   0.636
22232W        W93848  41.442   2.733  13.916
22233W        W93849   1.743   0.363  10.588
22234W        W93850  38.048  23.731   4.582
22235W        W93851  26.120  19.272   4.575
22236W        W93852  12.148  21.120  13.890
22237W        W93853  17.190  34.009   3.530
22238W        W93854  28.174   4.191   2.276
22239W        W93855  20.682  20.090   0.350
22240W        W93856  12.744  25.919  13.987
22241W        W93857  41.877  29.720  11.572
22242W        W93858  23.761   0.023   3.846
22243W        W93859  11.036  43.697  13.950
22244W        W93860  15.354  39.594   0.287
22245W        W93861  33.386  38.147   4.075
22246W        W93862  32.310  22.498   0.903
22247W        W93863  34.510  35.643  12.818
22248W        W93864  32.262  19.375   4.527
22249W        W93865   3.762  34.232  13.942
22250W        W93866  18.553  29.425   2.774
22251W        W93867  44.708  26.623   4.862
22252W        W93868  26.375  19.373  12.923
22253W        W93869  40.839  27.537  11.115
22254W        W93870  13.063  12.116  13.808
22255W        W93871   7.458  39.834  13.163
22256W        W93872  12.256  37.669   1.297
22257W        W93873   8.361  15.103  12.299
22258W        W93874  28.389  42.857  14.442
22259W        W93875   2.026   9.654  13.905
22260W        W93876   6.708  18.186  13.683
22261W        W93877  24.390  10.238  12.561
22262W        W93878  39.311  38.957  12.093
22263W        W93879  40.426  43.913  14.449
22264W        W93880  22.818  11.219  12.096
22265W        W93881  26.435  22.616   1.868
22266W        W93882  15.656   4.291  12.609
22267W        W93883  23.580  32.350  12.024
22268W        W93884  33.886  22.216  12.097
22269W        W93885   8.709  12.425   4.217
22270W        W93886  34.781  39.639  14.259
22271W        W93887  40.782  41.424   2.744
22272W        W93888  22.498   7.407   2.773
22273W        W93889  10.194  33.557  13.310
22274W        W93890  14.071  44.105   0.344
22275W        W93891  10.845  20.072   1.870
22276W        W93892   2.973   0.891   1.910
22277W        W93893   4.818  22.930   3.612
22278W        W93894   5.904   3.961  14.779
22279W        W93895  33.624  40.601  14.425
22280W        W93896  21.024  43.444  11.121
22281W        W93897   1.153   2.796   2.434
22282W        W93898  15.715  22.566   3.518
22283W        W93899  44.394  29.038  11.093
22284W        W93900  28.225  39.440  12.037
22285W        W93901  28.410  39.842   2.882
22286W        W93902  22.132  28.584  14.547
22287W        W93903   3.782  44.390  11.926
22288W        W93904   1.822  44.431  13.578
22289W        W93905   1.655  17.708  10.742
22290W        W93906  13.237  30.832  14.049
22291W        W93907  12.202  35.872  12.458
22292W        W93908  33.759  31.384  11.178
22293W        W93909  44.922  23.509   0.275
22294W        W93910  33.437  18.394   3.108
22295W        W93911  13.188   4.171   4.135
22296W        W93912  37.054  23.191   2.152
22297W        W93913  22.297   1.361   2.687
22298W        W93914  26.135  17.503  12.010
22299W        W93915  19.512  13.060  10.460
22300W        W93916  44.956  37.392  13.248
22301W        W93917  44.333  19.670  10.794
22302W        W93918  12.867   8.741   2.833
22303W        W93919  12.779  37.416   2.347
22304W        W93920   7.623   8.353   0.871
22305W        W93921  32.279   0.381  11.640
22306W        W93922  13.095  14.189   1.188
22307W        W93923  15.681   3.016  10.665
22308W        W93924   6.205  12.715  11.144
22309W        W93925  25.469  21.138  14.443
22310W        W93926   4.897  14.282  14.016
22311W        W93927  17.093  15.157  13.016
22312W        W93928  39.489  30.570  13.554
22313W        W93929  44.441   8.748  14.792
22314W        W93930  43.424  10.349   3.884
22315W        W93931  26.812  27.347  11.550
22316W        W93932  44.352  37.855   3.718
22317W        W93933   5.620  43.926   4.563
22318W        W93934  20.258   0.559  13.414
22319W        W93935   0.313  23.023  11.105
22320W        W93936  18.086  16.622  12.629
22321W        W93937   1.734  27.552   0.767
22322W        W93938  16.268  18.314   2.204
22323W        W93939   9.588  26.210  14.018
22324W        W93940  33.320  14.151  10.436
22325W        W93941  30.035   8.712  12.470
22326W        W93942   5.823  11.615   0.002
22327W        W93943   9.909  37.027   3.635
22328W        W93944  27.922   7.227   2.301
22329W        W93945  33.129  38.569   2.844
22330W        W93946  28.225   6.000   3.693
22331W        W93947  21.002  42.871  13.052
22332W        W93948  19.574  22.072  13.271
22333W        W93949  28.112   7.452  14.211
22334W        W93950   2.738  15.553   4.213
22335W        W93951  35.349  29.898  12.865
22336W        W93952  29.624  25.989   3.862
22337W        W93953  39.057  22.288   0.300
22338W        W93954  24.256  34.478  13.474
22339W        W93955  34.554  27.190   2.680
22340W        W93956  20.253  30.447  13.121
22341W        W93957  33.036  11.285   1.749
22342W        W93958  29.441  41.066   3.378
22343W        W93959   6.898  29.555  13.072
22344W        W93960  23.058  38.063  12.018
22345W        W93961  37.400  21.322  10.901
22346W        W93962  19.761  43.989   2.323
22347W        W93963  19.522  12.540   2.849
22348W        W93964   9.109  38.922   0.969
22349W        W93965  14.568  30.669   1.506
22350W        W93966  26.135  26.542  13.428
22351W        W93967   7.640   7.362   1.817
22352W        W93968   3.345  43.305   0.291
22353W        W93969   4.842  21.368  13.028
22354W        W93970   4.348  27.419   0.950
22355W        W93971  30.454  28.212   2.303
22356W        W93972   2.712  28.531  14.865
22357W        W93973  10.346  23.714   1.743
22358W        W93974  41.538   1.266   4.209
22359W        W93975  28.538  36.881  14.983
22360W        W93976  40.888   8.788   0.823
22361W        W93977   7.439  15.040  12.548
22362W        W93978  16.084  41.248  14.125
22363W        W93979   9.274  23.772  13.267
22364W        W93980  36.412  33.402  11.627
22365W        W93981  32.109   8.383  14.298
22366W        W93982  22.003  37.894   3.290
22367W        W93983  28.280  16.395   5.020
22368W        W93984  13.394  20.208   1.672
22369W        W93985  40.343  11.398   4.199
22370W        W93986   6.423   6.957  10.056
22371W        W93987  44.381  28.971  14.980
22372W        W93988  12.610  40.961  11.655
22373W        W93989  20.507   9.686   1.755
22374W        W93990  25.981   3.434  12.143
22375W        W93991  35.016  24.551  10.874
22376W        W93992  32.167  25.143   1.032
22377W        W93993  39.170  24.472   4.743
22378W        W93994  21.510  15.450   3.828
22379W        W93995  43.017  26.739   0.652
22380W        W93996   9.259  26.459   2.404
22381W        W93997  24.918  43.035  13.502
22382W        W93998  42.480  14.223   0.473
22383W        W93999  43.770  18.407   0.773
22384W        W94000  23.214  22.640   4.414
22385W        W94001  20.271  43.516  13.496
22386W        W94002  32.003  38.507  10.706
22387W        W94003  12.363  36.369   2.195
22388W        W94004  13.341   8.868  12.893
22389W        W94005   0.395   0.873  13.571
22390W        W94006  10.745  10.939  10.519
22391W        W94007  24.598  21.510   4.406
22392W        W94008   7.719  21.455   0.378
22393W        W94009  29.137  11.129   2.796
22394W        W94010  18.311   4.647  14.016
22395W        W94011  34.844  35.293   3.128
22396W        W94012  21.108   1.219   0.272
22397W        W94013  37.438  16.514   4.556
22398W        W94014  28.173  39.384  11.151
22399W        W94015   3.509  28.040  14.988
22400W        W94016  40.344  16.242   2.844
22401W        W94017   2.605  35.661   1.439
22402W        W94018  38.806   7.633   0.919
22403W        W94019   5.358  30.120   2.754
22404W        W94020  13.021   9.978   1.444
22405W        W94021  11.014  23.500  12.298
22406W        W94022  16.532  23.979   0.732
22407W        W94023  19.257  27.661  11.443
22408W        W94024  34.382   1.826  11.097
22409W        W94025  18.004  25.400  12.831
22410W        W94026  19.077   1.041   3.864
22411W        W94027   4.252  10.365   2.595
22412W        W94028  14.702   6.847  13.799
22413W        W94029  33.918   2.020   2.348
22414W        W94030  33.928  20.150  10.686
22415W        W94031   8.739  11.908  11.606
22416W        W94032  31.650  28.273   1.814
22417W        W94033   1.367  15.946  12.904
22418W        W94034  23.620  14.051  12.085
22419W        W94035   8.729   0.354  11.962
22420W        W94036  29.617  28.646  14.228
22421W        W94037  22.783   7.395   1.917
22422W        W94038  21.777   3.287  10.704
22423W        W94039   6.389  10.724  12.803
22424W        W94040  37.052   0.581  12.440
22425W        W94041  19.063   7.596   1.151
22426W        W94042  35.140  22.738   4.243
22427W        W94043  15.654   2.364   2.982
22428W        W94044  23.754  32.920  12.961
22429W        W94045  23.687  21.087   3.553
22430W        W94046  20.020  37.309   2.964
22431W        W94047  43.546  30.355  11.563
22432W        W94048  36.536  42.063   1.523
22433W        W94049  16.043   7.215   4.054
22434W        W94050   0.289  17.875   1.783
22435W        W94051  21.702  37.838  13.509
22436W        W94052   7.694   3.588   0.186
22437W        W94053  25.175  30.649  12.024
22438W        W94054  34.462  21.620  12.533
22439W        W94055  13.644  37.429   1.659
22440W        W94056  26.682  37.073   0.411
22441W        W94057  22.692  30.902   3.152
22442W        W94058   8.804  20.744   4.118
22443W        W94059  13.252  10.773   4.865
22444W        W94060  15.676  15.726  14.024
22445W        W94061  40.991   1.708  13.539
22446W        W94062  31.013  25.234   2.250
22447W        W94063   3.859  13.595   4.180
22448W        W94064  36.829  34.117  11.161
22449W        W94065   8.092  40.766  12.635
22450W        W94066  27.917  33.946   0.587
22451W        W94067  38.897  16.827  13.573
22452W        W94068  25.705   3.064  14.973
22453W        W94069  11.164   6.280   2.673
22454W        W94070  30.462  16.598  14.427
22455W        W94071   3.752  11.883  12.560
22456W        W94072  16.207  35.152   0.973
22457W        W94073  15.659   7.790  13.538
22458W        W94074   4.667  34.942  12.026
22459W        W94075   2.063  11.169  12.452
22460W        W94076   5.023   6.246   3.927
22461W        W94077   8.391  27.684   1.046
22462W        W94078  36.946  38.566  14.067
22463W        W94079  15.061  37.863  13.523
22464W        W94080  12.374   9.842  12.063
22465W        W94081  21.510  22.743   4.112
22466W        W94082   4.292  17.260  14.116
22467W        W94083  10.734  12.900  14.903
22468W        W94084  42.995  32.211   2.699
22469W        W94085  14.056  44.882   3.615
22470W        W94086  34.303  37.928  14.066
22471W        W94087  35.242  37.460  12.950
22472W        W94088  30.663  17.639  13.624
22473W        W94089  35.962  31.721  14.516
22474W        W94090   7.946  31.609  12.942
22475W        W94091   6.685  35.314   4.584
22476W        W94092  18.503  15.594   4.564
22477W        W94093  24.502  20.311   0.490
22478W        W94094  42.748  21.023  12.178
22479W        W94095  36.638  29.164   9.715
22480W        W94096  10.230  23.086  12.077
22481W        W94097  30.582  34.250   2.624
22482W        W94098  40.858  34.513   3.669
22483W        W94099  22.437   5.170   0.948
22484W        W94100  15.579   6.268  10.887
22485W        W94101  29.706   6.714  13.850
22486W        W94102  16.910  28.603   3.663
22487W        W94103  39.931  36.765  11.561
22488W        W94104  19.329  27.485   1.962
22489W        W94105  20.240  35.628   3.674
22490W        W94106   5.254  20.128   1.043
22491W        W94107  37.548  31.971   3.692
22492W        W94108   0.345  34.338  13.064
22493W        W94109   3.733  41.318   4.057
22494W        W94110  40.119  33.765   4.325
22495W        W94111  25.682  25.432  13.523
22496W        W94112  42.461  21.655   3.642
22497W        W94113  18.694  24.293  13.498
22498W        W94114  16.706  42.777  11.550
22499W        W94115  11.918  17.520   0.319
22500W        W94116  36.288   0.192   2.960
22501W        W94117  25.860  19.775  14.422
22502W        W94118   1.897  33.496   1.873
22503W        W94119  43.254  12.951   2.729
22504W        W94120   7.643  13.344  12.328
22505W        W94121   5.006  10.379   4.593
22506W        W94122  35.032   2.634   3.632
22507W        W94123  33.035  27.309  13.527
22508W        W94124  31.184   1.395   1.741
22509W        W94125  24.970  23.504   2.833
22510W        W94126  22.525  19.877  12.461
22511W        W94127  27.000  33.557  14.548
22512W        W94128  36.472  33.950   0.010
22513W        W94129  39.239  30.028   3.183
22514W        W94130  20.217  34.915  14.976
22515W        W94131  21.483  18.298  12.617
22516W        W94132  43.834  33.276   0.360
22517W        W94133  12.902  36.047   1.913
22518W        W94134  32.860   1.302   1.039
22519W        W94135  32.065  25.380  10.648
22520W        W94136   4.018  11.342   4.578
22521W        W94137  23.104  35.512   0.255
22522W        W94138  19.705  36.419  13.933
22523W        W94139  30.851   9.869  11.052
22524W        W94140  26.294  30.994   2.279
22525W        W94141  13.255  39.469   1.801
22526W        W94142  30.962   7.420   0.734
22527W        W94143   1.752   7.418  11.265
22528W        W94144  29.471  29.172  11.877
22529W        W94145   1.677  42.947   2.252
22530W        W94146   5.938  22.723  14.067
22531W        W94147  17.396  23.906   0.407
22532W        W94148   4.387  44.848   1.017
22533W        W94149  43.276  10.634   2.892
22534W        W94150  11.872  24.224   1.196
22535W        W94151  38.340  12.256   0.542
22536W        W94152  19.102   3.724   2.931
22537W        W94153  43.808  31.675  14.022
22538W        W94154  40.251  16.754   3.633
22539W        W94155  17.984  18.757  12.374
22540W        W94156  16.400   3.354   3.482
22541W        W94157  39.082  23.172  12.419
22542W        W94158  41.540  34.069  13.623
22543W        W94159   4.724  14.372   1.755
22544W        W94160   8.207  38.903  14.022
22545W        W94161  43.509   0.242  11.598
22546W        W94162  37.003  17.914   4.485
22547W        W94163  28.973  30.252  12.832
22548W        W94164   5.770   1.035  12.413
22549W        W94165  42.241  40.752  14.605
22550W        W94166  44.234  20.952   3.736
22551W        W94167  22.633  39.574  12.471
22552W        W94168  17.112  42.999  14.949
22553W        W94169  21.666  36.580   1.771
22554W        W94170  24.096  24.744   1.277
22555W        W94171  34.684   0.840   9.809
22556W        W94172  36.837  26.653   2.345
22557W        W94173  29.441  33.894  14.480
22558W        W94174  15.890  33.908   4.098
22559W        W94175   5.495  39.314   0.373
22560W        W94176  11.784  37.870  14.422
22561W        W94177   8.325  23.549   3.601
22562W        W94178  19.773  27.417   1.236
22563W        W94179  44.048  22.998   3.719
22564W        W94180  32.513   3.309  14.475
22565W        W94181   6.409  36.868   3.299
22566W        W94182   3.488  32.113  13.436
22567W        W94183  30.432  34.559  14.832
22568W        W94184  38.423   1.736   2.350
22569W        W94185   3.160  24.894   5.612
22570W        W94186  22.185  18.606   3.183
22571W        W94187  14.287  14.424   5.002
22572W        W94188  41.289  19.312   2.340
22573W        W94189   2.230   4.975   0.655
22574W        W94190  36.032  21.330  12.465
22575W        W94191  11.124  14.347   4.027
22576W        W94192  21.601   1.937  10.989
22577W        W94193  34.136  43.454  13.704
22578W        W94194  19.284  35.393   0.264
22579W        W94195  22.017  27.709  13.555
22580W        W94196  19.017  31.590  12.165
22581W        W94197  16.581  12.620   0.011
22582W        W94198  27.028  42.988  11.886
22583W        W94199  32.934  10.278  12.576
22584W        W94200  33.195  41.470   4.379
22585W        W94201  24.379  23.024  11.648
22586W        W94202  12.751  32.514   4.535
22587W        W94203  25.901  37.487   1.694
22588W        W94204  20.578   6.884   4.857
22589W        W94205  30.907  42.823  13.323
22590W        W94206  29.381  19.329   2.777
22591W        W94207  16.928  34.126  14.619
22592W        W94208  10.679  12.256   1.711
22593W        W94209  24.578  33.452  12.976
22594W        W94210   1.473   5.771  11.541
22595W        W94211  27.519  15.125   0.272
22596W        W94212   9.457  30.595   1.205
22597W        W94213  17.556  21.611   1.470
22598W        W94214   8.975  17.039   3.456
22599W        W94215  10.212  19.674   0.515
22600W        W94216  37.248   1.845   4.112
22601W        W94217  35.967  18.827   2.797
22602W        W94218  25.148  17.103  11.021
22603W        W94219   2.557   4.744  10.034
22604W        W94220  31.949  15.248   2.298
22605W        W94221  29.205   8.813   4.538
22606W        W94222   5.445   6.939   0.753
22607W        W94223  27.792  21.448  11.073
22608W        W94224  34.738  31.564  11.124
22609W        W94225  24.796  23.009   2.262
22610W        W94226  12.968   5.896   1.953
22611W        W94227  41.435   8.791  10.482
22612W        W94228  24.948  43.964  13.593
22613W        W94229  34.833  38.794  14.947
22614W        W94230  40.565  17.672  13.352
22615W        W94231  18.205  26.013   2.783
22616W        W94232  19.990  30.226  12.064
22617W        W94233  42.656  28.302  11.158
22618W        W94234  28.290  41.258   4.556
22619W        W94235  12.633   2.467  11.213
22620W        W94236  22.684   7.383   9.863
22621W        W94237   6.146   5.335  14.697
22622W        W94238  16.421  15.322  14.573
22623W        W94239   2.439   8.831  13.915
22624W        W94240  11.907  38.303  11.110
22625W        W94241  17.603   8.460  13.022
22626W        W94242  10.219  12.139   0.587
22627W        W94243  30.878  24.968   0.438
22628W        W94244   7.396  18.648   2.318
22629W        W94245  24.265  33.042  12.900
22630W        W94246  25.853  40.505  11.575
22631W        W94247   9.661  37.802   1.974
22632W        W94248  24.231  28.569  10.971
22633W        W94249  12.692   2.500  14.767
22634W        W94250  20.309  25.650  10.771
22635W        W94251  38.864  31.982  13.544
22636W        W94252  38.052  17.324   3.271
22637W        W94253  42.379   6.902  10.697
22638W        W94254   7.696  30.040  13.139
22639W        W94255  32.467  27.585  10.775
22640W        W94256  24.520   2.824   0.339
22641W        W94257   4.454  25.543   1.933
22642W        W94258   4.267   5.300  11.986
22643W        W94259  38.963  32.655  14.334
22644W        W94260  22.669  13.698  10.375
22645W        W94261   4.492  44.386  14.780
22646W        W94262   6.813  35.376  10.571
22647W        W94263  18.788  30.457  12.770
22648W        W94264  43.908  27.100  10.752
22649W        W94265  21.754  42.378  11.944
22650W        W94266  15.247   9.888  10.756
22651W        W94267  40.236   7.527  12.127
22652W        W94268   4.189   1.966   2.216
22653W        W94269  29.913  24.609   3.348
22654W        W94270  17.060  39.132  13.293
22655W        W94271  36.656  31.806   2.113
22656W        W94272  30.588  25.436  10.627
22657W        W94273  16.597   5.455   4.140
22658W        W94274  11.647   5.878   4.100
22659W        W94275  33.388  29.249  14.968
22660W        W94276  18.735  36.268   2.902
22661W        W94277  35.041  24.195  12.077
22662W        W94278  29.312   7.376  12.128
22663W        W94279  34.674  30.522  13.918
22664W        W94280  25.800  42.051   0.854
22665W        W94281  25.061  13.282   2.858
22666W        W94282  24.479  14.271   4.092
22667W        W94283  39.496  19.272   4.089
22668W        W94284  27.878   9.442  12.412
22669W        W94285  20.249  44.456   3.099
22670W        W94286  20.017  19.277   1.003
22671W        W94287  30.657   9.825   3.742
22672W        W94288   9.811  16.319  12.966
22673W        W94289  19.863  43.950   0.351
22674W        W94290  19.630  26.966  13.014
22675W        W94291  15.103   3.686   4.192
22676W        W94292  28.474  39.306   4.140
22677W        W94293  29.462  37.026   3.119
22678W        W94294  41.772  30.967   1.390
22679W        W94295  43.879  31.125   4.218
22680W        W94296  41.131  36.351  12.163
22681W        W94297   8.216  22.518   2.817
22682W        W94298  14.799  16.176   0.243
22683W        W94299  16.894   0.312  10.044
22684W        W94300   9.273  20.625  11.372
22685W        W94301  39.660  19.937  12.516
22686W        W94302  20.995  29.121  12.117
22687W        W94303   5.432  32.415   3.557
22688W        W94304  36.352  18.158  10.219
22689W        W94305  24.629  11.872  12.777
22690W        W94306  24.032  43.192   1.376
22691W        W94307   6.163  41.398  11.958
22692W        W94308  27.971  41.811  12.407
22693W        W94309  13.383  34.840  14.954
22694W        W94310   7.607  18.490  11.104
22695W        W94311  18.759  25.215  10.212
22696W        W94312  41.937  20.835   3.454
22697W        W94313   8.700  36.828  11.707
22698W        W94314  29.758  16.356  11.114
22699W        W94315  27.591  44.998  12.660
22700W        W94316  19.175  36.339   2.632
22701W        W94317  38.422   6.338  13.443
22702W        W94318  32.870  29.952   1.851
22703W        W94319  12.929   5.377   2.093
22704W        W94320  37.311  11.734   2.642
22705W        W94321  32.161  10.771   3.692
22706W        W94322   7.651  29.594   2.287
22707W        W94323  40.341  44.911   4.583
22708W        W94324  18.758   4.427   2.043
22709W        W94325  10.802  34.499   2.835
22710W        W94326  33.011  11.560  12.345
22711W        W94327  41.042  25.134  14.882
22712W        W94328  27.630  18.754  11.494
22713W        W94329  24.795  30.034  11.044
22714W        W94330  21.570  25.089  13.980
22715W        W94331  10.254  15.602  14.256
22716W        W94332   7.303  36.599   2.019
22717W        W94333   5.854  34.427   4.609
22718W        W94334  17.762  42.550  10.266
22719W        W94335   7.777  24.657  13.983
22720W        W94336  26.532  10.654   5.015
22721W        W94337  26.555  32.568  12.609
22722W        W94338  32.084  21.918  12.037
22723W        W94339  20.763   1.088  14.893
22724W        W94340  28.420   6.609  14.425
22725W        W94341  11.135  18.066  13.935
22726W        W94342   8.830  38.231   2.096
22727W        W94343  32.191  38.509   0.572
22728W        W94344  19.539  36.503   1.809
22729W        W94345   9.926  10.296  11.130
22730W        W94346  31.178  19.739   9.975
22731W        W94347  34.646  19.837  10.774
22732W        W94348  43.649  36.662  11.564
22733W        W94349  27.167   3.128  13.382
22734W        W94350   1.257  12.110   1.818
22735W        W94351   6.223  38.405  11.976
22736W        W94352  30.599   1.671  13.928
22737W        W94353  42.212  26.618   1.988
22738W        W94354  17.740  22.134   2.812
22739W        W94355  11.634  38.463  10.680
22740W        W94356   6.286  22.476   2.609
22741W        W94357  13.814   4.386  13.053
22742W        W94358  17.824  20.626  11.864
22743W        W94359  20.528  12.577   2.621
22744W        W94360   1.710  15.905  11.614
22745W        W94361  26.784   8.338   4.203
22746W        W94362   3.367  28.693   2.902
22747W        W94363  30.407  37.535  10.254
22748W        W94364  35.376  21.279   3.235
22749W        W94365   1.678  10.172  10.934
22750W        W94366   3.453   4.765   3.592
22751W        W94367  19.225  28.428  14.495
22752W        W94368  11.733  37.348   2.422
22753W        W94369  26.730  31.142  13.775
22754W        W94370  28.952  35.998   1.436
22755W        W94371  44.659  24.647   1.758
22756W        W94372  42.052  34.036   1.844
22757W        W94373  39.090  43.971  14.914
22758W        W94374  37.553   0.485   4.139
22759W        W94375  34.275  14.784   4.148
22760W        W94376  37.800   2.615  12.390
22761W        W94377  38.458  25.901  12.610
22762W        W94378  14.197  19.827   0.423
22763W        W94379  26.662  28.213  14.375
22764W        W94380   9.149  42.059  12.896
22765W        W94381  11.237   5.492   0.907
22766W        W94382  21.712  29.928  14.405
22767W        W94383  26.686   5.508   4.161
22768W        W94384   0.514  37.938  13.721
22769W        W94385  17.727  39.374  14.280
22770W        W94386  32.471  15.841   2.823
22771W        W94387   3.361  39.815   0.458
22772W        W94388  28.532  16.122   4.174
22773W        W94389  33.559  26.055  10.739
22774W        W94390  16.856  40.421  12.563
22775W        W94391   9.969  34.372   1.750
22776W        W94392  13.809  37.105   2.461
22777W        W94393  26.074  25.217  13.795
22778W        W94394  13.318   6.162  12.193
22779W        W94395  11.153  27.742  14.518
22780W        W94396  28.239   2.626   3.301
22781W        W94397  22.196  36.339  13.582
22782W        W94398  36.975  24.104  11.999
22783W        W94399  34.709  37.113   0.383
22784W        W94400  29.911  33.140  13.396
22785W        W94401  11.613  17.626   3.536
22786W        W94402  12.151  27.737  14.797
22787W        W94403  12.794  37.385   4.043
22788W        W94404   7.443   5.843   3.370
22789W        W94405  38.926  28.652   3.089
22790W        W94406  38.420   3.399  14.496
22791W        W94407  42.728  18.751   0.811
22792W        W94408  24.492  32.405  11.928
22793W        W94409  25.946   5.991  12.601
22794W        W94410   2.341   7.462   2.459
22795W        W94411  14.232   5.283  12.822
22796W        W94412  39.613  11.788  12.858
22797W        W94413  23.249   7.282   1.690
22798W        W94414   5.789  44.941  11.493
22799W        W94415   5.613  39.678  12.054
22800W        W94416  25.681  35.936  11.676
22801W        W94417  28.210  32.688  12.595
22802W        W94418  35.876  26.202   1.759
22803W        W94419  38.137  29.108   4.215
22804W        W94420  12.109  43.885  14.464
22805W        W94421  16.170  24.768   2.828
22806W        W94422  18.104  12.311   3.810
22807W        W94423   1.344  19.339   3.247
22808W        W94424  10.720   6.375   0.912
22809W        W94425  37.475  32.995  12.895
22810W        W94426  20.026  22.518   3.187
22811W        W94427   4.988  29.073   3.622
22812W        W94428  38.134  41.308  11.477
22813W        W94429  39.946  26.480   0.696
22814W        W94430  10.668   0.250   2.798
22815W        W94431  16.899  23.147   4.886
22816W        W94432  28.986  16.357   1.897
22817W        W94433   5.413   5.323  12.072
22818W        W94434  34.654  15.634  10.716
22819W        W94435  23.000   7.944   4.219
22820W        W94436  35.797  43.876   2.918
22821W        W94437  39.306   6.647   3.619
22822W        W94438  39.337  35.397   3.762
22823W        W94439  28.561  20.711   4.406
22824W        W94440  16.504  17.528  14.880
22825W        W94441   0.263  17.309  12.286
22826W        W94442  39.072  34.484   0.376
22827W        W94443  11.376  19.403   1.690
22828W        W94444  44.934  14.891   4.535
22829W        W94445   2.754  34.553   1.820
22830W        W94446  36.444  44.977  10.887
22831W        W94447  31.523  11.212  14.242
22832W        W94448  23.102  31.441  14.408
22833W        W94449  24.038  23.172  11.304
22834W        W94450  10.335  26.460  11.900
22835W        W94451  36.514  20.655   3.226
22836W        W94452  17.281  29.453  12.650
22837W        W94453  40.148   8.611  14.339
22838W        W94454  35.551  14.621  10.668
22839W        W94455   2.446   8.587  11.913
22840W        W94456  39.208   4.837  12.097
22841W        W94457   0.097  19.624  10.378
22842W        W94458  35.663  18.062   2.711
22843W        W94459   9.851  36.079  10.549
22844W        W94460   0.808  41.782   0.986
22845W        W94461  22.650   6.201   2.333
22846W        W94462   0.767  34.450  12.449
22847W        W94463  25.175   8.776  13.607
22848W        W94464  32.115  33.179   3.249
22849W        W94465   8.895  10.172   1.770
22850W        W94466   0.151  34.437  13.536
22851W        W94467  19.242  36.011   1.169
22852W        W94468  18.655  15.675   1.039
22853W        W94469  11.949  19.821   0.932
22854W        W94470  14.131  21.598   0.235
22855W        W94471  20.739  21.230   4.453
22856W        W94472   5.697  30.539   0.409
22857W        W94473  39.976  34.028   0.300
22858W        W94474   5.839  36.838  14.282
22859W        W94475   9.185  10.649  11.473
22860W        W94476   8.183  13.486  12.960
22861W        W94477  44.386  44.352   0.319
22862W        W94478  18.108  44.531  14.950
22863W        W94479  14.531   8.312   2.887
22864W        W94480  23.562  24.520   2.879
22865W        W94481  42.056  30.562   4.083
22866W        W94482  21.341   9.083  13.926
22867W        W94483   1.204  35.407  12.140
22868W        W94484  10.939  23.472   0.851
22869W        W94485  31.188   4.925  13.389
22870W        W94486  31.970  39.732  13.266
22871W        W94487  11.935  25.035   1.324
22872W        W94488  26.941  14.650  11.616
22873W        W94489   3.248  29.833   1.422
22874W        W94490  11.520  15.300   4.233
22875W        W94491  20.666  28.527  12.177
22876W        W94492  26.707   1.285   1.784
22877W        W94493   0.493  30.245  14.085
22878W        W94494  25.069   0.788  12.033
22879W        W94495  27.181  25.006  13.327
22880W        W94496  37.464  36.166   1.811
22881W        W94497  40.299  43.448   0.522
22882W        W94498  13.719   3.897   3.274
22883W        W94499  21.196   8.264   5.013
22884W        W94500  14.754  35.168   4.522
22885W        W94501   2.587  37.791  12.547
22886W        W94502   0.424  30.552  10.898
22887W        W94503   0.979  16.254   2.895
22888W        W94504   8.417  17.896  11.224
22889W        W94505  39.926   2.768   1.670
22890W        W94506  28.660  15.595   5.472
22891W        W94507  25.331  41.314  13.959
22892W        W94508  31.773   8.838   2.626
22893W        W94509   0.103   0.747  12.155
22894W        W94510   1.719  20.510  12.025
22895W        W94511  18.187  18.202   0.877
22896W        W94512  21.294  11.139  12.016
22897W        W94513   6.596   7.811  10.446
22898W        W94514  35.074   7.029   2.262
22899W        W94515  36.169  40.462   0.729
22900W        W94516  13.364   1.969  10.670
22901W        W94517  16.988  42.547   2.212
22902W        W94518  15.276  21.536   4.090
22903W        W94519  15.177   9.346   4.217
22904W        W94520  25.809  25.314   5.332
22905W        W94521  25.214   2.648  11.619
22906W        W94522   8.798  38.248   3.780
22907W        W94523  16.076  26.648  14.210
22908W        W94524   8.637   9.627  12.229
22909W        W94525  41.636  40.576   0.259
22910W        W94526  36.871  27.055  13.547
22911W        W94527  13.376  22.435  12.492
22912W        W94528  39.735  10.242  14.116
22913W        W94529   4.616   1.653  11.549
22914W        W94530   5.738  11.195   0.474
22915W        W94531   7.105  17.268   3.078
22916W        W94532  30.960  40.978   0.333
22917W        W94533  16.748  17.203  10.227
22918W        W94534  13.817  20.662   4.680
22919W        W94535   6.722   4.904   4.290
22920W        W94536  15.087  35.979   2.617
22921W        W94537  13.151  25.748   2.720
22922W        W94538   2.403  30.578  11.134
22923W        W94539   4.642  28.900  11.397
22924W        W94540  31.146  36.226  11.676
22925W        W94541  21.431   9.902  12.992
22926W        W94542   9.199  15.604   1.714
22927W        W94543  39.844  24.976  14.751
22928W        W94544  16.366   9.223  13.854
22929W        W94545  42.005  36.927   2.715
22930W        W94546  27.217   1.111   0.817
22931W        W94547  12.754  22.843  13.861
22932W        W94548  15.613   4.082  13.075
22933W        W94549  19.332   4.760   0.353
22934W        W94550  24.553  20.349   2.764
22935W        W94551  20.240  22.591   0.947
22936W        W94552   4.752   2.296   1.801
22937W        W94553  15.712   8.916  14.387
22938W        W94554  34.561  10.060   4.091
22939W        W94555  33.338  27.972  11.143
22940W        W94556  10.584  30.955  12.640
22941W        W94557  20.242  16.278  11.375
22942W        W94558  18.427  36.728  10.780
22943W        W94559  14.272   4.407  11.509
22944W        W94560   1.357  27.489  13.812
22945W        W94561  28.553  36.107  10.552
22946W        W94562  40.386   2.982   1.817
22947W        W94563   7.332  28.496  12.607
22948W        W94564   4.444  15.461   3.186
22949W        W94565  41.175   5.857   4.192
22950W        W94566  43.869  15.333  14.709
22951W        W94567  19.368  30.994  12.934
22952W        W94568   4.999  12.829  12.535
22953W        W94569   5.386  11.202   2.743
22954W        W94570   5.895  29.239   2.174
22955W        W94571  35.283   8.912  12.732
22956W        W94572  40.039  40.668   3.836
22957W        W94573  14.290   5.576   3.204
22958W        W94574  34.942   7.231  11.554
22959W        W94575  29.589  38.024   2.080
22960W        W94576   6.572  27.640   2.767
22961W        W94577  29.567   5.805   2.707
22962W        W94578  22.123   3.388   1.190
22963W        W94579  35.696  23.613   3.240
22964W        W94580   9.362  27.894  14.970
22965W        W94581  29.431   0.443   4.188
22966W        W94582  30.151  39.515   3.827
22967W        W94583   7.717  38.581   1.735
22968W        W94584  12.649  12.536   4.699
22969W        W94585   0.576  10.641  12.552
22970W        W94586  36.011  27.021   1.337
22971W        W94587  34.571   3.290   2.151
22972W        W94588  40.944  10.659   0.947
22973W        W94589  44.310  32.920  14.087
22974W        W94590   9.755  22.926  12.907
22975W        W94591  22.643  37.331  12.950
22976W        W94592   0.878  16.771   1.425
22977W        W94593  32.461  17.363   1.776
22978W        W94594  42.385  13.632  14.308
22979W        W94595   2.497  35.439   4.636
22980W        W94596  14.758  31.639  10.665
22981W        W94597  36.605   8.821  11.121
22982W        W94598  26.406  39.331   3.733
22983W        W94599  25.876  43.854   0.466
22984W        W94600  35.707   8.575  12.810
22985W        W94601  23.196  38.333  13.421
22986W        W94602  21.174   1.516  12.790
22987W        W94603  17.061   0.835  12.137
22988W        W94604   0.355  28.652  10.951
22989W        W94605   6.590   3.947  11.725
22990W        W94606  26.583  14.383   3.199
22991W        W94607  18.734   6.752   4.581
22992W        W94608  20.519  41.813  12.114
22993W        W94609  26.163  31.412   2.969
22994W        W94610  27.042  21.509   4.253
22995W        W94611  38.861  32.106   1.763
22996W        W94612   4.444  18.821   2.365
22997W        W94613  26.414  38.007   1.336
22998W        W94614  20.523  31.149   2.647
22999W        W94615  30.060   6.294   2.247
23000W        W94616   0.513  16.132   0.245
23001W        W94617  40.697  32.709  12.521
23002W        W94618   7.781  22.000  12.692
23003W        W94619  12.932  13.756  14.014
23004W        W94620  19.287  41.986  11.666
23005W        W94621  13.761   7.651  10.947
23006W        W94622  29.532  26.949  13.054
23007W        W94623  38.117  27.214  12.257
23008W        W94624  22.482  17.628   3.263
23009W        W94625  31.636   2.884   3.179
23010W        W94626  37.432  23.692  14.402
23011W        W94627  20.222  30.006   3.662
23012W        W94628  22.211  36.907   0.293
23013W        W94629  15.238  23.739   3.412
23014W        W94630  17.114  41.880   3.540
23015W        W94631  31.967   3.747   4.723
23016W        W94632  33.687  21.431   3.002
23017W        W94633  32.698  43.666   3.254
23018W        W94634  28.976  15.155   1.452
23019W        W94635  35.788   9.793   2.669
23020W        W94636   3.656   2.065  11.783
23021W        W94637   9.780  32.940   0.667
23022W        W94638  31.604  32.342   1.322
23023W        W94639  39.053   9.398  12.137
23024W        W94640  37.807  33.060   1.238
23025W        W94641   1.822  37.841   2.955
23026W        W94642   5.700  32.353  11.030
23027W        W94643  27.473  16.520  13.400
23028W        W94644   7.984  38.394  11.841
23029W        W94645  28.781  33.514   0.448
23030W        W94646  28.144  29.135  14.865
23031W        W94647  32.640   1.321  10.287
23032W        W94648  43.770  13.960   2.036
23033W        W94649   6.196  30.136  12.673
23034W        W94650   1.915  31.800  11.011
23035W        W94651  29.603  42.490   0.851
23036W        W94652  38.286  35.513   4.512
23037W        W94653  34.756  23.047   2.706
23038W        W94654  34.793  16.596   4.883
23039W        W94655  37.556  33.891   3.781
23040W        W94656  38.536  44.777   1.065
23041W        W94657  16.269  12.034  12.592
23042W        W94658   9.682  22.005   3.269
23043W        W94659  14.115   0.456   4.074
23044W        W94660  21.048  18.003   4.756
23045W        W94661  18.227  12.098  13.388
23046W        W94662  18.657  15.732   2.491
23047W        W94663  23.208  23.771   2.336
23048W        W94664   6.615  36.041   4.025
23049W        W94665  18.146  15.300   2.823
23050W        W94666  18.182  34.067  12.606
23051W        W94667  17.515  11.461  11.444
23052W        W94668   7.753  42.742   1.939
23053W        W94669  20.578  36.304  13.204
23054W        W94670  19.198  40.042   4.705
23055W        W94671   1.951  11.030  11.187
23056W        W94672  20.127  37.091   3.404
23057W        W94673  11.645  27.010   2.451
23058W        W94674  43.282  17.916   0.393
23059W        W94675  39.185   8.762  10.762
23060W        W94676  27.585   6.761   2.924
23061W        W94677  33.565  11.069  12.064
23062W        W94678  29.909  12.111   0.214
23063W        W94679  34.643  35.210   0.138
23064W        W94680  22.759  11.763   4.606
23065W        W94681  28.269   3.514  11.178
23066W        W94682  26.420  10.571  11.131
23067W        W94683  36.689   0.869  11.208
23068W        W94684  27.135  44.376   2.722
23069W        W94685  30.362  40.426   2.476
23070W        W94686  22.056   2.744  14.921
23071W        W94687   0.372  36.978  14.451
23072W        W94688   3.333  20.195   0.416
23073W        W94689  27.183  22.147   2.181
23074W        W94690  33.154  15.023  11.219
23075W        W94691  38.064   5.380  14.775
23076W        W94692   2.387   8.239  13.535
23077W        W94693  19.800  18.355   3.213
23078W        W94694  25.504  25.100   0.379
23079W        W94695   2.634  36.040  12.096
23080W        W94696  12.589   2.197   4.855
23081W        W94697  41.976   9.897   3.611
23082W        W94698  19.564  18.203   3.846
23083W        W94699  11.389  18.688   3.813
23084W        W94700  44.927  20.428  14.287
23085W        W94701  15.076  43.504   2.464
23086W        W94702  41.893  24.455   0.707
23087W        W94703  28.120  23.228  14.452
23088W        W94704  20.810  38.314  11.171
23089W        W94705  41.791  43.993   4.586
23090W        W94706  26.892  35.411  12.618
23091W        W94707  20.845  11.630   1.877
23092W        W94708   1.959  20.116   2.791
23093W        W94709  31.397  23.596  12.887
23094W        W94710  11.574  16.281  11.084
23095W        W94711  11.074  18.645   4.217
23096W        W94712   9.143  34.443  11.199
23097W        W94713   4.454  22.555  14.416
23098W        W94714  22.114   0.548   4.548
23099W        W94715   8.783   7.912  12.038
23100W        W94716  22.485  31.227  12.590
23101W        W94717  36.877   9.911   2.837
23102W        W94718  35.193   1.386  10.330
23103W        W94719  19.030  27.522   0.995
23104W        W94720  36.358  13.288  12.885
23105W        W94721  14.553   2.171   4.929
23106W        W94722  25.148   5.311  11.080
23107W        W94723  42.219   6.146   0.748
23108W        W94724  16.087  41.670  14.434
23109W        W94725  34.571  31.354  12.891
23110W        W94726  39.505  43.800   0.481
23111W        W94727   7.388   0.726   1.422
23112W        W94728  42.829  41.461  14.242
23113W        W94729  21.289   2.941   4.955
23114W        W94730  43.813  11.059  10.506
23115W        W94731   7.248  13.573  13.729
23116W        W94732  36.481  14.691   0.753
23117W        W94733  15.385  16.163   3.356
23118W        W94734   2.255  26.634  10.907
23119W        W94735  36.810  25.331   3.858
23120W        W94736  42.093  23.175  14.815
23121W        W94737  24.459  26.973   3.336
23122W        W94738  40.025  17.490   0.225
23123W        W94739  33.684  13.214   3.155
23124W        W94740   6.455  43.964   0.722
23125W        W94741   5.296   4.362   4.043
23126W        W94742  15.167   3.374  12.811
23127W        W94743   3.794  24.112  13.776
23128W        W94744  26.147  22.707  14.978
23129W        W94745   9.965  21.006   3.191
23130W        W94746   0.966   2.235   2.261
23131W        W94747  40.239   1.937  11.990
23132W        W94748  25.489  21.250   2.491
23133W        W94749  13.865  12.580  10.800
23134W        W94750  19.107   6.857   1.502
23135W        W94751  22.413  16.582   3.588
23136W        W94752  41.967  19.768  12.066
23137W        W94753   4.306  24.697   1.897
23138W        W94754  44.954  43.374  12.491
23139W        W94755  25.549  36.817   0.810
23140W        W94756  34.750   0.921  13.974
23141W        W94757  15.998  11.189  11.897
23142W        W94758   9.838  34.375  10.543
23143W        W94759  12.305  21.589  11.632
23144W        W94760   0.331  32.218   0.739
23145W        W94761  11.834   2.128   5.067
23146W        W94762  33.565  30.700   4.564
23147W        W94763  28.134  17.652   4.750
23148W        W94764   1.311   7.622   3.630
23149W        W94765  14.645  23.296   0.698
23150W        W94766  17.328  16.427   9.685
23151W        W94767  26.768  36.797  11.103
23152W        W94768  42.849   4.751  11.114
23153W        W94769  27.603  28.926   4.362
23154W        W94770  29.090  14.714   0.699
23155W        W94771   7.753  22.781   4.583
23156W        W94772  30.026  22.691  12.553
23157W        W94773  39.208  16.867   2.258
23158W        W94774  10.188  17.471  12.098
23159W        W94775  22.675   6.831  11.209
23160W        W94776  31.453  22.790   3.397
23161W        W94777  32.097  37.412   0.724
23162W        W94778  22.384  24.301   0.735
23163W        W94779   0.194  10.449  12.220
23164W        W94780  20.611  23.027   3.775
23165W        W94781  32.145  33.428   2.773
23166W        W94782  41.785  34.685   2.664
23167W        W94783  33.624   1.038  12.506
23168W        W94784  43.425  14.389   2.219
23169W        W94785  21.103  24.962  12.308
23170W        W94786  27.069  26.886  14.229
23171W        W94787  27.021  33.004   4.630
23172W        W94788  40.933  15.859   4.857
23173W        W94789  42.870  31.515  14.029
23174W        W94790  11.213   2.887   2.818
23175W        W94791  33.653  37.535  14.627
23176W        W94792  38.951   9.262   1.787
23177W        W94793  27.238  23.988   2.088
23178W        W94794   0.254   2.365  14.831
23179W        W94795   7.150   9.614  12.423
23180W        W94796   5.011  40.595   5.092
23181W        W94797   7.115   1.239   4.101
23182W        W94798   8.297  36.314  13.460
23183W        W94799  15.591  10.310  11.555
23184W        W94800  18.288  42.971  13.465
23185W        W94801  28.502  15.258   2.223
23186W        W94802   9.063  17.319  10.790
23187W        W94803  28.610  10.329  10.720
23188W        W94804  17.632  43.233  14.727
23189W        W94805   0.960   2.872   4.025
23190W        W94806  13.387  43.028   2.763
23191W        W94807  17.919   8.885  13.100
23192W        W94808   2.918  23.584   2.649
23193W        W94809  33.899  23.947   4.027
23194W        W94810  10.907  18.635   3.670
23195W        W94811  19.699  17.894  14.200
23196W        W94812  18.737   0.249   0.701
23197W        W94813  43.483  28.085  14.528
23198W        W94814   1.265  44.835   5.362
23199W        W94815  27.711  44.839   1.356
23200W        W94816   3.001  28.440   1.248
23201W        W94817  21.000  38.794   1.398
23202W        W94818  31.723  43.089   9.982
23203W        W94819  31.438  26.635   3.965
23204W        W94820  12.227  12.165  11.148
23205W        W94821   7.795  33.265   3.254
23206W        W94822  20.588  36.057  14.558
23207W        W94823   9.789  21.555   1.900
23208W        W94824  41.605  34.497   0.560
23209W        W94825   8.649  15.101   0.319
23210W        W94826  40.078  13.497   1.369
23211W        W94827  23.025   2.064   0.273
23212W        W94828  19.761  40.480  14.296
23213W        W94829  25.148  24.089   0.442
23214W        W94830   6.110  21.136  13.137
23215W        W94831  38.895  23.100  11.430
23216W        W94832   9.845  31.077   0.929
23217W        W94833   0.811  13.384   0.822
23218W        W94834  27.461  38.495   1.867
23219W        W94835  16.646   1.427  13.121
23220W        W94836  20.789  26.130  12.091
23221W        W94837  30.528  12.430  14.957
23222W        W94838   8.295  32.152  12.101
23223W        W94839  44.947   8.139   2.858
23224W        W94840  39.731   8.187  14.874
23225W        W94841   3.647  37.509   4.481
23226W        W94842  30.577  10.825  13.400
23227W        W94843   9.338  36.409  11.918
23228W        W94844  21.480  14.871   1.952
23229W        W94845  15.457   8.474  14.159
23230W        W94846  38.563  17.589   3.527
23231W        W94847  23.590  44.381   1.896
23232W        W94848  12.892  37.435  11.581
23233W        W94849  36.073  23.111  14.067
23234W        W94850  37.729   4.569  12.184
23235W        W94851   6.659  29.522   0.755
23236W        W94852  27.167  36.577  13.876
23237W        W94853  19.678  26.994  10.937
23238W        W94854  27.982  43.506  11.164
23239W        W94855   5.317  24.088  10.604
23240W        W94856  20.827   6.258   0.259
23241W        W94857  35.771   9.358  11.015
23242W        W94858   2.982  12.996  12.317
23243W        W94859  42.901   7.750   0.779
23244W        W94860  11.906  17.482  10.430
23245W        W94861  10.056  14.794   0.254
23246W        W94862  15.364  25.066   1.328
23247W        W94863  33.654   4.868   4.502
23248W        W94864  41.434  38.003   0.751
23249W        W94865   7.924  16.135  11.438
23250W        W94866  10.369  27.676  10.704
23251W        W94867   3.259  38.038   2.637
23252W        W94868  30.647  35.454   4.325
23253W        W94869  35.861  21.364   3.594
23254W        W94870  25.155  11.139  11.517
23255W        W94871  43.991  15.160  12.596
23256W        W94872  29.506  41.113  10.908
23257W        W94873  27.203  11.744   3.148
23258W        W94874  17.089   9.651   1.168
23259W        W94875  17.762  41.649   5.184
23260W        W94876  22.042  25.210  14.431
23261W        W94877  18.586   5.965   1.710
23262W        W94878  22.473  44.846   2.845
23263W        W94879  44.292  29.146   3.690
23264W        W94880  35.995  42.323   0.852
23265W        W94881  23.574   0.449   2.990
23266W        W94882   5.214  10.823  13.444
23267W        W94883  38.296  10.642   3.314
23268W        W94884  27.721  10.663  13.697
23269W        W94885  42.681  25.003  13.013
23270W        W94886  23.669  32.967   1.151
23271W        W94887  41.913  37.843   5.052
23272W        W94888  37.649  33.895  13.475
23273W        W94889   4.946  44.604  14.631
23274W        W94890   6.682  20.933  11.509
23275W        W94891  16.021  19.030   4.632
23276W        W94892  22.150   7.000   3.687
23277W        W94893   5.325  13.721   3.563
23278W        W94894   6.866  37.604   1.303
23279W        W94895  44.697  30.385  12.534
23280W        W94896  27.095  42.374  14.493
23281W        W94897  43.782   6.796  13.872
23282W        W94898  37.053   6.096   2.067
23283W        W94899  39.056  16.275   3.788
23284W        W94900  39.751   8.628   0.862
23285W        W94901   5.475   5.668  12.966
23286W        W94902  42.330   2.471   3.719
23287W        W94903  34.987  30.100   0.551
23288W        W94904  20.925  38.519   1.914
23289W        W94905  16.733  40.066   3.794
23290W        W94906  37.078  31.461   0.289
23291W        W94907  27.125  44.225  10.251
23292W        W94908   2.052   1.203  13.570
23293W        W94909  33.091  25.284  13.084
23294W        W94910  10.428   9.648  10.340
23295W        W94911  25.641  25.637  12.616
23296W        W94912   3.173  18.850   0.010
23297W        W94913  14.191  24.426   1.273
23298W        W94914  23.750  25.674   3.251
23299W        W94915  10.777  43.105   0.435
23300W        W94916  28.505  16.810  11.025
23301W        W94917   6.293  18.648   2.704
23302W        W94918   5.740  34.540   0.883
23303W        W94919  31.067  44.488   3.893
23304W        W94920  11.204   5.651   3.968
23305W        W94921   4.385  11.872   4.036
23306W        W94922  41.378  19.087  14.284
23307W        W94923   3.915  24.472   0.256
23308W        W94924  33.928  28.741   4.615
23309W        W94925  35.480  16.150  13.901
23310W        W94926  24.486   1.976   3.804
23311W        W94927  13.355  28.308  10.074
23312W        W94928  21.034  31.183   5.018
23313W        W94929  32.661  17.111  13.209
23314W        W94930  22.211  34.357  11.216
23315W        W94931  40.109  22.972   3.609
23316W        W94932  38.988  42.079  12.673
23317W        W94933   2.028  16.628  11.229
23318W        W94934  36.067  33.968  14.679
23319W        W94935  35.014   2.464  12.396
23320W        W94936  41.570  35.395   3.340
23321W        W94937  26.580  37.242   2.694
23322W        W94938  14.069   1.308   3.616
23323W        W94939  24.029  21.693  11.917
23324W        W94940  27.834  24.187  12.040
23325W        W94941  31.762  40.885   0.090
23326W        W94942  30.870  39.084  13.856
23327W        W94943  24.403  22.083   4.948
23328W        W94944  28.468  25.983   2.639
23329W        W94945  14.609  24.952   1.928
23330W        W94946  19.229  18.733  13.996
23331W        W94947  20.690  33.417  12.540
23332W        W94948  25.540   4.711   1.274
23333W        W94949  40.143  28.424   1.906
23334W        W94950  14.266  23.855  12.481
23335W        W94951  43.585  36.065   3.795
23336W        W94952  28.102  29.050   4.518
23337W        W94953   0.883  36.990  14.303
23338W        W94954  41.881  22.480  13.803
23339W        W94955   5.288  44.052   0.100
23340W        W94956   7.137  43.991   3.617
23341W        W94957  43.281   4.965  12.853
23342W        W94958  30.015  34.057  12.088
23343W        W94959  18.783  30.489  14.418
23344W        W94960  24.060  35.042   0.878
23345W        W94961  11.918  24.060   3.983
23346W        W94962  16.710  17.859   3.760
23347W        W94963  44.952  24.615  13.966
23348W        W94964   9.495   3.820  14.131
23349W        W94965  20.577  28.490   4.613
23350W        W94966   0.519  24.811   3.248
23351W        W94967  11.881  15.137   2.035
23352W        W94968  12.044  12.509   1.904
23353W        W94969   5.882  13.288   3.253
23354W        W94970  12.660  44.830   1.293
23355W        W94971   3.171   4.169  11.194
23356W        W94972  18.953  13.594   0.515
23357W        W94973  13.216  11.401  12.821
23358W        W94974   2.469   3.327   4.953
23359W        W94975  40.959  39.496  14.421
23360W        W94976  42.960  44.555   0.846
23361W        W94977   5.373  11.903  14.968
23362W        W94978  38.097  39.558   0.370
23363W        W94979  43.167  38.665  10.383
23364W        W94980  17.881  18.297  13.509
23365W        W94981  11.082  27.242  14.470
23366W        W94982  10.753  15.473  14.711
23367W        W94983  11.796  12.868  13.943
23368W        W94984  18.948  26.054  14.866
23369W        W94985  36.443  16.211   0.404
23370W        W94986  37.389  37.085  13.921
23371W        W94987  36.848   8.856   4.584
23372W        W94988  14.462   9.300   3.258
23373W        W94989   2.401   5.374   2.292
23374W        W94990   4.883   4.345   1.270
23375W        W94991  19.512  33.013   1.843
23376W        W94992   9.900   6.337  14.725
23377W        W94993  15.509  34.950  14.024
23378W        W94994  31.835  16.992   1.299
23379W        W94995   6.995  39.332  11.996
23380W        W94996  38.557  30.003  11.626
23381W        W94997  29.438  27.125  12.568
23382W        W94998   7.133  39.809   1.840
23383W        W94999   3.750  43.644   3.779
23384W        W95000  37.152  32.493  11.577
23385W        W95001  42.528  37.488  11.128
23386W        W95002   5.807   7.237   3.411
23387W        W95003  25.687  40.582   4.057
23388W        W95004  22.766  33.434   1.453
23389W        W95005  25.189  36.387  13.603
23390W        W95006  19.732  35.584  10.425
23391W        W95007  16.174  32.687   3.176
23392W        W95008   1.510  14.213  14.822
23393W        W95009  38.514  20.490  13.432
23394W        W95010  40.934  34.348   1.096
23395W        W95011   4.849  32.005  13.098
23396W        W95012  33.363  32.974  12.854
23397W        W95013  28.268   4.287  12.506
23398W        W95014  43.254   4.945  14.841
23399W        W95015  20.740  24.707   4.703
23400W        W95016  28.699   5.875   1.129
23401W        W95017  16.344   1.495   0.773
23402W        W95018  31.084  27.329   4.612
23403W        W95019   1.395  17.661   0.260
23404W        W95020  25.986  20.718   0.823
23405W        W95021  13.131   0.440   1.625
23406W        W95022   6.813  38.956  13.433
23407W        W95023  31.433  23.550  11.610
23408W        W95024  34.697  39.906   4.265
23409W        W95025  22.001  13.994   3.301
23410W        W95026   8.670  14.703   3.603
23411W        W95027  29.940   9.169   3.624
23412W        W95028  18.145  29.211   4.334
23413W        W95029   0.107  26.497  11.104
23414W        W95030  21.178  31.864   1.845
23415W        W95031   9.157  15.155   0.455
23416W        W95032  27.565   7.148  11.493
23417W        W95033  25.692   0.299   0.258
23418W        W95034  35.775   1.532  10.621
23419W        W95035  19.821  30.923   0.485
23420W        W95036  25.983  44.011  12.484
23421W        W95037  41.847  26.362   3.475
23422W        W95038   0.357  39.601   1.704
23423W        W95039   6.118  44.255   1.957
23424W        W95040  21.807  22.540  10.159
23425W        W95041  20.235   1.357   2.975
23426W        W95042  15.946  30.869   0.389
23427W        W95043  29.919  33.634  14.242
23428W        W95044  38.799  23.324  13.358
23429W        W95045  23.547  27.575  11.370
23430W        W95046  11.190  41.295  12.470
23431W        W95047  39.396  16.551   4.105
23432W        W95048  28.604   7.382   1.900
23433W        W95049  30.694  20.376   0.296
23434W        W95050  29.938   5.255  11.990
23435W        W95051  36.981  41.816  13.520
23436W        W95052   2.512  21.579  11.598
23437W        W95053  10.623   0.755   0.743
23438W        W95054  28.652  10.401   4.123
23439W        W95055  20.955   4.765  12.080
23440W        W95056   5.591  29.613  10.860
23441W        W95057   2.383  42.995  11.741
23442W        W95058  17.661   7.603   3.545
23443W        W95059  30.222  20.119   0.245
23444W        W95060  19.526  30.549   0.318
23445W        W95061  11.950  41.887   3.362
23446W        W95062  24.436  37.801   0.419
23447W        W95063  30.598  31.182  10.527
23448W        W95064  15.719  25.011   2.894
23449W        W95065  15.511  15.875  10.704
23450W        W95066   6.080  14.505  11.109
23451W        W95067  17.754  23.431   1.443
23452W        W95068   6.843   0.373   4.343
23453W        W95069  29.293  38.702  11.598
23454W        W95070  11.900   8.882  10.419
23455W        W95071   6.436  32.847   0.228
23456W        W95072  37.327  15.303   3.707
23457W        W95073  35.088  22.192   2.711
23458W        W95074  21.620   7.389   3.730
23459W        W95075  18.082  12.615   3.122
23460W        W95076   3.952  29.134   3.594
23461W        W95077  20.743  10.337   4.593
23462W        W95078  41.305  20.823   1.679
23463W        W95079  11.372  37.510   3.763
23464W        W95080  21.346  30.486  12.405
23465W        W95081  43.806  13.913  11.657
23466W        W95082  44.019  26.993   0.159
23467W        W95083  16.978  23.784   1.624
23468W        W95084  28.953   6.642  13.393
23469W        W95085  12.248  30.368   0.298
23470W        W95086  10.836  39.880  13.284
23471W        W95087  31.612   6.376  11.074
23472W        W95088  36.314  43.866   2.839
23473W        W95089  21.237  28.427   0.929
23474W        W95090   1.043   8.426  10.505
23475W        W95091  13.881   3.680   2.817
23476W        W95092  11.615  20.304  12.661
23477W        W95093  36.127  14.193   2.378
23478W        W95094  23.212   3.715  12.083
23479W        W95095  42.466  29.471  12.679
23480W        W95096   5.008  26.058   3.739
23481W        W95097   0.873   5.828  12.836
23482W        W95098  21.046  43.221   3.179
23483W        W95099  31.501  11.886   0.884
23484W        W95100  21.196  10.597   4.573
23485W        W95101   3.887  17.271   4.614
23486W        W95102  34.545   0.243  10.281
23487W        W95103  14.713  41.304  11.517
23488W        W95104  37.161   4.777  13.475
23489W        W95105  29.008  17.254  12.831
23490W        W95106  15.345   2.719   3.973
23491W        W95107  43.473  33.532   4.022
23492W        W95108  38.763  38.162   3.596
23493W        W95109  41.552  29.177  12.423
23494W        W95110   8.020  33.868   0.527
23495W        W95111  10.374  29.428  14.039
23496W        W95112  16.320  16.079   4.200
23497W        W95113  36.873  40.825  10.828
23498W        W95114  41.769  13.591  13.026
23499W        W95115   7.907  31.971   0.395
23500W        W95116  29.816  19.269  13.434
23501W        W95117  21.618  31.617  14.005
23502W        W95118  12.387  43.103   0.718
23503W        W95119   4.774   9.831  12.209
23504W        W95120  44.593  35.814   3.563
23505W        W95121  30.350  33.128  11.782
23506W        W95122  17.097  15.768   1.494
23507W        W95123  36.588   7.821   0.427
23508W        W95124  31.105  32.588  14.500
23509W        W95125   0.256  18.209   2.781
23510W        W95126  30.360  26.599  11.972
23511W        W95127  11.950   9.779   4.631
23512W        W95128  44.468   0.447   5.053
23513W        W95129  44.654  27.001  10.428
23514W        W95130   6.336  10.969   4.258
23515W        W95131  16.793  39.040   4.198
23516W        W95132  13.909  32.467   2.238
23517W        W95133   2.325  43.741  13.399
23518W        W95134  20.064  10.142  13.758
23519W        W95135  40.720  25.241  14.266
23520W        W95136   2.122  43.599   4.974
23521W        W95137  42.396  35.911   5.184
23522W        W95138  37.804  19.719  12.084
23523W        W95139  26.593  40.165   4.342
23524W        W95140   4.918  42.351   0.478
23525W        W95141  40.978  37.353  10.307
23526W        W95142  17.587  26.127  11.792
23527W        W95143  36.474   2.255   4.063
23528W        W95144  29.213  39.434   2.408
23529W        W95145  43.839  16.775  10.606
23530W        W95146  10.194   5.764   0.302
23531W        W95147  10.142  34.640  14.363
23532W        W95148  41.808   6.182  12.152
23533W        W95149  38.937  28.874   4.044
23534W        W95150   5.687  38.008   4.516
23535W        W95151  35.456  15.768   1.315
23536W        W95152   0.107  13.202   0.516
23537W        W95153  30.900   7.861  13.874
23538W        W95154  15.214  13.539   0.252
23539W        W95155  39.876  44.177   3.398
23540W        W95156  11.318  38.953   2.751
23541W        W95157   5.711  29.138   2.648
23542W        W95158  20.827  10.101   1.860
23543W        W95159   9.804   8.066   2.844
23544W        W95160  43.093   4.349  12.559
23545W        W95161  16.211  12.058   1.341
23546W        W95162  30.104  43.980   2.068
23547W        W95163  37.863  23.088   0.316
23548W        W95164  43.646  44.278  11.553
23549W        W95165  40.006  31.024  12.928
23550W        W95166  21.906  37.285  11.585
23551W        W95167  11.214  37.610   1.430
23552W        W95168  18.919  42.995   1.870
23553W        W95169  14.789  38.506  12.498
23554W        W95170  15.168  16.619   2.663
23555W        W95171   4.002   4.350  11.510
23556W        W95172  19.716  31.681   0.825
23557W        W95173  34.497  28.589   4.651
23558W        W95174  12.582  43.300  11.136
23559W        W95175  37.442   0.532  14.779
23560W        W95176  16.259  11.786   1.953
23561W        W95177  41.966  35.816   2.415
23562W        W95178  41.594  44.443  11.972
23563W        W95179  41.850   7.160  10.638
23564W        W95180  13.321  25.555  14.697
23565W        W95181  23.694  12.774  13.336
23566W        W95182   9.632  18.321   1.461
23567W        W95183   8.304  10.633  14.922
23568W        W95184  36.397  20.743   2.279
23569W        W95185  34.976  30.929   4.571
23570W        W95186   8.717  16.324  10.719
23571W        W95187  30.933   3.271  14.388
23572W        W95188  28.212  37.876  11.662
23573W        W95189  38.307  13.410   1.523
23574W        W95190  44.401  16.129   4.061
23575W        W95191  36.995  10.747  10.554
23576W        W95192  10.365  40.802  14.602
23577W        W95193  37.997  17.809  10.741
23578W        W95194  39.822  18.072  11.078
23579W        W95195  19.758  26.587   1.755
23580W        W95196   9.919   2.518   0.312
23581W        W95197  27.403  43.501  14.565
23582W        W95198  14.345   9.978  12.094
23583W        W95199  33.130  41.822   2.611
23584W        W95200  37.345  18.583   0.186
23585W        W95201  36.458  40.016  13.499
23586W        W95202  26.676  27.006   3.664
23587W        W95203  34.063  27.937   1.112
23588W        W95204  35.018  19.726  13.416
23589W        W95205  31.935   9.193  13.821
23590W        W95206  38.904  36.508  10.000
23591W        W95207  16.769  33.969   4.506
23592W        W95208   6.782   2.443  11.617
23593W        W95209  36.417  10.935   3.235
23594W        W95210   6.328  29.184   4.634
23595W        W95211  30.192  31.574  13.116
23596W        W95212  25.850  44.792   3.133
23597W        W95213   7.305  17.730  12.646
23598W        W95214   5.370  17.320  14.893
23599W        W95215   7.326   6.912  11.958
23600W        W95216   1.935  27.704  12.953
23601W        W95217  17.710  32.855   0.747
23602W        W95218   6.637  37.856   2.617
23603W        W95219   6.691   4.877  10.962
23604W        W95220  20.273  11.284  14.861
23605W        W95221  32.116  42.833  12.813
23606W        W95222   6.217   2.410   4.755
23607W        W95223  30.485   6.561  11.479
23608W        W95224  29.868  25.432  11.134
23609W        W95225   2.961  15.673   0.859
23610W        W95226  37.078   5.652  12.610
23611W        W95227   2.360  29.143  11.105
23612W        W95228  42.773   4.034   3.456
23613W        W95229  43.926  37.341   1.706
23614W        W95230   9.404  42.834   2.295
23615W        W95231   3.049  17.110  11.629
23616W        W95232  10.409  10.728   2.218
23617W        W95233  36.584  13.197  14.885
23618W        W95234   4.284   5.251  13.170
23619W        W95235  21.588   3.505   0.485
23620W        W95236  13.625  34.069   0.655
23621W        W95237  32.939  15.039   2.346
23622W        W95238  13.364   5.497   2.830
23623W        W95239   1.262   9.125  11.641
23624W        W95240  16.596  28.537  13.141
23625W        W95241  19.003  36.596  10.761
23626W        W95242  39.437   9.282  14.525
23627W        W95243  10.542   2.765   1.012
23628W        W95244   6.977   8.382  11.964
23629W        W95245  11.871  41.021  11.168
23630W        W95246  16.050  33.038   2.779
23631W        W95247  21.707  18.661   4.154
23632W        W95248  35.153  39.770   4.511
23633W        W95249   4.201  25.048  11.309
23634W        W95250   4.316  33.341  11.464
23635W        W95251  26.103  42.435  10.830
23636W        W95252  22.709  40.746   0.344
23637W        W95253  18.048   7.637  13.277
23638W        W95254  16.741  14.420  11.882
23639W        W95255   4.882  28.919   1.223
23640W        W95256  15.768  31.558  12.442
23641W        W95257  40.055  26.830  12.155
23642W        W95258   9.852  22.146   4.607
23643W        W95259  40.937  18.061   3.814
23644W        W95260   9.033  37.340   1.205
23645W        W95261   6.431   5.916  12.356
23646W        W95262  34.374  24.164   1.769
23647W        W95263   3.789  21.755  12.927
23648W        W95264   9.318  13.829   2.152
23649W        W95265   0.734   7.457   1.800
23650W        W95266  16.130   7.714  10.893
23651W        W95267  40.418  39.631   2.328
23652W        W95268  39.597  35.091   2.734
23653W        W95269  17.305  24.014  14.863
23654W        W95270  34.386  35.364   1.500
23655W        W95271  15.985  26.389  12.437
23656W        W95272  35.414  16.735   2.193
23657W        W95273  42.885  38.106   2.207
23658W        W95274  16.742   5.944  12.054
23659W        W95275  38.364  13.626  12.597
23660W        W95276  10.897  11.681  13.841
23661W        W95277  26.489  21.050   0.278
23662W        W95278  15.784  23.611  13.880
23663W        W95279   2.873   6.180   4.685
23664W        W95280  42.277  31.469   3.753
23665W        W95281   7.735  14.514   4.929
23666W        W95282  23.147  32.381  14.481
23667W        W95283  18.872   1.839   4.527
23668W        W95284  42.283  29.428   4.554
23669W        W95285  34.623  41.770  13.297
23670W        W95286  11.326  12.437   2.251
23671W        W95287  26.576  25.980   1.283
23672W        W95288   0.980  37.903   5.046
23673W        W95289  32.306  38.071   2.909
23674W        W95290  23.350  21.826   3.448
23675W        W95291  26.953   0.337  12.976
23676W        W95292  36.213  20.569   0.623
23677W        W95293  13.596  35.805   2.972
23678W        W95294  19.805  43.386  12.592
23679W        W95295  33.920   1.684  11.993
23680W        W95296  22.985  24.226   2.318
23681W        W95297  40.313  12.160  14.430
23682W        W95298   0.428  40.790  13.934
23683W        W95299  42.892  26.440  11.880
23684W        W95300  16.287  17.031   1.313
23685W        W95301  28.441  24.378  14.421
23686W        W95302  34.616  24.401   1.215
23687W        W95303   6.696  26.447  12.894
23688W        W95304  42.845  40.378  10.699
23689W        W95305  40.881  24.619   1.269
23690W        W95306  40.389  22.319  14.493
23691W        W95307  42.343  35.047   1.831
23692W        W95308   1.420  43.016  13.870
23693W        W95309  35.891   5.824  13.248
23694W        W95310  14.516  19.124   3.179
23695W        W95311   9.236  33.375   3.131
23696W        W95312  17.021  29.654   3.680
23697W        W95313  26.346  28.269   4.108
23698W        W95314  29.591  25.174   2.367
23699W        W95315  14.134  11.516   2.791
23700W        W95316   0.444  27.564   3.776
23701W        W95317  41.427  25.132   2.877
23702W        W95318  37.999  40.254   1.844
23703W        W95319  23.983  17.056  14.330
23704W        W95320  13.326   8.125   2.331
23705W        W95321  16.161  24.068  12.022
23706W        W95322   0.258  14.053  14.431
23707W        W95323   3.821  20.066   2.268
23708W        W95324   1.017   6.495  11.106
23709W        W95325  13.897  10.710   1.822
23710W        W95326  13.187   3.296  10.215
23711W        W95327  44.731   1.895   4.175
23712W        W95328  32.855  21.693   3.258
23713W        W95329  33.706  13.648   4.019
23714W        W95330  11.195  18.250   3.423
23715W        W95331  10.367  27.028  14.644
23716W        W95332  36.418   7.237  11.608
23717W        W95333  34.795  28.106   2.671
23718W        W95334   8.946   6.339  11.775
23719W        W95335   3.937  34.956   1.903
23720W        W95336   8.157  12.686  14.746
23721W        W95337  10.042  26.721   1.607
23722W        W95338  25.906   5.217   0.141
23723W        W95339   6.926  19.792   3.773
23724W        W95340   0.751  20.507   2.606
23725W        W95341  23.719  42.929   4.567
23726W        W95342   0.215  13.473  11.448
23727W        W95343  43.488  39.767   0.442
23728W        W95344  15.213  40.353   3.241
23729W        W95345  34.021  20.097  12.043
23730W        W95346  38.341  38.487  13.008
23731W        W95347  39.779  24.740  12.070
23732W        W95348  39.364  34.566  13.418
23733W        W95349   4.689  28.885  14.020
23734W        W95350  13.203  21.871  10.639
23735W        W95351  22.616  21.031   3.296
23736W        W95352  24.110  23.593   3.318
23737W        W95353  44.359   1.483   4.343
23738W        W95354   5.692  24.069   0.270
23739W        W95355  12.785  20.834  13.778
23740W        W95356  39.984   7.344  12.879
23741W        W95357  32.780   1.630  10.712
23742W        W95358  15.687  38.074   1.337
23743W        W95359  33.119  16.023   0.681
23744W        W95360  11.245   9.433  12.325
23745W        W95361   2.398  10.820  14.439
23746W        W95362  27.355   7.344  11.065
23747W        W95363   2.659  13.144   1.790
23748W        W95364  27.712  23.263  10.916
23749W        W95365  14.318  10.403   1.926
23750W        W95366  39.985  42.944  10.481
23751W        W95367  38.794   8.272   2.361
23752W        W95368   0.251  24.298   9.997
23753W        W95369  11.905  39.565  12.975
23754W        W95370  30.120  28.762  12.035
23755W        W95371  30.242   6.849   3.711
23756W        W95372  29.946   1.505   4.169
23757W        W95373  31.900  35.652   1.370
23758W        W95374  36.382  26.695  10.665
23759W        W95375  21.701   0.423  13.204
23760W        W95376   1.966  32.427  11.574
23761W        W95377  12.083  18.328   3.696
23762W        W95378  19.619  36.007  10.695
23763W        W95379  40.486   3.985   1.956
23764W        W95380  40.940  24.564  10.953
23765W        W95381  32.187  29.515  13.560
23766W        W95382   1.485  18.515  14.351
23767W        W95383  12.775  38.923  11.213
23768W        W95384  30.793  17.042  14.410
23769W        W95385  31.083  24.710   0.852
23770W        W95386  29.090  20.442   3.721
23771W        W95387  35.286  36.283   5.152
23772W        W95388  30.643   4.988   2.867
23773W        W95389   8.809  38.619  14.345
23774W        W95390  42.098  43.993   0.162
23775W        W95391   3.279  16.664   0.501
23776W        W95392  16.746  10.147   0.328
23777W        W95393   1.675  23.180   0.356
23778W        W95394   7.609  22.305  14.046
23779W        W95395  25.233  41.292  14.844
23780W        W95396  28.919   0.310   1.832
23781W        W95397   3.210  20.182  13.472
23782W        W95398   2.489  14.241  12.627
23783W        W95399  37.548  14.232   2.438
23784W        W95400   9.663  12.772   4.517
23785W        W95401  15.431  12.564  11.567
23786W        W95402   7.814  31.887  13.341
23787W        W95403  31.594   7.671   1.826
23788W        W95404  33.500  23.537   4.050
23789W        W95405  32.399  30.389  12.594
23790W        W95406  23.945  25.223   4.148
23791W        W95407  28.652  32.628  13.450
23792W        W95408  31.913  33.533   4.110
23793W        W95409  11.707  14.633   3.377
23794W        W95410   3.294  25.702   0.687
23795W        W95411  32.483   9.922  14.027
23796W        W95412  14.783  15.841   4.131
23797W        W95413  20.597  35.380   2.352
23798W        W95414  44.259  24.468   3.209
23799W        W95415  13.395  39.906   3.676
23800W        W95416  43.470  15.430  10.298
23801W        W95417  12.920  30.125   4.821
23802W        W95418   2.782  32.010   4.219
23803W        W95419  21.932  11.767  10.587
23804W        W95420   8.703  35.409  13.564
23805W        W95421  25.736  22.883  11.603
23806W        W95422  18.920  16.310  13.447
23807W        W95423  28.355  15.178   3.143
23808W        W95424   3.360  30.441  11.552
23809W        W95425   3.398   2.008   2.794
23810W        W95426  20.166  28.969   0.762
23811W        W95427  33.013  30.397  12.204
23812W        W95428  10.593  19.708  12.434
23813W        W95429   9.636   3.390  11.641
23814W        W95430   1.819  20.009   0.395
23815W        W95431  40.334  40.292   1.231
23816W        W95432  20.777  24.167   4.694
23817W        W95433  12.185  22.093   1.508
23818W        W95434  35.937  12.609   4.124
23819W        W95435   6.163  17.702  10.707
23820W        W95436  42.890   6.863  12.581
23821W        W95437  25.034  42.170  12.631
23822W        W95438  28.641  29.623  14.317
23823W        W95439   5.587  27.518  14.912
23824W        W95440  43.914  24.225   0.712
23825W        W95441   2.699  15.690   1.888
23826W        W95442   2.732  27.119   1.521
23827W        W95443  21.189  29.719  11.302
23828W        W95444  43.409  15.257  12.808
23829W        W95445  28.487  35.106   0.936
23830W        W95446  16.743  19.005   1.956
23831W        W95447   0.743  24.692   2.446
23832W        W95448  13.747  13.858   0.391
23833W        W95449  18.893   3.274  10.610
23834W        W95450  26.614  11.360  10.686
23835W        W95451   1.863  34.541  14.004
23836W        W95452  38.237  35.778  13.247
23837W        W95453  38.920  22.676   4.662
23838W        W95454  21.801  17.667  14.797
23839W        W95455  38.868  18.787   1.720
23840W        W95456  19.167  29.286  10.521
23841W        W95457   9.284  21.949   0.437
23842W        W95458   4.877   0.371  10.625
23843W        W95459  12.838  38.893   0.839
23844W        W95460  36.875   0.886  13.639
23845W        W95461  22.072  36.977   3.197
23846W        W95462  25.981  21.020   0.371
23847W        W95463   2.742  20.579   2.002
23848W        W95464   8.593  25.006   3.177
23849W        W95465  17.684  26.248   0.367
23850W        W95466  13.255  26.003   1.204
23851W        W95467  29.440  22.970   2.182
23852W        W95468  22.176  39.672  14.261
23853W        W95469  36.423  36.320  12.648
23854W        W95470  40.343  42.446  11.571
23855W        W95471  32.709   3.296  11.175
23856W        W95472  18.240  38.604  12.340
23857W        W95473  32.077  36.248   4.169
23858W        W95474   8.831  11.830   3.248
23859W        W95475  39.091  42.800  14.857
23860W        W95476  15.189  23.638  10.405
23861W        W95477  37.152  25.173   2.403
23862W        W95478  24.180  44.836  13.854
23863W        W95479  16.513  18.782   4.619
23864W        W95480   3.415  20.256   1.464
23865W        W95481  37.459  14.233  13.930
23866W        W95482  35.234  41.863  11.539
23867W        W95483  38.022  22.103  13.311
23868W        W95484  31.337  14.004  12.938
23869W        W95485   6.642  22.813   3.309
23870W        W95486   8.339  16.030   2.205
23871W        W95487  18.689  32.427  13.373
23872W        W95488  10.586  25.610  12.198
23873W        W95489  36.343   6.175  11.630
23874W        W95490  30.183  36.174  12.483
23875W        W95491  33.341  18.562  12.419
23876W        W95492  32.589  29.163  14.511
23877W        W95493  20.821  32.242   2.792
23878W        W95494  15.520   9.310   2.363
23879W        W95495   6.188  32.062   5.235
23880W        W95496  37.566  32.458  10.786
23881W        W95497   8.320  16.337  12.409
23882W        W95498   3.907   7.686   4.304
23883W        W95499  41.544  41.944  10.766
23884W        W95500  17.172  36.627  11.490
23885W        W95501   4.271  44.768  12.802
23886W        W95502  37.054   2.932  14.479
23887W        W95503  15.743  24.192  10.686
23888W        W95504   3.846  13.414   3.702
23889W        W95505   2.274  44.432  14.341
23890W        W95506  39.948  38.155  14.344
23891W        W95507  41.756  33.372  13.348
23892W        W95508  15.770   0.692  13.816
23893W        W95509  29.932  25.996  12.294
23894W        W95510   1.374  42.817  10.087
23895W        W95511  27.208  16.618   4.637
23896W        W95512  32.723  34.314  10.633
23897W        W95513  39.282  13.169   1.861
23898W        W95514  11.207   7.879   4.517
23899W        W95515  20.034  25.435   2.820
23900W        W95516   9.983  24.342  13.926
23901W        W95517  14.337  11.388   3.775
23902W        W95518  27.720  14.374   9.994
23903W        W95519  18.251  34.522   0.475
23904W        W95520  36.603  44.845   3.198
23905W        W95521   4.015  36.476  13.641
23906W        W95522  13.377   6.307  11.584
23907W        W95523   5.495  10.678   2.812
23908W        W95524  34.450   3.901   3.650
23909W        W95525  26.294  38.289   2.679
23910W        W95526  21.799  13.556   3.597
23911W        W95527  12.195  10.478   2.948
23912W        W95528  10.280  12.655  14.819
23913W        W95529  18.258  35.042  13.058
23914W        W95530  43.966  22.608   1.323
23915W        W95531  36.547  32.416  13.888
23916W        W95532  31.945  19.923  12.105
23917W        W95533   7.651   6.437   0.911
23918W        W95534  27.525  42.434  12.450
23919W        W95535   1.702  35.935   4.646
23920W        W95536  36.339   2.548  13.459
23921W        W95537  35.808  19.026   1.177
23922W        W95538   1.418   9.673  12.394
23923W        W95539  16.011  19.839   3.267
23924W        W95540   8.185  14.070   2.193
23925W        W95541  20.045  15.795  11.174
23926W        W95542  26.029   3.680   4.188
23927W        W95543   9.595  34.027   0.584
23928W        W95544   7.185  20.197   1.237
23929W        W95545  15.090  12.344  12.895
23930W        W95546  35.935  16.047  14.531
23931W        W95547  31.674  43.941  12.900
23932W        W95548  16.146  34.625  12.890
23933W        W95549  24.872   7.845  14.298
23934W        W95550  40.189   9.510  14.428
23935W        W95551  25.190  11.724   3.868
23936W        W95552  10.725  30.544   2.244
23937W        W95553   2.276  14.240  10.746
23938W        W95554  24.008  14.266  12.804
23939W        W95555  21.145  37.127   1.871
23940W        W95556  39.731  10.857  14.870
23941W        W95557  10.348   4.922   0.786
23942W        W95558  24.049  14.773   2.732
23943W        W95559  35.492   5.194   3.202
23944W        W95560  18.419  37.861   4.957
23945W        W95561  25.446  27.408  13.899
23946W        W95562  10.937   5.162  11.001
23947W        W95563   5.192  29.110   2.732
23948W        W95564  31.579  36.104  12.431
23949W        W95565  16.829  23.403   1.322
23950W        W95566  31.076   9.642  12.396
23951W        W95567  40.317  12.027   1.332
23952W        W95568  41.331   8.202  11.229
23953W        W95569  28.139  31.051   4.486
23954W        W95570   1.909   1.956  13.896
23955W        W95571  18.148  42.207  13.380
23956W        W95572  17.731  16.276  11.018
23957W        W95573  19.661  33.652   0.732
23958W        W95574  16.091   2.753   1.151
23959W        W95575  32.184  37.325   3.780
23960W        W95576  19.667  13.850   3.332
23961W        W95577  14.691   3.380   4.034
23962W        W95578  24.208   8.146  14.867
23963W        W95579  27.284  23.223   2.833
23964W        W95580  38.019  30.645  13.304
23965W        W95581  41.052  29.704  11.961
23966W        W95582  36.546   4.649  13.067
23967W        W95583  12.444  18.786  10.354
23968W        W95584  20.229  22.334   0.512
23969W        W95585  44.333  32.553  11.210
23970W        W95586  17.527  44.529   4.121
23971W        W95587   1.074   0.932  12.912
23972W        W95588   7.629  33.889   3.759
23973W        W95589  44.369  36.845  14.520
23974W        W95590  17.540  28.253  12.143
23975W        W95591  20.582  23.144   0.275
23976W        W95592  43.729  31.507   2.482
23977W        W95593  25.004  36.427  12.134
23978W        W95594  10.803  24.937  12.444
23979W        W95595  23.394  34.463   0.857
23980W        W95596  26.186   3.997   3.718
23981W        W95597  15.775  42.412  14.960
23982W        W95598  36.269   3.329  10.709
23983W        W95599   1.785   2.662   4.846
23984W        W95600  41.160  35.576  10.996
23985W        W95601  21.445  31.098   3.144
23986W        W95602  20.490  31.698  11.907
23987W        W95603  38.616  10.380   9.852
23988W        W95604  32.977  43.920  11.347
23989W        W95605  30.934  44.278   1.883
23990W        W95606   4.790  27.362   1.527
23991W        W95607  38.038  16.733  11.942
23992W        W95608  24.782  16.060  11.894
23993W        W95609  27.077  34.922  13.550
23994W        W95610   5.705  12.415  10.641
23995W        W95611  25.673  40.032  11.562
23996W        W95612  29.376  17.029   0.819
23997W        W95613  17.557  44.725   3.633
23998W        W95614  10.149   2.570   1.292
23999W        W95615   0.098  25.616   3.667
24000W        W95616   3.784   9.106  14.305
24001W        W95617  10.748  35.499  13.797
24002W        W95618  14.112  15.603  11.561
24003W        W95619  35.556  23.973  12.155
24004W        W95620  37.869  39.363  13.956
24005W        W95621  20.555   0.465   4.695
24006W        W95622  34.875  15.680  13.165
24007W        W95623  41.734  27.789   3.715
24008W        W95624  29.948  18.212  13.342
24009W        W95625   1.526  15.533   0.451
24010W        W95626  34.801  14.631  14.334
24011W        W95627  33.496  18.156   4.490
24012W        W95628  23.435  39.039   0.327
24013W        W95629  33.154  37.087   4.654
24014W        W95630  19.930  30.129   3.250
24015W        W95631   2.525  34.913  11.113
24016W        W95632  24.418   8.329  11.470
24017W        W95633   6.719   4.936  12.999
24018W        W95634  36.532  38.355  11.133
24019W        W95635  20.079  21.669  13.311
24020W        W95636  10.325  32.573   0.293
24021W        W95637  26.110  22.690  12.494
24022W        W95638  30.929  29.857  13.386
24023W        W95639  23.614   2.268   0.314
24024W        W95640  39.404   6.278  12.106
24025W        W95641  17.757  16.370   0.391
24026W        W95642  43.239   0.852   4.505
24027W        W95643  37.370  26.885  13.634
24028W        W95644  37.311  10.506   9.715
24029W        W95645   0.575   2.819  13.235
24030W        W95646  35.618  18.567   1.041
24031W        W95647  27.028  20.666   2.173
24032W        W95648  28.528  11.759  13.425
24033W        W95649   5.624  44.337  13.142
24034W        W95650   1.253  18.606  13.882
24035W        W95651  28.330   0.789   2.646
24036W        W95652  27.418  22.106  11.581
24037W        W95653  32.164  11.270   4.179
24038W        W95654  32.933  22.003   0.757
24039W        W95655  34.602  14.713   3.757
24040W        W95656  21.684  20.526  11.288
24041W        W95657  32.700  28.507  13.284
24042W        W95658  24.979  13.689   2.516
24043W        W95659  33.541  37.862   1.009
24044W        W95660  16.115  43.809   3.910
24045W        W95661  23.253  27.014  11.928
24046W        W95662   3.761  15.749  10.844
24047W        W95663  24.248  13.708   2.663
24048W        W95664  11.488  19.546   0.273
24049W        W95665   4.267  28.092  11.413
24050W        W95666  35.988  14.651  12.016
24051W        W95667   8.776  23.232  11.120
24052W        W95668  36.062  23.928   2.903
24053W        W95669   1.444   7.516   2.139
24054W        W95670  23.812  15.644  12.026
24055W        W95671  42.387  41.358   0.931
24056W        W95672  32.999  42.817   2.650
24057W        W95673  29.491  43.990   5.010
24058W        W95674  40.573   7.425   3.315
24059W        W95675  35.867  28.279  11.929
24060W        W95676   0.587   9.624   2.170
24061W        W95677  42.129  32.101   0.786
24062W        W95678  26.919  23.494  13.701
24063W        W95679  14.465  25.717   0.897
24064W        W95680  42.483  40.514   0.369
24065W        W95681  16.749  27.125   1.440
24066W        W95682  21.719  12.596   2.503
24067W        W95683  33.626  28.713   3.643
24068W        W95684  29.515  12.105   0.990
24069W        W95685   3.434   9.105  11.660
24070W        W95686  34.396  33.669   2.391
24071W        W95687   1.511  10.108   0.299
24072W        W95688   5.898   8.064   3.541
24073W        W95689  16.794  30.190  14.483
24074W        W95690  26.593  42.775  12.050
24075W        W95691   4.017  41.594  13.985
24076W        W95692  32.494  22.584  10.574
24077W        W95693  25.083  26.143  14.003
24078W        W95694   5.312  10.771   3.369
24079W        W95695   0.670  33.213   1.892
24080W        W95696   2.457   4.505   4.637
24081W        W95697  38.952  38.504  10.746
24082W        W95698  20.639  16.856  11.696
24083W        W95699   5.081  29.627  10.961
24084W        W95700  23.937   6.760  11.410
24085W        W95701  31.514  23.910  14.765
24086W        W95702   3.969   3.911   2.081
24087W        W95703  11.411  25.125  13.431
24088W        W95704   6.141  26.094  14.827
24089W        W95705  41.292  34.348  12.962
24090W        W95706  33.565  27.004   3.107
24091W        W95707  41.234  26.659  10.502
24092W        W95708   3.764  21.919  10.225
24093W        W95709   8.634  16.907  13.182
24094W        W95710  37.546   7.792  12.453
24095W        W95711   7.155  38.832  12.121
24096W        W95712  27.154  15.414  14.434
24097W        W95713  27.356  26.993  14.999
24098W        W95714  13.136  26.210   3.612
24099W        W95715   3.557  35.457   1.406
24100W        W95716  32.494  34.576  12.078
24101W        W95717  16.763  39.370   0.316
24102W        W95718  15.383  35.057   1.389
24103W        W95719  14.236  38.451   1.671
24104W        W95720   3.902  32.077   2.249
24105W        W95721  20.368  39.141  13.811
24106W        W95722   4.001   5.325   1.071
24107W        W95723  10.355  41.960   5.034
24108W        W95724  16.178  44.030  14.126
24109W        W95725  42.891  13.248   2.921
24110W        W95726  25.911  33.467  11.924
24111W        W95727  44.395  29.913  14.060
24112W        W95728  41.574  10.174  13.506
24113W        W95729  36.986   7.013   0.816
24114W        W95730   8.171  34.861  13.524
24115W        W95731  23.907  16.307  12.093
24116W        W95732  15.767  24.007   3.837
24117W        W95733   9.636  35.480  14.822
24118W        W95734  28.695  28.426  14.905
24119W        W95735  28.220  27.642  13.219
24120W        W95736  16.432  34.123  14.501
24121W        W95737   3.314  27.581  14.898
24122W        W95738   2.803  40.458   0.195
24123W        W95739  17.154  29.553   0.956
24124W        W95740  44.691  19.047  11.232
24125W        W95741  31.874  10.399   1.098
24126W        W95742  10.941   0.684   2.687
24127W        W95743   5.057  20.406  11.111
24128W        W95744  32.917  13.291   2.155
24129W        W95745  30.111   9.714   1.921
24130W        W95746  27.756   5.778   3.612
24131W        W95747   7.883  41.481  12.652
24132W        W95748  15.677  21.610  13.921
24133W        W95749  29.674  32.668   1.803
24134W        W95750  13.275  25.519  11.546
24135W        W95751   1.319  23.836   2.871
24136W        W95752  18.692   1.798   1.654
24137W        W95753  22.045  39.216   2.314
24138W        W95754   1.779  23.266   2.322
24139W        W95755  11.165  11.257   0.421
24140W        W95756  18.262  23.646  11.615
24141W        W95757  15.533   6.410   3.122
24142W        W95758   3.889  21.937  14.218
24143W        W95759   8.766   0.311   3.641
24144W        W95760  29.979  12.205   1.209
24145W        W95761   0.987  17.338  11.531
24146W        W95762  10.839  38.939   0.184
24147W        W95763  34.066  37.318   1.912
24148W        W95764  20.114  31.854  13.976
24149W        W95765  32.447   7.509   3.731
24150W        W95766  37.587  32.040   1.367
24151W        W95767  17.145  16.510  12.941
24152W        W95768  25.011   1.417   1.395
24153W        W95769  32.404  33.479   1.489
24154W        W95770   4.779  16.095   4.220
24155W        W95771   1.287  42.850  13.385
24156W        W95772  30.132  24.304  14.080
24157W        W95773  32.385  13.711   0.746
24158W        W95774  15.971  27.565  12.483
24159W        W95775  29.520  27.464  13.026
24160W        W95776  12.646  41.941  11.496
24161W        W95777  34.078   2.789  14.958
24162W        W95778  18.976   2.010   3.860
24163W        W95779  22.233  44.389  10.669
24164W        W95780  12.647  39.253   3.588
24165W        W95781   5.652  28.003  14.244
24166W        W95782  14.968  38.935   1.863
24167W        W95783  25.197   6.623  11.597
24168W        W95784   3.893  13.929   3.669
24169W        W95785  40.197  23.801  12.888
24170W        W95786  12.875  39.902  14.963
24171W        W95787  18.843  15.499   3.716
24172W        W95788  38.872  23.751  10.250
24173W        W95789  40.783  36.126   4.549
24174W        W95790  21.823   1.323  14.760
24175W        W95791  27.953  44.385  13.829
24176W        W95792  27.077  44.952  12.498
24177W        W95793   6.913  40.973   2.399
24178W        W95794  13.770  20.331   2.679
24179W        W95795   0.979  13.006   3.780
24180W        W95796  21.794   5.629   4.123
24181W        W95797  14.222  27.724   2.438
24182W        W95798  26.185   6.747   0.660
24183W        W95799  30.626  35.428   4.859
24184W        W95800  28.529  33.315  14.355
24185W        W95801  19.087  20.131   1.703
24186W        W95802  25.022   6.455  12.890
24187W        W95803   6.711  16.477  14.838
24188W        W95804  30.202   1.358   1.871
24189W        W95805  30.095  25.619   1.872
24190W        W95806  20.031   4.404  10.881
24191W        W95807  18.786  15.073   0.341
24192W        W95808  44.093   8.791  10.188
24193W        W95809  43.217  32.558   3.717
24194W        W95810   0.680  26.013   3.087
24195W        W95811   5.481  29.159   0.252
24196W        W95812  34.346   1.197  14.171
24197W        W95813  12.770  36.011   4.568
24198W        W95814  26.549  24.309  12.473
24199W        W95815   3.987  10.635   2.237
24200W        W95816  31.498  11.225  14.760
24201W        W95817  19.311   9.227  13.916
24202W        W95818  30.119  16.720  11.154
24203W        W95819  11.222   7.199  10.875
24204W        W95820  39.604  17.834   4.197
24205W        W95821  30.645  43.042   4.610
24206W        W95822  26.994  18.109  10.474
24207W        W95823  17.551  37.385  14.269
24208W        W95824  26.169  38.309   3.176
24209W        W95825  43.644  23.545   4.915
24210W        W95826  31.405  16.338  10.832
24211W        W95827  11.277  26.870   4.211
24212W        W95828  28.467  29.170  11.860
24213W        W95829  10.061  30.141   2.234
24214W        W95830  19.209  30.972   4.299
24215W        W95831  20.673  38.016  10.585
24216W        W95832   3.363   0.700   9.863
24217W        W95833  37.307  39.300   1.280
24218W        W95834  41.370  35.455   3.816
24219W        W95835  14.317  27.238   1.222
24220W        W95836  42.992  17.359  10.606
24221W        W95837  44.907   3.362   4.528
24222W        W95838  41.938   6.902  14.318
24223W        W95839   7.794   2.555   1.705
24224W        W95840  27.786  13.988   1.315
24225W        W95841   9.809  41.377  12.595
24226W        W95842   9.483   4.556  13.007
24227W        W95843  43.942   0.257   0.723
24228W        W95844   3.404  16.122  14.237
24229W        W95845   9.444  16.679  12.901
24230W        W95846  31.103  33.364  12.633
24231W        W95847  36.084  41.318   2.784
24232W        W95848  11.772  29.652  13.793
24233W        W95849  15.495  32.830   1.666
24234W        W95850  25.645  21.990  11.278
24235W        W95851  21.746  42.815   1.197
24236W        W95852  21.770   4.723   4.040
24237W        W95853  27.250  16.163  12.550
24238W        W95854   0.651  24.608  12.514
24239W        W95855  40.306  17.041   4.140
24240W        W95856   8.272  21.143  11.551
24241W        W95857  34.401  17.153   1.998
24242W        W95858  17.884  32.254  11.602
24243W        W95859  37.105  24.591  13.310
24244W        W95860  16.963  37.460  11.967
24245W        W95861  36.622  26.799  14.356
24246W        W95862   5.868   4.866   1.305
24247W        W95863  37.243  25.598  13.861
24248W        W95864  28.804  21.244  13.418
24249W        W95865  32.681  44.050   5.189
24250W        W95866  12.255   9.688   1.201
24251W        W95867  34.821   1.436  12.498
24252W        W95868  17.669  39.276  11.683
24253W        W95869  11.901  31.038  12.394
24254W        W95870  31.445   0.344  14.865
24255W        W95871  15.158  28.691  13.036
24256W        W95872  41.289  37.600  12.584
24257W        W95873  28.657  36.378   2.460
24258W        W95874  34.107  19.099  11.639
24259W        W95875   5.495  17.198   2.086
24260W        W95876  10.492  16.490   2.187
24261W        W95877  30.505  14.970   2.178
24262W        W95878  29.118   4.996   4.606
24263W        W95879  20.279  12.370  12.623
24264W        W95880   1.496  38.560   3.212
24265W        W95881   7.293  30.896  12.896
24266W        W95882  42.786  40.726  11.394
24267W        W95883  36.095  27.041  12.455
24268W        W95884  13.645   3.283   9.988
24269W        W95885  14.173  17.209   1.377
24270W        W95886   9.112  13.063  13.068
24271W        W95887  28.971  33.558   1.311
24272W        W95888  34.364  11.592   0.395
24273W        W95889  33.186  10.686  12.423
24274W        W95890  40.582  14.958   2.236
24275W        W95891   9.365  35.577   4.094
24276W        W95892  10.495   4.057   3.876
24277W        W95893  11.135  40.557   4.282
24278W        W95894  15.431  16.584  10.139
24279W        W95895   7.871  16.749  14.483
24280W        W95896  19.551   9.730   0.050
24281W        W95897  14.318  19.624   4.616
24282W        W95898  18.232  44.524   1.448
24283W        W95899  37.059  41.957   2.843
24284W        W95900  13.855  28.711  12.469
24285W        W95901  12.667  43.996  10.604
24286W        W95902   0.546  17.790  14.486
24287W        W95903   4.145   7.795   1.361
24288W        W95904  41.559  33.174   2.344
24289W        W95905   3.351  43.031   0.745
24290W        W95906  31.336  34.836  14.265
24291W        W95907   0.604   5.719  11.083
24292W        W95908  30.218  40.357   4.684
24293W        W95909   9.240  40.426   2.091
24294W        W95910   7.356  41.987   1.867
24295W        W95911  33.129  10.218   4.148
24296W        W95912   8.604  20.332   2.623
24297W        W95913   2.388   4.984  12.602
24298W        W95914  28.941  23.210   4.599
24299W        W95915  33.606  25.026  12.971
24300W        W95916  12.723  37.501  12.068
24301W        W95917  41.019  17.603   4.713
24302W        W95918  44.204  27.296   3.996
24303W        W95919  41.810   1.927   0.693
24304W        W95920  26.893  42.487  13.486
24305W        W95921  30.577   5.836   1.987
24306W        W95922  37.310   7.297   1.537
24307W        W95923  41.956  28.191   4.011
24308W        W95924  42.986   9.593   3.491
24309W        W95925  11.703  36.988  12.952
24310W        W95926  32.595  11.729  12.610
24311W        W95927   7.155  22.708   3.268
24312W        W95928  17.214  37.304  13.352
24313W        W95929  19.428  19.677  11.184
24314W        W95930  41.389  30.374  12.147
24315W        W95931  31.609  27.564  12.861
24316W        W95932  38.230  23.716   1.552
24317W        W95933  28.970  13.260  13.369
24318W        W95934  24.653  30.104  12.421
24319W        W95935  16.069  37.810  11.561
24320W        W95936  31.707  35.848  11.512
24321W        W95937   1.704  17.195  12.015
24322W        W95938  19.523   6.131  12.385
24323W        W95939  35.478  36.505   3.135
24324W        W95940  12.877  35.337   0.466
24325W        W95941   0.122  43.878  14.658
24326W        W95942  12.250  11.274  14.299
24327W        W95943  44.882  17.842   3.789
24328W        W95944   0.914  39.223  13.472
24329W        W95945  39.066  37.389   2.472
24330W        W95946  10.716  35.580  13.281
24331W        W95947   3.145  21.554   2.842
24332W        W95948  29.691  39.790   0.287
24333W        W95949  31.383  21.504  11.552
24334W        W95950  34.588  29.205  11.577
24335W        W95951   8.604  30.080  13.891
24336W        W95952  24.504  15.814   3.182
24337W        W95953  34.746  31.873  14.281
24338W        W95954  18.796  39.452  13.258
24339W        W95955  44.119  37.535  10.302
24340W        W95956  17.726  23.176   3.162
24341W        W95957  22.303  29.641  13.269
24342W        W95958   5.343  27.405  10.634
24343W        W95959  29.195   3.343   4.467
24344W        W95960   1.427   7.182  14.967
24345W        W95961  15.643  39.526  11.086
24346W        W95962  13.759   6.557  10.574
24347W        W95963  39.696  13.682   5.445
24348W        W95964  18.216  32.137  14.013
24349W        W95965  10.418  28.006   4.054
24350W        W95966  15.740   3.859  11.787
24351W        W95967  37.041  33.910   3.824
24352W        W95968  35.348  32.997   1.733
24353W        W95969  26.523  11.056   3.069
24354W        W95970  25.591   9.358  10.634
24355W        W95971  23.507  22.431  11.948
24356W        W95972  20.290  13.570   2.233
24357W        W95973   6.874  18.296  11.164
24358W        W95974  36.403   0.506   1.505
24359W        W95975  24.529  25.559  10.648
24360W        W95976  34.539  42.845  14.530
24361W        W95977  40.678  44.188  11.087
24362W        W95978  19.183  14.896  10.788
24363W        W95979  27.633  20.181  10.672
24364W        W95980  30.144  14.901  14.038
24365W        W95981   2.828  39.306  10.661
24366W        W95982  32.663  10.733  12.459
24367W        W95983  19.506   8.244  11.065
24368W        W95984  30.876  39.828   2.781
24369W        W95985  28.186  43.817  10.718
24370W        W95986  39.813  24.181   4.173
24371W        W95987   2.462  24.561   4.924
24372W        W95988  27.420  38.534  12.942
24373W        W95989   7.249  14.273  13.409
24374W        W95990   2.916   0.207   1.345
24375W        W95991   0.159  23.972   2.943
24376W        W95992   0.664   2.431   4.073
24377W        W95993  38.076   9.641  14.286
24378W        W95994  20.784   0.785   5.075
24379W        W95995  13.750   3.190  11.569
24380W        W95996  40.288  31.599   1.885
24381W        W95997  33.243   2.290   1.730
24382W        W95998   8.182  30.240   2.826
24383W        W95999  18.110   5.194   0.177
24384W        W96000  28.295  21.511   4.164
24385W        W96001  21.767  25.180   3.194
24386W        W96002  17.376   5.999  11.057
24387W        W96003   4.900  42.117  12.092
24388W        W96004  35.023  24.201  13.643
24389W        W96005  14.090  42.831  14.054
24390W        W96006  19.970   4.820  14.563
24391W        W96007  11.409  35.828  12.443
24392W        W96008  12.022  42.865  11.478
24393W        W96009  11.631  24.689  14.579
24394W        W96010   1.294   8.803  10.839
24395W        W96011  15.704   1.461   0.279
24396W        W96012  28.836  31.531   1.905
24397W        W96013  43.738  15.781  14.445
24398W        W96014  35.412  14.990  14.754
24399W        W96015  21.283  18.050   0.874
24400W        W96016  14.299  11.703  14.066
24401W        W96017  40.152   1.312   0.552
24402W        W96018  37.914  40.391  14.888
24403W        W96019  15.409   7.105   1.887
24404W        W96020  43.999   7.798  13.254
24405W        W96021  27.054  28.153  14.044
24406W        W96022  28.577  40.932  13.797
24407W        W96023  17.566  25.475  12.556
24408W        W96024  35.366  14.360   4.103
24409W        W96025  18.745  20.849  12.200
24410W        W96026  19.995  37.844   2.355
24411W        W96027  15.233  31.596  12.469
24412W        W96028  31.925  42.447   0.216
24413W        W96029  24.922  13.035   4.136
24414W        W96030  41.770  30.071   4.127
24415W        W96031  39.768  28.488  14.483
24416W        W96032  42.011  33.574  11.102
24417W        W96033  37.599   7.251  12.626
24418W        W96034  12.196  23.096   2.684
24419W        W96035   3.386  30.694  12.115
24420W        W96036  44.516   2.754  14.955
24421W        W96037  38.228  20.895  14.243
24422W        W96038  12.680  11.829  12.534
24423W        W96039  23.649  27.604   3.281
24424W        W96040  42.974  15.871   3.110
24425W        W96041  16.733  12.553  12.495
24426W        W96042  11.568  19.610  13.499
24427W        W96043  33.445  41.971  11.899
24428W        W96044  27.802   4.875  11.168
24429W        W96045  24.584   4.439  13.454
24430W        W96046  17.060  18.049   4.121
24431W        W96047  38.639   6.379  13.004
24432W        W96048  34.543  23.410   4.617
24433W        W96049  41.934  20.800  12.159
24434W        W96050  13.882  28.611   4.294
24435W        W96051  23.199  44.536   4.816
24436W        W96052  35.958  36.369   0.620
24437W        W96053  41.775   6.931   4.846
24438W        W96054  13.300  28.555  12.348
24439W        W96055  28.475  34.608  12.403
24440W        W96056  16.686   9.924  12.156
24441W        W96057   1.252  22.908   3.317
24442W        W96058  44.818  10.012  14.658
24443W        W96059  25.160  21.841  11.215
24444W        W96060  37.971   4.492  14.287
24445W        W96061  12.263   8.743  14.999
24446W        W96062  36.152  14.628  12.517
24447W        W96063  26.092  35.641  10.569
24448W        W96064  14.630  42.967  10.685
24449W        W96065  36.408  40.974   0.520
24450W        W96066  28.264  32.490  14.366
24451W        W96067  19.189   6.416   1.226
24452W        W96068  42.502  23.926   3.273
24453W        W96069  41.167  44.750  12.057
24454W        W96070  10.015  28.537  13.018
24455W        W96071  24.172   7.645  12.987
24456W        W96072  20.722   5.919  11.163
24457W        W96073  21.064  25.427   4.970
24458W        W96074  35.701  10.711   2.900
24459W        W96075  10.913  22.610   1.866
24460W        W96076  20.229  35.298  14.159
24461W        W96077  16.648   8.611   2.769
24462W        W96078   0.946  33.124   1.449
24463W        W96079   9.461  28.255   4.333
24464W        W96080   8.824  26.974   0.727
24465W        W96081  26.477  21.574  11.114
24466W        W96082  23.797  17.270  11.310
24467W        W96083  14.286  20.593   4.921
24468W        W96084  37.124   3.439   4.426
24469W        W96085  37.449  33.838   2.859
24470W        W96086  41.122  22.197   1.806
24471W        W96087  34.598  20.576   3.897
24472W        W96088  42.582  21.723   4.594
24473W        W96089  28.645  40.994  14.307
24474W        W96090  22.204  28.365  12.847
24475W        W96091   8.732  22.080   1.026
24476W        W96092   4.338  29.312  11.583
24477W        W96093  42.796  38.260  11.755
24478W        W96094  13.772   1.747  12.887
24479W        W96095   9.426  29.183   1.205
24480W        W96096   6.168  38.019   2.761
24481W        W96097  21.918   4.682   1.732
24482W        W96098  17.780  10.627   2.815
24483W        W96099   2.862  13.911  12.803
24484W        W96100  19.313   1.585  13.005
24485W        W96101  24.108  39.444   4.569
24486W        W96102  29.903   3.406  13.457
24487W        W96103  13.898   1.439  11.895
24488W        W96104   1.787  10.323   3.155
24489W        W96105  23.421  14.073   2.305
24490W        W96106  16.355  14.024  14.936
24491W        W96107   4.764   0.777   5.467
24492W        W96108   0.857  12.238   2.125
24493W        W96109  21.358  34.479  10.677
24494W        W96110   7.489   6.760   1.913
24495W        W96111  43.487  34.390  10.733
24496W        W96112  17.805  19.204  13.121
24497W        W96113  12.655  13.648  12.198
24498W        W96114  11.761  38.453  12.635
24499W        W96115  28.075   7.024   3.718
24500W        W96116  24.481   2.465   1.873
24501W        W96117  20.359  15.136   2.791
24502W        W96118   7.968  30.051  12.721
24503W        W96119  41.406  43.518  13.488
24504W        W96120  40.791  27.341   3.635
24505W        W96121  14.305  38.637   0.433
24506W        W96122  20.396   4.750   3.659
24507W        W96123  25.203  14.263   4.862
24508W        W96124  38.513  24.714   3.926
24509W        W96125  27.495   4.094  11.599
24510W        W96126   7.981  17.192  13.913
24511W        W96127  31.052   7.888  12.882
24512W        W96128  19.189  33.623   4.402
24513W        W96129  22.452  36.251  11.533
24514W        W96130  35.193   4.284  13.262
24515W        W96131  18.107  37.811   4.526
24516W        W96132  32.017  30.909  13.439
24517W        W96133  27.599  16.797   2.425
24518W        W96134   4.899   7.633  11.645
24519W        W96135  31.454  32.141   2.131
24520W        W96136  11.775   0.040  14.849
24521W        W96137  10.264  13.863   0.305
24522W        W96138  31.948   0.147  13.387
24523W        W96139   7.894   7.798   2.029
24524W        W96140   8.587  20.777  14.922
24525W        W96141  40.769  28.877  11.642
24526W        W96142  41.820  38.021   0.007
24527W        W96143  36.289  18.194   3.567
24528W        W96144  33.911   7.436  14.637
24529W        W96145  38.198  36.900   3.607
24530W        W96146  38.751   9.789   1.810
24531W        W96147  22.054  40.841   1.826
24532W        W96148  27.137  34.398   3.672
24533W        W96149  11.842  43.470  11.561
24534W        W96150  40.496   6.294   4.515
24535W        W96151   8.266  13.770  13.959
24536W        W96152  20.927   0.015  13.480
24537W        W96153  40.936   7.691  14.092
24538W        W96154  25.611   8.791  11.417
24539W        W96155  42.954  27.186  13.934
24540W        W96156  31.546  26.749  12.474
24541W        W96157  13.619  15.145  11.610
24542W        W96158   1.194   6.190   1.616
24543W        W96159  35.321  22.469   1.674
24544W        W96160  22.329   8.680  11.610
24545W        W96161  19.486  18.782   0.857
24546W        W96162  43.581   0.445  12.458
24547W        W96163  30.178  14.140  14.359
24548W        W96164  38.573  38.304  13.448
24549W        W96165  42.465  26.909   2.361
24550W        W96166   8.396   3.183  11.290
24551W        W96167  11.460   1.435   4.911
24552W        W96168  39.431  29.073   3.444
24553W        W96169   5.404  11.318  11.524
24554W        W96170  42.380   9.696  11.614
24555W        W96171  32.250  22.064  10.076
24556W        W96172  17.653  13.262  13.132
24557W        W96173  22.669  25.453  11.029
24558W        W96174  29.407  22.267   3.369
24559W        W96175  35.449  37.621   2.468
24560W        W96176  23.992  41.527   3.178
24561W        W96177   3.710  21.115  10.673
24562W        W96178  14.212   3.700  10.991
24563W        W96179  12.825  26.411   1.708
24564W        W96180  26.156   3.417  11.100
24565W        W96181  29.896  38.373  13.394
24566W        W96182  18.689  23.463  12.504
24567W        W96183   3.735  28.147   1.714
24568W        W96184  31.624  39.277   0.950
24569W        W96185  44.466  18.364   2.431
24570W        W96186  37.546  28.934  10.578
24571W        W96187  35.961  10.594  14.332
24572W        W96188  12.283  27.184   0.326
24573W        W96189  27.449  22.537   1.904
24574W        W96190  22.715  24.409   4.274
24575W        W96191  44.934  27.188  13.915
24576W        W96192  39.283  43.926   1.778
24577W        W96193  13.741  40.792   3.978
24578W        W96194  25.491  30.160   3.172
24579W        W96195  35.544  29.206  12.649
24580W        W96196   4.627   3.166   0.706
24581W        W96197   3.944  19.084  14.506
24582W        W96198  27.412   8.342  14.918
24583W        W96199   0.152  12.966  11.596
24584W        W96200  31.920   0.979  12.879
24585W        W96201  32.887  35.582   1.197
24586W        W96202  35.559  17.499   4.545
24587W        W96203  10.351  38.060   0.037
24588W        W96204   2.226   0.750  13.836
24589W        W96205   2.373   0.818  13.339
24590W        W96206  20.017  30.985   4.662
24591W        W96207  33.190  39.100   4.345
24592W        W96208  28.934   5.547   2.577
24593W        W96209  39.380  22.531  10.579
24594W        W96210  44.902   6.768   3.255
24595W        W96211  42.032  28.143  14.000
24596W        W96212   1.059   3.253   0.415
24597W        W96213  30.242   8.370  13.429
24598W        W96214  34.670  24.151  14.065
24599W        W96215  12.183   3.571   0.660
24600W        W96216   0.256  36.929   4.030
24601W        W96217  15.751  42.120   4.076
24602W        W96218  16.901  23.564   3.601
24603W        W96219  33.544  29.077   0.927
24604W        W96220  11.321   8.646   2.203
24605W        W96221  38.322  29.446   2.359
24606W        W96222  15.493  30.667  10.357
24607W        W96223  14.988  39.008   2.752
24608W        W96224  23.641   2.197  12.235
24609W        W96225  37.157  24.049  12.515
24610W        W96226  44.410  44.769  11.508
24611W        W96227  10.021  37.977   2.306
24612W        W96228   7.428  38.904   0.056
24613W        W96229   4.409  19.191  13.717
24614W        W96230  35.950   5.150   1.876
24615W        W96231  28.555  13.137   3.689
24616W        W96232  33.126   8.483   2.261
24617W        W96233  35.109  26.061   4.600
24618W        W96234  28.848  43.999   0.149
24619W        W96235  21.185  40.547   4.671
24620W        W96236   3.512  39.707  11.085
24621W        W96237  30.144  30.924  10.557
24622W        W96238   0.354   0.229   1.290
24623W        W96239   4.236   7.150  12.250
24624W        W96240  12.820  11.558   4.252
24625W        W96241  23.543  41.491  14.427
24626W        W96242  33.843  34.337  13.069
24627W        W96243  17.713   6.681   1.814
24628W        W96244  27.649   6.696   4.262
24629W        W96245  20.166  19.155   1.981
24630W        W96246  36.095   5.113  11.829
24631W        W96247  18.514   6.227   0.396
24632W        W96248  13.117   2.761  14.549
24633W        W96249  27.043  17.363  14.500
24634W        W96250   0.711  30.111  10.949
24635W        W96251  32.447  26.857   1.324
24636W        W96252   2.347   4.921   1.161
24637W        W96253  28.415  43.466  10.432
24638W        W96254  42.198  34.503  11.892
24639W        W96255  31.082   5.850   1.785
24640W        W96256  40.379  38.481   3.611
24641W        W96257  17.041  17.548  14.831
24642W        W96258  24.235  43.496  13.385
24643W        W96259   2.536  13.735   3.353
24644W        W96260  35.019  33.323  13.989
24645W        W96261  30.964  21.336   0.313
24646W        W96262  12.752  26.286  11.351
24647W        W96263  33.436   6.461  12.515
24648W        W96264  16.199   7.556   4.407
24649W        W96265   4.222   4.301   1.344
24650W        W96266  24.606  19.973  14.255
24651W        W96267   1.240  12.717  10.530
24652W        W96268  38.818  20.598   1.040
24653W        W96269   7.725  10.527  12.716
24654W        W96270   7.923  28.388   1.248
24655W        W96271  15.539  40.469   2.270
24656W        W96272  44.845   2.531  14.311
24657W        W96273   7.082   4.997  13.950
24658W        W96274  39.822   5.628   4.337
24659W        W96275   7.242  29.812   1.299
24660W        W96276   5.851   8.517  13.424
24661W        W96277  42.338  28.130  12.429
24662W        W96278  26.637  39.738   4.057
24663W        W96279   0.942  14.560   4.527
24664W        W96280  41.427   3.319  10.295
24665W        W96281  43.422  30.010  12.600
24666W        W96282  25.110  14.900   1.696
24667W        W96283  18.281  12.617  13.345
24668W        W96284  16.207  36.445  10.755
24669W        W96285  39.898   3.650   1.288
24670W        W96286  17.141  33.329   0.984
24671W        W96287  34.040   3.261  13.557
24672W        W96288  10.851   1.248  14.786
24673W        W96289  19.614  26.652  11.716
24674W        W96290  14.517  22.323   3.181
24675W        W96291  37.786  15.131   2.428
24676W        W96292  39.611  14.122  13.376
24677W        W96293  15.619  10.406  12.861
24678W        W96294  39.047   0.316  12.555
24679W        W96295   8.351   2.250   2.321
24680W        W96296  42.245  41.461   2.246
24681W        W96297  33.961  41.743  11.637
24682W        W96298  31.147  34.817   1.216
24683W        W96299  33.677  21.625   3.849
24684W        W96300  31.345  36.029   0.288
24685W        W96301  39.831  17.333   1.793
24686W        W96302   3.775  43.111  14.350
24687W        W96303  40.309  36.601   3.276
24688W        W96304   9.836   1.984   3.669
24689W        W96305  12.672   0.009  11.460
24690W        W96306   8.750  44.246   2.760
24691W        W96307   6.241  44.241   3.224
24692W        W96308  13.997   3.235   3.997
24693W        W96309  30.381  28.696   4.503
24694W        W96310   0.294   9.966   2.527
24695W        W96311  29.485  34.113  10.895
24696W        W96312  14.732  37.594   4.921
24697W        W96313  19.114   9.703  11.905
24698W        W96314  10.381  13.585  12.003
24699W        W96315   6.551   1.974   0.279
24700W        W96316   5.984   5.449   4.546
24701W        W96317  41.577  21.197  13.404
24702W        W96318  41.022  33.500   3.599
24703W        W96319   9.794  40.511   1.291
24704W        W96320   1.515  29.126  12.386
24705W        W96321  24.032  13.089  13.097
24706W        W96322  35.493  27.110   0.960
24707W        W96323  43.786   1.390   4.581
24708W        W96324  25.361  41.418   4.907
24709W        W96325   8.727  35.573   0.388
24710W        W96326  30.555  44.184   2.226
24711W        W96327  42.252  28.640  12.363
24712W        W96328   8.765   5.819  12.892
24713W        W96329  34.421  24.070  14.500
24714W        W96330  42.973  21.983  12.105
24715W        W96331  20.025  29.717   2.293
24716W        W96332  44.420  16.202  12.308
24717W        W96333  30.576  25.897   3.867
24718W        W96334   4.864  19.000   4.549
24719W        W96335  25.965  30.503  13.778
24720W        W96336  34.892   7.275  13.543
24721W        W96337  10.999  21.577  13.188
24722W        W96338  42.811  38.841  14.960
24723W        W96339  32.955   8.360  11.115
24724W        W96340  20.489   9.400   3.667
24725W        W96341  21.541  18.737  11.728
24726W        W96342  11.192  41.313   4.631
24727W        W96343  14.629  42.962  11.565
24728W        W96344  31.469  16.580   2.166
24729W        W96345  39.005   4.193  11.497
24730W        W96346  41.708   7.571  12.604
24731W        W96347  44.885  24.742  10.728
24732W        W96348  24.261  25.648   3.306
24733W        W96349  12.609   5.644   0.382
24734W        W96350  17.389  14.121   4.172
24735W        W96351  36.371  42.020   4.679
24736W        W96352  17.301  22.364   1.938
24737W        W96353  44.238   8.660   3.218
24738W        W96354  39.825  41.523  10.785
24739W        W96355  19.490  24.624   1.725
24740W        W96356  42.897  42.925   3.718
24741W        W96357  13.152  33.801   4.634
24742W        W96358  26.424  30.461  11.530
24743W        W96359  31.833  41.243  14.306
24744W        W96360  20.461   1.339  12.078
24745W        W96361  25.399  33.551  11.912
24746W        W96362  29.102  27.459  12.342
24747W        W96363  23.744  43.825  11.291
24748W        W96364  44.436  12.561   0.902
24749W        W96365  27.472  35.146   4.073
24750W        W96366  29.646  20.074   1.640
24751W        W96367  33.329  22.581   0.874
24752W        W96368  10.606  32.899  14.956
24753W        W96369  37.460  36.458  14.793
24754W        W96370  12.801  29.556  12.257
24755W        W96371  22.581  26.438  10.159
24756W        W96372  24.947  26.687   2.268
24757W        W96373  43.924  36.353   1.734
24758W        W96374  37.108  22.712   0.217
24759W        W96375  29.195  23.475   4.229
24760W        W96376  15.052  18.377   3.634
24761W        W96377  20.906  42.864   2.755
24762W        W96378   8.840   1.174  10.899
24763W        W96379  34.716  16.595   3.259
24764W        W96380   5.276  20.284  10.418
24765W        W96381  32.464  29.432  14.016
24766W        W96382   6.190   8.775  12.124
24767W        W96383  39.969  19.605   1.981
24768W        W96384  29.766   0.200  10.998
24769W        W96385  39.018  14.511   0.376
24770W        W96386  32.925   6.257   4.088
24771W        W96387  12.805  17.518  10.661
24772W        W96388  28.746  16.179   5.035
24773W        W96389  35.583  41.838   2.484
24774W        W96390  13.582  31.664  12.053
24775W        W96391   3.045  30.834   1.282
24776W        W96392  22.507  24.289   2.513
24777W        W96393  30.889   7.413  10.002
24778W        W96394  44.513  36.220  11.616
24779W        W96395  20.558  13.624   1.758
24780W        W96396   2.148   4.288  14.715
24781W        W96397   1.084  33.142   2.870
24782W        W96398  21.719  23.133  10.764
24783W        W96399  20.793  38.429   2.417
24784W        W96400  14.773  39.795   0.377
24785W        W96401  32.990  15.626   0.975
24786W        W96402  38.895   4.420  12.070
24787W        W96403  41.114  35.444   2.458
24788W        W96404  20.233  21.247   2.743
24789W        W96405  20.745  22.731  13.487
24790W        W96406  24.519  26.515  14.765
24791W        W96407  31.079  13.561   4.365
24792W        W96408  15.621  10.443  10.115
24793W        W96409  35.555  42.540   3.728
24794W        W96410  22.739  35.161   0.794
24795W        W96411   5.369  27.061  11.007
24796W        W96412  35.011  34.058   1.214
24797W        W96413  44.909   6.524   5.209
24798W        W96414  19.542  40.260  13.808
24799W        W96415  21.858  25.904   2.430
24800W        W96416  42.248  23.102  13.352
24801W        W96417  23.862  24.714   0.787
24802W        W96418  44.773  33.045   2.705
24803W        W96419  16.199  44.312  11.861
24804W        W96420   8.384  26.443   4.631
24805W        W96421  32.002  20.754  12.995
24806W        W96422  22.639   8.866   9.998
24807W        W96423  22.632  40.234  11.213
24808W        W96424  42.436  35.090   4.686
24809W        W96425  42.862  36.116  12.396
24810W        W96426  32.150  24.688   5.188
24811W        W96427  24.269  10.372  11.657
24812W        W96428  26.281  34.455   0.028
24813W        W96429  29.613   4.673  12.555
24814W        W96430  10.444   5.030  12.597
24815W        W96431  44.966  38.488  14.812
24816W        W96432  30.741  34.048  14.103
24817W        W96433  25.679  12.450  11.652
24818W        W96434  25.090  26.664  13.933
24819W        W96435  29.605   2.831  14.305
24820W        W96436  18.899  13.427   2.271
24821W        W96437  19.805  24.072  12.214
24822W        W96438  25.572  31.220   1.759
24823W        W96439  41.040   1.443  10.450
24824W        W96440  32.918  10.132  13.063
24825W        W96441  38.988  34.085  12.827
24826W        W96442  28.115  44.201   2.484
24827W        W96443  31.074  14.230  13.818
24828W        W96444  12.291  29.338   3.256
24829W        W96445   4.301  15.687   2.694
24830W        W96446  12.811  29.584   3.897
24831W        W96447  25.426  23.658   2.612
24832W        W96448   5.308  10.360  11.432
24833W        W96449  42.398  16.215  14.857
24834W        W96450  12.041  33.700   1.706
24835W        W96451   4.860   3.461   2.877
24836W        W96452  37.863   0.701  13.433
24837W        W96453  15.714  43.084  11.737
24838W        W96454  17.706  10.597   0.675
24839W        W96455  12.642  13.499   2.362
24840W        W96456  24.777  40.889   3.826
24841W        W96457   8.625  28.883  13.404
24842W        W96458  12.544  25.513  12.980
24843W        W96459  37.427  36.810  12.539
24844W        W96460  35.027  33.162   1.316
24845W        W96461  29.557   9.462  14.370
24846W        W96462  24.765  34.144   1.887
24847W        W96463   1.050  19.741   3.462
24848W        W96464  27.684  14.233   4.657
24849W        W96465  19.281   6.738   2.449
24850W        W96466  16.055  14.208  14.460
24851W        W96467  29.135  29.855  13.165
24852W        W96468  12.299  43.317   4.735
24853W        W96469   4.405  16.069   4.700
24854W        W96470  23.062   6.117   3.311
24855W        W96471  26.261  13.824  13.968
24856W        W96472  31.932   9.391  14.299
24857W        W96473  15.588  31.165  10.519
24858W        W96474  21.426  39.227  13.436
24859W        W96475  42.420  17.588   3.354
24860W        W96476   8.027  17.729  10.913
24861W        W96477  34.989  43.596   1.241
24862W        W96478  15.255  25.726  14.713
24863W        W96479  23.048  24.207   1.325
24864W        W96480  19.680  27.486  11.152
24865W        W96481  23.481  41.474  10.466
24866W        W96482  40.036   0.531   2.572
24867W        W96483  24.119  29.934  13.400
24868W        W96484  28.157  12.308  11.999
24869W        W96485  29.982  40.770  12.621
24870W        W96486  31.167  16.205  13.784
24871W        W96487  14.773  41.747  11.781
24872W        W96488  35.403   4.797  13.827
24873W        W96489  27.046  15.012  13.026
24874W        W96490  29.971  22.825   3.300
24875W        W96491  10.272  34.837  13.877
24876W        W96492   7.363   3.396   0.538
24877W        W96493  16.299  28.809  13.499
24878W        W96494   7.863  36.824   4.532
24879W        W96495  19.708  28.567  14.336
24880W        W96496  11.114   5.706  12.619
24881W        W96497  11.290  32.654   0.991
24882W        W96498  18.141  39.995   2.208
24883W        W96499  42.819   6.273   3.472
24884W        W96500   3.668  27.259   3.572
24885W        W96501  27.230  44.898  13.020
24886W        W96502   2.865  38.416  11.523
24887W        W96503  43.655  10.822   3.185
24888W        W96504   9.097   3.271  12.834
24889W        W96505  17.589  36.409  14.958
24890W        W96506  28.327  10.645  14.332
24891W        W96507  10.860  29.942   2.718
24892W        W96508   9.216  26.998  13.377
24893W        W96509   5.285  10.687   2.315
24894W        W96510   9.435  28.172   0.440
24895W        W96511  23.942   9.747  10.524
24896W        W96512  41.187  31.937   4.514
24897W        W96513   5.583  13.089  11.138
24898W        W96514  17.230  39.781  13.958
24899W        W96515  23.132  27.089  13.812
24900W        W96516  21.582  30.570  10.417
24901W        W96517   0.407  13.636   2.308
24902W        W96518  11.240   2.682   0.414
24903W        W96519  30.150  23.544  14.494
24904W        W96520  38.533  40.351   4.033
24905W        W96521  33.399  14.574   4.226
24906W        W96522  16.314  30.878   3.897
24907W        W96523  15.825  43.560   1.810
24908W        W96524  20.259  44.975   1.617
24909W        W96525   2.796  36.954  13.882
24910W        W96526   1.917  38.011   0.482
24911W        W96527  36.592  34.369   0.290
24912W        W96528   1.634  35.196   2.053
24913W        W96529  39.426   3.543   2.520
24914W        W96530   1.996  14.071  12.679
24915W        W96531   5.680  22.388  11.087
24916W        W96532   9.810   5.811  12.636
24917W        W96533  27.511  12.553  13.866
24918W        W96534  28.500   6.664  11.527
24919W        W96535  35.900  42.420  11.931
24920W        W96536  33.314  17.697   2.323
24921W        W96537  16.904  39.953  12.120
24922W        W96538  32.939  11.312   3.640
24923W        W96539  26.555  10.344  13.548
24924W        W96540  39.842  20.591   3.330
24925W        W96541  41.794   8.160   2.243
24926W        W96542  40.731  19.257  14.810
24927W        W96543   4.053   1.408  11.085
24928W        W96544  38.982  25.825  13.539
24929W        W96545  41.385  13.528  14.423
24930W        W96546  20.707   7.815  14.703
24931W        W96547  18.184  21.702   4.593
24932W        W96548  24.752  19.359  11.572
24933W        W96549  25.668  39.143  14.427
24934W        W96550  20.231  22.643   4.397
24935W        W96551  32.363  11.272   5.028
24936W        W96552  15.122   4.165  10.250
24937W        W96553  33.401   0.884   4.496
24938W        W96554  27.910  36.148   1.442
24939W        W96555  15.792  37.729   3.681
24940W        W96556   5.537  28.556   4.049
24941W        W96557  40.721  16.594   0.391
24942W        W96558  30.763  41.256   3.241
24943W        W96559   1.364  29.260   0.700
24944W        W96560  12.290  44.004   0.392
24945W        W96561  12.030  33.350   3.343
24946W        W96562  19.967  28.263  13.450
24947W        W96563  36.053  26.126  14.474
24948W        W96564  16.669   9.082  12.743
24949W        W96565  27.640  35.701   1.588
24950W        W96566  42.465   8.669   2.720
24951W        W96567  12.234  43.139   3.420
24952W        W96568  34.462  29.302  12.971
24953W        W96569   8.828   8.646  14.478
24954W        W96570  26.666  34.387   1.193
24955W        W96571  28.929  25.626  11.129
24956W        W96572  31.065   8.869   4.101
24957W        W96573  30.100  42.578   2.401
24958W        W96574  43.750   8.744  10.944
24959W        W96575  12.085  21.621  12.113
24960W        W96576  14.256  15.785   4.513
24961W        W96577  28.354   1.772   4.311
24962W        W96578  16.057  44.397  13.769
24963W        W96579  40.306  23.538  12.450
24964W        W96580   6.652  41.923   1.197
24965W        W96581  20.824  32.418   1.946
24966W        W96582  34.398  39.811  10.713
24967W        W96583  23.262  39.015   3.653
24968W        W96584   8.445  29.603   0.969
24969W        W96585  21.237  12.646  13.075
24970W        W96586  14.618  44.277   2.801
24971W        W96587  29.102  29.385  14.118
24972W        W96588  27.147   6.575  10.733
24973W        W96589   6.406  44.229   0.261
24974W        W96590  31.020  13.227   0.925
24975W        W96591   2.753  42.913  10.163
24976W        W96592  11.385   0.110   4.617
24977W        W96593  15.241  24.213   3.698
24978W        W96594  37.333  16.078  13.545
24979W        W96595  34.921  38.471  10.901
24980W        W96596   6.914  44.454   3.695
24981W        W96597   2.455  37.368   2.049
24982W        W96598  22.043  24.877  11.545
24983W        W96599  21.781  34.431   4.020
24984W        W96600  15.500  33.603   3.487
24985W        W96601  23.077  38.953  14.006
24986W        W96602   9.118   7.741   5.034
24987W        W96603  15.200  18.390  14.794
24988W        W96604  40.474   5.677   3.718
24989W        W96605  42.967   9.207  13.985
24990W        W96606  15.262   9.295  13.076
24991W        W96607  13.647  26.247  11.069
24992W        W96608  21.287  38.817  14.294
24993W        W96609  22.952  42.651   4.849
24994W        W96610  21.561  23.559   3.369
24995W        W96611  36.120  16.750   1.730
24996W        W96612   2.926  31.700  14.459
24997W        W96613  21.803  20.976  11.071
24998W        W96614  14.709  30.240  11.473
24999W        W96615  44.101  35.433   5.154
25000W        W96616  18.004  30.193   3.603
25001W        W96617  43.523  33.929   1.721
25002W        W96618  38.111  10.293   4.108
25003W        W96619  33.566  42.802   1.696
25004W        W96620  13.817  18.693   2.755
25005W        W96621  18.581  31.797   1.463
25006W        W96622  36.370  32.597  11.160
25007W        W96623  11.748   6.076  13.809
25008W        W96624   5.326  39.893   2.349
25009W        W96625  17.764  35.530   4.418
25010W        W96626  21.571  10.302   4.408
25011W        W96627   4.674  19.563   1.325
25012W        W96628  40.093   3.811  11.222
25013W        W96629   2.559  38.275   4.590
25014W        W96630  10.755  36.605   3.857
25015W        W96631  36.754  15.210  11.998
25016W        W96632  11.335  31.134  13.512
25017W        W96633  24.888  11.412  14.829
25018W        W96634  15.324   1.353  12.522
25019W        W96635  28.826  40.531  13.533
25020W        W96636  27.022   4.830   0.392
25021W        W96637  21.259  37.036   2.740
25022W        W96638  29.636  31.461   4.940
25023W        W96639  33.444  19.173   2.320
25024W        W96640  32.155  40.556  13.868
25025W        W96641  41.109  31.622  13.336
25026W        W96642  21.577  41.668   0.515
25027W        W96643  28.755  29.403  10.639
25028W        W96644  27.880  32.790  14.717
25029W        W96645  31.448   3.297  12.207
25030W        W96646  17.444  30.277  13.891
25031W        W96647  41.428  17.565  11.424
25032W        W96648  13.082   3.914   4.560
25033W        W96649   3.760   6.188   2.338
25034W        W96650  21.563   0.681   0.913
25035W        W96651   6.319  26.717   3.197
25036W        W96652   7.719  26.612   3.608
25037W        W96653  35.545  19.574   3.831
25038W        W96654  32.305  16.843   2.792
25039W        W96655   6.849   7.281   1.205
25040W        W96656  26.563   1.038  13.722
25041W        W96657  26.024  34.549   3.174
25042W        W96658   0.778  15.053  10.343
25043W        W96659  18.693  44.226  13.721
25044W        W96660  23.592  27.349   2.691
25045W        W96661  10.158   3.057   3.559
25046W        W96662   3.010  27.919   3.699
25047W        W96663   9.709   8.639   2.785
25048W        W96664  26.227  21.522  14.549
25049W        W96665   4.212  16.598   3.733
25050W        W96666  12.618   0.496  14.024
25051W        W96667  41.356  14.791  12.850
25052W        W96668   3.893   4.962  13.959
25053W        W96669   5.849  35.130   4.107
25054W        W96670  39.000   9.732  11.628
25055W        W96671  12.532   8.918  13.307
25056W        W96672  31.392  12.132  12.332
25057W        W96673  27.169   9.298   1.288
25058W        W96674  33.493  16.384  11.160
25059W        W96675   6.461  10.896   0.852
25060W        W96676  38.554  15.272   1.791
25061W        W96677  44.739  19.188  12.049
25062W        W96678  13.073  42.894   1.400
25063W        W96679  40.088  20.649   3.897
25064W        W96680  39.959  27.947   1.930
25065W        W96681  34.057   3.974   2.367
25066W        W96682  44.745  13.291  11.623
25067W        W96683   6.573  17.979   4.175
25068W        W96684  30.070  43.423   2.587
25069W        W96685  35.123  17.333  12.504
25070W        W96686   1.607  44.065  10.323
25071W        W96687  20.239  31.421   0.734
25072W        W96688   1.860   4.524  13.836
25073W        W96689  24.952  12.685  13.994
25074W        W96690  13.513  21.796   1.679
25075W        W96691  30.076  43.396   1.123
25076W        W96692   2.966  13.753   1.256
25077W        W96693  14.326   9.755   0.882
25078W        W96694  30.171   8.181  14.391
25079W        W96695  34.183  19.111   1.815
25080W        W96696  20.679   0.196  12.961
25081W        W96697   6.931  21.687  13.873
25082W        W96698  37.463  32.113  11.739
25083W        W96699  10.840   4.170  13.627
25084W        W96700   8.798  38.050  11.016
25085W        W96701   1.020  10.732   2.347
25086W        W96702  16.009  40.513   4.277
25087W        W96703  17.569  17.563   1.241
25088W        W96704  38.303  40.963  12.304
25089W        W96705   4.404   2.237   4.096
25090W        W96706  38.987  40.079  11.630
25091W        W96707  18.410  23.056  13.887
25092W        W96708  15.478   8.678  10.501
25093W        W96709   8.619  12.335  13.228
25094W        W96710  44.462   1.343   1.850
25095W        W96711  16.582   5.377   3.135
25096W        W96712  35.293  19.062   0.292
25097W        W96713  44.961  15.317   1.862
25098W        W96714  29.600  36.572  11.992
25099W        W96715  36.457  13.360  11.977
25100W        W96716  25.666  34.490   2.360
25101W        W96717  39.839  22.542  13.331
25102W        W96718  33.502  41.571  13.578
25103W        W96719  22.096   2.698  12.401
25104W        W96720   7.368  41.940   3.794
25105W        W96721  19.736   7.346   4.827
25106W        W96722  19.290  17.588   1.381
25107W        W96723  10.779  40.355  13.514
25108W        W96724  21.311  37.585   9.927
25109W        W96725  22.693  21.014  14.753
25110W        W96726  43.051  38.163   5.611
25111W        W96727  39.806  12.590  11.522
25112W        W96728  42.809   0.065   0.700
25113W        W96729  40.053  25.919   1.776
25114W        W96730   2.957   5.244   0.331
25115W        W96731   0.031  32.978   0.245
25116W        W96732   9.891   5.253   1.571
25117W        W96733  25.108  40.143   1.739
25118W        W96734   6.897  22.518  14.929
25119W        W96735  30.357  29.118  13.802
25120W        W96736  25.721  44.342   2.324
25121W        W96737  21.180  31.663  11.170
25122W        W96738  35.810  13.642   0.894
25123W        W96739   4.438  41.839  11.992
25124W        W96740  11.334  28.351  12.012
25125W        W96741   9.018  21.280   2.878
25126W        W96742   2.219  19.773  12.477
25127W        W96743  12.255  33.669  14.303
25128W        W96744  33.910  11.419   4.032
25129W        W96745  42.827   9.185   3.150
25130W        W96746  30.192   4.790  13.422
25131W        W96747   3.653  43.690  10.663
25132W        W96748   0.166  37.960   4.666
25133W        W96749  22.734  14.377   3.722
25134W        W96750  41.280  38.871   1.870
25135W        W96751   5.701   6.307  12.871
25136W        W96752  37.895  14.605  11.828
25137W        W96753  17.841  31.952  12.804
25138W        W96754   6.602   4.437   2.683
25139W        W96755  34.036  17.617   1.430
25140W        W96756  43.932  26.582  10.646
25141W        W96757  12.678  24.715  12.462
25142W        W96758  39.119   6.310   3.245
25143W        W96759  10.170  36.571   4.278
25144W        W96760  19.122   7.687  12.688
25145W        W96761  13.360  13.204  12.391
25146W        W96762  32.983   8.851   1.881
25147W        W96763   5.966  28.938  14.462
25148W        W96764  12.145  33.927  11.574
25149W        W96765  25.109  35.095   3.681
25150W        W96766  29.845  18.892   4.803
25151W        W96767   6.668  19.647   4.193
25152W        W96768  24.530  42.902   1.342
25153W        W96769   4.769   2.283   4.922
25154W        W96770   0.920  44.832  10.623
25155W        W96771  29.175  26.672   3.360
25156W        W96772  36.176  38.005   2.469
25157W        W96773  28.322   1.215  14.234
25158W        W96774  12.766  41.993   0.765
25159W        W96775   0.404  36.413  11.525
25160W        W96776   7.265  20.779   0.285
25161W        W96777  31.352  12.061  11.773
25162W        W96778   2.506  23.540   1.383
25163W        W96779  39.037  11.162   3.854
25164W        W96780  36.638  43.317   4.677
25165W        W96781  15.600  22.124  13.861
25166W        W96782  38.556  19.526  13.200
25167W        W96783  22.547   7.343   3.675
25168W        W96784  10.229   0.545  11.353
25169W        W96785  23.086  30.114   1.614
25170W        W96786   2.817  15.543  12.416
25171W        W96787  19.483   0.031  13.283
25172W        W96788  18.805  21.985   1.483
25173W        W96789   0.917  36.554   4.393
25174W        W96790   0.904  23.083  14.044
25175W        W96791  10.936  41.038   1.734
25176W        W96792  16.171  41.414   4.505
25177W        W96793  37.720  10.271  10.060
25178W        W96794   3.272  16.985   2.866
25179W        W96795  26.004  26.261   3.298
25180W        W96796  22.290  42.236   1.697
25181W        W96797  31.273  44.900   3.148
25182W        W96798  13.186   2.348  14.842
25183W        W96799   5.791  29.709   3.870
25184W        W96800  19.505  21.477   1.874
25185W        W96801   3.200  36.024   3.045
25186W        W96802  43.240  26.121  12.069
25187W        W96803  44.416  42.829   0.862
25188W        W96804  40.512  27.602   1.889
25189W        W96805   4.160  19.260  12.054
25190W        W96806  13.263  42.872   2.295
25191W        W96807  29.277  29.125   5.438
25192W        W96808  15.170   4.949  10.717
25193W        W96809  16.240  28.981  14.428
25194W        W96810  31.118  33.874  12.551
25195W        W96811  21.740   4.815  11.755
25196W        W96812  33.194  32.621   2.700
25197W        W96813  21.717  23.040   0.012
25198W        W96814  34.775  12.815  10.691
25199W        W96815  44.565   7.399  13.979
25200W        W96816  44.827  33.426   0.549
25201W        W96817  20.735  29.722  11.574
25202W        W96818   1.191  23.561   4.600
25203W        W96819   4.986  17.194   1.971
25204W        W96820  18.051  22.737  14.563
25205W        W96821  10.358  38.341  10.084
25206W        W96822   3.243   1.882  13.549
25207W        W96823   5.468  11.770  14.030
25208W        W96824   9.735   0.283   3.301
25209W        W96825  17.274   8.618  14.446
25210W        W96826  25.442  36.806  12.905
25211W        W96827  21.071   5.767  10.555
25212W        W96828  44.478  23.455   0.971
25213W        W96829  19.104   3.689   1.685
25214W        W96830  18.802   0.144   9.674
25215W        W96831  10.803  27.708  10.327
25216W        W96832  13.737   4.862   3.196
25217W        W96833   1.722   4.706   1.892
25218W        W96834  26.429   1.405   4.242
25219W        W96835  15.727  14.171  12.553
25220W        W96836  31.552  27.247  12.460
25221W        W96837  27.037  40.102  14.892
25222W        W96838  27.939  14.877   1.131
25223W        W96839  43.169   8.713   1.484
25224W        W96840  24.885  23.090  11.509
25225W        W96841   6.085  30.988  12.043
25226W        W96842  28.224  33.312  13.884
25227W        W96843  21.618  32.823   4.716
25228W        W96844  22.150   4.053  11.626
25229W        W96845  21.332  38.326   0.572
25230W        W96846  44.986  21.053   2.080
25231W        W96847   8.211  26.774  12.501
25232W        W96848  15.830  37.994  10.518
25233W        W96849  17.201  31.692  12.756
25234W        W96850   6.184  12.069   5.032
25235W        W96851  29.000  38.846   2.650
25236W        W96852  10.217  13.652  14.787
25237W        W96853  29.270   4.951   1.260
25238W        W96854  24.675  39.078   4.742
25239W        W96855   3.376  10.909   3.916
25240W        W96856  17.372  20.029   2.150
25241W        W96857  33.971  27.382  14.377
25242W        W96858  35.438   9.768   3.084
25243W        W96859  15.890  11.815  11.265
25244W        W96860  17.843  42.808  14.479
25245W        W96861  35.140  39.269   0.130
25246W        W96862   7.494  16.180  11.698
25247W        W96863  34.585   3.281   1.619
25248W        W96864   9.878  14.846   3.791
25249W        W96865  17.929  22.563   0.861
25250W        W96866  11.401   9.791   0.794
25251W        W96867  16.246  16.911   3.717
25252W        W96868   7.908   2.534   3.589
25253W        W96869  21.656  39.495   1.507
25254W        W96870   0.883  15.763  11.106
25255W        W96871  18.648  13.818  13.875
25256W        W96872  21.253   3.399  14.724
25257W        W96873  21.222  13.660   2.318
25258W        W96874  21.161  26.155  14.799
25259W        W96875  27.326  42.355   0.127
25260W        W96876  10.224   7.288  10.741
25261W        W96877  14.429  34.666   3.717
25262W        W96878  29.112  30.009   4.607
25263W        W96879  43.925  28.455  14.430
25264W        W96880  32.494  11.251  10.311
25265W        W96881  37.281   9.367  14.130
25266W        W96882  12.694  19.776   3.264
25267W        W96883  21.109   0.153  10.465
25268W        W96884  13.193  27.200  13.951
25269W        W96885  35.526   3.895   3.725
25270W        W96886   2.421  31.557   1.689
25271W        W96887  31.658  44.413   5.059
25272W        W96888  24.536  22.505   4.641
25273W        W96889   9.147  38.281  10.730
25274W        W96890   2.476  42.552   2.795
25275W        W96891  36.065  20.899  11.508
25276W        W96892  29.285  14.319   0.451
25277W        W96893  39.005  16.873   2.808
25278W        W96894  24.580   9.186  14.366
25279W        W96895   3.995   2.280   0.722
25280W        W96896  29.954  24.185   2.163
25281W        W96897  31.141  41.838   4.013
25282W        W96898  21.573  16.630  10.969
25283W        W96899  39.949  19.277  10.557
25284W        W96900  14.807   9.692  11.930
25285W        W96901   2.153  44.928  14.491
25286W        W96902  11.050   8.123   3.277
25287W        W96903  40.590   6.659  12.899
25288W        W96904  43.942  22.154   1.634
25289W        W96905  15.582  30.605   0.693
25290W        W96906  38.582  29.306   3.391
25291W        W96907  20.762  30.438  13.295
25292W        W96908  30.845  13.129   2.352
25293W        W96909   3.321  37.027   4.644
25294W        W96910   7.147  20.494   1.688
25295W        W96911   0.425   0.673  14.545
25296W        W96912   4.174  23.465  13.739
25297W        W96913  36.540  35.407  13.874
25298W        W96914  11.251  38.255  12.569
25299W        W96915  23.790  36.375   2.099
25300W        W96916   8.236  36.302   1.859
25301W        W96917   6.816  27.668   2.243
25302W        W96918  16.842  34.637  14.262
25303W        W96919   6.862   9.734   1.362
25304W        W96920  12.076  33.971  14.701
25305W        W96921   3.372   4.912   1.412
25306W        W96922  38.928  24.040   4.982
25307W        W96923   1.928  43.988   1.749
25308W        W96924  43.884  16.551  12.902
25309W        W96925  37.191  22.110   1.425
25310W        W96926   6.635  30.472   4.134
25311W        W96927  30.144  14.707   0.944
25312W        W96928  29.012  40.819   3.581
25313W        W96929  36.115  13.439  14.917
25314W        W96930   7.948  38.461  12.350
25315W        W96931  27.962  23.593  12.607
25316W        W96932   0.308  11.692  14.417
25317W        W96933  15.929  27.694   1.262
25318W        W96934  39.411  28.085  10.676
25319W        W96935  17.288  41.005  14.239
25320W        W96936  18.717  12.392  11.540
25321W        W96937  37.672   8.740   2.959
25322W        W96938  39.904  33.381  13.889
25323W        W96939  43.354   6.179   1.761
25324W        W96940  27.434  12.521   3.408
25325W        W96941  34.118  43.987  10.561
25326W        W96942  36.868  19.935   1.807
25327W        W96943  20.590  34.530   1.673
25328W        W96944  14.121  14.876   2.794
25329W        W96945  35.827   4.361  13.358
25330W        W96946  27.127  44.066  11.986
25331W        W96947  25.939  42.322  11.613
25332W        W96948  44.925  30.178   3.705
25333W        W96949   5.982  13.000  13.195
25334W        W96950  21.120  24.444   2.784
25335W        W96951  28.933  10.179  11.113
25336W        W96952  36.532  11.317  10.248
25337W        W96953  15.767  35.437  11.481
25338W        W96954  39.513  11.287   3.646
25339W        W96955  31.766  38.399   0.893
25340W        W96956   6.666   5.221   0.368
25341W        W96957  41.040   4.996  12.558
25342W        W96958   9.695   0.480   3.797
25343W        W96959  23.942  17.221  11.886
25344W        W96960  30.073  10.619  14.476
25345W        W96961  38.296   7.978   4.090
25346W        W96962   0.308  25.193   4.548
25347W        W96963   8.294   1.035  13.946
25348W        W96964  25.420   7.492  12.418
25349W        W96965  38.047  37.045  10.931
25350W        W96966  26.101  31.969   0.331
25351W        W96967  15.309  24.647   3.416
25352W        W96968   8.106   3.258  12.112
25353W        W96969  12.934  30.014  11.105
25354W        W96970  41.396  41.340  12.501
25355W        W96971   3.972  40.288   2.308
25356W        W96972  10.133  12.092  10.189
25357W        W96973  24.605  12.658   2.825
25358W        W96974  19.823  25.975   2.153
25359W        W96975  40.608  30.501  11.846
25360W        W96976   2.218  32.879  12.996
25361W        W96977  31.603   2.412   3.440
25362W        W96978  18.333  14.180   0.724
25363W        W96979  19.582  27.650  14.291
25364W        W96980  13.251  28.218   4.736
25365W        W96981  25.093  14.554   2.241
25366W        W96982  21.187   5.979   2.910
25367W        W96983  40.797  44.527   3.145
25368W        W96984  16.184  11.693   4.686
25369W        W96985   1.957  18.062   3.319
25370W        W96986   6.262  14.418   2.764
25371W        W96987   8.354  13.360  14.764
25372W        W96988  44.352  23.388   2.814
25373W        W96989  44.093  37.419   3.669
25374W        W96990  21.558   0.215  12.774
25375W        W96991   3.243   4.820   0.423
25376W        W96992  18.952  23.846  13.577
25377W        W96993  15.378   0.389   1.721
25378W        W96994  25.875   9.186   3.125
25379W        W96995  23.938  30.058  10.698
25380W        W96996   7.196  22.684   4.604
25381W        W96997  23.668  21.721  12.624
25382W        W96998  17.634  44.292  11.107
25383W        W96999  13.852  35.394  10.855
25384W        W97000  27.052  37.495   0.779
25385W        W97001  25.608  34.487  11.173
25386W        W97002  20.596  37.452   1.178
25387W        W97003  18.249  44.527  13.481
25388W        W97004  12.733  11.826  13.523
25389W        W97005  41.861  37.073   4.625
25390W        W97006  16.574  22.529   2.322
25391W        W97007  29.972  31.493  11.663
25392W        W97008  27.530  14.186   1.738
25393W        W97009  25.262   9.156   2.379
25394W        W97010   8.821  17.379  13.293
25395W        W97011   5.619  38.547   0.808
25396W        W97012  32.530  34.592  11.057
25397W        W97013  17.390  10.811  11.566
25398W        W97014  37.998   0.805   1.625
25399W        W97015  34.491  36.257   1.279
25400W        W97016  30.993  14.213   0.792
25401W        W97017   5.811  18.655  10.617
25402W        W97018  37.393   6.698  10.849
25403W        W97019  11.635   5.213   2.713
25404W        W97020  22.718  22.899   3.249
25405W        W97021  20.704   7.676  12.957
25406W        W97022  12.305  36.184   1.364
25407W        W97023  42.648  36.871   0.472
25408W        W97024   2.998  18.322  11.932
25409W        W97025  29.517  43.467   1.558
25410W        W97026  34.805  10.262  12.984
25411W        W97027  40.283   7.674  14.358
25412W        W97028  34.119  19.073   4.192
25413W        W97029  29.384  24.256  13.489
25414W        W97030  42.025  22.165   3.231
25415W        W97031  16.334  37.208  12.065
25416W        W97032  25.593   2.236   3.168
25417W        W97033  11.506  40.058  10.656
25418W        W97034  23.227  42.274  11.325
25419W        W97035   1.573  14.513  11.380
25420W        W97036  13.771  10.175   4.516
25421W        W97037   2.785  20.850   0.383
25422W        W97038  11.604  40.568   4.061
25423W        W97039   2.472  42.011   2.764
25424W        W97040  31.670  35.615   0.381
25425W        W97041  31.554  27.667   0.414
25426W        W97042  13.617  16.305  12.009
25427W        W97043  24.031  25.770  11.972
25428W        W97044  22.600  16.726   3.132
25429W        W97045  37.837   4.928   4.186
25430W        W97046  31.921   1.199  12.007
25431W        W97047  10.667  17.542   3.451
25432W        W97048  35.847  13.282  12.843
25433W        W97049  43.837  36.431   4.985
25434W        W97050   4.451  19.482   4.690
25435W        W97051  39.642  37.017   2.763
25436W        W97052  40.240  43.935   4.861
25437W        W97053   5.601  26.676  10.717
25438W        W97054  16.384  44.276  11.371
25439W        W97055   6.670  33.520   4.545
25440W        W97056  13.808   9.165   1.378
25441W        W97057  17.986  29.432  14.716
25442W        W97058  24.369  19.627  12.911
25443W        W97059  27.896  13.623   3.814
25444W        W97060   8.390  41.765  14.730
25445W        W97061  39.532  39.080   3.441
25446W        W97062   9.653  38.376   4.241
25447W        W97063   5.284  24.710  13.843
25448W        W97064  44.927  34.029   2.579
25449W        W97065   8.279  10.771   0.460
25450W        W97066   3.906  11.737  12.094
25451W        W97067  19.591  43.779  12.342
25452W        W97068  22.229  26.142  12.020
25453W        W97069  11.254  35.614  13.842
25454W        W97070   9.883   8.643   3.690
25455W        W97071   4.680  39.551   3.726
25456W        W97072   5.339  31.026   1.167
25457W        W97073  26.761  19.744  12.962
25458W        W97074  20.503  39.435  11.572
25459W        W97075  40.903  34.627  14.540
25460W        W97076   6.749  28.410  12.457
25461W        W97077   4.844  37.902   2.127
25462W        W97078  30.823  24.538   3.879
25463W        W97079  23.509  38.783  12.981
25464W        W97080   2.994  29.189   0.494
25465W        W97081  10.276   8.497  10.667
25466W        W97082   1.602  29.203   3.738
25467W        W97083  32.520  37.283   1.661
25468W        W97084  30.130   7.287  10.710
25469W        W97085  23.304  20.948  13.011
25470W        W97086  31.387   4.332  10.743
25471W        W97087  39.322  17.306  11.954
25472W        W97088  22.695  18.452   3.207
25473W        W97089  18.953  12.391   0.658
25474W        W97090   6.363  36.500   4.170
25475W        W97091  27.113  29.010  11.735
25476W        W97092  23.656  28.475  14.377
25477W        W97093  35.893  26.998   2.227
25478W        W97094  33.967  20.174   4.609
25479W        W97095  44.553   9.810   1.869
25480W        W97096  28.598   2.953   3.448
25481W        W97097  17.172  23.598  13.640
25482W        W97098  42.627  42.073   3.942
25483W        W97099  27.537  31.979  10.708
25484W        W97100  21.439  27.386   3.179
25485W        W97101   2.713  24.738   0.816
25486W        W97102  36.596  14.178   4.717
25487W        W97103  13.648   4.504   3.567
25488W        W97104  35.952  24.117  11.214
25489W        W97105  15.093  28.050  12.613
25490W        W97106   4.670   9.786  11.720
25491W        W97107  41.954   2.416  10.786
25492W        W97108  19.170  37.842   0.929
25493W        W97109  42.435  36.396   2.078
25494W        W97110   2.542  10.696   3.321
25495W        W97111  37.107  27.643   1.274
25496W        W97112  35.258  19.822  10.914
25497W        W97113  29.241   8.502   0.875
25498W        W97114  25.546  30.555   2.312
25499W        W97115  23.399  21.028   1.284
25500W        W97116  35.209   5.971   3.771
25501W        W97117  34.156  31.074  10.440
25502W        W97118  18.160  44.861   4.350
25503W        W97119  30.542  36.524  13.473
25504W        W97120  15.356   6.741   0.422
25505W        W97121  43.715  43.830  13.826
25506W        W97122   5.188  27.193  12.522
25507W        W97123  19.054   3.365  14.365
25508W        W97124  28.519   6.182   1.526
25509W        W97125  37.116  41.576   4.995
25510W        W97126  35.354   6.355   4.543
25511W        W97127   5.660  33.872  12.132
25512W        W97128  23.241  22.385   4.964
25513W        W97129   7.362  29.564   2.767
25514W        W97130  13.624  32.466  13.527
25515W        W97131  17.576  12.048   2.484
25516W        W97132  14.052  35.419  14.376
25517W        W97133  22.781  32.537   1.941
25518W        W97134  31.940   2.562  10.349
25519W        W97135  14.670  21.765   3.297
25520W        W97136  32.416   6.038   1.005
25521W        W97137  18.777  10.743   3.873
25522W        W97138   7.115   0.352   2.627
25523W        W97139   7.332  10.703  14.887
25524W        W97140  44.799  29.676  14.634
25525W        W97141   3.538  17.349  11.618
25526W        W97142  23.751  18.672   2.214
25527W        W97143  35.096  35.154  14.393
25528W        W97144  17.257  34.072   4.691
25529W        W97145  35.719  10.432   1.661
25530W        W97146  33.499  24.563  13.135
25531W        W97147   3.735  39.171   3.714
25532W        W97148  36.813   4.389  13.436
25533W        W97149  26.880   6.869   4.260
25534W        W97150   5.000  33.095   1.450
25535W        W97151  33.521  43.847   3.543
25536W        W97152   4.316  29.597  13.001
25537W        W97153  27.413  32.822  11.672
25538W        W97154  42.150  30.765   4.772
25539W        W97155  33.259  28.175   2.836
25540W        W97156  31.761  38.408  14.530
25541W        W97157  21.777   0.646   4.121
25542W        W97158  44.386   6.882   1.466
25543W        W97159  22.402  16.690  13.296
25544W        W97160  16.845  18.253   2.804
25545W        W97161  14.391  32.629  14.944
25546W        W97162  22.741  36.473   3.577
25547W        W97163  23.945  20.615   0.870
25548W        W97164  42.755  24.063   2.846
25549W        W97165  26.948   0.385   2.977
25550W        W97166  39.769  33.050   0.803
25551W        W97167  38.486  39.276   2.071
25552W        W97168  25.385  36.915  10.698
25553W        W97169  41.389  37.744   0.151
25554W        W97170   0.874   2.504   1.790
25555W        W97171  31.559  14.158   0.032
25556W        W97172  42.066  35.434  10.883
25557W        W97173  36.316  19.602   2.250
25558W        W97174  32.163  36.872  13.316
25559W        W97175  42.845  26.306   0.919
25560W        W97176   3.024  18.604  14.569
25561W        W97177   5.069  16.445   2.715
25562W        W97178  33.549  30.408   4.080
25563W        W97179   2.047  31.518   0.902
25564W        W97180  39.053   0.989  14.792
25565W        W97181  33.157   1.405  10.407
25566W        W97182  14.530  42.143  11.558
25567W        W97183   3.741  18.863   1.692
25568W        W97184   8.463  11.314  11.100
25569W        W97185  39.638  19.607  14.026
25570W        W97186  30.617  36.350  12.145
25571W        W97187  33.932  14.958   1.316
25572W        W97188  16.674  13.409   1.086
25573W        W97189  40.377  17.228  13.569
25574W        W97190  39.635  33.075   2.739
25575W        W97191  23.481  25.035   0.310
25576W        W97192  31.656  17.654   4.118
25577W        W97193  25.076  16.761  11.573
25578W        W97194   1.415   0.905  14.356
25579W        W97195  43.013  27.377   4.067
25580W        W97196  41.032  18.361  11.390
25581W        W97197   5.864  36.618  11.275
25582W        W97198  10.213  37.246   1.404
25583W        W97199   0.938   6.215  10.644
25584W        W97200   1.178  34.029   3.435
25585W        W97201  19.942   8.359  12.811
25586W        W97202  36.733  28.590  11.936
25587W        W97203  18.656  35.822  12.905
25588W        W97204  43.739  15.425   1.577
25589W        W97205  13.319  19.040  12.995
25590W        W97206  23.795  12.269  13.843
25591W        W97207  18.114  43.523  10.269
25592W        W97208   2.055   6.364  12.570
25593W        W97209  25.501  34.030  12.704
25594W        W97210   6.388  41.998   1.653
25595W        W97211  31.429  14.198  13.429
25596W        W97212  36.061  44.085   3.721
25597W        W97213  30.161  19.539   2.277
25598W        W97214  39.323  39.206  13.886
25599W        W97215   0.364  37.188  12.970
25600W        W97216  37.679  10.477  12.560
25601W        W97217   9.744  36.006   3.870
25602W        W97218  12.356  37.830  12.384
25603W        W97219  28.591   9.383   0.947
25604W        W97220  17.344  13.741  14.521
25605W        W97221  35.312  12.130  13.392
25606W        W97222  34.950  33.054   4.374
25607W        W97223  36.463  43.849  12.236
25608W        W97224   7.764   2.802  11.441
25609W        W97225  12.732  18.189  11.563
25610W        W97226  41.563  42.411   4.055
25611W        W97227  25.223  31.500  13.530
25612W        W97228  27.036  37.679   3.208
25613W        W97229  30.373   3.166   1.561
25614W        W97230  35.504  24.608  10.695
25615W        W97231  29.581  35.876   3.262
25616W        W97232  17.650  15.332  11.085
25617W        W97233  44.444  31.709  11.464
25618W        W97234  39.632  31.005   3.197
25619W        W97235  42.602  27.774  11.149
25620W        W97236  33.052  24.252   4.597
25621W        W97237   1.443  24.599   4.032
25622W        W97238  32.528   7.734   3.269
25623W        W97239  36.636  44.063  13.097
25624W        W97240  42.384  39.393  11.541
25625W        W97241  18.163  44.003  12.616
25626W        W97242   3.998  20.507  14.921
25627W        W97243  12.626  32.518  12.460
25628W        W97244  38.778   5.632  12.525
25629W        W97245  20.706  22.630   0.739
25630W        W97246   8.981  15.967   5.154
25631W        W97247  25.016  33.050  10.245
25632W        W97248  42.955  44.010   0.810
25633W        W97249  29.942   1.855  11.602
25634W        W97250   4.189  31.179   4.649
25635W        W97251  31.384   6.658  10.721
25636W        W97252  16.740  39.271  10.375
25637W        W97253   1.936  15.992  13.991
25638W        W97254  25.109  29.122  11.534
25639W        W97255  15.761  42.855   1.224
25640W        W97256   3.283   7.672   0.356
25641W        W97257  42.984  24.118   4.687
25642W        W97258  27.615  28.658  10.661
25643W        W97259  34.247   6.210   0.973
25644W        W97260  25.668  28.456  13.035
25645W        W97261  31.926  44.706  14.328
25646W        W97262  32.394   0.426   0.769
25647W        W97263  31.037  39.769  14.736
25648W        W97264   5.935  29.698   1.481
25649W        W97265  15.693  12.892   0.177
25650W        W97266  18.060  15.128   3.322
25651W        W97267  19.636  32.586   0.519
25652W        W97268  39.439  22.603   1.715
25653W        W97269  40.479  25.927  11.931
25654W        W97270   9.630   0.879  14.931
25655W        W97271   3.220  32.997  14.038
25656W        W97272  27.961  14.379  11.711
25657W        W97273  27.433  43.024   3.075
25658W        W97274   9.801   0.981  10.720
25659W        W97275  39.989  41.958   1.974
25660W        W97276  30.132  12.120   3.735
25661W        W97277  39.859  16.774   1.786
25662W        W97278  30.533  21.203   0.574
25663W        W97279  24.640  12.829  11.245
25664W        W97280  35.375  24.973  14.693
25665W        W97281   8.247  14.043   0.887
25666W        W97282  30.345  13.302   2.362
25667W        W97283  11.898  15.310  14.459
25668W        W97284  41.410  11.692   0.759
25669W        W97285  43.615  20.761  12.906
25670W        W97286  22.649   1.507  12.184
25671W        W97287   2.176  39.808   2.902
25672W        W97288  29.144   4.521  12.238
25673W        W97289  24.981  15.153  12.808
25674W        W97290   1.517  18.141  11.926
25675W        W97291  20.159  14.227   2.788
25676W        W97292  14.001  22.005   1.755
25677W        W97293   4.184  13.168  14.481
25678W        W97294  40.271  18.247  14.717
25679W        W97295  18.968  40.892   3.044
25680W        W97296   9.339  14.644   1.722
25681W        W97297  19.791   7.106  13.077
25682W        W97298  40.739  16.353  13.646
25683W        W97299  14.058  27.581   3.446
25684W        W97300  43.891  31.040  11.891
25685W        W97301   5.237  24.222   2.220
25686W        W97302  16.596  25.629   4.141
25687W        W97303  34.878  17.042   1.180
25688W        W97304   8.903  39.361  13.120
25689W        W97305  16.242   2.912   1.649
25690W        W97306  27.699  39.376   2.245
25691W        W97307  41.772  10.177   1.367
25692W        W97308  34.045  26.308   9.925
25693W        W97309   8.997  17.204   1.348
25694W        W97310  30.407  34.787   3.080
25695W        W97311   5.202   3.028   3.705
25696W        W97312  24.926   7.663  12.497
25697W        W97313   6.616  31.118   3.624
25698W        W97314  26.026  44.334   3.283
25699W        W97315   1.481  13.561   0.230
25700W        W97316   5.066  16.716  14.455
25701W        W97317  17.419  28.677   3.685
25702W        W97318  14.182  12.683  12.442
25703W        W97319  20.910  31.352   1.897
25704W        W97320   4.718   7.136  12.010
25705W        W97321  22.539  14.413  13.887
25706W        W97322  20.166  32.232   4.239
25707W        W97323  25.941   4.922  13.847
25708W        W97324   6.273  23.060   1.794
25709W        W97325  28.702  15.029   0.625
25710W        W97326  33.609  39.100   5.049
25711W        W97327  22.508  25.641   1.845
25712W        W97328   1.441  39.386  13.325
25713W        W97329  33.891  23.217  14.396
25714W        W97330  42.775  36.553   4.180
25715W        W97331   8.413  25.625  11.887
25716W        W97332  42.108  32.894  10.558
25717W        W97333  17.477  19.507   4.638
25718W        W97334  42.612  18.302  14.536
25719W        W97335  37.228  21.228   5.061
25720W        W97336  23.232  37.455  14.034
25721W        W97337  11.812  35.841   3.323
25722W        W97338  29.719   5.689  14.951
25723W        W97339  29.041  34.267  12.062
25724W        W97340  26.249  29.643  14.184
25725W        W97341  13.912  26.795  14.081
25726W        W97342   5.884  18.071  14.954
25727W        W97343  10.715  41.479  14.536
25728W        W97344  20.784  43.791  12.798
25729W        W97345   6.399   2.905   0.016
25730W        W97346  15.756   7.945  11.131
25731W        W97347  24.647  25.877  13.962
25732W        W97348  32.459  33.890  11.828
25733W        W97349  26.720  32.552   0.955
25734W        W97350   5.887  31.389   2.294
25735W        W97351   0.770  43.144  14.885
25736W        W97352  39.417  10.889   2.656
25737W        W97353   6.898  42.416   2.338
25738W        W97354  29.827  18.070   4.173
25739W        W97355  23.967  44.473   4.118
25740W        W97356  37.382   9.786   4.698
25741W        W97357   2.743  31.964  14.023
25742W        W97358   9.413  40.041   4.218
25743W        W97359  10.292   3.970   5.009
25744W        W97360  24.487  43.298  12.974
25745W        W97361  33.085  40.047  11.079
25746W        W97362  17.949  32.637  14.994
25747W        W97363  11.107  40.375  13.948
25748W        W97364   6.048   1.918   0.459
25749W        W97365  36.665   6.321  14.457
25750W        W97366  24.705  30.559  13.290
25751W        W97367  36.516   7.392   2.394
25752W        W97368  42.277   5.182   2.771
25753W        W97369  23.506   8.734   4.524
25754W        W97370   2.289  27.584  13.304
25755W        W97371   2.505  16.016   2.719
25756W        W97372  34.151  15.516  12.096
25757W        W97373   6.749  29.488  12.141
25758W        W97374  34.496   8.817   0.084
25759W        W97375  38.842  38.337  12.992
25760W        W97376  36.522  39.554   0.371
25761W        W97377  31.463  11.684  13.995
25762W        W97378  34.149   7.526   4.178
25763W        W97379   9.786  27.658   1.269
25764W        W97380   3.335  43.558   0.768
25765W        W97381  35.070   4.416  11.665
25766W        W97382  11.585   3.243   2.017
25767W        W97383  31.907  28.096  10.275
25768W        W97384  28.647  37.818   0.005
25769W        W97385  15.838  43.088   3.317
25770W        W97386  30.878  41.365   4.228
25771W        W97387  24.141  21.672   2.761
25772W        W97388  33.345  23.769  12.475
25773W        W97389   6.025  34.235   3.317
25774W        W97390  38.746  13.877  10.160
25775W        W97391  42.176  22.738   2.856
25776W        W97392   1.314   7.404  13.954
25777W        W97393  36.945  30.973   4.608
25778W        W97394   1.327  11.677   3.220
25779W        W97395  44.911  31.932  11.107
25780W        W97396   0.842  30.086   1.892
25781W        W97397  15.871  31.922   1.298
25782W        W97398  41.536  40.378   4.847
25783W        W97399  29.884  40.867  10.603
25784W        W97400  21.709  19.767   2.119
25785W        W97401   9.938  26.554   3.709
25786W        W97402  29.411  10.952   3.673
25787W        W97403  29.629   6.097   3.853
25788W        W97404  17.485  20.491  12.425
25789W        W97405   8.477  33.999  14.083
25790W        W97406  12.898  37.507   0.932
25791W        W97407  15.736  35.598   3.717
25792W        W97408  21.934  33.602   2.673
25793W        W97409   5.252  29.395   0.857
25794W        W97410   9.910  20.257   4.638
25795W        W97411  44.932  12.716   3.186
25796W        W97412   3.219   6.222  11.755
25797W        W97413  11.756  37.886   4.787
25798W        W97414   2.905  24.561   3.091
25799W        W97415   5.871   7.808   2.163
25800W        W97416   0.792  18.210   1.284
25801W        W97417  26.353  38.299   1.761
25802W        W97418  29.597  28.668  14.731
25803W        W97419  42.628  12.592   0.405
25804W        W97420  17.839  31.512   3.459
25805W        W97421   7.577  13.894  13.516
25806W        W97422  36.700  30.575   0.461
25807W        W97423  25.150  35.314  11.557
25808W        W97424  10.894   3.288  13.783
25809W        W97425  18.342  41.489  14.897
25810W        W97426  27.581   1.773   2.430
25811W        W97427  31.975  39.685  10.804
25812W        W97428  16.688  10.586   1.827
25813W        W97429  27.077  37.097  13.860
25814W        W97430   8.882  16.881  14.500
25815W        W97431   3.238  36.860   0.332
25816W        W97432  31.870   6.821   3.391
25817W        W97433   3.662  16.963   9.943
25818W        W97434  18.608   7.430   2.622
25819W        W97435  26.624  40.673  11.126
25820W        W97436  32.196  27.188  13.419
25821W        W97437  25.226  14.815  13.961
25822W        W97438  16.190  24.493  10.564
25823W        W97439  13.618  18.587  13.119
25824W        W97440  40.840   7.613   1.492
25825W        W97441  13.353  31.854   1.353
25826W        W97442   2.879  35.193  12.411
25827W        W97443  38.788  44.536   2.320
25828W        W97444   9.519  40.056   1.201
25829W        W97445   6.295   1.358  10.958
25830W        W97446  25.970  21.673  13.567
25831W        W97447  32.690  26.201   3.639
25832W        W97448  40.143   3.137  12.571
25833W        W97449  37.919   8.311  13.543
25834W        W97450   3.326   8.192   2.153
25835W        W97451  16.474  43.320  12.352
25836W        W97452  12.240  15.224  12.080
25837W        W97453  29.712  32.646  14.229
25838W        W97454  19.519  15.727   4.657
25839W        W97455  10.276   4.825   4.586
25840W        W97456  31.619   0.435  10.542
25841W        W97457   2.892  24.567   1.715
25842W        W97458  29.467   8.820   3.573
25843W        W97459   4.415  33.838  13.500
25844W        W97460   7.716  37.650  13.046
25845W        W97461  16.836  40.081   0.814
25846W        W97462  25.685  41.408  14.325
25847W        W97463  29.973  10.634   0.012
25848W        W97464  10.084  17.259  10.758
25849W        W97465  14.318  42.025  12.000
25850W        W97466  41.402  15.888   1.357
25851W        W97467  18.168  42.092   0.347
25852W        W97468  15.773  15.626   5.465
25853W        W97469  44.898  44.763  13.521
25854W        W97470  18.178  27.888   2.281
25855W        W97471  34.750  41.703   1.465
25856W        W97472   4.716  31.174   5.010
25857W        W97473  18.096  34.737   3.240
25858W        W97474  17.606  40.492  13.391
25859W        W97475  23.447  36.072  14.469
25860W        W97476  38.815  23.575  11.729
25861W        W97477  19.785  15.351   4.337
25862W        W97478  39.555  32.791   0.399
25863W        W97479  19.675  25.811   2.800
25864W        W97480  12.361   8.837   2.899
25865W        W97481   4.349   5.655   1.277
25866W        W97482  22.766   0.988   4.100
25867W        W97483  39.360  16.353  14.022
25868W        W97484   3.517   7.719   2.282
25869W        W97485  32.038  25.880  10.701
25870W        W97486  35.776   4.046  11.171
25871W        W97487  36.097   6.988   3.263
25872W        W97488  14.600  10.802   4.678
25873W        W97489  26.998  33.921   0.215
25874W        W97490   9.254  42.304  11.532
25875W        W97491  11.807  24.231   5.012
25876W        W97492  19.785  22.590   4.157
25877W        W97493  14.232  32.054  12.966
25878W        W97494  42.357  40.391   0.882
25879W        W97495  17.065   2.278  14.863
25880W        W97496   4.347   4.273   1.882
25881W        W97497  14.074  29.974  14.387
25882W        W97498   6.420  24.189   2.292
25883W        W97499  27.606  37.785  13.948
25884W        W97500   9.248  10.394   0.214
25885W        W97501  26.765  44.489  10.613
25886W        W97502  32.084   1.708   1.786
25887W        W97503   6.563   1.001   4.912
25888W        W97504  32.131  20.538  11.335
25889W        W97505  14.102  25.647  11.982
25890W        W97506  13.005   8.497  11.159
25891W        W97507  32.564  35.671  14.964
25892W        W97508  35.026  37.128  11.268
25893W        W97509  37.654  36.031   2.290
25894W        W97510  22.040  19.426  14.308
25895W        W97511  13.414   1.702  12.511
25896W        W97512  12.670  23.175  12.886
25897W        W97513  36.116  41.335  13.252
25898W        W97514  18.221  14.287   4.529
25899W        W97515   6.099  19.588  14.555
25900W        W97516  25.450  13.256  14.578
25901W        W97517  23.271  34.889  11.156
25902W        W97518  22.066  32.732   4.933
25903W        W97519  32.004  17.848  11.833
25904W        W97520  13.227   0.334  12.665
25905W        W97521  41.432  32.459  11.811
25906W        W97522  33.526  28.748  10.806
25907W        W97523  43.895  14.060  12.777
25908W        W97524  24.017  36.079   3.538
25909W        W97525  25.595   8.520  13.416
25910W        W97526  16.876  40.986   1.978
25911W        W97527  42.276  38.351  13.391
25912W        W97528   6.890  44.829  14.406
25913W        W97529  22.154  37.495   1.543
25914W        W97530  27.635  13.875   5.028
25915W        W97531  17.538  17.722   2.822
25916W        W97532   3.068  36.645   3.592
25917W        W97533  34.288  27.873  11.112
25918W        W97534  31.995  20.927  12.101
25919W        W97535  42.797  12.761   2.626
25920W        W97536  12.681  32.363  11.415
25921W        W97537  30.843  25.000   3.665
25922W        W97538  43.734  44.366   1.567
25923W        W97539  41.281   1.012   2.123
25924W        W97540  16.204  31.564   2.325
25925W        W97541   3.350  23.117   1.145
25926W        W97542  11.211  26.179   1.291
25927W        W97543  26.240  42.426   0.895
25928W        W97544  41.394  29.090   2.111
25929W        W97545  13.772   6.052   5.389
25930W        W97546  16.787  34.162  14.114
25931W        W97547  42.798  38.415   4.288
25932W        W97548  34.971   7.792   2.812
25933W        W97549  22.232  39.442   2.792
25934W        W97550  23.830  28.094  13.019
25935W        W97551  19.644  16.729   4.674
25936W        W97552   8.896  27.457  13.335
25937W        W97553  14.922  27.493  11.234
25938W        W97554  34.109  22.557   4.492
25939W        W97555  33.359  14.327  13.514
25940W        W97556   2.011  16.763  12.074
25941W        W97557  36.991  27.159   4.909
25942W        W97558  25.431  40.562   1.713
25943W        W97559  15.343   8.867   2.838
25944W        W97560   5.726  18.742   3.865
25945W        W97561   2.368   8.828   4.652
25946W        W97562  39.142  20.743   5.169
25947W        W97563  44.909  44.845  11.358
25948W        W97564  17.180  21.219   4.089
25949W        W97565  26.180  18.494  12.965
25950W        W97566  15.798   9.437  13.249
25951W        W97567   5.166  37.994   4.562
25952W        W97568  34.530  20.555   3.384
25953W        W97569  37.566  37.345   1.309
25954W        W97570  42.934  42.711  14.356
25955W        W97571   2.422  25.548  11.111
25956W        W97572  19.082  42.984   4.067
25957W        W97573  31.264  21.744   2.909
25958W        W97574  27.414  35.475  12.548
25959W        W97575   4.638  43.103  13.925
25960W        W97576   5.313  37.517   1.745
25961W        W97577  11.263   8.250  13.662
25962W        W97578  19.467  31.776   4.667
25963W        W97579  14.106  36.309   0.674
25964W        W97580  26.060   5.347   3.170
25965W        W97581  18.822  14.911   2.131
25966W        W97582  28.924  17.889  11.463
25967W        W97583  13.399  33.590   4.161
25968W        W97584   0.202  39.514  12.095
25969W        W97585  42.561  21.483   3.148
25970W        W97586   3.375  13.485   1.383
25971W        W97587  32.007  30.912   4.604
25972W        W97588   6.539  42.478   0.455
25973W        W97589  23.848   6.501   0.028
25974W        W97590  34.525  19.072  12.870
25975W        W97591   2.686  21.333   0.179
25976W        W97592  27.440  13.090  12.169
25977W        W97593  22.993  14.334   3.263
25978W        W97594  21.770  43.850   1.265
25979W        W97595  35.564  44.756   4.315
25980W        W97596  21.740  10.621   2.642
25981W        W97597  20.008  34.974   0.959
25982W        W97598  33.024   6.215   1.813
25983W        W97599  41.374   6.179   2.276
25984W        W97600  41.863  44.003   1.700
25985W        W97601  37.576  13.539  13.494
25986W        W97602  25.845  12.145   0.056
25987W        W97603  19.223   9.003  13.413
25988W        W97604  26.060  22.972   3.235
25989W        W97605  30.397  22.528  14.325
25990W        W97606  21.831   6.636   4.187
25991W        W97607  14.281  21.408   3.328
25992W        W97608  44.896  40.852   4.200
25993W        W97609  23.660  41.180  13.882
25994W        W97610  37.486   2.057  11.069
25995W        W97611   6.803   5.726  12.047
25996W        W97612   2.259  28.587  10.502
25997W        W97613  38.440  14.821  11.921
25998W        W97614  19.946  14.604   4.122
25999W        W97615  22.573  23.175  12.042
26000W        W97616   1.880  38.541   4.156
26001W        W97617  34.575  22.910  11.770
26002W        W97618  20.769  26.239   3.737
26003W        W97619  21.672  33.879   1.299
26004W        W97620  24.120  11.158   4.757
26005W        W97621   2.948  18.543  12.403
26006W        W97622  11.374  26.658   1.489
26007W        W97623  22.754  34.554  11.436
26008W        W97624  17.485  27.118  10.678
26009W        W97625   4.782  16.731  10.934
26010W        W97626   7.399  43.815  12.940
26011W        W97627  14.874  38.555  11.585
26012W        W97628   3.600  15.270   4.336
26013W        W97629  18.471  43.416  11.577
26014W        W97630  28.145  12.692   4.150
26015W        W97631  31.416  35.996  10.736
26016W        W97632   5.700   8.244   4.559
26017W        W97633  33.913  29.361  12.841
26018W        W97634  25.905   4.669   5.066
26019W        W97635  19.693  32.849   0.066
26020W        W97636  11.586   2.758   0.836
26021W        W97637   7.263  23.189  10.718
26022W        W97638  42.337  13.304   1.687
26023W        W97639  42.007  22.437   0.218
26024W        W97640  27.181  14.126   2.662
26025W        W97641   4.457   7.779  11.849
26026W        W97642  43.594   4.278  12.528
26027W        W97643   0.403   5.735  12.417
26028W        W97644  41.312   3.814   3.521
26029W        W97645   1.748  22.316  13.414
26030W        W97646  24.174  38.038   3.227
26031W        W97647  35.827  20.059   4.147
26032W        W97648  19.500   6.301   1.636
26033W        W97649  43.313  25.138   4.561
26034W        W97650  28.891  16.829   4.504
26035W        W97651  17.760  43.843   3.800
26036W        W97652  26.526   7.901   4.268
26037W        W97653  41.817   4.795   3.291
26038W        W97654  17.303  41.578   3.131
26039W        W97655  41.686  14.247   2.776
26040W        W97656  43.032  32.575   1.910
26041W        W97657  43.982  41.632  12.317
26042W        W97658  19.559  39.972  12.528
26043W        W97659  29.566  34.772   2.820
26044W        W97660   6.152  16.227  13.938
26045W        W97661  22.523  31.654  10.774
26046W        W97662  18.089  12.441  12.018
26047W        W97663  35.130  14.342  12.878
26048W        W97664  23.644  38.045   3.846
26049W        W97665  18.840  26.234  11.088
26050W        W97666  35.574  24.033   2.728
26051W        W97667  20.263  17.113  11.977
26052W        W97668  16.835  18.695  10.039
26053W        W97669   5.499  27.671   3.798
26054W        W97670  14.656  20.757  11.601
26055W        W97671  31.403  43.898  13.892
26056W        W97672  22.115  24.563   2.804
26057W        W97673  11.918   4.075   1.364
26058W        W97674  14.442  37.781   2.484
26059W        W97675  32.188  24.689  12.025
26060W        W97676  22.702  43.785  11.897
26061W        W97677   3.457  19.811   0.067
26062W        W97678  21.456  31.452   0.411
26063W        W97679  42.674  14.205   2.833
26064W        W97680  43.887  44.363   0.084
26065W        W97681  34.586  18.620  14.968
26066W        W97682  25.235  12.626   1.660
26067W        W97683  29.369  41.390   1.052
26068W        W97684  26.247  24.751   0.419
26069W        W97685  16.015  44.807  13.412
26070W        W97686  13.308  31.389   3.286
26071W        W97687  32.411   3.415  10.745
26072W        W97688  35.130  36.955  13.585
26073W        W97689   7.874  38.301   2.389
26074W        W97690   9.327  36.518   3.891
26075W        W97691  16.827  28.002   4.176
26076W        W97692  18.074  18.187  13.036
26077W        W97693  29.894  41.840   3.328
26078W        W97694  22.630   0.955  13.390
26079W        W97695  21.882  29.478   4.021
26080W        W97696  17.010  25.425   3.310
26081W        W97697   1.835  29.179   2.379
26082W        W97698  28.930  18.164  11.043
26083W        W97699   6.086  23.186  13.801
26084W        W97700  11.326   7.982  11.905
26085W        W97701  36.451   2.202   5.066
26086W        W97702   2.836  39.419   3.135
26087W        W97703   3.654  10.113   3.411
26088W        W97704  11.663  41.530   4.591
26089W        W97705   4.865  28.110   0.489
26090W        W97706  39.865  13.360  14.231
26091W        W97707  17.293  10.180   3.286
26092W        W97708   0.442  15.580  14.104
26093W        W97709  35.167  11.872  14.424
26094W        W97710  19.235  18.694   1.901
26095W        W97711  20.250  22.661   3.871
26096W        W97712   5.847  17.360   0.764
26097W        W97713   2.507   6.857  10.666
26098W        W97714  36.851  38.371  13.062
26099W        W97715  18.534  28.911   4.138
26100W        W97716  18.711  31.847   3.926
26101W        W97717  33.964   0.959   4.556
26102W        W97718  21.506  15.081  11.137
26103W        W97719  16.037  43.547  12.463
26104W        W97720   5.817  25.583  12.001
26105W        W97721   6.119  42.566   3.787
26106W        W97722  44.567  25.786   3.663
26107W        W97723  10.321  33.342  13.760
26108W        W97724  37.614  26.690  11.260
26109W        W97725  39.724   4.203  14.415
26110W        W97726  17.021  37.971  13.901
26111W        W97727  34.412  27.617  10.700
26112W        W97728  13.765   1.950   1.493
26113W        W97729  10.771  33.481   2.354
26114W        W97730   3.670  22.448  11.104
26115W        W97731  44.712  35.160  13.427
26116W        W97732  35.758   2.702  14.237
26117W        W97733  42.019  21.050  11.656
26118W        W97734  28.273  18.470  14.881
26119W        W97735   9.848  12.353  11.647
26120W        W97736  42.439  15.126  14.921
26121W        W97737  24.244  29.171  11.709
26122W        W97738  33.395  11.872   1.131
26123W        W97739  40.728   3.378   4.125
26124W        W97740  14.078  31.509  14.803
26125W        W97741  13.261  41.293   2.269
26126W        W97742   0.653  33.091   0.997
26127W        W97743  33.593   7.966   0.548
26128W        W97744  43.234  10.794   1.680
26129W        W97745  35.148  37.276   2.755
26130W        W97746   3.453  27.466   4.363
26131W        W97747  39.969  43.546   4.614
26132W        W97748  34.417   4.711   1.371
26133W        W97749   3.377  30.012   4.482
26134W        W97750  33.885  26.279   0.033
26135W        W97751  37.481  30.666  12.735
26136W        W97752  20.160  12.626   4.548
26137W        W97753   7.683  20.465  14.391
26138W        W97754  37.964  35.976   3.197
26139W        W97755  38.834   0.154  12.044
26140W        W97756  33.640  32.581   1.834
26141W        W97757  14.876   3.842   5.073
26142W        W97758  29.113  41.679  12.965
26143W        W97759  38.583   3.382   5.047
26144W        W97760  32.596   3.699  14.088
26145W        W97761  36.221   5.782   4.632
26146W        W97762  22.023  43.472   4.508
26147W        W97763  30.191  14.037   3.773
26148W        W97764   5.097  21.747  13.285
26149W        W97765  25.199  10.363   4.007
26150W        W97766  27.160  13.652   2.176
26151W        W97767   9.097  14.665  13.803
26152W        W97768   4.503  21.585   2.708
26153W        W97769  21.095  18.024  14.900
26154W        W97770  37.312  33.896   4.711
26155W        W97771  24.271  21.849   3.682
26156W        W97772  25.653  41.057   0.807
26157W        W97773  18.284  15.227  13.802
26158W        W97774   5.987   4.001   3.118
26159W        W97775  12.666  37.131  12.482
26160W        W97776  41.850  27.436   0.238
26161W        W97777   4.008   5.208  11.423
26162W        W97778   5.029   4.569  11.399
26163W        W97779   4.505  34.815   2.794
26164W        W97780  36.097  12.161   3.953
26165W        W97781  16.009  18.932  11.645
26166W        W97782  26.926   2.463   4.189
26167W        W97783  25.692   8.240   2.150
26168W        W97784  19.441  41.037  14.441
26169W        W97785  26.084   3.913  13.932
26170W        W97786  10.818  38.537   2.287
26171W        W97787   0.273   5.656   1.721
26172W        W97788  40.767  24.194  11.262
26173W        W97789   5.248   0.920   3.653
26174W        W97790  33.154  22.195   2.190
26175W        W97791  16.295  13.108  11.571
26176W        W97792  11.964   9.298  11.199
26177W        W97793  40.729  19.343   4.518
26178W        W97794  13.531  24.042   0.318
26179W        W97795  28.585  18.149   3.962
26180W        W97796  22.015  32.321   2.389
26181W        W97797   1.629  28.675  12.141
26182W        W97798  19.799  34.830  14.686
26183W        W97799  41.553   2.244  12.961
26184W        W97800  15.840  35.968   1.148
26185W        W97801   4.689  19.294  12.022
26186W        W97802  12.451  34.865   1.398
26187W        W97803  11.804  42.378   3.310
26188W        W97804  15.585  29.141   0.946
26189W        W97805  38.126  41.144  13.359
26190W        W97806  41.511  36.150  10.648
26191W        W97807  16.633  44.910   1.623
26192W        W97808  43.698   3.712  11.091
26193W        W97809   0.868  13.725   3.328
26194W        W97810  17.637  39.459  13.773
26195W        W97811   2.546  18.524   3.128
26196W        W97812  28.119   3.125   3.234
26197W        W97813   6.355  43.331  10.579
26198W        W97814  27.115  10.924  11.472
26199W        W97815  29.936  42.931   2.743
26200W        W97816  28.484  35.674   1.899
26201W        W97817  20.070   4.461  11.386
26202W        W97818   2.933   0.830   0.927
26203W        W97819  20.262  28.277   3.441
26204W        W97820  34.051  14.014   3.808
26205W        W97821  34.845  20.099  14.737
26206W        W97822  39.984  16.058   1.247
26207W        W97823   8.226  41.300   2.694
26208W        W97824  35.121   1.619   3.741
26209W        W97825  27.149  44.207  12.474
26210W        W97826  35.575  26.264   0.323
26211W        W97827  23.600  28.105  10.492
26212W        W97828   5.399  18.260  13.498
26213W        W97829  26.144  33.502  12.366
26214W        W97830  12.489  28.110  11.571
26215W        W97831  41.957  44.549   4.596
26216W        W97832  17.250   9.159  13.436
26217W        W97833  42.851  13.245   2.408
26218W        W97834  11.195  24.958  14.498
26219W        W97835  23.811  32.107   3.718
26220W        W97836  44.516  16.079   2.607
26221W        W97837  27.483  15.539  10.888
26222W        W97838  28.701  24.675  12.038
26223W        W97839  25.156   7.926  12.118
26224W        W97840  33.430  20.200   4.727
26225W        W97841  33.666  33.606   2.889
26226W        W97842   6.078  40.431   1.440
26227W        W97843  14.325  41.021  12.015
26228W        W97844   8.433  16.158   2.704
26229W        W97845   3.786   9.335   0.751
26230W        W97846   4.516  40.038   2.862
26231W        W97847  32.377  23.101  10.725
26232W        W97848  34.406  43.808  12.873
26233W        W97849  38.511  30.650   0.239
26234W        W97850  37.196   3.506  11.736
26235W        W97851   8.294  28.012  13.839
26236W        W97852  39.285   8.297   2.151
26237W        W97853  10.730   3.846  10.766
26238W        W97854  39.445  13.758  13.795
26239W        W97855  14.681   2.414   0.632
26240W        W97856  44.547  30.403   2.238
26241W        W97857  40.284   6.784  14.301
26242W        W97858   8.828   8.275   2.330
26243W        W97859  16.684  10.367  14.362
26244W        W97860  15.964  27.715   5.180
26245W        W97861   2.280  33.529   1.264
26246W        W97862  43.408  20.840   0.204
26247W        W97863   9.720  33.850   1.931
26248W        W97864   7.819  30.094   1.890
26249W        W97865   6.183  16.279  11.471
26250W        W97866  12.469  17.939   3.663
26251W        W97867  20.352  30.496  13.625
26252W        W97868  31.856  34.435   2.996
26253W        W97869  19.518  18.690  10.590
26254W        W97870  23.135  30.204   3.463
26255W        W97871  38.581  28.792   0.331
26256W        W97872   8.423  43.369   1.472
26257W        W97873  13.526  36.465  12.879
26258W        W97874  27.213  43.448   0.958
26259W        W97875  16.776  14.411  14.924
26260W        W97876  43.373   8.170   3.727
26261W        W97877  31.442  12.920   1.721
26262W        W97878  42.919  33.223   2.680
26263W        W97879  43.968  26.178  14.073
26264W        W97880  43.490  22.421   1.019
26265W        W97881  18.982  26.557  13.387
26266W        W97882   0.823  37.344  11.149
26267W        W97883   8.684  11.078   0.285
26268W        W97884  34.052  40.516   0.920
26269W        W97885   9.461   9.160  11.180
26270W        W97886  37.464   2.718   4.477
26271W        W97887  25.211  14.450   1.409
26272W        W97888   3.563   2.601  11.725
26273W        W97889   8.327  21.086   4.605
26274W        W97890  35.567   5.364  11.074
26275W        W97891  16.211  18.780   1.654
26276W        W97892  18.295  40.519   4.143
26277W        W97893  38.484  38.090  11.687
26278W        W97894  16.877   4.345  13.373
26279W        W97895  44.715  15.131   1.300
26280W        W97896  38.300  43.296   4.423
26281W        W97897  38.128   8.861  13.340
26282W        W97898   0.017  22.088   0.314
26283W        W97899  28.547  30.375  13.534
26284W        W97900  42.254  11.630   0.329
26285W        W97901  11.291  26.598   0.979
26286W        W97902  16.041  23.760  13.477
26287W        W97903  13.043  24.055   0.109
26288W        W97904   4.239  30.931  10.666
26289W        W97905  15.194  18.665   3.207
26290W        W97906  31.074   6.780   3.583
26291W        W97907  11.940  10.994  14.746
26292W        W97908  14.717  37.357   2.425
26293W        W97909  17.919  22.292   3.626
26294W        W97910  24.108   6.609  12.966
26295W        W97911  23.537  31.936  12.301
26296W        W97912  11.787  42.893   3.404
26297W        W97913  39.295   8.351   1.178
26298W        W97914   1.809  40.416   1.622
26299W        W97915  24.829  33.663   5.178
26300W        W97916   1.160  34.098  11.322
26301W        W97917  43.197  21.085  12.929
26302W        W97918  40.070  29.553  11.938
26303W        W97919  12.920   4.373   2.047
26304W        W97920  27.164  10.913   1.226
26305W        W97921  36.438  31.999   1.284
26306W        W97922  17.486  25.654   3.436
26307W        W97923  35.278  40.005  11.124
26308W        W97924  18.879  43.460   2.456
26309W        W97925  13.442  38.897  12.518
26310W        W97926  42.702  43.464  12.044
26311W        W97927  31.544  19.218   0.750
26312W        W97928  28.961  44.503  11.172
26313W        W97929   9.607  35.576   1.364
26314W        W97930  21.647  40.823   4.582
26315W        W97931  21.477  37.505   2.843
26316W        W97932  11.820   6.741  11.370
26317W        W97933   7.072  15.635  14.346
26318W        W97934  37.866  13.349   1.230
26319W        W97935  20.731  28.469   3.285
26320W        W97936   0.846  30.556  11.196
26321W        W97937   2.165  43.758  12.425
26322W        W97938  12.825  34.956  10.503
26323W        W97939   4.916  11.725   3.169
26324W        W97940   1.053   1.732  13.087
26325W        W97941  26.978  36.502  14.888
26326W        W97942   3.792  29.075  12.561
26327W        W97943  14.611  19.250   3.682
26328W        W97944  30.546  16.153   3.130
26329W        W97945  27.134  36.815   0.292
26330W        W97946  28.572  16.223   3.262
26331W        W97947  13.265  18.096   4.192
26332W        W97948  34.912  14.062   1.734
26333W        W97949  14.915  39.637  14.826
26334W        W97950  31.678  26.733  14.475
26335W        W97951  15.116   0.484   4.191
26336W        W97952  18.092  38.935   1.018
26337W        W97953   2.878  44.523   4.507
26338W        W97954  30.533  43.421   0.362
26339W        W97955  32.776  28.975  12.382
26340W        W97956  17.788  23.536  13.050
26341W        W97957  41.339  16.236  12.979
26342W        W97958  41.468  20.627   2.668
26343W        W97959  14.536  23.196  13.045
26344W        W97960  25.226  26.133   1.753
26345W        W97961  39.587  12.394   4.083
26346W        W97962  19.540  37.567   2.353
26347W        W97963   7.762  31.143   3.644
26348W        W97964  34.168   7.242   1.836
26349W        W97965   6.538  31.949  12.427
26350W        W97966  24.511   8.655  13.012
26351W        W97967  35.505   9.580  11.587
26352W        W97968  32.179   5.950  13.346
26353W        W97969  29.663   0.485   0.379
26354W        W97970  30.155   7.333   2.770
26355W        W97971  16.136   2.830  11.306
26356W        W97972  21.586  15.766   2.975
26357W        W97973  13.155  19.360   4.620
26358W        W97974  29.352  40.567  14.374
26359W        W97975  30.507  26.864   5.150
26360W        W97976  11.621   0.864   1.734
26361W        W97977  41.815   6.060  13.991
26362W        W97978  44.905  10.323   2.578
26363W        W97979   1.895  20.160   3.881
26364W        W97980   6.820  39.476   4.081
26365W        W97981   1.372   3.460   4.309
26366W        W97982  10.393  32.646  12.959
26367W        W97983   8.466  25.168  12.901
26368W        W97984   0.467   3.500   1.607
26369W        W97985   4.894  41.869  10.679
26370W        W97986   6.710   8.964  13.405
26371W        W97987  37.343  39.145  12.641
26372W        W97988  26.981   5.958   3.698
26373W        W97989  19.533  20.121  13.776
26374W        W97990  32.497  34.161   5.017
26375W        W97991   4.463  34.953   0.679
26376W        W97992  11.562  41.015  10.720
26377W        W97993  27.399  11.736   2.655
26378W        W97994  20.680  31.988   0.673
26379W        W97995  28.420  32.249   4.365
26380W        W97996  33.324  43.058  10.922
26381W        W97997  14.271  16.764   4.646
26382W        W97998   7.861  14.826   0.923
26383W        W97999  11.254  36.068  11.988
26384W        W98000  12.212   9.790  14.346
26385W        W98001  32.259  26.514   5.150
26386W        W98002  17.749   4.802   3.220
26387W        W98003   4.162   1.954  11.573
26388W        W98004  10.130  13.606   2.676
26389W        W98005  29.029   2.835   1.782
26390W        W98006  29.055   6.797   4.170
26391W        W98007   7.129  22.948  11.836
26392W        W98008  21.080  17.997  12.403
26393W        W98009  10.329   6.191   0.017
26394W        W98010  30.628  27.203  11.689
26395W        W98011  37.925  22.109  13.809
26396W        W98012   8.294  29.066   4.542
26397W        W98013  13.111  41.957   2.810
26398W        W98014  27.979  35.558  13.445
26399W        W98015  15.165  21.678   3.202
26400W        W98016   2.797  25.462   3.631
26401W        W98017  11.595   1.442   4.371
26402W        W98018  24.231  32.381  13.934
26403W        W98019  13.815   8.739  13.026
26404W        W98020  27.745  18.556  14.203
26405W        W98021  30.396  21.990  13.816
26406W        W98022  36.364  27.505   1.885
26407W        W98023  17.308  11.344   1.394
26408W        W98024   0.297  11.208   0.634
26409W        W98025  24.534  35.362   4.590
26410W        W98026  34.011   6.865   2.216
26411W        W98027  29.719  10.769   4.102
26412W        W98028  19.021   3.957  14.872
26413W        W98029  42.265  35.536  14.573
26414W        W98030  32.567  18.020   2.698
26415W        W98031  15.251  11.588  14.324
26416W        W98032  29.887  30.113   0.024
26417W        W98033  42.467   2.255  12.984
26418W        W98034  43.960  16.028  10.992
26419W        W98035  38.122  19.684  12.968
26420W        W98036  36.085  40.607   4.148
26421W        W98037  23.238  11.188   2.643
26422W        W98038  19.223  19.981   1.173
26423W        W98039  24.301  23.988   0.119
26424W        W98040  30.035  11.328  12.321
26425W        W98041  16.851  16.262   5.013
26426W        W98042  39.505  39.794   1.252
26427W        W98043   6.689   1.493   3.346
26428W        W98044  12.437  43.211  12.930
26429W        W98045  36.123  15.156   0.001
26430W        W98046  41.082  18.359   2.323
26431W        W98047  16.714  18.480  10.494
26432W        W98048  40.979  18.011  13.276
26433W        W98049   3.408   2.250  11.386
26434W        W98050  18.707  23.871   4.607
26435W        W98051  25.780   6.686   4.600
26436W        W98052  38.540  23.300   0.700
26437W        W98053  11.919  17.583  13.950
26438W        W98054  25.596  37.093  14.975
26439W        W98055  14.836   2.470   3.156
26440W        W98056  32.046  40.061  14.856
26441W        W98057   5.944  18.472  12.539
26442W        W98058  34.853  17.326   1.814
26443W        W98059  18.131   4.216   2.664
26444W        W98060  19.642   7.830   2.658
26445W        W98061  40.286  17.127   3.247
26446W        W98062  12.084   5.448   2.771
26447W        W98063  19.690   6.067   2.792
26448W        W98064  20.462  38.319   3.728
26449W        W98065  21.156  12.060   1.946
26450W        W98066  20.251   1.343   4.811
26451W        W98067  39.873   8.754  13.912
26452W        W98068  38.981  30.603  10.778
26453W        W98069  26.267   8.432  11.143
26454W        W98070   3.903  40.504   3.200
26455W        W98071   2.027  43.910  11.544
26456W        W98072  34.989  28.540  11.129
26457W        W98073   6.417   1.272  12.568
26458W        W98074   0.872  31.044   1.818
26459W        W98075  10.270  35.500  13.590
26460W        W98076   5.648  27.349  11.532
26461W        W98077  37.797  20.374  10.818
26462W        W98078  37.401  29.564   3.131
26463W        W98079  12.350  16.713   4.184
26464W        W98080  31.901  17.745   0.354
26465W        W98081  12.743  15.633  12.610
26466W        W98082  18.483  44.005   2.218
26467W        W98083  30.252   8.652  11.406
26468W        W98084  36.869  13.676   1.158
26469W        W98085   1.482   8.336  10.776
26470W        W98086  19.009   9.484   1.325
26471W        W98087  43.956   8.631   2.789
26472W        W98088  13.219  12.201   3.592
26473W        W98089  28.540  24.644   4.665
26474W        W98090  11.937   0.994  14.526
26475W        W98091  31.477  37.576   3.265
26476W        W98092  29.776  16.106   5.064
26477W        W98093  35.340  12.897   2.333
26478W        W98094  16.188  26.932   2.357
26479W        W98095  18.641  33.918  14.715
26480W        W98096  21.241  39.779  13.005
26481W        W98097  28.272  36.523  10.665
26482W        W98098  21.623  22.851   0.524
26483W        W98099   9.686  16.718   2.812
26484W        W98100  32.989  22.465  12.630
26485W        W98101  25.553   8.741   4.573
26486W        W98102  40.595  42.252  11.995
26487W        W98103   3.392  17.666  13.105
26488W        W98104  29.719  36.168   4.089
26489W        W98105   2.508  32.641   4.950
26490W        W98106  39.237  39.712  11.076
26491W        W98107  18.496  35.445   3.697
26492W        W98108   1.177   8.524   1.250
26493W        W98109  14.120  39.565   4.032
26494W        W98110  40.468  14.553  14.305
26495W        W98111  33.995   7.151  12.555
26496W        W98112  17.880  11.759  10.998
26497W        W98113   5.442  41.407  10.611
26498W        W98114   2.189  37.641   3.401
26499W        W98115  14.525  28.398   1.363
26500W        W98116   3.454  36.638   2.602
26501W        W98117  17.120  15.316  12.508
26502W        W98118  44.814   0.430   4.646
26503W        W98119  33.103  14.227  13.079
26504W        W98120   2.849  22.171   0.715
26505W        W98121  31.680   2.258   3.919
26506W        W98122  15.655   1.940   0.499
26507W        W98123  16.718   1.482   1.482
26508W        W98124  36.968  28.677   4.665
26509W        W98125  33.588  29.996  13.364
26510W        W98126   0.744  14.902  11.075
26511W        W98127  20.516  36.608   2.370
26512W        W98128  34.197  32.954  13.206
26513W        W98129  32.953  33.402  11.548
26514W        W98130  38.611  41.012  11.546
26515W        W98131  28.521  33.855  11.218
26516W        W98132   2.408  37.276  14.872
26517W        W98133   2.544  24.513  10.685
26518W        W98134  21.119  11.030   9.951
26519W        W98135  33.944   4.690   3.677
26520W        W98136  35.109   6.766   0.291
26521W        W98137  41.133  28.507  14.000
26522W        W98138  35.068   6.720  13.090
26523W        W98139   1.217  44.201  12.456
26524W        W98140  13.151  43.332  13.405
26525W        W98141  41.544   6.835  13.017
26526W        W98142  19.471  35.381  12.485
26527W        W98143   5.990  42.435   1.690
26528W        W98144  27.577  40.985  10.549
26529W        W98145  30.994  35.272  13.370
26530W        W98146   3.856  42.827   1.572
26531W        W98147  36.975  39.189   1.870
26532W        W98148   1.613   2.637   2.601
26533W        W98149  34.643  38.255   2.846
26534W        W98150  42.510  11.637  13.466
26535W        W98151   4.655  22.113   1.685
26536W        W98152   5.173  16.746   4.658
26537W        W98153   2.684   8.797  11.490
26538W        W98154  44.480  37.611  13.384
26539W        W98155  13.283  19.886   4.543
26540W        W98156  30.344   2.861  12.567
26541W        W98157   1.878  11.321   2.177
26542W        W98158  33.613  31.014  10.633
26543W        W98159  15.573  32.186   3.171
26544W        W98160   8.046   1.806   1.825
26545W        W98161  18.555  25.018  10.648
26546W        W98162  36.474  32.031   3.134
26547W        W98163   1.340  32.411   4.628
26548W        W98164   3.266   3.465  12.010
26549W        W98165  29.652  19.510   2.338
26550W        W98166  25.655   7.190   1.765
26551W        W98167  20.787  37.603  12.587
26552W        W98168  38.570  33.701   0.195
26553W        W98169  41.416   0.306   2.367
26554W        W98170  18.638  22.268  14.347
26555W        W98171  31.078  24.954  11.549
26556W        W98172  37.525  37.550   5.026
26557W        W98173  20.045  37.065  13.878
26558W        W98174  24.633   2.803   4.747
26559W        W98175  35.843  16.202   4.742
26560W        W98176   7.475   6.760  14.007
26561W        W98177  42.309  11.373  14.046
26562W        W98178   4.869  11.779   2.608
26563W        W98179  19.757  36.327  12.719
26564W        W98180   7.293  43.598  13.423
26565W        W98181  14.160  29.279  12.049
26566W        W98182  38.486  36.760   4.722
26567W        W98183   8.160  10.928   1.860
26568W        W98184  20.817  30.080   0.799
26569W        W98185   1.732  12.890   2.698
26570W        W98186  18.835  24.942  12.842
26571W        W98187  36.914  35.614  10.734
26572W        W98188   9.230  31.972  11.064
26573W        W98189  42.022  33.478   3.609
26574W        W98190   9.216  17.330  10.308
26575W        W98191   3.306  18.302  13.397
26576W        W98192  38.494  36.363  10.620
26577W        W98193   5.275  32.644  11.912
26578W        W98194  15.992  24.338   0.074
26579W        W98195  35.696  29.091  13.656
26580W        W98196  33.808  41.734  13.193
26581W        W98197  22.783   6.873  13.127
26582W        W98198  21.146  37.613   0.990
26583W        W98199  13.723  21.561  12.683
26584W        W98200   1.460  43.336  13.461
26585W        W98201  27.741   2.773   4.213
26586W        W98202  40.121  25.292   4.196
26587W        W98203   7.234  27.155  12.493
26588W        W98204   2.431   2.173   4.166
26589W        W98205  32.880  33.386   2.326
26590W        W98206  13.699  42.744   4.199
26591W        W98207  40.357  21.201   1.977
26592W        W98208  19.993  27.644   0.072
26593W        W98209  31.486  25.170  14.142
26594W        W98210  42.983   2.447   0.340
26595W        W98211   5.590   1.010   2.010
26596W        W98212  43.798  10.754  14.976
26597W        W98213  11.482  39.394  14.992
26598W        W98214  24.759  42.979   0.850
26599W        W98215  35.373  30.103   4.948
26600W        W98216   8.733  44.032   3.253
26601W        W98217  22.272  30.389  12.056
26602W        W98218  17.536  33.339   0.611
26603W        W98219  36.878  21.653  11.775
26604W        W98220  32.653  38.596  13.498
26605W        W98221  14.258  39.935  12.955
26606W        W98222  18.877   0.367   0.230
26607W        W98223  34.019  32.051  13.833
26608W        W98224  12.881   8.679   1.178
26609W        W98225  36.866  11.113  14.849
26610W        W98226  15.581  14.291   3.537
26611W        W98227  38.536  14.618   2.613
26612W        W98228  17.679  39.996  13.846
26613W        W98229  44.734  12.836   2.229
26614W        W98230  28.457  18.783  12.117
26615W        W98231  23.557  35.038  12.610
26616W        W98232  38.296  34.382  11.069
26617W        W98233  26.222  24.808  11.218
26618W        W98234   7.800  34.305   3.348
26619W        W98235  15.655   1.010  14.890
26620W        W98236  33.401   8.833   0.551
26621W        W98237  38.960  20.158   4.103
26622W        W98238  44.704  13.692   3.984
26623W        W98239   2.677  18.745  14.923
26624W        W98240  43.393  18.659  13.305
26625W        W98241   2.586  34.848  12.764
26626W        W98242  12.946  33.382   5.009
26627W        W98243  40.754   5.968  12.421
26628W        W98244   6.846  38.486   4.275
26629W        W98245  23.599  30.944   3.218
26630W        W98246  27.727   5.407   2.332
26631W        W98247  21.045  23.429   1.211
26632W        W98248  11.812  24.298  10.559
26633W        W98249   5.916  39.331   3.033
26634W        W98250  31.459  14.604  14.350
26635W        W98251  28.132   4.861  10.733
26636W        W98252  20.899   4.429  13.347
26637W        W98253   1.425  36.525   4.524
26638W        W98254  41.463  13.782   1.418
26639W        W98255  37.102   6.590   2.378
26640W        W98256  20.774  10.961   3.350
26641W        W98257  37.756  34.614  11.064
26642W        W98258  38.157  22.129  12.806
26643W        W98259  30.906   7.601   2.592
26644W        W98260  22.405   2.258  12.506
26645W        W98261  11.257  24.284   3.352
26646W        W98262  14.190   6.594   3.191
26647W        W98263  17.701  12.198   3.480
26648W        W98264  21.989  26.703  10.956
26649W        W98265   9.321   3.714   2.431
26650W        W98266  30.060  20.533  13.058
26651W        W98267  18.516  11.909  11.589
26652W        W98268   4.978  21.088  11.650
26653W        W98269  29.209  28.775  12.106
26654W        W98270  20.203   2.603  14.367
26655W        W98271   4.239  41.093  13.411
26656W        W98272   1.353   8.126   3.704
26657W        W98273  24.151  36.313   3.038
26658W        W98274   6.682   0.967  11.530
26659W        W98275   8.888  38.397   2.947
26660W        W98276  35.595   8.551   5.001
26661W        W98277  20.259  31.875  12.585
26662W        W98278  11.147  19.226   2.596
26663W        W98279  34.862  37.463   4.639
26664W        W98280  24.708  31.881  11.072
26665W        W98281  34.171  36.108  11.646
26666W        W98282  18.210  16.086   4.555
26667W        W98283  11.699  11.908  10.112
26668W        W98284  41.443   2.722   3.393
26669W        W98285  12.667  35.804  12.636
26670W        W98286   3.360  31.149   4.498
26671W        W98287  38.699  28.519   2.606
26672W        W98288  40.180  33.967   0.776
26673W        W98289  28.897  44.172  13.997
26674W        W98290  24.568  19.562  14.975
26675W        W98291  30.601  18.310   2.274
26676W        W98292  23.112  23.670   1.501
26677W        W98293   4.466  36.568   0.063
26678W        W98294  14.702  38.359  11.135
26679W        W98295  21.156   4.273  12.417
26680W        W98296  38.646  29.655  14.411
26681W        W98297  13.708  32.622   4.184
26682W        W98298  40.435  15.729   4.558
26683W        W98299  24.688  26.920  11.799
26684W        W98300  10.100   5.305   0.538
26685W        W98301  24.721  22.535  13.913
26686W        W98302  12.303  10.588  10.683
26687W        W98303  33.548   0.304   0.321
26688W        W98304  38.765  25.284   3.730
26689W        W98305   3.419   2.923   1.332
26690W        W98306  24.577   9.266  12.672
26691W        W98307  13.423   5.878  14.309
26692W        W98308  34.243  30.585   1.943
26693W        W98309  33.448   4.372  13.588
26694W        W98310   2.400   0.412   5.093
26695W        W98311   4.600  34.824  14.834
26696W        W98312  36.909  29.778   3.226
26697W        W98313  21.949   3.698  12.576
26698W        W98314  39.572  39.879  12.479
26699W        W98315  34.467  25.516   1.844
26700W        W98316  36.614  25.754   2.182
26701W        W98317  17.193  26.075   0.486
26702W        W98318   9.297   5.700  12.885
26703W        W98319  36.296   4.510  13.484
26704W        W98320  29.998  33.875   4.161
26705W        W98321  12.253  31.629   0.849
26706W        W98322  35.001  23.254  12.937
26707W        W98323  40.766  16.720  11.545
26708W        W98324  35.369   8.684  13.737
26709W        W98325   3.239  36.154  14.743
26710W        W98326   4.996  14.705  12.760
26711W        W98327  38.708  24.911  14.320
26712W        W98328  43.461  17.167  11.172
26713W        W98329   8.413  26.004  11.000
26714W        W98330  25.784  26.579  14.419
26715W        W98331   8.743  28.652   1.212
26716W        W98332  15.305   5.762  11.102
26717W        W98333  33.104  21.907   1.729
26718W        W98334  43.443   7.786   2.881
26719W        W98335  26.635  12.358  11.564
26720W        W98336  11.658  41.553  14.510
26721W        W98337  13.025  12.727   1.963
26722W        W98338  27.497  15.195  12.458
26723W        W98339  17.767  10.618  13.776
26724W        W98340  36.977   5.166   2.430
26725W        W98341  31.591  11.552   4.898
26726W        W98342   6.397  38.321   4.529
26727W        W98343   8.307  23.802  14.967
26728W        W98344  42.429  33.869  13.776
26729W        W98345  11.386  30.026   1.985
26730W        W98346   1.757   2.603  12.307
26731W        W98347  11.907  43.397   0.823
26732W        W98348  41.084  24.637   0.323
26733W        W98349  11.218  39.841   1.131
26734W        W98350   8.896   0.996  11.601
26735W        W98351  26.194  22.119  13.319
26736W        W98352  40.088  38.966   3.061
26737W        W98353  30.344   0.285  13.951
26738W        W98354  38.841  39.329  11.181
26739W        W98355   2.389  18.052  13.840
26740W        W98356  23.932   7.253   0.014
26741W        W98357  12.415  34.438   3.777
26742W        W98358  17.753   3.876  12.960
26743W        W98359  31.913  31.525  14.598
26744W        W98360  42.907  25.261   1.138
26745W        W98361  38.551  17.107  13.321
26746W        W98362  38.776  19.529   0.428
26747W        W98363   8.691   1.399  11.814
26748W        W98364  24.938  33.543  14.359
26749W        W98365  34.898  38.454  11.428
26750W        W98366  16.258  13.251   0.824
26751W        W98367  33.179  28.467  12.042
26752W        W98368  39.572  26.142  11.037
26753W        W98369  30.100  33.888  10.708
26754W        W98370  23.022  21.225  10.542
26755W        W98371  12.557  16.082  11.074
26756W        W98372  23.098   2.999   4.329
26757W        W98373  43.814  23.416   3.513
26758W        W98374  44.759  41.496   4.492
26759W        W98375   4.363  29.534   3.649
26760W        W98376   4.195  25.904  12.546
26761W        W98377  10.381  32.075   0.494
26762W        W98378  36.132   3.779  12.105
26763W        W98379  22.135  44.607  14.234
26764W        W98380  14.442  38.454  14.892
26765W        W98381  20.229  17.320   3.778
26766W        W98382  32.543  38.662  10.523
26767W        W98383  17.193  34.406  11.890
26768W        W98384  43.831  10.063   3.668
26769W        W98385  16.965  32.420   1.676
26770W        W98386  19.759  40.008  11.464
26771W        W98387  15.957  14.675  12.419
26772W        W98388  23.539   0.218   2.537
26773W        W98389   4.297  26.500   3.351
26774W        W98390  23.442  21.256  11.423
26775W        W98391   5.386  31.950   4.588
26776W        W98392   9.305  20.642   0.626
26777W        W98393  36.595  38.975   2.798
26778W        W98394  11.632  43.225   0.415
26779W        W98395  26.163   2.188  12.460
26780W        W98396  13.890  35.757   4.770
26781W        W98397  40.446  35.408  13.862
26782W        W98398  10.589  23.647   3.560
26783W        W98399  24.663  44.351   0.381
26784W        W98400  41.318   5.154  10.658
26785W        W98401  41.901  36.841  12.964
26786W        W98402  17.556  25.106   4.171
26787W        W98403  37.935   9.178  10.569
26788W        W98404  23.553  35.438  13.991
26789W        W98405   8.549   7.810  14.238
26790W        W98406  34.473  38.139   1.706
26791W        W98407   8.665  29.321   2.704
26792W        W98408  29.252   9.794  13.943
26793W        W98409   4.976  35.015   4.561
26794W        W98410   3.190  44.795   0.250
26795W        W98411  22.798  14.174  12.035
26796W        W98412  40.572  16.871   1.289
26797W        W98413  18.762  23.220   2.922
26798W        W98414  10.675  35.887   0.576
26799W        W98415  35.820  24.613  11.098
26800W        W98416  42.052  18.001  11.618
26801W        W98417   0.813   0.557   2.724
26802W        W98418  26.314   2.484   0.033
26803W        W98419   7.000   2.539   4.088
26804W        W98420   8.387  26.334   3.003
26805W        W98421  38.353   3.870  14.731
26806W        W98422   8.011   1.269  13.541
26807W        W98423  36.158  42.875  11.977
26808W        W98424  39.756  29.422  11.532
26809W        W98425  28.471  25.014  10.606
26810W        W98426  33.058  10.347  14.370
26811W        W98427  27.213  28.660   2.803
26812W        W98428  38.504  21.464   0.930
26813W        W98429   8.596  21.190   5.029
26814W        W98430  15.796   4.668   3.618
26815W        W98431  12.923  25.672  12.486
26816W        W98432  25.937   0.416  12.996
26817W        W98433  30.590  33.159   2.292
26818W        W98434   0.140   1.786   0.381
26819W        W98435   8.160  43.962   3.817
26820W        W98436  39.446  23.731   1.514
26821W        W98437   9.689   2.494   4.279
26822W        W98438  32.454  25.706   0.893
26823W        W98439  15.166  29.571   2.145
26824W        W98440  31.273  41.795  14.805
26825W        W98441  30.685  40.118   3.293
26826W        W98442  18.863  23.725  14.434
26827W        W98443  15.677   1.249   4.194
26828W        W98444  24.896  42.912  14.513
26829W        W98445  27.410  22.324   4.287
26830W        W98446  33.899  13.671   1.988
26831W        W98447  10.129  35.522   1.336
26832W        W98448   8.708   1.887  12.518
26833W        W98449   2.442  25.336  11.595
26834W        W98450  33.392  30.087  10.458
26835W        W98451  40.503   0.295  13.431
26836W        W98452  27.937  24.505  11.634
26837W        W98453  30.996  40.046   0.766
26838W        W98454  31.184  14.050   3.577
26839W        W98455  20.611  24.154   1.327
26840W        W98456  42.498  43.751   0.912
26841W        W98457   6.076  28.965  12.086
26842W        W98458  15.639  12.706   0.684
26843W        W98459  23.262   3.745   3.805
26844W        W98460   7.199  39.104   3.362
26845W        W98461  30.674   2.830  14.383
26846W        W98462  18.285  28.610  10.369
26847W        W98463   6.176  30.732   2.866
26848W        W98464  13.902  24.488   0.488
26849W        W98465  26.215  22.484   2.345
26850W        W98466  31.532  39.942  10.971
26851W        W98467  36.874  41.324  11.506
26852W        W98468  36.061  29.863  13.352
26853W        W98469   3.406  17.066  12.048
26854W        W98470  14.369  19.578  12.637
26855W        W98471  28.002  40.315   1.900
26856W        W98472  22.071  25.020  13.138
26857W        W98473   3.635  36.453  14.463
26858W        W98474  24.524  24.710  14.459
26859W        W98475  12.092  32.468  13.505
26860W        W98476  43.339   4.214  14.577
26861W        W98477  17.285   2.397  12.662
26862W        W98478  23.703  16.319   2.771
26863W        W98479  38.576  18.108   3.437
26864W        W98480  20.280  42.205  14.850
26865W        W98481  41.611  30.270   1.848
26866W        W98482  34.372  11.040   3.379
26867W        W98483  34.144  21.712   2.969
26868W        W98484   0.778  31.076   4.993
26869W        W98485  38.353  12.718   2.684
26870W        W98486   7.708  21.033   2.308
26871W        W98487  35.894  23.573  13.790
26872W        W98488   3.294   9.233  12.167
26873W        W98489  20.075  40.079  14.391
26874W        W98490   5.405  34.928   4.856
26875W        W98491  32.480  14.578  14.268
26876W        W98492   3.388  27.940  11.935
26877W        W98493  42.405  23.611   1.617
26878W        W98494  12.655  43.577   3.644
26879W        W98495  10.700  11.740   1.853
26880W        W98496  44.524  42.240  13.315
26881W        W98497  12.818  24.606   4.540
26882W        W98498  18.301  37.850  13.446
26883W        W98499  17.044  27.900   1.865
26884W        W98500  17.448  31.932  14.992
26885W        W98501   6.096  44.839   2.239
26886W        W98502  42.285  17.125  14.944
26887W        W98503  41.322  16.564  12.338
26888W        W98504  28.870  22.449   4.285
26889W        W98505  16.216  21.133   3.926
26890W        W98506  17.086   2.386  13.106
26891W        W98507  34.922  15.240  13.533
26892W        W98508  28.045  22.730  14.273
26893W        W98509   8.336  19.200  10.482
26894W        W98510  17.030  36.917  10.304
26895W        W98511  35.091  27.136  13.302
26896W        W98512  40.200  39.951   0.506
26897W        W98513  30.655  36.082  14.778
26898W        W98514  16.106  27.898  14.989
26899W        W98515  31.512  28.380   0.861
26900W        W98516  27.543  18.248   1.965
26901W        W98517  29.439  25.961   0.719
26902W        W98518  39.348  23.797  11.128
26903W        W98519  22.895  18.568  14.031
26904W        W98520  21.975  35.981   0.616
26905W        W98521   0.298   8.404   0.731
26906W        W98522  33.745  12.197  14.502
26907W        W98523   4.693  43.866   1.419
26908W        W98524  16.054   9.126  11.027
26909W        W98525  39.517  20.683   1.359
26910W        W98526  15.571  30.084  13.428
26911W        W98527  15.975  36.321  14.003
26912W        W98528  14.348  42.567  11.351
26913W        W98529  17.724  10.218   4.292
26914W        W98530  19.461  31.658   1.951
26915W        W98531   3.229   2.930  12.079
26916W        W98532   1.416  29.329  11.211
26917W        W98533  24.449  39.200  13.849
26918W        W98534  11.420  15.104  14.528
26919W        W98535   6.852  30.232   2.355
26920W        W98536   6.528   6.828  13.030
26921W        W98537  28.656   6.668   3.426
26922W        W98538  35.058   5.559  10.298
26923W        W98539   6.839  16.008  12.911
26924W        W98540  35.475  41.408  14.520
26925W        W98541  41.324  38.580  13.003
26926W        W98542  28.601  31.362  10.480
26927W        W98543  24.459  37.664  12.948
26928W        W98544   4.493  40.064   1.021
26929W        W98545  18.711  18.257   0.675
26930W        W98546   7.090  27.176   2.212
26931W        W98547  29.383  30.372   2.108
26932W        W98548  37.393   5.496  13.756
26933W        W98549  32.039  40.295  10.433
26934W        W98550  28.183   3.891   1.434
26935W        W98551  37.094  12.823  10.743
26936W        W98552  34.892   7.374  10.653
26937W        W98553   3.318  23.566   0.898
26938W        W98554  30.488  35.945   4.492
26939W        W98555   7.316  15.269   4.869
26940W        W98556  40.859  42.902   1.865
26941W        W98557  24.540  18.590   0.935
26942W        W98558  41.770  36.074   2.852
26943W        W98559  30.945  26.507   2.835
26944W        W98560  34.084   4.425   3.237
26945W        W98561   4.678  18.152   3.151
26946W        W98562  29.126  22.983  13.597
26947W        W98563  35.423   4.677  10.895
26948W        W98564  33.289   6.913  13.599
26949W        W98565  39.406  33.573   3.794
26950W        W98566  17.625  18.471   2.265
26951W        W98567  39.282  23.743   3.272
26952W        W98568   6.691   0.205  12.035
26953W        W98569   7.595  10.017  14.900
26954W        W98570  15.117  22.682  14.909
26955W        W98571  23.675  26.230  12.961
26956W        W98572  29.711  23.933  12.089
26957W        W98573  15.250  10.632  11.336
26958W        W98574  44.490   2.328  13.984
26959W        W98575   3.696  44.000  11.085
26960W        W98576  44.861  22.312  11.106
26961W        W98577  13.700   2.188   4.329
26962W        W98578  31.337  42.714   0.336
26963W        W98579  31.349  33.417  14.372
26964W        W98580  18.831  28.912   2.217
26965W        W98581  39.864   4.739   4.120
26966W        W98582  13.773  36.345   1.397
26967W        W98583  21.112  31.327   2.758
26968W        W98584  32.138  28.877  10.575
26969W        W98585  30.750  13.247  13.161
26970W        W98586  43.831  11.801   3.776
26971W        W98587  36.910   0.871   1.492
26972W        W98588   7.728  40.512   2.369
26973W        W98589   5.751  12.566  14.052
26974W        W98590  32.442   7.884  12.975
26975W        W98591  10.330  15.625   2.320
26976W        W98592  25.238  16.322   2.788
26977W        W98593  15.811  18.562  12.987
26978W        W98594  11.634  24.427  12.860
26979W        W98595  26.134  25.709   3.397
26980W        W98596  43.469  35.947   0.818
26981W        W98597  40.821  17.852   0.507
26982W        W98598   9.323  40.858  14.385
26983W        W98599  38.625   1.856  14.603
26984W        W98600  16.334   0.315   1.764
26985W        W98601  18.525  25.601   2.766
26986W        W98602   1.728  33.346   0.389
26987W        W98603  16.309  35.317   2.725
26988W        W98604  44.290  36.603  10.994
26989W        W98605  41.794  32.046  14.448
26990W        W98606  17.817   5.794   2.299
26991W        W98607  32.208  24.154  11.718
26992W        W98608  13.206  33.544   0.982
26993W        W98609  42.260  10.260   1.228
26994W        W98610  15.574   7.323  14.275
26995W        W98611  10.436   4.224  12.906
26996W        W98612  43.751   4.352   3.709
26997W        W98613  35.935  13.991  14.826
26998W        W98614  23.284  19.709   4.203
26999W        W98615  43.546  34.010   3.331
27000W        W98616   2.799   7.969   1.851
27001W        W98617  19.414  14.705   4.912
27002W        W98618   7.907  35.032   4.190
27003W        W98619   7.437  13.662  12.687
27004W        W98620  20.076  28.927  11.556
27005W        W98621  37.276  40.205   3.143
27006W        W98622  28.413   8.415  12.022
27007W        W98623  24.899  13.777   0.484
27008W        W98624  16.304  18.779   2.673
27009W        W98625  38.022  30.330   5.008
27010W        W98626  17.709  26.056  13.938
27011W        W98627   9.635  30.142  10.702
27012W        W98628  40.878  34.720   4.147
27013W        W98629  22.654   2.301  14.301
27014W        W98630  19.342   1.788   1.339
27015W        W98631  33.626  43.718   1.366
27016W        W98632  40.950  37.727  11.971
27017W        W98633  25.387  37.702   3.673
27018W        W98634  42.178  22.216  10.408
27019W        W98635  24.083  33.349   0.911
27020W        W98636  28.896  38.279  14.428
27021W        W98637  42.120  25.952   4.322
27022W        W98638  43.337  11.111  10.776
27023W        W98639  36.656  33.515   3.402
27024W        W98640  20.447  27.228   1.073
27025W        W98641   6.309  16.655   2.493
27026W        W98642  15.669  42.294  11.021
27027W        W98643  25.957  40.937  13.608
27028W        W98644  38.099   1.781   1.742
27029W        W98645  25.756  31.529   3.256
27030W        W98646  20.581  41.848   3.220
27031W        W98647  36.307  38.149  14.703
27032W        W98648  11.054  15.696  13.003
27033W        W98649  43.475  37.083  14.989
27034W        W98650  34.058  38.620   4.629
27035W        W98651   0.184  38.972  14.875
27036W        W98652  30.916  43.034   1.110
27037W        W98653   3.631   5.716   0.649
27038W        W98654  38.295   7.821   1.758
27039W        W98655  36.379   9.654   1.891
27040W        W98656   8.319   8.351   4.615
27041W        W98657  40.051  32.858  10.789
27042W        W98658  41.735  30.356   3.705
27043W        W98659  22.822  29.097   0.548
27044W        W98660  26.697  41.993  12.977
27045W        W98661  37.610  19.488   9.540
27046W        W98662   9.913  32.061  12.860
27047W        W98663  16.199   9.832   4.148
27048W        W98664  16.070  44.298  10.664
27049W        W98665  19.675   0.443  13.042
27050W        W98666  26.721  36.973   1.280
27051W        W98667  12.809  26.523   3.355
27052W        W98668  10.878   3.480   3.275
27053W        W98669  18.184  14.367   1.183
27054W        W98670  16.154   5.279  13.498
27055W        W98671   8.441  42.210  12.188
27056W        W98672  36.768  35.335   3.966
27057W        W98673  44.924  30.861  12.585
27058W        W98674   8.268   0.702  11.594
27059W        W98675  24.537  13.597  11.888
27060W        W98676  18.017  42.054  11.025
27061W        W98677  10.804  17.638  12.498
27062W        W98678  44.861  10.819   2.409
27063W        W98679  36.199   0.550   2.215
27064W        W98680   6.694  14.146   2.611
27065W        W98681  15.828  19.098   1.881
27066W        W98682  37.312   6.256   3.779
27067W        W98683  40.777   1.161   2.123
27068W        W98684  35.655  40.525  11.100
27069W        W98685  40.757  13.267  11.110
27070W        W98686  22.232  31.241  11.598
27071W        W98687  43.541   5.423   2.317
27072W        W98688   3.669   8.659   2.326
27073W        W98689  10.831  10.607  11.454
27074W        W98690  23.276  18.171  11.655
27075W        W98691  14.773   6.692   2.310
27076W        W98692  33.148  24.758   4.655
27077W        W98693  18.513  41.024   2.744
27078W        W98694  15.360  18.592   2.690
27079W        W98695  24.186  35.968  11.035
27080W        W98696  22.956   3.433   3.073
27081W        W98697  21.156  11.678   2.285
27082W        W98698  34.404  43.460  12.442
27083W        W98699   1.181  41.599  12.743
27084W        W98700  27.148  26.235   2.412
27085W        W98701   5.889  18.761  13.927
27086W        W98702   1.877  31.067   2.555
27087W        W98703   0.834  34.106   1.295
27088W        W98704  19.205  27.911  13.350
27089W        W98705  22.737  37.550   3.303
27090W        W98706   4.690  19.842   2.291
27091W        W98707   3.262  29.976   4.994
27092W        W98708   0.180  31.324  12.544
27093W        W98709  42.212  13.193  14.020
27094W        W98710  42.974   5.152  11.939
27095W        W98711  20.667  44.312  11.013
27096W        W98712   7.752  32.365  11.927
27097W        W98713  22.135  43.528  14.499
27098W        W98714  43.280   7.989   0.410
27099W        W98715  18.588   3.591   5.106
27100W        W98716  31.353  41.412  13.453
27101W        W98717   4.437  31.065  11.601
27102W        W98718   1.713  16.850   0.351
27103W        W98719  11.714  10.088   4.198
27104W        W98720  39.330   4.189  11.057
27105W        W98721  30.232   8.924   0.948
27106W        W98722  36.313  28.154   1.309
27107W        W98723  27.185  26.679   4.524
27108W        W98724   7.765   9.922   4.098
27109W        W98725  30.026   6.419   0.672
27110W        W98726  11.552  31.865   5.002
27111W        W98727   1.357  34.400   2.942
27112W        W98728   5.828  16.826   1.705
27113W        W98729  26.575  30.182  11.133
27114W        W98730  34.451  31.936  12.034
27115W        W98731   2.800   9.250   0.452
27116W        W98732  18.653  34.794  12.808
27117W        W98733   2.165  21.328   4.348
27118W        W98734  34.845  38.122   1.018
27119W        W98735  35.651  42.838  12.094
27120W        W98736  43.520   2.960  14.209
27121W        W98737  11.470  34.502  14.829
27122W        W98738   1.863  25.154   3.597
27123W        W98739  27.601  38.690   4.238
27124W        W98740  14.749  41.435   1.705
27125W        W98741  40.052  32.559   0.530
27126W        W98742   5.923  27.160  14.766
27127W        W98743  43.690  20.771  11.208
27128W        W98744  30.402   1.633  11.524
27129W        W98745  40.787  37.019   4.628
27130W        W98746   3.205  17.293   1.308
27131W        W98747  19.659   8.874  14.968
27132W        W98748  35.098  37.412   0.187
27133W        W98749   1.927  36.237  13.348
27134W        W98750   9.145  15.342   1.279
27135W        W98751  27.565  38.078   0.871
27136W        W98752  39.539   8.728   1.429
27137W        W98753  30.733  26.020   1.445
27138W        W98754  10.275  38.433   2.196
27139W        W98755  42.832  25.661   3.113
27140W        W98756  16.010   9.675   1.327
27141W        W98757  37.068  25.308   3.421
27142W        W98758  22.821  14.612   4.599
27143W        W98759   6.356  30.945  13.823
27144W        W98760   5.667   8.158  11.161
27145W        W98761  28.888  40.388  14.416
27146W        W98762  33.210   3.340   3.703
27147W        W98763  12.773   9.601  12.889
27148W        W98764  36.277  27.733   4.050
27149W        W98765   9.420  43.649  11.920
27150W        W98766  31.819  21.780  10.686
27151W        W98767  26.545  43.543   2.825
27152W        W98768  16.163  19.754  14.565
27153W        W98769  13.893  23.122  12.514
27154W        W98770  15.470  39.836   1.011
27155W        W98771   7.955  19.079   0.522
27156W        W98772  27.380  26.114   0.654
27157W        W98773  20.963  23.482   0.310
27158W        W98774  20.175  37.079   0.122
27159W        W98775  24.667  31.822  13.643
27160W        W98776  16.304  22.732   1.942
27161W        W98777  43.023  16.704  12.850
27162W        W98778  27.997  28.207  14.800
27163W        W98779  33.087   2.491  14.497
27164W        W98780  13.229   5.834  10.952
27165W        W98781  34.559  28.696  11.529
27166W        W98782  11.531  33.929   3.856
27167W        W98783  35.881   9.253  13.476
27168W        W98784  15.232  10.311   4.253
27169W        W98785   6.353   0.390   0.476
27170W        W98786  13.319  18.027   1.839
27171W        W98787  41.790  17.304  13.441
27172W        W98788  43.024   1.781   2.676
27173W        W98789  41.997  42.280   1.209
27174W        W98790  33.244  26.257   2.704
27175W        W98791  35.808  40.499  13.696
27176W        W98792  12.599  32.912   1.303
27177W        W98793   1.666   2.933  14.906
27178W        W98794  41.407  17.589  10.908
27179W        W98795  25.016  44.992  12.488
27180W        W98796  33.858  32.168   4.128
27181W        W98797  19.306  34.632  10.695
27182W        W98798  13.548  20.738  14.254
27183W        W98799  42.176  24.893   3.241
27184W        W98800  28.025  22.777   2.627
27185W        W98801   4.426   2.823  12.621
27186W        W98802   7.880   9.289   1.471
27187W        W98803   9.680  24.740  11.417
27188W        W98804  42.366  14.236  13.074
27189W        W98805  44.268  43.504   0.838
27190W        W98806  43.266   8.845  11.673
27191W        W98807  14.652  14.790  13.767
27192W        W98808  27.703  33.382  10.813
27193W        W98809  28.627  13.505  13.055
27194W        W98810  11.146  35.090  11.345
27195W        W98811  10.627   8.183   0.037
27196W        W98812  30.513   5.231  12.861
27197W        W98813   6.907  37.716   3.556
27198W        W98814  11.279   4.688  13.594
27199W        W98815  32.548  34.063   0.638
27200W        W98816   1.620  38.064   4.872
27201W        W98817   8.191  38.121   1.386
27202W        W98818   5.358   5.570  11.057
27203W        W98819  19.835   9.860   2.370
27204W        W98820  36.648   6.597  13.016
27205W        W98821  23.005  44.520   2.226
27206W        W98822  41.738   2.417  12.098
27207W        W98823  41.164  19.343   1.842
27208W        W98824   6.792  16.972   3.939
27209W        W98825  19.520  38.478  12.363
27210W        W98826  37.610  14.681  10.786
27211W        W98827  37.325  21.106   3.628
27212W        W98828  15.134  15.565  10.093
27213W        W98829   2.974  27.054   2.439
27214W        W98830  10.440  12.819  11.059
27215W        W98831  36.430  12.289   0.550
27216W        W98832   3.275   3.321   1.934
27217W        W98833  34.639   5.336  14.266
27218W        W98834   1.800  35.465   0.193
27219W        W98835  11.453  19.073  13.836
27220W        W98836  14.810  25.397   3.134
27221W        W98837  24.382  42.225   4.018
27222W        W98838  35.581  42.332   2.323
27223W        W98839   6.136  40.537   3.721
27224W        W98840  12.264   4.290   3.754
27225W        W98841  37.880  36.565  13.488
27226W        W98842  21.785  19.897  14.361
27227W        W98843  16.128  28.836  12.706
27228W        W98844  31.413  21.017   4.154
27229W        W98845  36.120  39.325  10.997
27230W        W98846  42.684  13.405  13.202
27231W        W98847   4.326  15.028  14.385
27232W        W98848  29.040  38.937  14.036
27233W        W98849  24.617  26.677  11.188
27234W        W98850  42.902  39.103   0.390
27235W        W98851  40.801  42.493   0.427
27236W        W98852   1.263  32.083   0.373
27237W        W98853  44.756  20.335  10.729
27238W        W98854   8.937  32.378   2.895
27239W        W98855  26.207  27.405  12.319
27240W        W98856  39.049  33.160  14.459
27241W        W98857   9.593  25.663  13.387
27242W        W98858   9.329  28.918  14.970
27243W        W98859  34.874  24.277   1.932
27244W        W98860  25.122  43.995  14.102
27245W        W98861  44.436   1.918   4.623
27246W        W98862  24.499  26.102  10.726
27247W        W98863  31.899  38.975   1.458
27248W        W98864   7.268  32.440  10.608
27249W        W98865  25.384   2.994   0.837
27250W        W98866  17.160  44.975   0.767
27251W        W98867  19.093  38.385  11.420
27252W        W98868  29.477  13.810  12.465
27253W        W98869  24.485   8.108  11.024
27254W        W98870  27.165   6.203   0.869
27255W        W98871  41.850  14.358  11.624
27256W        W98872  11.211  44.720   4.351
27257W        W98873   9.393  19.461   4.578
27258W        W98874   7.911   0.729   4.605
27259W        W98875  38.843  18.330  14.854
27260W        W98876  40.829  27.910   0.935
27261W        W98877   8.315  44.525   0.961
27262W        W98878  27.929  33.457   4.854
27263W        W98879  26.903  23.523   5.051
27264W        W98880  30.691  39.092   1.840
27265W        W98881  14.660  25.363   5.078
27266W        W98882  14.080  25.104   0.366
27267W        W98883  37.553   9.422  12.765
27268W        W98884  26.170   3.485  12.801
27269W        W98885  34.661  39.347  10.799
27270W        W98886   1.095   4.532  12.118
27271W        W98887  14.042  26.075   3.090
27272W        W98888   4.184  23.516   1.025
27273W        W98889  11.918  18.831  13.731
27274W        W98890   0.049  32.450   1.901
27275W        W98891  23.410  31.925  10.619
27276W        W98892   4.200  31.612  12.898
27277W        W98893  18.044   4.286  12.835
27278W        W98894   1.065  11.190   3.883
27279W        W98895  28.547  43.758   1.395
27280W        W98896  38.811  10.725   3.673
27281W        W98897  25.859  11.111   1.238
27282W        W98898  14.614   6.894   3.179
27283W        W98899  38.673  39.003   5.095
27284W        W98900   3.517  27.643  11.025
27285W        W98901  10.627  27.385  13.484
27286W        W98902  19.402  42.877  14.385
27287W        W98903   8.355  23.500  12.145
27288W        W98904  32.451  14.888  12.773
27289W        W98905  21.765  27.678  12.455
27290W        W98906  11.051  24.436  12.414
27291W        W98907  15.885   3.375  11.579
27292W        W98908  20.665  21.256  11.653
27293W        W98909  17.504  44.028  13.976
27294W        W98910  40.755   6.452  11.577
27295W        W98911  18.985  26.001   3.380
27296W        W98912   6.334   9.322  12.900
27297W        W98913  31.107  29.708   9.936
27298W        W98914  23.794  20.615  11.175
27299W        W98915  18.292  20.241   1.340
27300W        W98916  30.732  12.146  11.175
27301W        W98917  15.297  26.648  13.034
27302W        W98918  12.259  23.121  14.210
27303W        W98919  30.644  20.565  10.305
27304W        W98920   0.252  21.794   1.807
27305W        W98921  19.642  29.684   0.778
27306W        W98922   1.671  29.117   4.590
27307W        W98923  25.574  26.101   4.748
27308W        W98924  26.752  43.930  10.041
27309W        W98925  13.230  32.815   1.806
27310W        W98926  20.015   0.806   2.106
27311W        W98927  39.023  38.561  13.451
27312W        W98928  15.681  26.385  14.390
27313W        W98929   7.916  33.397   1.861
27314W        W98930   7.470  41.815  14.438
27315W        W98931  28.497  35.651  11.657
27316W        W98932   1.508  14.195   4.239
27317W        W98933  14.882  18.289   0.929
27318W        W98934  37.400  28.013   2.811
27319W        W98935   9.229   4.279   1.138
27320W        W98936  33.413  32.602  14.438
27321W        W98937  36.673   5.899  11.922
27322W        W98938  24.526   6.317  12.899
27323W        W98939  18.568  30.773  14.790
27324W        W98940  10.218  30.785   4.463
27325W        W98941  22.785  21.013  13.907
27326W        W98942  16.279  38.456  14.465
27327W        W98943  40.660  41.572   1.317
27328W        W98944  32.573  35.218   3.421
27329W        W98945  16.485  43.888   9.840
27330W        W98946   1.858  44.300  10.700
27331W        W98947  18.139  21.072   0.707
27332W        W98948  32.033   1.504   2.275
27333W        W98949  30.527  42.686   4.981
27334W        W98950   4.558  40.563  14.902
27335W        W98951  39.876  20.580  13.016
27336W        W98952  15.659  15.748  11.612
27337W        W98953  35.082  17.173   2.700
27338W        W98954  23.172   4.962   1.458
27339W        W98955  30.657   0.239   2.282
27340W        W98956  18.998  32.624  12.939
27341W        W98957  13.784   6.469   2.005
27342W        W98958  12.273  24.091  10.661
27343W        W98959  25.658   4.049   4.101
27344W        W98960   4.179   7.235   2.233
27345W        W98961  29.339  19.735   1.914
27346W        W98962   0.905   9.809   4.939
27347W        W98963   2.946  22.494  12.063
27348W        W98964  17.649  14.065   1.251
27349W        W98965  41.851  14.569   3.905
27350W        W98966   3.417   4.376   4.404
27351W        W98967  30.340   7.353   3.762
27352W        W98968  23.631  42.492  14.480
27353W        W98969  18.858  11.713   1.902
27354W        W98970  30.891  21.249   2.603
27355W        W98971  39.241  12.686   3.794
27356W        W98972   2.848  19.691   3.483
27357W        W98973  25.931  33.150   3.771
27358W        W98974   4.371   0.008   2.894
27359W        W98975   9.830  43.197   3.612
27360W        W98976  16.079  35.478   0.178
27361W        W98977  32.887  40.600   0.223
27362W        W98978  13.356  18.675   0.242
27363W        W98979  16.335  44.148  10.245
27364W        W98980  14.658  35.077   0.579
27365W        W98981   4.943   0.318  12.884
27366W        W98982  11.119  22.488  11.394
27367W        W98983  42.945   2.963   0.116
27368W        W98984  41.290  28.498   1.174
27369W        W98985  36.178  24.632  14.270
27370W        W98986  33.223  36.926   2.122
27371W        W98987  31.893  13.163   4.088
27372W        W98988  18.481  41.089  10.237
27373W        W98989  25.166  28.495  13.472
27374W        W98990  12.201   7.620   4.157
27375W        W98991  18.694  24.671   0.894
27376W        W98992  26.231  30.564   2.778
27377W        W98993  32.495   9.763   2.142
27378W        W98994  10.144   9.340  13.860
27379W        W98995   4.942  19.572  13.341
27380W        W98996   6.595  20.262  14.279
27381W        W98997  26.327  18.736   3.865
27382W        W98998  32.340  28.959  11.173
27383W        W98999  32.861  44.299  10.970
27384W        W99000   2.055  38.404   2.288
27385W        W99001  12.602  32.497   0.322
27386W        W99002  32.461  27.115   4.051
27387W        W99003  11.229  14.639  14.744
27388W        W99004  19.490   2.420   0.066
27389W        W99005  16.716  28.949  11.476
27390W        W99006  40.297  44.572  12.356
27391W        W99007   3.928  34.582  13.047
27392W        W99008   4.950  32.171   0.423
27393W        W99009  27.002  24.761  14.275
27394W        W99010  12.599  18.127   1.419
27395W        W99011   8.820  37.351   3.329
27396W        W99012  40.604  23.974  12.544
27397W        W99013  17.489  43.643   4.509
27398W        W99014  31.903   0.235  11.162
27399W        W99015  28.289  23.463   3.988
27400W        W99016  39.873  25.639   3.730
27401W        W99017   9.241  28.416  14.995
27402W        W99018  31.233  10.841  11.081
27403W        W99019  20.282  11.134  13.436
27404W        W99020  42.752   8.435  14.987
27405W        W99021  16.479   8.693  11.872
27406W        W99022  32.692  20.737   0.486
27407W        W99023  15.521  38.952   2.779
27408W        W99024  31.922   2.855   2.744
27409W        W99025  22.999  10.725   2.361
27410W        W99026  12.796  38.812   2.344
27411W        W99027  13.178  43.985  12.961
27412W        W99028  17.392  36.138  12.058
27413W        W99029  23.242  32.635  13.990
27414W        W99030  22.747   9.294   4.522
27415W        W99031  30.382  41.339   0.776
27416W        W99032  28.615  12.393   1.689
27417W        W99033  22.687  29.874   1.388
27418W        W99034   0.337  13.977  13.089
27419W        W99035   0.100   2.383  10.789
27420W        W99036   4.423   0.674  11.432
27421W        W99037   3.138  43.086  12.436
27422W        W99038  39.842  19.785  13.434
27423W        W99039  22.296  22.584  10.375
27424W        W99040  10.108  27.528  11.144
27425W        W99041  33.837  25.471  14.414
27426W        W99042  38.670   7.146  12.542
27427W        W99043  22.708  10.581   0.811
27428W        W99044  19.811   7.827  11.482
27429W        W99045  29.149   0.451  14.681
27430W        W99046  32.939   6.136  14.081
27431W        W99047  11.182  36.591   0.455
27432W        W99048  25.082  43.704   2.493
27433W        W99049   6.748  22.044   0.375
27434W        W99050  22.788   1.317  14.361
27435W        W99051  23.522   7.031  12.584
27436W        W99052  16.142  40.538  13.541
27437W        W99053   2.814  32.979  11.505
27438W        W99054  27.735  16.157   2.246
27439W        W99055   3.937  29.562  11.811
27440W        W99056  16.831  11.649   3.128
27441W        W99057  11.402   5.103  13.332
27442W        W99058   4.836   9.010   1.531
27443W        W99059  16.801  39.791  11.630
27444W        W99060   2.321  38.429  10.743
27445W        W99061  42.074  30.701  11.585
27446W        W99062  12.433   2.008   1.689
27447W        W99063  21.572  11.903  14.822
27448W        W99064  17.559  25.041  10.963
27449W        W99065   0.492  37.870  11.615
27450W        W99066  14.545   5.308   0.270
27451W        W99067   9.206   6.344   4.566
27452W        W99068   0.579  29.110  10.682
27453W        W99069  20.330  11.179   4.470
27454W        W99070  31.786  17.983   4.804
27455W        W99071   6.356  43.580  11.042
27456W        W99072  21.714  31.123  14.103
27457W        W99073  24.902  22.058   2.590
27458W        W99074  12.391  13.014  10.669
27459W        W99075  21.747  25.665   1.359
27460W        W99076  32.514  32.411   3.876
27461W        W99077  37.239  16.676   3.594
27462W        W99078  23.297  37.426   2.237
27463W        W99079   4.432  21.498   3.225
27464W        W99080  24.031  29.224   0.378
27465W        W99081  30.391  30.088  13.301
27466W        W99082   4.917  40.035   1.435
27467W        W99083   1.212  29.704   1.105
27468W        W99084  20.560  11.323  12.998
27469W        W99085  35.933  40.346   3.726
27470W        W99086   3.265   1.390  10.632
27471W        W99087  21.834  14.291   1.346
27472W        W99088  25.873  28.055  10.655
27473W        W99089  37.890  39.839   0.910
27474W        W99090  39.027  33.985   0.201
27475W        W99091  18.325  17.382   3.970
27476W        W99092   1.206  22.811  11.094
27477W        W99093  34.571  36.417   4.577
27478W        W99094  32.578  44.584  12.538
27479W        W99095  30.332   3.723  13.862
27480W        W99096  39.375  14.277  13.810
27481W        W99097  11.649   1.220  11.181
27482W        W99098   9.223  43.133  13.855
27483W        W99099   8.163  26.589   0.216
27484W        W99100   3.734  38.973   2.737
27485W        W99101  19.005  42.536   4.686
27486W        W99102  13.046  16.747  11.467
27487W        W99103  34.244  28.887   3.470
27488W        W99104  14.274  11.327   4.273
27489W        W99105   1.775  27.411  13.425
27490W        W99106  13.201  36.395   0.851
27491W        W99107  38.400  25.085  12.126
27492W        W99108   0.708  29.050  13.375
27493W        W99109  41.360  18.376   1.791
27494W        W99110   2.459   1.748  10.576
27495W        W99111  13.285  16.286  14.412
27496W        W99112  42.400  43.442  13.433
27497W        W99113  38.608  25.279   0.340
27498W        W99114  26.628   6.661  11.621
27499W        W99115  31.925   3.229  12.066
27500W        W99116   0.871   9.374   4.666
27501W        W99117  12.784  37.790   1.382
27502W        W99118  13.625  23.697  12.132
27503W        W99119  38.497  31.944   4.581
27504W        W99120  12.162  36.611  13.838
27505W        W99121   2.925   0.022   0.625
27506W        W99122  44.257   6.193   2.689
27507W        W99123  24.496   9.465  11.681
27508W        W99124  32.403  28.988   4.133
27509W        W99125  21.535  30.394  11.429
27510W        W99126   0.359  17.626  13.216
27511W        W99127   3.680  36.353   4.175
27512W        W99128  28.294   6.615  11.051
27513W        W99129  15.196   6.112  14.009
27514W        W99130   6.901  43.443   4.529
27515W        W99131   6.190  17.945   2.278
27516W        W99132  14.908  35.480   2.751
27517W        W99133  11.882  26.153  12.075
27518W        W99134  40.331  19.583  10.157
27519W        W99135  25.171  12.392  13.399
27520W        W99136  30.618  25.431   0.623
27521W        W99137  10.427   2.008  11.424
27522W        W99138  31.571  27.956  14.985
27523W        W99139  10.426  24.042  13.987
27524W        W99140  33.669   9.367   1.321
27525W        W99141  13.821   9.879  10.544
27526W        W99142  17.642   1.477  13.879
27527W        W99143   8.867  19.807  13.056
27528W        W99144  17.942  31.712   1.733
27529W        W99145  35.220  11.328   1.202
27530W        W99146  38.371   1.415  14.473
27531W        W99147  36.943  39.762   4.827
27532W        W99148   6.449  42.303   4.697
27533W        W99149   1.049  16.822  14.917
27534W        W99150  28.956  31.627   3.692
27535W        W99151  12.504  15.280   4.385
27536W        W99152  37.705  17.130   0.538
27537W        W99153  18.860  43.020   4.534
27538W        W99154  29.313  24.688  14.537
27539W        W99155  15.959  29.487   4.111
27540W        W99156  41.313  21.261   1.979
27541W        W99157  12.608  40.490  13.756
27542W        W99158  13.196  27.542  12.214
27543W        W99159  32.725   6.697  13.085
27544W        W99160  32.129  19.300   1.277
27545W        W99161  12.171  19.154  10.608
27546W        W99162  23.146  17.105   3.757
27547W        W99163  35.018  35.799  12.908
27548W        W99164  25.495  11.409  10.707
27549W        W99165   2.255   5.181   4.088
27550W        W99166  17.685  20.128  11.547
27551W        W99167  13.346  19.861  11.435
27552W        W99168   6.450  20.819   1.053
27553W        W99169  28.934  22.206  14.693
27554W        W99170  37.047  17.480  12.487
27555W        W99171  34.959  16.678  10.498
27556W        W99172  30.646  42.538   4.496
27557W        W99173  34.560   7.928   2.540
27558W        W99174  39.345  40.617  13.826
27559W        W99175  39.373  44.975   4.170
27560W        W99176  35.376  11.757   4.394
27561W        W99177   2.377  21.445   1.667
27562W        W99178  36.180  11.086  13.431
27563W        W99179  39.978  21.465   0.451
27564W        W99180  34.050  14.213   4.801
27565W        W99181  42.873  42.098  11.027
27566W        W99182  29.885  28.639  10.738
27567W        W99183  44.753  22.482  14.751
27568W        W99184  22.166  15.828   2.210
27569W        W99185   3.872  14.644  11.716
27570W        W99186  20.433  10.268  11.027
27571W        W99187   2.230  21.076   0.988
27572W        W99188  20.743   9.854   1.310
27573W        W99189  11.390  24.067  12.582
27574W        W99190  34.846  15.584   2.848
27575W        W99191  33.940  27.684   2.714
27576W        W99192  26.290  25.244  14.792
27577W        W99193  38.485  27.922  14.311
27578W        W99194  41.907  23.367  10.289
27579W        W99195  36.521   0.784  11.797
27580W        W99196  39.787  12.599  10.642
27581W        W99197  17.841  31.619  11.609
27582W        W99198  24.423  40.744  11.591
27583W        W99199  12.245   2.412  14.458
27584W        W99200  12.836  43.809   1.343
27585W        W99201   1.472  31.578  11.542
27586W        W99202  30.581  16.582   0.855
27587W        W99203   5.844  36.803  13.430
27588W        W99204  18.830  38.972   2.237
27589W        W99205  28.883  27.126   4.228
27590W        W99206  27.432   7.451   1.427
27591W        W99207   5.360  27.020  11.907
27592W        W99208  25.531   1.872   4.020
27593W        W99209  22.127  16.212  12.526
27594W        W99210   6.353  13.082   3.203
27595W        W99211  11.534  37.870  13.343
27596W        W99212  41.929   0.974   4.007
27597W        W99213   0.961  18.523  13.407
27598W        W99214  39.812  35.250  10.794
27599W        W99215  16.519   4.251   2.852
27600W        W99216  23.195  23.555  13.922
27601W        W99217   7.458   1.137   2.730
27602W        W99218   5.907  31.786  13.922
27603W        W99219  30.429  39.907  12.952
27604W        W99220   1.782  14.131   3.779
27605W        W99221  30.952  43.504  12.748
27606W        W99222   2.697  19.797  13.899
27607W        W99223  35.405  36.937  10.982
27608W        W99224  42.380  10.141  12.541
27609W        W99225  39.828  21.257  12.554
27610W        W99226  20.617  28.968   3.367
27611W        W99227   4.732   5.179  12.890
27612W        W99228  17.278  36.032   0.851
27613W        W99229   6.726  18.809   4.364
27614W        W99230  33.602   9.195   3.763
27615W        W99231  43.121  19.985   4.729
27616W        W99232  22.559   1.438  12.704
27617W        W99233  23.462  26.471   1.194
27618W        W99234   9.528  33.712   0.996
27619W        W99235  13.139   0.964   0.768
27620W        W99236  24.716   2.350  12.523
27621W        W99237  33.409  13.230  12.503
27622W        W99238  23.293  44.446   2.661
27623W        W99239   2.281  27.516   0.804
27624W        W99240  43.983   5.468  14.358
27625W        W99241  17.521  10.627   3.244
27626W        W99242  17.132  35.470   0.778
27627W        W99243  29.878   2.100  11.141
27628W        W99244  24.460  18.501   3.235
27629W        W99245  43.382  20.582  11.593
27630W        W99246  29.914  28.886   3.161
27631W        W99247  28.367  22.601   4.213
27632W        W99248  27.133  19.558   5.321
27633W        W99249   7.242  38.811  11.271
27634W        W99250  20.690  30.404  14.216
27635W        W99251  21.873  21.428  11.435
27636W        W99252  24.431   9.410  12.205
27637W        W99253  18.607  34.200  12.027
27638W        W99254  18.097  43.867  14.477
27639W        W99255  32.704  44.656   0.230
27640W        W99256  21.272   6.333   1.514
27641W        W99257  36.632  19.590  12.083
27642W        W99258   0.269  28.563  12.395
27643W        W99259  17.739   9.108   3.822
27644W        W99260   5.830  26.629   0.013
27645W        W99261  25.903   9.177  14.731
27646W        W99262  39.863  38.338  12.801
27647W        W99263  12.401  25.534  13.856
27648W        W99264   7.434   1.640   2.869
27649W        W99265  44.275  29.418  12.362
27650W        W99266  21.573   1.606   4.832
27651W        W99267  43.798  44.759   0.817
27652W        W99268  15.440  35.075   0.412
27653W        W99269  12.813   4.663   5.279
27654W        W99270  13.118  12.452  11.090
27655W        W99271  25.144  38.615  12.420
27656W        W99272  43.811  39.873  14.074
27657W        W99273  44.350  10.898  13.306
27658W        W99274  40.840  39.713  13.426
27659W        W99275   8.236  13.527   4.028
27660W        W99276  14.234  15.370  13.582
27661W        W99277  10.161  23.151   3.732
27662W        W99278  10.902  30.458  13.322
27663W        W99279  37.922  27.833   2.823
27664W        W99280  36.542  35.997  14.934
27665W        W99281   0.854  32.448   0.743
27666W        W99282  41.209  43.053  13.326
27667W        W99283  41.668   9.271   0.669
27668W        W99284   9.941  37.418  11.437
27669W        W99285  19.734   2.945   3.718
27670W        W99286   7.513   8.751  13.119
27671W        W99287   1.493  34.466  12.138
27672W        W99288  11.271  14.187  13.839
27673W        W99289  20.148   1.706   0.713
27674W        W99290  21.546  16.150   3.879
27675W        W99291  31.105  23.970  11.575
27676W        W99292  40.559   5.743  12.875
27677W        W99293  39.743  44.008   2.383
27678W        W99294  11.757  25.166  11.090
27679W        W99295  23.707   4.481  11.618
27680W        W99296  39.082  26.397   1.775
27681W        W99297  17.660  16.050   1.234
27682W        W99298   3.981   4.856  12.936
27683W        W99299   8.923   0.737   2.683
27684W        W99300  18.704  34.879  13.809
27685W        W99301   3.198  26.703   3.754
27686W        W99302  36.788  24.486   1.293
27687W        W99303  23.178  40.586   1.472
27688W        W99304  18.242  33.472   1.454
27689W        W99305  31.035   9.406  13.871
27690W        W99306  27.493  15.565  13.492
27691W        W99307  36.972  32.461  13.524
27692W        W99308   3.145  43.447  13.086
27693W        W99309   8.323  19.492  11.337
27694W        W99310  22.168  22.585   2.364
27695W        W99311  42.226   8.618   4.971
27696W        W99312   1.314  41.793  13.394
27697W        W99313   1.534  43.417  10.936
27698W        W99314  17.766  31.528   2.937
27699W        W99315  16.802  26.094  14.441
27700W        W99316  11.176  32.703  14.926
27701W        W99317  29.691  18.501  12.118
27702W        W99318  44.440  27.656   3.700
27703W        W99319  14.364  26.424   0.589
27704W        W99320  32.815  24.239   3.742
27705W        W99321  21.592  16.139  11.097
27706W        W99322   4.383  31.051  13.070
27707W        W99323  10.569  28.443  14.820
27708W        W99324  27.461   0.352  13.041
27709W        W99325   8.149   3.825   4.183
27710W        W99326  42.955  13.777  11.312
27711W        W99327  43.420  30.975   3.888
27712W        W99328  29.898  17.766   0.447
27713W        W99329  39.470  43.246  11.967
27714W        W99330  38.801   1.799  11.725
27715W        W99331   1.443  15.319   2.787
27716W        W99332   8.151  14.686   1.346
27717W        W99333  31.844  36.512   2.749
27718W        W99334  22.246  43.023   4.603
27719W        W99335  34.849  37.035   2.182
27720W        W99336   1.916  29.905   0.841
27721W        W99337  29.845  44.488  14.074
27722W        W99338  35.781   6.556   3.309
27723W        W99339  39.313   0.397  12.073
27724W        W99340   9.070  38.001   0.980
27725W        W99341  32.953  44.207   0.925
27726W        W99342  18.239  17.076  14.813
27727W        W99343  17.617  28.881  11.372
27728W        W99344  29.574  11.063   4.539
27729W        W99345  20.349  13.071   2.077
27730W        W99346  13.152  28.362   1.215
27731W        W99347   2.401  40.770  11.101
27732W        W99348  29.075  15.070   4.524
27733W        W99349   0.847  15.241  13.805
27734W        W99350  25.160  10.758   4.779
27735W        W99351  27.869  12.125  12.380
27736W        W99352  12.765  28.601   2.984
27737W        W99353   4.962  19.808   2.727
27738W        W99354  21.522  34.030  13.486
27739W        W99355  44.187  19.417   3.525
27740W        W99356   9.338  14.782   3.891
27741W        W99357  24.057  24.263   2.189
27742W        W99358  18.614  27.253  14.826
27743W        W99359  21.210   6.867  13.475
27744W        W99360  23.018   0.764  14.828
27745W        W99361  41.783  42.022   0.794
27746W        W99362  27.179  38.017   4.625
27747W        W99363  10.390  26.044  11.544
27748W        W99364  43.611   9.605   2.888
27749W        W99365  36.426  36.951   1.747
27750W        W99366  24.285  27.168  13.294
27751W        W99367   7.297  43.872   1.951
27752W        W99368  36.471  41.279   3.231
27753W        W99369  12.438  17.115  12.046
27754W        W99370  42.991   2.050  12.051
27755W        W99371  38.873   0.417   3.839
27756W        W99372  26.028  15.015   5.075
27757W        W99373  20.895   1.476  11.184
27758W        W99374  44.277  21.885   1.914
27759W        W99375   6.331  10.169   2.599
27760W        W99376  41.528   7.830  14.869
27761W        W99377   0.743   6.427   1.787
27762W        W99378   8.400   2.715   3.595
27763W        W99379  34.445  27.640   0.401
27764W        W99380   9.881  35.662  13.903
27765W        W99381   3.748  21.727  12.004
27766W        W99382  42.011  40.134   2.434
27767W        W99383  32.065  18.675   0.225
27768W        W99384  34.629  38.046  13.651
27769W        W99385   8.192  21.134   0.492
27770W        W99386  14.713  16.003   0.726
27771W        W99387  14.030  31.935   0.726
27772W        W99388  25.743  39.032  12.527
27773W        W99389   3.489  20.342  12.391
27774W        W99390  28.128  10.570   2.309
27775W        W99391   8.489  12.691   2.315
27776W        W99392  42.017  31.694   1.779
27777W        W99393  10.384  15.544  11.095
27778W        W99394  20.800  39.770  11.878
27779W        W99395  41.980  34.322  13.507
27780W        W99396   6.871  14.893   2.293
27781W        W99397  36.881  16.351   2.303
27782W        W99398  41.319  27.900   0.743
27783W        W99399  36.036  31.706   4.540
27784W        W99400  30.536  37.102   3.215
27785W        W99401  29.841  26.028  13.933
27786W        W99402  16.636  18.463   9.614
27787W        W99403  14.299  38.266   2.669
27788W        W99404  10.670  19.324   1.214
27789W        W99405  28.097   5.306  11.150
27790W        W99406  24.650  19.183   2.742
27791W        W99407  40.455   3.017   0.948
27792W        W99408  15.635  41.397  11.366
27793W        W99409   1.949   7.416   3.672
27794W        W99410   0.696  23.679  14.830
27795W        W99411  14.365  11.030  11.343
27796W        W99412  31.907  19.012  13.987
27797W        W99413   9.528  38.791   3.236
27798W        W99414  38.531  15.092   4.514
27799W        W99415   8.140  34.583  12.913
27800W        W99416   7.969  44.776   0.152
27801W        W99417  43.794  43.511  12.879
27802W        W99418  21.249  20.202   3.974
27803W        W99419   4.425  37.848   1.403
27804W        W99420  31.989  21.293  13.551
27805W        W99421  27.343  36.051   4.816
27806W        W99422  13.342  41.818   2.348
27807W        W99423  33.418  33.247  13.603
27808W        W99424  16.108  44.035   0.806
27809W        W99425  28.456  29.372   4.211
27810W        W99426   2.807  32.362   1.673
27811W        W99427  29.274  43.070   1.275
27812W        W99428  25.048  40.401  14.867
27813W        W99429  13.755  14.321  13.790
27814W        W99430  34.875  36.720   0.749
27815W        W99431  33.037  32.339  13.318
27816W        W99432  14.723  29.807  14.792
27817W        W99433  11.379  24.964  11.388
27818W        W99434   2.016  44.750  13.968
27819W        W99435  30.433  41.805   0.994
27820W        W99436  37.533  35.527   2.421
27821W        W99437  30.868  31.051  11.319
27822W        W99438  31.992  27.374  10.729
27823W        W99439  28.012   5.047   5.083
27824W        W99440  21.150   9.100   4.859
27825W        W99441  25.555  22.486   3.958
27826W        W99442  38.074  29.149   3.236
27827W        W99443  36.054   3.639   0.023
27828W        W99444  38.250  33.687  14.770
27829W        W99445  44.247  23.178   3.271
27830W        W99446  20.034   5.349  11.218
27831W        W99447  38.454  13.813  12.100
27832W        W99448  22.590  14.195  10.226
27833W        W99449  11.445  30.369   3.309
27834W        W99450  30.873   6.646   0.258
27835W        W99451  16.575  44.756   3.591
27836W        W99452  11.251  32.187  12.016
27837W        W99453   6.660  17.812   0.889
27838W        W99454  36.764   0.443  11.481
27839W        W99455  40.755  28.107  12.381
27840W        W99456  13.648  21.216   2.361
27841W        W99457   1.981  36.981  14.587
27842W        W99458  17.470  15.753   4.379
27843W        W99459   1.261  43.258   1.886
27844W        W99460  20.059  18.274   4.070
27845W        W99461  30.468  44.035   4.815
27846W        W99462  21.728  16.117   2.280
27847W        W99463  26.075   5.446   3.678
27848W        W99464  32.601  27.472  13.264
27849W        W99465  41.739   8.633  11.201
27850W        W99466  33.688   9.316  11.884
27851W        W99467  12.561   3.518  11.668
27852W        W99468  21.281  38.497  13.469
27853W        W99469  33.975  17.614   0.320
27854W        W99470   1.746  36.226  11.110
27855W        W99471  16.218   8.932  14.242
27856W        W99472  24.802  32.820  11.041
27857W        W99473  16.516  42.258  12.579
27858W        W99474   7.704   0.272   4.407
27859W        W99475   1.964  39.302  11.015
27860W        W99476  25.053  44.299  12.001
27861W        W99477  35.562  23.776  14.383
27862W        W99478  34.539  13.710  11.197
27863W        W99479  19.150  44.283   9.783
27864W        W99480  34.438   8.153  14.435
27865W        W99481  22.017   0.202   0.854
27866W        W99482  17.626  41.838   3.461
27867W        W99483  18.562  21.067   0.367
27868W        W99484  30.160  41.587  13.929
27869W        W99485   5.274  42.600   3.231
27870W        W99486  24.142  13.579  12.458
27871W        W99487  30.073  34.552   4.785
27872W        W99488  34.725   7.812  11.730
27873W        W99489  33.086  16.848  13.869
27874W        W99490  41.252   4.813  12.104
27875W        W99491  44.658  14.722  14.860
27876W        W99492  33.690  12.722  13.615
27877W        W99493  13.585  35.364  11.872
27878W        W99494   4.243   4.577  13.878
27879W        W99495  44.816   4.692  13.751
27880W        W99496  14.721  17.986   3.615
27881W        W99497   2.143  14.728  13.942
27882W        W99498  22.416  18.781  13.920
27883W        W99499  22.013  14.621   4.157
27884W        W99500  26.433   9.262  14.794
27885W        W99501  32.500  18.463   3.718
27886W        W99502  35.447  14.556   0.012
27887W        W99503  35.545  28.421  10.980
27888W        W99504  31.047  32.663   0.884
27889W        W99505  40.011  38.403   1.774
27890W        W99506  44.287   0.517  12.021
27891W        W99507  29.043  16.173   0.950
27892W        W99508  17.462  32.393   0.774
27893W        W99509  28.910   2.457  14.972
27894W        W99510  25.178  20.831  10.976
27895W        W99511   2.018  14.552  14.470
27896W        W99512  23.155  23.449  14.929
27897W        W99513  23.090  33.595  12.062
27898W        W99514   8.116  30.882   1.303
27899W        W99515  25.850  34.599  12.037
27900W        W99516   7.784  22.201   4.591
27901W        W99517  17.028  42.973   4.791
27902W        W99518  36.872  25.055  14.618
27903W        W99519  11.840  21.625   0.840
27904W        W99520   5.122  13.239  13.072
27905W        W99521  43.409  41.536   3.818
27906W        W99522   5.058   6.913  12.475
27907W        W99523  24.086  13.577   3.557
27908W        W99524   0.497   6.448   2.243
27909W        W99525  37.329  11.302  11.585
27910W        W99526   2.693  17.869  10.654
27911W        W99527  39.495   2.644   4.023
27912W        W99528   2.700  32.084  10.896
27913W        W99529  34.152  31.305   0.457
27914W        W99530  35.883   9.211  11.509
27915W        W99531  24.036  36.340   0.510
27916W        W99532   2.230   4.808  11.434
27917W        W99533  32.403   3.552   0.893
27918W        W99534  36.976  39.281  10.695
27919W        W99535  36.329  15.316   3.791
27920W        W99536  34.903  26.657  13.362
27921W        W99537  26.620  44.901  14.805
27922W        W99538  24.118   5.185   0.247
27923W        W99539  11.333  40.183   2.592
27924W        W99540  12.190  15.748   4.563
27925W        W99541  12.916  11.956  11.089
27926W        W99542  33.867  13.625  12.018
27927W        W99543  37.525  34.957   3.667
27928W        W99544  35.904  12.773   3.134
27929W        W99545  32.684   9.674   1.268
27930W        W99546  25.142  43.894   2.967
27931W        W99547  36.030  43.513  12.394
27932W        W99548  34.710  35.839   2.395
27933W        W99549  25.568   3.165  14.023
27934W        W99550  25.587   9.863   1.210
27935W        W99551   3.455   7.868   3.561
27936W        W99552   1.965  30.511  11.879
27937W        W99553  21.104  14.962  14.989
27938W        W99554  11.638   8.342  12.148
27939W        W99555   8.159  27.320   3.151
27940W        W99556  14.797  25.640  10.717
27941W        W99557   2.339  15.830  12.864
27942W        W99558  23.501  26.958   1.023
27943W        W99559   8.169  41.335  11.400
27944W        W99560  10.171  34.513   2.961
27945W        W99561  42.767  43.191  14.288
27946W        W99562   8.414  11.802   0.450
27947W        W99563  39.747   6.848   0.200
27948W        W99564  34.863   9.705   4.344
27949W        W99565   9.663  29.983  12.165
27950W        W99566  18.800  15.369  14.920
27951W        W99567  27.644  22.828  12.146
27952W        W99568   5.229  27.744  12.567
27953W        W99569  21.211   7.969   0.924
27954W        W99570  42.031   8.416   3.678
27955W        W99571  44.657  39.609  12.958
27956W        W99572  41.087   1.483   4.267
27957W        W99573  20.598  17.760   2.115
27958W        W99574  38.398  16.594   0.899
27959W        W99575  10.236  10.589   0.944
27960W        W99576   2.748  41.927  14.881
27961W        W99577  17.549  30.948  13.154
27962W        W99578  36.368  41.213   0.072
27963W        W99579  21.481  35.179  11.758
27964W        W99580   8.125  44.247   1.922
27965W        W99581  21.202  35.228   1.864
27966W        W99582  37.442  37.019  14.820
27967W        W99583  20.400  13.559  11.073
27968W        W99584  39.290  17.578   4.502
27969W        W99585   5.757  17.605   4.605
27970W        W99586  10.237  14.134  11.462
27971W        W99587   3.905  25.052   3.145
27972W        W99588  31.161   8.882   0.708
27973W        W99589  42.928  26.954  11.886
27974W        W99590  15.387  31.061  10.983
27975W        W99591  34.141  39.936  14.813
27976W        W99592  30.306   5.282   3.164
27977W        W99593  10.195  22.630   3.624
27978W        W99594  32.875  22.067   4.221
27979W        W99595  42.982  44.508   4.120
27980W        W99596  17.057  29.137   3.629
27981W        W99597  15.604  27.524  12.107
27982W        W99598  25.673  37.292   2.679
27983W        W99599  31.672   2.268   0.775
27984W        W99600  24.764   4.934  13.288
27985W        W99601  11.718  20.649  14.377
27986W        W99602  32.100  23.661   3.861
27987W        W99603  41.901  28.163  14.516
27988W        W99604  34.449   1.460   0.764
27989W        W99605  23.516  22.755  13.490
27990W        W99606  33.117  29.436   0.434
27991W        W99607  38.282   3.866  13.358
27992W        W99608  13.685   2.685   4.469
27993W        W99609  31.638  10.725   3.632
27994W        W99610   4.756   5.405  14.419
27995W        W99611   7.589   4.102  11.845
27996W        W99612   1.410  13.937  10.665
27997W        W99613  41.913  33.020   1.203
27998W        W99614  37.525   1.729   2.288
27999W        W99615  27.185  27.540   3.376
28000W        W99616   2.996  11.778  10.969
28001W        W99617  30.130  33.538   2.626
28002W        W99618  10.125  19.656   3.259
28003W        W99619   5.247  30.569  11.951
28004W        W99620   1.690  33.969   2.736
28005W        W99621   0.804  13.606  14.420
28006W        W99622   1.612  23.848  10.696
28007W        W99623  30.670  44.284  12.106
28008W        W99624  13.027  15.013   1.404
28009W        W99625   4.877  27.931  14.953
28010W        W99626  30.216   1.026   2.276
28011W        W99627  26.952   8.045   1.785
28012W        W99628  42.708  20.194   4.983
28013W        W99629   4.037  23.505   3.275
28014W        W99630  15.808  21.689   3.243
28015W        W99631  22.509  41.488  14.329
28016W        W99632  23.385  18.424  10.358
28017W        W99633   2.471  27.013  11.165
28018W        W99634   5.468   2.843  14.027
28019W        W99635  38.367  13.289   0.355
28020W        W99636   9.864  10.362  13.176
28021W        W99637  12.747  14.562   1.294
28022W        W99638  29.203  41.749  13.904
28023W        W99639  24.007  25.225  10.794
28024W        W99640   3.775  24.171   4.645
28025W        W99641  10.692  20.350  11.712
28026W        W99642  11.154  39.994  12.117
28027W        W99643  25.696  41.045   1.631
28028W        W99644  42.301   9.304   3.383
28029W        W99645  20.432  31.165   3.148
28030W        W99646  41.795   3.008   4.807
28031W        W99647   7.356  39.020   1.377
28032W        W99648  21.569  17.277  12.407
28033W        W99649   4.315  31.427  10.771
28034W        W99650   5.943  38.625   2.394
28035W        W99651  34.486  14.615  14.754
28036W        W99652  26.055  34.511  14.565
28037W        W99653  43.224   9.262   1.757
28038W        W99654  41.989  35.971  14.797
28039W        W99655  40.341  30.094  10.564
28040W        W99656  39.044   3.756   0.843
28041W        W99657  27.126  34.031  11.066
28042W        W99658  31.914  15.333  13.016
28043W        W99659  22.487  19.191  13.595
28044W        W99660  32.267  43.755   2.349
28045W        W99661   2.152  11.435  11.996
28046W        W99662  29.388  42.243  13.949
28047W        W99663   2.205  27.229   2.253
28048W        W99664  40.013  32.399  14.059
28049W        W99665  22.928   0.079   0.042
28050W        W99666  41.721   4.914   0.774
28051W        W99667  21.280  22.295  13.396
28052W        W99668   2.527  21.080  11.787
28053W        W99669  44.769   3.288   0.799
28054W        W99670  20.136  28.406  13.994
28055W        W99671  35.944  11.068   0.153
28056W        W99672  23.842  19.658  14.384
28057W        W99673  17.197  27.735  11.582
28058W        W99674  13.172  22.024  13.930
28059W        W99675  20.162   9.863  11.669
28060W        W99676  20.299   7.094   1.444
28061W        W99677  25.980   6.178   4.248
28062W        W99678  17.266  35.648  10.334
28063W        W99679  14.869  13.934  11.898
28064W        W99680  30.117   4.320   0.797
28065W        W99681  30.661  10.336   4.154
28066W        W99682  13.400  23.235  10.451
28067W        W99683  37.844  24.072   0.014
28068W        W99684  20.127  18.753  13.479
28069W        W99685  12.978  41.135   0.778
28070W        W99686  19.717  17.981  11.018
28071W        W99687  19.041  15.360   0.893
28072W        W99688  21.728  35.861   1.063
28073W        W99689  40.388  32.382  14.709
28074W        W99690  21.957  35.916  13.767
28075W        W99691  34.183  12.197   4.618
28076W        W99692  16.793  32.578  12.397
28077W        W99693  19.750  12.669   3.303
28078W        W99694  32.099  24.585  14.838
28079W        W99695  22.991  19.318  14.352
28080W        W99696  13.087  26.762  13.018
28081W        W99697  37.852  44.478   0.498
28082W        W99698  33.565  28.241  10.783
28083W        W99699   1.131  27.386   9.983
28084W        W99700  35.562  14.103   3.134
28085W        W99701   9.754  37.262   4.810
28086W        W99702   6.302  21.172  11.225
28087W        W99703  24.230  20.952  12.985
28088W        W99704  27.511  28.360  13.734
28089W        W99705  33.973   2.983  14.467
28090W        W99706  20.545   0.464   1.372
28091W        W99707  10.316  28.156  12.331
28092W        W99708  42.489   8.629   3.607
28093W        W99709  37.598  10.429   2.393
28094W        W99710  32.221  40.616  11.069
28095W        W99711   5.085  24.189   1.684
28096W        W99712  18.094   0.242  11.451
28097W        W99713  42.772  19.482  13.418
28098W        W99714  16.254  38.250   4.790
28099W        W99715  23.729   9.235   3.768
28100W        W99716  33.506  42.273  13.127
28101W        W99717  33.059   0.310  11.285
28102W        W99718  25.651  16.279  10.919
28103W        W99719   5.370   7.503   2.143
28104W        W99720  38.656  12.693  12.211
28105W        W99721   4.129  30.931  12.503
28106W        W99722  22.579  11.291  13.015
28107W        W99723  42.797  38.973  10.566
28108W        W99724  17.078  27.423   4.836
28109W        W99725  12.026  22.337   3.149
28110W        W99726   9.146  21.815   4.128
28111W        W99727  16.571  10.387  11.600
28112W        W99728  13.738  34.811   0.332
28113W        W99729  44.468  27.072  14.237
28114W        W99730  33.711  37.230  11.104
28115W        W99731  41.710  37.821  12.815
28116W        W99732  29.632   4.159   1.886
28117W        W99733   9.208  34.147  12.402
28118W        W99734   4.771  20.649   4.646
28119W        W99735  29.775  21.146   0.990
28120W        W99736  15.600  11.961   0.040
28121W        W99737  27.207  34.144   3.227
28122W        W99738   5.877  38.885  12.450
28123W        W99739  43.772  30.825  14.992
28124W        W99740   3.397   3.079  11.627
28125W        W99741  31.389  31.968   2.619
28126W        W99742  10.182  24.258  14.424
28127W        W99743  20.325  33.053  12.037
28128W        W99744  38.392  29.828   2.029
28129W        W99745  24.733  28.116   0.264
28130W        W99746   9.782  31.987   1.822
28131W        W99747  38.666  16.671  13.096
28132W        W99748  33.149  34.392  13.740
28133W        W99749  16.561  25.125   2.807
28134W        W99750  11.191  28.359   3.364
28135W        W99751  30.168   6.460  12.981
28136W        W99752  38.480  42.366   1.793
28137W        W99753  21.692  44.338  13.394
28138W        W99754  29.909  17.228   3.976
28139W        W99755  15.026  28.378  13.467
28140W        W99756  13.248  32.304  10.763
28141W        W99757  23.442  27.567  11.881
28142W        W99758  35.101   1.857   1.156
28143W        W99759  37.572  11.691  12.975
28144W        W99760  22.201   2.005  11.645
28145W        W99761  17.009  15.606   3.251
28146W        W99762  41.251  22.079   2.285
28147W        W99763   1.464  43.986  13.734
28148W        W99764  41.792  18.113   2.763
28149W        W99765  42.277  26.285  12.715
28150W        W99766  22.258  32.488   1.947
28151W        W99767  13.612  18.662   2.154
28152W        W99768   9.414  43.493   0.771
28153W        W99769  41.140  39.053  13.832
28154W        W99770  15.182  17.544  13.770
28155W        W99771  25.587   5.232   4.604
28156W        W99772   6.201   7.909  14.982
28157W        W99773  35.559  15.791  14.298
28158W        W99774  14.401  11.390   5.022
28159W        W99775  14.944   0.375  11.535
28160W        W99776  40.249  36.343   2.845
28161W        W99777  43.848  22.602   3.448
28162W        W99778  15.016   4.288   0.328
28163W        W99779  37.197  43.490  11.604
28164W        W99780   9.198  25.456   3.601
28165W        W99781  27.477  24.088  11.092
28166W        W99782  10.808   5.844   0.749
28167W        W99783  44.882   8.575  14.999
28168W        W99784  16.276  12.188  14.941
28169W        W99785  14.631  28.671   2.289
28170W        W99786  43.337  34.877  11.918
28171W        W99787  35.563   5.244  14.014
28172W        W99788   4.983  29.987  12.000
28173W        W99789  22.234  42.778  14.412
28174W        W99790   1.424   2.454   1.439
28175W        W99791  36.376   0.824   4.706
28176W        W99792   1.319  18.492  13.029
28177W        W99793   7.639  39.609   1.941
28178W        W99794  17.685   5.683  14.318
28179W        W99795  15.565  11.151   4.919
28180W        W99796  39.588  23.071  14.839
28181W        W99797  40.555   7.829  14.769
28182W        W99798  29.193   0.482  12.044
28183W        W99799  35.802   8.890   2.718
28184W        W99800  23.733   2.605   1.958
28185W        W99801   1.768  44.824   0.808
28186W        W99802  36.506   2.260  14.789
28187W        W99803  16.344   1.931  13.945
28188W        W99804   7.008  18.750   2.009
28189W        W99805   6.641  25.057   0.370
28190W        W99806   6.443   5.380  12.094
28191W        W99807  25.321  43.602   3.369
28192W        W99808  42.328  41.395  11.141
28193W        W99809   3.980   1.345   4.105
28194W        W99810  31.837  37.619   4.109
28195W        W99811  38.303   4.986   3.269
28196W        W99812  43.114  19.985  10.964
28197W        W99813  34.928  16.346  12.574
28198W        W99814  32.992   7.748   4.570
28199W        W99815  30.562  26.923   2.802
28200W        W99816  39.779  12.342  11.084
28201W        W99817  38.957  21.300  14.667
28202W        W99818  16.628  28.921  12.792
28203W        W99819  34.016  17.082   4.667
28204W        W99820  10.325  38.999   2.917
28205W        W99821  36.524  21.954  12.035
28206W        W99822  43.797  22.987   0.418
28207W        W99823  44.133  39.779  12.915
28208W        W99824  29.140  18.638  10.882
28209W        W99825   8.115  14.762   0.293
28210W        W99826  13.193  28.522   2.188
28211W        W99827  18.832   2.784  11.596
28212W        W99828  27.288  36.144  11.575
28213W        W99829  23.449  38.968   2.731
28214W        W99830  35.986  14.513   0.707
28215W        W99831  32.485  26.777  14.823
28216W        W99832  22.651   5.703  13.488
28217W        W99833   5.397  36.323   4.661
28218W        W99834   6.385  38.743  12.432
28219W        W99835   5.701   3.412   2.280
28220W        W99836  22.006  41.443  11.914
28221W        W99837  42.352  36.600  12.927
28222W        W99838  15.506  14.709  13.910
28223W        W99839  23.075   3.915  11.612
28224W        W99840   8.405  10.806  11.054
28225W        W99841  39.565  10.860  13.002
28226W        W99842  21.307   0.724   3.883
28227W        W99843  16.614  31.539  13.475
28228W        W99844  24.791  39.964   3.996
28229W        W99845  43.790  24.066   1.732
28230W        W99846  41.996   4.043  12.042
28231W        W99847  24.266  31.522  13.473
28232W        W99848  43.401  16.595  10.407
28233W        W99849  35.660   8.981   1.879
28234W        W99850  17.317  18.247   0.739
28235W        W99851   5.165   3.875  12.059
28236W        W99852  30.617  42.294   0.860
28237W        W99853  25.648  41.619   2.726
28238W        W99854  25.241  17.585   2.394
28239W        W99855  22.207   0.542  12.989
28240W        W99856  30.193  37.063   1.514
28241W        W99857  12.208  39.368  11.722
28242W        W99858  20.052  40.405  12.862
28243W        W99859  39.329  23.267  11.122
28244W        W99860  13.198  14.930   0.812
28245W        W99861  24.448  17.376  10.597
28246W        W99862  44.452  17.906   4.619
28247W        W99863  25.541  34.527   1.626
28248W        W99864  35.510   3.010   1.513
28249W        W99865  34.405  32.697  14.442
28250W        W99866  27.588  34.734   4.798
28251W        W99867   1.298  31.408   1.292
28252W        W99868  20.023  35.803  12.047
28253W        W99869  25.510  17.185  10.657
28254W        W99870  30.662   3.951   4.094
28255W        W99871  21.969  36.354  11.505
28256W        W99872   1.770  41.085  13.476
28257W        W99873   3.477   4.949  12.847
28258W        W99874  24.924  34.908   0.538
28259W        W99875  33.504  19.903  13.976
28260W        W99876  10.127  38.526  14.476
28261W        W99877  42.895  27.442  14.408
28262W        W99878  26.092  23.238   2.695
28263W        W99879  10.318  15.260   1.049
28264W        W99880   8.806   7.767  12.946
28265W        W99881  26.876  27.126  11.053
28266W        W99882  10.948  29.025   2.561
28267W        W99883  26.212   7.406   4.809
28268W        W99884  12.349  38.526   3.294
28269W        W99885  13.793  39.041  13.835
28270W        W99886  12.145   6.992   4.525
28271W        W99887  10.405  41.841   4.210
28272W        W99888  32.869   1.550  12.023
28273W        W99889  31.071  26.960  10.471
28274W        W99890  29.110  29.399   3.749
28275W        W99891  43.048  40.785  10.971
28276W        W99892   9.592  17.737  11.170
28277W        W99893  40.355   9.727   4.581
28278W        W99894  11.453   3.768   3.716
28279W        W99895  43.005  16.551   1.719
28280W        W99896  31.120  33.598   3.751
28281W        W99897  14.657  15.724  10.227
28282W        W99898   1.730  31.034  13.077
28283W        W99899  37.811  21.289  13.400
28284W        W99900  34.933  28.532   2.422
28285W        W99901   5.095   9.127   3.342
28286W        W99902  10.835  12.586  13.893
28287W        W99903  33.581  20.626   3.368
28288W        W99904  13.720  16.043   5.363
28289W        W99905   5.529  40.406  11.585
28290W        W99906   2.764  25.389   2.153
28291W        W99907  18.710  13.164  11.130
28292W        W99908   5.546  15.129   3.152
28293W        W99909  35.810  44.686  13.375
28294W        W99910  41.507  19.468  12.815
28295W        W99911   1.294   9.949  10.458
28296W        W99912  43.432  10.141  12.035
28297W        W99913  24.400   9.333  14.835
28298W        W99914  19.635  38.558   2.107
28299W        W99915  34.515  34.337  13.593
28300W        W99916  44.694  22.557  12.114
28301W        W99917  42.713  13.235  13.977
28302W        W99918   4.124  24.738   5.508
28303W        W99919   2.669  27.140   2.030
28304W        W99920   6.435   3.385   0.737
28305W        W99921   4.497   0.189  11.516
28306W        W99922  24.781  41.719   4.159
28307W        W99923  30.563  24.959   0.866
28308W        W99924  36.328  29.586  12.986
28309W        W99925   3.784  19.692   3.885
28310W        W99926   6.343  10.934   2.892
28311W        W99927  40.621  28.359  14.655
28312W        W99928  28.211  16.156   4.589
28313W        W99929   6.371  38.959   3.590
28314W        W99930  18.006  20.321  12.221
28315W        W99931   9.396  38.094   0.007
28316W        W99932   9.117   1.992  10.476
28317W        W99933  42.603  27.339  13.584
28318W        W99934  12.332  25.159   2.265
28319W        W99935  20.232  35.451  11.119
28320W        W99936  18.739  40.444   3.206
28321W        W99937  31.524  13.857  11.576
28322W        W99938  22.675  36.636  14.827
28323W        W99939  25.657  35.056  13.954
28324W        W99940  21.340  20.107   0.195
28325W        W99941  32.551  41.256   3.129
28326W        W99942  36.175  31.582   2.198
28327W        W99943  31.169  19.755   4.514
28328W        W99944  42.371  43.253   0.840
28329W        W99945  22.826  21.950   1.384
28330W        W99946  39.527  44.029  10.686
28331W        W99947  29.254  41.657  12.103
28332W        W99948  17.286  40.618   1.914
28333W        W99949  23.767  25.873  12.522
28334W        W99950   4.338  16.702  10.678
28335W        W99951  39.828  11.353   4.253
28336W        W99952  33.331  27.172   1.795
28337W        W99953  42.324  20.873   4.133
28338W        W99954  27.192  22.689  12.411
28339W        W99955  34.653  16.733  11.378
28340W        W99956   2.659  43.042   2.765
28341W        W99957  26.607  19.574  10.868
28342W        W99958  25.228  19.401   4.777
28343W        W99959  36.296   4.430   2.617
28344W        W99960  36.154  29.973  14.595
28345W        W99961  25.415  40.513  12.386
28346W        W99962   2.790   5.586  10.752
28347W        W99963   8.529   6.906  12.400
28348W        W99964  32.703   5.307   4.429
28349W        W99965   1.356   8.282   0.819
28350W        W99966  25.208  40.814   2.699
28351W        W99967  15.680   2.716   1.472
28352W        W99968  18.362  36.968   1.787
28353W        W99969  30.095   1.741  12.092
28354W        W99970  42.017   5.296  12.180
28355W        W99971  15.072   1.030  11.114
28356W        W99972  12.574  27.682   3.752
28357W        W99973  10.074   8.888  13.580
28358W        W99974  21.152  30.332  10.611
28359W        W99975   1.704  16.723   2.006
28360W        W99976   8.209  18.215  10.449
28361W        W99977   4.355  22.500   9.828
28362W        W99978   6.308  44.874   1.248
28363W        W99979  43.900   2.932  12.240
28364W        W99980  12.762  13.664  11.696
28365W        W99981  11.704   3.463   3.370
28366W        W99982  20.273  32.545   1.952
28367W        W99983  14.190  23.318   0.943
28368W        W99984  10.036  14.397   4.698
28369W        W99985  10.689   5.475  10.702
28370W        W99986   8.672   6.935  13.411
28371W        W99987  12.699   7.006  11.724
28372W        W99988  33.782  33.664   0.976
28373W        W99989  17.708   0.255   0.899
28374W        W99990  28.052  37.290   0.953
28375W        W99991  18.853   8.642  13.368
28376W        W99992  35.430  40.018   2.692
28377W        W99993   5.181   6.711   3.771
28378W        W99994  28.472  30.516   3.801
28379W        W99995  17.853   4.089   0.808
28380W        W99996  32.489  16.489  12.001
28381W        W99997   0.035  24.673   4.508
28382W        W99998   2.780   1.393   0.516
28383W        W99999  41.711  41.941  11.719
28384W        W    0   8.892  28.021   2.933
28385W        W    1  18.866   0.570   4.010
28386W        W    2  25.063  30.751  12.929
28387W        W    3   6.275  31.690  10.563
28388W        W    4  44.328   9.892   3.637
28389W        W    5  15.571  18.053  11.075
28390W        W    6   6.111   7.899  10.572
28391W        W    7  15.804   0.402   0.860
28392W        W    8   2.536  10.941  11.115
28393W        W    9  35.866  27.556  12.924
28394W        W   10   1.413  31.877  11.074
28395W        W   11  37.050  10.933   0.449
28396W        W   12   1.503  36.316   0.072
28397W        W   13  17.171  34.109   1.340
28398W        W   14  31.594  19.429   3.267
28399W        W   15  20.802   1.468  13.453
28400W        W   16  14.670  44.739  11.164
28401W        W   17  39.792  19.090  14.954
28402W        W   18  14.172   3.210  11.850
28403W        W   19   7.297   0.928   4.922
28404W        W   20  28.134  28.553   3.185
28405W        W   21  21.550  16.601   3.625
28406W        W   22   5.499   5.519   0.932
28407W        W   23  24.289  38.894   4.437
28408W        W   24  28.621  15.788  10.314
28409W        W   25  37.876  37.834   0.824
28410W        W   26  35.124   6.347  14.357
28411W        W   27  19.758  19.796  14.101
28412W        W   28  33.820   9.768   0.470
28413W        W   29   3.264   1.829  10.978
28414W        W   30  34.339   4.364  12.680
28415W        W   31  34.541   7.356  12.460
28416W        W   32   3.871   9.389   2.817
28417W        W   33  36.263   0.234  14.807
28418W        W   34  18.825  44.059  11.963
28419W        W   35  39.177   7.946   2.527
28420W        W   36   1.946  17.170   2.128
28421W        W   37  14.695  28.160   4.036
28422W        W   38  23.124  19.507   2.385
28423W        W   39  44.251   2.836   1.279
28424W        W   40  35.526  34.003  10.791
28425W        W   41  37.877  17.169  10.194
28426W        W   42  41.937  26.593  14.542
28427W        W   43  26.627  44.575   1.398
28428W        W   44  41.301   1.321   3.302
28429W        W   45  24.100  24.112   3.132
28430W        W   46  27.153  30.455   4.842
28431W        W   47  30.079  20.971   2.373
28432W        W   48  17.858  21.592  11.779
28433W        W   49  42.281  32.402  10.691
28434W        W   50  19.661  30.575   0.844
28435W        W   51  41.337  33.886  13.172
28436W        W   52  21.685   1.440  10.723
28437W        W   53  18.120  41.620   1.309
28438W        W   54  40.785  37.701  14.044
28439W        W   55  21.036   0.998  10.567
28440W        W   56   7.617   0.952   0.337
28441W        W   57  24.352  14.103  10.145
28442W        W   58  30.202  43.442  12.170
28443W        W   59  36.888  20.796  13.951
28444W        W   60   6.356  31.011   2.461
28445W        W   61   1.132  12.082  14.503
28446W        W   62  21.598  28.988   3.257
28447W        W   63  15.673  13.312  14.273
28448W        W   64  36.477  25.222   1.056
28449W        W   65  28.056  34.812   0.967
28450W        W   66  18.287   3.650   4.041
28451W        W   67  18.188  22.038  14.316
28452W        W   68   1.574   1.499   5.073
28453W        W   69  41.791  43.471   2.460
28454W        W   70  30.791   4.798   4.971
28455W        W   71  16.147  42.275   4.969
28456W        W   72  14.676  24.091   3.873
28457W        W   73  21.090  41.033   3.737
28458W        W   74  16.627   4.936  11.945
28459W        W   75  41.333  18.288  12.521
28460W        W   76  18.695   3.510  13.515
28461W        W   77  37.415  38.405   2.630
28462W        W   78   6.350  44.706  12.947
28463W        W   79  19.085  24.666   2.685
28464W        W   80   1.972  25.136  10.344
28465W        W   81   9.228   3.951   4.497
28466W        W   82   9.884  26.679   1.123
28467W        W   83   7.903  40.328   4.160
28468W        W   84  12.258   9.114  10.781
28469W        W   85   2.718  10.225  11.973
28470W        W   86  19.704   3.816   0.355
28471W        W   87   4.791  12.178   2.928
28472W        W   88   4.727  41.309   1.481
28473W        W   89  28.120  40.780   4.652
28474W        W   90  10.908  11.594  11.087
28475W        W   91  15.757  21.050   0.502
28476W        W   92  14.179  13.556  14.325
28477W        W   93   7.614  19.322   3.620
28478W        W   94  34.574  40.245  13.846
28479W        W   95  30.033  19.704  14.985
28480W        W   96   2.325  19.983   0.308
28481W        W   97  32.578   8.905  13.088
28482W        W   98  10.750  26.978   0.483
28483W        W   99  21.546  40.998   2.293
28484W        W  100  29.496   5.709  14.048
28485W        W  101  21.986  40.554   3.657
28486W        W  102  24.698  16.313   0.557
28487W        W  103  42.909  11.931  14.287
28488W        W  104  40.952  28.443   0.343
28489W        W  105  20.393  16.830   3.621
28490W        W  106  29.150   2.006   3.764
28491W        W  107  22.767  37.515  13.729
28492W        W  108  17.181  28.366   4.090
28493W        W  109  16.996  13.155   4.110
28494W        W  110  42.293  44.407   0.411
28495W        W  111   7.492  42.702  12.056
28496W        W  112   1.380  40.445  10.701
28497W        W  113  39.115   8.452   5.186
28498W        W  114  27.571  38.586   0.719
28499W        W  115  20.979  33.882  11.610
28500W        W  116  24.604  27.504  13.602
28501W        W  117   1.947  43.758   2.780
28502W        W  118  34.604  15.242  13.090
28503W        W  119  31.665  17.166  13.073
28504W        W  120  33.395  12.851   0.726
28505W        W  121  41.054  34.185  11.657
28506W        W  122  19.327  35.980   2.241
28507W        W  123  34.051  25.459   0.271
28508W        W  124  41.727  34.415   1.707
28509W        W  125  43.843  26.951  13.420
28510W        W  126  36.384  39.489   2.765
28511W        W  127  17.636  17.438  10.497
28512W        W  128   9.511  14.874   0.110
28513W        W  129  40.861  34.073  11.191
28514W        W  130  29.734  12.137  13.462
28515W        W  131  34.933  21.674  14.836
28516W        W  132  15.056  16.662  12.376
28517W        W  133  29.122  44.793  10.757
28518W        W  134  12.684  42.928   1.742
28519W        W  135  28.687  26.941  10.617
28520W        W  136   6.272  29.716  11.378
28521W        W  137  36.453  34.584   1.706
28522W        W  138  42.072  20.587  14.091
28523W        W  139  12.055  28.663  14.895
28524W        W  140  31.779  20.630  12.509
28525W        W  141  33.990  12.373  13.196
28526W        W  142   7.126  26.895  13.862
28527W        W  143   6.291   3.993   2.692
28528W        W  144   1.269   2.990  12.095
28529W        W  145  42.708   2.331  11.109
28530W        W  146  36.374  36.644  13.519
28531W        W  147  11.634  30.142  10.972
28532W        W  148  44.921  18.361  10.749
28533W        W  149  33.087  38.797  14.487
28534W        W  150  13.892   8.390  14.339
28535W        W  151  14.468  35.029   0.059
28536W        W  152  31.079  19.699  12.154
28537W        W  153  38.560  17.451   4.020
28538W        W  154  11.671  29.090   4.046
28539W        W  155  29.316  11.090  11.208
28540W        W  156   6.938  18.299   0.764
28541W        W  157  40.960  40.844   3.632
28542W        W  158   5.208  29.596  10.449
28543W        W  159  35.101  39.339  12.850
28544W        W  160  38.514   3.011   1.778
28545W        W  161   2.987  44.532  11.211
28546W        W  162  38.399  35.477   0.869
28547W        W  163  29.045  10.836   3.281
28548W        W  164  12.658  24.758   2.229
28549W        W  165   8.433  44.934  14.953
28550W        W  166   5.293   5.425  11.562
28551W        W  167  13.658  32.487  12.285
28552W        W  168  10.125  25.233   0.915
28553W        W  169  43.220  32.078  13.935
28554W        W  170  39.258  28.119  12.570
28555W        W  171  16.913  34.999   0.498
28556W        W  172  13.642  32.921   2.173
28557W        W  173  27.032   8.608   0.385
28558W        W  174  41.884   4.262  14.225
28559W        W  175  10.895  11.617  12.923
28560W        W  176  42.887   7.651   2.224
28561W        W  177   7.816   8.191  12.819
28562W        W  178  41.426  32.315   2.024
28563W        W  179  44.463   5.130   3.715
28564W        W  180  14.486   0.845   1.744
28565W        W  181  32.408   9.491   1.700
28566W        W  182  17.111   1.147   1.613
28567W        W  183  13.222  18.255   4.673
28568W        W  184  14.721  21.844  12.858
28569W        W  185  23.404  10.695  11.678
28570W        W  186   7.719  34.880   1.475
28571W        W  187  14.189  28.672  11.267
28572W        W  188  34.064  36.980  10.437
28573W        W  189  33.945  30.073   1.072
28574W        W  190  32.606  22.096  12.538
28575W        W  191   0.207  25.958  10.982
28576W        W  192  40.933  17.122  12.904
28577W        W  193  34.748  36.094   0.446
28578W        W  194  18.610  43.063  10.367
28579W        W  195  39.942  22.249  12.522
28580W        W  196   7.060  33.991  13.351
28581W        W  197  33.497  24.181  13.493
28582W        W  198  43.693  30.198   3.068
28583W        W  199  33.544  20.485  12.961
28584W        W  200  26.175  29.434   1.265
28585W        W  201   4.044  32.169  11.601
28586W        W  202  24.178  39.407  13.465
28587W        W  203   6.660   3.274  14.324
28588W        W  204  11.155  27.110   4.686
28589W        W  205  24.024  20.099  13.652
28590W        W  206  28.071  19.199  12.543
28591W        W  207  19.772  19.660   4.783
28592W        W  208  36.715  21.978  12.944
28593W        W  209   5.893  41.964   3.700
28594W        W  210  12.335  28.704  12.388
28595W        W  211  14.122  19.338   2.458
28596W        W  212  11.192  20.111   2.697
28597W        W  213  16.526  15.289  13.676
28598W        W  214  38.156  24.652   1.043
28599W        W  215  23.169   3.907   4.283
28600W        W  216  38.427  41.953   2.966
28601W        W  217  28.399  36.330  13.285
28602W        W  218   8.916  17.716  10.505
28603W        W  219   3.240  36.610   4.089
28604W        W  220   7.701  13.155   2.413
28605W        W  221   8.499  24.053  13.773
28606W        W  222  12.610  13.022   1.430
28607W        W  223  24.769  41.635  12.575
28608W        W  224  37.299  31.676   4.476
28609W        W  225  42.488  10.189  10.792
28610W        W  226  23.578  25.998   1.479
28611W        W  227   2.286   6.862  14.358
28612W        W  228  22.673   8.101  12.187
28613W        W  229   0.753  10.853   1.924
28614W        W  230   0.243  36.380  14.786
28615W        W  231  27.435   2.069  14.026
28616W        W  232  20.302  11.410   1.404
28617W        W  233  41.351   0.454  14.542
28618W        W  234  23.992   5.404   0.695
28619W        W  235  40.666  35.460  11.201
28620W        W  236  37.429  12.229   4.117
28621W        W  237  43.723  15.907   1.451
28622W        W  238  23.693  40.401   0.336
28623W        W  239  33.923   0.396  13.513
28624W        W  240  30.445  11.328  11.445
28625W        W  241   9.417  29.186  12.528
28626W        W  242   7.721  28.364  14.382
28627W        W  243  40.577  31.848   1.356
28628W        W  244  42.441  30.708   2.189
28629W        W  245  15.381  13.889   3.761
28630W        W  246   5.584  36.415  14.427
28631W        W  247  18.171  31.405   2.295
28632W        W  248  24.960  43.591  10.997
28633W        W  249  41.090  42.371   3.757
28634W        W  250  11.907   8.172   1.341
28635W        W  251  20.491  17.604  14.435
28636W        W  252  15.950  38.260  14.835
28637W        W  253  22.564  22.149   0.940
28638W        W  254  16.048  44.048  12.556
28639W        W  255  42.866  20.556   1.288
28640W        W  256  34.078   7.357   0.673
28641W        W  257   5.594   3.396   3.722
28642W        W  258  28.290   5.874  10.470
28643W        W  259  31.930  32.373   2.633
28644W        W  260  43.524  36.820  14.007
28645W        W  261  34.607  43.276   1.366
28646W        W  262   5.852  31.173   1.229
28647W        W  263  32.055   9.685  13.613
28648W        W  264  15.180   9.142   1.410
28649W        W  265  42.509  14.672   0.217
28650W        W  266  41.291  32.677   2.552
28651W        W  267  34.373  27.081   3.780
28652W        W  268   1.262  23.473   5.120
28653W        W  269  31.342  19.114   0.275
28654W        W  270   9.329  36.354  13.433
28655W        W  271  33.531  10.195   1.758
28656W        W  272  33.183   0.512  12.809
28657W        W  273  26.553  40.991   4.694
28658W        W  274   3.204  31.254  11.147
28659W        W  275  17.200  21.039   0.186
28660W        W  276  17.088   2.950   3.759
28661W        W  277  19.251   4.130  13.998
28662W        W  278  42.994  22.731   1.756
28663W        W  279  17.414  22.274   3.561
28664W        W  280  38.370  12.331  14.531
28665W        W  281  21.091   5.804   2.424
28666W        W  282  43.782   1.239   2.210
28667W        W  283  32.157  32.888   3.683
28668W        W  284  36.649   8.481  11.536
28669W        W  285  27.955   9.636   2.360
28670W        W  286  15.566  44.675   1.382
28671W        W  287  44.065  13.573   0.253
28672W        W  288  17.480  39.904  11.242
28673W        W  289  12.194  18.743   1.829
28674W        W  290  24.993  38.079   3.684
28675W        W  291  25.676  40.604   2.602
28676W        W  292  27.596   3.954  13.471
28677W        W  293   3.855  23.201   1.300
28678W        W  294  22.792  23.594  11.416
28679W        W  295  32.581  38.799   2.779
28680W        W  296  43.685  17.731   0.808
28681W        W  297  33.607  34.168  13.540
28682W        W  298   1.742  30.900  12.145
28683W        W  299  37.409  31.957  10.757
28684W        W  300  29.432  43.589   4.205
28685W        W  301   9.688  15.815  10.669
28686W        W  302  40.152  42.267   2.356
28687W        W  303   5.412   8.001   2.228
28688W        W  304  15.749  40.970   0.474
28689W        W  305  39.024   0.495   2.131
28690W        W  306  21.103  42.481   4.535
28691W        W  307  38.461  41.731  12.097
28692W        W  308  24.954  19.802  13.389
28693W        W  309  15.648  13.282  14.805
28694W        W  310  41.461   3.492  13.167
28695W        W  311  19.512  10.106   0.808
28696W        W  312   7.738  14.513  14.977
28697W        W  313  37.444  41.593  13.596
28698W        W  314  35.089   3.303   5.114
28699W        W  315  39.097  35.518  13.482
28700W        W  316  40.278   1.349  14.309
28701W        W  317  17.487  10.180   2.236
28702W        W  318  17.674  21.324  14.504
28703W        W  319  25.667  40.008   0.503
28704W        W  320   6.146  26.359  12.727
28705W        W  321  29.875  21.445  10.697
28706W        W  322  41.612  19.824   0.719
28707W        W  323  30.370  44.443  11.232
28708W        W  324  26.162  12.620  11.638
28709W        W  325  27.592   5.367  11.192
28710W        W  326  39.023  28.101   0.490
28711W        W  327  37.872  14.568   3.690
28712W        W  328   2.793  10.294   2.858
28713W        W  329  14.758   6.842  12.740
28714W        W  330   9.401  23.070   4.141
28715W        W  331   8.209  19.643  14.764
28716W        W  332  13.149  10.122   2.271
28717W        W  333  22.154  37.425   1.041
28718W        W  334  24.646  28.564   4.298
28719W        W  335   4.531  18.570   1.906
28720W        W  336  18.854  14.611  14.441
28721W        W  337  32.562  25.616   4.822
28722W        W  338   0.985  38.468   3.194
28723W        W  339  15.042  39.028  11.614
28724W        W  340  43.109  22.987   2.192
28725W        W  341  14.703  28.539  12.118
28726W        W  342   5.665  23.147  12.843
28727W        W  343  24.707  31.539  14.449
28728W        W  344   2.153  13.596  13.465
28729W        W  345  25.255  18.798  11.850
28730W        W  346  16.098  30.416  14.116
28731W        W  347   3.803  40.069  12.841
28732W        W  348  14.018  38.023  13.509
28733W        W  349   9.345  26.903  14.279
28734W        W  350  25.665  16.043   2.926
28735W        W  351  37.787  20.273  14.756
28736W        W  352  43.429  22.614  13.356
28737W        W  353  20.692   0.976   1.361
28738W        W  354  25.209   6.171   2.279
28739W        W  355   6.232   0.832  12.348
28740W        W  356  41.055  22.985   2.779
28741W        W  357  25.133  27.042   4.600
28742W        W  358  32.801  12.345  10.658
28743W        W  359  22.096  13.298   1.228
28744W        W  360  42.848  43.469   4.046
28745W        W  361  12.239  15.556  12.490
28746W        W  362  44.836  26.591   0.303
28747W        W  363   8.295  24.591   3.329
28748W        W  364  44.234  32.924  13.131
28749W        W  365  13.183  32.895  13.974
28750W        W  366  32.374  30.083   1.842
28751W        W  367   3.173  16.702  14.438
28752W        W  368  29.122  28.627   3.369
28753W        W  369   3.529  10.400   2.266
28754W        W  370  34.313  41.042   2.148
28755W        W  371   5.887   1.360   4.777
28756W        W  372  22.043  33.541   3.699
28757W        W  373  22.822  39.043  12.547
28758W        W  374  11.660  28.383   1.316
28759W        W  375   3.603  39.020   4.223
28760W        W  376  33.516  33.456   0.236
28761W        W  377  26.097  10.129  14.692
28762W        W  378  36.817  14.831   0.315
28763W        W  379  24.953   1.411  10.872
28764W        W  380  34.099  38.790   1.944
28765W        W  381  26.736   2.806   1.209
28766W        W  382  29.830  21.957  12.937
28767W        W  383   8.142  13.255   2.150
28768W        W  384   9.879  31.528   1.219
28769W        W  385  15.521  19.247   1.486
28770W        W  386  11.676  21.773  10.940
28771W        W  387  21.218  42.242   2.294
28772W        W  388  35.886  33.373  11.727
28773W        W  389  21.909  39.877   4.259
28774W        W  390  38.495  39.423   4.593
28775W        W  391   4.717  15.952  11.219
28776W        W  392  15.755   8.244  14.969
28777W        W  393  36.845  22.755  13.171
28778W        W  394  32.747  40.788   3.274
28779W        W  395  16.212  18.842   2.168
28780W        W  396   6.247  27.623   3.179
28781W        W  397  39.544  29.570   3.650
28782W        W  398  19.816  14.875   1.326
28783W        W  399  22.112  24.208  13.621
28784W        W  400   7.419  14.676   3.162
28785W        W  401  42.315  33.038   4.561
28786W        W  402   6.358  23.094  11.339
28787W        W  403  38.304  32.377  13.673
28788W        W  404   9.429  38.485  13.000
28789W        W  405  11.280  35.540  11.566
28790W        W  406  44.552   9.787   0.043
28791W        W  407  44.096  35.072   4.061
28792W        W  408  25.092   8.190   0.213
28793W        W  409  34.617   5.003  13.802
28794W        W  410  24.929  44.804   0.438
28795W        W  411   8.862  33.646   4.014
28796W        W  412   7.003   6.569   1.950
28797W        W  413  25.734  15.757  14.558
28798W        W  414  37.566   9.651  14.448
28799W        W  415  21.222  23.261  14.888
28800W        W  416  43.549  16.692   1.694
28801W        W  417   6.824  39.277   0.273
28802W        W  418  13.350  16.691  10.173
28803W        W  419  42.558  25.529   2.630
28804W        W  420  38.260   5.855  13.586
28805W        W  421  29.882  11.014  12.920
28806W        W  422  32.201  22.483   3.383
28807W        W  423  31.614  27.474  11.427
28808W        W  424  35.883   2.277   2.269
28809W        W  425  37.042  38.933  11.938
28810W        W  426   8.663  27.170  11.996
28811W        W  427  37.517  13.156   4.593
28812W        W  428   4.934   7.624  14.882
28813W        W  429  33.146  17.706   1.833
28814W        W  430  12.083  22.317   2.357
28815W        W  431   9.222  14.539   0.812
28816W        W  432  41.482  28.247   1.929
28817W        W  433  32.945  17.881  11.467
28818W        W  434  28.565   6.840   1.875
28819W        W  435  13.684  11.631  12.427
28820W        W  436   3.966   3.409   4.870
28821W        W  437  28.414  13.297   4.169
28822W        W  438   0.695   4.273  14.296
28823W        W  439  36.083  30.027   1.256
28824W        W  440   3.582  21.017   2.253
28825W        W  441  35.122  15.819  11.091
28826W        W  442  37.388  38.347   2.106
28827W        W  443  13.802  17.165   5.269
28828W        W  444   9.233  11.839   1.775
28829W        W  445  15.675  28.460   1.696
28830W        W  446  14.112  18.804   2.303
28831W        W  447  27.542  17.763  13.828
28832W        W  448  42.910  36.579   1.827
28833W        W  449   0.545  31.458  10.748
28834W        W  450  26.152  20.561   3.571
28835W        W  451  37.078   7.395   2.844
28836W        W  452   3.257   7.656  14.261
28837W        W  453  35.932  43.119   2.114
28838W        W  454  14.442  38.915   1.877
28839W        W  455  11.259   2.546  12.402
28840W        W  456  27.100   7.151   0.180
28841W        W  457  20.005  23.811   0.475
28842W        W  458  44.787  18.094   4.236
28843W        W  459  35.202  16.325  14.934
28844W        W  460   3.952  10.282  12.474
28845W        W  461  19.750  22.193  12.345
28846W        W  462  41.326   7.949   4.141
28847W        W  463   2.368  43.823   4.161
28848W        W  464  24.063  29.124  13.841
28849W        W  465   1.616   2.235  14.230
28850W        W  466  35.739  16.112   1.668
28851W        W  467   6.576  20.428  11.404
28852W        W  468   1.252  26.741   1.413
28853W        W  469  34.405  34.871  13.535
28854W        W  470  19.250  38.834   1.917
28855W        W  471  37.006   4.219  11.216
28856W        W  472   1.071   2.295   5.053
28857W        W  473  23.927   8.319   3.316
28858W        W  474  11.226   2.239  11.903
28859W        W  475  31.779  31.324   5.425
28860W        W  476  33.486  18.713   2.089
28861W        W  477  35.573  34.666   3.837
28862W        W  478  11.194  20.682  10.615
28863W        W  479  44.010  42.284  13.417
28864W        W  480   8.378  16.700   4.428
28865W        W  481  13.664  35.437   1.032
28866W        W  482  23.165  39.410  10.883
28867W        W  483   5.855  43.917  11.889
28868W        W  484  43.253   1.675  13.142
28869W        W  485   4.729   5.690  10.744
28870W        W  486  41.002  35.818  13.429
28871W        W  487  10.012   7.686  14.840
28872W        W  488  13.808   1.551   2.875
28873W        W  489  42.304  22.222   2.804
28874W        W  490   2.821   4.637   0.189
28875W        W  491  35.433  21.332   0.356
28876W        W  492  24.793  36.045  11.832
28877W        W  493  44.824  19.836  10.776
28878W        W  494  13.432  21.751   0.756
28879W        W  495  15.234  30.965  12.882
28880W        W  496   2.920  14.717   4.380
28881W        W  497  40.817  26.729   2.332
28882W        W  498  21.534  16.654  13.060
28883W        W  499   8.658  34.903  13.415
28884W        W  500  14.769  33.556  14.357
28885W        W  501  36.526  33.413   2.912
28886W        W  502  20.111  15.975   0.142
28887W        W  503  16.806  32.170   4.270
28888W        W  504  30.031  20.816  13.555
28889W        W  505   3.313   7.431   1.420
28890W        W  506  37.801  18.360   1.260
28891W        W  507  41.267  41.209   4.513
28892W        W  508  11.082  43.990  13.468
28893W        W  509  43.059  23.948   2.427
28894W        W  510  41.665   5.758   2.396
28895W        W  511  10.714   2.407  11.974
28896W        W  512  38.630  33.377   1.503
28897W        W  513  19.741  41.056  11.602
28898W        W  514   7.145  32.258  14.047
28899W        W  515  23.636  31.528   4.195
28900W        W  516  17.170  30.952   0.778
28901W        W  517  11.044   2.832  11.096
28902W        W  518  29.077  19.069  14.645
28903W        W  519  17.521  22.574   1.491
28904W        W  520  37.313  21.802  10.794
28905W        W  521  37.773  41.516   4.358
28906W        W  522  29.599  23.890  10.151
28907W        W  523   5.234  13.313  14.606
28908W        W  524  43.437  42.085  12.069
28909W        W  525  10.749  36.876  11.500
28910W        W  526  37.534   0.278  13.203
28911W        W  527   8.150  30.530   4.165
28912W        W  528   9.586   1.512   2.176
28913W        W  529  24.176  43.305   4.710
28914W        W  530   4.960  21.680   4.551
28915W        W  531  17.751  35.869  14.464
28916W        W  532  36.306  24.756  11.135
28917W        W  533  13.841  39.509   1.463
28918W        W  534  36.253  26.360   4.155
28919W        W  535  18.982  32.772   2.160
28920W        W  536  21.995  12.522  12.078
28921W        W  537  25.542  40.983  11.477
28922W        W  538   0.436  13.300   3.861
28923W        W  539  41.976  30.568   0.840
28924W        W  540  24.467  29.659  11.092
28925W        W  541  40.793  41.782  14.713
28926W        W  542  31.056  16.280   3.312
28927W        W  543  25.216  31.481  11.300
28928W        W  544   8.454  31.986   3.757
28929W        W  545  39.349  10.705   0.913
28930W        W  546  41.114  16.189   4.492
28931W        W  547   2.444  39.836  14.976
28932W        W  548   8.505  30.037  14.824
28933W        W  549  22.834   9.118  12.897
28934W        W  550  15.259  13.117  10.688
28935W        W  551   8.965  38.375  13.909
28936W        W  552  32.064   7.557   1.148
28937W        W  553  32.058  10.829   0.841
28938W        W  554  14.308  44.513  10.198
28939W        W  555   3.693  11.276   3.137
28940W        W  556  24.070  16.853  13.851
28941W        W  557  33.533  30.966   2.136
28942W        W  558  34.652  41.421  14.016
28943W        W  559  23.942  33.449  10.669
28944W        W  560  22.511  37.260  11.716
28945W        W  561   7.937  37.060  13.827
28946W        W  562  11.709  26.124  12.946
28947W        W  563  15.630  29.944   3.275
28948W        W  564  23.716   1.441   2.889
28949W        W  565  39.368  15.301  12.042
28950W        W  566  24.244  39.798  11.946
28951W        W  567  10.060   4.360   4.738
28952W        W  568  12.548  32.758   4.111
28953W        W  569  16.044  43.894   2.263
28954W        W  570  20.972  33.892   4.166
28955W        W  571   6.953  42.265   4.589
28956W        W  572  33.294  20.461  14.798
28957W        W  573   0.882  27.272  12.372
28958W        W  574   3.641  33.488  12.236
28959W        W  575  29.231  10.846   4.185
28960W        W  576   3.338  34.043  14.467
28961W        W  577  27.365  10.008  12.977
28962W        W  578   4.877   6.772   1.915
28963W        W  579   7.881  25.686   0.366
28964W        W  580   2.765  40.791   3.376
28965W        W  581   7.360   7.239   5.001
28966W        W  582  24.448  31.979  14.567
28967W        W  583  18.392  40.166  12.886
28968W        W  584  12.297  16.231  14.197
28969W        W  585   2.347  26.803   4.663
28970W        W  586  43.338   6.869  11.671
28971W        W  587   5.586  38.904  12.888
28972W        W  588  17.262   8.219  14.773
28973W        W  589  40.479  15.170   3.645
28974W        W  590  22.030  19.280  12.037
28975W        W  591  15.230   1.980   4.052
28976W        W  592  27.472  19.935   2.110
28977W        W  593  41.347  26.783  13.394
28978W        W  594   8.957   6.111   1.825
28979W        W  595  14.967  19.739   1.472
28980W        W  596  42.456   3.042   0.237
28981W        W  597   1.644  22.747  10.235
28982W        W  598  11.852   1.660   2.839
28983W        W  599  18.645  21.653   2.734
28984W        W  600  11.312  27.510   2.808
28985W        W  601  15.292  14.302   2.815
28986W        W  602  27.202  25.903  13.242
28987W        W  603  31.417   5.306  12.109
28988W        W  604  40.922  29.249   1.247
28989W        W  605  16.768  24.415  10.641
28990W        W  606  20.540  35.806  13.073
28991W        W  607   2.526  17.199   3.245
28992W        W  608  25.216   5.433  14.398
28993W        W  609  22.200   9.872   3.400
28994W        W  610  40.863  16.560   2.724
28995W        W  611   5.149  41.197  11.362
28996W        W  612   4.472  36.539   4.176
28997W        W  613  30.774  38.845  14.485
28998W        W  614  26.162  41.243  12.904
28999W        W  615   1.891  26.483   4.031
29000W        W  616  40.446  34.400   0.924
29001W        W  617   7.285  24.281   2.343
29002W        W  618  43.058  27.129   1.664
29003W        W  619  38.390   6.012   5.038
29004W        W  620   0.453  19.282  13.302
29005W        W  621  43.782   5.917   4.425
29006W        W  622  19.156  26.042  13.926
29007W        W  623  42.965   6.660  13.542
29008W        W  624  37.261  20.259   3.591
29009W        W  625  32.034  28.394  10.666
29010W        W  626  13.842  35.012   1.391
29011W        W  627  19.161  21.038  12.417
29012W        W  628  15.651   1.938  14.483
29013W        W  629   3.486  39.602  10.546
29014W        W  630  35.145   1.718  12.787
29015W        W  631   4.159  11.622   0.721
29016W        W  632  43.307   4.890  10.244
29017W        W  633  21.105  12.908  10.654
29018W        W  634  14.838  38.704   3.537
29019W        W  635   4.192   1.199   9.570
29020W        W  636  40.987  31.715  12.562
29021W        W  637  17.702  25.437  10.638
29022W        W  638  14.622  18.677   2.361
29023W        W  639   2.946  31.169   4.092
29024W        W  640  44.209   3.032   0.287
29025W        W  641  20.256  14.589   1.330
29026W        W  642  17.026   9.444  11.573
29027W        W  643  30.372   2.951   0.823
29028W        W  644  40.045   0.361   4.038
29029W        W  645  19.706  23.986   2.281
29030W        W  646  19.434  39.814   1.792
29031W        W  647  34.434  37.954   4.189
29032W        W  648  32.983   0.657   4.166
29033W        W  649  34.471  17.303  11.413
29034W        W  650  29.055  43.495   0.316
29035W        W  651   2.268  16.759  10.765
29036W        W  652  29.524  28.877   1.676
29037W        W  653  10.808   1.144  13.795
29038W        W  654  29.158  24.278   2.186
29039W        W  655  32.021   1.678   0.971
29040W        W  656   6.204  11.773   0.916
29041W        W  657   2.946   9.671   0.722
29042W        W  658   8.196  21.654  11.709
29043W        W  659  22.179  25.657  11.063
29044W        W  660  31.963   6.845  14.152
29045W        W  661   1.572  32.854  11.180
29046W        W  662  37.899   9.625  11.637
29047W        W  663  14.260   0.951  10.773
29048W        W  664   8.832  33.208   0.345
29049W        W  665  36.635  15.120   4.158
29050W        W  666  32.987  44.015  13.925
29051W        W  667  14.070   7.176   1.407
29052W        W  668  25.214  41.335  12.572
29053W        W  669  33.158  18.370  14.389
29054W        W  670  11.028   4.887   2.271
29055W        W  671   1.180  43.330   2.642
29056W        W  672  17.213  37.040  14.074
29057W        W  673  23.540  26.738  13.808
29058W        W  674  33.571   5.451   0.781
29059W        W  675   4.724  34.992   4.113
29060W        W  676  11.182  38.012  11.572
29061W        W  677  11.835  21.545  12.969
29062W        W  678   1.083  36.203   0.346
29063W        W  679  26.774  20.652   0.409
29064W        W  680  27.132  28.640   2.291
29065W        W  681  44.323  14.265   2.669
29066W        W  682  16.994   6.068  10.688
29067W        W  683  28.653  38.429  10.637
29068W        W  684  14.604   3.738  13.270
29069W        W  685  40.972  28.546  13.114
29070W        W  686   1.183  29.136   2.825
29071W        W  687  31.688  15.911  10.848
29072W        W  688  34.499  33.876   2.905
29073W        W  689  33.077  16.379  11.463
29074W        W  690  11.890   6.224   2.366
29075W        W  691  17.006  40.992   3.681
29076W        W  692  19.139   4.938   2.410
29077W        W  693  12.778  22.752  10.614
29078W        W  694  35.909  16.033   1.204
29079W        W  695  30.762  23.061   2.687
29080W        W  696  35.679   9.292   2.339
29081W        W  697   4.431  16.381  11.132
29082W        W  698  43.071  33.953  10.650
29083W        W  699  37.924  27.003  10.113
29084W        W  700   4.356  22.949  11.865
29085W        W  701  17.268  32.378   4.095
29086W        W  702  32.630   5.681  11.590
29087W        W  703  13.596   8.196  13.939
29088W        W  704  16.804   2.542  11.354
29089W        W  705   4.200  15.567  11.435
29090W        W  706  41.052  15.762   2.350
29091W        W  707   9.901  44.520  11.199
29092W        W  708   1.583   3.568  12.319
29093W        W  709   7.163  41.886  13.926
29094W        W  710  38.539  21.648   1.415
29095W        W  711  17.453  30.585   1.746
29096W        W  712  24.027  19.237   1.367
29097W        W  713   2.803  43.119  12.833
29098W        W  714  42.779  42.956   1.966
29099W        W  715  13.337  29.904  13.742
29100W        W  716  27.900  35.370  10.751
29101W        W  717  39.219  12.299   2.685
29102W        W  718  36.940  19.185  10.682
29103W        W  719  34.377   3.828  13.113
29104W        W  720   6.715  29.948  13.894
29105W        W  721   3.977  21.580   1.797
29106W        W  722  38.383   5.764   2.406
29107W        W  723  35.341  25.098   3.734
29108W        W  724  39.033  21.490  12.913
29109W        W  725  28.936  40.278   0.681
29110W        W  726  11.710   0.108   4.185
29111W        W  727  35.524  40.098  13.022
29112W        W  728   2.449   9.654  11.196
29113W        W  729  13.080   2.726  11.984
29114W        W  730  21.336  30.552   2.457
29115W        W  731  14.627  37.323   0.354
29116W        W  732  41.875  18.304   3.262
29117W        W  733  41.388  36.371   1.784
29118W        W  734  22.645  44.986  10.961
29119W        W  735  27.197  39.429  13.550
29120W        W  736  37.138  43.942   3.158
29121W        W  737   3.726  10.362  11.541
29122W        W  738  34.332  27.075  11.513
29123W        W  739   3.635   2.392  14.363
29124W        W  740  38.294   5.333   2.720
29125W        W  741  25.220  40.496  14.358
29126W        W  742  30.010   4.376   3.534
29127W        W  743  15.298   2.887  13.007
29128W        W  744  20.318  11.193   2.664
29129W        W  745  31.003  29.119  11.625
29130W        W  746  31.155  43.060   3.835
29131W        W  747  11.813   6.492  11.813
29132W        W  748   9.363  33.916   3.265
29133W        W  749  34.935   6.815  11.269
29134W        W  750  20.894  10.394  10.849
29135W        W  751  40.607   3.285   1.373
29136W        W  752  30.590  23.238   1.885
29137W        W  753  17.058  13.429   3.669
29138W        W  754   7.848   9.609  13.489
29139W        W  755  16.146  27.874   3.749
29140W        W  756   1.365  16.965   1.320
29141W        W  757  19.606   8.691   2.819
29142W        W  758   2.963  16.616   2.626
29143W        W  759  15.643   4.409  11.120
29144W        W  760  34.487  38.853  10.739
29145W        W  761  21.974   8.811   2.210
29146W        W  762  44.539  20.643  12.524
29147W        W  763  37.000  18.424  11.408
29148W        W  764   9.405   1.278   0.871
29149W        W  765  42.472  30.158   2.285
29150W        W  766   3.484  10.708  11.227
29151W        W  767  11.739  35.391   1.271
29152W        W  768   3.442  39.625   0.924
29153W        W  769  30.620  18.286   0.673
29154W        W  770   6.679  27.062  14.063
29155W        W  771  29.650  44.737  10.795
29156W        W  772  34.281  10.302  13.863
29157W        W  773  12.503  40.992  12.540
29158W        W  774   7.112   0.776   2.918
29159W        W  775   0.201   7.403  10.505
29160W        W  776  41.235  19.352  14.737
29161W        W  777   2.504  38.986   0.503
29162W        W  778  21.566  30.761   0.695
29163W        W  779   7.008  36.901  12.119
29164W        W  780  43.992  18.659   2.587
29165W        W  781  33.908   5.820   0.876
29166W        W  782  28.739  20.161  11.929
29167W        W  783  41.152   3.166  12.867
29168W        W  784   4.514  23.746   9.720
29169W        W  785   6.886  38.992  14.809
29170W        W  786   3.745  13.769  12.251
29171W        W  787  14.652  29.152   0.466
29172W        W  788  21.228  37.392   0.537
29173W        W  789  24.548  43.469   1.754
29174W        W  790  30.070  30.965  11.788
29175W        W  791  21.981  39.519   4.636
29176W        W  792   4.136  13.026   0.864
29177W        W  793  10.344  15.798   3.223
29178W        W  794   5.902   1.835  12.090
29179W        W  795  29.485  44.117   9.985
29180W        W  796  34.395   7.888  13.161
29181W        W  797  23.240  29.970   3.918
29182W        W  798  22.297  32.209   3.784
29183W        W  799  39.612   4.818  13.885
29184W        W  800  31.521   5.333   1.408
29185W        W  801  33.035  29.915  10.143
29186W        W  802  38.060   7.702   3.715
29187W        W  803  36.059  41.576  12.399
29188W        W  804  14.735  37.348  13.935
29189W        W  805  17.174   5.171  11.127
29190W        W  806  12.577  14.013   2.399
29191W        W  807  25.492   2.827  12.637
29192W        W  808  13.288  42.759  14.708
29193W        W  809   4.890  24.625  12.135
29194W        W  810  13.954  14.480  12.123
29195W        W  811   5.775  27.497  14.405
29196W        W  812  35.916  18.179   2.250
29197W        W  813   3.221   0.844  12.429
29198W        W  814  12.595   7.888   0.747
29199W        W  815   9.933  36.117  12.512
29200W        W  816  41.226   3.386  11.156
29201W        W  817  26.451  33.998   0.897
29202W        W  818  34.519  10.645  12.336
29203W        W  819  41.212  27.075  12.592
29204W        W  820  24.935  12.251   2.127
29205W        W  821   8.768  13.246  11.667
29206W        W  822  35.651  44.989  12.488
29207W        W  823  33.613   5.280  14.443
29208W        W  824   3.450  36.117   2.610
29209W        W  825  35.701   8.874  12.077
29210W        W  826   2.770  21.310   2.205
29211W        W  827  26.559  20.371  11.484
29212W        W  828   8.365  26.071  13.069
29213W        W  829   3.127  13.249  13.470
29214W        W  830   6.615   8.261  14.330
29215W        W  831  30.775  30.089   0.895
29216W        W  832  27.022  39.859   1.898
29217W        W  833   0.470   1.762   3.276
29218W        W  834  42.502  11.370   3.715
29219W        W  835  36.009  16.815  11.701
29220W        W  836  38.589  39.232  10.357
29221W        W  837  18.726  13.462   4.712
29222W        W  838   0.584  35.178   5.656
29223W        W  839  28.177  43.973  12.579
29224W        W  840  21.601  32.528  13.355
29225W        W  841  32.807   5.664  14.266
29226W        W  842  32.141  10.005  10.732
29227W        W  843  17.021  26.533  12.534
29228W        W  844  30.927  37.931  11.491
29229W        W  845  24.477  36.705   1.211
29230W        W  846  23.169  31.394  14.922
29231W        W  847  31.312  35.546   3.620
29232W        W  848  11.181  44.580  11.952
29233W        W  849   5.816  38.815  13.390
29234W        W  850  26.672  11.617  14.405
29235W        W  851  44.697  17.744  13.904
29236W        W  852  27.165  30.926  12.683
29237W        W  853  19.320  15.231  14.055
29238W        W  854  40.024  17.615   0.756
29239W        W  855  24.704   9.924  11.529
29240W        W  856   1.815  14.869  11.663
29241W        W  857  17.529   7.612  14.929
29242W        W  858  16.876   2.407   3.276
29243W        W  859  13.899  10.271  13.430
29244W        W  860   1.948  11.390   0.879
29245W        W  861  32.677  32.933   1.219
29246W        W  862  20.231  28.108  14.906
29247W        W  863  44.697   5.827  14.810
29248W        W  864  39.412  17.621  12.433
29249W        W  865  35.808   3.217  10.945
29250W        W  866  26.985   1.875   0.266
29251W        W  867  34.094  12.379  11.142
29252W        W  868  30.161   3.503  14.770
29253W        W  869  38.000  33.867  11.978
29254W        W  870  25.128   1.961   2.514
29255W        W  871  16.106  30.055  13.426
29256W        W  872  18.566  30.883  12.563
29257W        W  873  10.628  16.214   0.280
29258W        W  874  10.892  16.181  12.380
29259W        W  875  16.282  33.650   3.027
29260W        W  876  13.833  24.072  11.358
29261W        W  877  17.862  14.121   2.614
29262W        W  878  41.837  38.096   3.694
29263W        W  879  19.106  14.054  13.831
29264W        W  880  38.100   5.795  11.652
29265W        W  881  31.156  27.408  11.703
29266W        W  882  25.990  40.424  13.504
29267W        W  883  21.645   8.472   4.589
29268W        W  884   4.876  14.507   3.229
29269W        W  885  24.684   3.437   4.568
29270W        W  886   0.437  17.194   3.399
29271W        W  887  42.833  25.248  10.981
29272W        W  888  44.965  16.823  12.239
29273W        W  889  30.529  13.755   3.128
29274W        W  890  39.027  28.122  13.123
29275W        W  891  23.739  40.058   0.763
29276W        W  892   5.798  34.538   2.046
29277W        W  893  25.080   9.851  13.408
29278W        W  894  18.036   9.760   1.686
29279W        W  895  42.009   4.242  14.949
29280W        W  896   9.402  16.896   1.297
29281W        W  897  35.416  13.350   4.084
29282W        W  898  43.396  38.349   2.378
29283W        W  899  19.339  22.721   2.403
29284W        W  900  33.557  15.068  11.603
29285W        W  901  26.728  43.769  12.082
29286W        W  902   0.356  27.903  12.220
29287W        W  903   8.315  38.061   2.199
29288W        W  904  36.170  10.099   2.873
29289W        W  905  28.678  12.637  12.467
29290W        W  906  14.526  38.954  11.663
29291W        W  907  37.782  27.668  13.122
29292W        W  908  35.613  23.485  10.534
29293W        W  909  14.104   5.190  10.615
29294W        W  910   5.922   2.983  11.272
29295W        W  911   3.345  42.506   0.816
29296W        W  912  34.316  14.789  13.038
29297W        W  913  12.824  27.517   4.698
29298W        W  914   5.694  24.671   2.898
29299W        W  915  28.636   9.848   1.857
29300W        W  916  27.482   7.002   0.503
29301W        W  917  37.740  33.411   1.839
29302W        W  918   2.407  39.126  14.362
29303W        W  919  35.389   7.937   0.907
29304W        W  920  26.633   7.738   4.742
29305W        W  921   3.471  14.031  14.848
29306W        W  922  19.814  43.777  12.942
29307W        W  923   9.203  21.098  12.153
29308W        W  924  25.906  30.966   1.324
29309W        W  925  34.192  11.641   2.766
29310W        W  926  23.612  43.912   1.065
29311W        W  927  25.932  13.573   3.882
29312W        W  928  43.045  15.629  11.987
29313W        W  929  33.005  41.583   0.368
29314W        W  930  14.165  20.225  13.318
29315W        W  931   9.422   7.894  10.731
29316W        W  932  34.940   9.825   2.867
29317W        W  933  34.832  27.484   4.512
29318W        W  934  44.015  11.392   0.834
29319W        W  935  44.471  37.505  11.965
29320W        W  936   1.008  25.811   0.950
29321W        W  937  42.074   9.765   1.223
29322W        W  938  41.136  19.176  12.628
29323W        W  939   4.678  10.655  14.866
29324W        W  940  28.141   4.857  10.127
29325W        W  941   5.351  35.621   4.119
29326W        W  942  33.913  38.002  14.447
29327W        W  943  12.819   9.037  12.867
29328W        W  944  18.668  21.790  10.690
29329W        W  945  36.984   9.786   1.202
29330W        W  946  15.519  44.895  10.867
29331W        W  947  28.883  12.156  12.547
29332W        W  948  19.890  42.780   3.659
29333W        W  949  18.736   9.698  11.515
29334W        W  950  36.953  32.143  10.031
29335W        W  951   6.873   3.566   4.175
29336W        W  952  27.725  32.780   1.163
29337W        W  953  16.479  27.615   4.225
29338W        W  954  24.425  43.964  14.516
29339W        W  955   6.292   4.387   0.864
29340W        W  956  42.073  21.615  12.424
29341W        W  957  21.533  42.762   3.740
29342W        W  958   0.009  35.562   3.724
29343W        W  959  37.039  10.781  11.838
29344W        W  960  19.331  19.646  13.691
29345W        W  961  27.116   8.316  13.654
29346W        W  962   5.729   8.209  13.813
29347W        W  963  41.035  43.580   3.450
29348W        W  964  13.698  41.893   4.619
29349W        W  965  15.339  22.169   4.559
29350W        W  966   2.992   2.341   0.890
29351W        W  967  17.427   6.138  14.022
29352W        W  968  39.977  21.435  14.913
29353W        W  969   1.742  15.350  14.461
29354W        W  970  28.087  24.250   3.602
29355W        W  971  25.105   7.255   4.151
29356W        W  972  42.807  15.862  12.845
29357W        W  973  20.331  21.651  12.874
29358W        W  974   1.392  40.899   2.746
29359W        W  975  36.329  19.739  10.734
29360W        W  976  11.827  39.994   2.254
29361W        W  977  31.574   8.808   2.133
29362W        W  978  32.129   2.844   3.323
29363W        W  979  30.324   6.273   1.793
29364W        W  980  21.482  20.703   3.654
29365W        W  981  14.379  13.263  11.161
29366W        W  982   9.143  17.632  12.956
29367W        W  983   1.308  12.358   1.365
29368W        W  984   2.032  14.209  14.914
29369W        W  985  43.352  39.886  14.298
29370W        W  986   9.154   2.671  11.770
29371W        W  987  23.484  18.185   0.954
29372W        W  988  13.315  12.633   4.423
29373W        W  989  14.315  40.329   4.669
29374W        W  990  19.274  26.429   4.038
29375W        W  991  14.794  44.419  14.457
29376W        W  992  15.268  13.272   1.006
29377W        W  993  10.008  23.907   1.396
29378W        W  994   1.876   7.214   2.285
29379W        W  995  33.637  36.875  10.738
29380W        W  996  28.527  29.722   4.600
29381W        W  997  13.381  17.989   5.072
29382W        W  998   1.465  29.161  13.921
29383W        W  999  44.141  25.347  10.369
29384W        W 1000  18.457   8.380  11.911
29385W        W 1001  42.457  38.259   2.469
29386W        W 1002  21.704  33.488  14.407
29387W        W 1003  36.593  34.688  14.265
29388W        W 1004  41.284  19.042  11.991
29389W        W 1005  27.662  25.995  14.207
29390W        W 1006  41.054   4.325   0.383
29391W        W 1007  20.593  34.187  11.576
29392W        W 1008  14.348  33.039   0.239
29393W        W 1009  29.994  22.590   0.350
29394W        W 1010  43.548  40.530   1.719
29395W        W 1011  13.172  23.650  12.942
29396W        W 1012   4.292  18.862  11.028
29397W        W 1013  36.912  23.017   1.164
29398W        W 1014  41.785  38.877   0.983
29399W        W 1015  29.521  33.536   1.820
29400W        W 1016   2.980   9.653  11.997
29401W        W 1017  44.465  38.650   2.336
29402W        W 1018   8.745   2.408  11.213
29403W        W 1019   6.722  23.117   0.493
29404W        W 1020   0.847  26.200  12.426
29405W        W 1021  34.897   0.779   4.529
29406W        W 1022   1.925  35.386  14.271
29407W        W 1023  14.860  27.382  13.148
29408W        W 1024  26.405  11.214  13.847
29409W        W 1025  14.545  14.206   1.134
29410W        W 1026  32.834  33.194   1.638
29411W        W 1027  30.930  27.425  11.223
29412W        W 1028  39.084  23.135   3.838
29413W        W 1029  33.817  44.780   0.869
29414W        W 1030  11.160  28.266  13.438
29415W        W 1031  36.678  34.494   1.249
29416W        W 1032  28.569  26.608  11.195
29417W        W 1033  31.110  44.980   4.036
29418W        W 1034  32.403   9.225  14.459
29419W        W 1035  22.990  34.862   1.997
29420W        W 1036  35.948   6.251  12.903
29421W        W 1037   4.118  27.197  14.107
29422W        W 1038  27.435   6.361  11.951
29423W        W 1039  34.323  30.111   1.803
29424W        W 1040  35.930  27.210   0.304
29425W        W 1041  43.183  42.250  13.117
29426W        W 1042  30.326  21.896  12.444
29427W        W 1043  22.435  11.443   0.887
29428W        W 1044  16.087  40.613   3.541
29429W        W 1045   7.001  40.100   3.407
29430W        W 1046  17.153  43.096   3.942
29431W        W 1047  25.826  34.484  12.600
29432W        W 1048   5.915   9.555   2.922
29433W        W 1049  38.377  28.757   1.346
29434W        W 1050  21.323  30.074  13.537
29435W        W 1051  13.699  18.790  13.593
29436W        W 1052   5.238  18.661   4.344
29437W        W 1053  22.207  29.478  13.744
29438W        W 1054  21.481  38.609   1.843
29439W        W 1055  36.828  44.478  11.479
29440W        W 1056  25.469  19.232  14.426
29441W        W 1057  37.947  25.190  12.392
29442W        W 1058  32.114   6.227   3.601
29443W        W 1059  26.031  11.326  12.111
29444W        W 1060   1.421  34.590   2.463
29445W        W 1061  44.016  30.153  11.805
29446W        W 1062   3.656  13.123  14.336
29447W        W 1063   1.215  34.184   4.392
29448W        W 1064  24.578  10.253   1.002
29449W        W 1065  35.007  11.623   3.983
29450W        W 1066   2.509  25.818  10.266
29451W        W 1067  42.743   9.436   1.683
29452W        W 1068  41.266  18.072   4.633
29453W        W 1069  20.949   7.316   2.692
29454W        W 1070  11.597  27.874  11.498
29455W        W 1071  44.372  29.862   4.794
29456W        W 1072   9.586  18.099  13.912
29457W        W 1073  15.528  26.752   2.769
29458W        W 1074  38.351  12.005   4.181
29459W        W 1075  36.096  37.352   2.608
29460W        W 1076  31.961   6.052   0.741
29461W        W 1077  41.574   2.893  14.407
29462W        W 1078  35.020  32.918   0.301
29463W        W 1079  43.744  36.883  13.406
29464W        W 1080  38.083   2.986   2.143
29465W        W 1081   9.094   2.958  12.209
29466W        W 1082   3.480  26.159   1.006
29467W        W 1083   3.859  25.664  12.169
29468W        W 1084   5.928  35.011   1.010
29469W        W 1085  20.211  39.325   1.510
29470W        W 1086   6.654  17.705  11.579
29471W        W 1087   4.294  35.957   0.527
29472W        W 1088  35.426  43.420  10.876
29473W        W 1089  40.396  13.576   1.793
29474W        W 1090  39.548  11.816   3.702
29475W        W 1091  10.285   2.878   0.376
29476W        W 1092  19.528  26.038  10.634
29477W        W 1093  35.638  20.115  11.449
29478W        W 1094  29.381  43.244  12.418
29479W        W 1095   2.290  37.829  11.228
29480W        W 1096  26.968  22.615  13.402
29481W        W 1097   8.754  31.110  12.380
29482W        W 1098  27.585  35.598   4.284
29483W        W 1099  31.986  18.272  10.317
29484W        W 1100   5.425  33.824   1.525
29485W        W 1101  25.590   5.261   1.932
29486W        W 1102  24.749  17.682  12.400
29487W        W 1103   8.720  10.698  13.024
29488W        W 1104   4.959   8.742   0.503
29489W        W 1105  25.003   1.014  10.498
29490W        W 1106  25.974  18.235   0.234
29491W        W 1107  10.791  36.337  14.356
29492W        W 1108  28.456  43.894  12.120
29493W        W 1109  27.883  43.746   2.702
29494W        W 1110   4.727  39.780  10.405
29495W        W 1111  25.742  33.370  13.241
29496W        W 1112  23.484  12.322  13.443
29497W        W 1113   2.574   9.824  14.143
29498W        W 1114   6.275   2.202   3.326
29499W        W 1115  24.526   9.606  11.171
29500W        W 1116  41.512  38.064  10.841
29501W        W 1117  20.129   5.790   4.833
29502W        W 1118  31.444  38.985   4.699
29503W        W 1119  25.169   0.724   3.247
29504W        W 1120  25.472   6.330   3.245
29505W        W 1121   4.307   1.440   0.997
29506W        W 1122  16.562  24.424   4.053
29507W        W 1123   1.899  12.252   0.551
29508W        W 1124  41.942  36.449  11.520
29509W        W 1125  23.628   5.756   1.824
29510W        W 1126  17.718   3.564   0.895
29511W        W 1127  43.941  44.320   0.582
29512W        W 1128  29.905  36.297   5.053
29513W        W 1129  13.708  42.249   0.290
29514W        W 1130  30.578  39.258   3.643
29515W        W 1131   1.733   3.791   4.561
29516W        W 1132  19.650   2.298  11.624
29517W        W 1133   6.241  20.568   2.720
29518W        W 1134  13.111  43.815   3.680
29519W        W 1135  10.739  35.019  14.005
29520W        W 1136  32.141   5.983   3.155
29521W        W 1137  19.267  13.231   0.278
29522W        W 1138  18.057  36.869   3.000
29523W        W 1139  41.463  29.687   0.437
29524W        W 1140  44.321  31.521  12.987
29525W        W 1141  36.908  43.737   1.756
29526W        W 1142  32.449  15.016  10.950
29527W        W 1143   3.516  19.181   3.884
29528W        W 1144  38.495  15.664   1.412
29529W        W 1145  23.666  14.088   1.537
29530W        W 1146  12.362  43.347  12.083
29531W        W 1147  20.695  39.310   4.236
29532W        W 1148  36.932   1.687  10.723
29533W        W 1149  16.509  25.683  11.091
29534W        W 1150  18.289  26.872   2.266
29535W        W 1151   7.147  34.643   4.121
29536W        W 1152  24.724  21.690   0.292
29537W        W 1153   8.793  33.733   0.394
29538W        W 1154   1.193  15.371   2.043
29539W        W 1155  39.060  18.254   2.913
29540W        W 1156  16.340  38.560  14.987
29541W        W 1157   4.969  26.439  13.558
29542W        W 1158  21.053  23.464  11.429
29543W        W 1159   8.451   8.950  12.738
29544W        W 1160   4.784  38.849  14.447
29545W        W 1161  16.971  27.525   4.340
29546W        W 1162  44.438  29.585  13.316
29547W        W 1163   7.827  41.273  12.177
29548W        W 1164  25.770   6.872  14.762
29549W        W 1165  29.063   7.137  10.710
29550W        W 1166  21.487  41.156   1.371
29551W        W 1167  13.384   1.510   0.305
29552W        W 1168  13.906  19.513  11.244
29553W        W 1169  41.231  43.421  12.847
29554W        W 1170  16.181  34.598   1.394
29555W        W 1171  15.509  34.542   0.794
29556W        W 1172  33.117   2.442  11.295
29557W        W 1173  34.849  14.371   1.320
29558W        W 1174   7.599  18.956  11.952
29559W        W 1175   3.833  36.425   1.220
29560W        W 1176  43.992  32.444  14.988
29561W        W 1177  15.617   9.956   1.690
29562W        W 1178  29.104  29.356  14.930
29563W        W 1179  20.116  33.098  14.253
29564W        W 1180  21.747  14.086  12.824
29565W        W 1181   9.661  30.691  10.582
29566W        W 1182  38.414  40.229   2.225
29567W        W 1183  22.615  40.043  14.768
29568W        W 1184  13.409  24.064  11.063
29569W        W 1185  19.015  32.906  10.787
29570W        W 1186  37.559  12.688  10.100
29571W        W 1187  22.183   5.113   4.516
29572W        W 1188  23.734  20.025  12.035
29573W        W 1189  27.421  36.916   2.858
29574W        W 1190   0.504   8.992  12.951
29575W        W 1191  39.403   5.361   3.067
29576W        W 1192  19.623  18.262  12.885
29577W        W 1193   1.889  42.807  13.989
29578W        W 1194  37.838  16.535  11.496
29579W        W 1195  11.313  32.686  12.090
29580W        W 1196  25.257   4.304   4.624
29581W        W 1197  38.051  24.010  12.139
29582W        W 1198  19.943  16.489   2.093
29583W        W 1199  20.628  11.738  14.028
29584W        W 1200  26.454   1.747  12.526
29585W        W 1201  21.727  41.370  12.346
29586W        W 1202  41.009  21.492  13.815
29587W        W 1203  34.052  41.810  14.909
29588W        W 1204   2.199  23.978   3.267
29589W        W 1205  17.825  43.492   2.291
29590W        W 1206  15.173  16.119   5.408
29591W        W 1207   3.895  13.286  11.717
29592W        W 1208   4.352  10.561   0.740
29593W        W 1209  25.731  17.995  10.691
29594W        W 1210  22.694  37.960  11.660
29595W        W 1211   9.127  22.549  13.498
29596W        W 1212  39.105  34.363   1.241
29597W        W 1213   9.816  37.769   4.895
29598W        W 1214  26.156   4.915  14.343
29599W        W 1215   2.757  29.956  11.242
29600W        W 1216  19.124   8.038   2.732
29601W        W 1217   7.388  18.654  12.764
29602W        W 1218   3.137  27.079  13.977
29603W        W 1219  33.415  30.976   0.787
29604W        W 1220  26.143  30.787   4.129
29605W        W 1221  16.524  36.103  12.926
29606W        W 1222   1.071  23.020   2.856
29607W        W 1223   2.940  33.429  11.269
29608W        W 1224  14.289  16.142   0.450
29609W        W 1225  44.095   0.829  12.382
29610W        W 1226  20.231  32.467  11.520
29611W        W 1227   9.215  29.633   1.249
29612W        W 1228   2.636  18.501   1.265
29613W        W 1229  42.006  17.313   3.174
29614W        W 1230  11.255  17.548  11.697
29615W        W 1231  20.191  24.962   1.314
29616W        W 1232  24.760   6.334  11.622
29617W        W 1233  10.907   8.664   3.710
29618W        W 1234   4.147  44.855  10.663
29619W        W 1235  40.612  19.185   2.692
29620W        W 1236  44.869  22.083  12.004
29621W        W 1237  17.196  29.655  11.651
29622W        W 1238   6.190  41.437   1.570
29623W        W 1239   1.670  23.490   4.774
29624W        W 1240  25.886   7.701  14.402
29625W        W 1241   2.986  26.209  14.772
29626W        W 1242   8.286  42.378   1.393
29627W        W 1243  11.862  18.650  13.196
29628W        W 1244  38.299  21.227   4.182
29629W        W 1245  40.440  37.546  14.404
29630W        W 1246  29.516  26.596   1.372
29631W        W 1247  12.575  38.568   0.482
29632W        W 1248  24.153  29.897  12.418
29633W        W 1249  22.290   0.412  14.428
29634W        W 1250  33.236  36.273  14.377
29635W        W 1251  36.008  42.747  10.603
29636W        W 1252  39.042  41.495  11.838
29637W        W 1253  34.045   0.192  11.168
29638W        W 1254  42.413   2.247   3.255
29639W        W 1255   0.745  39.735  10.873
29640W        W 1256   9.650  31.032  11.924
29641W        W 1257  31.093   5.560  10.057
29642W        W 1258  41.421   1.983  13.431
29643W        W 1259  10.725  31.457   2.680
29644W        W 1260  39.087  33.600   2.348
29645W        W 1261  29.052  39.034   1.285
29646W        W 1262  29.445  33.736  11.249
29647W        W 1263  27.729  42.966   4.437
29648W        W 1264  27.392   5.417  13.962
29649W        W 1265   7.153  30.469   4.063
29650W        W 1266  27.194   9.671   4.540
29651W        W 1267  25.874   0.780   0.635
29652W        W 1268  30.850  37.415   1.347
29653W        W 1269  17.927  39.652  12.160
29654W        W 1270  10.512   2.487   3.203
29655W        W 1271  10.873  16.600  10.754
29656W        W 1272  32.631  25.503   4.069
29657W        W 1273  10.810  14.954  14.883
29658W        W 1274  10.497  35.415   2.723
29659W        W 1275  22.476  16.240  14.941
29660W        W 1276  11.123   3.717  13.498
29661W        W 1277  15.292   0.568  11.187
29662W        W 1278  11.028  13.106   2.728
29663W        W 1279   1.671  13.801  13.484
29664W        W 1280   1.365  34.418   0.473
29665W        W 1281   1.806  33.697   4.796
29666W        W 1282  36.579  19.989   2.489
29667W        W 1283  14.611  33.989   2.583
29668W        W 1284  38.914   8.503   0.867
29669W        W 1285  15.661  26.485  14.893
29670W        W 1286  11.888  28.519  12.022
29671W        W 1287  39.013  12.863  11.012
29672W        W 1288  44.564   9.765   0.951
29673W        W 1289  44.399   8.220   1.241
29674W        W 1290  19.705  37.547   4.190
29675W        W 1291  44.869  39.038   2.846
29676W        W 1292  35.346   9.556  14.466
29677W        W 1293  19.037   9.239  11.651
29678W        W 1294   6.705  10.315   4.969
29679W        W 1295  32.568  41.320  12.930
29680W        W 1296  24.434  28.649  12.397
29681W        W 1297  20.212  34.083   1.401
29682W        W 1298  27.208  13.912  13.779
29683W        W 1299  25.239   5.851   3.139
29684W        W 1300   9.183  41.079  13.349
29685W        W 1301   7.369  11.504   2.495
29686W        W 1302   3.974   1.786   1.732
29687W        W 1303  37.926  25.111  11.893
29688W        W 1304   4.787  25.136   1.799
29689W        W 1305   8.639  32.489  12.938
29690W        W 1306  23.747  30.571   0.032
29691W        W 1307   1.239  21.415   5.269
29692W        W 1308  34.974  18.014  11.150
29693W        W 1309  31.686  24.772  11.988
29694W        W 1310  16.801  15.347   3.658
29695W        W 1311   6.452   4.810   0.041
29696W        W 1312  41.749  18.608   1.043
29697W        W 1313  14.122  34.572   4.561
29698W        W 1314  23.177  44.286   0.259
29699W        W 1315  41.599   5.316   4.825
29700W        W 1316  22.043  37.422   4.639
29701W        W 1317  41.390   7.269  10.880
29702W        W 1318  36.793  35.427   1.283
29703W        W 1319  28.175  42.748   3.307
29704W        W 1320  36.463  40.925  12.613
29705W        W 1321  19.203  29.142   3.884
29706W        W 1322  21.676   5.538  13.625
29707W        W 1323  15.165  21.663  11.180
29708W        W 1324  35.617  21.909  10.730
29709W        W 1325   8.940  21.941   0.030
29710W        W 1326  23.197  28.334  12.481
29711W        W 1327  19.070  21.188   0.388
29712W        W 1328  29.554  29.947   2.852
29713W        W 1329  26.187  43.361   3.189
29714W        W 1330  39.140  42.186  11.129
29715W        W 1331   0.838  16.174  12.619
29716W        W 1332  40.349  13.615  13.031
29717W        W 1333  40.022  44.656  11.925
29718W        W 1334  13.137  41.827  11.550
29719W        W 1335  39.868  37.696   4.681
29720W        W 1336  15.574   6.245   0.370
29721W        W 1337  30.110  37.428   3.727
29722W        W 1338  11.244  18.144  10.661
29723W        W 1339  24.883  21.186  10.684
29724W        W 1340  28.500  43.687   3.255
29725W        W 1341  10.005  39.032  13.998
29726W        W 1342  13.609  43.478   2.865
29727W        W 1343  33.415   5.435   3.691
29728W        W 1344  20.880  10.837  12.139
29729W        W 1345  35.033   7.059  14.879
29730W        W 1346  35.543  18.168   4.774
29731W        W 1347  35.207  30.441   0.250
29732W        W 1348  20.342  17.517  12.297
29733W        W 1349   1.774  40.833   2.421
29734W        W 1350  15.217   3.383   2.357
29735W        W 1351  14.243  34.299   1.052
29736W        W 1352  42.499  17.901  11.828
29737W        W 1353  36.506  41.989  11.491
29738W        W 1354   3.768  15.718  14.295
29739W        W 1355  25.944  34.290   3.615
29740W        W 1356  19.870  37.412   1.945
29741W        W 1357  44.010  40.550   1.434
29742W        W 1358   5.758  38.017  12.710
29743W        W 1359  31.995  32.440  14.720
29744W        W 1360   3.168  23.437  10.248
29745W        W 1361  16.640  37.171  11.038
29746W        W 1362   4.345  20.405   4.809
29747W        W 1363  21.778  15.080   0.859
29748W        W 1364  37.970  44.791  14.919
29749W        W 1365  24.931  32.032   0.707
29750W        W 1366  20.019   1.025  13.392
29751W        W 1367   9.889  18.067  12.871
29752W        W 1368  26.631   7.896   0.999
29753W        W 1369  22.096  39.088  13.059
29754W        W 1370  18.230  18.384  13.879
29755W        W 1371  20.820  10.338  14.870
29756W        W 1372   6.233  29.716   4.645
29757W        W 1373  37.024  15.151   1.278
29758W        W 1374  15.378  34.960   2.302
29759W        W 1375  29.140  32.531  10.812
29760W        W 1376  10.466  38.785  13.913
29761W        W 1377  20.111  24.873  11.654
29762W        W 1378   0.229  16.802  13.592
29763W        W 1379  21.178  38.391  14.582
29764W        W 1380   8.162  36.831   3.643
29765W        W 1381  43.005  29.116   3.325
29766W        W 1382  13.553  41.959   1.664
29767W        W 1383  25.998   1.338  13.405
29768W        W 1384   7.848  21.560  10.844
29769W        W 1385  16.899  18.091   1.608
29770W        W 1386  41.778   4.361   3.556
29771W        W 1387  23.096  19.461   4.930
29772W        W 1388  18.392  13.325   2.389
29773W        W 1389  22.425   4.707  13.869
29774W        W 1390  38.586  23.628   1.894
29775W        W 1391  21.029  12.763  11.912
29776W        W 1392  39.337   9.974  10.986
29777W        W 1393   5.643  43.809   2.753
29778W        W 1394   9.342  17.669   4.050
29779W        W 1395  34.209  34.353   2.943
29780W        W 1396  28.509  23.158   1.313
29781W        W 1397   3.999  30.054  14.279
29782W        W 1398  22.587   9.671   2.214
29783W        W 1399   2.309  28.196   0.639
29784W        W 1400   6.175  15.417  12.659
29785W        W 1401  39.473  29.182  13.807
29786W        W 1402  16.051  33.474  11.104
29787W        W 1403   4.962   4.948   1.685
29788W        W 1404  40.771  15.788  11.532
29789W        W 1405  35.541  35.665   2.285
29790W        W 1406  15.741  38.853   0.625
29791W        W 1407  22.151  16.212  14.115
29792W        W 1408  37.002  36.736  13.785
29793W        W 1409   6.332  42.745   0.904
29794W        W 1410   2.056  17.366  11.571
29795W        W 1411   9.401  31.979  12.953
29796W        W 1412  29.097  42.893   4.577
29797W        W 1413  30.229  17.660  14.547
29798W        W 1414  35.016  15.022  12.063
29799W        W 1415  44.000  33.230  11.944
29800W        W 1416  19.737  26.217   4.610
29801W        W 1417  40.019  43.286   3.467
29802W        W 1418  36.041  12.521  11.176
29803W        W 1419   6.813  36.924   2.954
29804W        W 1420  20.003  19.634   1.418
29805W        W 1421   7.416  25.476  11.999
29806W        W 1422  17.886  14.103  12.411
29807W        W 1423  15.288   1.983  14.833
29808W        W 1424  44.386  22.631   4.664
29809W        W 1425  22.537  21.706   0.637
29810W        W 1426  41.807   2.894   2.299
29811W        W 1427  32.282  34.615  14.438
29812W        W 1428  36.361   6.694  11.683
29813W        W 1429  36.195  10.623   2.757
29814W        W 1430  32.949  20.981  13.518
29815W        W 1431  40.332  24.500   2.627
29816W        W 1432  44.296  42.697  13.294
29817W        W 1433  28.051  39.881  11.278
29818W        W 1434  20.709  18.498   4.446
29819W        W 1435  41.016  30.450   0.502
29820W        W 1436  22.226  26.585  12.604
29821W        W 1437   6.524  29.426  13.459
29822W        W 1438  41.507   3.363   4.553
29823W        W 1439   0.236  35.865   9.612
29824W        W 1440  29.416  22.015  12.377
29825W        W 1441  29.754  10.135   0.800
29826W        W 1442   0.034  40.900   0.433
29827W        W 1443  15.001  15.218   4.697
29828W        W 1444  10.136  33.184   4.602
29829W        W 1445  15.116  14.723  13.541
29830W        W 1446  12.650  10.895  12.433
29831W        W 1447  22.721  19.098  14.821
29832W        W 1448  43.986  16.573  14.341
29833W        W 1449  11.656  38.767  11.112
29834W        W 1450   5.913  13.143   4.656
29835W        W 1451  34.374   8.140  11.941
29836W        W 1452   6.901  21.919   3.105
29837W        W 1453   5.333   2.227   0.082
29838W        W 1454   5.082  28.024   0.956
29839W        W 1455  20.617   5.205   3.662
29840W        W 1456  30.927  22.637  12.862
29841W        W 1457   6.167  38.942  12.002
29842W        W 1458  36.882  41.746  11.163
29843W        W 1459   2.472  26.709   2.822
29844W        W 1460  26.945  18.163   1.517
29845W        W 1461   8.813  30.220  12.375
29846W        W 1462  43.221  12.895  12.365
29847W        W 1463  22.154  17.005   1.214
29848W        W 1464  37.833  28.322   2.709
29849W        W 1465  12.574  42.865   0.214
29850W        W 1466  11.799   1.498   3.885
29851W        W 1467  32.451  39.242  13.839
29852W        W 1468   2.205  37.566  11.660
29853W        W 1469  16.023  38.657  10.277
29854W        W 1470  25.638  34.172  12.202
29855W        W 1471  10.008  11.791   2.398
29856W        W 1472  38.800  36.583   3.235
29857W        W 1473   3.401  24.205  12.834
29858W        W 1474   9.665   7.730   0.271
29859W        W 1475   5.517  11.704   3.857
29860W        W 1476  38.122  21.732   5.130
29861W        W 1477  20.250  28.226  12.112
29862W        W 1478  33.417  29.175   9.717
29863W        W 1479  42.086  42.363  11.916
29864W        W 1480  10.620  10.769   4.366
29865W        W 1481  30.457  31.172  14.500
29866W        W 1482  20.551  30.925   0.014
29867W        W 1483  25.493   6.859   3.844
29868W        W 1484   2.698   2.343  13.048
29869W        W 1485  35.568  11.232  11.184
29870W        W 1486  15.211  24.397   4.686
29871W        W 1487   6.349  41.804   2.477
29872W        W 1488  29.971  24.954  14.223
29873W        W 1489  32.833  22.048  13.508
29874W        W 1490   1.887  26.132   4.497
29875W        W 1491  40.906  26.514  11.206
29876W        W 1492  40.811  37.212   0.745
29877W        W 1493  32.610  26.547  12.997
29878W        W 1494   8.908  12.748  11.068
29879W        W 1495   7.500   5.326   4.620
29880W        W 1496  23.848   9.671   4.546
29881W        W 1497  15.657  35.643  10.997
29882W        W 1498  44.043  23.784   2.120
29883W        W 1499  36.227  35.248   0.687
29884W        W 1500  44.271  22.127  13.940
29885W        W 1501  43.685  12.654   2.769
29886W        W 1502  22.625  16.630   4.051
29887W        W 1503  15.229  18.313  13.330
29888W        W 1504  35.374  31.989   3.814
29889W        W 1505  17.205   3.271  14.829
29890W        W 1506  13.003  42.025  13.851
29891W        W 1507  18.637  12.323   3.742
29892W        W 1508   5.016  11.525  14.013
29893W        W 1509  13.166  20.486   0.553
29894W        W 1510   7.390   4.470   2.294
29895W        W 1511  27.366  43.991   0.894
29896W        W 1512  11.644   5.775   0.658
29897W        W 1513   4.307  29.445   4.156
29898W        W 1514  37.978  43.733   1.426
29899W        W 1515  15.773  33.637  13.357
29900W        W 1516  39.421   8.350   4.273
29901W        W 1517  42.932  40.447  12.215
29902W        W 1518  43.800  39.804   2.090
29903W        W 1519  43.769  35.509  13.325
29904W        W 1520  11.945  35.680  12.037
29905W        W 1521  24.515  41.295   0.742
29906W        W 1522   9.617  19.075  13.042
29907W        W 1523  10.697   8.784   1.181
29908W        W 1524   6.441  18.132  10.895
29909W        W 1525  32.924   6.362   4.585
29910W        W 1526  27.644  10.710  11.420
29911W        W 1527   2.348   7.256   1.482
29912W        W 1528  34.918  23.719  11.074
29913W        W 1529  39.910  28.495   4.206
29914W        W 1530   5.283  13.267  12.562
29915W        W 1531  20.768  33.326   1.385
29916W        W 1532  14.182  26.778   4.985
29917W        W 1533  36.358  32.991   4.208
29918W        W 1534  21.443  25.652  12.729
29919W        W 1535  20.351  39.975  12.920
29920W        W 1536   0.789  10.900  12.963
29921W        W 1537   0.376  41.522   1.034
29922W        W 1538   5.961   2.889   3.867
29923W        W 1539  38.691  36.840   3.710
29924W        W 1540  39.863  33.204  12.090
29925W        W 1541  17.735  20.920  13.529
29926W        W 1542  10.621  14.785  12.454
29927W        W 1543  24.622   5.123  11.057
29928W        W 1544  40.225  13.941   3.200
29929W        W 1545  40.572  22.800   0.466
29930W        W 1546   5.590  13.593  11.130
29931W        W 1547  16.749  18.750   2.924
29932W        W 1548  17.842  30.005   4.048
29933W        W 1549  31.543   6.174  10.598
29934W        W 1550  14.411  18.233   2.216
29935W        W 1551  31.418  21.566   3.372
29936W        W 1552   8.809  27.950   0.492
29937W        W 1553  37.496   8.792   1.086
29938W        W 1554  16.251   3.857   1.803
29939W        W 1555   8.251   9.365   1.128
29940W        W 1556   5.686  40.302   4.563
29941W        W 1557  19.210   2.154  12.975
29942W        W 1558   7.202  30.362  11.834
29943W        W 1559  14.848  28.470   0.985
29944W        W 1560   5.145  42.495  14.305
29945W        W 1561  36.745  11.047   9.857
29946W        W 1562  15.245  39.812  11.124
29947W        W 1563  13.201  16.826   1.626
29948W        W 1564   7.658  17.005  14.905
29949W        W 1565  38.984  34.158  14.292
29950W        W 1566  11.494  33.153  11.354
29951W        W 1567  22.090   4.335   2.947
29952W        W 1568  33.502  18.091  14.130
29953W        W 1569  21.808  29.571   1.677
29954W        W 1570  18.296  44.841   3.269
29955W        W 1571   9.375  28.589  11.903
29956W        W 1572  27.626  23.198  12.517
29957W        W 1573  12.589  20.249   4.653
29958W        W 1574   2.933   0.245   3.400
29959W        W 1575  37.007  31.609  14.384
29960W        W 1576  14.894  28.615  12.584
29961W        W 1577  39.459  31.289  11.604
29962W        W 1578  35.133  18.609  12.152
29963W        W 1579  31.029   0.817  10.955
29964W        W 1580  11.802  35.411  11.625
29965W        W 1581  29.641   8.745  13.499
29966W        W 1582   6.440  34.828  11.164
29967W        W 1583  39.388  41.606  12.650
29968W        W 1584  14.588  16.122  12.370
29969W        W 1585  36.509   7.201   0.858
29970W        W 1586  23.614  42.532   0.958
29971W        W 1587  38.073   0.371  12.433
29972W        W 1588  28.447  36.105   1.208
29973W        W 1589  26.703   2.236   4.612
29974W        W 1590  37.816   4.003  11.480
29975W        W 1591  32.643  29.448   5.520
29976W        W 1592  35.910   1.706  13.422
29977W        W 1593  44.868   1.521  12.632
29978W        W 1594  34.549  11.232   4.515
29979W        W 1595   1.321   0.551  10.833
29980W        W 1596  19.535  38.121   0.327
29981W        W 1597  39.041  42.303   3.702
29982W        W 1598  44.775   7.939   3.283
29983W        W 1599   5.753  13.150   3.762
29984W        W 1600  13.380  12.785  14.798
29985W        W 1601  40.818   3.705   3.726
29986W        W 1602  15.431  34.053  14.176
29987W        W 1603  12.240  28.049  13.066
29988W        W 1604   1.435  21.981   2.239
29989W        W 1605  35.434  16.791   1.272
29990W        W 1606  44.521  10.002   2.750
29991W        W 1607  29.241   6.798   2.412
29992W        W 1608  36.545  42.048   2.825
29993W        W 1609  34.032  19.740   3.655
29994W        W 1610  11.765  20.228  11.156
29995W        W 1611  13.222  24.798   3.802
29996W        W 1612  29.689  13.840   2.538
29997W        W 1613  22.808  27.919   3.239
29998W        W 1614  37.602  34.820   1.963
29999W        W 1615  40.382  10.499   3.164
30000W        W 1616  24.110  17.719   4.681
30001W        W 1617  25.271  44.198   3.930
30002W        W 1618  15.348  11.294   3.910
30003W        W 1619  11.106  37.980   3.656
30004W        W 1620  43.878  39.056  11.311
30005W        W 1621  18.761  42.698  13.395
30006W        W 1622  34.438  33.950  13.938
30007W        W 1623  25.729   1.708   3.161
30008W        W 1624  22.215   0.448  11.657
30009W        W 1625  34.540   6.243  14.868
30010W        W 1626  24.616  14.384  14.923
30011W        W 1627  11.948   7.569  13.472
30012W        W 1628   0.965  30.969   0.758
30013W        W 1629  29.820  21.601  11.576
30014W        W 1630  38.970  22.260  10.357
30015W        W 1631   6.864  34.851  12.191
30016W        W 1632  39.131  13.783  11.014
30017W        W 1633  22.685  34.201   3.714
30018W        W 1634   7.194  42.888  13.914
30019W        W 1635  38.780   1.995   1.418
30020W        W 1636  44.053   2.233   3.244
30021W        W 1637  44.388  17.047   2.793
30022W        W 1638  25.268  11.874   1.257
30023W        W 1639  39.947  17.574  11.111
30024W        W 1640  38.106  23.447   3.616
30025W        W 1641  29.601  23.829   0.558
30026W        W 1642  15.141  37.451  10.556
30027W        W 1643   9.280  32.862  11.968
30028W        W 1644  23.686   9.363   2.318
30029W        W 1645  42.511  25.665  11.115
30030W        W 1646  44.877  38.975  10.967
30031W        W 1647  14.566  32.638  13.362
30032W        W 1648  24.125  24.268  10.625
30033W        W 1649   7.189  21.253   1.419
30034W        W 1650  34.973  39.130   1.717
30035W        W 1651   9.324  22.417   1.364
30036W        W 1652  43.879  16.275  13.550
30037W        W 1653  26.453  35.801  11.770
30038W        W 1654  31.062  32.891   2.328
30039W        W 1655  28.553  37.121   4.196
30040W        W 1656  25.785  18.547  10.882
30041W        W 1657  31.930  14.449   5.154
30042W        W 1658  32.120  27.441   3.266
30043W        W 1659  13.898  20.003  10.591
30044W        W 1660  32.497  40.978  13.796
30045W        W 1661  29.640  10.204   4.175
30046W        W 1662  38.402  35.860  10.633
30047W        W 1663  15.750   7.707  10.554
30048W        W 1664  11.680  15.507   1.722
30049W        W 1665  13.780   3.368  14.563
30050W        W 1666  15.537  15.529   5.015
30051W        W 1667  20.205  25.552   3.630
30052W        W 1668   3.404   8.104   3.124
30053W        W 1669  34.329  24.579  13.965
30054W        W 1670   6.319  33.166  14.830
30055W        W 1671  17.587  28.396   2.803
30056W        W 1672  35.524  17.250  12.849
30057W        W 1673  19.050  37.034  11.621
30058W        W 1674  33.384   5.974  11.081
30059W        W 1675  33.038  33.508   0.409
30060W        W 1676   0.363  39.284  12.539
30061W        W 1677   3.904  25.910   1.227
30062W        W 1678  43.741  22.166   2.586
30063W        W 1679  32.127   0.190  12.092
30064W        W 1680  43.006  35.827   5.163
30065W        W 1681  38.318   9.655   5.222
30066W        W 1682  36.053  32.524   3.599
30067W        W 1683   1.926  13.866  13.921
30068W        W 1684  14.704  27.566  11.710
30069W        W 1685  43.261  28.876   1.925
30070W        W 1686   6.685   6.362   3.295
30071W        W 1687  13.844  44.216   4.331
30072W        W 1688   0.311   2.477   0.848
30073W        W 1689  29.870  30.991   1.395
30074W        W 1690  23.237  30.713  11.203
30075W        W 1691  33.122  16.337  11.980
30076W        W 1692  40.888   1.893  11.224
30077W        W 1693  31.178   5.464   4.636
30078W        W 1694  39.960  40.554   0.969
30079W        W 1695   3.255   9.391   4.561
30080W        W 1696  42.936  37.547   4.866
30081W        W 1697  30.074  34.715   1.057
30082W        W 1698  44.576  17.909   2.965
30083W        W 1699  11.744  33.729  10.227
30084W        W 1700  40.121  17.269   4.614
30085W        W 1701  14.271  14.654   4.547
30086W        W 1702  43.383   9.720   1.434
30087W        W 1703  26.219  32.977   3.162
30088W        W 1704  13.449   5.690  12.313
30089W        W 1705  28.631  25.185  14.241
30090W        W 1706  41.523  28.101   1.423
30091W        W 1707  11.696  10.591   5.209
30092W        W 1708  15.062  17.062  11.123
30093W        W 1709  30.554   3.885  13.094
30094W        W 1710  40.678  16.664   3.900
30095W        W 1711  32.157   3.306  13.412
30096W        W 1712   1.569   9.289   4.154
30097W        W 1713  10.325  24.568   3.391
30098W        W 1714   4.593  37.971  11.483
30099W        W 1715   6.462  17.763   3.275
30100W        W 1716  28.233   7.323  13.727
30101W        W 1717   4.224  38.847  10.006
30102W        W 1718  43.858  23.026   4.772
30103W        W 1719   2.562   6.653   2.825
30104W        W 1720  27.647  16.288  11.504
30105W        W 1721   4.519  28.423   1.786
30106W        W 1722  42.514  21.762   2.651
30107W        W 1723  13.618  15.229   0.969
30108W        W 1724  26.664   9.732  11.486
30109W        W 1725  40.542  35.841  14.803
30110W        W 1726  34.136  12.373  12.047
30111W        W 1727  39.114  19.673   4.148
30112W        W 1728  31.909  22.877  11.764
30113W        W 1729   9.748  15.710  14.859
30114W        W 1730  37.525  18.117  14.438
30115W        W 1731  30.475   0.504   4.146
30116W        W 1732  21.610  10.274   0.236
30117W        W 1733  42.059  26.481  12.092
30118W        W 1734  29.988  12.504  14.893
30119W        W 1735  13.385  37.093  10.815
30120W        W 1736   0.710   0.483   0.945
30121W        W 1737   4.407  30.595   2.753
30122W        W 1738  14.763   5.771   1.290
30123W        W 1739  31.035  21.720   4.693
30124W        W 1740  29.008  10.195  12.512
30125W        W 1741   8.664  37.018   4.247
30126W        W 1742  44.286  18.038  13.324
30127W        W 1743   9.974   0.707   1.825
30128W        W 1744  37.361   3.303  14.979
30129W        W 1745  38.004   8.851   0.213
30130W        W 1746  44.045  36.847   1.786
30131W        W 1747   1.742  42.794  14.898
30132W        W 1748  33.432   2.204   5.464
30133W        W 1749  28.047  13.563  10.003
30134W        W 1750  36.960   8.043  10.754
30135W        W 1751  10.385  26.582   4.629
30136W        W 1752  30.985  30.685   0.046
30137W        W 1753   3.922  44.927   0.803
30138W        W 1754  37.198  11.909   2.155
30139W        W 1755  23.891   1.069  11.395
30140W        W 1756  42.298  43.999  12.562
30141W        W 1757  43.944  28.226  10.357
30142W        W 1758  12.293   2.774   3.786
30143W        W 1759  33.543  43.989   2.398
30144W        W 1760  32.617  43.763  12.147
30145W        W 1761   4.975  40.876   1.420
30146W        W 1762   3.365  38.268   1.388
30147W        W 1763  39.579  28.729  12.862
30148W        W 1764  12.287  14.533  12.581
30149W        W 1765  10.360  39.808   3.711
30150W        W 1766   6.181  42.506  12.048
30151W        W 1767  18.704   6.666   1.248
30152W        W 1768  26.845  34.365  13.899
30153W        W 1769  12.320  27.231  12.686
30154W        W 1770   3.491   2.387   2.388
30155W        W 1771  16.196   7.679   1.217
30156W        W 1772  10.389  14.768   3.655
30157W        W 1773  33.386   9.329  12.510
30158W        W 1774  25.657  27.055   2.856
30159W        W 1775  34.665  14.818  11.704
30160W        W 1776  20.154   4.908  11.645
30161W        W 1777  12.832  13.531   4.736
30162W        W 1778  16.798  43.877  12.949
30163W        W 1779  25.181  41.161   0.996
30164W        W 1780   2.700  36.150   1.382
30165W        W 1781  32.758  24.017  14.369
30166W        W 1782  42.988  26.278  10.121
30167W        W 1783  26.476  18.879  13.132
30168W        W 1784   9.744  16.738   4.307
30169W        W 1785  40.499  36.545  14.287
30170W        W 1786   3.492   5.347   2.734
30171W        W 1787  19.583  32.791  11.611
30172W        W 1788  19.018   2.388  11.981
30173W        W 1789  26.237  42.963   0.823
30174W        W 1790   1.060  29.493  13.291
30175W        W 1791  30.327   1.326   0.963
30176W        W 1792  11.730  24.651   2.626
30177W        W 1793  32.641   0.303   1.947
30178W        W 1794  26.027  43.846  10.665
30179W        W 1795  34.446  14.575   2.746
30180W        W 1796   9.756   8.201  12.439
30181W        W 1797  37.006   6.616   0.514
30182W        W 1798   7.916  28.718  14.941
30183W        W 1799   6.413  42.326  14.012
30184W        W 1800  28.080  36.598  14.999
30185W        W 1801  38.598  19.542   3.141
30186W        W 1802  44.152  14.096   0.648
30187W        W 1803  21.029   2.894  11.051
30188W        W 1804   5.721  15.850   2.654
30189W        W 1805   8.653  43.872   3.742
30190W        W 1806  10.106  27.629   1.874
30191W        W 1807   3.345  17.253  12.537
30192W        W 1808  19.318  34.028  11.580
30193W        W 1809   0.030  38.489   4.528
30194W        W 1810  44.710  29.076   1.772
30195W        W 1811  12.178  16.413   2.574
30196W        W 1812  11.881  43.850  13.826
30197W        W 1813  30.968  38.440   0.696
30198W        W 1814  13.250  28.258   3.656
30199W        W 1815  29.160  30.385  13.855
30200W        W 1816  39.016  42.916   3.041
30201W        W 1817  16.202  24.241   1.044
30202W        W 1818  43.419  30.147  11.106
30203W        W 1819  22.382  44.042   9.941
30204W        W 1820  15.591  36.358   3.340
30205W        W 1821   8.197   3.373   2.882
30206W        W 1822  21.763  33.012   2.669
30207W        W 1823  16.822   1.356   0.979
30208W        W 1824  16.043  11.969   0.369
30209W        W 1825  34.880  20.820   3.032
30210W        W 1826  12.857  14.514   5.102
30211W        W 1827  18.076  14.350  14.711
30212W        W 1828  37.482   2.734   2.246
30213W        W 1829   4.171   8.569   3.520
30214W        W 1830  26.878  15.546  10.312
30215W        W 1831  44.061   1.444  12.936
30216W        W 1832   5.802  27.681  10.570
30217W        W 1833  20.968  26.904  12.551
30218W        W 1834   5.902  19.706   3.713
30219W        W 1835  35.869  20.255   2.726
30220W        W 1836  26.584   4.779  12.036
30221W        W 1837  42.886  23.513   3.865
30222W        W 1838   4.258   6.930  11.397
30223W        W 1839   7.834  40.470  14.750
30224W        W 1840   5.638  34.919  12.366
30225W        W 1841   2.383  31.193  10.576
30226W        W 1842   6.926  33.948  11.540
30227W        W 1843  21.576   0.027  11.120
30228W        W 1844   7.413  10.233  13.718
30229W        W 1845  16.441  18.921   9.784
30230W        W 1846  18.741  35.600   4.564
30231W        W 1847  14.817   9.190  12.049
30232W        W 1848  10.211   1.198   2.749
30233W        W 1849  35.176  40.512   0.688
30234W        W 1850  44.880  15.868  14.706
30235W        W 1851  25.767  31.711   1.723
30236W        W 1852  44.294  43.865   3.664
30237W        W 1853   1.437   7.799   2.742
30238W        W 1854  24.928  37.038  10.430
30239W        W 1855   0.548   1.367  13.972
30240W        W 1856  18.418  19.600   4.583
30241W        W 1857  39.374  29.983  14.791
30242W        W 1858  10.787  38.506  13.586
30243W        W 1859  24.677   6.935   0.469
30244W        W 1860  17.237  39.845   9.897
30245W        W 1861   8.599   5.989  10.531
30246W        W 1862  13.505  33.091   4.122
30247W        W 1863   1.408  20.977  13.077
30248W        W 1864  30.463  10.133  11.363
30249W        W 1865  42.025  40.494   4.334
30250W        W 1866  30.582  26.913  12.539
30251W        W 1867   2.820  10.843   4.168
30252W        W 1868  24.478  20.469  14.977
30253W        W 1869   5.602  43.286  12.890
30254W        W 1870  41.549  38.867   4.258
30255W        W 1871  11.666   0.925  14.062
30256W        W 1872  43.901  12.636   1.914
30257W        W 1873  10.793  32.446   0.161
30258W        W 1874  24.682  16.642   1.230
30259W        W 1875  26.930   7.623   0.299
30260W        W 1876   5.952  38.062  13.968
30261W        W 1877   4.729  44.810   1.893
30262W        W 1878  44.931  15.820   0.954
30263W        W 1879  19.860  39.481   1.896
30264W        W 1880  22.331   1.730  11.206
30265W        W 1881  44.028  31.682  11.105
30266W        W 1882  38.967  26.518  11.168
30267W        W 1883  26.083  14.014   5.048
30268W        W 1884  18.226  24.627  10.455
30269W        W 1885   5.629  20.136   3.777
30270W        W 1886   9.154  40.492   3.065
30271W        W 1887  10.882  44.902   1.382
30272W        W 1888  26.105  14.337  13.069
30273W        W 1889  39.389   1.324  10.647
30274W        W 1890  16.046  27.878   4.273
30275W        W 1891  11.960  14.692  13.873
30276W        W 1892  18.142  36.541  14.556
30277W        W 1893  35.446   3.384   3.768
30278W        W 1894  40.894  29.446  12.404
30279W        W 1895  13.162   8.372  13.083
30280W        W 1896  19.818  40.513   0.216
30281W        W 1897  37.171  14.042  12.986
30282W        W 1898  18.490  36.771   1.017
30283W        W 1899  37.581  43.692   9.948
30284W        W 1900  30.878   2.611  10.842
30285W        W 1901   7.725   5.380  10.592
30286W        W 1902  13.333  33.171  14.430
30287W        W 1903  23.202   6.876   3.114
30288W        W 1904   7.573   7.729  12.405
30289W        W 1905  36.513  20.055   4.488
30290W        W 1906  16.669  44.259   2.422
30291W        W 1907  44.754  31.064  14.252
30292W        W 1908  23.039  26.559  13.810
30293W        W 1909   1.032  35.371  14.335
30294W        W 1910  39.866   8.393  10.673
30295W        W 1911   4.035   7.357  11.230
30296W        W 1912  21.269  15.369   2.785
30297W        W 1913  10.965  22.935   0.820
30298W        W 1914  20.204  43.961  11.493
30299W        W 1915  31.597  36.071   1.317
30300W        W 1916  32.663  18.312  11.461
30301W        W 1917  19.166  24.076  14.956
30302W        W 1918   9.659  37.560  12.859
30303W        W 1919   5.129  32.875   1.908
30304W        W 1920   8.738  42.961   0.445
30305W        W 1921  21.681  26.059   4.718
30306W        W 1922  27.355  35.566   3.827
30307W        W 1923  35.798  33.627   4.615
30308W        W 1924   2.682  32.078   2.724
30309W        W 1925  10.433   0.794   3.684
30310W        W 1926  12.373  30.999   1.842
30311W        W 1927   8.942   1.758  12.082
30312W        W 1928  40.783  40.078   4.208
30313W        W 1929  23.972  33.947   2.681
30314W        W 1930  24.552  36.580  14.754
30315W        W 1931  15.071   2.513  14.032
30316W        W 1932   8.170  29.653   0.505
30317W        W 1933   4.317  37.545  13.321
30318W        W 1934  41.264  32.637   3.094
30319W        W 1935   4.728   1.329  10.394
30320W        W 1936  37.346  32.144  13.907
30321W        W 1937   6.683  22.220  12.361
30322W        W 1938  40.747  29.167  14.886
30323W        W 1939   3.685  26.980   4.435
30324W        W 1940   6.323  23.580   0.922
30325W        W 1941  31.928   8.961  12.445
30326W        W 1942  11.366  32.540  12.954
30327W        W 1943  12.634  44.918  13.839
30328W        W 1944  14.157  21.559   2.847
30329W        W 1945  32.924  36.291   4.332
30330W        W 1946  30.613  29.762   4.492
30331W        W 1947  38.569  22.806   0.831
30332W        W 1948  24.642  42.940   2.287
30333W        W 1949  35.448  36.293   4.622
30334W        W 1950  36.305  42.592  14.119
30335W        W 1951  17.770  33.461  12.282
30336W        W 1952  39.992   9.805  13.922
30337W        W 1953  43.909  17.251   4.422
30338W        W 1954   2.876  20.294  13.866
30339W        W 1955  44.533  33.397   4.176
30340W        W 1956  28.851   3.789  14.728
30341W        W 1957  23.672   0.922   1.329
30342W        W 1958  27.843  15.802  11.661
30343W        W 1959  16.752   2.237  10.476
30344W        W 1960  25.933  30.606   5.017
30345W        W 1961   2.872  30.076   4.647
30346W        W 1962  36.159  35.050   4.528
30347W        W 1963  27.662  31.869   1.309
30348W        W 1964  35.698  12.506  13.313
30349W        W 1965  13.196  13.211   4.495
30350W        W 1966  30.519   2.950   2.703
30351W        W 1967  17.034   9.330   0.455
30352W        W 1968  14.201  31.729  12.550
30353W        W 1969  14.088  12.807  11.207
30354W        W 1970  40.524  33.745  14.446
30355W        W 1971  18.229   6.948  12.876
30356W        W 1972  40.058  11.849  13.583
30357W        W 1973  43.136  44.311   3.671
30358W        W 1974  31.578  26.850  13.527
30359W        W 1975   6.446  41.589   3.878
30360W        W 1976  17.711  42.603   4.210
30361W        W 1977  39.432  37.006   0.480
30362W        W 1978  23.948   8.964   0.906
30363W        W 1979  18.288   4.371   1.199
30364W        W 1980   4.898  14.118  11.051
30365W        W 1981  30.389  25.213  13.334
30366W        W 1982  22.693  19.502   1.824
30367W        W 1983  25.970   0.841  14.404
30368W        W 1984  21.691   3.773  11.616
30369W        W 1985   9.694  33.949   0.082
30370W        W 1986  37.451  28.950  14.843
30371W        W 1987  22.734   6.716  12.209
30372W        W 1988  35.135  17.824   0.975
30373W        W 1989  27.640  17.035  11.946
30374W        W 1990   0.830  21.577  13.847
30375W        W 1991  23.551  18.102   0.451
30376W        W 1992  25.840  26.120  11.490
30377W        W 1993  12.379  23.801  11.643
30378W        W 1994   7.401   6.264   1.336
30379W        W 1995  14.258  37.284  10.597
30380W        W 1996   2.245  20.570   2.890
30381W        W 1997   5.380  26.508  11.809
30382W        W 1998  31.569   9.410   0.209
30383W        W 1999   1.614  22.636   0.989
30384W        W 2000   2.319  37.825   1.224
30385W        W 2001  32.920  38.679  12.508
30386W        W 2002  41.543   1.144  13.875
30387W        W 2003   3.948  40.492  11.408
30388W        W 2004  27.519  34.370   2.237
30389W        W 2005  31.474  17.439   0.462
30390W        W 2006  21.503  20.779  13.629
30391W        W 2007  14.623  43.229   2.999
30392W        W 2008  15.266  15.566   4.035
30393W        W 2009  29.961  37.123   4.394
30394W        W 2010  16.061   3.391   1.817
30395W        W 2011  13.256  34.265  12.881
30396W        W 2012   5.093   0.840  13.187
30397W        W 2013  41.577   6.435   4.835
30398W        W 2014  10.325  16.384  12.960
30399W        W 2015   4.094  30.386   4.183
30400W        W 2016  22.668   2.806  13.011
30401W        W 2017  17.055  19.503  13.388
30402W        W 2018  24.680   2.698  12.952
30403W        W 2019  36.099   3.977   2.414
30404W        W 2020  29.032  13.823   3.277
30405W        W 2021  39.181  10.806  13.979
30406W        W 2022  34.783  17.117  11.791
30407W        W 2023  22.905  28.145   1.932
30408W        W 2024  18.697   9.930   1.325
30409W        W 2025   2.535   4.214   4.211
30410W        W 2026  32.981  25.674   0.955
30411W        W 2027   4.153  12.706   3.941
30412W        W 2028  25.655  11.804  12.457
30413W        W 2029  19.159  31.049   1.389
30414W        W 2030  21.086  36.174  10.152
30415W        W 2031  29.344  36.682   1.440
30416W        W 2032  38.795   4.780  14.984
30417W        W 2033  28.028  27.100  12.845
30418W        W 2034   7.462  19.193  14.837
30419W        W 2035  15.178  43.816   3.341
30420W        W 2036   1.843  28.374  13.546
30421W        W 2037  44.272   7.015   4.955
30422W        W 2038  27.700  27.430  14.468
30423W        W 2039  10.766  34.031  13.977
30424W        W 2040   3.410  17.579   4.623
30425W        W 2041  23.707   1.445   2.364
30426W        W 2042   8.445  34.616  10.725
30427W        W 2043  11.320  44.577  14.038
30428W        W 2044   5.777   3.862  10.856
30429W        W 2045  31.026  25.740   3.162
30430W        W 2046   6.171  23.911  10.740
30431W        W 2047  37.511  42.727  12.991
30432W        W 2048  33.973  25.780  14.854
30433W        W 2049   8.155  38.151   0.493
30434W        W 2050  37.575  39.658  12.058
30435W        W 2051   2.463  33.091  10.959
30436W        W 2052   6.155  19.199  12.909
30437W        W 2053  17.276  25.439   2.320
30438W        W 2054  15.378  11.823  11.156
30439W        W 2055   0.500  44.895   3.607
30440W        W 2056  20.778  37.638  11.569
30441W        W 2057  34.422  18.681  11.524
30442W        W 2058   9.684   8.162  14.990
30443W        W 2059  22.122  41.375   2.634
30444W        W 2060  32.380  44.847   3.819
30445W        W 2061  22.616  11.373   4.927
30446W        W 2062  26.529  16.267  11.908
30447W        W 2063  15.739  30.166   0.966
30448W        W 2064  19.463  15.650   2.001
30449W        W 2065  12.014   3.927   4.563
30450W        W 2066  21.678  11.219   4.373
30451W        W 2067  25.461   4.570  10.766
30452W        W 2068   3.104  11.138  11.965
30453W        W 2069  21.469  25.468   1.820
30454W        W 2070  26.941  42.286   3.334
30455W        W 2071  18.319  17.372  12.023
30456W        W 2072  13.449  11.242   0.622
30457W        W 2073  30.324  24.648  14.438
30458W        W 2074  21.363  14.489  11.745
30459W        W 2075  42.571  36.428   0.730
30460W        W 2076  26.770  27.916  11.664
30461W        W 2077  16.344   4.987   2.890
30462W        W 2078  31.502   2.985  14.836
30463W        W 2079   3.038  40.607  13.803
30464W        W 2080  40.820  44.378  13.253
30465W        W 2081  43.353   8.372  12.090
30466W        W 2082  32.072  41.147   2.863
30467W        W 2083  11.891   5.303   3.232
30468W        W 2084   8.235   2.532  11.445
30469W        W 2085  29.046  12.921   2.181
30470W        W 2086  29.086  30.886  13.059
30471W        W 2087   3.271   3.978  14.431
30472W        W 2088  33.481  37.504  14.117
30473W        W 2089  16.374   6.764  13.511
30474W        W 2090  24.192  21.505  12.884
30475W        W 2091   8.438   6.799  13.884
30476W        W 2092  18.664  12.941  10.669
30477W        W 2093  12.790  44.471   2.442
30478W        W 2094  12.381  16.604   3.357
30479W        W 2095  20.698   3.830  10.650
30480W        W 2096  29.975   9.748  14.496
30481W        W 2097  29.159  41.045  14.353
30482W        W 2098  34.734  10.591   3.230
30483W        W 2099  36.962  38.568  14.581
30484W        W 2100  34.846  25.190   2.388
30485W        W 2101  22.520   0.949   0.716
30486W        W 2102   4.056  12.651  14.302
30487W        W 2103  12.223   4.398   4.636
30488W        W 2104  19.060  13.158   3.670
30489W        W 2105   1.311  22.030   3.602
30490W        W 2106  10.205   3.793   2.479
30491W        W 2107  33.903  22.101  11.112
30492W        W 2108  10.204  39.480  10.712
30493W        W 2109   6.832   2.022   5.031
30494W        W 2110   6.717  43.921   1.363
30495W        W 2111  36.442  24.660   0.370
30496W        W 2112  31.468  26.957   3.214
30497W        W 2113  19.291   6.891   3.672
30498W        W 2114   4.796  21.186   2.843
30499W        W 2115  11.768  44.962  11.549
30500W        W 2116  18.727  15.326  12.597
30501W        W 2117  44.046  37.452   1.225
30502W        W 2118  21.582  19.473  10.684
30503W        W 2119   3.323  39.358   3.413
30504W        W 2120  42.798  23.980   1.554
30505W        W 2121  27.155  18.602  10.563
30506W        W 2122  40.867  34.123  14.357
30507W        W 2123  32.562  13.307   3.675
30508W        W 2124   1.419  12.867   3.484
30509W        W 2125   4.964  39.832   0.968
30510W        W 2126   2.477  23.489  10.556
30511W        W 2127  23.475  40.485  14.378
30512W        W 2128   0.804  25.490  13.551
30513W        W 2129  42.331   0.769  11.375
30514W        W 2130  43.670  40.165  13.535
30515W        W 2131  13.731   1.390   3.975
30516W        W 2132  22.461   1.976  12.082
30517W        W 2133  36.552  39.566   1.797
30518W        W 2134  44.379  38.415  11.792
30519W        W 2135  35.071  29.906   3.748
30520W        W 2136   2.432   3.513  13.501
30521W        W 2137  42.837   9.748   0.215
30522W        W 2138  17.815  24.518   4.127
30523W        W 2139  15.165  11.961   0.743
30524W        W 2140   5.790  21.753  13.814
30525W        W 2141  24.887   0.579   0.811
30526W        W 2142   7.527  28.740  13.834
30527W        W 2143   5.113  40.944  13.524
30528W        W 2144  28.653  41.565   1.910
30529W        W 2145  15.577  25.571  11.178
30530W        W 2146  41.503  42.976   9.851
30531W        W 2147   5.158  27.212  11.451
30532W        W 2148  34.193  44.794   1.727
30533W        W 2149  32.233  40.198  13.278
30534W        W 2150   2.143   4.359  11.160
30535W        W 2151  39.043  43.629  14.101
30536W        W 2152   9.366   7.746   2.898
30537W        W 2153  28.638  30.809  10.680
30538W        W 2154  11.412  36.934  11.611
30539W        W 2155  32.174   2.413   2.580
30540W        W 2156  33.832   0.719  11.977
30541W        W 2157  16.563  40.476  12.125
30542W        W 2158  25.056  33.824   4.194
30543W        W 2159  10.784   3.353  14.281
30544W        W 2160  10.914   5.209  11.504
30545W        W 2161   0.416  37.906   4.206
30546W        W 2162  13.620  34.511   4.333
30547W        W 2163   0.473  42.036  10.707
30548W        W 2164  26.938  18.003   2.737
30549W        W 2165  20.539  26.092  11.614
30550W        W 2166  39.785   1.390   3.834
30551W        W 2167  40.182   5.977  11.111
30552W        W 2168  43.784   9.116   2.820
30553W        W 2169  44.896  41.923  14.894
30554W        W 2170   8.812  39.816  12.899
30555W        W 2171  14.503  11.187  10.646
30556W        W 2172   0.711  20.688  13.452
30557W        W 2173  10.070  25.317   3.178
30558W        W 2174  34.182   2.581   3.718
30559W        W 2175  13.425   7.916  11.893
30560W        W 2176  11.299  20.439   1.727
30561W        W 2177   0.661  26.195   0.244
30562W        W 2178  33.935  23.005  14.857
30563W        W 2179   7.679  40.494   3.736
30564W        W 2180  18.459  35.171  14.157
30565W        W 2181   4.757  10.685   4.164
30566W        W 2182   0.212  32.490  13.443
30567W        W 2183  27.155   9.872  12.526
30568W        W 2184  29.614  14.185   1.472
30569W        W 2185  16.141  34.870   1.842
30570W        W 2186  10.594  34.837  12.588
30571W        W 2187   0.491   6.430  10.525
30572W        W 2188  24.998   0.799  14.965
30573W        W 2189  35.420  19.109   2.108
30574W        W 2190  36.663  12.051  10.551
30575W        W 2191   0.864  36.557  14.040
30576W        W 2192  41.546  43.491   0.630
30577W        W 2193   2.846  23.743  11.599
30578W        W 2194  36.037   7.477   1.704
30579W        W 2195  39.921  42.923   3.118
30580W        W 2196   4.843  11.863  11.608
30581W        W 2197  11.775  41.067  14.364
30582W        W 2198  11.512  35.175   3.992
30583W        W 2199   0.809   0.924  13.988
30584W        W 2200  44.833  20.000   0.833
30585W        W 2201  34.458  27.833   3.249
30586W        W 2202  40.475   1.543   1.907
30587W        W 2203   9.185  30.398  10.563
30588W        W 2204   0.836  44.733   0.552
30589W        W 2205  15.802   2.872  14.978
30590W        W 2206  44.363   2.345  13.485
30591W        W 2207  36.699   2.740   2.771
30592W        W 2208   4.941  38.787  13.464
30593W        W 2209   3.434  17.576  12.117
30594W        W 2210   7.914  39.689  11.503
30595W        W 2211  35.561  11.843   0.321
30596W        W 2212  21.086  26.000  14.302
30597W        W 2213   7.812  29.392  14.413
30598W        W 2214   7.561  19.550  13.946
30599W        W 2215   3.952  28.988   0.012
30600W        W 2216   1.860   8.405  14.931
30601W        W 2217  13.548  17.158   2.819
30602W        W 2218  26.974   2.679  11.604
30603W        W 2219  27.396  16.558  14.367
30604W        W 2220  31.526  37.134  11.560
30605W        W 2221  40.775  27.759  12.968
30606W        W 2222  20.439  24.656  12.063
30607W        W 2223  27.943  19.627   4.093
30608W        W 2224  44.528   0.704  10.967
30609W        W 2225  28.953   0.006  12.061
30610W        W 2226   3.310  22.457  10.743
30611W        W 2227  24.742  43.742  12.917
30612W        W 2228   0.503  37.400   4.004
30613W        W 2229  12.425   8.274   1.344
30614W        W 2230   9.367  21.999   3.687
30615W        W 2231  32.936  12.303   3.653
30616W        W 2232  32.583  29.519   2.729
30617W        W 2233  11.532   0.292   3.064
30618W        W 2234  24.469   1.136   4.198
30619W        W 2235  16.406  20.143   3.347
30620W        W 2236  32.557  15.837   0.325
30621W        W 2237   9.635  31.910  12.440
30622W        W 2238   5.423  13.765  14.791
30623W        W 2239  16.310  28.132   3.326
30624W        W 2240  38.406   5.832   2.907
30625W        W 2241  11.785  14.161  13.034
30626W        W 2242  17.172  13.229   0.232
30627W        W 2243  38.354  23.485  14.806
30628W        W 2244  38.977  42.659  14.371
30629W        W 2245  20.680  44.860  14.037
30630W        W 2246  35.429  41.329  11.565
30631W        W 2247  23.809  18.111  11.783
30632W        W 2248  28.266  33.400   0.556
30633W        W 2249  10.376  20.062  14.755
30634W        W 2250  11.898  27.640   4.960
30635W        W 2251   4.061  20.645   3.096
30636W        W 2252   3.470   4.212  12.373
30637W        W 2253   3.808  35.767   4.997
30638W        W 2254  12.719  29.176   1.671
30639W        W 2255  30.505  23.602   0.743
30640W        W 2256  30.906  39.064  12.058
30641W        W 2257  11.614  14.686  14.278
30642W        W 2258  41.886  41.104  14.390
30643W        W 2259   7.370   8.971   3.386
30644W        W 2260  33.932  31.025  11.953
30645W        W 2261  37.378   7.908  12.964
30646W        W 2262  24.153   2.724  12.939
30647W        W 2263  38.635  13.192  12.455
30648W        W 2264  29.472  11.170   3.205
30649W        W 2265  34.949  30.085  14.983
30650W        W 2266   9.265  43.558   4.008
30651W        W 2267  42.395  21.013   3.238
30652W        W 2268  22.136  37.353   2.017
30653W        W 2269   1.935  13.123  11.620
30654W        W 2270  36.076  30.395  13.396
30655W        W 2271  16.084  19.992  14.083
30656W        W 2272  25.634  16.586   4.660
30657W        W 2273   7.740  17.856  13.458
30658W        W 2274  14.867  25.593   1.218
30659W        W 2275  21.252  26.236   1.765
30660W        W 2276  29.891   8.406   4.059
30661W        W 2277  17.613  24.257   3.715
30662W        W 2278  11.641  20.242   4.800
30663W        W 2279  24.661  13.139  13.911
30664W        W 2280  16.802   8.744   3.301
30665W        W 2281   8.756   6.458   3.820
30666W        W 2282  15.951  34.082  14.343
30667W        W 2283   1.572   1.837  12.870
30668W        W 2284  22.526  25.603  10.557
30669W        W 2285  24.296  29.011   4.673
30670W        W 2286  31.933  15.992   1.374
30671W        W 2287  24.993  20.517  14.803
30672W        W 2288  36.048  17.468   5.031
30673W        W 2289  17.971  15.979   3.644
30674W        W 2290  30.055  43.268  11.153
30675W        W 2291  41.501  23.652  14.244
30676W        W 2292   9.406  21.652  12.323
30677W        W 2293  28.798  36.169  11.538
30678W        W 2294  23.364  24.541   1.093
30679W        W 2295  41.831  29.537  13.361
30680W        W 2296  34.849  31.924   3.627
30681W        W 2297  42.951  21.734   2.919
30682W        W 2298  25.837  30.079  12.123
30683W        W 2299   0.414  39.087   0.792
30684W        W 2300   5.207   9.889  14.806
30685W        W 2301  23.985  25.589  11.134
30686W        W 2302  29.105  33.849   4.072
30687W        W 2303  43.694   1.988   1.504
30688W        W 2304  42.324  14.529   2.222
30689W        W 2305  42.803   9.384   2.669
30690W        W 2306   9.944  38.858  10.967
30691W        W 2307   7.132  19.293  13.078
30692W        W 2308  26.052  19.692   2.734
30693W        W 2309  20.683  13.388  14.246
30694W        W 2310  37.110  35.005   1.870
30695W        W 2311  40.663  21.443   2.812
30696W        W 2312   0.366   3.875  14.245
30697W        W 2313  21.071  33.181  14.124
30698W        W 2314  28.827  13.252  11.507
30699W        W 2315  35.463  44.493   1.719
30700W        W 2316  19.771  30.974  11.092
30701W        W 2317   4.326  18.028  12.105
30702W        W 2318   1.903  43.311  11.588
30703W        W 2319  10.072  38.581  10.533
30704W        W 2320  40.445   2.984  11.168
30705W        W 2321  18.881  35.892  14.918
30706W        W 2322  17.592   5.173   4.452
30707W        W 2323  25.594  11.487   4.504
30708W        W 2324  44.554  23.193  14.282
30709W        W 2325  32.913   4.492   4.819
30710W        W 2326  25.266  20.582   3.275
30711W        W 2327  25.410  35.325  12.283
30712W        W 2328  36.899  43.634   3.697
30713W        W 2329  40.934  22.430   1.392
30714W        W 2330  17.855   7.195   4.535
30715W        W 2331  38.001  18.252   2.286
30716W        W 2332   7.958  35.550  13.776
30717W        W 2333  20.657  16.804   3.147
30718W        W 2334  39.522  34.060  12.503
30719W        W 2335   8.348  37.528  11.597
30720W        W 2336  24.945  43.951  14.588
30721W        W 2337  32.845  36.380  11.027
30722W        W 2338  35.824   0.360   3.145
30723W        W 2339  15.743   7.516   2.796
30724W        W 2340   8.145  37.306  12.453
30725W        W 2341  29.936   4.851   0.177
30726W        W 2342  38.355  31.456   4.641
30727W        W 2343  16.649  18.267  13.865
30728W        W 2344  33.038  42.321   4.462
30729W        W 2345  37.587  27.952   4.645
30730W        W 2346   7.461  11.037  14.373
30731W        W 2347  12.775  19.573   2.788
30732W        W 2348  40.760   5.160  11.184
30733W        W 2349  31.559  30.108   5.448
30734W        W 2350  38.547  18.223   2.950
30735W        W 2351  43.277  16.338   3.779
30736W        W 2352  43.784  10.092  13.050
30737W        W 2353   6.753  42.898   2.438
30738W        W 2354  40.561  34.532   4.937
30739W        W 2355  42.420  34.803   1.386
30740W        W 2356  17.134   9.604  12.059
30741W        W 2357   3.714  13.462   2.233
30742W        W 2358   9.880  13.645  10.763
30743W        W 2359   0.974  30.164   2.874
30744W        W 2360  38.969  29.681   1.158
30745W        W 2361  27.199  32.056  12.354
30746W        W 2362  20.577   7.142  13.834
30747W        W 2363  21.613  32.465   4.332
30748W        W 2364   1.402  17.151  13.890
30749W        W 2365  37.547  36.529  11.530
30750W        W 2366  36.703  37.891   4.152
30751W        W 2367   6.666  10.027   0.816
30752W        W 2368   8.796   5.382  12.091
30753W        W 2369  11.304   1.934   2.365
30754W        W 2370   1.002  33.396   4.107
30755W        W 2371  40.134  29.065  10.838
30756W        W 2372   4.219  18.753   1.544
30757W        W 2373  17.651  38.039   2.623
30758W        W 2374  41.256  33.953   3.733
30759W        W 2375  39.226   1.813  10.442
30760W        W 2376  43.862  24.982   3.853
30761W        W 2377  15.067   9.636  14.811
30762W        W 2378   9.657  39.532  10.901
30763W        W 2379  28.152  20.074  13.076
30764W        W 2380   6.234  41.046  12.451
30765W        W 2381  40.419  44.697   0.826
30766W        W 2382  44.845  42.108  13.890
30767W        W 2383   0.782  43.357   1.178
30768W        W 2384   9.631  21.520  14.754
30769W        W 2385  33.054  14.620  13.888
30770W        W 2386   0.316  30.058  13.076
30771W        W 2387  13.002   3.216   4.082
30772W        W 2388  16.582  42.325   0.365
30773W        W 2389  36.915  39.969   4.333
30774W        W 2390  13.257   3.669   4.081
30775W        W 2391  20.586  29.668   4.672
30776W        W 2392  13.118  42.983   0.197
30777W        W 2393  33.903  30.657   2.314
30778W        W 2394  15.109   5.351  14.049
30779W        W 2395  40.527  44.954  14.738
30780W        W 2396   2.252  43.365   2.695
30781W        W 2397   2.389  32.870   2.291
30782W        W 2398  25.185  28.265  13.950
30783W        W 2399  26.113  14.846   3.808
30784W        W 2400  32.877  34.807  14.961
30785W        W 2401  34.087  44.908   3.167
30786W        W 2402  15.966  31.515  10.540
30787W        W 2403  38.886  43.734   0.839
30788W        W 2404   5.731  35.240  14.837
30789W        W 2405  28.428  27.773   3.716
30790W        W 2406  29.499  37.910  12.659
30791W        W 2407  13.541  13.746  11.186
30792W        W 2408   0.909   1.295  12.062
30793W        W 2409  15.300  33.630   1.553
30794W        W 2410  11.392  15.986   4.952
30795W        W 2411  26.978  33.042  13.723
30796W        W 2412  36.351   0.964   0.029
30797W        W 2413  16.893  13.252  11.343
30798W        W 2414  33.116  42.843  12.144
30799W        W 2415  22.787  35.673   0.908
30800W        W 2416  21.774  25.868   3.854
30801W        W 2417  29.962  43.584   4.107
30802W        W 2418  37.934  10.332  13.406
30803W        W 2419  34.434  18.187  13.260
30804W        W 2420   7.180  16.660   3.688
30805W        W 2421  25.958  32.883  12.037
30806W        W 2422  20.071  10.754  13.131
30807W        W 2423  31.812  22.747   3.808
30808W        W 2424  36.485  44.811  14.585
30809W        W 2425  27.576  36.935   4.420
30810W        W 2426   1.535  24.294  10.924
30811W        W 2427  25.513  14.687  13.535
30812W        W 2428  34.134  26.967   4.710
30813W        W 2429  18.209  17.046  12.392
30814W        W 2430   6.344  15.346  14.405
30815W        W 2431  33.545  21.111   2.603
30816W        W 2432  10.587  10.216  13.885
30817W        W 2433  41.176  32.982   3.826
30818W        W 2434  20.085  22.125  14.585
30819W        W 2435  12.779   8.152   2.289
30820W        W 2436  35.965  14.673  14.881
30821W        W 2437  26.245   9.141   0.246
30822W        W 2438   6.414  39.491   2.818
30823W        W 2439  38.561  23.810   0.744
30824W        W 2440  37.044   0.371   4.005
30825W        W 2441   5.965  22.431   1.396
30826W        W 2442  28.128   8.443  12.475
30827W        W 2443  30.471  36.323  13.999
30828W        W 2444  28.421  30.952   1.232
30829W        W 2445  22.160  27.872   2.754
30830W        W 2446  27.635   9.794  14.310
30831W        W 2447  11.620  35.020  12.501
30832W        W 2448  14.644  40.501  14.048
30833W        W 2449  27.202  27.077   3.637
30834W        W 2450  27.100  10.365   1.305
30835W        W 2451  11.153  17.580   0.811
30836W        W 2452  22.239  23.011  12.788
30837W        W 2453  24.007  38.000  14.157
30838W        W 2454   6.242  21.491  14.380
30839W        W 2455   8.209  36.178   0.186
30840W        W 2456  23.503  23.640  12.542
30841W        W 2457  20.327  44.940   1.112
30842W        W 2458  15.027  24.355  11.592
30843W        W 2459   7.342  14.316   3.833
30844W        W 2460  29.951  35.922  10.759
30845W        W 2461  35.924  26.642   3.551
30846W        W 2462  43.325  25.483   3.121
30847W        W 2463  39.050  28.650  11.584
30848W        W 2464  19.334  21.973  14.594
30849W        W 2465  42.137  36.351   1.067
30850W        W 2466  25.997  33.461  10.638
30851W        W 2467  35.788   4.834  14.590
30852W        W 2468   0.436   1.204  12.295
30853W        W 2469  12.808   6.306   4.526
30854W        W 2470  17.532   9.306  12.227
30855W        W 2471   6.320   2.887   0.914
30856W        W 2472  37.329   5.381  11.882
30857W        W 2473   8.247  23.160   1.389
30858W        W 2474  39.393  39.399   2.135
30859W        W 2475  11.019  42.833  12.883
30860W        W 2476   7.591  13.062  11.132
30861W        W 2477  16.053  38.408  10.743
30862W        W 2478  43.767  34.448   3.123
30863W        W 2479  37.021  41.013   3.335
30864W        W 2480  24.036  22.678   0.384
30865W        W 2481  12.591  35.637   0.143
30866W        W 2482  32.280  16.220   1.021
30867W        W 2483  44.181  20.598   2.869
30868W        W 2484  18.716  28.803   3.218
30869W        W 2485  30.604  36.077   2.288
30870W        W 2486   0.177  22.965   4.249
30871W        W 2487  36.936   7.073   2.435
30872W        W 2488  34.063  21.802  13.976
30873W        W 2489   9.913   5.648  13.921
30874W        W 2490   5.100   7.947  10.496
30875W        W 2491  41.081   2.521   4.199
30876W        W 2492  26.027  30.425   0.541
30877W        W 2493  24.577  23.295  11.186
30878W        W 2494  29.873  32.434   3.258
30879W        W 2495   9.313  34.452   0.697
30880W        W 2496  17.234  43.419  12.074
30881W        W 2497  30.592  15.675   2.194
30882W        W 2498  40.761   8.846   2.769
30883W        W 2499  15.570  12.224   0.487
30884W        W 2500   3.622  17.066   4.052
30885W        W 2501  27.643  41.638   1.025
30886W        W 2502   2.203  15.601   2.880
30887W        W 2503  34.525  39.276   2.611
30888W        W 2504  33.297  22.625  11.552
30889W        W 2505  29.895   6.637   3.356
30890W        W 2506  25.568  20.719  10.627
30891W        W 2507  18.527  17.919  11.266
30892W        W 2508   0.819   3.684   1.294
30893W        W 2509  23.807  28.484  11.783
30894W        W 2510  31.820  16.945   2.971
30895W        W 2511  43.811  15.245  12.118
30896W        W 2512  43.654  13.915  14.371
30897W        W 2513  12.225  30.550  13.589
30898W        W 2514   6.835  25.143   3.580
30899W        W 2515  33.304  23.068  11.862
30900W        W 2516  22.230   8.404   2.407
30901W        W 2517  31.692  29.195   3.000
30902W        W 2518  32.374  34.058  12.824
30903W        W 2519  25.546  26.903  14.021
30904W        W 2520  36.286  14.615   0.286
30905W        W 2521  11.327  39.686   2.481
30906W        W 2522  27.674   9.550  11.724
30907W        W 2523  15.793   6.276   5.054
30908W        W 2524   4.680  18.597   1.391
30909W        W 2525   9.335  29.754  10.951
30910W        W 2526  42.797  36.934   4.596
30911W        W 2527  40.284  12.583   1.304
30912W        W 2528  29.218  35.551   1.441
30913W        W 2529  42.070   2.847   3.967
30914W        W 2530   6.421  36.087  10.657
30915W        W 2531  34.381  35.868  11.230
30916W        W 2532  36.202   9.750   2.376
30917W        W 2533  42.829  25.296  10.118
30918W        W 2534   6.609  15.783  13.311
30919W        W 2535   0.122  14.103   2.319
30920W        W 2536  17.874   1.278  13.464
30921W        W 2537  44.791   8.414   4.100
30922W        W 2538  11.243  23.466  13.672
30923W        W 2539  32.656  34.573   4.677
30924W        W 2540  11.555   5.055  12.024
30925W        W 2541  28.012  15.253  10.692
30926W        W 2542  29.109  21.056  11.432
30927W        W 2543   0.564  23.117   2.794
30928W        W 2544  25.050  22.937  11.969
30929W        W 2545  27.870  42.665   0.998
30930W        W 2546  39.844  12.404  14.563
30931W        W 2547  33.613  15.306  13.074
30932W        W 2548  23.447  42.367  13.107
30933W        W 2549  30.151  38.921   0.439
30934W        W 2550  40.761  29.718  13.337
30935W        W 2551  36.584  40.757   0.957
30936W        W 2552   2.855  33.179   3.543
30937W        W 2553  18.203  23.625   2.258
30938W        W 2554  13.097  10.463  14.256
30939W        W 2555  10.746   0.701  14.071
30940W        W 2556   6.171   1.348  10.463
30941W        W 2557  26.696   5.306   3.674
30942W        W 2558  13.336  20.973  12.148
30943W        W 2559  19.459  15.440  11.978
30944W        W 2560  36.056   5.655   1.147
30945W        W 2561  10.184  10.892   4.119
30946W        W 2562  17.595   2.856   3.802
30947W        W 2563  13.426  11.752  13.979
30948W        W 2564  32.079  17.661   4.521
30949W        W 2565  17.140  27.013  12.400
30950W        W 2566   0.212  32.743   2.852
30951W        W 2567  32.037  36.857   3.425
30952W        W 2568  19.604  37.530   0.878
30953W        W 2569  34.224  11.528   3.641
30954W        W 2570  38.997  19.468  11.555
30955W        W 2571   3.288  24.405   2.796
30956W        W 2572   9.862  22.003  10.639
30957W        W 2573  36.971  32.807   0.248
30958W        W 2574  37.068  23.273   4.103
30959W        W 2575  29.982  15.169  10.901
30960W        W 2576  42.454  36.451  14.707
30961W        W 2577  32.050  43.785  10.660
30962W        W 2578  16.023  16.753  13.442
30963W        W 2579   0.858   5.186  11.550
30964W        W 2580  11.472  33.352   5.099
30965W        W 2581  39.834   4.220  11.061
30966W        W 2582  13.067  19.719   5.003
30967W        W 2583  26.691  34.739   0.235
30968W        W 2584  29.680  24.194  12.595
30969W        W 2585  23.918  30.920  14.468
30970W        W 2586   0.408  27.180  14.144
30971W        W 2587   2.984  21.528   4.232
30972W        W 2588  13.042  39.729  11.534
30973W        W 2589   6.254  36.998   0.225
30974W        W 2590  25.701  39.480   1.818
30975W        W 2591  34.869   8.920  11.343
30976W        W 2592  14.633  40.448   5.052
30977W        W 2593   4.696  17.748  11.868
30978W        W 2594  35.025  21.549   1.328
30979W        W 2595  33.548  26.550  11.345
30980W        W 2596  21.243  19.190  11.055
30981W        W 2597  13.772  38.489   0.430
30982W        W 2598  16.268   1.356   4.821
30983W        W 2599   0.308  11.609  13.092
30984W        W 2600  34.481  36.069  12.054
30985W        W 2601  38.850  19.557  14.495
30986W        W 2602  11.584  31.682   3.873
30987W        W 2603   3.825  11.593  14.301
30988W        W 2604  20.641  27.175  11.717
30989W        W 2605  22.707  27.466  12.686
30990W        W 2606   6.503   0.379  11.177
30991W        W 2607  20.454  23.086   0.787
30992W        W 2608  17.688  17.563  13.714
30993W        W 2609  43.223  12.787   4.895
30994W        W 2610  31.512  38.075   4.190
30995W        W 2611  37.738   8.155   1.335
30996W        W 2612  16.248  28.727  11.438
30997W        W 2613  44.381   0.121   4.624
30998W        W 2614  23.824   6.769  14.313
30999W        W 2615   3.029  17.410  13.838
31000W        W 2616  21.701  10.738   3.132
31001W        W 2617  32.244  10.697  11.107
31002W        W 2618  40.920  12.637  13.302
31003W        W 2619  41.813  39.273  11.127
31004W        W 2620  24.710  20.041  12.982
31005W        W 2621  17.802  41.451  14.948
31006W        W 2622  19.489   8.297   4.047
31007W        W 2623  39.368   6.892   1.514
31008W        W 2624  17.792   9.781  11.442
31009W        W 2625  42.520  17.198   0.427
31010W        W 2626  36.268  25.018  14.602
31011W        W 2627  26.547   1.781   0.907
31012W        W 2628   7.970  23.531  13.336
31013W        W 2629  23.622  36.466   0.857
31014W        W 2630  22.769  41.474   1.487
31015W        W 2631   5.235   6.123  12.903
31016W        W 2632   3.190  18.362   1.451
31017W        W 2633  35.890  29.578   4.554
31018W        W 2634  13.647  21.806   0.288
31019W        W 2635  36.078  18.355   0.964
31020W        W 2636  25.976   2.346   1.259
31021W        W 2637  30.091  38.067  10.883
31022W        W 2638  35.849  36.760   1.025
31023W        W 2639  44.353  13.637  10.394
31024W        W 2640   7.490  34.771   0.727
31025W        W 2641  12.839  14.628  14.884
31026W        W 2642  32.637  41.265   0.181
31027W        W 2643   1.136  10.103  12.529
31028W        W 2644  12.182   9.093  12.507
31029W        W 2645  31.191   1.607  13.781
31030W        W 2646   7.597  44.811   0.998
31031W        W 2647  21.573   1.941   0.471
31032W        W 2648   8.689   9.583  11.045
31033W        W 2649  37.838  21.195  10.510
31034W        W 2650  43.043  22.227  13.485
31035W        W 2651  14.826  16.231  14.708
31036W        W 2652   4.273  33.763  14.505
31037W        W 2653   5.963  38.907  10.695
31038W        W 2654  14.777  23.613   3.110
31039W        W 2655   3.398   9.657   0.971
31040W        W 2656  43.698  33.487  14.403
31041W        W 2657  31.604   8.498   3.417
31042W        W 2658  41.315  19.624  14.308
31043W        W 2659  35.130   0.714   2.635
31044W        W 2660   0.847  11.240   2.898
31045W        W 2661  25.136  24.579   1.833
31046W        W 2662  24.090   3.147   0.154
31047W        W 2663  16.578  16.035   2.258
31048W        W 2664  24.270  35.533  11.304
31049W        W 2665  30.840  21.653   2.272
31050W        W 2666  27.958   9.959   4.362
31051W        W 2667  24.527  18.285  11.084
31052W        W 2668  29.149  37.979  11.332
31053W        W 2669  18.749  16.344   3.401
31054W        W 2670   5.991  11.375   2.224
31055W        W 2671  16.142  30.605   2.663
31056W        W 2672  40.990  37.941   3.273
31057W        W 2673  29.082   9.408  12.956
31058W        W 2674  15.661   7.943  14.549
31059W        W 2675  31.121  13.640   0.368
31060W        W 2676   6.806  34.313   0.014
31061W        W 2677  22.525  31.966   4.185
31062W        W 2678  23.650  41.545   0.931
31063W        W 2679  12.271  16.625  12.014
31064W        W 2680  14.185  28.588  12.082
31065W        W 2681  17.882  19.326   1.611
31066W        W 2682  10.186  33.867  14.928
31067W        W 2683   5.903  32.113  13.499
31068W        W 2684   8.017   6.773  12.345
31069W        W 2685  28.482  44.229  10.566
31070W        W 2686   4.454  14.516  13.454
31071W        W 2687  32.928  23.286   2.968
31072W        W 2688  15.843   3.241  11.092
31073W        W 2689  20.435  12.652  11.104
31074W        W 2690   7.336  30.101   4.955
31075W        W 2691  11.927  12.924   2.776
31076W        W 2692  34.407  36.953   3.389
31077W        W 2693  30.230  30.183   3.533
31078W        W 2694   3.169  28.920  13.197
31079W        W 2695  27.428  32.466  13.896
31080W        W 2696  44.281   1.477  14.444
31081W        W 2697  40.045   4.701  12.486
31082W        W 2698  24.115  44.932  12.400
31083W        W 2699  24.495  32.413  14.841
31084W        W 2700  37.237  12.712   2.297
31085W        W 2701  34.328  38.943   0.178
31086W        W 2702  12.920  34.610  14.769
31087W        W 2703  32.431  40.017  10.683
31088W        W 2704   4.938  27.718  10.621
31089W        W 2705  39.871  43.797   4.168
31090W        W 2706  15.733  24.179   1.838
31091W        W 2707  18.388   2.306   3.760
31092W        W 2708  44.861  34.652   0.886
31093W        W 2709  31.641  26.444   2.112
31094W        W 2710  44.462  22.707  13.053
31095W        W 2711  25.144   1.482   0.391
31096W        W 2712  17.572   5.894   0.298
31097W        W 2713  44.654  13.232   2.710
31098W        W 2714  43.074  25.987   4.023
31099W        W 2715   8.710  22.866  13.347
31100W        W 2716  25.308  18.629  14.001
31101W        W 2717  32.187  21.811  12.592
31102W        W 2718  35.473  21.032   0.794
31103W        W 2719  40.503  20.534   2.630
31104W        W 2720  12.679  19.311  11.929
31105W        W 2721  27.610  16.332   1.766
31106W        W 2722  35.132  35.348  13.881
31107W        W 2723  20.149  32.811   0.309
31108W        W 2724  25.019  29.248  13.950
31109W        W 2725  30.966  18.447   3.575
31110W        W 2726  17.348  20.574   3.468
31111W        W 2727  36.039  36.337   2.333
31112W        W 2728  40.188  19.103  11.867
31113W        W 2729  18.490  32.623   2.219
31114W        W 2730  41.811  23.313   3.260
31115W        W 2731  33.667  14.199   4.469
31116W        W 2732  35.284  37.639   4.876
31117W        W 2733   1.047   0.787   1.408
31118W        W 2734  29.442  41.852  13.337
31119W        W 2735  31.915  21.372  10.355
31120W        W 2736  14.541  17.083  11.084
31121W        W 2737  18.754  27.611  13.001
31122W        W 2738  39.095  37.871   2.669
31123W        W 2739  13.168  23.833  10.655
31124W        W 2740  25.792   9.741   0.759
31125W        W 2741  23.724  44.209   2.872
31126W        W 2742  42.733  35.128   0.384
31127W        W 2743  31.953   1.821   3.846
31128W        W 2744   4.504  38.524   4.641
31129W        W 2745  44.927  17.113   1.494
31130W        W 2746  15.612  40.948  13.351
31131W        W 2747  33.000  42.853   3.695
31132W        W 2748  16.062  11.130   1.253
31133W        W 2749   3.669  32.959   1.726
31134W        W 2750  34.882   0.401  12.480
31135W        W 2751  43.518  11.391   3.786
31136W        W 2752  41.128  20.501  14.410
31137W        W 2753   0.568   4.880   3.644
31138W        W 2754  14.694  23.594   2.086
31139W        W 2755  14.717   2.359  13.333
31140W        W 2756  17.605  21.204  10.091
31141W        W 2757  40.210  34.622  13.352
31142W        W 2758  39.606   9.585   2.262
31143W        W 2759  20.733   7.184   4.056
31144W        W 2760   5.846  27.551  11.074
31145W        W 2761  23.289  32.583  12.918
31146W        W 2762   8.900  30.961   4.073
31147W        W 2763  11.935  19.897  13.730
31148W        W 2764  38.290  23.985   2.191
31149W        W 2765   4.357  44.169   2.405
31150W        W 2766  31.697   2.702  14.455
31151W        W 2767  41.497  38.082  10.339
31152W        W 2768   0.920  12.327  14.890
31153W        W 2769  18.042  30.541  11.152
31154W        W 2770  28.707   8.093   4.338
31155W        W 2771  31.018  24.014  14.533
31156W        W 2772  35.377  42.365  14.103
31157W        W 2773  10.133  16.555  12.084
31158W        W 2774  18.073   7.748   0.848
31159W        W 2775  43.931  41.975  10.712
31160W        W 2776  42.592  22.477   1.043
31161W        W 2777  31.592   5.987   3.749
31162W        W 2778  25.256  21.424  12.081
31163W        W 2779   0.701  33.932  14.442
31164W        W 2780  12.100   3.317   2.142
31165W        W 2781   1.953  23.473   2.774
31166W        W 2782  17.686  16.558  13.919
31167W        W 2783   8.270  25.105  12.010
31168W        W 2784  32.513  22.928   0.685
31169W        W 2785  33.084   3.153   2.466
31170W        W 2786  16.764   6.707   3.773
31171W        W 2787   6.506   8.612  13.927
31172W        W 2788   1.217   3.717   4.737
31173W        W 2789  35.526  37.925  13.020
31174W        W 2790  10.292  40.598   4.079
31175W        W 2791  36.434  12.897   4.770
31176W        W 2792  25.053  39.599   3.189
31177W        W 2793  26.084  11.267   0.374
31178W        W 2794  44.479  43.198  14.124
31179W        W 2795  38.449  15.759  12.001
31180W        W 2796   3.502  41.198   0.227
31181W        W 2797  24.891  28.250  12.974
31182W        W 2798  27.028  20.763   0.822
31183W        W 2799  24.699  29.178  13.185
31184W        W 2800  43.194  33.406   0.824
31185W        W 2801  19.853   9.239  12.039
31186W        W 2802  15.954  37.555   3.218
31187W        W 2803   8.784   5.141   0.514
31188W        W 2804  36.619  19.614   2.825
31189W        W 2805  42.929  26.381   4.804
31190W        W 2806  22.736  42.817  11.099
31191W        W 2807  14.143   2.999   2.179
31192W        W 2808  11.695  31.176   3.786
31193W        W 2809  12.111  18.180   1.282
31194W        W 2810   8.686  21.503   3.202
31195W        W 2811  15.186  44.489  12.909
31196W        W 2812  42.809  10.813  13.379
31197W        W 2813  12.438  19.775   0.766
31198W        W 2814   9.729  33.073  11.738
31199W        W 2815  31.994  27.019   4.976
31200W        W 2816  26.477   0.399   4.166
31201W        W 2817  27.937  20.773  14.754
31202W        W 2818  37.367  27.734  11.153
31203W        W 2819   2.557  39.700  13.950
31204W        W 2820  23.820  38.897   9.532
31205W        W 2821  24.062  10.061   3.628
31206W        W 2822  24.201  25.631  13.787
31207W        W 2823   7.026  29.900   0.819
31208W        W 2824  37.069  19.855   4.281
31209W        W 2825  20.507  31.858   3.713
31210W        W 2826  35.534   4.558   4.997
31211W        W 2827   0.263  31.716   0.782
31212W        W 2828  24.049  20.734  13.895
31213W        W 2829  37.181  30.641  14.003
31214W        W 2830  43.369   1.198  14.920
31215W        W 2831  10.830   3.221   1.016
31216W        W 2832   7.922  34.944   0.084
31217W        W 2833  27.110  17.823  13.538
31218W        W 2834   9.132  28.080   4.681
31219W        W 2835  42.027  19.927   1.045
31220W        W 2836  28.117  24.680   3.895
31221W        W 2837  21.327   6.634   4.123
31222W        W 2838  26.518   9.658   4.242
31223W        W 2839   1.946   4.176  14.231
31224W        W 2840  44.225  24.908   4.625
31225W        W 2841  42.478  27.090   3.770
31226W        W 2842  16.971  22.135   0.234
31227W        W 2843  44.771  33.117  14.814
31228W        W 2844  14.717  18.333  13.538
31229W        W 2845   4.177  39.919   1.912
31230W        W 2846  10.964  29.617  13.207
31231W        W 2847  15.126  13.118  13.780
31232W        W 2848  29.420  24.818   4.592
31233W        W 2849   6.957  29.060  11.606
31234W        W 2850  23.582   3.696  10.797
31235W        W 2851  18.661   5.911   0.800
31236W        W 2852  30.926  38.776   3.305
31237W        W 2853   0.697   8.701   1.243
31238W        W 2854  41.542  32.238   9.914
31239W        W 2855  35.492  13.034   4.638
31240W        W 2856  42.690   1.014   2.300
31241W        W 2857  34.093  28.291  12.515
31242W        W 2858  31.845  13.860  12.998
31243W        W 2859  37.445  13.554   0.276
31244W        W 2860  24.497   1.343   2.721
31245W        W 2861  29.640   4.893   2.911
31246W        W 2862   7.310   1.691   4.159
31247W        W 2863  25.589   5.687  11.892
31248W        W 2864  25.115  17.855   1.534
31249W        W 2865  27.793  18.202   2.521
31250W        W 2866  17.305  41.494  12.525
31251W        W 2867  32.673  15.712   1.378
31252W        W 2868  22.734  40.038   4.510
31253W        W 2869  29.660  44.470  13.593
31254W        W 2870  37.621  36.650   1.753
31255W        W 2871  10.771  24.087  13.412
31256W        W 2872  35.073  30.151   1.075
31257W        W 2873  29.127   7.466   1.956
31258W        W 2874   5.787  21.894   0.892
31259W        W 2875  25.787   7.308   3.034
31260W        W 2876  44.261  36.857   4.222
31261W        W 2877  21.182  22.502   2.625
31262W        W 2878  38.814   1.984   3.231
31263W        W 2879  29.518  30.565  13.091
31264W        W 2880  34.825  12.310  11.573
31265W        W 2881  41.574  28.300  13.827
31266W        W 2882  38.583  14.633  14.883
31267W        W 2883  17.064  36.239  11.132
31268W        W 2884   3.190  36.267   1.255
31269W        W 2885   0.095  36.384   5.004
31270W        W 2886  22.815  32.590   0.450
31271W        W 2887  36.408  34.322   0.821
31272W        W 2888  15.608  35.027   4.553
31273W        W 2889  40.565  17.669  12.468
31274W        W 2890  16.033  30.496   4.156
31275W        W 2891  31.218  11.315  12.130
31276W        W 2892  27.033  43.361   1.435
31277W        W 2893   1.963   6.342  13.538
31278W        W 2894   1.822  22.000  13.827
31279W        W 2895  36.334  31.107  12.152
31280W        W 2896  35.926   4.904   3.301
31281W        W 2897  18.360  43.816   4.778
31282W        W 2898   9.645  26.470   1.823
31283W        W 2899  36.528  19.116  11.947
31284W        W 2900  21.049  33.607   4.635
31285W        W 2901   3.371  30.963   2.118
31286W        W 2902  23.212  29.626   4.718
31287W        W 2903  27.019  44.244  14.725
31288W        W 2904  29.790  13.230   5.073
31289W        W 2905  41.005  22.556   4.562
31290W        W 2906  31.699  20.113  12.963
31291W        W 2907  11.808  23.048  13.118
31292W        W 2908   8.072  26.539  14.715
31293W        W 2909  19.756  30.651  10.671
31294W        W 2910  31.849   7.251   1.649
31295W        W 2911  23.584  35.580  14.556
31296W        W 2912   4.896   4.442   1.780
31297W        W 2913  24.218  42.751   2.109
31298W        W 2914  44.704  29.100   4.502
31299W        W 2915  37.007   1.891  12.634
31300W        W 2916  13.788  12.774  11.618
31301W        W 2917  26.213   0.385   1.990
31302W        W 2918   3.769  10.308   4.579
31303W        W 2919   1.462  19.676  10.650
31304W        W 2920  27.876  25.060   4.126
31305W        W 2921  29.629  32.922  12.484
31306W        W 2922   2.299  43.083  10.336
31307W        W 2923  12.795  36.096   3.617
31308W        W 2924  36.531  32.291  10.316
31309W        W 2925  33.653  43.421  14.952
31310W        W 2926   3.536  27.123  13.043
31311W        W 2927   3.435  34.006  13.452
31312W        W 2928  21.019  11.395  10.673
31313W        W 2929   7.681  35.610  10.982
31314W        W 2930  11.725  24.204   2.969
31315W        W 2931  36.273  38.583   0.040
31316W        W 2932  28.456  43.522   4.381
31317W        W 2933   1.605  36.689   2.802
31318W        W 2934   4.467  37.090  11.467
31319W        W 2935  44.989  22.495  11.698
31320W        W 2936  19.795  11.123   2.756
31321W        W 2937   4.401   6.439   3.159
31322W        W 2938  24.975   5.113   0.301
31323W        W 2939  28.428  17.200   1.213
31324W        W 2940  11.385   4.336   4.302
31325W        W 2941  20.259   9.236   1.706
31326W        W 2942  43.866  13.187   1.898
31327W        W 2943   6.873  11.444  13.154
31328W        W 2944  31.333   2.122   5.561
31329W        W 2945  24.950   2.334   1.457
31330W        W 2946  35.272  27.023  14.521
31331W        W 2947  27.896  15.244  13.514
31332W        W 2948   6.245  44.755   1.757
31333W        W 2949  12.603  31.640  14.381
31334W        W 2950  37.505  31.502   1.642
31335W        W 2951   4.776  21.237  11.164
31336W        W 2952  20.211  31.649   3.218
31337W        W 2953  32.933  11.080  11.032
31338W        W 2954  14.803  19.306  10.589
31339W        W 2955  24.047   1.228  13.418
31340W        W 2956  17.972  43.978   2.339
31341W        W 2957  27.527   6.249   2.614
31342W        W 2958  43.424  11.135   2.836
31343W        W 2959   8.487  33.925  13.068
31344W        W 2960   5.518  32.863   2.275
31345W        W 2961  43.017  11.399   3.785
31346W        W 2962  34.131   0.352   2.342
31347W        W 2963   2.215  19.626   4.661
31348W        W 2964   4.865  27.208  14.384
31349W        W 2965  37.349  32.983  14.380
31350W        W 2966  25.472  16.189  14.411
31351W        W 2967  38.344   9.140   0.940
31352W        W 2968  31.918   8.147  12.014
31353W        W 2969  11.976  32.552  11.628
31354W        W 2970  21.366  24.776  13.486
31355W        W 2971  11.916   6.392   1.408
31356W        W 2972  23.026  31.632  10.911
31357W        W 2973  35.542  37.148   4.296
31358W        W 2974  43.419  36.540   0.872
31359W        W 2975  44.336  24.721  14.348
31360W        W 2976  39.372  31.523  13.162
31361W        W 2977   7.730  38.916  12.516
31362W        W 2978  11.671  34.199  12.218
31363W        W 2979  18.319  23.209  14.764
31364W        W 2980  34.056  27.916  14.318
31365W        W 2981   1.524  16.135   1.612
31366W        W 2982  18.328  31.960   0.227
31367W        W 2983  29.622   4.209  14.011
31368W        W 2984  32.857  29.340   3.347
31369W        W 2985  14.256  34.315  12.017
31370W        W 2986  27.489  22.510   3.782
31371W        W 2987  32.104  13.106   1.752
31372W        W 2988  26.016  22.675  14.449
31373W        W 2989  37.318  32.076   4.163
31374W        W 2990  23.054  44.268  13.109
31375W        W 2991  10.403  29.098   1.722
31376W        W 2992   8.941  27.153   2.720
31377W        W 2993  24.460   4.008   2.712
31378W        W 2994   2.795  21.619  13.832
31379W        W 2995  36.357  10.645  11.171
31380W        W 2996  18.504  24.693   1.857
31381W        W 2997  37.379   8.993  13.811
31382W        W 2998  32.113  44.447  13.761
31383W        W 2999  26.173   0.509   0.291
31384W        W 3000  36.387  42.665   0.931
31385W        W 3001  11.409  28.060   2.174
31386W        W 3002  18.465  39.909  13.764
31387W        W 3003  13.769  30.397   2.570
31388W        W 3004  26.210  34.861   0.376
31389W        W 3005   2.141  28.092  13.248
31390W        W 3006   5.721  23.427  11.071
31391W        W 3007   4.462   8.813  14.415
31392W        W 3008   2.112  27.687   1.793
31393W        W 3009  43.406  38.614  10.828
31394W        W 3010  30.342   9.663   2.438
31395W        W 3011  17.607  15.212  12.625
31396W        W 3012   4.666  39.062   2.800
31397W        W 3013  44.373  41.005  14.465
31398W        W 3014   5.976  38.493   3.249
31399W        W 3015  30.096  19.791   1.413
31400W        W 3016  33.027  12.769   4.596
31401W        W 3017   4.903  17.382   3.628
31402W        W 3018   8.138   0.409  13.440
31403W        W 3019  25.095  16.670   0.439
31404W        W 3020  12.954  44.890   1.737
31405W        W 3021  30.979  19.246  12.414
31406W        W 3022  38.732  43.429   4.166
31407W        W 3023   3.813  12.165   2.918
31408W        W 3024  26.877  34.662   3.324
31409W        W 3025   2.219   8.160   2.692
31410W        W 3026   6.687  43.266   3.240
31411W        W 3027  14.290  43.335   0.870
31412W        W 3028  37.555  23.938   2.344
31413W        W 3029  44.325  31.442  14.010
31414W        W 3030  28.343  20.135   1.221
31415W        W 3031  38.438  24.755   0.526
31416W        W 3032   5.145  37.198   5.119
31417W        W 3033  30.943  21.007   4.328
31418W        W 3034  32.411   0.307   3.594
31419W        W 3035   2.278  21.572   1.143
31420W        W 3036  33.214   3.252  11.133
31421W        W 3037  31.167  21.514  12.364
31422W        W 3038   7.593  42.718  13.378
31423W        W 3039  22.416  12.755  14.973
31424W        W 3040  16.551  42.946   0.812
31425W        W 3041  27.147  10.736  12.313
31426W        W 3042  11.879  18.685   0.066
31427W        W 3043  38.922  42.717   2.555
31428W        W 3044   7.427  27.690  12.110
31429W        W 3045  33.996  38.896  10.506
31430W        W 3046  23.296  43.914   3.202
31431W        W 3047  35.546  13.863   4.179
31432W        W 3048  43.907  26.021  13.582
31433W        W 3049  26.061  28.557   0.565
31434W        W 3050  17.487  40.828   3.780
31435W        W 3051   6.430   0.696   4.138
31436W        W 3052  36.239   6.120   5.011
31437W        W 3053  24.078  35.098   4.648
31438W        W 3054  11.221  12.379  12.501
31439W        W 3055  34.457  33.028  10.239
31440W        W 3056   1.998   5.937   1.289
31441W        W 3057  28.227  14.706   4.119
31442W        W 3058  16.995  19.629   0.687
31443W        W 3059  24.544  42.449   4.452
31444W        W 3060  22.502  13.585   3.279
31445W        W 3061   0.610   4.786  13.422
31446W        W 3062  21.292  23.957  13.005
31447W        W 3063  13.111   2.492  11.422
31448W        W 3064  38.783  44.480   0.321
31449W        W 3065  39.070  40.778  12.249
31450W        W 3066  34.187  21.456  11.206
31451W        W 3067  13.900  16.668   1.250
31452W        W 3068   5.235  20.062   0.539
31453W        W 3069  32.219  12.302   4.481
31454W        W 3070  35.961   7.938  13.826
31455W        W 3071  41.316  18.489  10.961
31456W        W 3072  38.779  43.961   0.347
31457W        W 3073  12.092  16.099  13.730
31458W        W 3074  13.306  17.595   2.678
31459W        W 3075  12.653  31.388  11.972
31460W        W 3076  43.177  40.399  13.599
31461W        W 3077  18.949  12.697  11.164
31462W        W 3078  26.621  43.539   0.023
31463W        W 3079   2.719  31.519   4.954
31464W        W 3080  11.304  44.913   0.058
31465W        W 3081   9.435  30.574   3.095
31466W        W 3082   3.783  13.186  10.739
31467W        W 3083  35.431  15.108  11.573
31468W        W 3084   2.338   1.154   2.203
31469W        W 3085  44.743  41.975  12.881
31470W        W 3086   1.936  28.852   1.791
31471W        W 3087   8.722  18.793   0.016
31472W        W 3088   9.351  21.023   0.987
31473W        W 3089  38.956   6.611   0.742
31474W        W 3090  14.831  21.229   1.379
31475W        W 3091   3.955  10.366   3.755
31476W        W 3092  37.037  10.448   2.907
31477W        W 3093   9.171  32.391  12.172
31478W        W 3094  32.099  26.085   0.898
31479W        W 3095  27.932  22.443  13.343
31480W        W 3096   7.388  27.949  14.936
31481W        W 3097   8.403   4.442   4.671
31482W        W 3098   5.397   9.723   4.211
31483W        W 3099  23.781  12.368  12.079
31484W        W 3100  15.965  26.136   3.316
31485W        W 3101  15.360  37.982  13.116
31486W        W 3102   2.028  37.081   2.208
31487W        W 3103  14.252   3.370   2.528
31488W        W 3104  11.170  23.717   2.418
31489W        W 3105  25.468  44.413  11.098
31490W        W 3106   9.332  12.181  13.497
31491W        W 3107  32.550  32.174  13.434
31492W        W 3108  20.305  10.994  14.423
31493W        W 3109  20.782  13.376   2.173
31494W        W 3110   7.545  23.699   4.434
31495W        W 3111  35.611   7.139   3.295
31496W        W 3112  15.874  27.630   0.370
31497W        W 3113   1.187  13.306   3.338
31498W        W 3114   1.546  40.382   2.590
31499W        W 3115  16.109  13.811   2.615
31500W        W 3116  22.803  29.227  11.613
31501W        W 3117  35.371  20.728  13.082
31502W        W 3118  30.367   0.708   3.676
31503W        W 3119  28.981  16.070   1.446
31504W        W 3120  26.193  31.302   1.032
31505W        W 3121  23.057  16.373   3.129
31506W        W 3122  12.690  42.795   4.119
31507W        W 3123  41.588  10.794   2.245
31508W        W 3124  39.024   5.914  12.178
31509W        W 3125  36.287  13.160  13.750
31510W        W 3126  33.349  19.687   2.276
31511W        W 3127  40.946  29.730  14.254
31512W        W 3128  29.065   3.049  11.142
31513W        W 3129  19.055  26.564  14.314
31514W        W 3130   4.703  21.849   0.712
31515W        W 3131  23.482  23.940   1.262
31516W        W 3132  30.439  34.052  11.204
31517W        W 3133   0.117  24.511   0.491
31518W        W 3134  17.524   0.764   0.798
31519W        W 3135  35.385  22.595   2.863
31520W        W 3136  38.541  35.159   0.241
31521W        W 3137  40.959   4.435   3.081
31522W        W 3138  23.146  31.031  12.103
31523W        W 3139  43.757   2.937  10.656
31524W        W 3140   8.981  17.545   0.328
31525W        W 3141   1.434  32.607  11.607
31526W        W 3142  42.293  16.753   0.307
31527W        W 3143  14.787  14.851  11.966
31528W        W 3144  10.766   3.793   1.787
31529W        W 3145  10.896   4.176   0.506
31530W        W 3146  14.782  38.479   4.417
31531W        W 3147  33.878  10.163  14.792
31532W        W 3148  33.811  34.429  14.400
31533W        W 3149   3.512  12.095  12.139
31534W        W 3150  39.965  35.797   4.198
31535W        W 3151  30.303   3.763  11.964
31536W        W 3152  39.823  20.230   0.421
31537W        W 3153  35.778   8.584   3.969
31538W        W 3154  22.132  37.863   0.292
31539W        W 3155   7.817   3.203   3.217
31540W        W 3156   4.666   3.576  11.588
31541W        W 3157   3.429  28.247  12.359
31542W        W 3158   7.920  32.479   0.469
31543W        W 3159  38.921  10.656  14.409
31544W        W 3160  17.722  42.074   2.768
31545W        W 3161   9.162  24.744   0.692
31546W        W 3162  39.655   1.451  14.067
31547W        W 3163  31.418  11.158   1.367
31548W        W 3164  18.343   7.443   3.060
31549W        W 3165  40.341  44.360   0.334
31550W        W 3166  26.781  35.355   2.745
31551W        W 3167   1.812  35.281   0.682
31552W        W 3168   1.850  29.698   2.321
31553W        W 3169  17.090  12.341   1.715
31554W        W 3170  36.137  33.041   3.737
31555W        W 3171  32.819  23.081   3.459
31556W        W 3172  34.062  38.388  13.945
31557W        W 3173  16.420  16.179  11.590
31558W        W 3174   2.378  12.330   0.382
31559W        W 3175   8.001  26.076  11.655
31560W        W 3176  22.073  22.800  13.783
31561W        W 3177  36.642  11.612   1.602
31562W        W 3178  42.407  29.461  12.175
31563W        W 3179  41.766   4.904  13.002
31564W        W 3180  22.804  27.212   3.914
31565W        W 3181  20.835   9.561  14.782
31566W        W 3182  34.029  29.167   4.349
31567W        W 3183  40.583  14.685   2.698
31568W        W 3184  20.507  36.033   3.234
31569W        W 3185  44.857   7.179   0.197
31570W        W 3186  16.792   7.905   2.288
31571W        W 3187  38.258  38.135   4.590
31572W        W 3188   4.836  16.250  13.153
31573W        W 3189  34.474  18.257  13.797
31574W        W 3190   8.143  37.835  12.489
31575W        W 3191  22.922  25.244  13.369
31576W        W 3192   0.192  41.064   0.908
31577W        W 3193   5.613  18.155  14.480
31578W        W 3194  43.694   0.736  12.022
31579W        W 3195  20.327  38.119   3.282
31580W        W 3196  21.181  19.527   4.608
31581W        W 3197  24.496  11.950   2.101
31582W        W 3198  18.088  12.910   0.684
31583W        W 3199  24.060   7.183  13.814
31584W        W 3200  38.041  32.601   3.794
31585W        W 3201  30.152  31.375  13.590
31586W        W 3202  36.025  14.128   1.067
31587W        W 3203   9.370  25.017   2.778
31588W        W 3204  31.836  44.860   1.899
31589W        W 3205  36.037  44.595  12.501
31590W        W 3206  24.465  37.803  11.012
31591W        W 3207  38.878  27.822   4.144
31592W        W 3208  23.054  23.091  12.157
31593W        W 3209  23.069  40.611   0.962
31594W        W 3210  19.331  40.534   3.829
31595W        W 3211  19.897  28.392   3.801
31596W        W 3212  12.548  39.285   2.273
31597W        W 3213   0.917   3.584  11.475
31598W        W 3214  12.798   2.954   4.513
31599W        W 3215  30.681  17.197  12.872
31600W        W 3216   4.319  11.116  11.583
31601W        W 3217  19.968  44.978   0.734
31602W        W 3218  16.655  41.351   2.363
31603W        W 3219  26.086  15.713   9.901
31604W        W 3220   0.466   6.231   5.050
31605W        W 3221  36.097  15.804  13.063
31606W        W 3222  39.331  22.299  12.872
31607W        W 3223   8.405  37.160  11.996
31608W        W 3224   9.561  13.156   1.391
31609W        W 3225  36.943   7.088  12.359
31610W        W 3226  39.837  34.272  13.321
31611W        W 3227  14.632  31.150  13.921
31612W        W 3228  41.928  27.107  12.952
31613W        W 3229  15.213  19.423  14.886
31614W        W 3230  44.846  11.200  14.017
31615W        W 3231  20.537  10.172  10.530
31616W        W 3232  22.565  17.007  12.785
31617W        W 3233  44.824  38.898   1.791
31618W        W 3234  19.139   2.723   0.307
31619W        W 3235   7.229  12.817   0.275
31620W        W 3236  32.549  22.808  13.881
31621W        W 3237  21.099  14.047  11.650
31622W        W 3238  17.243  27.561  11.068
31623W        W 3239  24.526  17.288   0.485
31624W        W 3240  31.986  44.198   3.004
31625W        W 3241  13.869  25.621   3.306
31626W        W 3242   0.656  29.236   2.764
31627W        W 3243   5.805  17.299  12.734
31628W        W 3244  21.559  38.019  10.640
31629W        W 3245  42.719  37.374   3.428
31630W        W 3246  18.221  18.657   1.102
31631W        W 3247  36.285   6.190  14.135
31632W        W 3248   5.630  40.546   3.764
31633W        W 3249  12.757  42.954  14.724
31634W        W 3250  22.984   2.171   2.474
31635W        W 3251  39.986   7.279  10.605
31636W        W 3252  27.229  36.263   2.327
31637W        W 3253  21.782  23.205  12.603
31638W        W 3254  17.238  34.480   4.266
31639W        W 3255   8.400  19.214   3.175
31640W        W 3256   6.287   4.206  12.152
31641W        W 3257  35.055  32.064   4.612
31642W        W 3258  36.580  11.931  14.459
31643W        W 3259   4.422   2.606  11.407
31644W        W 3260  12.444  11.643  13.930
31645W        W 3261  14.771  19.808  11.505
31646W        W 3262   2.527  29.617  11.700
31647W        W 3263  16.081   9.915  10.680
31648W        W 3264  33.574  27.419   4.114
31649W        W 3265  12.833   3.899  11.309
31650W        W 3266  13.790  24.050   0.767
31651W        W 3267  40.342  38.515  10.393
31652W        W 3268  10.290  26.713   0.748
31653W        W 3269  32.878  35.886   0.731
31654W        W 3270  22.178  15.033   3.207
31655W        W 3271   8.972  23.696   4.179
31656W        W 3272  30.678   4.858   4.130
31657W        W 3273  34.988  16.649  11.006
31658W        W 3274   8.831  10.566   4.034
31659W        W 3275  34.206   7.268   4.603
31660W        W 3276  26.068  20.236  14.307
31661W        W 3277  13.877  21.126   2.883
31662W        W 3278  33.582  24.570  12.055
31663W        W 3279  29.177   9.355   1.170
31664W        W 3280   0.194  24.361  12.602
31665W        W 3281  19.567  30.543  11.459
31666W        W 3282  16.574  16.577   3.298
31667W        W 3283  29.069  10.898   4.670
31668W        W 3284  38.735  35.312   1.331
31669W        W 3285   3.930  31.137   3.277
31670W        W 3286   3.637   4.865   2.311
31671W        W 3287  16.852  36.080  14.048
31672W        W 3288  32.541  27.520  13.760
31673W        W 3289  13.211  29.001   2.918
31674W        W 3290  15.036  22.540  13.463
31675W        W 3291   1.051  38.119  14.480
31676W        W 3292  26.078  10.166   1.268
31677W        W 3293  42.113   5.221   3.400
31678W        W 3294  20.556   4.187  12.061
31679W        W 3295  27.745  25.243  11.991
31680W        W 3296  42.014  35.439  11.413
31681W        W 3297  29.391  21.233   2.774
31682W        W 3298  30.104  32.006   4.345
31683W        W 3299  22.068   3.520   2.017
31684W        W 3300  21.794   8.927   5.029
31685W        W 3301  42.909  30.898   4.057
31686W        W 3302   0.502  42.298   0.279
31687W        W 3303  44.532   7.284   4.566
31688W        W 3304  15.208  16.286  14.304
31689W        W 3305  31.372  35.923  13.290
31690W        W 3306  17.141  30.403   5.018
31691W        W 3307   4.399   4.942  11.592
31692W        W 3308  38.619  35.468  13.337
31693W        W 3309  40.706  19.070   1.774
31694W        W 3310  26.435  41.082  13.519
31695W        W 3311  29.214  43.473   2.904
31696W        W 3312  43.548  43.249  11.599
31697W        W 3313  17.458   4.186   0.405
31698W        W 3314  34.040  41.291   2.833
31699W        W 3315  12.892  13.694  14.899
31700W        W 3316   1.496   7.962   3.240
31701W        W 3317   5.803  43.957  13.462
31702W        W 3318  39.261  29.105  12.116
31703W        W 3319   5.234  18.150  14.068
31704W        W 3320  33.600  44.046  10.720
31705W        W 3321  17.596   2.687  13.424
31706W        W 3322  22.582  41.258  11.090
31707W        W 3323  18.628  25.481   1.478
31708W        W 3324  13.079  12.151   4.605
31709W        W 3325  11.246  29.145   4.325
31710W        W 3326  20.532   4.328  11.568
31711W        W 3327  33.755  29.560   3.657
31712W        W 3328   4.153  26.775   4.216
31713W        W 3329  12.390   7.398  13.845
31714W        W 3330  11.792  40.374  10.949
31715W        W 3331  24.295  25.835  14.315
31716W        W 3332  31.130  40.307  10.818
31717W        W 3333   9.804  23.751  13.337
31718W        W 3334  29.701  22.335   1.442
31719W        W 3335  32.463   4.936  10.727
31720W        W 3336   4.836  15.582  10.247
31721W        W 3337  19.279  37.081  12.880
31722W        W 3338  18.794   4.622  12.811
31723W        W 3339   6.700  41.528   1.539
31724W        W 3340  42.433   5.925  12.456
31725W        W 3341  19.160  18.043  11.255
31726W        W 3342  14.394  15.292  14.440
31727W        W 3343  44.906  39.409  10.691
31728W        W 3344  25.543  33.043  11.718
31729W        W 3345  32.685  34.403   0.255
31730W        W 3346  38.280  10.047  14.520
31731W        W 3347  18.836  37.987  10.903
31732W        W 3348  25.788  27.934  11.508
31733W        W 3349  20.237  11.641   2.901
31734W        W 3350  34.026  36.521  10.664
31735W        W 3351  37.347  23.940  11.640
31736W        W 3352   9.240   0.451   3.466
31737W        W 3353  12.967  18.030  10.723
31738W        W 3354   0.514  43.266   0.334
31739W        W 3355  17.000  30.349   1.649
31740W        W 3356  17.884  31.533  14.426
31741W        W 3357  41.201  18.639  14.493
31742W        W 3358   9.275  17.210  13.518
31743W        W 3359  11.123   9.717   3.237
31744W        W 3360   6.418  40.968   1.366
31745W        W 3361  14.538  39.969  10.759
31746W        W 3362   4.999   1.776   2.679
31747W        W 3363  13.800  39.480   4.421
31748W        W 3364  39.647  36.598  12.853
31749W        W 3365  16.685  23.475  12.467
31750W        W 3366  29.129   7.356  11.647
31751W        W 3367  21.600  42.737  13.345
31752W        W 3368  38.994  37.346   0.683
31753W        W 3369  35.538  20.282   3.156
31754W        W 3370   0.866  37.505  13.682
31755W        W 3371  18.792   3.313  11.630
31756W        W 3372  44.232   0.618   4.601
31757W        W 3373  36.962   8.879   3.683
31758W        W 3374  11.671  25.264  13.874
31759W        W 3375  25.959  27.105  11.150
31760W        W 3376  23.121  10.431   0.167
31761W        W 3377  38.734  39.089  11.631
31762W        W 3378  30.634  42.809  12.882
31763W        W 3379  42.818   7.305   2.726
31764W        W 3380  18.348  31.397  14.275
31765W        W 3381  13.656  12.041   2.304
31766W        W 3382  19.898   2.468   3.807
31767W        W 3383  13.678  14.924  12.101
31768W        W 3384  14.896  36.705   3.159
31769W        W 3385   3.792  28.024  11.614
31770W        W 3386  40.584  34.138  10.757
31771W        W 3387  35.285   9.309  11.213
31772W        W 3388  11.121  21.456   1.928
31773W        W 3389  32.646   0.821  14.422
31774W        W 3390  35.146  18.808   4.118
31775W        W 3391   4.174  14.654   3.353
31776W        W 3392  37.901   6.440   2.117
31777W        W 3393  21.740   1.596   3.857
31778W        W 3394  31.667  29.672  10.552
31779W        W 3395  39.727  22.635  12.830
31780W        W 3396  25.023  29.876   3.301
31781W        W 3397  42.873  26.685  13.856
31782W        W 3398  31.561  34.917   2.441
31783W        W 3399  32.345  35.572  10.696
31784W        W 3400  19.869  25.050  11.209
31785W        W 3401  37.452  28.949   4.717
31786W        W 3402  18.947  40.762   3.580
31787W        W 3403   0.881  33.583   2.702
31788W        W 3404  29.144   3.377  12.991
31789W        W 3405  12.853  15.633  11.060
31790W        W 3406  16.541  12.071  13.142
31791W        W 3407   8.522  33.618   2.526
31792W        W 3408  16.313  17.039  14.833
31793W        W 3409  36.542  10.165  12.446
31794W        W 3410  41.473  18.403  14.883
31795W        W 3411  34.401  11.237  12.344
31796W        W 3412   4.332  33.956  10.644
31797W        W 3413  28.188  17.747  11.961
31798W        W 3414  26.626  10.544   3.297
31799W        W 3415  26.114  38.023  13.171
31800W        W 3416   6.430  36.380   3.678
31801W        W 3417  12.970   6.017   4.992
31802W        W 3418  38.719  14.610   4.371
31803W        W 3419   0.505   5.241   0.165
31804W        W 3420  33.655  13.190  14.865
31805W        W 3421  13.728  22.793  13.830
31806W        W 3422  35.732  29.474   1.454
31807W        W 3423  24.098   4.654   1.400
31808W        W 3424   0.644  19.997  11.577
31809W        W 3425  11.899  33.800  12.023
31810W        W 3426  27.647  36.372  13.762
31811W        W 3427  11.379  42.410  14.476
31812W        W 3428  30.406  14.939   4.690
31813W        W 3429  29.576  30.535  12.048
31814W        W 3430  28.142  33.093   9.948
31815W        W 3431  33.138   9.608  11.613
31816W        W 3432  21.220  42.765  14.014
31817W        W 3433   2.462  39.386   0.838
31818W        W 3434  44.823   5.312  11.927
31819W        W 3435  15.331   9.390   2.831
31820W        W 3436   4.941   3.255   4.670
31821W        W 3437   9.302  16.829   0.399
31822W        W 3438  23.989  16.157  13.361
31823W        W 3439  38.127   6.769   0.283
31824W        W 3440  16.551   3.504   2.120
31825W        W 3441   9.383   8.691   0.875
31826W        W 3442  16.281  42.491   0.834
31827W        W 3443  34.159  12.055   3.720
31828W        W 3444  21.209   3.266   0.228
31829W        W 3445   8.915  43.092   2.171
31830W        W 3446  24.493  23.825  11.946
31831W        W 3447   8.693   0.493  14.363
31832W        W 3448  43.989  10.851   2.774
31833W        W 3449   2.254  33.566  12.605
31834W        W 3450  38.206  27.548  11.602
31835W        W 3451  37.288  29.198   1.745
31836W        W 3452  26.483  15.789  14.791
31837W        W 3453  35.950  31.949   1.903
31838W        W 3454   0.482  13.778   1.274
31839W        W 3455  29.734   1.021  11.533
31840W        W 3456  22.678  26.158   0.353
31841W        W 3457   4.778  14.858   3.630
31842W        W 3458   1.759  18.046   1.304
31843W        W 3459  10.828  44.723  12.727
31844W        W 3460  11.086   4.692   4.026
31845W        W 3461  25.517  44.410   2.807
31846W        W 3462  16.027   7.853   0.750
31847W        W 3463  10.621  34.370  10.996
31848W        W 3464  12.588   0.611  13.132
31849W        W 3465  23.509  11.347  10.828
31850W        W 3466  41.702  23.808  11.067
31851W        W 3467  24.794  20.285  10.732
31852W        W 3468  41.569  18.215  14.398
31853W        W 3469  22.984   8.111   3.312
31854W        W 3470  30.641  35.878   4.010
31855W        W 3471  40.874  42.877   2.792
31856W        W 3472   5.163   4.861  12.839
31857W        W 3473  15.562  40.510  11.119
31858W        W 3474  39.679  44.914  10.715
31859W        W 3475  19.828  42.345   5.069
31860W        W 3476   5.539  35.151  11.067
31861W        W 3477  30.017  14.357  12.355
31862W        W 3478   3.631  36.234  12.046
31863W        W 3479   1.395  16.625  14.020
31864W        W 3480  30.667  10.358  14.741
31865W        W 3481  42.248  24.379   3.246
31866W        W 3482  37.827  12.813  12.504
31867W        W 3483  31.935  32.518   3.167
31868W        W 3484  31.875  31.048   0.780
31869W        W 3485   8.170  21.606   2.844
31870W        W 3486  27.699  43.884  10.841
31871W        W 3487  35.416  20.553   3.709
31872W        W 3488  38.837  40.522   2.333
31873W        W 3489  10.770  28.726   2.177
31874W        W 3490   3.053   2.971  10.838
31875W        W 3491  44.410   5.877   1.279
31876W        W 3492   8.649  32.532   2.500
31877W        W 3493  27.524   1.259   1.378
31878W        W 3494   8.086  33.782   4.609
31879W        W 3495  20.789  15.106   0.768
31880W        W 3496   2.214  41.214   2.640
31881W        W 3497   2.128  24.216   5.135
31882W        W 3498  43.134  34.870   2.270
31883W        W 3499  10.871  31.120   0.566
31884W        W 3500  23.985  25.194   3.301
31885W        W 3501   6.199  14.139   4.699
31886W        W 3502   1.057  15.770  13.915
31887W        W 3503  42.294  14.068   1.426
31888W        W 3504  30.575  44.742   1.310
31889W        W 3505  14.892  19.151  13.875
31890W        W 3506  19.515   6.278  13.257
31891W        W 3507  26.041  24.651  11.662
31892W        W 3508  23.514   9.293  11.547
31893W        W 3509  34.895  28.237   1.414
31894W        W 3510   3.268   3.513   0.920
31895W        W 3511  15.267  37.520   2.677
31896W        W 3512  22.598  20.943   4.114
31897W        W 3513  31.668  11.168   3.260
31898W        W 3514  24.227  12.696   4.562
31899W        W 3515  20.012  17.659  12.663
31900W        W 3516  31.274   1.927  11.835
31901W        W 3517  29.063  20.111   0.869
31902W        W 3518  24.954   4.419   0.838
31903W        W 3519   0.976  16.108  13.515
31904W        W 3520  37.749  41.519   1.463
31905W        W 3521   1.025  27.432  12.861
31906W        W 3522  41.386  33.178  12.748
31907W        W 3523   0.735  28.418  14.686
31908W        W 3524  11.598   0.115   2.404
31909W        W 3525  39.552  35.009  14.423
31910W        W 3526  22.143  41.374   3.147
31911W        W 3527  32.748   7.882  14.199
31912W        W 3528  26.553  38.214  11.154
31913W        W 3529  23.771   0.394   0.037
31914W        W 3530  36.762  24.782  10.953
31915W        W 3531  29.520  15.149   4.167
31916W        W 3532  10.654  11.143  10.983
31917W        W 3533  30.485   5.778   4.791
31918W        W 3534   2.037  11.591  14.135
31919W        W 3535  33.063   2.937   4.653
31920W        W 3536   0.663   4.994   0.768
31921W        W 3537   5.720  35.509   4.866
31922W        W 3538  39.048   8.721   2.341
31923W        W 3539  23.686  20.043   4.990
31924W        W 3540   6.098   7.883  11.995
31925W        W 3541   6.738  37.549   4.283
31926W        W 3542  22.104  44.033  12.944
31927W        W 3543  32.135  13.719   2.163
31928W        W 3544  12.162  10.070  11.660
31929W        W 3545  36.878  11.165   3.155
31930W        W 3546   0.440   6.875  13.181
31931W        W 3547  25.186  39.629  10.983
31932W        W 3548  43.046  21.249   3.150
31933W        W 3549   1.737  44.414  12.518
31934W        W 3550  26.285  12.780  12.424
31935W        W 3551   6.650   5.830   1.452
31936W        W 3552  42.844  38.814   2.931
31937W        W 3553  24.061   5.082   3.948
31938W        W 3554  33.002  17.268   3.738
31939W        W 3555  31.288  22.902  13.844
31940W        W 3556  21.935  23.018   0.991
31941W        W 3557  24.368  13.615  13.790
31942W        W 3558  27.376   3.880  14.299
31943W        W 3559  35.791  33.018   0.765
31944W        W 3560  44.340  32.224   2.916
31945W        W 3561  42.816  17.296  14.281
31946W        W 3562   4.264  21.600  11.968
31947W        W 3563   4.796   9.187   0.713
31948W        W 3564  13.748  39.391   0.207
31949W        W 3565  32.708  15.782  14.795
31950W        W 3566   0.850  26.349   2.721
31951W        W 3567  36.166  30.101  11.572
31952W        W 3568  15.817   1.438  10.716
31953W        W 3569  24.723  17.686   0.744
31954W        W 3570   7.108   5.776  11.585
31955W        W 3571  26.021  30.296   4.228
31956W        W 3572   7.855  23.873   2.719
31957W        W 3573  16.041  27.240   1.802
31958W        W 3574  39.451  16.163   0.327
31959W        W 3575  28.881  12.647  14.413
31960W        W 3576  24.452   4.411   0.913
31961W        W 3577  23.560  29.165   3.090
31962W        W 3578  14.945   6.717   5.042
31963W        W 3579   3.640  42.990  12.600
31964W        W 3580  34.535  28.577  12.444
31965W        W 3581  13.317  14.417   0.771
31966W        W 3582  42.014  26.333  11.590
31967W        W 3583  40.302  27.604   1.415
31968W        W 3584  17.576  41.502  12.086
31969W        W 3585  29.010  29.633  11.107
31970W        W 3586  35.877  30.662   0.681
31971W        W 3587  34.815   7.193  12.054
31972W        W 3588  24.346  17.118  13.461
31973W        W 3589  32.678  25.639   2.704
31974W        W 3590  11.244  16.889   4.603
31975W        W 3591  31.343   0.425  11.872
31976W        W 3592  31.842  23.945   1.911
31977W        W 3593  38.269  33.472  10.363
31978W        W 3594  34.012  27.823   4.763
31979W        W 3595  44.733  42.745   4.158
31980W        W 3596  42.256  22.305   1.395
31981W        W 3597   6.236  34.662   0.652
31982W        W 3598  36.439  14.608   4.050
31983W        W 3599   2.104  37.486   0.236
31984W        W 3600  25.179  38.169  11.530
31985W        W 3601  41.234  37.406   0.509
31986W        W 3602   6.635  40.833  12.196
31987W        W 3603   5.615  39.331  13.691
31988W        W 3604  17.697  37.953  11.953
31989W        W 3605   4.320  15.990   3.129
31990W        W 3606  42.523  39.722   0.219
31991W        W 3607  42.759  29.932  14.808
31992W        W 3608  20.576  33.758  14.947
31993W        W 3609  42.074  43.295  12.407
31994W        W 3610   4.903  36.292   2.634
31995W        W 3611  35.006  39.558   3.366
31996W        W 3612  24.294  10.604   2.660
31997W        W 3613   9.361  41.508   2.845
31998W        W 3614  36.089  30.854   1.530
31999W        W 3615  26.226  40.723   1.240
32000W        W 3616   6.347  37.005  13.412
32001W        W 3617  38.566  13.110   0.825
32002W        W 3618   8.414   1.993  13.894
32003W        W 3619  28.124  26.206  11.920
32004W        W 3620  22.312   1.335  13.505
32005W        W 3621  20.621  20.654   0.258
32006W        W 3622  33.193  20.968  10.736
32007W        W 3623  36.567  14.801  12.886
32008W        W 3624  26.807  12.710  13.055
32009W        W 3625  25.556  40.707  10.140
32010W        W 3626  16.978  33.587  11.449
32011W        W 3627  18.778  38.990   1.689
32012W        W 3628  13.103  31.423   2.797
32013W        W 3629   2.230  16.306  10.452
32014W        W 3630  23.466  39.936   0.345
32015W        W 3631   3.383   2.431   1.215
32016W        W 3632  32.405  14.366  11.566
32017W        W 3633  13.501  12.805   2.175
32018W        W 3634  21.529  13.742   0.289
32019W        W 3635  43.620  27.138  14.834
32020W        W 3636  10.386  14.836   5.125
32021W        W 3637  30.389  44.436   4.490
32022W        W 3638  12.948  28.501   0.419
32023W        W 3639  31.054  22.809  10.591
32024W        W 3640  22.685  13.284  13.530
32025W        W 3641  37.362  11.401   2.260
32026W        W 3642  23.780  21.950   4.292
32027W        W 3643  13.299  21.422  11.400
32028W        W 3644  14.452  38.927   2.820
32029W        W 3645  31.154  35.033   2.110
32030W        W 3646   0.258  38.393  13.415
32031W        W 3647  30.046  13.270   1.922
32032W        W 3648  35.109  33.183  12.777
32033W        W 3649  17.486  17.921  10.517
32034W        W 3650   0.392  34.479  10.783
32035W        W 3651  17.745  32.610   1.713
32036W        W 3652  23.305  30.950  10.741
32037W        W 3653  28.383   2.948  14.514
32038W        W 3654  36.358  12.789  10.296
32039W        W 3655  17.757  34.475   2.949
32040W        W 3656  42.949   4.415   3.157
32041W        W 3657  17.659  13.079  12.639
32042W        W 3658  27.097  35.942  13.516
32043W        W 3659  11.408  30.428   0.786
32044W        W 3660  32.201   5.187  12.360
32045W        W 3661  21.023  12.144  13.066
32046W        W 3662  18.734  38.128  14.334
32047W        W 3663   5.655  40.817  14.383
32048W        W 3664  39.827  38.751   0.833
32049W        W 3665   9.758  21.086   4.082
32050W        W 3666   8.738  26.090  13.459
32051W        W 3667  25.518  26.887   0.896
32052W        W 3668  24.619  11.204   0.864
32053W        W 3669  21.297  43.618   1.284
32054W        W 3670  43.945  21.254   4.595
32055W        W 3671  39.163  34.102  10.755
32056W        W 3672  31.074  20.148  11.879
32057W        W 3673   1.993   7.234   2.807
32058W        W 3674  38.723  21.201   1.735
32059W        W 3675  39.304  24.826   4.233
32060W        W 3676  40.860  41.812  12.031
32061W        W 3677   2.762  12.963  13.780
32062W        W 3678  31.509   8.185  11.566
32063W        W 3679  22.210   2.493  11.520
32064W        W 3680  40.346  37.466   4.497
32065W        W 3681  28.440  28.047   4.534
32066W        W 3682  21.246  31.596   0.922
32067W        W 3683   2.674  15.587  14.983
32068W        W 3684  21.077  41.419  13.754
32069W        W 3685  34.889   5.466  12.515
32070W        W 3686  37.236   0.229   4.460
32071W        W 3687   4.009  26.334   3.752
32072W        W 3688   9.307  18.296  14.313
32073W        W 3689   0.719  44.770   3.128
32074W        W 3690   9.831  10.803  11.208
32075W        W 3691   9.936   6.662   3.670
32076W        W 3692  21.573  41.445  14.004
32077W        W 3693  34.082  12.389   4.119
32078W        W 3694  19.226  33.867   0.434
32079W        W 3695  17.521  17.571  12.883
32080W        W 3696  10.816  27.567   2.898
32081W        W 3697  39.434  18.078  10.710
32082W        W 3698   5.472  21.677   0.213
32083W        W 3699  35.181   1.424  13.517
32084W        W 3700   4.048  44.098  11.539
32085W        W 3701  20.669  21.130   0.437
32086W        W 3702  36.538  17.052  10.722
32087W        W 3703  22.298  25.735  13.849
32088W        W 3704  13.394  37.448   0.768
32089W        W 3705  20.876  31.364  12.058
32090W        W 3706  22.101  36.870   1.815
32091W        W 3707   0.025  32.657  12.582
32092W        W 3708  11.833  12.393   3.589
32093W        W 3709   1.829  37.989   0.999
32094W        W 3710   2.670  38.902   2.849
32095W        W 3711   1.606  11.818   0.661
32096W        W 3712  23.232  14.294   1.310
32097W        W 3713  20.314   5.206   1.448
32098W        W 3714  39.243  25.534   3.819
32099W        W 3715  16.978  10.605   3.267
32100W        W 3716  39.957  44.666  13.492
32101W        W 3717   0.943  14.798   0.468
32102W        W 3718  36.787  31.032   0.260
32103W        W 3719  20.244  16.337   4.777
32104W        W 3720   0.759  21.732  11.136
32105W        W 3721   6.349  27.035  13.320
32106W        W 3722  40.906  19.669   4.138
32107W        W 3723  31.076  40.941   2.489
32108W        W 3724  38.540  21.531   3.175
32109W        W 3725  24.343  27.911  14.311
32110W        W 3726  23.673   9.332  10.639
32111W        W 3727  27.683  15.952   1.388
32112W        W 3728  33.551  24.602   4.966
32113W        W 3729  19.774  37.470  10.735
32114W        W 3730  16.103  20.157  10.343
32115W        W 3731   1.072  17.803  14.588
32116W        W 3732  31.302  20.550  11.670
32117W        W 3733   2.286   6.156  12.988
32118W        W 3734  41.644  30.870   4.700
32119W        W 3735  23.050  23.100   4.578
32120W        W 3736   5.175  30.964   1.674
32121W        W 3737  19.614  18.170   1.371
32122W        W 3738  41.928   4.329   3.033
32123W        W 3739   4.468   1.156   1.401
32124W        W 3740  24.815  18.584   0.474
32125W        W 3741  27.716  11.719   0.794
32126W        W 3742   1.358  42.755   1.872
32127W        W 3743  43.370  38.007   3.711
32128W        W 3744  10.767  41.419   4.909
32129W        W 3745  13.627   9.244  11.941
32130W        W 3746  24.481  18.662   0.037
32131W        W 3747   0.191   6.120   0.018
32132W        W 3748  11.095   1.873   3.382
32133W        W 3749  26.463   2.648   3.776
32134W        W 3750  18.184  26.605  10.703
32135W        W 3751  34.648  44.626  10.979
32136W        W 3752   2.412   4.340  10.718
32137W        W 3753  26.190   2.811  10.649
32138W        W 3754  17.262  29.993   9.921
32139W        W 3755  24.331   0.338   2.763
32140W        W 3756  10.790  19.705  14.848
32141W        W 3757   6.755  39.514   2.114
32142W        W 3758  18.702  27.968   2.149
32143W        W 3759  39.112  13.880   4.066
32144W        W 3760  17.539  42.972  11.988
32145W        W 3761  33.271  12.385  14.372
32146W        W 3762   6.737  12.263  11.596
32147W        W 3763  23.668   2.780  13.082
32148W        W 3764  26.209  14.159   1.234
32149W        W 3765  41.036   2.934  14.215
32150W        W 3766  28.458  21.705   3.172
32151W        W 3767  38.513   5.771  10.942
32152W        W 3768   9.626  28.416   2.124
32153W        W 3769  34.044  33.536   1.399
32154W        W 3770  18.752  34.911  14.940
32155W        W 3771  22.207  33.482  12.598
32156W        W 3772  20.637  19.264  11.969
32157W        W 3773  18.815  41.460   0.881
32158W        W 3774  36.030  12.165   2.974
32159W        W 3775   5.076  38.450  12.394
32160W        W 3776  44.923  29.731  11.224
32161W        W 3777  19.074  42.927  13.757
32162W        W 3778  33.089  15.354  11.591
32163W        W 3779  10.648   8.886  13.412
32164W        W 3780   1.983  23.161  13.127
32165W        W 3781  16.631  33.340   0.443
32166W        W 3782  15.187  39.467  13.403
32167W        W 3783  14.290   5.318   2.757
32168W        W 3784   6.329  19.322  13.386
32169W        W 3785  30.402  37.427   0.438
32170W        W 3786  19.248  36.821   4.042
32171W        W 3787  43.786  22.392  12.547
32172W        W 3788  11.890  23.711  13.935
32173W        W 3789  25.160  37.324  11.936
32174W        W 3790  14.832  25.441  14.716
32175W        W 3791  29.559  32.160  13.448
32176W        W 3792  33.870   7.453  11.990
32177W        W 3793   8.358  26.177   2.492
32178W        W 3794   8.743  42.824  13.972
32179W        W 3795   5.311  30.597  14.917
32180W        W 3796   5.840  44.892   1.004
32181W        W 3797  35.450  26.886   2.827
32182W        W 3798  23.222   1.406  13.003
32183W        W 3799   5.833   4.334  11.910
32184W        W 3800  26.879  19.781   0.249
32185W        W 3801  38.490  29.976  10.690
32186W        W 3802   7.666  14.360  13.734
32187W        W 3803  21.764  38.161   1.783
32188W        W 3804  22.475  22.936  11.462
32189W        W 3805  10.649  32.079  11.328
32190W        W 3806  40.848  35.930  11.997
32191W        W 3807  19.755  26.071   1.623
32192W        W 3808   0.629  25.097  12.339
32193W        W 3809  33.201  26.770  11.048
32194W        W 3810  14.728   8.762   4.452
32195W        W 3811  43.176  28.341  11.333
32196W        W 3812  30.020   8.238   3.094
32197W        W 3813  23.542  22.488   2.747
32198W        W 3814  20.189  34.461   2.037
32199W        W 3815  19.208  38.290   0.684
32200W        W 3816  17.340  43.493  13.456
32201W        W 3817   8.214  31.384   4.757
32202W        W 3818  33.962  38.315   1.800
32203W        W 3819  14.820  43.325   2.061
32204W        W 3820  15.756  41.940   0.253
32205W        W 3821  44.466  17.113   0.772
32206W        W 3822  29.931  35.353  11.617
32207W        W 3823  11.531  17.146   3.756
32208W        W 3824  31.211  34.137  13.041
32209W        W 3825  31.967  20.673   4.709
32210W        W 3826   0.816  44.618   4.534
32211W        W 3827  28.903  22.602   0.945
32212W        W 3828   6.209  17.147  11.075
32213W        W 3829  12.618  26.132  14.902
32214W        W 3830   5.482  19.721  11.136
32215W        W 3831  21.491  15.866   0.273
32216W        W 3832  41.271  10.340   4.464
32217W        W 3833   3.058  18.644   3.296
32218W        W 3834  28.494  22.760   2.395
32219W        W 3835  39.137  13.938  13.347
32220W        W 3836  39.589   9.703  12.495
32221W        W 3837   6.577  11.279   3.416
32222W        W 3838   2.792  15.225   2.190
32223W        W 3839  11.265   2.260  11.024
32224W        W 3840   5.347  19.191   4.395
32225W        W 3841  21.788   5.690   3.276
32226W        W 3842  38.171  16.998   1.384
32227W        W 3843  24.486  35.688   3.288
32228W        W 3844  29.460   5.671  12.988
32229W        W 3845  43.797  11.359  10.906
32230W        W 3846  26.438   8.297  11.620
32231W        W 3847   7.276   7.389  14.470
32232W        W 3848   8.718  29.060   4.858
32233W        W 3849  40.621  22.365  11.956
32234W        W 3850   4.052  11.854  13.864
32235W        W 3851  10.229  24.160  10.472
32236W        W 3852   0.611  32.384  14.247
32237W        W 3853   7.695  12.530   0.436
32238W        W 3854  13.869  39.897   2.341
32239W        W 3855   1.487  16.533   4.208
32240W        W 3856  31.660  23.686   0.218
32241W        W 3857  16.626  41.679   4.464
32242W        W 3858  23.630  37.073  11.629
32243W        W 3859  41.432   2.387   4.654
32244W        W 3860  37.546  22.211  12.014
32245W        W 3861   0.737  20.995   5.015
32246W        W 3862   9.657  43.233  11.666
32247W        W 3863  32.481  31.650  13.582
32248W        W 3864  41.812  30.063  14.035
32249W        W 3865  38.078  10.205   1.373
32250W        W 3866   6.888  10.700   0.303
32251W        W 3867  27.159  15.580  11.792
32252W        W 3868   1.418  15.508   0.947
32253W        W 3869  24.283  12.316  11.945
32254W        W 3870  26.265   9.753   1.002
32255W        W 3871   0.225  31.976  12.944
32256W        W 3872  39.251  25.487  11.627
32257W        W 3873  27.064  18.004  11.371
32258W        W 3874  34.763  17.517  12.839
32259W        W 3875  28.880  29.698   3.335
32260W        W 3876  24.726  15.229  13.411
32261W        W 3877  27.413   9.617  12.158
32262W        W 3878  21.821   5.500   1.421
32263W        W 3879  31.690  27.447   2.446
32264W        W 3880  39.772  12.835  13.996
32265W        W 3881  14.710  41.039   4.242
32266W        W 3882  21.059  15.776  12.235
32267W        W 3883  20.372   3.445   0.799
32268W        W 3884  24.108   2.293   4.023
32269W        W 3885  27.510  40.575  11.919
32270W        W 3886   2.689  38.577  14.745
32271W        W 3887  32.676   2.299  13.806
32272W        W 3888  37.900  39.395  14.918
32273W        W 3889  42.398  22.523   0.554
32274W        W 3890  33.067   0.755  13.291
32275W        W 3891  21.647  12.038   1.722
32276W        W 3892  32.740  11.551  11.211
32277W        W 3893  26.917   8.206   3.719
32278W        W 3894  14.589  15.106  13.310
32279W        W 3895  39.112  38.388  11.235
32280W        W 3896  31.023   9.224   3.674
32281W        W 3897  33.471  37.862  10.697
32282W        W 3898  24.615  43.292  13.846
32283W        W 3899  16.128  12.681  11.120
32284W        W 3900  19.148  29.559   3.112
32285W        W 3901  28.252  31.417  12.993
32286W        W 3902  39.497   6.216  14.297
32287W        W 3903  14.865  36.590  10.734
32288W        W 3904   4.477   5.284   0.854
32289W        W 3905  32.720   4.175  11.048
32290W        W 3906  38.056  23.123  13.983
32291W        W 3907   1.689  26.036   0.427
32292W        W 3908  16.848   6.754  14.690
32293W        W 3909  38.018  24.996  10.405
32294W        W 3910  21.360   9.456  14.804
32295W        W 3911  30.029   5.658   4.570
32296W        W 3912  32.589  32.931  10.726
32297W        W 3913  29.959  30.991   3.802
32298W        W 3914  27.889  26.110   0.786
32299W        W 3915  21.910   0.061  14.376
32300W        W 3916  43.312  43.256  14.813
32301W        W 3917   0.918  35.571   1.378
32302W        W 3918   5.668  37.032   2.143
32303W        W 3919  15.898  10.775  13.116
32304W        W 3920  40.767   0.655   4.559
32305W        W 3921  43.910  14.098   0.202
32306W        W 3922  43.935   4.523   4.804
32307W        W 3923  38.574  15.622  13.076
32308W        W 3924   2.725  38.323  13.790
32309W        W 3925  16.657   8.171  14.000
32310W        W 3926  35.311  19.548   2.378
32311W        W 3927  37.168  23.071  14.840
32312W        W 3928  29.445   8.456  11.394
32313W        W 3929  17.339  12.090  13.585
32314W        W 3930   5.314   5.166   1.333
32315W        W 3931   6.062  10.323   2.168
32316W        W 3932   3.684  33.776  14.830
32317W        W 3933  30.490  38.178  13.808
32318W        W 3934  43.283  33.520  10.922
32319W        W 3935  30.225   0.399  14.461
32320W        W 3936  12.955  15.342  14.355
32321W        W 3937  35.496  42.796   0.348
32322W        W 3938  13.182  17.171  14.712
32323W        W 3939  36.652  28.951  12.283
32324W        W 3940  13.776  43.185  13.846
32325W        W 3941  34.878  41.878  11.173
32326W        W 3942  19.777  31.905   1.329
32327W        W 3943  27.348  31.082   1.626
32328W        W 3944  16.687   9.159   0.909
32329W        W 3945   5.777  27.477   0.897
32330W        W 3946  39.061  18.305   3.435
32331W        W 3947   7.723  34.263  10.812
32332W        W 3948   0.161   7.500  12.681
32333W        W 3949  19.044  34.410  14.463
32334W        W 3950  38.143  11.503   3.568
32335W        W 3951  15.830  32.240  14.527
32336W        W 3952  42.000  29.885  13.009
32337W        W 3953  34.690  22.073   2.375
32338W        W 3954  26.932  11.427  12.966
32339W        W 3955  31.132   1.963   5.095
32340W        W 3956  31.914  28.742  11.021
32341W        W 3957  10.785  39.021  10.878
32342W        W 3958   4.743  24.076  10.571
32343W        W 3959   4.183  33.835  12.075
32344W        W 3960  14.081  26.000  11.612
32345W        W 3961  26.025  32.685   3.566
32346W        W 3962  24.411  25.949  11.603
32347W        W 3963  12.173  42.934  13.432
32348W        W 3964  41.325  19.594   1.383
32349W        W 3965   5.635  30.992  12.434
32350W        W 3966  10.310  35.514  11.472
32351W        W 3967  35.914  15.057   3.275
32352W        W 3968  19.593  43.299  12.098
32353W        W 3969  15.612   9.431  14.303
32354W        W 3970   6.726  28.670   3.280
32355W        W 3971  44.352  21.485  11.222
32356W        W 3972   7.779  15.550   1.323
32357W        W 3973   1.606  24.802  10.214
32358W        W 3974   5.723  32.033  14.451
32359W        W 3975   1.875  17.608   1.004
32360W        W 3976  43.613  29.291  11.676
32361W        W 3977   4.927  33.686  12.588
32362W        W 3978  25.101  39.082   3.256
32363W        W 3979  42.709  30.689   3.589
32364W        W 3980  38.857  14.276  10.748
32365W        W 3981  17.580  40.014  12.523
32366W        W 3982  18.033  14.275  10.690
32367W        W 3983   7.873  19.025   3.278
32368W        W 3984   5.467  30.348   0.848
32369W        W 3985  26.617  16.086   1.408
32370W        W 3986  40.020  25.658   2.750
32371W        W 3987  31.528   2.471  14.896
32372W        W 3988   7.586  33.519  11.167
32373W        W 3989  13.602  17.253  12.165
32374W        W 3990  20.600  35.625  10.740
32375W        W 3991  18.360   2.434  13.546
32376W        W 3992   4.934  43.380  10.996
32377W        W 3993  40.562  27.256   4.094
32378W        W 3994   0.379  27.292   1.319
32379W        W 3995  14.323   4.836   0.352
32380W        W 3996  17.997  32.461   2.145
32381W        W 3997   7.942   9.964  14.341
32382W        W 3998   1.839  31.474   2.875
32383W        W 3999  27.466  11.340  12.922
32384W        W 4000   8.205  31.829   1.177
32385W        W 4001  14.404  36.819   3.276
32386W        W 4002  29.119  32.054   1.211
32387W        W 4003  40.188   4.461  14.382
32388W        W 4004   1.379  27.740   0.254
32389W        W 4005   8.452   1.224   4.485
32390W        W 4006   5.757  20.844  12.902
32391W        W 4007  43.364   5.340  14.048
32392W        W 4008  34.697  12.237   4.657
32393W        W 4009  16.713  11.597   1.704
32394W        W 4010  10.938  17.120   0.090
32395W        W 4011   0.980  10.801  14.996
32396W        W 4012  26.044  10.888   4.854
32397W        W 4013  30.451   4.652  14.393
32398W        W 4014  31.026   3.224  11.934
32399W        W 4015   2.462  21.726   2.110
32400W        W 4016  18.587  39.728   2.376
32401W        W 4017  25.649  24.653   1.675
32402W        W 4018  15.400  19.049  13.828
32403W        W 4019  38.393  13.265  11.989
32404W        W 4020  44.898  43.857  12.348
32405W        W 4021  42.956  39.598  14.486
32406W        W 4022   6.141  30.522   2.384
32407W        W 4023  15.244  22.518  13.958
32408W        W 4024  17.816  12.275  11.167
32409W        W 4025  33.863   7.458   0.189
32410W        W 4026  31.100  25.716   0.763
32411W        W 4027  25.955  27.045  10.636
32412W        W 4028  35.449  34.114   2.364
32413W        W 4029  40.976  42.117   4.565
32414W        W 4030   8.717   1.949   0.188
32415W        W 4031  26.865  39.026   2.361
32416W        W 4032  22.749  28.524  12.038
32417W        W 4033  20.057  43.341  13.050
32418W        W 4034  36.011   7.143  14.960
32419W        W 4035  35.815  26.636  10.687
32420W        W 4036  33.081   5.430   3.209
32421W        W 4037  25.747  19.620   1.159
32422W        W 4038  17.328  19.261  12.983
32423W        W 4039  28.566  21.575   1.793
32424W        W 4040  38.965   8.255  12.130
32425W        W 4041  20.642  38.058  14.915
32426W        W 4042  17.480   6.433  11.315
32427W        W 4043  18.755  32.456  12.460
32428W        W 4044   7.820  22.508   1.394
32429W        W 4045  10.171  23.759  12.677
32430W        W 4046  27.923  23.646  10.620
32431W        W 4047  39.262   0.058   0.575
32432W        W 4048  30.015   3.922  10.700
32433W        W 4049   8.797  42.014  10.724
32434W        W 4050  44.959  19.196  13.851
32435W        W 4051   4.438   3.764  13.989
32436W        W 4052  40.022  14.355  14.462
32437W        W 4053  30.079   1.592   3.710
32438W        W 4054  40.441   0.813   4.184
32439W        W 4055  16.238  33.926  10.885
32440W        W 4056  22.686  37.648   9.887
32441W        W 4057  32.625  40.476   1.873
32442W        W 4058  32.118  20.785  13.486
32443W        W 4059   0.901  17.762   0.078
32444W        W 4060   7.940  41.572  13.151
32445W        W 4061  31.541  35.129  11.135
32446W        W 4062  43.183  42.938   0.249
32447W        W 4063  21.540  20.224  14.038
32448W        W 4064  37.177   6.175   0.349
32449W        W 4065   7.964  23.109   0.946
32450W        W 4066  30.875  12.133   2.168
32451W        W 4067  21.322  39.035  11.509
32452W        W 4068  25.163  14.759   2.736
32453W        W 4069  12.416  10.267   0.358
32454W        W 4070  37.036  28.006   0.810
32455W        W 4071  12.591  18.144  13.774
32456W        W 4072  25.907  27.479   2.665
32457W        W 4073  36.344  15.501  13.940
32458W        W 4074  30.146  31.437  10.714
32459W        W 4075  43.514  36.309  14.053
32460W        W 4076  42.588  35.975   3.253
32461W        W 4077  23.097  16.502   1.288
32462W        W 4078  39.732  32.991   4.125
32463W        W 4079   0.794  20.051   1.819
32464W        W 4080  44.081  20.015   2.498
32465W        W 4081  44.734  43.320   0.988
32466W        W 4082   8.955   9.291   2.320
32467W        W 4083  33.365   1.409   2.312
32468W        W 4084  20.509  20.803   2.735
32469W        W 4085  20.741  36.925   2.749
32470W        W 4086  37.032  14.639  12.092
32471W        W 4087  23.965  37.569   0.378
32472W        W 4088  35.518  23.242   1.376
32473W        W 4089   1.659  17.162   1.700
32474W        W 4090  21.492  32.296  11.196
32475W        W 4091  27.643  36.793  11.110
32476W        W 4092  34.507   8.736  13.132
32477W        W 4093  39.783  18.338  14.388
32478W        W 4094  28.941  34.941  12.951
32479W        W 4095  29.730  44.428   0.825
32480W        W 4096  13.395  35.937   3.744
32481W        W 4097   0.029   3.357   1.818
32482W        W 4098   0.296  35.792  13.021
32483W        W 4099  38.855  31.432   2.928
32484W        W 4100  20.994  13.119  11.556
32485W        W 4101  39.042  18.450   4.458
32486W        W 4102  20.271   7.894  12.018
32487W        W 4103  20.203  36.897   2.703
32488W        W 4104   1.370  20.168  13.321
32489W        W 4105  10.327  13.741  10.996
32490W        W 4106  32.383  27.477   9.846
32491W        W 4107  11.768   6.427  14.254
32492W        W 4108  38.301  40.931   0.330
32493W        W 4109  31.098  15.188   0.676
32494W        W 4110  37.102   9.666   2.370
32495W        W 4111  25.241  32.928   2.259
32496W        W 4112  30.993  23.210   1.299
32497W        W 4113  41.097  39.778   3.134
32498W        W 4114  42.920   8.888   2.749
32499W        W 4115   7.260  11.788   3.454
32500W        W 4116  16.743   4.407   2.387
32501W        W 4117  22.673  43.001  14.203
32502W        W 4118  19.786  43.854  10.861
32503W        W 4119  12.912  38.979  14.426
32504W        W 4120  32.561  34.797  10.574
32505W        W 4121   6.942  31.319   3.238
32506W        W 4122  38.365  16.929  13.770
32507W        W 4123  20.155   8.941   2.219
32508W        W 4124  11.624   8.708   3.179
32509W        W 4125  15.583  36.911   2.598
32510W        W 4126  40.801  26.079   2.872
32511W        W 4127  24.502  27.993  10.724
32512W        W 4128   3.249  42.552  11.420
32513W        W 4129  22.018   1.215   4.099
32514W        W 4130  15.347  25.695   2.249
32515W        W 4131  43.305   3.467   3.880
32516W        W 4132  41.887  40.512  13.605
32517W        W 4133  22.991  34.663  13.079
32518W        W 4134  31.975   3.539  12.948
32519W        W 4135   2.422  34.996  14.523
32520W        W 4136  40.982  41.891   1.110
32521W        W 4137  22.653  44.256   0.299
32522W        W 4138  40.508   0.305   2.303
32523W        W 4139  27.431  27.835  12.825
32524W        W 4140  14.696  34.867   4.102
32525W        W 4141  43.476  41.435   2.796
32526W        W 4142  27.979  27.149   3.156
32527W        W 4143  15.821  34.627   2.257
32528W        W 4144  17.098  12.079  10.931
32529W        W 4145  11.337  33.094  10.826
32530W        W 4146  31.515  40.811  11.547
32531W        W 4147  13.323   6.338  13.552
32532W        W 4148  25.791  42.959   2.792
32533W        W 4149   4.243  42.027  14.269
32534W        W 4150  33.662  12.285   0.335
32535W        W 4151  24.245  39.425  11.043
32536W        W 4152  39.409  18.274   1.233
32537W        W 4153  35.302  43.168   3.229
32538W        W 4154   8.244  26.811   3.140
32539W        W 4155  41.903   9.310   2.650
32540W        W 4156   1.990  36.330   2.748
32541W        W 4157  37.732  16.291  13.282
32542W        W 4158  10.775  13.848  10.731
32543W        W 4159  28.164  24.223  12.907
32544W        W 4160  32.670  33.476   2.785
32545W        W 4161   3.586   1.899  13.145
32546W        W 4162   5.700  43.766   0.260
32547W        W 4163  35.825   3.545  11.441
32548W        W 4164  44.748  18.728  13.034
32549W        W 4165  13.024  13.287   1.136
32550W        W 4166  27.292  39.916  12.988
32551W        W 4167  23.489   4.213  10.780
32552W        W 4168  32.595  11.557   4.146
32553W        W 4169   7.753  10.888  10.693
32554W        W 4170  41.691  44.456  14.481
32555W        W 4171   1.863  22.753   2.286
32556W        W 4172  22.798  28.162   0.955
32557W        W 4173  41.432  23.466   4.116
32558W        W 4174  27.022  33.398   3.342
32559W        W 4175  24.026  29.191   4.279
32560W        W 4176  20.263  32.193  13.054
32561W        W 4177   4.304  27.420  13.667
32562W        W 4178  40.958  38.230  12.028
32563W        W 4179  16.987  11.013   4.067
32564W        W 4180  17.782  25.487  13.284
32565W        W 4181  13.083  40.533  11.169
32566W        W 4182  10.585  18.172   1.430
32567W        W 4183  12.259  24.727  13.363
32568W        W 4184   1.445   6.905  13.009
32569W        W 4185  28.578   6.674   4.425
32570W        W 4186  22.034   9.106  11.532
32571W        W 4187  20.833  35.462  12.064
32572W        W 4188  40.775  18.664   2.663
32573W        W 4189  42.953  29.667  12.765
32574W        W 4190  36.674  10.222   1.253
32575W        W 4191  34.687  39.728   4.754
32576W        W 4192   7.923  14.122   2.630
32577W        W 4193  32.814  26.828  12.615
32578W        W 4194   9.318  23.141   2.210
32579W        W 4195  32.401  18.845  12.705
32580W        W 4196  38.549   7.787   3.617
32581W        W 4197  23.538  25.194   2.249
32582W        W 4198   0.376  22.302  10.458
32583W        W 4199   3.969  17.099  10.812
32584W        W 4200  19.300  16.548  12.557
32585W        W 4201   6.698  33.565   0.433
32586W        W 4202  44.798  25.553   1.728
32587W        W 4203   1.166  37.956   4.579
32588W        W 4204  43.981  40.254   0.991
32589W        W 4205  31.620  43.263  13.306
32590W        W 4206  39.538   8.623   3.655
32591W        W 4207  22.736  23.340  10.475
32592W        W 4208  37.303  14.891   0.106
32593W        W 4209  26.302  26.523   0.508
32594W        W 4210  34.530  35.506  10.369
32595W        W 4211  17.061  31.013   3.265
32596W        W 4212   1.375  18.038  14.937
32597W        W 4213  28.632   1.400  13.852
32598W        W 4214  39.581  26.617   3.748
32599W        W 4215  16.646  17.628   1.762
32600W        W 4216  22.493   0.023  14.123
32601W        W 4217  19.712  37.897  14.900
32602W        W 4218  22.510  17.209   0.843
32603W        W 4219   3.387  12.345   3.142
32604W        W 4220   4.198  44.363  10.486
32605W        W 4221  34.980  28.398   1.903
32606W        W 4222  30.412   8.410   4.121
32607W        W 4223  39.280   4.511  10.652
32608W        W 4224   0.578  31.333  14.422
32609W        W 4225   8.381  36.080  13.927
32610W        W 4226  25.683   1.463  11.524
32611W        W 4227   4.155  40.757  12.072
32612W        W 4228  17.995  26.756   0.504
32613W        W 4229  22.490  41.886   1.356
32614W        W 4230  11.203  16.662   1.457
32615W        W 4231  28.713  42.093   4.515
32616W        W 4232  25.272  17.710  12.509
32617W        W 4233  19.024  12.967  13.819
32618W        W 4234  17.236   2.752  14.766
32619W        W 4235  15.329  44.527  13.394
32620W        W 4236  38.444  38.545   0.644
32621W        W 4237  28.571   9.327  12.905
32622W        W 4238  23.065   7.141  13.487
32623W        W 4239  37.580   1.248  12.063
32624W        W 4240  33.118   7.158  14.025
32625W        W 4241  13.635   6.238   1.597
32626W        W 4242  17.384   6.726   1.395
32627W        W 4243  29.233  19.978   3.573
32628W        W 4244  16.267  21.194  10.666
32629W        W 4245  25.088  19.475  12.426
32630W        W 4246   6.078   7.309   4.962
32631W        W 4247  17.191  33.584   3.804
32632W        W 4248  16.261  25.440  12.609
32633W        W 4249   9.856  23.951   1.900
32634W        W 4250  10.179  30.572  14.474
32635W        W 4251  12.766  12.765  11.625
32636W        W 4252  26.535   3.331  10.595
32637W        W 4253  43.226  34.831   4.927
32638W        W 4254   9.759  24.317  14.893
32639W        W 4255  35.122  11.880   3.078
32640W        W 4256  10.768   0.998   1.168
32641W        W 4257  27.173  23.025   0.776
32642W        W 4258   3.959  11.581   4.101
32643W        W 4259  22.248  24.134  12.608
32644W        W 4260  40.251  20.077   2.777
32645W        W 4261  43.770   0.365   4.556
32646W        W 4262  31.963  38.880   4.845
32647W        W 4263  39.416  25.991  13.824
32648W        W 4264   3.493  17.826   3.808
32649W        W 4265  26.367   1.245   4.729
32650W        W 4266   4.890  32.189  12.601
32651W        W 4267   0.201  44.955   1.705
32652W        W 4268  39.479  13.704  14.358
32653W        W 4269  10.092  21.785   4.908
32654W        W 4270  33.477  15.162  13.987
32655W        W 4271   1.164  26.509  14.968
32656W        W 4272  12.665   6.722  10.085
32657W        W 4273  29.021  21.560   0.363
32658W        W 4274  42.804  27.208   2.106
32659W        W 4275  36.588  23.129   0.778
32660W        W 4276  26.722   5.456  12.388
32661W        W 4277  14.777  40.767   2.938
32662W        W 4278  17.647  21.061  14.940
32663W        W 4279  11.239  12.399  13.332
32664W        W 4280  31.334   6.857   4.579
32665W        W 4281  15.467  20.688  12.125
32666W        W 4282   0.203   7.755  12.197
32667W        W 4283  29.479  42.053  10.448
32668W        W 4284   6.033   5.299  10.942
32669W        W 4285  40.877  22.256   0.918
32670W        W 4286  24.499  10.826   1.229
32671W        W 4287  20.993  33.615  12.951
32672W        W 4288  40.482  11.714  12.802
32673W        W 4289  24.451   6.204  12.065
32674W        W 4290   6.463   9.392   1.274
32675W        W 4291   2.682  29.033  14.591
32676W        W 4292  30.483  12.896   2.658
32677W        W 4293   3.807  25.097  10.942
32678W        W 4294  41.131  22.996   2.157
32679W        W 4295   4.411   3.584   3.720
32680W        W 4296   8.256  43.216   3.230
32681W        W 4297   8.568  11.854  13.848
32682W        W 4298  33.383  33.398  10.369
32683W        W 4299  36.132  25.572  12.593
32684W        W 4300  40.830  44.036  10.405
32685W        W 4301  31.582   2.840   2.104
32686W        W 4302   8.219  41.819   3.578
32687W        W 4303  27.626   4.014  11.113
32688W        W 4304  39.859  33.983   3.348
32689W        W 4305  40.499   0.510  13.908
32690W        W 4306  22.227  35.338  11.613
32691W        W 4307  11.352  17.268   0.396
32692W        W 4308   4.314  22.557   1.868
32693W        W 4309  18.262  32.923   2.835
32694W        W 4310  20.759  29.389  11.175
32695W        W 4311  25.791  10.673   0.934
32696W        W 4312  31.340   5.597  14.869
32697W        W 4313  25.296  14.763   4.093
32698W        W 4314  18.223  23.670   4.638
32699W        W 4315  18.630  13.458  11.565
32700W        W 4316  34.999  21.627   4.202
32701W        W 4317  19.666  20.048   1.449
32702W        W 4318  20.346   5.461  14.855
32703W        W 4319  38.067  18.553  12.507
32704W        W 4320  28.647  13.815  11.133
32705W        W 4321  23.743   0.813  10.983
32706W        W 4322  22.323  10.708  14.768
32707W        W 4323  17.904  19.812   3.733
32708W        W 4324  12.565  42.810  11.561
32709W        W 4325  23.089   3.935   4.793
32710W        W 4326  39.498  10.601   2.226
32711W        W 4327  31.905  13.075   2.230
32712W        W 4328   2.330  37.829   4.777
32713W        W 4329  27.272  33.919   2.361
32714W        W 4330   1.221  22.020  10.591
32715W        W 4331  32.830  33.329  14.541
32716W        W 4332  42.038  22.454   1.910
32717W        W 4333   4.937  34.412  13.899
32718W        W 4334  39.598  22.614  11.448
32719W        W 4335  25.205  39.085   0.678
32720W        W 4336  32.147  31.076   2.151
32721W        W 4337  18.403  43.129   1.210
32722W        W 4338  16.299  10.054   3.321
32723W        W 4339  22.623  12.155  12.941
32724W        W 4340  11.163   8.766  13.423
32725W        W 4341  25.613  20.608   1.875
32726W        W 4342  38.826  41.051   0.372
32727W        W 4343  43.065  11.239   0.933
32728W        W 4344   8.484  12.805   3.326
32729W        W 4345  11.669  20.158  12.168
32730W        W 4346  28.226  18.361   0.797
32731W        W 4347  33.839   9.585   2.838
32732W        W 4348  10.240  16.228   3.496
32733W        W 4349  20.662  16.981   1.217
32734W        W 4350  32.133  15.704   4.506
32735W        W 4351   1.607  42.910   1.030
32736W        W 4352   8.140   6.628  11.456
32737W        W 4353  21.269  21.651  10.880
32738W        W 4354  30.962   4.191  13.074
32739W        W 4355  40.293  40.101  12.932
32740W        W 4356  23.686  27.687  13.949
32741W        W 4357  18.682   1.012   2.277
32742W        W 4358   5.737   6.226  12.333
32743W        W 4359   8.973  42.768   3.308
32744W        W 4360  11.309  35.006   0.466
32745W        W 4361  15.797  33.581   1.367
32746W        W 4362  42.833  27.735  13.973
32747W        W 4363  10.331  34.906  13.013
32748W        W 4364  43.974  27.162  11.681
32749W        W 4365  11.291  25.417  11.162
32750W        W 4366  34.848  29.613   3.344
32751W        W 4367  27.147  14.277  12.443
32752W        W 4368  29.174  36.748  12.207
32753W        W 4369  24.810  10.836  11.783
32754W        W 4370  38.505  33.110  13.023
32755W        W 4371  43.611   1.515  10.785
32756W        W 4372  13.351  17.477  13.805
32757W        W 4373  33.051  41.091  12.987
32758W        W 4374  32.021  12.678  11.198
32759W        W 4375  25.462  18.851  13.562
32760W        W 4376   6.758  36.732  13.308
32761W        W 4377  34.008   1.168  10.853
32762W        W 4378  40.253  17.470  14.325
32763W        W 4379  26.867  43.820   0.886
32764W        W 4380  16.681  26.033   0.379
32765W        W 4381  37.896   4.568   3.336
32766W        W 4382  26.389   3.767   2.703
32767W        W 4383  31.093  10.670  11.583
32768W        W 4384  26.971  20.617   4.722
32769W        W 4385  31.572  32.890  11.606
32770W        W 4386  17.348  14.068   0.790
32771W        W 4387  23.675  13.044   2.328
32772W        W 4388  37.881  38.579   4.686
32773W        W 4389  40.923  30.968   2.966
32774W        W 4390  17.968  43.363  11.632
32775W        W 4391   2.260  36.112  10.758
32776W        W 4392   1.694  33.632   1.206
32777W        W 4393  29.903  29.577   2.821
32778W        W 4394  25.762  14.238  14.377
32779W        W 4395  20.154  30.732  12.026
32780W        W 4396   7.204  39.262  11.030
32781W        W 4397  32.465  15.344   2.169
32782W        W 4398   9.987  16.855  14.362
32783W        W 4399  38.428  14.645   2.073
32784W        W 4400  36.786  21.238  14.836
32785W        W 4401  30.335  15.242  10.495
32786W        W 4402  41.093  42.877  11.724
32787W        W 4403  16.412  10.779  13.009
32788W        W 4404  37.106  10.236  14.885
32789W        W 4405  31.994   1.269  13.322
32790W        W 4406  18.573  15.235   3.356
32791W        W 4407  34.955  37.560   2.250
32792W        W 4408  25.352  39.060   3.739
32793W        W 4409   3.696  24.050  11.544
32794W        W 4410  27.020  27.054  13.739
32795W        W 4411   3.510  42.061   2.693
32796W        W 4412  42.307  30.901  12.010
32797W        W 4413   5.225  40.063   3.206
32798W        W 4414  21.195  13.219  12.988
32799W        W 4415  21.598  37.817  12.153
32800W        W 4416  39.954  17.280  13.281
32801W        W 4417  39.238   7.075  14.069
32802W        W 4418  33.508  15.630   0.994
32803W        W 4419  28.217  32.163  10.866
32804W        W 4420   3.617  21.970  12.451
32805W        W 4421  43.507  10.665   4.328
32806W        W 4422  42.469   1.201  14.528
32807W        W 4423  27.646  33.852   3.189
32808W        W 4424  41.406   2.476  12.512
32809W        W 4425  27.125   3.906  11.047
32810W        W 4426  42.336   3.678   1.736
32811W        W 4427  26.424  21.545  12.628
32812W        W 4428  43.057  30.516  11.596
32813W        W 4429  20.288  41.786   0.745
32814W        W 4430   1.296  42.302  13.456
32815W        W 4431   2.995  32.095  13.590
32816W        W 4432  37.825  18.641  13.768
32817W        W 4433  24.504   5.170  14.407
32818W        W 4434  38.784  36.284   2.799
32819W        W 4435  21.958  29.939   2.707
32820W        W 4436  44.578  42.918  11.204
32821W        W 4437  20.045  30.127   1.912
32822W        W 4438  38.884  40.554   1.405
32823W        W 4439  22.463   4.710   4.644
32824W        W 4440  43.451  42.220  13.941
32825W        W 4441  20.782   8.210   0.070
32826W        W 4442   5.189  22.026   0.487
32827W        W 4443  17.261  25.085   1.508
32828W        W 4444   8.702  15.325   1.931
32829W        W 4445  17.030   1.530   1.921
32830W        W 4446  25.567  17.999   1.154
32831W        W 4447  18.642   9.824  12.547
32832W        W 4448  40.019   8.416   1.753
32833W        W 4449  21.454   1.235   1.458
32834W        W 4450  34.401   2.253  12.544
32835W        W 4451  22.666  12.231  11.055
32836W        W 4452  18.036   7.721   4.362
32837W        W 4453  31.884   4.868  14.212
32838W        W 4454  21.652   6.792  12.070
32839W        W 4455   5.957  31.791   3.838
32840W        W 4456  43.748   4.759  11.182
32841W        W 4457  14.218   0.568  11.157
32842W        W 4458   5.021  26.471  10.252
32843W        W 4459   2.948  43.296   3.176
32844W        W 4460  25.776  25.118   4.853
32845W        W 4461   2.817  37.987   0.965
32846W        W 4462  35.110  25.023  13.793
32847W        W 4463  43.719   0.016   4.154
32848W        W 4464  15.151  11.130  14.066
32849W        W 4465   7.509   0.397  14.647
32850W        W 4466  27.040  31.915   4.703
32851W        W 4467  31.407   0.648   5.453
32852W        W 4468  14.794  37.029   2.010
32853W        W 4469   5.378  37.273   3.656
32854W        W 4470  10.274  32.368   1.808
32855W        W 4471  26.683  21.704  14.368
32856W        W 4472   4.853  17.181  11.669
32857W        W 4473  29.997  18.119  12.327
32858W        W 4474  15.133  28.080  14.775
32859W        W 4475  32.817   8.331   4.081
32860W        W 4476  32.919  34.457   1.463
32861W        W 4477  24.142  26.285  11.876
32862W        W 4478   6.393  28.107  14.304
32863W        W 4479   2.042  14.684  11.219
32864W        W 4480  13.114   9.742   0.960
32865W        W 4481  11.904  26.723  13.976
32866W        W 4482  21.021  25.931  12.551
32867W        W 4483   0.903   4.640  11.623
32868W        W 4484   6.390   1.807  10.330
32869W        W 4485  16.239  10.098  13.447
32870W        W 4486  40.571  24.037   1.828
32871W        W 4487  32.550   9.905   0.824
32872W        W 4488  21.785  32.250   0.635
32873W        W 4489  32.659   1.174   3.060
32874W        W 4490  27.514  42.595   1.855
32875W        W 4491  24.024  31.392   3.652
32876W        W 4492  26.551  40.070  12.584
32877W        W 4493   5.846  22.367   2.828
32878W        W 4494  11.656  37.929  11.361
32879W        W 4495  27.765  24.986  14.520
32880W        W 4496  44.042  29.749   3.952
32881W        W 4497  16.167  34.672   0.379
32882W        W 4498   8.288  28.534  12.167
32883W        W 4499   1.289  27.487  13.294
32884W        W 4500  12.139  32.881   3.121
32885W        W 4501  13.778  38.482  10.855
32886W        W 4502  24.720  42.840  13.035
32887W        W 4503  30.534  22.864   2.280
32888W        W 4504  18.798  42.526   4.193
32889W        W 4505  28.445   0.736  14.310
32890W        W 4506  32.863  17.116   0.529
32891W        W 4507   8.056  10.389  10.166
32892W        W 4508  27.540   8.504   0.383
32893W        W 4509  35.575  26.147   3.568
32894W        W 4510  24.674   5.168   2.124
32895W        W 4511  22.654  19.509   1.291
32896W        W 4512  32.434  17.228  14.121
32897W        W 4513  27.574  28.404   2.240
32898W        W 4514   6.921  37.853   0.822
32899W        W 4515   7.535  40.767   4.857
32900W        W 4516  38.593   6.642  12.573
32901W        W 4517  40.453  11.810   0.850
32902W        W 4518   4.832  19.854   3.587
32903W        W 4519  11.834  22.031  14.129
32904W        W 4520   5.645   7.142   1.845
32905W        W 4521   9.369   8.837  11.587
32906W        W 4522  17.593  30.499  14.916
32907W        W 4523   7.770  31.631  14.823
32908W        W 4524  29.856  16.854  14.471
32909W        W 4525   1.763  41.297   2.869
32910W        W 4526  30.240  21.658   4.093
32911W        W 4527   3.933  34.480   2.133
32912W        W 4528  26.818  11.917  13.086
32913W        W 4529  17.325  37.116   1.761
32914W        W 4530   4.386  16.550  12.182
32915W        W 4531  38.432   3.430   0.032
32916W        W 4532  39.638  14.094  14.670
32917W        W 4533   6.623  43.010   3.703
32918W        W 4534  28.460   0.526   0.949
32919W        W 4535  14.408  43.496  13.024
32920W        W 4536  17.681   3.644  14.494
32921W        W 4537   3.277  21.081  13.542
32922W        W 4538  18.327  23.700   3.713
32923W        W 4539   9.656  17.643  13.082
32924W        W 4540  16.626  44.900  11.205
32925W        W 4541   3.756   5.793   1.171
32926W        W 4542  12.240  37.874   4.565
32927W        W 4543   2.791  29.099   3.147
32928W        W 4544  19.587  42.135   5.483
32929W        W 4545  19.742  40.354   4.589
32930W        W 4546  38.175  34.635   2.382
32931W        W 4547  31.658   8.201  14.157
32932W        W 4548  43.299  20.456  11.090
32933W        W 4549  22.576  40.567  14.320
32934W        W 4550  34.821  21.218   1.960
32935W        W 4551  31.769  16.152   0.238
32936W        W 4552  44.741   8.473  10.635
32937W        W 4553  26.194  26.973  14.388
32938W        W 4554   4.727   4.411  14.820
32939W        W 4555  41.002  40.920  14.332
32940W        W 4556  20.044  19.571  13.027
32941W        W 4557  38.324  38.754  13.480
32942W        W 4558  23.744  22.759  12.495
32943W        W 4559  23.312   5.712   3.115
32944W        W 4560  33.007  28.530   1.491
32945W        W 4561  42.021  17.477   3.668
32946W        W 4562  43.446   1.810  11.227
32947W        W 4563  24.803  18.535   2.221
32948W        W 4564   6.636  16.557   3.656
32949W        W 4565   8.933  23.529  10.469
32950W        W 4566  20.683  26.692   0.800
32951W        W 4567  21.997   5.658  10.762
32952W        W 4568   2.292  14.474   2.346
32953W        W 4569   6.369  42.411   1.326
32954W        W 4570   1.492  37.577   0.922
32955W        W 4571  21.273  40.858   1.008
32956W        W 4572  18.077  20.019   0.910
32957W        W 4573  20.283  16.818   2.698
32958W        W 4574  31.215  22.750   1.311
32959W        W 4575  24.187  43.713   2.221
32960W        W 4576  20.110   2.241   2.129
32961W        W 4577  11.630  43.410  12.558
32962W        W 4578   8.821  29.673  13.604
32963W        W 4579   6.895  13.620  14.140
32964W        W 4580  39.656  42.054   0.742
32965W        W 4581  24.583  38.956  11.230
32966W        W 4582  17.672  39.227   2.159
32967W        W 4583   3.170  24.982  12.231
32968W        W 4584  26.956  32.810  14.868
32969W        W 4585  21.081  36.944  12.540
32970W        W 4586  24.328  25.138  11.194
32971W        W 4587  29.041   8.841  14.946
32972W        W 4588  26.025  11.642   1.916
32973W        W 4589  39.057   0.312   2.836
32974W        W 4590  43.435  18.329   2.485
32975W        W 4591  39.890  32.569   1.012
32976W        W 4592  43.328   9.352  11.650
32977W        W 4593  20.135  15.915  10.697
32978W        W 4594  18.122  34.004  12.067
32979W        W 4595  39.982  36.601   3.694
32980W        W 4596  15.790  24.192  13.838
32981W        W 4597  34.810  33.635   4.540
32982W        W 4598  38.376  44.846  14.474
32983W        W 4599  14.761  33.850  11.031
32984W        W 4600  34.382  43.011  11.598
32985W        W 4601  44.494  41.973   4.415
32986W        W 4602  37.071  22.312   3.150
32987W        W 4603  38.263  38.167   3.665
32988W        W 4604  15.824   5.291  14.993
32989W        W 4605  16.734  12.816  11.536
32990W        W 4606  38.237  44.920   1.956
32991W        W 4607   3.360  22.098   5.479
32992W        W 4608   4.865  35.954   1.184
32993W        W 4609  20.242  36.850   0.754
32994W        W 4610  12.902  42.470  14.489
32995W        W 4611  41.513   9.320  11.558
32996W        W 4612   5.532  41.792  12.893
32997W        W 4613  31.005  43.893   2.284
32998W        W 4614   5.505   5.906   3.664
32999W        W 4615  28.572  37.147  12.019
33000W        W 4616  34.822  34.524   1.142
33001W        W 4617  29.144  16.874   4.045
33002W        W 4618   6.301  17.290  12.762
33003W        W 4619  39.757  34.224  14.884
33004W        W 4620  36.037  41.109   4.026
33005W        W 4621   3.034  18.352   0.090
33006W        W 4622  13.369  13.940   3.291
33007W        W 4623  32.496  18.091  11.963
33008W        W 4624  22.618  43.433   2.413
33009W        W 4625  17.244   9.333  11.116
33010W        W 4626  23.257  43.541  14.920
33011W        W 4627   9.708  16.049   1.255
33012W        W 4628  32.426   2.992  14.897
33013W        W 4629  41.442  14.244  13.672
33014W        W 4630   3.397   3.686   0.422
33015W        W 4631  29.981  39.043  11.145
33016W        W 4632   8.603  43.485   2.362
33017W        W 4633  16.650  22.197   1.219
33018W        W 4634  14.665  33.545  13.389
33019W        W 4635   0.561  32.923  11.000
33020W        W 4636   4.213  10.198  13.793
33021W        W 4637  38.342  19.802   1.268
33022W        W 4638  40.281  10.486  13.350
33023W        W 4639  10.258  20.918  14.432
33024W        W 4640   0.090  42.790   1.359
33025W        W 4641  27.964   5.957  14.359
33026W        W 4642  15.163  30.569  12.362
33027W        W 4643  43.987  10.849   2.264
33028W        W 4644  20.171  21.466  11.660
33029W        W 4645  24.721  44.331  14.333
33030W        W 4646   0.967   2.729  10.866
33031W        W 4647   5.423  39.597   1.801
33032W        W 4648  30.496  44.222  14.826
33033W        W 4649  40.868  41.881  11.141
33034W        W 4650   1.031  17.773   4.872
33035W        W 4651  13.688  33.059   1.686
33036W        W 4652  25.533  16.360   0.427
33037W        W 4653  41.959   2.313   0.370
33038W        W 4654  12.529  17.423   3.713
33039W        W 4655   2.372  31.939   0.891
33040W        W 4656   5.887  26.181   3.687
33041W        W 4657  34.357  14.058   2.604
33042W        W 4658   9.188  21.533  11.440
33043W        W 4659  23.471   5.267   1.797
33044W        W 4660   9.781  38.312   1.999
33045W        W 4661  44.283  42.928   2.894
33046W        W 4662  43.334  40.426   2.566
33047W        W 4663  37.040   1.439   4.434
33048W        W 4664  17.366  30.079  11.907
33049W        W 4665  41.528  15.394   1.391
33050W        W 4666  26.688  11.686  13.880
33051W        W 4667   2.887  13.184   3.395
33052W        W 4668  37.315  38.088  10.894
33053W        W 4669   1.945  44.226   3.594
33054W        W 4670  29.901  33.088   4.769
33055W        W 4671  26.069  14.903   2.585
33056W        W 4672   2.336  17.309   3.706
33057W        W 4673  35.639  41.963   2.969
33058W        W 4674  22.723  42.266   1.952
33059W        W 4675  32.865  37.173  12.111
33060W        W 4676  23.129   0.781  12.513
33061W        W 4677  23.671  12.951   0.227
33062W        W 4678  17.058   4.243   0.059
33063W        W 4679  31.895  28.972   3.422
33064W        W 4680  39.788  10.404  12.047
33065W        W 4681   8.938  26.961  12.924
33066W        W 4682  12.713  13.330   3.315
33067W        W 4683  23.767   9.735   2.700
33068W        W 4684   8.629  24.126   4.135
33069W        W 4685  39.338  21.476   2.896
33070W        W 4686   2.320  21.723  14.470
33071W        W 4687  36.348  15.119  12.537
33072W        W 4688  35.850  17.040   4.146
33073W        W 4689   2.246  31.100  12.236
33074W        W 4690   1.010  19.224  14.641
33075W        W 4691   5.942  25.781   1.453
33076W        W 4692  36.723   0.025   1.508
33077W        W 4693  40.997  20.596  13.901
33078W        W 4694   5.761  36.484  13.859
33079W        W 4695  10.897  25.617  11.488
33080W        W 4696  16.836  34.989   3.010
33081W        W 4697  32.153   5.164   0.958
33082W        W 4698   4.306   1.743   4.130
33083W        W 4699  39.353  33.404  10.431
33084W        W 4700  18.755  43.542  11.976
33085W        W 4701  40.258  13.326  11.009
33086W        W 4702   6.013   0.426   4.305
33087W        W 4703  19.710  20.751   2.628
33088W        W 4704  30.999  21.583   0.772
33089W        W 4705  18.813  40.496   4.044
33090W        W 4706   6.238  27.254   4.850
33091W        W 4707  41.415  26.181   1.847
33092W        W 4708  10.800  28.530   0.785
33093W        W 4709  35.068  43.098   4.823
33094W        W 4710   6.187  16.804  11.433
33095W        W 4711  30.088  32.183  14.821
33096W        W 4712  17.319  38.134   0.288
33097W        W 4713  17.855  37.586   2.832
33098W        W 4714  27.950  22.253   2.515
33099W        W 4715   8.361  39.447   0.926
33100W        W 4716  37.360   6.698   4.668
33101W        W 4717  36.025  42.854   3.086
33102W        W 4718  33.103   8.338  12.439
33103W        W 4719  10.649  41.361  11.640
33104W        W 4720  31.016  31.805   4.449
33105W        W 4721  24.532  14.769   0.339
33106W        W 4722   2.312   5.655  13.062
33107W        W 4723  34.514  36.083   3.247
33108W        W 4724   2.816  36.384   2.227
33109W        W 4725  15.873   9.873  14.411
33110W        W 4726  39.983  33.543   0.515
33111W        W 4727  18.464  43.654   1.247
33112W        W 4728   0.516  32.892  14.347
33113W        W 4729  41.412   4.648  11.628
33114W        W 4730  29.501   4.914   0.425
33115W        W 4731   1.541  33.184   0.853
33116W        W 4732  20.686  33.576  13.916
33117W        W 4733  37.779  40.766  11.444
33118W        W 4734  42.796  34.912  12.441
33119W        W 4735  42.332   1.481  11.611
33120W        W 4736  40.351   4.806   2.327
33121W        W 4737  43.474  11.816   1.465
33122W        W 4738  41.548   8.407  11.638
33123W        W 4739  13.145  37.547  14.143
33124W        W 4740  41.258  29.535   4.629
33125W        W 4741  31.899  37.450  12.220
33126W        W 4742  32.409  29.108   3.611
33127W        W 4743  15.227  15.320  12.477
33128W        W 4744   7.433  25.147  10.666
33129W        W 4745   6.329  10.565   3.256
33130W        W 4746  35.261  20.750  11.990
33131W        W 4747  37.134  10.259   1.528
33132W        W 4748  26.622  20.091  13.332
33133W        W 4749  31.509  14.100  10.798
33134W        W 4750   7.109  15.236  13.755
33135W        W 4751  39.284   1.282   3.887
33136W        W 4752  11.934   9.355   1.438
33137W        W 4753  11.770  25.266   1.795
33138W        W 4754  17.873  28.488  10.687
33139W        W 4755  18.247  31.587   3.140
33140W        W 4756  41.994  43.832   3.235
33141W        W 4757  26.124  28.178  13.071
33142W        W 4758   5.172   7.421  12.536
33143W        W 4759  20.105  26.453   3.982
33144W        W 4760  44.559   7.700  11.974
33145W        W 4761   4.428  27.635   4.530
33146W        W 4762  44.764  32.203   3.255
33147W        W 4763   5.634  13.635  12.421
33148W        W 4764   2.214  29.222  14.713
33149W        W 4765  26.998  14.652  10.249
33150W        W 4766  14.873  31.669   2.306
33151W        W 4767  35.087   6.903   1.246
33152W        W 4768  34.398  23.764  13.852
33153W        W 4769   8.377  42.326   2.417
33154W        W 4770   2.256  21.200  10.479
33155W        W 4771  22.620  16.244   1.368
33156W        W 4772   5.340  22.717  14.885
33157W        W 4773  35.140  32.381  12.357
33158W        W 4774  12.239   1.782  13.572
33159W        W 4775  30.627  23.887   4.508
33160W        W 4776  37.420  39.485   1.798
33161W        W 4777  21.345   0.793  13.900
33162W        W 4778  34.811   9.905   4.815
33163W        W 4779  39.339  28.588  14.762
33164W        W 4780  17.040  38.435   3.166
33165W        W 4781  11.861  35.156  12.061
33166W        W 4782  14.409   8.772   2.642
33167W        W 4783  15.581  15.365  12.099
33168W        W 4784   3.215   3.327   2.439
33169W        W 4785  43.172   4.946   1.691
33170W        W 4786  42.803  33.051  14.680
33171W        W 4787  23.110  37.843   1.897
33172W        W 4788  37.460  37.815   1.141
33173W        W 4789  12.328  34.822  10.638
33174W        W 4790  31.436   3.708   4.598
33175W        W 4791  12.820   0.974  13.995
33176W        W 4792  17.673   8.112   3.564
33177W        W 4793  41.910   1.492  13.864
33178W        W 4794  16.945  15.331  14.696
33179W        W 4795  16.455  24.019  11.553
33180W        W 4796  19.329  20.910   4.611
33181W        W 4797  15.101  38.202  13.902
33182W        W 4798  38.517  26.654  14.259
33183W        W 4799  26.656   0.215   0.770
33184W        W 4800   7.294   3.790   2.717
33185W        W 4801  32.900   0.837   4.652
33186W        W 4802  39.948  37.854   0.787
33187W        W 4803  34.119   5.852  12.361
33188W        W 4804  36.865   4.213  11.716
33189W        W 4805  32.797   4.310   0.545
33190W        W 4806  26.262  20.597   0.415
33191W        W 4807  34.974  20.247  10.753
33192W        W 4808   3.646  23.120   2.104
33193W        W 4809  23.052  14.878   3.322
33194W        W 4810  25.269  25.405  14.536
33195W        W 4811   9.481  26.949   3.655
33196W        W 4812  33.482  35.013  13.838
33197W        W 4813  30.681   2.995  11.604
33198W        W 4814  12.682  39.560   0.342
33199W        W 4815  38.803  30.802  11.202
33200W        W 4816  13.558  26.830   2.884
33201W        W 4817  20.681   0.564  12.337
33202W        W 4818  17.267  35.149  12.223
33203W        W 4819  32.338   7.231   2.372
33204W        W 4820  25.697   2.716  13.101
33205W        W 4821   5.931  26.442  14.487
33206W        W 4822  25.791  42.092  14.961
33207W        W 4823  22.354  35.085   3.719
33208W        W 4824  38.507  28.872  13.853
33209W        W 4825   5.778   7.736  14.763
33210W        W 4826  11.130  25.085   0.994
33211W        W 4827  12.737   7.302   3.856
33212W        W 4828  12.329  43.561  10.769
33213W        W 4829  37.423  37.406   2.376
33214W        W 4830  44.575  38.424  14.419
33215W        W 4831  25.127  24.505   2.831
33216W        W 4832  39.358   3.328   3.396
33217W        W 4833  28.595  20.001  14.441
33218W        W 4834  44.896  11.757   1.305
33219W        W 4835  22.723  23.696  12.905
33220W        W 4836  18.520  29.535  14.831
33221W        W 4837   4.530  15.406  11.089
33222W        W 4838   4.720  18.052   2.263
33223W        W 4839  35.793   3.360  10.458
33224W        W 4840  19.036   9.812   1.714
33225W        W 4841  33.958  30.180  12.871
33226W        W 4842  41.916  38.257  11.097
33227W        W 4843  12.095  23.618   3.689
33228W        W 4844  33.371  15.217  14.527
33229W        W 4845  30.936  30.161  14.687
33230W        W 4846  19.657   0.733  12.390
33231W        W 4847   7.566  10.358   2.221
33232W        W 4848   1.955  44.877   2.023
33233W        W 4849  22.514   0.862  10.971
33234W        W 4850  24.784  39.313   2.852
33235W        W 4851  31.725  30.892   3.589
33236W        W 4852  29.809  37.469   1.464
33237W        W 4853  40.713  40.367  12.795
33238W        W 4854  22.774   1.789   1.267
33239W        W 4855  18.064  41.033   2.210
33240W        W 4856  18.504  13.777  13.003
33241W        W 4857  26.015   9.567   2.346
33242W        W 4858   5.330  29.419  13.805
33243W        W 4859  10.248  22.200   1.471
33244W        W 4860  36.819   3.759  11.474
33245W        W 4861  34.047  30.617  13.174
33246W        W 4862  35.583   4.698   2.439
33247W        W 4863  36.599  20.810  11.486
33248W        W 4864  41.344  23.900   1.297
33249W        W 4865  14.375  24.472   2.294
33250W        W 4866  39.962   7.613   2.884
33251W        W 4867  19.260   7.707   3.800
33252W        W 4868   0.711  20.693  11.968
33253W        W 4869   9.516  24.449  12.512
33254W        W 4870   8.176  21.733   1.141
33255W        W 4871  11.760  12.164   4.627
33256W        W 4872  11.346  18.589   1.318
33257W        W 4873   9.838  34.558   2.223
33258W        W 4874   3.365  20.168   2.501
33259W        W 4875   5.849  24.364  12.633
33260W        W 4876  39.973  33.278  12.585
33261W        W 4877  39.730  26.416  12.333
33262W        W 4878  36.972  14.806   2.079
33263W        W 4879  38.365  26.730   1.342
33264W        W 4880  44.742  22.735  12.606
33265W        W 4881   4.246  39.270  13.976
33266W        W 4882  33.597   0.589   4.882
33267W        W 4883  39.464   8.915   2.721
33268W        W 4884  42.882  35.406   2.371
33269W        W 4885   6.257  40.101  14.499
33270W        W 4886  15.075  26.607  12.188
33271W        W 4887  26.087  15.579  10.483
33272W        W 4888   4.655  16.767   1.884
33273W        W 4889  39.076  24.021   1.753
33274W        W 4890  37.014  32.115   4.577
33275W        W 4891  43.820  22.086   4.133
33276W        W 4892   6.871  34.862  10.562
33277W        W 4893  20.653   3.390   2.116
33278W        W 4894  36.658  29.407  10.715
33279W        W 4895  18.257  35.526  12.838
33280W        W 4896  27.128  13.997   5.038
33281W        W 4897  31.312  29.035   4.257
33282W        W 4898   7.442   9.309  10.844
33283W        W 4899  16.707   7.276  10.657
33284W        W 4900  26.448   4.351  10.648
33285W        W 4901  18.494  25.883   3.202
33286W        W 4902  28.488  16.902  11.997
33287W        W 4903  15.322  18.908   5.006
33288W        W 4904  27.598  44.293  12.020
33289W        W 4905  35.547   2.895  10.589
33290W        W 4906   4.871  31.808  14.000
33291W        W 4907   1.241  29.153   1.742
33292W        W 4908  44.926  27.450   0.759
33293W        W 4909  36.319  17.781   4.284
33294W        W 4910   2.538   1.024   0.203
33295W        W 4911  16.802  14.651   3.134
33296W        W 4912  39.701  34.081   2.879
33297W        W 4913  35.928  40.366  12.760
33298W        W 4914  13.403   8.017  13.476
33299W        W 4915   0.521   4.644  10.221
33300W        W 4916  35.421  27.047   3.314
33301W        W 4917  13.114  43.294   3.701
33302W        W 4918   7.140   4.009   4.051
33303W        W 4919  13.243  35.109  12.184
33304W        W 4920  27.980  34.686  13.602
33305W        W 4921  18.558  20.835  14.504
33306W        W 4922  20.461   2.567  11.154
33307W        W 4923  21.986  29.289   0.786
33308W        W 4924  39.052  14.870   0.006
33309W        W 4925   6.723  43.738  13.952
33310W        W 4926  13.152   2.421   3.655
33311W        W 4927  22.407  44.213  11.937
33312W        W 4928  20.652   5.822   4.120
33313W        W 4929  44.865   7.917   4.085
33314W        W 4930  43.810  42.481  10.756
33315W        W 4931  10.853  33.655  12.103
33316W        W 4932  12.533  25.998  12.654
33317W        W 4933  37.379   3.473   1.675
33318W        W 4934  22.649   9.727  11.122
33319W        W 4935  33.878  22.708   1.694
33320W        W 4936  32.081  34.318   2.549
33321W        W 4937  14.711  42.547   4.092
33322W        W 4938  14.142  44.795  12.547
33323W        W 4939  43.423  17.600  13.559
33324W        W 4940  21.125  40.520   5.228
33325W        W 4941  22.599   2.715  12.512
33326W        W 4942  29.014  30.219  14.485
33327W        W 4943  28.046  33.260  14.776
33328W        W 4944  26.524   2.717  12.795
33329W        W 4945  31.601  21.056  12.813
33330W        W 4946  16.501  41.823  13.488
33331W        W 4947  44.052  11.666   3.320
33332W        W 4948  42.069  23.112   1.393
33333W        W 4949  32.556  17.784   4.355
33334W        W 4950  11.732  12.888   3.602
33335W        W 4951   1.714   7.183   3.263
33336W        W 4952   6.599  40.317   3.632
33337W        W 4953   7.831  23.801   4.867
33338W        W 4954  34.553   6.880   4.589
33339W        W 4955  35.515  34.132  13.305
33340W        W 4956   2.698  19.596  14.425
33341W        W 4957  19.749  23.902   0.913
33342W        W 4958  12.918  42.516   0.016
33343W        W 4959  18.534  11.731   4.537
33344W        W 4960  30.493   6.222   5.043
33345W        W 4961  18.766  14.046   3.673
33346W        W 4962  19.001  32.498   3.705
33347W        W 4963   5.729  14.285   1.727
33348W        W 4964   3.166  32.259   1.309
33349W        W 4965  15.320  15.634  11.117
33350W        W 4966  30.032  10.592  13.949
33351W        W 4967   0.308  17.655  10.891
33352W        W 4968   8.422   3.371  12.515
33353W        W 4969  43.412   6.441  13.378
33354W        W 4970  12.893  24.437   4.055
33355W        W 4971  13.180  35.084   4.128
33356W        W 4972  24.090   1.424  12.040
33357W        W 4973   4.855  17.220   0.718
33358W        W 4974  12.236  13.593  12.501
33359W        W 4975  10.037  19.571  11.031
33360W        W 4976  17.576  16.585  14.875
33361W        W 4977  30.837  27.246  13.786
33362W        W 4978  11.647   1.690  12.455
33363W        W 4979  15.177  39.544   3.740
33364W        W 4980  39.759   9.290   0.459
33365W        W 4981  24.671  18.172   2.896
33366W        W 4982  39.947  24.935   2.043
33367W        W 4983  15.447  19.074   4.174
33368W        W 4984  37.804  26.674   5.011
33369W        W 4985  18.598  16.640   3.788
33370W        W 4986  10.085  22.593   4.606
33371W        W 4987   8.350  26.016   3.925
33372W        W 4988  35.601  22.396   0.463
33373W        W 4989  43.572  16.714   0.853
33374W        W 4990  27.042   7.352  13.241
33375W        W 4991  19.150  26.821  12.984
33376W        W 4992  19.195   9.774  13.906
33377W        W 4993   5.506  13.570  13.653
33378W        W 4994  10.072   4.747   2.195
33379W        W 4995  21.263  20.252  11.098
33380W        W 4996  39.210  30.855  11.535
33381W        W 4997  27.382  19.778   0.334
33382W        W 4998  40.024  12.712   2.666
33383W        W 4999  26.976   4.849  11.659
33384W        W 5000  38.543  14.520  12.387
33385W        W 5001  27.993  26.039  12.493
33386W        W 5002   0.314  27.422   3.293
33387W        W 5003  37.057  24.077  13.521
33388W        W 5004  10.638   7.272   2.903
33389W        W 5005   9.938  37.388   1.858
33390W        W 5006  27.666  38.304  14.810
33391W        W 5007   0.424  13.938  11.451
33392W        W 5008  31.844  43.370   1.468
33393W        W 5009   2.493  21.657   4.105
33394W        W 5010   2.325   1.697   2.114
33395W        W 5011  22.567   3.230  13.273
33396W        W 5012  22.243   6.705  10.300
33397W        W 5013  35.955   7.937  11.792
33398W        W 5014  43.641  26.532  11.104
33399W        W 5015  43.362  31.579  14.783
33400W        W 5016  24.328  10.128   2.351
33401W        W 5017   8.110  21.014   5.066
33402W        W 5018  36.878  27.255   3.307
33403W        W 5019  39.100  22.695  11.202
33404W        W 5020  40.774   7.377   0.946
33405W        W 5021  39.939  27.161  12.984
33406W        W 5022  22.597  41.020   4.712
33407W        W 5023  38.666   9.195  11.159
33408W        W 5024  28.529  34.604   4.569
33409W        W 5025  43.848  18.717   0.321
33410W        W 5026  20.805  13.597   2.638
33411W        W 5027   6.452  34.473   3.124
33412W        W 5028  35.614  41.538  13.302
33413W        W 5029  43.166   2.944  10.526
33414W        W 5030  11.747  33.570  11.189
33415W        W 5031  11.152  36.149   4.178
33416W        W 5032   1.546  29.494  11.695
33417W        W 5033  13.666  43.344  12.464
33418W        W 5034  41.292  14.468  11.148
33419W        W 5035   5.490   3.871   2.336
33420W        W 5036  18.601  22.179   2.865
33421W        W 5037  44.755   1.978  12.903
33422W        W 5038  33.691  26.559   4.012
33423W        W 5039   7.894  32.541   3.815
33424W        W 5040  21.826   2.027  13.934
33425W        W 5041   6.821  23.795   1.718
33426W        W 5042   6.031  37.495  14.218
33427W        W 5043  35.045   3.738  14.918
33428W        W 5044  21.021  22.022   2.438
33429W        W 5045  20.105  42.078  11.108
33430W        W 5046  23.740   5.851   4.944
33431W        W 5047   3.907  27.053  12.612
33432W        W 5048  18.212  38.140   0.510
33433W        W 5049  14.267  12.191   0.699
33434W        W 5050  43.591  10.680  14.436
33435W        W 5051   1.100  18.635   4.770
33436W        W 5052  22.446   8.651   3.196
33437W        W 5053  41.198  44.536  14.392
33438W        W 5054  15.550  20.348   2.216
33439W        W 5055   3.516  21.586  10.661
33440W        W 5056  14.814   8.124   3.754
33441W        W 5057  17.929  35.848   2.308
33442W        W 5058  43.053  40.444   1.985
33443W        W 5059   7.131  10.630  14.375
33444W        W 5060  34.338  27.069  13.789
33445W        W 5061  43.640  36.574   3.708
33446W        W 5062  36.947  22.177   2.322
33447W        W 5063  21.523  40.046   2.875
33448W        W 5064   5.922  28.361   0.939
33449W        W 5065  35.124  11.093   0.319
33450W        W 5066  36.426  16.155  13.368
33451W        W 5067  26.621  19.056  10.722
33452W        W 5068  14.351  38.951   0.880
33453W        W 5069  10.694  40.869  11.826
33454W        W 5070  13.804  26.065  14.529
33455W        W 5071  42.355  42.578  10.565
33456W        W 5072  18.543   0.863  14.592
33457W        W 5073  17.726  27.086   2.332
33458W        W 5074   8.160   5.202  12.658
33459W        W 5075  16.593  38.493  14.004
33460W        W 5076  40.768  15.185   2.723
33461W        W 5077  35.900  13.008  10.247
33462W        W 5078  11.585  39.394   2.837
33463W        W 5079  36.599  15.863  12.968
33464W        W 5080  30.540  39.656  12.471
33465W        W 5081  39.538  33.368  14.511
33466W        W 5082  30.516  20.757  12.985
33467W        W 5083  29.573  27.483   5.621
33468W        W 5084  28.424  36.981   3.235
33469W        W 5085  13.540  37.924  13.352
33470W        W 5086  36.863   2.398  12.574
33471W        W 5087  42.264  11.654  12.425
33472W        W 5088  18.775  16.960   0.857
33473W        W 5089  27.104  15.253   2.252
33474W        W 5090   0.042  13.553   3.617
33475W        W 5091  34.418   6.105  10.746
33476W        W 5092  31.486  24.209   2.831
33477W        W 5093  23.525   2.936   2.319
33478W        W 5094  25.079  42.876   1.250
33479W        W 5095  15.070  11.269   4.928
33480W        W 5096   9.647  42.308  10.712
33481W        W 5097  35.409  25.961   1.694
33482W        W 5098  34.196  26.589   1.355
33483W        W 5099  38.042   4.770   4.646
33484W        W 5100   3.342  14.239   4.640
33485W        W 5101   1.009  41.712  11.523
33486W        W 5102  42.784  44.421   2.421
33487W        W 5103   4.248  36.035  12.902
33488W        W 5104  31.370  41.535  11.018
33489W        W 5105  44.388  26.144  13.764
33490W        W 5106   3.464  43.301   3.213
33491W        W 5107   7.785  15.534  14.929
33492W        W 5108  23.973  37.389   4.032
33493W        W 5109   5.844   9.915   1.924
33494W        W 5110  30.032  15.291  11.839
33495W        W 5111  44.278  26.987   2.089
33496W        W 5112  40.077  43.364  14.301
33497W        W 5113   3.914  16.772  10.396
33498W        W 5114  34.090  44.472  12.445
33499W        W 5115  16.877  44.271   0.360
33500W        W 5116  23.206   2.460   0.598
33501W        W 5117   1.714  13.566  14.291
33502W        W 5118  36.085  19.606   4.136
33503W        W 5119   3.953  14.145  11.050
33504W        W 5120   9.836   0.512   2.296
33505W        W 5121  38.090  11.711  13.007
33506W        W 5122  27.938  17.206   0.292
33507W        W 5123  22.535  12.519  12.054
33508W        W 5124  17.234  26.575  13.843
33509W        W 5125  34.178  18.624   0.956
33510W        W 5126   7.773  20.808  12.546
33511W        W 5127  12.048  11.093  11.599
33512W        W 5128  19.580   6.673   2.008
33513W        W 5129  42.815  22.761  14.839
33514W        W 5130  36.447  10.470   4.073
33515W        W 5131   1.866  41.313  10.615
33516W        W 5132  40.520  26.658   1.824
33517W        W 5133  13.231   8.664   3.190
33518W        W 5134   5.658   2.368  13.943
33519W        W 5135  19.835  40.497   1.858
33520W        W 5136  28.663  11.890   1.765
33521W        W 5137  41.504   3.397  12.135
33522W        W 5138  11.799  16.129   4.590
33523W        W 5139  27.521  15.384  11.462
33524W        W 5140  20.312   7.658  11.568
33525W        W 5141  20.044  41.611   1.526
33526W        W 5142  42.748  22.000   2.244
33527W        W 5143   3.941  16.679   1.301
33528W        W 5144  44.387   7.306   1.752
33529W        W 5145  36.859  28.885   1.749
33530W        W 5146  20.679   9.831   3.940
33531W        W 5147  11.667  30.184   2.386
33532W        W 5148  33.040  22.565   4.252
33533W        W 5149  42.487   3.261   3.213
33534W        W 5150   5.163   5.919   0.952
33535W        W 5151  17.329  15.665   1.031
33536W        W 5152  43.754  35.068   0.407
33537W        W 5153  43.925  19.507  14.548
33538W        W 5154  43.512  16.923  12.092
33539W        W 5155  14.475  34.393   4.179
33540W        W 5156  38.833   1.250  13.443
33541W        W 5157  41.415  11.289  14.389
33542W        W 5158   8.422  33.564   3.497
33543W        W 5159  17.238   3.665  12.202
33544W        W 5160  18.167  12.112   3.269
33545W        W 5161   9.881  39.795   0.286
33546W        W 5162  10.656   1.703  14.901
33547W        W 5163  32.917  36.876   2.964
33548W        W 5164  44.203  42.553  10.382
33549W        W 5165  12.262  12.595   3.120
33550W        W 5166  30.623  16.732  11.000
33551W        W 5167  16.553  30.448  12.039
33552W        W 5168  29.818  15.629   3.391
33553W        W 5169  24.481  34.551   3.256
33554W        W 5170   3.006  39.031   4.144
33555W        W 5171  40.408  42.567   3.747
33556W        W 5172  12.570  13.229  14.753
33557W        W 5173  38.224  25.722   4.137
33558W        W 5174  17.092   5.693   0.209
33559W        W 5175   9.639  27.424  14.903
33560W        W 5176   8.524  11.932  12.068
33561W        W 5177  16.261  14.520  14.828
33562W        W 5178  21.650  38.579   2.770
33563W        W 5179  16.301  31.746  13.083
33564W        W 5180  14.318  38.878  14.454
33565W        W 5181  25.174  36.356  11.666
33566W        W 5182  44.176  27.222   2.640
33567W        W 5183   5.759  18.971   4.876
33568W        W 5184  44.941  35.493  14.871
33569W        W 5185  12.660  19.018  14.257
33570W        W 5186   3.491   2.392   0.713
33571W        W 5187  24.463  44.911   2.207
33572W        W 5188  27.815  36.662   1.429
33573W        W 5189  30.974  36.542  13.035
33574W        W 5190  39.959   0.971   2.336
33575W        W 5191  37.007  15.154   0.734
33576W        W 5192  10.714  43.602   0.551
33577W        W 5193  40.983  19.807  14.767
33578W        W 5194  12.725  13.052   3.767
33579W        W 5195   7.818  23.388  14.209
33580W        W 5196  20.693  14.300  14.048
33581W        W 5197   2.382  35.365  12.423
33582W        W 5198  18.101  18.779   2.398
33583W        W 5199   0.757  11.147  14.079
33584W        W 5200  37.997  36.155   2.687
33585W        W 5201  32.187   2.986  10.586
33586W        W 5202   5.927  18.978  12.515
33587W        W 5203  13.836   5.655  13.078
33588W        W 5204  42.428  42.746  14.917
33589W        W 5205  20.452  24.267   3.219
33590W        W 5206   0.710   2.194  12.013
33591W        W 5207  43.304   3.225  14.682
33592W        W 5208  40.430   7.140  13.539
33593W        W 5209  30.171  42.781   4.548
33594W        W 5210   5.202  35.435   2.795
33595W        W 5211   0.248  44.002  13.477
33596W        W 5212  15.786  18.837   1.333
33597W        W 5213  32.944  12.060  12.446
33598W        W 5214  14.096  30.398   3.373
33599W        W 5215  22.579   6.827  11.724
33600W        W 5216  33.100  38.402  11.564
33601W        W 5217  21.048  33.224   0.916
33602W        W 5218  15.538  20.081  13.894
33603W        W 5219  24.458  18.780  10.955
33604W        W 5220   8.456  28.357   2.250
33605W        W 5221  15.877   0.531   1.764
33606W        W 5222  23.515  32.422   3.399
33607W        W 5223  20.447  31.441  12.355
33608W        W 5224  24.104  42.918   2.843
33609W        W 5225  14.553  40.493   4.248
33610W        W 5226  22.528  39.292   3.671
33611W        W 5227   9.768  10.852   0.880
33612W        W 5228  31.638  11.026   5.010
33613W        W 5229   4.439   2.822  10.937
33614W        W 5230  39.169   9.985   4.801
33615W        W 5231  29.147  14.796   4.096
33616W        W 5232  36.926  14.617   3.903
33617W        W 5233  41.343   1.821   3.937
33618W        W 5234  26.979  42.045  11.144
33619W        W 5235  42.301  21.017  13.846
33620W        W 5236  41.042  20.083   3.794
33621W        W 5237   9.820  14.107   1.331
33622W        W 5238  27.182   3.534   0.066
33623W        W 5239   7.341  20.834  14.195
33624W        W 5240  19.942  37.426  14.827
33625W        W 5241  19.320  29.617   4.076
33626W        W 5242  35.386  23.846  13.394
33627W        W 5243  23.118  18.024  14.853
33628W        W 5244  24.565  18.994   2.251
33629W        W 5245  25.429  32.128  14.802
33630W        W 5246  22.105   6.810   1.356
33631W        W 5247   3.998   0.475  12.359
33632W        W 5248   4.833   5.857  14.142
33633W        W 5249  35.933  24.041   4.177
33634W        W 5250  44.499   6.375   0.345
33635W        W 5251  29.487  12.972   2.848
33636W        W 5252  24.272  15.261   2.807
33637W        W 5253   8.772  18.353  13.332
33638W        W 5254  17.158  10.342   1.866
33639W        W 5255  19.553  29.085  10.838
33640W        W 5256  23.936   3.190  12.909
33641W        W 5257  18.647  38.472   1.519
33642W        W 5258  26.680   0.559   2.207
33643W        W 5259   6.232  42.944   1.828
33644W        W 5260  30.227   1.828   2.313
33645W        W 5261  40.041   4.395   3.061
33646W        W 5262  15.297  40.798   1.767
33647W        W 5263  38.513  11.851   4.643
33648W        W 5264  38.036  27.671   4.648
33649W        W 5265  18.944  33.961  14.261
33650W        W 5266  30.691   8.070  14.406
33651W        W 5267  33.148  36.555   4.733
33652W        W 5268  37.132   6.478  12.868
33653W        W 5269  20.210  32.686   3.368
33654W        W 5270   7.642   1.271   3.217
33655W        W 5271  23.861  21.928   1.338
33656W        W 5272  38.194  25.388  14.035
33657W        W 5273   5.986  10.321  13.425
33658W        W 5274  22.743  29.364   1.391
33659W        W 5275  32.039  27.245   2.105
33660W        W 5276  17.644  36.394  14.435
33661W        W 5277  19.736  17.694   0.521
33662W        W 5278   1.474   0.046   2.250
33663W        W 5279  24.317  22.655  14.896
33664W        W 5280  26.489   4.743   4.543
33665W        W 5281   1.740   4.350   0.256
33666W        W 5282   1.268  11.907  10.582
33667W        W 5283  30.149  33.610  13.386
33668W        W 5284   5.000  10.819   1.397
33669W        W 5285  41.826  10.855  12.628
33670W        W 5286  19.081  36.422   1.605
33671W        W 5287  16.707  22.604  12.815
33672W        W 5288  36.462  43.789   2.307
33673W        W 5289  16.444  26.643  13.378
33674W        W 5290  19.371   7.707  11.776
33675W        W 5291  12.858  32.066  13.585
33676W        W 5292  14.723  30.340  14.790
33677W        W 5293   9.588  30.978   2.291
33678W        W 5294  36.032  21.842  12.338
33679W        W 5295   0.406   9.500  13.055
33680W        W 5296  11.470   0.750   0.370
33681W        W 5297   2.342   4.980  14.301
33682W        W 5298  19.752   1.776   4.196
33683W        W 5299  20.339  23.711   3.816
33684W        W 5300  40.380  13.925  13.461
33685W        W 5301  30.229  29.417   0.464
33686W        W 5302  44.395  23.043  11.188
33687W        W 5303  41.074  27.725  14.279
33688W        W 5304  40.353   4.397  11.743
33689W        W 5305  29.673  13.238  14.309
33690W        W 5306  33.871  32.486   3.700
33691W        W 5307  41.588  26.686  12.946
33692W        W 5308  44.568  18.704   1.187
33693W        W 5309  27.038  41.080   2.551
33694W        W 5310  19.993  20.128   0.715
33695W        W 5311  40.271  14.743  11.301
33696W        W 5312  35.345  38.744  14.042
33697W        W 5313  34.085   9.646  13.840
33698W        W 5314   8.974  40.297   0.731
33699W        W 5315  40.930  43.762  13.856
33700W        W 5316  26.222  34.004   2.305
33701W        W 5317  31.728  43.143  12.458
33702W        W 5318  34.101  21.713   1.919
33703W        W 5319  28.981  25.942   2.655
33704W        W 5320  16.159  24.207   1.557
33705W        W 5321  34.504  33.082   0.386
33706W        W 5322   6.372  10.114   4.595
33707W        W 5323  41.829  34.098  11.217
33708W        W 5324  10.326  40.103   0.260
33709W        W 5325  32.644  26.981   2.749
33710W        W 5326  32.951  37.501  11.350
33711W        W 5327  32.894   9.824  14.371
33712W        W 5328  20.788  43.024  13.893
33713W        W 5329  29.142  33.904  14.019
33714W        W 5330  22.091  38.183  11.426
33715W        W 5331  35.037  23.021  12.482
33716W        W 5332  44.973  42.705  14.608
33717W        W 5333  12.823   1.287  13.515
33718W        W 5334  39.005  34.413   2.849
33719W        W 5335  30.479  40.015   0.821
33720W        W 5336  40.809   9.779   2.738
33721W        W 5337  21.966  32.039   4.166
33722W        W 5338  32.030   3.525   0.365
33723W        W 5339  39.575  44.110   3.848
33724W        W 5340  18.214  38.412  11.874
33725W        W 5341  11.712   3.538   2.417
33726W        W 5342  27.021  29.459  14.980
33727W        W 5343  39.349  21.198   3.865
33728W        W 5344   9.164   6.797   4.340
33729W        W 5345   4.399  16.268  13.942
33730W        W 5346  41.897  36.146   3.750
33731W        W 5347  24.164  31.018  14.973
33732W        W 5348  26.912  30.153   3.165
33733W        W 5349  43.010   9.253   0.369
33734W        W 5350  38.850  24.507   1.832
33735W        W 5351  10.740  15.475  10.166
33736W        W 5352  22.711  32.024   1.919
33737W        W 5353  31.610  26.054  11.590
33738W        W 5354  28.689   5.651  12.489
33739W        W 5355  43.300  23.966  12.479
33740W        W 5356  30.722   9.456  12.046
33741W        W 5357  15.566  13.295   1.439
33742W        W 5358   0.812  28.351  11.150
33743W        W 5359  36.854  23.708  12.784
33744W        W 5360  23.079  19.972   4.601
33745W        W 5361  10.962  12.634   0.387
33746W        W 5362  43.183   1.924  13.592
33747W        W 5363  11.836  36.674  11.402
33748W        W 5364  24.503  25.571  11.992
33749W        W 5365   8.093  29.667   5.067
33750W        W 5366  39.305  30.920  11.028
33751W        W 5367  38.082  25.572  13.096
33752W        W 5368   7.063  29.519   3.721
33753W        W 5369  15.206  26.617  11.694
33754W        W 5370  10.066   2.762  10.801
33755W        W 5371  14.714  16.536   2.896
33756W        W 5372  25.018  19.565  14.720
33757W        W 5373  12.627  29.054  12.883
33758W        W 5374   8.230   9.706   4.175
33759W        W 5375  38.571  25.912   3.100
33760W        W 5376   7.416  20.340  11.170
33761W        W 5377  32.337  37.334  10.228
33762W        W 5378  19.210   0.318  10.575
33763W        W 5379  15.218  28.944  11.177
33764W        W 5380   0.577  16.516  14.908
33765W        W 5381  32.151  15.074   1.854
33766W        W 5382  25.189   4.221   0.390
33767W        W 5383  38.963   4.396   3.098
33768W        W 5384  41.540  36.126  12.424
33769W        W 5385  17.516  36.592   1.779
33770W        W 5386  34.330  16.363   2.797
33771W        W 5387  32.203  10.230   3.144
33772W        W 5388   8.113  32.878  12.559
33773W        W 5389  39.721  19.932   4.523
33774W        W 5390  40.928   5.360  12.987
33775W        W 5391   3.973   8.667  14.508
33776W        W 5392  20.131   7.795   2.889
33777W        W 5393  43.302  31.020  14.769
33778W        W 5394  43.279  14.675  13.483
33779W        W 5395  20.517  36.668  11.552
33780W        W 5396  15.571   9.346   1.144
33781W        W 5397  22.656  23.894   4.221
33782W        W 5398  32.949  31.619   1.430
33783W        W 5399   2.449  20.107   1.935
33784W        W 5400  20.124  28.254   4.636
33785W        W 5401  38.913  18.109  12.221
33786W        W 5402  32.884  44.468  11.439
33787W        W 5403  35.844  33.666   0.052
33788W        W 5404  31.723   9.417   3.135
33789W        W 5405  24.909  33.102   3.722
33790W        W 5406   9.188  13.169   0.922
33791W        W 5407   4.664  24.231  13.814
33792W        W 5408  40.193  44.914  12.775
33793W        W 5409  25.156  17.628  14.967
33794W        W 5410  25.301  29.956  11.016
33795W        W 5411   5.180   7.365  12.013
33796W        W 5412  13.204  40.151  12.457
33797W        W 5413  15.061   6.246   1.282
33798W        W 5414   1.932   7.735   2.628
33799W        W 5415  24.595  22.030   2.167
33800W        W 5416   3.676  22.439   5.255
33801W        W 5417   9.122  27.421  12.012
33802W        W 5418  18.316   8.650   0.399
33803W        W 5419  20.895  42.361   0.820
33804W        W 5420  31.080  13.263   1.916
33805W        W 5421  37.013  39.959  14.815
33806W        W 5422  39.602  19.790   4.013
33807W        W 5423  23.046  10.122   2.509
33808W        W 5424   1.235  26.807  11.712
33809W        W 5425  17.973  22.085   0.630
33810W        W 5426  20.136   4.156   0.368
33811W        W 5427  41.355  29.668  10.672
33812W        W 5428  18.803   1.330  14.476
33813W        W 5429  15.560  29.046  13.046
33814W        W 5430  32.130  34.530  10.668
33815W        W 5431  28.498   1.987  13.347
33816W        W 5432  24.535  12.910  14.923
33817W        W 5433  20.313  32.124  12.128
33818W        W 5434   4.456  12.293   4.656
33819W        W 5435  17.129   2.926  11.515
33820W        W 5436  23.523  18.637   2.707
33821W        W 5437   2.565   6.508  12.502
33822W        W 5438  16.557  21.203  12.959
33823W        W 5439  34.086  11.269  13.138
33824W        W 5440  17.134  27.902  14.253
33825W        W 5441  15.266  13.618  11.562
33826W        W 5442   6.226   5.820  11.910
33827W        W 5443  32.529  35.582  11.232
33828W        W 5444  17.178   5.193   0.302
33829W        W 5445   6.199  42.366  10.714
33830W        W 5446  10.795  17.506   4.887
33831W        W 5447  19.618   9.061   3.181
33832W        W 5448  10.198  41.585  13.874
33833W        W 5449   5.965  32.461  10.601
33834W        W 5450  44.323  41.535   4.742
33835W        W 5451  20.686  34.677  11.666
33836W        W 5452  30.707  34.069   2.148
33837W        W 5453   2.979  22.664   3.645
33838W        W 5454  23.928  22.160   2.785
33839W        W 5455  20.928  22.531  10.627
33840W        W 5456  38.530  22.233  10.649
33841W        W 5457  24.269  29.436   2.654
33842W        W 5458  13.122   7.663  11.541
33843W        W 5459  14.337  22.826  12.549
33844W        W 5460  28.896  17.201  13.366
33845W        W 5461  10.857   8.928   2.163
33846W        W 5462  31.436  34.900  12.454
33847W        W 5463   5.573  24.203   1.817
33848W        W 5464  37.936  32.708  12.529
33849W        W 5465  32.860  21.202  12.060
33850W        W 5466  29.893  29.146  13.494
33851W        W 5467  32.454  37.319  13.998
33852W        W 5468  34.466  37.432   0.735
33853W        W 5469   3.194  14.157  13.552
33854W        W 5470  41.603   4.030   2.688
33855W        W 5471  38.983  20.576   2.355
33856W        W 5472  39.087  26.288  13.305
33857W        W 5473  42.334   5.823   1.738
33858W        W 5474  42.327  20.094  14.783
33859W        W 5475  24.725  44.483   2.311
33860W        W 5476  40.758  27.526  12.065
33861W        W 5477   2.444  36.918  14.338
33862W        W 5478  22.048   0.006   4.556
33863W        W 5479  24.856   5.931   4.904
33864W        W 5480  25.052  30.186   2.861
33865W        W 5481  25.385   7.486   4.537
33866W        W 5482  30.495  23.538  10.682
33867W        W 5483  25.245  39.771   4.177
33868W        W 5484   0.813  23.176  14.946
33869W        W 5485  26.242  40.736   3.458
33870W        W 5486  15.681  16.186   1.947
33871W        W 5487   2.245  36.557   4.066
33872W        W 5488  26.103  10.536   1.947
33873W        W 5489  43.483  37.383   0.391
33874W        W 5490  22.129  17.991   1.503
33875W        W 5491  22.939   8.409   1.942
33876W        W 5492  24.963  18.263   0.924
33877W        W 5493  43.002  22.751   4.563
33878W        W 5494   9.784  28.666   2.564
33879W        W 5495  36.611  23.005   2.353
33880W        W 5496  17.681   1.189  11.592
33881W        W 5497   3.822  18.519   1.282
33882W        W 5498  41.009   4.770  10.844
33883W        W 5499  39.812  23.223   2.237
33884W        W 5500  21.344  23.846  11.619
33885W        W 5501  32.601  40.811  12.850
33886W        W 5502  31.557  27.590  10.922
33887W        W 5503  13.377  15.885  12.168
33888W        W 5504   0.571   5.943  14.553
33889W        W 5505   4.459  20.603  12.683
33890W        W 5506  33.959   2.508   2.232
33891W        W 5507   5.835  31.309  14.964
33892W        W 5508  20.546  38.536   1.236
33893W        W 5509  14.240  25.884   4.079
33894W        W 5510   9.811  17.740   2.769
33895W        W 5511  29.838   7.391   1.342
33896W        W 5512  23.318  24.992   2.740
33897W        W 5513  24.358  21.195  10.642
33898W        W 5514   5.495  12.725  12.412
33899W        W 5515  19.707  12.052   1.805
33900W        W 5516   4.415   2.642  13.542
33901W        W 5517  36.052  11.047  12.006
33902W        W 5518  12.155  19.806  14.377
33903W        W 5519  26.990  25.105  11.487
33904W        W 5520  14.927  27.164   0.138
33905W        W 5521  11.607  26.610   2.827
33906W        W 5522  12.673  16.357   3.881
33907W        W 5523   8.944  43.352   1.285
33908W        W 5524  41.577  42.996   2.309
33909W        W 5525  17.475  44.203   3.574
33910W        W 5526   2.970   1.987  14.908
33911W        W 5527  44.750   9.686   3.826
33912W        W 5528  44.400  16.197   1.726
33913W        W 5529  21.688  28.421  12.023
33914W        W 5530  23.806  23.306  14.294
33915W        W 5531  38.774  18.622  11.184
33916W        W 5532  33.960  17.315  11.611
33917W        W 5533  39.016  23.089   0.662
33918W        W 5534   7.335  33.190   1.224
33919W        W 5535   3.223  37.775   1.366
33920W        W 5536  20.655  10.719   3.779
33921W        W 5537  10.093  40.024   3.336
33922W        W 5538  27.013  14.389  13.798
33923W        W 5539  21.268  12.170   3.207
33924W        W 5540  24.404   2.296   1.399
33925W        W 5541   2.297  18.665   1.617
33926W        W 5542  25.558  36.366  11.365
33927W        W 5543   9.270  16.138   3.779
33928W        W 5544   8.197  10.424  14.397
33929W        W 5545  26.494  15.180   4.878
33930W        W 5546  30.123   8.934  13.421
33931W        W 5547   5.924  13.566  13.283
33932W        W 5548  13.671  17.148  11.580
33933W        W 5549  32.799  18.108  11.007
33934W        W 5550  32.792  29.654  11.646
33935W        W 5551  26.966  18.800  13.333
33936W        W 5552  37.302   3.959  11.526
33937W        W 5553  44.456  25.167   0.227
33938W        W 5554  35.970  25.430   0.896
33939W        W 5555   3.364  35.578  14.005
33940W        W 5556  20.288  31.881   1.369
33941W        W 5557  39.990  24.838  11.145
33942W        W 5558  13.077  38.482  14.390
33943W        W 5559   4.480  34.280   4.999
33944W        W 5560  30.864  14.431   4.256
33945W        W 5561  28.303   5.369   2.345
33946W        W 5562   1.292  13.361   1.427
33947W        W 5563  33.595  18.355   1.747
33948W        W 5564  39.186  24.351  11.320
33949W        W 5565  18.795  20.927  14.048
33950W        W 5566   5.487  28.995   3.749
33951W        W 5567  32.353  31.821  10.271
33952W        W 5568  31.673  40.824   4.158
33953W        W 5569   9.339   8.262   2.754
33954W        W 5570  27.524  34.646  13.356
33955W        W 5571  34.876   8.780   2.864
33956W        W 5572   1.460   2.688   3.877
33957W        W 5573  11.892  25.660   3.311
33958W        W 5574  16.848  38.589   1.743
33959W        W 5575  34.676  30.138   1.422
33960W        W 5576   7.641  41.017   3.850
33961W        W 5577  24.090  37.861  10.655
33962W        W 5578   4.927  38.418   4.341
33963W        W 5579  19.118  39.440  12.795
33964W        W 5580  15.741  11.865  10.776
33965W        W 5581  19.551  30.067   4.262
33966W        W 5582  25.461  20.063   1.174
33967W        W 5583  40.570  26.432   3.661
33968W        W 5584   8.888  19.575   0.483
33969W        W 5585   8.220  16.097  10.663
33970W        W 5586  12.522  38.033  13.471
33971W        W 5587  15.578  23.657   4.145
33972W        W 5588  24.538  12.240   4.637
33973W        W 5589   7.342   3.453   4.017
33974W        W 5590  39.366   1.709   2.525
33975W        W 5591  20.780   5.230  12.995
33976W        W 5592  11.089  34.102   1.406
33977W        W 5593  11.983  23.755  11.973
33978W        W 5594  27.704  20.264   1.773
33979W        W 5595  34.558  38.749  11.667
33980W        W 5596   9.283  31.399   4.677
33981W        W 5597  43.751  40.845  12.033
33982W        W 5598  32.887  29.109   2.870
33983W        W 5599   8.804   0.666  11.003
33984W        W 5600  40.742  30.711   0.861
33985W        W 5601  14.242  36.810   0.712
33986W        W 5602  23.458   1.170  12.607
33987W        W 5603  31.502  12.206   3.943
33988W        W 5604  28.684  43.940   2.249
33989W        W 5605   5.081  10.245   2.127
33990W        W 5606  34.943  17.046   0.401
33991W        W 5607  23.277  38.857  14.507
33992W        W 5608  26.872  43.499   0.463
33993W        W 5609  23.266  36.001   2.805
33994W        W 5610  17.945   6.206  11.453
33995W        W 5611  27.605  23.234   3.268
33996W        W 5612   0.877  31.592  13.062
33997W        W 5613  35.147  37.930  13.917
33998W        W 5614  25.576  25.842  11.867
33999W        W 5615  14.807  39.603   3.389
34000W        W 5616  20.180  20.579  14.759
34001W        W 5617  24.227  13.281  10.547
34002W        W 5618  15.277   3.377  13.350
34003W        W 5619  42.746   0.934   0.960
34004W        W 5620   3.793  18.174   0.469
34005W        W 5621  29.231  11.308   0.235
34006W        W 5622  38.955  10.975  12.087
34007W        W 5623  29.134  42.253   1.642
34008W        W 5624  30.164  33.530  11.527
34009W        W 5625  24.436  16.599   4.064
34010W        W 5626  35.902   7.642  12.839
34011W        W 5627   4.482  30.862   1.230
34012W        W 5628  33.981  29.671  13.260
34013W        W 5629  39.560  43.280   3.205
34014W        W 5630  10.399  43.284  14.325
34015W        W 5631   3.244  14.410   0.655
34016W        W 5632  20.175  17.783   3.968
34017W        W 5633  16.832  19.755  10.775
34018W        W 5634   3.554  15.728  13.088
34019W        W 5635   9.346  21.988  11.234
34020W        W 5636  22.004  31.527  10.825
34021W        W 5637  44.341  17.228   3.291
34022W        W 5638  13.297  15.074  13.747
34023W        W 5639  42.414  35.563   4.445
34024W        W 5640  17.246   8.914   2.181
34025W        W 5641   1.953  12.522  12.857
34026W        W 5642  44.762  14.180   1.416
34027W        W 5643  42.854  38.533  12.590
34028W        W 5644  38.451  24.973  13.855
34029W        W 5645   1.487  39.828   0.002
34030W        W 5646  32.728  39.096  10.748
34031W        W 5647  24.581   1.551  11.970
34032W        W 5648  11.893  11.791   1.729
34033W        W 5649  33.792  21.729   2.587
34034W        W 5650  29.143  37.099  11.343
34035W        W 5651   3.797  31.356   2.782
34036W        W 5652  38.394  31.361  11.053
34037W        W 5653  27.958   4.775  11.653
34038W        W 5654  24.911   6.923   0.933
34039W        W 5655  17.682  24.929   1.243
34040W        W 5656  43.849  22.579   3.956
34041W        W 5657  32.484  13.824  11.651
34042W        W 5658   3.464  27.814   3.450
34043W        W 5659  26.696   9.984   1.929
34044W        W 5660  15.641  24.054  11.172
34045W        W 5661  37.661  42.770  13.824
34046W        W 5662   1.321  25.635  13.526
34047W        W 5663   7.525  28.337  10.571
34048W        W 5664   3.828   4.477   2.688
34049W        W 5665   7.316  13.571   0.902
34050W        W 5666  12.828  43.141   2.192
34051W        W 5667  38.582  21.722  13.238
34052W        W 5668   0.967   6.286   3.668
34053W        W 5669  20.803  31.106   1.412
34054W        W 5670  26.478   8.655  14.437
34055W        W 5671  36.313  42.077  13.922
34056W        W 5672  23.543  11.912  12.311
34057W        W 5673  36.032   3.433   0.856
34058W        W 5674  42.779  14.252   0.028
34059W        W 5675  14.274  23.731  12.977
34060W        W 5676  13.392   1.005   0.295
34061W        W 5677  26.950  28.177   2.363
34062W        W 5678  15.865  30.987   4.702
34063W        W 5679   0.019  18.657   4.622
34064W        W 5680  10.688  21.328   1.187
34065W        W 5681   1.820  16.917  11.603
34066W        W 5682  44.259  18.777  12.074
34067W        W 5683  25.088   4.804   4.382
34068W        W 5684  25.215  33.892   3.319
34069W        W 5685  32.192  16.538   4.152
34070W        W 5686   9.169  37.129  10.986
34071W        W 5687  35.679   5.746   3.791
34072W        W 5688  33.555  32.494  10.717
34073W        W 5689  28.479  21.170   3.087
34074W        W 5690   6.219  20.644  13.053
34075W        W 5691  23.044  13.610  14.011
34076W        W 5692  40.416   5.482   1.852
34077W        W 5693   5.903  29.322  13.086
34078W        W 5694   2.792   4.637   1.183
34079W        W 5695  44.916  15.607  10.627
34080W        W 5696  12.942  22.597  11.097
34081W        W 5697  16.556  36.428   4.667
34082W        W 5698  42.883   8.272   1.413
34083W        W 5699  35.959  40.371   0.232
34084W        W 5700  29.521   7.581  14.875
34085W        W 5701  22.590  14.415   0.694
34086W        W 5702   2.356  44.094  14.755
34087W        W 5703  18.702  28.216  10.997
34088W        W 5704  18.702  38.592   4.725
34089W        W 5705  34.018   2.173  11.881
34090W        W 5706   8.804   1.845  14.256
34091W        W 5707   5.565  19.514  12.117
34092W        W 5708   0.614   7.313  12.904
34093W        W 5709  31.246   5.453  12.566
34094W        W 5710   8.996  37.806  10.569
34095W        W 5711  24.569  42.446  11.998
34096W        W 5712  30.891  11.198   2.768
34097W        W 5713  29.072   4.382  10.382
34098W        W 5714  27.224  15.352  14.931
34099W        W 5715   9.659   7.946  11.996
34100W        W 5716  15.662   4.851  10.566
34101W        W 5717  10.332  40.998   0.078
34102W        W 5718  28.531  44.559  11.459
34103W        W 5719  44.560  11.855  14.802
34104W        W 5720  43.981  34.029   1.509
34105W        W 5721  12.035  29.599  12.441
34106W        W 5722  13.520  15.419  12.036
34107W        W 5723  10.606  21.105   3.821
34108W        W 5724   4.762  10.108   1.744
34109W        W 5725  36.537  19.733  13.199
34110W        W 5726   6.822   2.359  14.303
34111W        W 5727  19.376   9.330   2.802
34112W        W 5728  34.450   9.654  13.445
34113W        W 5729  19.759  42.426   9.775
34114W        W 5730  32.675  34.113   4.031
34115W        W 5731  17.236  37.663   4.622
34116W        W 5732  32.859  33.154  12.857
34117W        W 5733  31.216  31.986   4.943
34118W        W 5734  42.929   8.622  12.061
34119W        W 5735  41.829  19.986  10.758
34120W        W 5736  42.430  12.064  14.429
34121W        W 5737  16.798  26.628   4.109
34122W        W 5738  41.838   0.567   0.468
34123W        W 5739  35.191  13.177   3.473
34124W        W 5740  11.095   7.770  11.509
34125W        W 5741   9.844  31.128   0.375
34126W        W 5742   6.115  44.998   3.697
34127W        W 5743  15.994  43.377   2.732
34128W        W 5744   8.923  37.916  14.821
34129W        W 5745   3.930  26.138   0.761
34130W        W 5746  40.367  11.171   0.387
34131W        W 5747  43.648   2.510  12.351
34132W        W 5748  44.841  39.128  12.961
34133W        W 5749  23.658  44.042   4.207
34134W        W 5750  23.603   0.905   4.336
34135W        W 5751  32.935  28.005  14.144
34136W        W 5752  12.597  38.020  11.952
34137W        W 5753  24.169   5.575  12.904
34138W        W 5754  41.001  41.331  12.874
34139W        W 5755   3.201  11.281   1.770
34140W        W 5756  31.045  34.189   0.859
34141W        W 5757  23.291  10.759  12.202
34142W        W 5758  16.336  21.213  14.311
34143W        W 5759  21.153  23.004  11.986
34144W        W 5760  38.433  32.442  14.385
34145W        W 5761  17.202  13.005  13.472
34146W        W 5762  16.273  12.585  11.604
34147W        W 5763  35.684  42.810  14.044
34148W        W 5764  22.066   0.734  11.230
34149W        W 5765   0.486  11.714   0.788
34150W        W 5766  39.307   3.214  14.341
34151W        W 5767  17.869  38.326   1.776
34152W        W 5768  11.920  16.650  13.014
34153W        W 5769  17.054   4.805  14.266
34154W        W 5770  12.365  27.357  13.193
34155W        W 5771  14.722  30.418   2.854
34156W        W 5772   3.856   8.680  10.673
34157W        W 5773  38.070  16.748  14.578
34158W        W 5774  35.025  21.275   2.863
34159W        W 5775  37.959  36.715  14.080
34160W        W 5776  26.598   8.166   2.435
34161W        W 5777  43.766  22.923  12.453
34162W        W 5778  34.073   9.369  11.548
34163W        W 5779  16.531  43.789   1.003
34164W        W 5780  15.534  20.348  12.535
34165W        W 5781  19.551  41.689   2.313
34166W        W 5782   4.906  37.021  14.313
34167W        W 5783  17.592  40.974  13.750
34168W        W 5784  23.196   0.174  14.020
34169W        W 5785  20.021   0.407   1.387
34170W        W 5786   0.203  22.014   4.409
34171W        W 5787  37.672  28.632   0.649
34172W        W 5788  19.074  44.252   1.461
34173W        W 5789  31.588  33.931   2.860
34174W        W 5790  10.280   0.358   0.767
34175W        W 5791  25.360  27.152  14.887
34176W        W 5792  39.192  24.229  12.784
34177W        W 5793  27.871  32.931  11.503
34178W        W 5794  13.642  11.689   0.782
34179W        W 5795  29.563  34.469   4.580
34180W        W 5796  11.862  42.313  13.005
34181W        W 5797   2.403  44.088   5.051
34182W        W 5798  21.398  14.577  11.229
34183W        W 5799  21.032  13.622   3.310
34184W        W 5800  29.060  19.739  12.017
34185W        W 5801  36.495  42.433  13.149
34186W        W 5802  17.803  12.271  14.869
34187W        W 5803  40.862   8.753   3.312
34188W        W 5804   8.832  10.617  12.135
34189W        W 5805  26.370   9.279   3.249
34190W        W 5806  15.290  41.159  12.628
34191W        W 5807   8.075  39.052  12.910
34192W        W 5808   8.669  39.943   4.742
34193W        W 5809   2.237   5.260  11.665
34194W        W 5810  40.751   9.280   0.268
34195W        W 5811  34.954  19.358  11.605
34196W        W 5812  10.328  39.364  12.078
34197W        W 5813  40.869  40.799  12.032
34198W        W 5814   9.926  26.629  10.311
34199W        W 5815   6.355   5.959   1.860
34200W        W 5816  44.531  13.598  14.377
34201W        W 5817  24.582  18.726   4.636
34202W        W 5818  28.341   9.238  12.447
34203W        W 5819   2.856  35.271  14.524
34204W        W 5820  42.148  38.468  10.175
34205W        W 5821  18.743  17.247   5.004
34206W        W 5822   4.116  11.049   3.288
34207W        W 5823   9.947  40.453  10.952
34208W        W 5824   1.959  44.893  11.492
34209W        W 5825  18.273   3.799  13.020
34210W        W 5826   6.406  11.498  12.460
34211W        W 5827   5.605  15.888  14.547
34212W        W 5828  32.212  44.255   2.157
34213W        W 5829  26.229  18.463   2.211
34214W        W 5830  19.033  43.827  13.756
34215W        W 5831  44.911   8.104  14.475
34216W        W 5832  21.302   8.822   1.241
34217W        W 5833  33.896  42.252   0.106
34218W        W 5834  15.805  24.803   4.180
34219W        W 5835  40.790   0.574  11.158
34220W        W 5836  31.515  25.298   0.032
34221W        W 5837   2.236   2.471   1.762
34222W        W 5838  42.048  12.805   2.614
34223W        W 5839  31.923  12.255  13.458
34224W        W 5840  35.244  12.615  10.804
34225W        W 5841  19.714  17.694   4.699
34226W        W 5842  43.910   9.666  13.373
34227W        W 5843  42.535  29.498   2.699
34228W        W 5844  10.142  40.884  11.635
34229W        W 5845   8.914  41.555  10.480
34230W        W 5846   9.693  16.230   2.175
34231W        W 5847   6.833  38.394   4.842
34232W        W 5848  35.802   1.431  14.266
34233W        W 5849  23.793  20.941   2.654
34234W        W 5850  41.481  33.983   4.201
34235W        W 5851  11.430   5.378  12.404
34236W        W 5852  29.103  37.394   4.137
34237W        W 5853  30.517  38.464   4.556
34238W        W 5854  11.635  24.489   4.602
34239W        W 5855  33.480  33.717  13.344
34240W        W 5856   2.409  30.620  12.155
34241W        W 5857  17.614   8.402   1.381
34242W        W 5858   5.041  11.135  12.565
34243W        W 5859   5.114  22.584   0.973
34244W        W 5860  14.607   7.922  12.527
34245W        W 5861  11.843  38.004   1.380
34246W        W 5862  39.872  18.948   0.843
34247W        W 5863  41.997  27.354   3.189
34248W        W 5864  17.546  44.538   2.716
34249W        W 5865   5.411  35.215   0.281
34250W        W 5866  38.346  39.935   4.589
34251W        W 5867  29.068  15.506  14.687
34252W        W 5868  40.050  19.704  12.919
34253W        W 5869  33.901  14.576   0.299
34254W        W 5870  43.745   5.812  11.154
34255W        W 5871  24.095  27.929  10.375
34256W        W 5872  30.129   6.009  11.681
34257W        W 5873  15.224  24.199   3.146
34258W        W 5874  23.244  11.803   4.368
34259W        W 5875  28.484  36.151   3.602
34260W        W 5876  44.385  37.627   2.339
34261W        W 5877  43.446  28.668   2.379
34262W        W 5878   2.959  12.310   2.890
34263W        W 5879  27.202  20.500  10.762
34264W        W 5880  12.138  24.582   0.441
34265W        W 5881   3.379  20.520   4.803
34266W        W 5882  27.047  37.517  11.463
34267W        W 5883  10.328  24.523   3.898
34268W        W 5884  22.813   7.820  11.475
34269W        W 5885  18.616   3.460   2.924
34270W        W 5886  12.317   4.695   5.106
34271W        W 5887  37.997  40.521   4.625
34272W        W 5888   2.471  30.535  14.063
34273W        W 5889  14.738   4.203  13.621
34274W        W 5890  34.098  28.454  11.606
34275W        W 5891  10.371   0.389   4.962
34276W        W 5892  43.858  21.309   1.339
34277W        W 5893   4.571   4.438  13.496
34278W        W 5894  44.031  15.418   2.098
34279W        W 5895   3.017  33.986   4.132
34280W        W 5896  41.824  30.393  13.035
34281W        W 5897  18.219  10.110   0.271
34282W        W 5898  27.986  39.516   4.073
34283W        W 5899   8.432  31.783  14.002
34284W        W 5900  43.915  20.757  13.312
34285W        W 5901  43.324  41.991   2.777
34286W        W 5902   2.192  29.151   4.568
34287W        W 5903   3.665  24.524   3.162
34288W        W 5904   7.785  21.989   1.384
34289W        W 5905  30.751  27.717  10.726
34290W        W 5906  28.855  13.807  14.335
34291W        W 5907   9.637  25.235  11.975
34292W        W 5908  25.879  12.256   0.907
34293W        W 5909   7.129   4.304   2.690
34294W        W 5910   2.464   5.019   4.540
34295W        W 5911  25.562  29.053  10.800
34296W        W 5912  16.138  43.723  14.544
34297W        W 5913  31.627   5.721  13.459
34298W        W 5914  25.690  43.970  12.017
34299W        W 5915   0.001   8.080   0.002
34300W        W 5916   1.353   3.107   0.814
34301W        W 5917  34.151  10.660  11.715
34302W        W 5918  29.970  11.883   2.356
34303W        W 5919  16.128   5.347  12.978
34304W        W 5920  44.189  32.457  13.610
34305W        W 5921  12.864  25.278  13.832
34306W        W 5922  33.876  35.597   0.867
34307W        W 5923  30.850   2.410   0.453
34308W        W 5924   4.786   7.339  13.524
34309W        W 5925   4.745  11.185   1.757
34310W        W 5926  27.775  33.461   0.738
34311W        W 5927  18.634  40.403  12.078
34312W        W 5928   1.902  38.611   1.308
34313W        W 5929  33.907  33.021   1.736
34314W        W 5930  18.771  37.488  10.773
34315W        W 5931  37.276   6.189  10.728
34316W        W 5932  18.573  27.235  12.013
34317W        W 5933  42.961  22.790  12.677
34318W        W 5934  40.086  10.211   2.893
34319W        W 5935   5.272  32.411   2.221
34320W        W 5936   7.389  15.186   1.641
34321W        W 5937   9.469  21.519  14.190
34322W        W 5938  15.613   5.667  13.342
34323W        W 5939   2.278   6.102  14.904
34324W        W 5940  17.053   6.632   4.211
34325W        W 5941  15.613  27.452  13.826
34326W        W 5942  41.600  24.556   0.286
34327W        W 5943  17.541  13.549  10.786
34328W        W 5944   7.351  43.676   4.393
34329W        W 5945  25.455  35.896  13.143
34330W        W 5946  13.893  11.310   3.450
34331W        W 5947  25.947  40.559   1.642
34332W        W 5948   5.297   6.898  10.694
34333W        W 5949  39.705  37.288   2.325
34334W        W 5950  13.340   6.896  11.093
34335W        W 5951  15.050   3.256   1.863
34336W        W 5952  24.751  13.975   4.964
34337W        W 5953  44.288  14.074  10.074
34338W        W 5954  33.774  15.111  13.556
34339W        W 5955  11.311  35.908   4.635
34340W        W 5956   3.778  41.181  12.138
34341W        W 5957  37.904   3.396  14.282
34342W        W 5958  27.386   1.243  11.559
34343W        W 5959  39.358  16.552   1.051
34344W        W 5960  17.067  12.637  12.134
34345W        W 5961  29.712  26.500   1.854
34346W        W 5962   4.740  10.196   0.829
34347W        W 5963  20.639  14.679  10.738
34348W        W 5964  30.544  36.532   4.529
34349W        W 5965  26.396  10.052  11.156
34350W        W 5966  24.686   4.232  12.556
34351W        W 5967  43.716  32.678   2.404
34352W        W 5968  31.560  17.644  12.860
34353W        W 5969  40.544  25.537  12.254
34354W        W 5970   7.312  11.405   3.801
34355W        W 5971  30.962  23.185   2.235
34356W        W 5972  30.413  38.994   0.910
34357W        W 5973  26.677  26.566  11.141
34358W        W 5974  17.324  16.411   2.793
34359W        W 5975   0.028  21.267  12.225
34360W        W 5976  23.800  16.409   0.113
34361W        W 5977   1.806  43.386  13.919
34362W        W 5978   5.971  30.173  12.198
34363W        W 5979  26.028  43.877   4.919
34364W        W 5980  31.995   6.021   4.064
34365W        W 5981   3.357  26.691   2.291
34366W        W 5982  11.396   0.345  12.716
34367W        W 5983  14.228  27.573   2.949
34368W        W 5984  12.616  12.693  12.602
34369W        W 5985   7.512  23.044  11.146
34370W        W 5986  14.543   8.779  10.793
34371W        W 5987  30.162  22.385  13.329
34372W        W 5988  24.897  30.074   1.189
34373W        W 5989  25.809  10.446  14.966
34374W        W 5990  14.778  28.480  10.610
34375W        W 5991  28.863  16.622   3.717
34376W        W 5992  30.896   7.110  12.039
34377W        W 5993  16.459  10.906   2.171
34378W        W 5994  34.424  24.091   0.868
34379W        W 5995  34.975  12.715   2.642
34380W        W 5996  33.506   8.851  12.699
34381W        W 5997  35.118  25.538  13.778
34382W        W 5998  32.109  18.248   3.470
34383W        W 5999   7.815  21.175   4.644
34384W        W 6000  41.296  35.485   4.337
34385W        W 6001   4.622  22.573   4.954
34386W        W 6002  21.045  40.980  13.419
34387W        W 6003  13.523   3.989  12.873
34388W        W 6004  32.297  18.185  11.119
34389W        W 6005  20.323  17.630   1.246
34390W        W 6006  36.092  20.717   0.108
34391W        W 6007  17.669  28.450  14.844
34392W        W 6008  11.518  20.700  11.040
34393W        W 6009   6.667  22.305  14.444
34394W        W 6010  43.437  12.856   3.219
34395W        W 6011   7.439  15.837   0.270
34396W        W 6012  28.662  38.331  14.907
34397W        W 6013   3.756  29.237  13.978
34398W        W 6014  36.520  24.134   4.881
34399W        W 6015  26.726   8.907   2.097
34400W        W 6016  36.775  39.908  11.024
34401W        W 6017  13.542  35.920  13.663
34402W        W 6018   5.382  12.873  14.923
34403W        W 6019   7.355  43.374  10.688
34404W        W 6020  23.319   7.988  13.414
34405W        W 6021  13.923  22.710  11.285
34406W        W 6022  21.089  37.264  11.764
34407W        W 6023   2.418  42.208   0.496
34408W        W 6024  39.072  38.992  10.530
34409W        W 6025  43.678  35.057  10.209
34410W        W 6026  43.452  26.391  10.619
34411W        W 6027   9.150  40.902  10.535
34412W        W 6028  25.020   8.856  14.441
34413W        W 6029  23.146  38.835  10.418
34414W        W 6030  17.991  22.307  11.979
34415W        W 6031  12.668  35.579   1.910
34416W        W 6032  24.976  13.079  11.587
34417W        W 6033  17.790  33.111  11.239
34418W        W 6034   3.877  12.120   2.382
34419W        W 6035  16.225  27.554  11.031
34420W        W 6036  18.315   6.968   3.830
34421W        W 6037  29.782  30.583   4.092
34422W        W 6038  11.003  22.553  13.309
34423W        W 6039  34.608  33.843  13.455
34424W        W 6040  40.849   1.740   4.642
34425W        W 6041   6.710   0.800   2.577
34426W        W 6042   8.821   9.832   2.283
34427W        W 6043  38.331  15.836   0.532
34428W        W 6044   7.632  35.318   5.215
34429W        W 6045  37.789  39.951  13.028
34430W        W 6046   4.669  32.154  10.763
34431W        W 6047   0.001  34.351   0.476
34432W        W 6048  34.084  18.142   1.814
34433W        W 6049  28.631  21.786  10.903
34434W        W 6050  34.868  27.825  12.819
34435W        W 6051   8.789  36.391   2.543
34436W        W 6052  17.165  22.842  12.031
34437W        W 6053  42.579  43.497   4.492
34438W        W 6054  38.488   1.235   2.312
34439W        W 6055  42.560  17.565   1.366
34440W        W 6056  39.269  16.746  11.144
34441W        W 6057  26.022  44.461   4.255
34442W        W 6058  25.627  18.218   3.225
34443W        W 6059   0.331  10.185   4.427
34444W        W 6060  34.934   7.833  10.889
34445W        W 6061   6.970  12.075   2.840
34446W        W 6062  35.361  35.539   1.255
34447W        W 6063  43.060  28.644   4.217
34448W        W 6064  32.781  30.622  14.436
34449W        W 6065  28.619   3.660   4.660
34450W        W 6066  15.140  31.696   1.712
34451W        W 6067  10.378  37.947   4.575
34452W        W 6068  28.837  29.806   5.003
34453W        W 6069  24.457   0.562   1.751
34454W        W 6070  25.028  37.396   4.464
34455W        W 6071  32.475   4.803   2.837
34456W        W 6072  38.344  29.801  12.959
34457W        W 6073  40.314  22.391  10.723
34458W        W 6074  24.632   2.757  13.828
34459W        W 6075  34.991  31.417   0.430
34460W        W 6076  42.857  25.924  13.373
34461W        W 6077  33.092   5.296   4.082
34462W        W 6078  18.692  17.295   0.082
34463W        W 6079  16.534   7.028   4.128
34464W        W 6080  18.239   9.158  11.052
34465W        W 6081  18.174  40.832  14.577
34466W        W 6082  11.752   7.760   4.410
34467W        W 6083  40.576   2.363  12.921
34468W        W 6084  23.924  31.073  13.514
34469W        W 6085   6.404  24.024  12.085
34470W        W 6086  41.309  10.306  13.920
34471W        W 6087  39.418   6.552   1.099
34472W        W 6088  30.903   6.688  14.298
34473W        W 6089  25.761  31.005   2.203
34474W        W 6090   3.035  36.507  13.885
34475W        W 6091  30.912  20.847  13.476
34476W        W 6092  25.539  35.376   4.138
34477W        W 6093  34.377  31.195  14.274
34478W        W 6094  41.486  14.730   2.673
34479W        W 6095  23.235  24.885  11.155
34480W        W 6096   4.418  30.470   3.783
34481W        W 6097  34.990  37.199   5.078
34482W        W 6098  24.941   4.368  12.122
34483W        W 6099   1.370   9.175   4.617
34484W        W 6100   4.894  42.073  13.991
34485W        W 6101   0.450  30.776  14.952
34486W        W 6102  36.461  27.102  12.088
34487W        W 6103  13.105  21.728   4.872
34488W        W 6104  21.534  31.999   4.545
34489W        W 6105  29.564  11.591   1.734
34490W        W 6106  16.114  38.471   3.321
34491W        W 6107  24.795  19.669   1.402
34492W        W 6108  31.304   8.192  13.779
34493W        W 6109  44.975  44.347  13.807
34494W        W 6110   8.369  15.728  13.099
34495W        W 6111  23.953  14.703   0.787
34496W        W 6112  35.539   0.326  11.078
34497W        W 6113   7.626  12.844   1.829
34498W        W 6114  10.450  14.285   2.157
34499W        W 6115   4.700  16.419   3.796
34500W        W 6116  30.523  37.861  14.632
34501W        W 6117   1.649  25.054   5.098
34502W        W 6118  22.225  12.714   2.390
34503W        W 6119   3.166  30.556   0.832
34504W        W 6120  37.326  37.803  12.621
34505W        W 6121  35.048  26.256  12.014
34506W        W 6122  15.036  17.107   2.737
34507W        W 6123  41.925  27.058   0.892
34508W        W 6124  44.789   4.912  12.839
34509W        W 6125  27.978  28.123  13.404
34510W        W 6126  30.631   6.865   1.232
34511W        W 6127  15.865  25.475   2.157
34512W        W 6128   2.982  38.969   3.296
34513W        W 6129  14.008  28.922  11.703
34514W        W 6130   3.704  10.743  12.515
34515W        W 6131   8.376  39.749  13.627
34516W        W 6132   2.942  27.602  13.561
34517W        W 6133  23.956  44.588   0.731
34518W        W 6134  38.839  41.155   2.799
34519W        W 6135  25.432  13.321   0.972
34520W        W 6136  39.871  29.905  10.658
34521W        W 6137  32.958  35.458  11.618
34522W        W 6138  43.289  30.018   0.768
34523W        W 6139   1.857  17.128   1.216
34524W        W 6140  18.812   4.802   4.307
34525W        W 6141  26.262  31.175  12.863
34526W        W 6142   8.043  10.350   2.404
34527W        W 6143   8.298  15.074   0.694
34528W        W 6144   7.242  21.577   3.707
34529W        W 6145   9.227  38.952   3.907
34530W        W 6146   2.602   0.966   4.689
34531W        W 6147  42.768  23.393   3.349
34532W        W 6148  14.745  16.707   4.805
34533W        W 6149  23.085   1.515  12.501
34534W        W 6150  19.717   5.503  14.308
34535W        W 6151  34.498  18.157   4.547
34536W        W 6152  26.832  30.148   1.185
34537W        W 6153  40.505  29.229   0.326
34538W        W 6154  16.698  19.588  10.265
34539W        W 6155  40.381  13.576   0.906
34540W        W 6156   3.444  40.051   2.239
34541W        W 6157  37.323  12.160  13.003
34542W        W 6158  33.692  17.508   0.752
34543W        W 6159  37.488   2.222   0.446
34544W        W 6160  39.397  34.964   2.218
34545W        W 6161  31.936   3.711   3.848
34546W        W 6162   4.853  27.870   2.418
34547W        W 6163  39.516  30.090   3.638
34548W        W 6164  19.165   1.559  12.495
34549W        W 6165  27.507   0.335   0.263
34550W        W 6166  29.441  24.725  12.557
34551W        W 6167  33.101  43.746   1.137
34552W        W 6168  41.814  40.751   3.946
34553W        W 6169   8.513  38.469  11.162
34554W        W 6170  21.153  33.053   4.835
34555W        W 6171  25.895  34.885   0.830
34556W        W 6172  15.468  26.038   0.056
34557W        W 6173  22.282   3.288  10.528
34558W        W 6174  34.806   7.458   2.407
34559W        W 6175  31.896   7.989   0.707
34560W        W 6176  25.209  31.962  11.099
34561W        W 6177   3.001  40.489  12.904
34562W        W 6178  37.145  31.500  11.423
34563W        W 6179  42.253  33.548  11.572
34564W        W 6180   1.377   5.896  10.669
34565W        W 6181  15.326  14.212   4.737
34566W        W 6182  41.257  12.368   1.304
34567W        W 6183   2.413  36.045   4.088
34568W        W 6184  29.630  44.612  14.906
34569W        W 6185   5.099  16.615   0.948
34570W        W 6186  32.034  40.336   4.517
34571W        W 6187  13.350  16.579  14.007
34572W        W 6188  36.773   6.742   4.943
34573W        W 6189  38.535  17.646  14.356
34574W        W 6190   1.737  29.572  12.165
34575W        W 6191   6.643   1.984  10.747
34576W        W 6192   7.162  26.871   4.194
34577W        W 6193  39.014  19.260  13.295
34578W        W 6194  25.003  34.981  13.811
34579W        W 6195  26.965  27.993   4.745
34580W        W 6196  43.178  17.040   1.740
34581W        W 6197   2.884   9.442   1.970
34582W        W 6198  27.945  17.721  14.433
34583W        W 6199   1.474  39.085  11.961
34584W        W 6200  23.543  41.945   1.261
34585W        W 6201  12.261  36.132  14.538
34586W        W 6202   3.893  44.001   2.135
34587W        W 6203   3.337   1.469   0.846
34588W        W 6204  28.604  33.541   0.940
34589W        W 6205  37.128  15.643   1.486
34590W        W 6206  38.884   5.637   0.736
34591W        W 6207  33.851  12.075   2.761
34592W        W 6208  11.150  36.561  12.080
34593W        W 6209   9.825   2.909  12.898
34594W        W 6210  39.636  15.290  14.275
34595W        W 6211   5.777  26.457  12.144
34596W        W 6212  25.137  38.120   0.845
34597W        W 6213  43.555  21.167  10.365
34598W        W 6214   4.264  22.440  11.807
34599W        W 6215  31.389  36.155  14.346
34600W        W 6216  37.706  24.135  12.582
34601W        W 6217   3.027  24.724  10.659
34602W        W 6218  25.934   8.372  11.517
34603W        W 6219  27.045  13.146  11.487
34604W        W 6220  38.499  15.897  14.367
34605W        W 6221  29.478  31.053   3.102
34606W        W 6222  44.836  32.616  14.892
34607W        W 6223  24.952   5.938  14.951
34608W        W 6224   4.232  18.207  13.824
34609W        W 6225  24.236   6.413   2.184
34610W        W 6226  28.703  19.615  14.091
34611W        W 6227  34.019  13.649   2.501
34612W        W 6228   6.186  16.152   1.351
34613W        W 6229  14.971  33.073  14.081
34614W        W 6230  42.484  44.265  10.750
34615W        W 6231  33.127   4.745   1.227
34616W        W 6232  39.875  29.553   2.438
34617W        W 6233   1.968  13.660  12.993
34618W        W 6234  15.540  14.141  14.468
34619W        W 6235   0.528  21.670   4.582
34620W        W 6236  32.995  13.166   3.397
34621W        W 6237  18.619  14.169   1.918
34622W        W 6238  44.668  20.735   2.755
34623W        W 6239  19.307  24.952  11.126
34624W        W 6240  29.975   0.743   1.875
34625W        W 6241  38.365   1.751   3.320
34626W        W 6242  27.158  23.293   0.289
34627W        W 6243  21.826  22.239  10.591
34628W        W 6244   5.808  13.372  11.561
34629W        W 6245  32.516  29.579   1.730
34630W        W 6246  44.244  27.039  12.089
34631W        W 6247  26.662   1.522  13.530
34632W        W 6248   1.687  22.590   3.148
34633W        W 6249  35.105  33.432   1.865
34634W        W 6250   2.730  37.997   2.716
34635W        W 6251  23.876  33.172   1.964
34636W        W 6252  24.693   0.764   1.320
34637W        W 6253  25.496  44.505   4.284
34638W        W 6254  16.310  20.104   2.838
34639W        W 6255   4.188  21.290  13.816
34640W        W 6256  39.719   6.474   3.907
34641W        W 6257   1.199  15.247   4.577
34642W        W 6258   8.347  26.936   1.645
34643W        W 6259  26.879   1.340   4.499
34644W        W 6260  25.286  33.574  13.281
34645W        W 6261  37.069  36.499  10.727
34646W        W 6262  25.020  26.982  12.605
34647W        W 6263  38.298  19.381   0.285
34648W        W 6264  41.539  26.206  10.513
34649W        W 6265  31.473  41.024  10.748
34650W        W 6266  40.376  15.979   2.368
34651W        W 6267  38.063  30.030  12.538
34652W        W 6268  25.728  27.150   2.325
34653W        W 6269   3.176  33.262  12.110
34654W        W 6270  10.153   4.431   0.906
34655W        W 6271  19.778  19.118  10.458
34656W        W 6272  14.654  33.521   2.382
34657W        W 6273   7.857  31.222  10.465
34658W        W 6274  23.955   4.025  11.641
34659W        W 6275  44.740  38.451  13.484
34660W        W 6276   4.689  18.075   4.415
34661W        W 6277  22.621  19.055  10.205
34662W        W 6278  40.396  22.016  12.556
34663W        W 6279  44.930  14.648   1.250
34664W        W 6280  38.979   6.756   1.844
34665W        W 6281  32.971  24.893  12.544
34666W        W 6282  30.870   3.304   3.256
34667W        W 6283  17.024  21.483   0.783
34668W        W 6284  35.806  18.341   3.549
34669W        W 6285  34.375   9.681  10.525
34670W        W 6286   4.216   2.283   1.779
34671W        W 6287  19.981  33.402   3.752
34672W        W 6288  17.001  44.911  11.627
34673W        W 6289  18.130  27.974   3.567
34674W        W 6290  26.518  19.020   4.786
34675W        W 6291  26.880   0.598  14.355
34676W        W 6292   8.203  34.641  11.543
34677W        W 6293   8.229  43.674   1.892
34678W        W 6294   4.694   7.891  14.446
34679W        W 6295  20.203  34.054  11.905
34680W        W 6296  37.593  12.831  10.601
34681W        W 6297  28.017  18.058   3.014
34682W        W 6298  16.807  17.096   0.005
34683W        W 6299   0.481  33.305   4.161
34684W        W 6300   4.726   6.192  10.772
34685W        W 6301  38.891  30.562   4.318
34686W        W 6302  14.693  33.982  11.537
34687W        W 6303  27.941  25.730  12.057
34688W        W 6304  42.908  43.002  11.979
34689W        W 6305  20.351  32.393   4.778
34690W        W 6306  35.324   4.187   0.734
34691W        W 6307  24.732  20.198   3.231
34692W        W 6308  34.923  19.187  12.553
34693W        W 6309   8.789  39.597  10.534
34694W        W 6310  25.234  19.338  11.907
34695W        W 6311   4.840  33.179   4.410
34696W        W 6312   4.306  14.665   4.419
34697W        W 6313  20.159  26.807   0.905
34698W        W 6314  29.668  42.475  11.715
34699W        W 6315  31.571  15.287  13.937
34700W        W 6316  19.149  21.005  10.865
34701W        W 6317   7.763  28.875  14.432
34702W        W 6318   9.875  42.399  13.151
34703W        W 6319  21.523   2.091   4.609
34704W        W 6320  40.255  42.380   0.792
34705W        W 6321   6.631  17.229   0.480
34706W        W 6322  32.212  17.136  13.563
34707W        W 6323  12.773   3.860   4.154
34708W        W 6324  10.610  31.916   2.936
34709W        W 6325  35.471  12.937  12.933
34710W        W 6326  40.484  37.126  11.570
34711W        W 6327   0.812  42.991   4.984
34712W        W 6328  41.110   9.878   1.386
34713W        W 6329  32.371   9.324  12.447
34714W        W 6330   9.759   7.223  12.539
34715W        W 6331  22.926   1.679   3.828
34716W        W 6332  38.489  38.912   4.245
34717W        W 6333  11.375  19.530   4.760
34718W        W 6334  21.129  28.646  14.404
34719W        W 6335   0.548  17.751  12.310
34720W        W 6336  33.678   9.367  13.964
34721W        W 6337   0.653  24.105  12.446
34722W        W 6338  27.809  18.121   5.053
34723W        W 6339   4.777   8.909  11.310
34724W        W 6340   7.236  13.637   3.176
34725W        W 6341  13.278  36.810  13.501
34726W        W 6342   9.324  43.296   4.435
34727W        W 6343  43.054  23.062   3.640
34728W        W 6344  43.642  16.657  14.997
34729W        W 6345  32.123  44.246  10.892
34730W        W 6346  13.567  20.650  12.547
34731W        W 6347  26.516  44.367  12.946
34732W        W 6348  34.531   4.628   0.856
34733W        W 6349  26.155  29.250   2.736
34734W        W 6350  43.547  25.257   2.520
34735W        W 6351   4.499  30.395   1.435
34736W        W 6352  32.054  23.520   4.345
34737W        W 6353  42.487   9.668   4.712
34738W        W 6354  42.474  30.512  12.443
34739W        W 6355  36.428  26.902   2.763
34740W        W 6356  11.079  19.240   0.400
34741W        W 6357   0.339  44.738   0.361
34742W        W 6358  43.544   1.293   0.865
34743W        W 6359  36.896  35.988  14.258
34744W        W 6360   3.993  32.178   4.609
34745W        W 6361   3.351  35.220  14.754
34746W        W 6362  19.894  12.838  13.807
34747W        W 6363  16.856   5.319  14.928
34748W        W 6364   9.004  15.009  14.964
34749W        W 6365  41.560  16.257  10.688
34750W        W 6366  24.050  42.681   1.229
34751W        W 6367  16.918  19.668   3.788
34752W        W 6368  25.938   1.144   2.077
34753W        W 6369  31.533  39.116  14.701
34754W        W 6370  18.603  29.709   4.461
34755W        W 6371  27.297  13.734  10.396
34756W        W 6372  15.830   4.767   0.309
34757W        W 6373   4.289  11.313   0.329
34758W        W 6374  17.289  10.640  12.056
34759W        W 6375  33.088  16.663   1.826
34760W        W 6376   9.403  25.973   2.567
34761W        W 6377   5.904  21.728   4.150
34762W        W 6378  42.560  21.589  13.921
34763W        W 6379  20.024  39.111  11.591
34764W        W 6380  32.426   7.479   1.901
34765W        W 6381   8.138  18.543   3.784
34766W        W 6382  28.283  19.304   2.153
34767W        W 6383  28.040  37.936   4.377
34768W        W 6384  33.418  12.249  12.387
34769W        W 6385  15.090  27.580   2.647
34770W        W 6386  35.598  15.444  14.652
34771W        W 6387  30.056   0.764  14.100
34772W        W 6388  12.005  43.792  12.185
34773W        W 6389  42.538  43.871   3.241
34774W        W 6390  14.272  39.412  12.377
34775W        W 6391  27.493   4.922   2.367
34776W        W 6392  20.230   5.834  11.335
34777W        W 6393  40.310  27.148  12.618
34778W        W 6394  40.026  14.214  13.700
34779W        W 6395  24.829  40.422  11.534
34780W        W 6396  11.380  24.562  13.948
34781W        W 6397  27.452  24.997  10.675
34782W        W 6398   3.196  27.841   0.379
34783W        W 6399  21.108  41.798   3.148
34784W        W 6400   8.782  23.274   3.789
34785W        W 6401   2.658  20.580   4.404
34786W        W 6402  33.932  13.639   3.009
34787W        W 6403  42.936  24.219   4.150
34788W        W 6404  38.394  23.925  12.958
34789W        W 6405  37.483   8.618  13.482
34790W        W 6406  29.992  14.626   1.464
34791W        W 6407   6.002  34.543  12.125
34792W        W 6408  10.658  22.477  14.914
34793W        W 6409   4.998   1.650  13.167
34794W        W 6410  15.126   5.629  13.155
34795W        W 6411   6.806  35.052   3.243
34796W        W 6412   9.734  10.825  12.858
34797W        W 6413  34.997  34.062  10.688
34798W        W 6414   9.652  30.996  12.965
34799W        W 6415  32.109  43.833  12.158
34800W        W 6416  39.609   0.873   4.658
34801W        W 6417  23.682  17.613   0.376
34802W        W 6418  36.271  28.144   3.322
34803W        W 6419   4.764  42.847   1.423
34804W        W 6420  23.216   5.771   0.229
34805W        W 6421  15.438  20.985   4.077
34806W        W 6422  34.051  10.221  12.574
34807W        W 6423  25.591  33.988  13.368
34808W        W 6424  40.897  29.774   1.089
34809W        W 6425  26.651  11.427   1.210
34810W        W 6426  36.948  41.955  12.667
34811W        W 6427  31.192  29.049   2.888
34812W        W 6428   6.508  15.197  10.723
34813W        W 6429  41.741   2.312   1.476
34814W        W 6430  22.110   9.810  13.684
34815W        W 6431  11.876  34.215  12.843
34816W        W 6432  34.717  20.092   0.252
34817W        W 6433   0.716  25.648   2.124
34818W        W 6434   0.568  25.939  13.453
34819W        W 6435  11.489  21.279   0.098
34820W        W 6436  29.255   3.949   3.727
34821W        W 6437  21.647  11.143  11.140
34822W        W 6438  16.499  35.381  14.856
34823W        W 6439  42.554  15.322   4.236
34824W        W 6440  38.366   8.865   1.402
34825W        W 6441   4.687  17.031  10.244
34826W        W 6442  10.787  24.939   4.462
34827W        W 6443  14.440  28.458   3.652
34828W        W 6444  32.439  10.684   3.245
34829W        W 6445  17.552   0.536  13.960
34830W        W 6446  20.341  39.658   1.910
34831W        W 6447   4.678  13.196  10.720
34832W        W 6448   2.276  19.104   2.340
34833W        W 6449  38.493  31.120   3.118
34834W        W 6450  34.474  26.028   4.426
34835W        W 6451  42.399  27.193   2.864
34836W        W 6452  25.069   9.320  13.505
34837W        W 6453  23.245  13.366   3.164
34838W        W 6454   2.494  17.043  11.600
34839W        W 6455  11.245  41.846  14.348
34840W        W 6456   6.685  25.758  13.474
34841W        W 6457  35.090   1.534   5.108
34842W        W 6458  32.608  30.658   3.793
34843W        W 6459  40.526   5.227   1.349
34844W        W 6460  42.897  28.261  14.043
34845W        W 6461   2.344  33.524  11.699
34846W        W 6462  35.050  28.872   3.827
34847W        W 6463  41.741  15.086   4.001
34848W        W 6464  15.333  13.725  12.923
34849W        W 6465  29.159   7.193   2.728
34850W        W 6466   1.935  44.508  10.237
34851W        W 6467  36.095  38.474   1.044
34852W        W 6468  38.046  25.273   2.362
34853W        W 6469  40.967  11.189   1.148
34854W        W 6470   5.397  43.980   3.220
34855W        W 6471  15.974   0.995   0.933
34856W        W 6472  16.289   3.077  10.868
34857W        W 6473  36.259  23.794  14.807
34858W        W 6474  44.076  17.567  14.889
34859W        W 6475  32.832  30.001   2.859
34860W        W 6476  29.705   3.818  12.788
34861W        W 6477  11.410   5.769  10.311
34862W        W 6478   4.902  19.065  13.549
34863W        W 6479   2.319   9.212   0.255
34864W        W 6480   9.283  13.059  13.844
34865W        W 6481  25.911   6.403   2.863
34866W        W 6482  11.641  18.228   2.178
34867W        W 6483  12.103  20.619  10.790
34868W        W 6484   2.628   8.480  11.096
34869W        W 6485  41.490  15.354  10.638
34870W        W 6486  34.576  13.037  12.749
34871W        W 6487  27.641  30.057  12.487
34872W        W 6488   2.786  43.940  10.003
34873W        W 6489  25.200  38.838  10.571
34874W        W 6490  29.824   7.295  12.071
34875W        W 6491  11.832   8.799  14.066
34876W        W 6492  25.073  19.775  11.573
34877W        W 6493   7.662  27.003  13.525
34878W        W 6494  41.764  17.082  14.932
34879W        W 6495   0.304  20.836   4.001
34880W        W 6496  33.196  10.317   2.132
34881W        W 6497  25.985  31.299  10.725
34882W        W 6498  16.837  36.921  13.241
34883W        W 6499  40.364  34.326  12.931
34884W        W 6500  42.329  40.756  13.643
34885W        W 6501  39.316  28.121  13.583
34886W        W 6502   7.643  37.958   2.750
34887W        W 6503  28.583  32.431  11.146
34888W        W 6504  25.063  15.152  10.664
34889W        W 6505  23.563  10.165   0.248
34890W        W 6506   7.309  31.631  11.131
34891W        W 6507  12.428  26.026  13.563
34892W        W 6508   0.940  39.481   1.008
34893W        W 6509  13.500  11.701   3.457
34894W        W 6510  22.013  18.593  11.965
34895W        W 6511   9.746  17.728  12.077
34896W        W 6512  20.539  10.102  12.837
34897W        W 6513  17.751  44.705  12.435
34898W        W 6514   4.746  43.498   9.778
34899W        W 6515  22.030   0.181   2.053
34900W        W 6516  40.912   3.847   1.689
34901W        W 6517  16.681  10.096   1.949
34902W        W 6518   7.391  12.518  10.385
34903W        W 6519   7.296   1.338   0.282
34904W        W 6520  34.117  34.635   4.065
34905W        W 6521   9.253   5.649  14.267
34906W        W 6522  25.521  30.389  10.807
34907W        W 6523  38.209  28.665   2.624
34908W        W 6524  42.890  24.258  10.746
34909W        W 6525  25.570  37.091  12.501
34910W        W 6526   9.566  32.415  12.516
34911W        W 6527  13.746   7.222  11.299
34912W        W 6528   8.728  11.000  13.446
34913W        W 6529  29.201  29.907   3.830
34914W        W 6530  33.567   8.885  14.587
34915W        W 6531  32.311  17.060  10.327
34916W        W 6532  13.556  31.706   3.685
34917W        W 6533   3.212  22.669  13.990
34918W        W 6534   9.424  11.306  12.424
34919W        W 6535  27.046  41.310   3.217
34920W        W 6536   2.901  39.014  14.520
34921W        W 6537  26.614  38.563   3.097
34922W        W 6538   7.769  21.396   5.152
34923W        W 6539  20.594  11.419   3.203
34924W        W 6540  32.169  30.803  11.133
34925W        W 6541  32.646   8.021   3.695
34926W        W 6542  12.405   6.601   5.278
34927W        W 6543   2.502  34.241   0.876
34928W        W 6544   6.943  31.134  11.566
34929W        W 6545   7.362  39.052  13.472
34930W        W 6546   5.404  25.316   4.096
34931W        W 6547  18.765  20.469  13.125
34932W        W 6548  34.935  15.029   2.002
34933W        W 6549  24.158  24.269  13.478
34934W        W 6550  14.944  36.042  12.097
34935W        W 6551  12.526   3.845   4.618
34936W        W 6552   5.515  22.119   1.310
34937W        W 6553   8.267  29.388  13.838
34938W        W 6554   8.357   3.687  11.107
34939W        W 6555   4.534  21.716   4.052
34940W        W 6556  33.485   5.721  13.039
34941W        W 6557  42.289  15.726  12.684
34942W        W 6558  35.730  32.192  14.451
34943W        W 6559  44.210   6.056  11.155
34944W        W 6560  24.822   2.291  11.448
34945W        W 6561  31.701  11.283  12.313
34946W        W 6562   1.092  34.836   0.248
34947W        W 6563  43.400  17.639  11.325
34948W        W 6564  36.449  38.738  13.884
34949W        W 6565  27.426  18.002   4.729
34950W        W 6566  30.685   8.727   0.828
34951W        W 6567  42.315  44.269   1.757
34952W        W 6568   8.886  32.889   2.844
34953W        W 6569  25.323   6.996   4.797
34954W        W 6570  20.649  27.495   1.750
34955W        W 6571  36.382  22.470  10.721
34956W        W 6572  42.960  13.789   0.972
34957W        W 6573  31.665  36.605  12.519
34958W        W 6574   6.195  42.767  13.810
34959W        W 6575  35.507  20.543  13.551
34960W        W 6576  12.163   3.894  13.272
34961W        W 6577  26.211  24.159  12.871
34962W        W 6578   7.403   5.431  14.387
34963W        W 6579  30.304  20.688   4.517
34964W        W 6580  24.645  29.321  11.411
34965W        W 6581  29.278  25.794  11.468
34966W        W 6582   7.264  27.905   4.224
34967W        W 6583  36.584  16.550  10.642
34968W        W 6584  29.426  11.885  14.302
34969W        W 6585  11.366  32.930  14.484
34970W        W 6586   9.276  23.667  14.540
34971W        W 6587  36.409  30.124  13.090
34972W        W 6588  25.574  39.482   3.252
34973W        W 6589  38.511  10.585   4.304
34974W        W 6590  37.087  31.009   2.389
34975W        W 6591  40.502  10.630  11.623
34976W        W 6592  28.549  26.481  14.846
34977W        W 6593  38.015   7.067  14.853
34978W        W 6594   7.181  33.108  13.466
34979W        W 6595  29.133  11.646   2.803
34980W        W 6596  40.593  32.860   0.378
34981W        W 6597  16.237  27.867   4.755
34982W        W 6598  18.068  28.009  14.212
34983W        W 6599  13.399   6.384   9.728
34984W        W 6600  28.467  28.017   1.790
34985W        W 6601   4.376  16.070   1.704
34986W        W 6602  22.662  16.122   4.282
34987W        W 6603  26.987   0.090  14.481
34988W        W 6604  34.230  44.386   3.098
34989W        W 6605  12.889  26.538  10.434
34990W        W 6606  17.669  41.098   5.145
34991W        W 6607  42.234  24.817  13.931
34992W        W 6608  17.295  14.600   0.775
34993W        W 6609   1.108  23.506   9.897
34994W        W 6610  14.661   1.316  10.408
34995W        W 6611  27.302  24.085  12.015
34996W        W 6612   5.837  27.928  14.711
34997W        W 6613   9.116  10.837   1.802
34998W        W 6614  39.688  26.886   9.871
34999W        W 6615  41.798  44.811   2.394
35000W        W 6616  20.692   6.692  11.959
35001W        W 6617  43.845  39.297   2.195
35002W        W 6618  29.568   5.605   0.946
35003W        W 6619  28.975  34.081  12.957
35004W        W 6620  19.676  19.620   0.523
35005W        W 6621  30.944  12.659  14.420
35006W        W 6622  40.159  35.053   4.634
35007W        W 6623  41.288   7.982   2.395
35008W        W 6624  24.672  11.003   3.269
35009W        W 6625   7.891  10.732  13.697
35010W        W 6626   1.269  38.504   2.752
35011W        W 6627  29.546   5.500  11.146
35012W        W 6628  18.204  27.020   0.069
35013W        W 6629   1.673  31.046   1.213
35014W        W 6630  16.726   3.365  14.184
35015W        W 6631  40.443  24.581  10.691
35016W        W 6632   3.933  40.011  10.722
35017W        W 6633   5.867  18.695   2.400
35018W        W 6634  24.037  21.258  13.976
35019W        W 6635  14.532  39.392  11.932
35020W        W 6636  41.485  34.044   0.256
35021W        W 6637  31.082  23.926   4.193
35022W        W 6638  17.216  13.371  12.495
35023W        W 6639  40.918  44.248  14.059
35024W        W 6640   6.218  28.024  12.044
35025W        W 6641  27.058   1.384  12.292
35026W        W 6642  40.277  13.139  12.831
35027W        W 6643  17.278  24.618  10.729
35028W        W 6644  38.413  24.296   0.779
35029W        W 6645  10.744  20.146  12.641
35030W        W 6646  10.369  19.640   2.750
35031W        W 6647  11.791  40.835   4.464
35032W        W 6648  44.566   8.218   4.523
35033W        W 6649  25.715  38.867  13.986
35034W        W 6650  33.416  38.377  10.722
35035W        W 6651  16.677  21.943   4.180
35036W        W 6652  43.264  24.027  11.126
35037W        W 6653  43.998  22.283  10.986
35038W        W 6654  23.494  11.236   2.190
35039W        W 6655  26.433  12.403  10.855
35040W        W 6656  30.987  19.106  14.844
35041W        W 6657  31.433  19.659   1.014
35042W        W 6658  41.548  42.434   1.417
35043W        W 6659  36.972  12.457   4.423
35044W        W 6660   5.319  39.255  14.824
35045W        W 6661  34.927  39.799  10.788
35046W        W 6662  17.460  12.181  14.485
35047W        W 6663   8.068  18.658   4.550
35048W        W 6664  29.653  34.761   4.152
35049W        W 6665   8.093  17.981   2.366
35050W        W 6666  40.629   1.434  10.758
35051W        W 6667   2.572  31.047   1.373
35052W        W 6668  13.654   2.667   1.009
35053W        W 6669  34.457  41.348   1.245
35054W        W 6670  34.080  23.685  10.690
35055W        W 6671  21.050  16.301  14.984
35056W        W 6672  16.847  32.222  14.328
35057W        W 6673  11.652  18.045  14.014
35058W        W 6674  39.519   9.119   0.003
35059W        W 6675  16.296   5.054  11.127
35060W        W 6676  37.152  21.211  11.697
35061W        W 6677  39.098   4.894  10.285
35062W        W 6678   2.470  31.229   0.733
35063W        W 6679   8.321  20.707   4.276
35064W        W 6680  38.642  12.537  14.974
35065W        W 6681  34.510  18.718   1.886
35066W        W 6682  32.153  16.734  12.858
35067W        W 6683  42.554  19.289   2.826
35068W        W 6684  24.903  14.247  12.278
35069W        W 6685   9.979   4.163   4.264
35070W        W 6686   1.719  12.307   1.034
35071W        W 6687  29.411   3.046   1.423
35072W        W 6688  32.137  43.261  13.391
35073W        W 6689  14.709   0.959   4.399
35074W        W 6690   0.958  42.412   5.044
35075W        W 6691  22.795   7.170  12.413
35076W        W 6692  31.642  40.958  13.452
35077W        W 6693  41.756  15.534  11.104
35078W        W 6694   2.846  41.457   1.256
35079W        W 6695  32.916  26.001   4.069
35080W        W 6696  14.264   6.735  10.759
35081W        W 6697  15.558  17.073  10.231
35082W        W 6698  28.145  14.258  10.626
35083W        W 6699  14.501  26.894  14.771
35084W        W 6700  13.192  11.597  13.406
35085W        W 6701  31.682  23.780  11.982
35086W        W 6702   5.831   5.133   0.845
35087W        W 6703  18.746  11.683  13.470
35088W        W 6704   1.121  13.258   0.428
35089W        W 6705  27.789   3.368  11.807
35090W        W 6706  23.796  21.589   3.578
35091W        W 6707   0.636   1.241   3.293
35092W        W 6708  36.110  44.226  13.318
35093W        W 6709  40.663  44.593  14.377
35094W        W 6710   3.743  32.167   0.463
35095W        W 6711  17.180  13.331  10.484
35096W        W 6712   3.285  25.718   3.712
35097W        W 6713   4.984   7.757   4.809
35098W        W 6714  20.040   1.479   0.227
35099W        W 6715   4.131   4.984   4.157
35100W        W 6716  19.992  37.511  13.268
35101W        W 6717  16.022  34.024   2.703
35102W        W 6718  27.116  42.054  13.384
35103W        W 6719  33.910  18.115   3.203
35104W        W 6720   5.847  30.025   0.369
35105W        W 6721  28.189  26.520   0.945
35106W        W 6722  21.444  41.321   0.862
35107W        W 6723  15.301  27.033   3.763
35108W        W 6724   2.783  42.985   5.341
35109W        W 6725  35.200  31.879  12.463
35110W        W 6726  42.859  18.623  10.957
35111W        W 6727   8.337   4.827   1.335
35112W        W 6728   5.080  19.979  14.379
35113W        W 6729  32.074   2.994   4.939
35114W        W 6730  25.597  38.228  11.936
35115W        W 6731   3.638  30.166   0.562
35116W        W 6732  22.033  28.202  13.743
35117W        W 6733  35.581  17.723   0.001
35118W        W 6734   8.803  36.374  13.949
35119W        W 6735  40.745  40.579   1.399
35120W        W 6736  28.282  27.316  11.501
35121W        W 6737  43.779  38.943   2.922
35122W        W 6738   2.279  21.091   2.813
35123W        W 6739   4.491   5.707   3.667
35124W        W 6740  37.568  18.519  14.745
35125W        W 6741  20.097  15.070   0.011
35126W        W 6742  28.267  16.670   5.456
35127W        W 6743  31.116  26.248   0.770
35128W        W 6744   7.426   3.679  14.697
35129W        W 6745   9.308  24.976  13.943
35130W        W 6746  32.773  30.765  12.567
35131W        W 6747  24.150  28.073   2.799
35132W        W 6748  30.132  33.343  13.835
35133W        W 6749  18.627  36.795  13.337
35134W        W 6750   1.053  31.096   0.254
35135W        W 6751   2.861   1.231  14.565
35136W        W 6752  19.091  43.941  12.402
35137W        W 6753  12.551  44.498  13.518
35138W        W 6754  34.688  17.219   3.032
35139W        W 6755   2.322  26.655   3.763
35140W        W 6756  41.948  19.763   2.680
35141W        W 6757  36.875  37.387  11.033
35142W        W 6758  16.184   9.678   2.264
35143W        W 6759  19.390  28.254  12.982
35144W        W 6760   1.550  17.539  14.712
35145W        W 6761  33.418   7.634   1.977
35146W        W 6762  26.691  41.318   2.846
35147W        W 6763  27.447  24.970   4.413
35148W        W 6764   5.352   2.730   0.009
35149W        W 6765  22.353  29.605   3.110
35150W        W 6766  20.682  31.913   1.703
35151W        W 6767  22.555  25.229   2.649
35152W        W 6768  33.828  35.449   3.585
35153W        W 6769   9.235   5.626  11.941
35154W        W 6770  32.300   6.346  11.818
35155W        W 6771   3.655  30.985  14.253
35156W        W 6772  21.708  20.981   4.118
35157W        W 6773  10.798   7.251  14.785
35158W        W 6774  26.619  37.588   0.416
35159W        W 6775  17.586  29.038  12.811
35160W        W 6776  34.616  30.116   3.592
35161W        W 6777  38.880  10.466  12.115
35162W        W 6778  23.053   0.379  13.028
35163W        W 6779  41.042   4.193   2.079
35164W        W 6780  31.050  23.619  13.841
35165W        W 6781   2.316  22.657  11.590
35166W        W 6782  18.774  22.549  11.639
35167W        W 6783   7.626  28.081   1.518
35168W        W 6784   3.641  37.414   1.434
35169W        W 6785  30.331  30.860  14.101
35170W        W 6786  12.337  20.231  12.979
35171W        W 6787  43.339  28.056   3.243
35172W        W 6788   2.265  16.232   3.575
35173W        W 6789  30.117  27.815  13.821
35174W        W 6790  38.294   1.228  11.530
35175W        W 6791  22.905   3.452   4.105
35176W        W 6792  14.137   9.740  12.503
35177W        W 6793  26.922  24.038   2.706
35178W        W 6794  14.549  18.824  13.669
35179W        W 6795   2.263  41.866   0.873
35180W        W 6796  35.937  35.625  10.699
35181W        W 6797  34.459  30.861  12.961
35182W        W 6798  12.346  11.786  14.437
35183W        W 6799   5.217   9.083  11.081
35184W        W 6800  40.945  13.743  14.262
35185W        W 6801  27.737   1.625  11.487
35186W        W 6802   4.492  33.163   3.164
35187W        W 6803   1.996  40.762  11.404
35188W        W 6804  39.548  26.532   4.630
35189W        W 6805  22.720  34.418  11.934
35190W        W 6806   7.348  19.301  11.177
35191W        W 6807  30.508  10.406  14.246
35192W        W 6808  40.068  43.908   0.482
35193W        W 6809   2.223   4.768  10.470
35194W        W 6810  42.280  37.842   2.730
35195W        W 6811   8.520  32.289  14.048
35196W        W 6812   0.803   4.714   3.191
35197W        W 6813  35.443  38.101   3.653
35198W        W 6814   1.474  27.487  10.649
35199W        W 6815   9.940  44.716   4.054
35200W        W 6816  22.631  42.301  10.158
35201W        W 6817  37.534  27.776   3.745
35202W        W 6818  38.072  18.066   2.773
35203W        W 6819  35.757  10.627  14.965
35204W        W 6820   9.649   5.725   1.551
35205W        W 6821  31.393  28.451   2.249
35206W        W 6822   2.876  15.861   0.392
35207W        W 6823   5.751   4.250   2.065
35208W        W 6824  12.489   5.715   3.792
35209W        W 6825  11.988  11.854   2.329
35210W        W 6826   6.280  27.572  13.482
35211W        W 6827  18.118  40.502   2.275
35212W        W 6828  24.761  10.659  14.469
35213W        W 6829  44.926   1.998  11.244
35214W        W 6830  21.099   2.866  13.298
35215W        W 6831  24.716  42.689   1.808
35216W        W 6832  26.982   6.260   1.359
35217W        W 6833  44.042  10.756  14.155
35218W        W 6834  16.248  10.624  13.495
35219W        W 6835  20.633  39.898  10.880
35220W        W 6836  10.305  15.649  13.736
35221W        W 6837   5.480  32.515   1.207
35222W        W 6838  30.860  18.912  13.787
35223W        W 6839  43.545  17.100  13.748
35224W        W 6840   7.335  40.014   4.865
35225W        W 6841   1.688  24.772  11.051
35226W        W 6842  15.119  36.648  13.040
35227W        W 6843  39.511   2.537   2.281
35228W        W 6844  25.257  10.059   0.307
35229W        W 6845  28.940   8.359  12.094
35230W        W 6846  10.653   3.696  12.551
35231W        W 6847  10.168   4.004  11.463
35232W        W 6848   3.171  16.372   3.258
35233W        W 6849   3.985  35.610  10.725
35234W        W 6850  44.818  12.267   1.926
35235W        W 6851  44.002  29.195  11.368
35236W        W 6852  14.169  43.380  12.560
35237W        W 6853   0.217  12.296  11.478
35238W        W 6854  25.201  16.697   4.412
35239W        W 6855   9.144   9.670  12.093
35240W        W 6856  10.265   2.417  13.033
35241W        W 6857  29.446  12.483  12.161
35242W        W 6858  40.276  24.021   2.464
35243W        W 6859  44.929  36.526   3.979
35244W        W 6860  42.023   3.826   2.871
35245W        W 6861  15.240  31.486   4.105
35246W        W 6862  18.768   5.455  13.918
35247W        W 6863  40.906  12.446   3.678
35248W        W 6864  34.729  32.155  13.245
35249W        W 6865  11.579   8.710  14.909
35250W        W 6866   1.763  43.437  14.468
35251W        W 6867  23.236  23.252   2.279
35252W        W 6868  10.830  29.481  12.451
35253W        W 6869  21.240  31.994  12.100
35254W        W 6870  32.402   0.642   2.295
35255W        W 6871  12.192   2.392  14.982
35256W        W 6872  34.304  33.633  12.439
35257W        W 6873  41.373  18.342   0.811
35258W        W 6874  16.351  13.430   0.353
35259W        W 6875   6.899  17.356   0.910
35260W        W 6876  14.250  32.523   4.187
35261W        W 6877  29.281   0.846  10.807
35262W        W 6878   8.841  32.850  13.421
35263W        W 6879  37.578  19.071  14.007
35264W        W 6880   0.203  21.213  11.418
35265W        W 6881  23.459  11.849  10.732
35266W        W 6882  27.225  10.214   4.523
35267W        W 6883  16.027  38.976  14.301
35268W        W 6884  34.344  10.205  10.661
35269W        W 6885  26.309  14.963  11.044
35270W        W 6886  41.894  18.995  12.544
35271W        W 6887  13.105   6.763  11.515
35272W        W 6888  43.851  44.307   1.077
35273W        W 6889  39.293  36.036   1.821
35274W        W 6890  42.668  11.785   3.089
35275W        W 6891   3.659   5.228   4.096
35276W        W 6892  32.470  37.511   3.355
35277W        W 6893  10.324  24.238   1.854
35278W        W 6894  34.964  17.615  10.617
35279W        W 6895  19.028  44.423   2.795
35280W        W 6896  43.459  34.986   0.904
35281W        W 6897   5.704  11.345  13.664
35282W        W 6898  22.909  27.913  12.544
35283W        W 6899  22.302  12.066  12.023
35284W        W 6900  22.709   9.909   3.656
35285W        W 6901  13.700  42.687   2.515
35286W        W 6902  40.344  27.664   3.831
35287W        W 6903  36.314   0.976  13.929
35288W        W 6904  16.636  17.192  12.091
35289W        W 6905  26.511  13.834   0.924
35290W        W 6906  17.278  35.331  11.706
35291W        W 6907   8.209  40.517   2.136
35292W        W 6908   9.123   5.906  14.719
35293W        W 6909  10.906  41.780   3.324
35294W        W 6910  43.905   4.223  13.918
35295W        W 6911   0.083  21.563  12.856
35296W        W 6912   2.764   6.343  12.963
35297W        W 6913  24.758   3.871  12.038
35298W        W 6914   1.633  35.337   2.894
35299W        W 6915   8.352  10.749   2.293
35300W        W 6916  23.711  32.575  11.582
35301W        W 6917   9.358  12.979   3.657
35302W        W 6918  30.384  11.838  11.471
35303W        W 6919   3.810  17.736   3.402
35304W        W 6920  31.846  19.294   2.698
35305W        W 6921  26.092  18.315   3.655
35306W        W 6922  14.287  42.382  14.441
35307W        W 6923  34.978   7.779   3.354
35308W        W 6924  17.079  37.165  10.750
35309W        W 6925  10.055  13.150  12.008
35310W        W 6926  33.370   6.246   4.880
35311W        W 6927   9.322  20.192   3.186
35312W        W 6928  14.613  23.167   3.293
35313W        W 6929  36.411  27.638  12.131
35314W        W 6930  40.759  37.592   0.347
35315W        W 6931  36.293  30.947  13.143
35316W        W 6932   3.790  41.350  14.381
35317W        W 6933  40.392  44.216  11.537
35318W        W 6934  14.866  36.867  11.165
35319W        W 6935  34.543  41.979  14.897
35320W        W 6936   7.263  31.443  10.647
35321W        W 6937   5.706  38.866   2.825
35322W        W 6938  25.575   8.940   5.083
35323W        W 6939  23.894  17.537   1.393
35324W        W 6940  27.379  27.271  14.085
35325W        W 6941  43.977   1.820  14.757
35326W        W 6942   0.702   1.199   2.366
35327W        W 6943  33.985   0.769   1.843
35328W        W 6944  29.459  28.683  11.687
35329W        W 6945  26.623  17.632   4.670
35330W        W 6946   9.633  23.283   0.348
35331W        W 6947   6.509  25.966   2.901
35332W        W 6948  27.899   3.773   2.456
35333W        W 6949  31.334   0.033   1.764
35334W        W 6950   6.761  36.303   4.454
35335W        W 6951  37.861  34.091  11.097
35336W        W 6952  17.084  11.571   0.930
35337W        W 6953   7.164  20.022  12.609
35338W        W 6954  11.747  40.499   0.332
35339W        W 6955   3.244  28.040   1.507
35340W        W 6956  19.105   7.260  11.941
35341W        W 6957  44.286  11.808   1.878
35342W        W 6958  25.814  29.228   2.345
35343W        W 6959  10.720  16.559   1.352
35344W        W 6960  13.696  14.417   3.725
35345W        W 6961   5.869  20.955   2.733
35346W        W 6962  36.489  42.492  13.661
35347W        W 6963   3.191  33.219   1.820
35348W        W 6964   2.706  20.820   2.981
35349W        W 6965  22.002  20.737  10.405
35350W        W 6966  41.293  23.249   3.303
35351W        W 6967  25.937  43.256   2.125
35352W        W 6968   8.306  33.461  12.796
35353W        W 6969  14.374  32.978  10.748
35354W        W 6970  15.056  16.892  13.297
35355W        W 6971  38.069   6.006   0.797
35356W        W 6972   5.131  38.455   0.959
35357W        W 6973  23.010  40.409  11.886
35358W        W 6974  16.099   4.811  14.278
35359W        W 6975  34.659  42.713  11.170
35360W        W 6976  33.098  28.460  10.739
35361W        W 6977  14.558  17.740   2.285
35362W        W 6978  34.615   6.762   2.251
35363W        W 6979   6.898  23.899  13.509
35364W        W 6980  12.741  37.728   4.415
35365W        W 6981  20.137  34.066  11.395
35366W        W 6982  19.177  38.557  13.311
35367W        W 6983  44.311   9.213  13.119
35368W        W 6984  31.972  23.656  13.877
35369W        W 6985  42.323  32.828   1.477
35370W        W 6986  22.719  38.131  10.723
35371W        W 6987  40.025   4.388  12.956
35372W        W 6988  44.245  32.192   4.713
35373W        W 6989   4.288  37.811   3.284
35374W        W 6990   1.225  17.086   2.677
35375W        W 6991  27.246   5.691   0.773
35376W        W 6992  44.003  28.095  12.633
35377W        W 6993   6.517   0.209   3.336
35378W        W 6994  35.883  14.864   2.103
35379W        W 6995   7.372   9.804   2.106
35380W        W 6996  43.660  20.572   2.907
35381W        W 6997  24.110  33.017   1.412
35382W        W 6998   5.017  32.154  11.193
35383W        W 6999  19.135  44.803   4.073
35384W        W 7000   4.416  35.929  10.693
35385W        W 7001  11.220  41.838   4.604
35386W        W 7002   8.412   4.269   4.201
35387W        W 7003  43.072  31.480   3.288
35388W        W 7004  12.153  27.421   3.520
35389W        W 7005  16.658  20.817  14.363
35390W        W 7006  12.626  26.767   2.698
35391W        W 7007  30.696  33.874   2.950
35392W        W 7008  43.441   5.262  10.702
35393W        W 7009  18.325  21.801  12.975
35394W        W 7010   1.652  39.796  14.494
35395W        W 7011  37.432  30.897  11.032
35396W        W 7012   8.672  21.027  10.434
35397W        W 7013   3.404  14.615  12.763
35398W        W 7014  39.013   2.773  14.312
35399W        W 7015  42.267  32.640   2.835
35400W        W 7016   6.113  26.762  12.385
35401W        W 7017  10.073  24.566  11.753
35402W        W 7018   8.262   1.319  12.064
35403W        W 7019  38.891  37.411  12.939
35404W        W 7020  25.545  17.143   2.431
35405W        W 7021   6.497  32.923  14.374
35406W        W 7022  16.566  40.090  11.242
35407W        W 7023  21.021  19.225   2.227
35408W        W 7024   0.567   9.814  11.929
35409W        W 7025  44.820  39.900   3.892
35410W        W 7026   0.392  41.737   2.595
35411W        W 7027  43.470   9.656  14.287
35412W        W 7028  28.603  41.146  12.367
35413W        W 7029   0.427  15.839   3.711
35414W        W 7030  17.714  23.873   4.602
35415W        W 7031  20.850  24.030   0.893
35416W        W 7032   1.575   0.158   0.208
35417W        W 7033  23.247  43.176   4.562
35418W        W 7034   3.889   3.631   3.104
35419W        W 7035  29.887  33.123  14.217
35420W        W 7036  34.421  36.823  14.897
35421W        W 7037  14.282  39.383   1.723
35422W        W 7038  26.660   5.271  11.874
35423W        W 7039  33.044  31.409   3.327
35424W        W 7040  13.911   4.650  12.441
35425W        W 7041  12.379  10.636   3.693
35426W        W 7042  38.986  26.603  14.931
35427W        W 7043  17.720  24.542  11.636
35428W        W 7044  13.228   5.702   2.364
35429W        W 7045  21.222  17.564  12.121
35430W        W 7046   0.314  10.334   0.887
35431W        W 7047  13.646  21.355  11.936
35432W        W 7048   2.741  36.537  13.475
35433W        W 7049  40.871  19.937  11.199
35434W        W 7050  43.274  36.971  13.579
35435W        W 7051  24.963  21.033   1.255
35436W        W 7052  20.260  24.596   4.357
35437W        W 7053  43.150   2.944  13.856
35438W        W 7054  20.262  31.342  14.001
35439W        W 7055  38.135   8.202  11.406
35440W        W 7056  17.621  26.535  11.493
35441W        W 7057  13.318  44.910   0.685
35442W        W 7058  13.672   3.867   0.456
35443W        W 7059  29.064   1.445  12.889
35444W        W 7060   9.847  43.395  12.139
35445W        W 7061  40.340  41.592  11.989
35446W        W 7062   6.772   2.029   3.281
35447W        W 7063   2.523  41.387  13.810
35448W        W 7064   1.477  15.797   3.758
35449W        W 7065  34.528  13.140   4.253
35450W        W 7066   9.959   4.928  12.459
35451W        W 7067   7.361  17.739   2.888
35452W        W 7068  19.955   3.798  12.035
35453W        W 7069  22.486  15.755  12.426
35454W        W 7070  38.270  14.611  14.028
35455W        W 7071   0.374  15.719  10.844
35456W        W 7072  31.639  27.574  14.223
35457W        W 7073  26.565  23.608   4.624
35458W        W 7074   1.772  34.404   3.730
35459W        W 7075  16.977  13.731   4.598
35460W        W 7076  29.072  39.776   0.747
35461W        W 7077  29.640  44.292   2.195
35462W        W 7078   4.750   7.644  12.267
35463W        W 7079   7.886  15.046   4.147
35464W        W 7080   3.702  38.291  13.264
35465W        W 7081  43.502  43.778  11.611
35466W        W 7082  22.850  13.278  12.619
35467W        W 7083  10.734  38.002  13.714
35468W        W 7084  25.533  16.044   5.043
35469W        W 7085  25.246   3.718   3.768
35470W        W 7086  33.881  29.133  14.772
35471W        W 7087  41.024  42.591   4.813
35472W        W 7088  43.782  28.087   0.655
35473W        W 7089  18.389  24.201   1.994
35474W        W 7090  14.632   7.274   3.806
35475W        W 7091   8.807  33.082   1.838
35476W        W 7092   4.236  32.978   1.175
35477W        W 7093   1.756   9.571   2.737
35478W        W 7094  15.338  34.472   1.690
35479W        W 7095  37.946   0.831   4.760
35480W        W 7096   2.864  36.822  10.510
35481W        W 7097  16.545  35.523  14.348
35482W        W 7098  22.186  25.954   4.639
35483W        W 7099  29.517  15.228  11.728
35484W        W 7100  40.279  29.907  11.045
35485W        W 7101  22.016  38.926  12.242
35486W        W 7102  18.238   3.983   0.279
35487W        W 7103  41.322   7.922   3.303
35488W        W 7104  12.445  43.655  14.073
35489W        W 7105   0.761  12.166  12.012
35490W        W 7106  40.016  23.451  13.257
35491W        W 7107  43.548  31.928  11.129
35492W        W 7108  37.116  23.779   4.222
35493W        W 7109   3.106  26.224   5.427
35494W        W 7110  16.120  13.818  13.346
35495W        W 7111  41.790  28.775   3.347
35496W        W 7112  21.155  12.908  13.517
35497W        W 7113  35.768   1.915  12.159
35498W        W 7114  18.115  30.581  14.971
35499W        W 7115  18.871  37.215   1.663
35500W        W 7116  30.613  21.135  14.239
35501W        W 7117   3.407  43.846   2.415
35502W        W 7118  31.510  23.370  13.889
35503W        W 7119  17.876  10.274   1.276
35504W        W 7120  42.761  19.309   1.656
35505W        W 7121  16.465  39.423   2.653
35506W        W 7122   4.813  37.946   4.172
35507W        W 7123  16.682  15.223   0.705
35508W        W 7124  28.849   9.402  11.586
35509W        W 7125  27.004  15.362   3.188
35510W        W 7126   7.449  14.069  10.333
35511W        W 7127  16.651  24.190  13.157
35512W        W 7128  15.154  29.930   4.105
35513W        W 7129  25.265   2.333  11.212
35514W        W 7130  42.261   6.304   2.759
35515W        W 7131  21.779  15.226   1.743
35516W        W 7132  17.715   6.499   3.156
35517W        W 7133  12.652  38.938   3.130
35518W        W 7134   3.860  33.462  14.420
35519W        W 7135  41.811  23.213  13.061
35520W        W 7136   7.953  24.324   4.967
35521W        W 7137   1.360  37.107   0.703
35522W        W 7138  41.112  44.424   4.072
35523W        W 7139  11.391  44.063  13.929
35524W        W 7140  14.164  19.424   3.393
35525W        W 7141  29.501   6.149  14.994
35526W        W 7142  17.279  41.817   2.657
35527W        W 7143  18.207  11.378   0.848
35528W        W 7144  40.961   9.029  14.462
35529W        W 7145  20.108   7.239  14.010
35530W        W 7146  31.178  18.105  13.384
35531W        W 7147   5.234   7.857   3.948
35532W        W 7148   4.207  10.866  14.912
35533W        W 7149  40.593  17.399   4.464
35534W        W 7150  22.133  32.588  13.382
35535W        W 7151  25.444  33.211   1.857
35536W        W 7152   2.965  24.279   0.775
35537W        W 7153  15.593   6.227   2.598
35538W        W 7154  24.924  30.371   4.210
35539W        W 7155   0.240  18.541   3.151
35540W        W 7156  12.636  17.218   2.381
35541W        W 7157  12.359  17.009  11.207
35542W        W 7158  15.208   3.743   3.377
35543W        W 7159  33.465   8.709   3.590
35544W        W 7160  20.605  24.662   1.420
35545W        W 7161  43.064  32.445  10.548
35546W        W 7162   8.206   7.250  14.902
35547W        W 7163  21.379  32.602   0.435
35548W        W 7164  13.647  31.584  13.617
35549W        W 7165  13.280   6.184   4.126
35550W        W 7166   3.199   4.885   0.938
35551W        W 7167  18.557   7.338   0.202
35552W        W 7168   4.178  12.756   4.482
35553W        W 7169   7.864  26.459   4.570
35554W        W 7170   1.347   9.216  11.145
35555W        W 7171   7.615  22.841  11.615
35556W        W 7172   6.921   6.021  12.479
35557W        W 7173  25.723  16.318  12.986
35558W        W 7174  34.414   2.791   2.093
35559W        W 7175  32.908   0.781  10.959
35560W        W 7176  21.094  40.068  11.053
35561W        W 7177  31.198  26.551  14.524
35562W        W 7178  15.580  22.619   4.686
35563W        W 7179   8.076  33.655   1.437
35564W        W 7180  36.365   4.963   2.741
35565W        W 7181  44.921   5.639  11.544
35566W        W 7182  17.086   2.423  12.208
35567W        W 7183   1.264  27.066   2.276
35568W        W 7184  13.268  22.217  11.040
35569W        W 7185  36.046  16.321  13.059
35570W        W 7186   8.344   3.733  12.141
35571W        W 7187  40.470  25.454   2.848
35572W        W 7188  27.994  12.215   3.597
35573W        W 7189  35.030  18.819   1.877
35574W        W 7190   4.728  29.532  12.625
35575W        W 7191   5.413   7.211  14.350
35576W        W 7192   2.612  38.757   1.956
35577W        W 7193  26.943   3.554  11.383
35578W        W 7194  44.389  14.835   3.676
35579W        W 7195   8.372  27.788  12.602
35580W        W 7196  21.098  40.033   4.682
35581W        W 7197  26.532  24.306   0.051
35582W        W 7198  11.715  30.263  12.002
35583W        W 7199  12.162   5.409   0.977
35584W        W 7200   9.875  18.542  13.837
35585W        W 7201  17.493   8.894  11.028
35586W        W 7202  12.736   5.804  11.105
35587W        W 7203  43.763  32.102  12.449
35588W        W 7204   4.500  30.931   3.118
35589W        W 7205  35.386  41.112  14.123
35590W        W 7206   2.875  22.266   3.320
35591W        W 7207  14.293  10.298   4.576
35592W        W 7208  11.960   0.856  12.506
35593W        W 7209   4.426   7.530   3.566
35594W        W 7210  40.299  29.935  14.901
35595W        W 7211  12.355  30.315   3.373
35596W        W 7212  14.284   7.618   4.106
35597W        W 7213  10.463   9.395  11.161
35598W        W 7214  15.819  14.119   0.785
35599W        W 7215  33.074  35.036  13.040
35600W        W 7216  12.435  39.815   0.778
35601W        W 7217  39.758  41.825   3.987
35602W        W 7218   5.465   3.728   0.918
35603W        W 7219   5.923  44.519  11.193
35604W        W 7220  10.567  15.103  11.618
35605W        W 7221  12.865  30.569  10.748
35606W        W 7222  40.493  22.675  14.914
35607W        W 7223  15.472  20.775   4.555
35608W        W 7224  35.885   2.766   3.341
35609W        W 7225  15.773  32.528   0.015
35610W        W 7226  34.116  18.101   0.875
35611W        W 7227   8.710  31.059  11.391
35612W        W 7228  39.988  13.313   5.241
35613W        W 7229  22.084  27.519   1.928
35614W        W 7230  26.227   6.697   2.561
35615W        W 7231   3.224  20.062   5.114
35616W        W 7232  41.412  41.695   0.868
35617W        W 7233   9.733  43.427   1.641
35618W        W 7234   6.820  19.134  13.507
35619W        W 7235  43.332  30.641  11.164
35620W        W 7236  41.019  16.720  14.770
35621W        W 7237  30.189  38.573   2.309
35622W        W 7238  42.058  15.796  11.999
35623W        W 7239  36.680  29.553   3.726
35624W        W 7240  34.410   9.623   3.103
35625W        W 7241  14.211  32.958  13.033
35626W        W 7242  28.115  24.725   2.885
35627W        W 7243  33.114   8.328   3.657
35628W        W 7244  30.520  20.091   3.399
35629W        W 7245  37.794  16.998  11.071
35630W        W 7246  13.384  14.355   2.694
35631W        W 7247  31.617  20.090  11.566
35632W        W 7248  36.901  10.684   3.356
35633W        W 7249   5.305  14.811  11.607
35634W        W 7250  35.472  23.484  13.037
35635W        W 7251  37.558  35.845   2.844
35636W        W 7252   8.423   7.368  13.575
35637W        W 7253  41.230  10.444   2.160
35638W        W 7254  32.131  41.761   4.301
35639W        W 7255  38.768   9.402   3.716
35640W        W 7256  31.473  42.367   2.244
35641W        W 7257  21.674  35.766   3.263
35642W        W 7258   8.361  38.539   2.380
35643W        W 7259  37.408   2.358   4.094
35644W        W 7260  23.541  12.822   0.949
35645W        W 7261  26.490  30.494   0.815
35646W        W 7262  40.807  37.167  13.186
35647W        W 7263  20.095  28.751  13.612
35648W        W 7264  41.784   8.674   2.043
35649W        W 7265  17.766   9.273  11.279
35650W        W 7266  19.286  35.119   2.239
35651W        W 7267  11.293  37.616  12.953
35652W        W 7268  22.306   9.332  13.857
35653W        W 7269  12.323  25.907  11.210
35654W        W 7270  16.812  26.418   0.752
35655W        W 7271  28.745   5.290  11.615
35656W        W 7272  31.192  21.223   4.770
35657W        W 7273   2.905  20.264   3.803
35658W        W 7274   0.885  16.313   0.550
35659W        W 7275   2.924  41.272  12.549
35660W        W 7276  36.587   9.259  12.346
35661W        W 7277  40.033   7.424   3.341
35662W        W 7278  15.029  34.376   0.794
35663W        W 7279  31.604   3.563  14.725
35664W        W 7280  12.845  31.847   1.490
35665W        W 7281  44.094  29.497  13.721
35666W        W 7282  39.416  19.496   3.161
35667W        W 7283  19.545  44.944  13.813
35668W        W 7284  40.794  24.903   1.888
35669W        W 7285  24.294  40.837   0.707
35670W        W 7286  22.950  14.587  14.837
35671W        W 7287  41.201  31.103   2.126
35672W        W 7288  40.465   2.027   1.688
35673W        W 7289  36.139  33.554   5.035
35674W        W 7290  15.836  10.228  14.804
35675W        W 7291   4.744  44.605  12.086
35676W        W 7292  40.467  31.848  12.383
35677W        W 7293  40.816  35.728   4.222
35678W        W 7294  34.549  16.114   3.191
35679W        W 7295  43.034  15.706  13.874
35680W        W 7296  43.982  10.900  12.845
35681W        W 7297   8.588  43.286  10.434
35682W        W 7298  10.954  30.143   3.200
35683W        W 7299  43.680   8.821  14.708
35684W        W 7300  38.120  20.699   1.351
35685W        W 7301  23.087  38.899  10.972
35686W        W 7302  21.558  25.152   4.963
35687W        W 7303  33.263  41.056  10.309
35688W        W 7304  14.704  10.246   0.536
35689W        W 7305  44.559  36.425  10.599
35690W        W 7306  13.361   0.990  10.391
35691W        W 7307  42.029  25.021  14.916
35692W        W 7308  23.443  40.940  12.870
35693W        W 7309  25.642  31.716   0.337
35694W        W 7310  23.984  22.728  12.016
35695W        W 7311  44.400  17.563  13.500
35696W        W 7312  31.089  42.909   3.360
35697W        W 7313  13.616   6.110  14.724
35698W        W 7314   5.401  18.633   2.139
35699W        W 7315  28.421  21.387  14.359
35700W        W 7316  41.606  35.407  11.979
35701W        W 7317   4.902  13.057  14.919
35702W        W 7318  28.549  34.913   0.412
35703W        W 7319  14.735  22.202   3.645
35704W        W 7320  33.292  12.182   1.790
35705W        W 7321  43.522  24.656  14.021
35706W        W 7322   7.532  33.579   2.173
35707W        W 7323   2.496  27.482  14.334
35708W        W 7324  38.065  32.606  10.656
35709W        W 7325  20.677  30.609   1.464
35710W        W 7326  27.618  20.802   4.211
35711W        W 7327   6.357  11.877  13.887
35712W        W 7328  12.772   4.406  11.576
35713W        W 7329  24.189  29.592  10.677
35714W        W 7330  18.302  32.616   3.288
35715W        W 7331  39.839  19.884  14.729
35716W        W 7332  37.580  36.824   1.129
35717W        W 7333  24.130  36.266  14.882
35718W        W 7334  43.216  27.845  11.478
35719W        W 7335  41.030   2.760  11.506
35720W        W 7336  23.921   9.568  12.937
35721W        W 7337  24.139  27.562   1.250
35722W        W 7338   1.370  14.208   2.813
35723W        W 7339   3.406   7.708  12.102
35724W        W 7340  42.765  37.371  12.201
35725W        W 7341  22.298  27.441  10.594
35726W        W 7342  36.334  34.064  11.190
35727W        W 7343  36.674  33.206   1.844
35728W        W 7344  11.355  39.817  11.089
35729W        W 7345   8.904  23.349  14.781
35730W        W 7346  17.530  15.872  10.745
35731W        W 7347  38.385   0.996  11.081
35732W        W 7348  13.808   7.139   4.654
35733W        W 7349  26.021  35.130   1.355
35734W        W 7350  44.376  23.631  14.505
35735W        W 7351  30.455  21.949   2.481
35736W        W 7352  18.677  25.084  14.170
35737W        W 7353  24.646  29.452  11.881
35738W        W 7354  34.960  44.338  11.602
35739W        W 7355  25.126  25.477  10.704
35740W        W 7356  33.436  22.753  12.386
35741W        W 7357  39.083  40.128  13.554
35742W        W 7358  41.427  24.156  14.346
35743W        W 7359  12.351   4.527   2.835
35744W        W 7360  36.930  19.363  11.699
35745W        W 7361  35.863  12.735   2.142
35746W        W 7362  12.845  18.160  14.217
35747W        W 7363  43.442  44.937   4.602
35748W        W 7364  41.047  16.249  11.574
35749W        W 7365   4.720  29.310  11.114
35750W        W 7366  31.426  44.898   0.990
35751W        W 7367  25.217   8.260   2.330
35752W        W 7368  37.060   9.812  11.790
35753W        W 7369  23.926   9.492   0.792
35754W        W 7370  18.992   2.349  14.946
35755W        W 7371  18.686   5.357   0.826
35756W        W 7372  25.261  23.219   0.452
35757W        W 7373  33.143  43.396  14.758
35758W        W 7374   3.008  21.983  12.899
35759W        W 7375   6.807   0.337   3.806
35760W        W 7376  37.563  24.114   2.850
35761W        W 7377  29.652  21.030   3.182
35762W        W 7378   4.456  43.751   3.332
35763W        W 7379  30.389  44.289   0.326
35764W        W 7380   1.934  42.518   1.184
35765W        W 7381   7.853  42.077  13.151
35766W        W 7382   1.402  42.345  12.020
35767W        W 7383   5.370  16.895   2.867
35768W        W 7384  40.538  12.321   0.922
35769W        W 7385  31.514  30.987   2.686
35770W        W 7386  40.278  30.702   3.620
35771W        W 7387  22.643   1.921   4.250
35772W        W 7388  29.919  28.878   1.286
35773W        W 7389  16.090  10.351  10.396
35774W        W 7390   7.145  16.568  13.417
35775W        W 7391  43.812  28.617   4.580
35776W        W 7392  11.888  23.360  13.551
35777W        W 7393  38.902  23.157   4.883
35778W        W 7394  26.910   1.830   1.649
35779W        W 7395   0.328  33.452  13.456
35780W        W 7396  20.878  30.055   4.551
35781W        W 7397   1.227  31.571   3.730
35782W        W 7398  40.257  30.693  11.537
35783W        W 7399  36.866   8.743  12.924
35784W        W 7400  24.712  42.070   2.795
35785W        W 7401   1.724  17.552   3.371
35786W        W 7402  43.996  13.322   3.726
35787W        W 7403  11.110  16.830   4.092
35788W        W 7404  16.260  21.702  12.608
35789W        W 7405  19.605   7.754  14.893
35790W        W 7406  30.151  23.055  12.986
35791W        W 7407   7.125  35.774   1.745
35792W        W 7408  39.312  44.629  11.491
35793W        W 7409  21.112  21.583   4.457
35794W        W 7410  24.613  38.460  11.998
35795W        W 7411  16.224  20.703  12.376
35796W        W 7412   5.410  43.965   5.053
35797W        W 7413   0.146   3.268   0.220
35798W        W 7414  34.955   1.824   3.210
35799W        W 7415  27.610   1.832  14.456
35800W        W 7416   9.920  35.937  11.111
35801W        W 7417  17.280  33.820   2.326
35802W        W 7418  16.313  37.042   0.446
35803W        W 7419  16.538  41.279  10.767
35804W        W 7420  39.974  18.305   0.421
35805W        W 7421   2.402  42.305  14.976
35806W        W 7422  17.145   3.505   1.468
35807W        W 7423  28.190  28.127  11.185
35808W        W 7424  27.600  19.799   3.311
35809W        W 7425  23.194  29.499   4.216
35810W        W 7426  25.587  40.127   2.461
35811W        W 7427  42.148  13.258  13.141
35812W        W 7428  30.430  23.735   3.110
35813W        W 7429  39.540  44.290   9.964
35814W        W 7430  13.849  23.045   1.218
35815W        W 7431  34.476  29.274   1.334
35816W        W 7432  14.855  24.513   2.068
35817W        W 7433   5.756   7.832   4.171
35818W        W 7434  12.348  13.468   4.495
35819W        W 7435  41.448   4.324  12.068
35820W        W 7436  32.105   1.531  10.199
35821W        W 7437   5.091  34.876  11.137
35822W        W 7438  43.535  11.708  11.193
35823W        W 7439  13.944  39.741  11.577
35824W        W 7440   7.137  39.417  11.504
35825W        W 7441  27.112  39.434   2.173
35826W        W 7442  11.672  39.007   5.014
35827W        W 7443  18.783   0.555  10.409
35828W        W 7444  29.954  33.491  11.990
35829W        W 7445   0.280   4.894  13.846
35830W        W 7446  39.671  30.372   2.552
35831W        W 7447  27.543   2.854   0.001
35832W        W 7448  19.567  42.196   2.381
35833W        W 7449  15.091  38.392  12.970
35834W        W 7450  10.344  10.655   3.095
35835W        W 7451  41.021  25.659   2.684
35836W        W 7452  23.802  39.944   3.747
35837W        W 7453   4.205  15.649  10.544
35838W        W 7454  33.099  15.301  13.036
35839W        W 7455  26.612  14.409  13.206
35840W        W 7456  11.620  28.158   3.113
35841W        W 7457   2.925  25.871   2.293
35842W        W 7458  29.366  44.482   1.790
35843W        W 7459  20.534  29.960   4.069
35844W        W 7460  10.401  43.989   1.442
35845W        W 7461  38.903  26.084  13.989
35846W        W 7462  35.604  36.104   2.540
35847W        W 7463   5.697  43.543  14.789
35848W        W 7464   3.967  41.954  13.608
35849W        W 7465   2.761  41.730  10.939
35850W        W 7466  28.640  36.448  13.759
35851W        W 7467  18.756  27.872   1.253
35852W        W 7468  20.881  14.790   3.614
35853W        W 7469  32.671  31.464   2.667
35854W        W 7470  29.439  25.504   3.230
35855W        W 7471  29.890  34.441   3.811
35856W        W 7472  43.302  28.502   0.981
35857W        W 7473  33.593  15.495   4.579
35858W        W 7474  43.433  43.467   0.281
35859W        W 7475  12.919   0.477   4.819
35860W        W 7476   1.337  22.084  13.612
35861W        W 7477  20.480  33.937  14.468
35862W        W 7478   8.589  14.724   2.702
35863W        W 7479  43.296  30.469  12.413
35864W        W 7480  11.709  30.642   1.635
35865W        W 7481   8.793  15.833  14.749
35866W        W 7482  33.302  40.461   1.186
35867W        W 7483  44.357  22.406  13.487
35868W        W 7484   0.995   6.281  12.596
35869W        W 7485   8.385  25.723   0.229
35870W        W 7486  31.503  25.522  14.547
35871W        W 7487  15.759  35.385  13.852
35872W        W 7488  41.011   0.007   3.143
35873W        W 7489  16.813  33.580   2.237
35874W        W 7490   4.967   0.560   9.775
35875W        W 7491  11.213  17.776  12.156
35876W        W 7492  26.728  25.173  11.933
35877W        W 7493  17.171  16.277  12.131
35878W        W 7494  25.263   5.125   2.729
35879W        W 7495  34.321  31.712  10.736
35880W        W 7496   4.842  38.950   3.267
35881W        W 7497  23.254  44.477  13.566
35882W        W 7498  15.717  10.681  10.589
35883W        W 7499  17.063  42.808  12.058
35884W        W 7500  36.377  21.074  10.344
35885W        W 7501  26.754  26.769   2.806
35886W        W 7502  23.560  24.083   0.376
35887W        W 7503  15.625   0.907  11.585
35888W        W 7504  20.053  26.203  13.358
35889W        W 7505  22.198   1.742  14.833
35890W        W 7506  12.393  12.802   0.009
35891W        W 7507  27.660  23.773   1.870
35892W        W 7508  18.120  14.316   5.021
35893W        W 7509  42.368  37.070   3.785
35894W        W 7510  19.866  19.115   2.412
35895W        W 7511  23.704   3.694   1.767
35896W        W 7512   0.785  36.062   4.473
35897W        W 7513  42.442  33.929  14.294
35898W        W 7514  11.744   6.977  14.111
35899W        W 7515  36.854  15.865  13.454
35900W        W 7516  29.020   6.955   0.520
35901W        W 7517  11.653   3.868   4.192
35902W        W 7518   9.869  32.585  12.918
35903W        W 7519  41.964  43.186  13.574
35904W        W 7520   8.030   7.451   2.788
35905W        W 7521  20.453  43.700   5.326
35906W        W 7522  10.743  24.208  11.293
35907W        W 7523  40.006   2.323  12.242
35908W        W 7524  30.486  22.133   4.113
35909W        W 7525  31.924   7.901  11.569
35910W        W 7526  23.826  10.298   2.332
35911W        W 7527  35.610  20.200  10.946
35912W        W 7528  27.422   5.326   1.431
35913W        W 7529  15.178  38.612   0.623
35914W        W 7530  23.671  17.490   4.505
35915W        W 7531  25.710  37.266  12.052
35916W        W 7532  36.784   8.510  10.643
35917W        W 7533  11.786  30.393  13.342
35918W        W 7534  42.412  26.223  13.388
35919W        W 7535  10.726   5.185   1.781
35920W        W 7536   9.880  21.244  11.111
35921W        W 7537  14.103  28.075   1.467
35922W        W 7538  24.922  37.504  10.205
35923W        W 7539  43.242  24.732  12.528
35924W        W 7540  42.045  43.532  14.947
35925W        W 7541   4.904  37.802   1.625
35926W        W 7542  26.882   8.742  11.012
35927W        W 7543  43.377   9.838   3.785
35928W        W 7544  19.364  43.566  11.056
35929W        W 7545  25.953  15.765   3.404
35930W        W 7546   2.742   8.933   2.217
35931W        W 7547  44.568  13.415   0.366
35932W        W 7548   2.966  25.557   4.097
35933W        W 7549   3.735  16.847   1.748
35934W        W 7550  27.760   5.907  10.535
35935W        W 7551  39.844   9.246  12.598
35936W        W 7552  10.745  41.580  14.041
35937W        W 7553  19.131  39.304  11.526
35938W        W 7554   5.460  29.561  13.238
35939W        W 7555   7.197  34.497   1.968
35940W        W 7556   3.269  24.918   4.491
35941W        W 7557  10.865  16.063   4.765
35942W        W 7558  24.453   0.500  12.927
35943W        W 7559  42.276  26.826   0.070
35944W        W 7560  22.654  17.056   3.539
35945W        W 7561  21.195  28.610  10.762
35946W        W 7562  10.100  44.924   2.292
35947W        W 7563   9.617  36.869  11.054
35948W        W 7564   9.323   1.424   2.971
35949W        W 7565  13.791  15.062  12.585
35950W        W 7566  19.947  16.569  14.392
35951W        W 7567  11.174  43.462   0.357
35952W        W 7568  14.094  36.602   2.135
35953W        W 7569  28.656  39.507   0.642
35954W        W 7570   4.712   5.403  13.906
35955W        W 7571  29.509  35.344  12.534
35956W        W 7572   0.679  22.827  12.574
35957W        W 7573   7.749  16.726   3.705
35958W        W 7574   4.972  25.636   1.777
35959W        W 7575  29.021  19.146  13.210
35960W        W 7576  32.638  39.822   4.361
35961W        W 7577  37.914  10.915   4.916
35962W        W 7578  36.121  39.874   3.683
35963W        W 7579  22.052  16.100  11.556
35964W        W 7580  17.041  30.175   3.704
35965W        W 7581  30.679  39.396  12.897
35966W        W 7582  41.920  38.045  12.394
35967W        W 7583  14.051   2.482   2.308
35968W        W 7584  44.500  41.328  13.658
35969W        W 7585   4.676  22.614   4.021
35970W        W 7586  35.560  18.181   0.289
35971W        W 7587  13.708  26.328  14.107
35972W        W 7588  22.515  23.119   4.566
35973W        W 7589  26.745  16.259   1.874
35974W        W 7590  26.015   2.144   2.498
35975W        W 7591  43.128  38.013   1.791
35976W        W 7592  40.587  33.096  13.358
35977W        W 7593  38.840  33.623   1.905
35978W        W 7594  15.085  44.349  10.620
35979W        W 7595  23.221  31.244  12.999
35980W        W 7596  24.088  14.605  11.049
35981W        W 7597  34.274   6.334  12.477
35982W        W 7598   8.750  32.337  12.429
35983W        W 7599  34.134   9.012   4.700
35984W        W 7600  36.385  14.522  10.391
35985W        W 7601  28.421   3.760   2.440
35986W        W 7602  18.049  34.094  14.017
35987W        W 7603  10.984   4.095  11.604
35988W        W 7604   0.463   5.905   2.289
35989W        W 7605  42.817  12.277  13.903
35990W        W 7606   9.619  40.067   3.741
35991W        W 7607  25.398  18.432  10.583
35992W        W 7608  37.671  43.600   0.814
35993W        W 7609  40.537   6.185   3.634
35994W        W 7610  40.304  34.231   3.514
35995W        W 7611  43.011  19.458  10.450
35996W        W 7612  27.283  20.301   0.871
35997W        W 7613   0.843  30.616   2.131
35998W        W 7614  42.492   6.261   1.979
35999W        W 7615  35.615  42.082  13.227
36000W        W 7616  37.912  27.060   0.453
36001W        W 7617  28.374  30.477   1.472
36002W        W 7618  13.422  31.599   2.339
36003W        W 7619  14.388  17.511   2.737
36004W        W 7620  16.439  22.145   0.177
36005W        W 7621  17.860  16.370   9.414
36006W        W 7622  20.526   0.612  14.944
36007W        W 7623  41.615  10.257  14.336
36008W        W 7624  16.210  37.516  12.990
36009W        W 7625  37.355  43.939  13.867
36010W        W 7626   1.788   3.098   4.034
36011W        W 7627  16.225  32.027   2.615
36012W        W 7628   4.571  22.614   1.435
36013W        W 7629  35.077  33.495  12.133
36014W        W 7630  14.932  10.232  14.536
36015W        W 7631  32.646  16.629   3.234
36016W        W 7632  15.055   0.978  13.641
36017W        W 7633  10.168  37.102   2.272
36018W        W 7634  11.246  42.840   2.692
36019W        W 7635  25.988  20.141   3.840
36020W        W 7636  19.753  13.485   5.112
36021W        W 7637   9.159  39.537  14.245
36022W        W 7638  17.168   2.560   4.560
36023W        W 7639  36.504  12.340   4.774
36024W        W 7640  24.481  29.422   4.376
36025W        W 7641   4.968  15.411   4.504
36026W        W 7642  32.552  32.073  12.460
36027W        W 7643  27.111   3.065   0.284
36028W        W 7644  43.329  19.198   4.015
36029W        W 7645  19.606   0.528   4.557
36030W        W 7646  16.363  28.419  12.428
36031W        W 7647  42.310  13.596   3.335
36032W        W 7648  42.430  12.683   2.979
36033W        W 7649  29.556  11.446  12.950
36034W        W 7650  41.223  38.506   0.647
36035W        W 7651  38.892  21.170  10.637
36036W        W 7652  20.940   0.092  11.557
36037W        W 7653  43.422  29.197   2.284
36038W        W 7654  27.223  30.442  14.479
36039W        W 7655  22.145  38.302   0.008
36040W        W 7656  24.447  32.521   2.290
36041W        W 7657  19.331  29.713  12.519
36042W        W 7658  12.719  28.627   1.450
36043W        W 7659  38.175  24.720  12.430
36044W        W 7660  22.835  14.228   1.667
36045W        W 7661  36.418  35.773  14.228
36046W        W 7662  34.456  12.141  12.919
36047W        W 7663  39.290  22.673   3.736
36048W        W 7664  41.032  38.433  12.574
36049W        W 7665  25.095   0.382   0.320
36050W        W 7666  17.048   8.423   0.371
36051W        W 7667   6.976  30.695  11.217
36052W        W 7668   7.999  32.879  13.380
36053W        W 7669   2.574  22.022   4.656
36054W        W 7670   2.241   6.614  14.834
36055W        W 7671  29.113  42.323   0.725
36056W        W 7672  42.416  15.132   0.956
36057W        W 7673  31.635  42.151  14.555
36058W        W 7674  22.078   5.690   2.210
36059W        W 7675  33.647  10.692   1.919
36060W        W 7676  40.496  24.718  11.176
36061W        W 7677  39.024   5.784  11.177
36062W        W 7678  44.474  11.647   0.845
36063W        W 7679   1.604  21.036  11.624
36064W        W 7680  14.086  16.576   0.695
36065W        W 7681  32.672  44.223   3.286
36066W        W 7682  13.175  25.257   2.902
36067W        W 7683  30.108  29.714   3.681
36068W        W 7684   0.861  32.405   1.249
36069W        W 7685  19.822  25.170   4.927
36070W        W 7686  43.893  29.134  10.869
36071W        W 7687  15.604  15.612  10.282
36072W        W 7688  36.352  11.265  14.852
36073W        W 7689  16.645  13.675   2.702
36074W        W 7690  30.413  37.405  11.147
36075W        W 7691   9.590  32.054   3.187
36076W        W 7692   4.909   3.032  12.531
36077W        W 7693  39.219  41.772  11.418
36078W        W 7694   1.466  43.972   2.133
36079W        W 7695  20.576  18.445  11.487
36080W        W 7696  38.349   3.892   1.362
36081W        W 7697  19.829  44.934   1.274
36082W        W 7698  34.099   5.193  12.953
36083W        W 7699  26.134  14.715   9.936
36084W        W 7700  39.899  20.589  13.895
36085W        W 7701   7.298  44.079   4.091
36086W        W 7702  18.690   2.794  10.676
36087W        W 7703  28.185  39.340  14.370
36088W        W 7704  32.084   9.110   4.692
36089W        W 7705   0.572  36.939   4.435
36090W        W 7706  20.908  44.213   1.826
36091W        W 7707   7.744   9.582  11.218
36092W        W 7708  15.682  12.917   3.711
36093W        W 7709  18.236  31.858  10.872
36094W        W 7710  28.758  20.201   4.204
36095W        W 7711  44.640  42.574   5.067
36096W        W 7712  12.780   9.350  13.334
36097W        W 7713  21.065  41.073  12.887
36098W        W 7714  29.907   8.298  11.542
36099W        W 7715  38.859  11.089  11.590
36100W        W 7716   5.852  42.860   3.239
36101W        W 7717  27.656  22.564  12.607
36102W        W 7718  37.017  26.009  14.522
36103W        W 7719  17.160  33.908  11.078
36104W        W 7720   4.689  24.734  13.917
36105W        W 7721   0.218  20.119  10.635
36106W        W 7722  42.738  26.190  12.950
36107W        W 7723  33.939  17.029   3.267
36108W        W 7724  22.816  10.749  14.892
36109W        W 7725  26.968   0.092  13.447
36110W        W 7726  31.500  39.448  10.743
36111W        W 7727  24.589  32.928  13.350
36112W        W 7728  44.999  39.408   4.248
36113W        W 7729  38.639   1.396   0.357
36114W        W 7730   6.830  13.739  11.417
36115W        W 7731  29.536  35.532  11.343
36116W        W 7732  26.239  20.011   2.323
36117W        W 7733  23.613  44.451  10.521
36118W        W 7734  36.244  20.638   2.779
36119W        W 7735  17.119  34.051  10.458
36120W        W 7736  36.108   1.758   1.807
36121W        W 7737   1.852  26.511   3.268
36122W        W 7738   1.366  26.708   0.392
36123W        W 7739   1.768  38.517  10.684
36124W        W 7740  24.094  18.244   3.514
36125W        W 7741  25.035  27.519   1.277
36126W        W 7742   9.402  34.652  12.456
36127W        W 7743   1.004   9.395   0.409
36128W        W 7744  19.740   8.822  12.357
36129W        W 7745  33.927  41.989   0.541
36130W        W 7746  20.600  28.197   2.742
36131W        W 7747  17.583   7.375  13.613
36132W        W 7748  44.743  28.584  12.425
36133W        W 7749  36.663   9.935   2.244
36134W        W 7750  38.447  40.263  10.644
36135W        W 7751  41.243  28.719  13.531
36136W        W 7752  13.821  13.341  13.480
36137W        W 7753  35.877  20.176  12.552
36138W        W 7754   7.326  18.076  10.958
36139W        W 7755   4.932  31.831   0.014
36140W        W 7756   0.948  37.204   4.177
36141W        W 7757   3.750  41.473   1.308
36142W        W 7758  29.992  37.801   1.851
36143W        W 7759  44.862  21.315  14.099
36144W        W 7760  33.918  38.778   2.840
36145W        W 7761  29.974  17.751  11.976
36146W        W 7762  36.799  20.104   1.316
36147W        W 7763  36.856  23.475  13.767
36148W        W 7764  22.202  38.745   9.981
36149W        W 7765  24.109  38.984  10.718
36150W        W 7766  22.901  36.233   0.950
36151W        W 7767  16.579  17.249   2.813
36152W        W 7768   9.722  13.360   2.911
36153W        W 7769   5.722  10.383  11.775
36154W        W 7770  15.242  25.225   0.187
36155W        W 7771  21.295  27.702  12.975
36156W        W 7772  28.240  41.327  11.543
36157W        W 7773  13.406  35.815   4.573
36158W        W 7774  26.192  14.177   0.706
36159W        W 7775  41.938  23.397   0.547
36160W        W 7776  25.549  25.713  10.878
36161W        W 7777  32.823  19.218  14.357
36162W        W 7778  29.236   6.417  13.774
36163W        W 7779  19.791  33.122   4.235
36164W        W 7780  34.464  24.979   3.496
36165W        W 7781  28.436  31.233   0.289
36166W        W 7782  38.929   1.626  12.683
36167W        W 7783  24.852  39.967  11.270
36168W        W 7784   0.786  25.225  14.728
36169W        W 7785   3.213  24.548  13.930
36170W        W 7786  40.026  11.327   2.125
36171W        W 7787   6.239  43.248  11.445
36172W        W 7788  33.467   0.562  12.381
36173W        W 7789   8.659  12.520  12.350
36174W        W 7790  37.096   8.356   4.573
36175W        W 7791  30.621  17.572   4.175
36176W        W 7792  11.167  29.189  12.209
36177W        W 7793  37.453  18.067   0.944
36178W        W 7794  14.778   4.017   9.904
36179W        W 7795  43.332  27.411   1.264
36180W        W 7796  23.211  34.562  11.679
36181W        W 7797  24.829  25.499   1.338
36182W        W 7798  23.049  39.511   0.903
36183W        W 7799  39.860  30.156  13.630
36184W        W 7800  26.056  37.848   4.834
36185W        W 7801  28.956  24.209   2.651
36186W        W 7802  35.699  44.939   1.824
36187W        W 7803   4.320  11.731  14.285
36188W        W 7804  37.910   5.454  13.770
36189W        W 7805  23.009  24.747  14.439
36190W        W 7806  43.815   5.130   1.220
36191W        W 7807  24.892   0.196  12.956
36192W        W 7808   9.727  44.400   4.419
36193W        W 7809  26.418  24.090   2.593
36194W        W 7810  26.096  12.828   0.495
36195W        W 7811  35.708  33.565  14.542
36196W        W 7812  39.232  17.851   2.134
36197W        W 7813  15.515  22.033  11.131
36198W        W 7814  11.575  32.437  13.408
36199W        W 7815  24.811   5.777  10.605
36200W        W 7816   5.157   1.717  12.650
36201W        W 7817  15.011  24.834  13.903
36202W        W 7818  30.446  37.802   2.627
36203W        W 7819  27.662  13.381  13.556
36204W        W 7820  29.694  35.170  12.074
36205W        W 7821  16.460  29.583   2.774
36206W        W 7822   4.751   8.658  14.939
36207W        W 7823  21.210   1.977  14.758
36208W        W 7824   1.044  32.884   4.070
36209W        W 7825   2.163  44.971   4.915
36210W        W 7826  20.664  21.685  12.475
36211W        W 7827  10.737   1.301   4.800
36212W        W 7828  37.756  21.090   1.408
36213W        W 7829  17.641  36.710   0.383
36214W        W 7830  44.908  22.961  14.852
36215W        W 7831  40.276  18.777   2.733
36216W        W 7832   2.828  33.171   2.213
36217W        W 7833   9.541  19.580  12.228
36218W        W 7834  43.778  17.303  13.301
36219W        W 7835   5.206  26.914  10.484
36220W        W 7836  11.235  20.170   2.176
36221W        W 7837  20.493  25.057   1.758
36222W        W 7838  32.603  34.572   0.763
36223W        W 7839  34.462  31.913   0.971
36224W        W 7840  41.266  34.202   1.480
36225W        W 7841   6.756  14.070   1.607
36226W        W 7842  23.155  12.170  13.031
36227W        W 7843  22.954   1.971   4.662
36228W        W 7844   2.360   6.667  12.963
36229W        W 7845   4.820  20.346  10.647
36230W        W 7846  13.553  16.618  13.444
36231W        W 7847  31.544   2.464  13.566
36232W        W 7848   8.743   6.274   4.306
36233W        W 7849  14.207  39.490   2.237
36234W        W 7850  25.703   8.355  10.599
36235W        W 7851  35.404  18.999  12.430
36236W        W 7852  28.060  23.996   3.143
36237W        W 7853  34.381  30.876   2.340
36238W        W 7854   2.206   4.571  13.422
36239W        W 7855  25.630  11.499  14.298
36240W        W 7856  35.320  41.551   1.640
36241W        W 7857  11.827   6.328  12.289
36242W        W 7858  14.623   3.314  14.088
36243W        W 7859  10.612  39.240   3.287
36244W        W 7860  14.139  19.965  11.044
36245W        W 7861   1.506  44.117   5.530
36246W        W 7862  42.167   7.577   1.433
36247W        W 7863   3.835  18.085   0.988
36248W        W 7864  43.967  24.370   2.753
36249W        W 7865  28.131  13.099  12.405
36250W        W 7866  27.433  13.627   1.219
36251W        W 7867  19.203   3.007   3.731
36252W        W 7868   9.166  20.795  10.343
36253W        W 7869   6.360  39.449   3.327
36254W        W 7870   8.931   3.595   0.843
36255W        W 7871   6.046  28.425   4.084
36256W        W 7872   3.165  44.299   2.384
36257W        W 7873  32.921  19.182  13.018
36258W        W 7874  23.932  42.393  12.933
36259W        W 7875   6.446  17.237  14.973
36260W        W 7876  14.912  43.296  12.996
36261W        W 7877   3.824  14.841   1.343
36262W        W 7878  34.464  24.400   2.266
36263W        W 7879  35.831  28.837  11.117
36264W        W 7880  30.578  18.688   2.641
36265W        W 7881  31.573   8.763  10.644
36266W        W 7882  38.184  40.737   4.180
36267W        W 7883  25.922  14.842  11.367
36268W        W 7884  36.002  42.774   1.739
36269W        W 7885  35.365  10.720  13.321
36270W        W 7886  37.255  44.911   1.609
36271W        W 7887  19.401   3.901   3.872
36272W        W 7888  30.797  28.367   4.710
36273W        W 7889  15.567  11.528  14.748
36274W        W 7890  26.496   9.747   2.373
36275W        W 7891  11.192  33.535   3.822
36276W        W 7892  43.854  43.848   0.772
36277W        W 7893  44.509  28.024  14.402
36278W        W 7894  14.923   7.388  14.804
36279W        W 7895  44.294  34.027  11.026
36280W        W 7896  15.658  36.385   1.406
36281W        W 7897  10.656  17.326   2.535
36282W        W 7898  42.327  12.196   3.148
36283W        W 7899  18.701   2.316  12.885
36284W        W 7900  13.288  29.463   4.151
36285W        W 7901   2.790  16.253   2.223
36286W        W 7902   7.367   5.913   3.863
36287W        W 7903  31.567  12.672   0.399
36288W        W 7904  27.618  11.810  13.387
36289W        W 7905  32.382   0.707   1.738
36290W        W 7906  14.154  20.588  11.559
36291W        W 7907   4.012   0.926   4.395
36292W        W 7908  41.735   0.997   0.774
36293W        W 7909  25.680   9.306   2.656
36294W        W 7910  39.545   6.037   4.160
36295W        W 7911  15.414  23.006  14.005
36296W        W 7912  18.351  16.974   4.795
36297W        W 7913  20.564  18.167   2.758
36298W        W 7914  19.280  24.218   2.501
36299W        W 7915   8.792  25.916   4.192
36300W        W 7916  21.737  38.425   0.288
36301W        W 7917  14.229   5.799   1.305
36302W        W 7918  20.668  44.191   0.871
36303W        W 7919  44.072   9.616  12.902
36304W        W 7920  19.202  23.510  12.582
36305W        W 7921  31.251   0.983   3.380
36306W        W 7922  18.602  32.101   1.923
36307W        W 7923  30.188  27.402   2.255
36308W        W 7924  17.208   0.680   1.465
36309W        W 7925   1.596   7.848  12.442
36310W        W 7926  17.515   0.269   3.695
36311W        W 7927  43.882  25.760  13.132
36312W        W 7928  16.604  33.624   1.768
36313W        W 7929  28.886  42.877  11.544
36314W        W 7930  42.807   8.907  12.454
36315W        W 7931  43.362  30.944   4.403
36316W        W 7932  30.827  25.909  13.912
36317W        W 7933  30.241  11.165  10.624
36318W        W 7934  24.208  44.807  11.887
36319W        W 7935  30.733   1.851   2.151
36320W        W 7936  22.528   5.265   4.134
36321W        W 7937   2.451   4.188   2.396
36322W        W 7938  43.113  13.927  14.429
36323W        W 7939  36.029  38.286   2.870
36324W        W 7940   8.855  37.726   2.966
36325W        W 7941   4.824  37.016  11.085
36326W        W 7942   9.777  17.535   3.286
36327W        W 7943  22.962  20.477   4.716
36328W        W 7944  15.814  26.983   3.787
36329W        W 7945  38.778  30.842  14.831
36330W        W 7946  26.179  35.117  11.081
36331W        W 7947   8.171  37.966   3.605
36332W        W 7948  18.676  43.839  13.363
36333W        W 7949  26.221  42.950  10.907
36334W        W 7950   0.340  23.016   0.823
36335W        W 7951   9.667  26.808   2.448
36336W        W 7952  22.235   9.239   2.347
36337W        W 7953  27.284  40.844  13.819
36338W        W 7954  17.153  19.515   3.330
36339W        W 7955  29.825  34.858  11.673
36340W        W 7956  20.222   6.839  11.741
36341W        W 7957  13.784  16.515  10.384
36342W        W 7958  13.841   3.163   2.766
36343W        W 7959  41.608  42.362   3.183
36344W        W 7960  14.333  31.059   4.386
36345W        W 7961  38.489   5.727  10.419
36346W        W 7962  41.115  37.597   1.665
36347W        W 7963  12.401  14.197  14.331
36348W        W 7964  43.919  19.471   1.439
36349W        W 7965  19.185   1.009  11.502
36350W        W 7966  35.434  38.143   4.163
36351W        W 7967  31.071  29.148   3.790
36352W        W 7968  23.258  15.668   1.471
36353W        W 7969  20.054  16.498  10.395
36354W        W 7970  12.195  36.934   0.071
36355W        W 7971  29.884  24.653  13.818
36356W        W 7972   6.854  30.140   0.368
36357W        W 7973  25.464  35.913   4.075
36358W        W 7974  26.652  10.106  14.553
36359W        W 7975   5.899  24.715  11.020
36360W        W 7976  12.834  26.673  10.942
36361W        W 7977  42.914  19.440  12.915
36362W        W 7978  34.544  18.127  14.859
36363W        W 7979  19.347   8.477  13.345
36364W        W 7980  11.880  25.133   3.650
36365W        W 7981  41.828  31.590   2.773
36366W        W 7982  22.213  36.517   1.454
36367W        W 7983  39.420  13.290   0.440
36368W        W 7984   3.229   2.255  10.428
36369W        W 7985  23.554  43.013   0.401
36370W        W 7986  43.299  37.997  14.609
36371W        W 7987  24.966   1.617  14.502
36372W        W 7988  30.531  35.997  13.444
36373W        W 7989  10.362   6.788   2.844
36374W        W 7990  22.148  26.003  13.063
36375W        W 7991  15.649  25.485   2.629
36376W        W 7992  44.455  16.739   1.737
36377W        W 7993   4.858  23.074  11.933
36378W        W 7994  25.163  22.741  12.436
36379W        W 7995  38.119   1.910  14.539
36380W        W 7996  18.128  33.179   1.890
36381W        W 7997   2.712  29.160   4.549
36382W        W 7998   5.306  31.464  14.383
36383W        W 7999  36.257  39.998  12.573
36384W        W 8000  20.208  30.484   1.223
36385W        W 8001   7.951  25.076  12.938
36386W        W 8002  44.898   5.725   0.939
36387W        W 8003   9.202   3.887  14.545
36388W        W 8004  37.168  14.372   4.613
36389W        W 8005  27.622  26.348   2.187
36390W        W 8006  32.976   3.705  10.985
36391W        W 8007   1.391  27.735   1.674
36392W        W 8008  23.066  25.514   0.994
36393W        W 8009  21.306  13.187  12.001
36394W        W 8010  24.861   6.748  14.525
36395W        W 8011   9.725   8.761   1.251
36396W        W 8012  26.705  13.082  13.399
36397W        W 8013  12.668   1.190   0.794
36398W        W 8014   9.617  16.109  11.886
36399W        W 8015   7.222  32.831  13.922
36400W        W 8016  21.687  18.624   2.176
36401W        W 8017  24.027  43.442   3.389
36402W        W 8018  24.958  10.647  13.932
36403W        W 8019   5.725  21.357  12.870
36404W        W 8020  25.202  14.293  10.645
36405W        W 8021  43.159  20.233   4.270
36406W        W 8022  20.201  41.022   3.600
36407W        W 8023  34.904   7.286   4.639
36408W        W 8024  30.803  14.044  12.509
36409W        W 8025  18.459  23.923  12.610
36410W        W 8026  39.884  24.269   2.721
36411W        W 8027   3.188  26.131   4.131
36412W        W 8028   1.281  16.875  11.579
36413W        W 8029  32.506  23.527  14.289
36414W        W 8030  19.160   5.815   2.708
36415W        W 8031  18.691  26.074  12.824
36416W        W 8032   6.233  14.145   3.373
36417W        W 8033  25.098   2.274   3.387
36418W        W 8034   9.722  41.541  13.615
36419W        W 8035  44.491  26.105  14.806
36420W        W 8036  12.119  43.819   4.873
36421W        W 8037  36.039  34.833  13.533
36422W        W 8038  34.984  10.695  12.103
36423W        W 8039  23.547  29.081  10.697
36424W        W 8040  18.746  10.883   0.363
36425W        W 8041  38.779  17.246   1.273
36426W        W 8042   9.809  18.688   4.582
36427W        W 8043   7.031  29.194   1.814
36428W        W 8044  19.201  23.752   2.314
36429W        W 8045   1.910  36.012   0.160
36430W        W 8046  28.546  38.015   3.486
36431W        W 8047   2.532   6.388   3.257
36432W        W 8048  28.979   1.121  14.335
36433W        W 8049  26.190  37.258  12.564
36434W        W 8050  40.577  24.943   9.902
36435W        W 8051  30.609  13.852   0.362
36436W        W 8052  23.290  28.638  10.751
36437W        W 8053   1.670  43.226  12.080
36438W        W 8054  26.624   9.509   0.263
36439W        W 8055  14.332  43.031  12.078
36440W        W 8056   6.902   4.727  13.476
36441W        W 8057  21.576   6.096   1.005
36442W        W 8058  37.293  25.567   3.861
36443W        W 8059  36.612  36.260  10.641
36444W        W 8060  21.001  23.762  13.487
36445W        W 8061  24.155   8.849  10.007
36446W        W 8062  34.580  27.361   2.188
36447W        W 8063  22.056  10.758  13.720
36448W        W 8064  36.437  15.583   0.713
36449W        W 8065  22.576  28.371   3.280
36450W        W 8066   4.976   9.774   2.662
36451W        W 8067  44.920   9.245  12.932
36452W        W 8068  34.414  19.969   2.704
36453W        W 8069  41.319  44.691  10.697
36454W        W 8070   0.347  16.397  12.650
36455W        W 8071  22.078  21.494  13.841
36456W        W 8072  16.013   4.051  11.095
36457W        W 8073   9.452  39.040  11.022
36458W        W 8074  26.141  14.301   5.461
36459W        W 8075  37.614  12.843  11.322
36460W        W 8076  29.436  15.532  12.474
36461W        W 8077   4.320  40.751  11.136
36462W        W 8078  19.714  39.829   3.846
36463W        W 8079   1.270  29.521   3.151
36464W        W 8080  15.142  19.278  13.427
36465W        W 8081  34.343   9.297   0.887
36466W        W 8082  37.118  19.820   3.283
36467W        W 8083  27.233  43.056   4.291
36468W        W 8084  13.203  24.246   4.540
36469W        W 8085  28.751  13.081  14.067
36470W        W 8086  38.309  16.350   0.455
36471W        W 8087  11.649  13.537   4.207
36472W        W 8088  41.635   0.516   0.946
36473W        W 8089   9.832  27.302  12.831
36474W        W 8090  10.924   1.720   2.697
36475W        W 8091  26.358  21.200  11.435
36476W        W 8092   3.210   8.737   0.283
36477W        W 8093   6.478  16.185   1.779
36478W        W 8094  28.122  21.928   4.828
36479W        W 8095  18.527   2.573  11.986
36480W        W 8096  23.511   9.381   1.383
36481W        W 8097  16.041  24.331   4.137
36482W        W 8098  24.495  38.369   1.787
36483W        W 8099  16.181  12.773   3.656
36484W        W 8100   0.747   3.181  12.017
36485W        W 8101  11.258  25.779  14.800
36486W        W 8102  23.479   3.177   3.688
36487W        W 8103  23.042  33.160  12.311
36488W        W 8104  39.974  35.423   2.895
36489W        W 8105   2.761  30.073  12.729
36490W        W 8106   2.840  37.989  13.050
36491W        W 8107  18.133   8.431  12.993
36492W        W 8108  23.782  26.240  14.974
36493W        W 8109  17.478  22.145   0.416
36494W        W 8110  16.639   8.932  14.562
36495W        W 8111  30.822   5.289  13.631
36496W        W 8112  40.831  26.496   0.328
36497W        W 8113  38.977  19.818  10.424
36498W        W 8114  38.058  23.038  12.011
36499W        W 8115   2.761   0.334   1.841
36500W        W 8116   6.384  28.193   0.756
36501W        W 8117  24.875  36.685   5.016
36502W        W 8118  31.422  11.765  13.023
36503W        W 8119  31.403  21.052   0.283
36504W        W 8120  41.736  26.510   2.131
36505W        W 8121  27.658   7.246   2.758
36506W        W 8122  23.335  21.481  11.917
36507W        W 8123  31.126  29.565   2.795
36508W        W 8124  20.713  38.494  13.080
36509W        W 8125   7.357  23.737   0.433
36510W        W 8126  21.238  13.797   2.842
36511W        W 8127   3.154  14.367   0.143
36512W        W 8128  42.867  41.750   2.664
36513W        W 8129  24.767  26.969   3.738
36514W        W 8130  16.790  35.577  11.721
36515W        W 8131  33.744  39.824  11.883
36516W        W 8132  15.594   9.027   4.955
36517W        W 8133  33.556  29.489  13.509
36518W        W 8134  35.612  22.629  12.852
36519W        W 8135   6.694  18.044   2.271
36520W        W 8136  37.028  27.896  12.397
36521W        W 8137  38.324  32.383   4.314
36522W        W 8138  10.888  14.003   3.696
36523W        W 8139   7.282   6.520   2.400
36524W        W 8140  17.352   2.961   4.234
36525W        W 8141  42.454   2.756  13.001
36526W        W 8142  29.271  36.602   3.378
36527W        W 8143   2.406  43.226   0.171
36528W        W 8144  17.322  39.145   1.196
36529W        W 8145   7.439  33.070   0.259
36530W        W 8146  11.375  30.230   1.503
36531W        W 8147  17.035  37.561   1.860
36532W        W 8148  39.606  27.725  13.446
36533W        W 8149  24.350  24.125  11.064
36534W        W 8150   1.497  22.653   4.461
36535W        W 8151   8.199  12.297  11.950
36536W        W 8152  36.595  25.257  10.876
36537W        W 8153  19.222  32.384  13.349
36538W        W 8154  30.567  39.253  11.324
36539W        W 8155  35.344  28.062   2.744
36540W        W 8156  37.343  28.573   4.302
36541W        W 8157   3.335  12.528  13.057
36542W        W 8158  36.397   5.141  10.499
36543W        W 8159  40.255   0.116  11.920
36544W        W 8160   6.777  23.071  12.608
36545W        W 8161  35.359  18.130  12.305
36546W        W 8162   4.499  33.169   0.607
36547W        W 8163  28.346  39.498  13.873
36548W        W 8164  31.163  38.333   1.661
36549W        W 8165   9.670  30.357   1.614
36550W        W 8166  33.688   5.010  12.445
36551W        W 8167   6.182  12.995  10.259
36552W        W 8168   8.314   7.402  11.152
36553W        W 8169  17.016   5.620   2.849
36554W        W 8170  19.766  24.777  13.185
36555W        W 8171  29.543  37.521   1.943
36556W        W 8172  37.657  21.138   3.238
36557W        W 8173  44.091  16.756   0.929
36558W        W 8174  24.953  22.977   0.792
36559W        W 8175  35.514  41.905   1.973
36560W        W 8176  21.600  15.644   2.483
36561W        W 8177  38.991  41.281  11.347
36562W        W 8178   9.289  36.026   3.106
36563W        W 8179  32.605  20.718   1.030
36564W        W 8180   0.497   0.455  11.344
36565W        W 8181  43.692   5.905  12.007
36566W        W 8182  39.928   8.940  13.422
36567W        W 8183  40.809   3.981   3.291
36568W        W 8184  39.538  32.619   1.396
36569W        W 8185  33.912  32.604   0.859
36570W        W 8186  40.756  38.979   1.966
36571W        W 8187   0.648  38.925   4.302
36572W        W 8188  40.484  14.459  13.393
36573W        W 8189  39.262  37.346  14.807
36574W        W 8190  12.849  19.451   0.752
36575W        W 8191  36.876   6.693   4.418
36576W        W 8192  16.529  26.013   3.341
36577W        W 8193  23.357  26.390   0.260
36578W        W 8194  23.516   7.822   1.353
36579W        W 8195   3.062  24.192  10.694
36580W        W 8196  30.968  33.234  13.109
36581W        W 8197   6.185   4.380  14.896
36582W        W 8198  24.595  23.083   1.171
36583W        W 8199  15.991  43.435  13.496
36584W        W 8200  20.369  31.565  10.784
36585W        W 8201  37.482  21.531   3.967
36586W        W 8202  40.265  10.712   2.710
36587W        W 8203  10.268  16.887  11.658
36588W        W 8204  26.039  11.862   2.378
36589W        W 8205  26.135  39.789  11.540
36590W        W 8206  22.554  34.511   3.279
36591W        W 8207   3.212  18.082  10.673
36592W        W 8208  32.190  42.058  11.597
36593W        W 8209  24.704  40.606   2.745
36594W        W 8210  17.266   7.307   0.757
36595W        W 8211  43.762  28.720  14.006
36596W        W 8212  41.917  39.549  11.577
36597W        W 8213  35.947  44.598   3.634
36598W        W 8214   0.262  20.324  11.529
36599W        W 8215  28.993  16.322  10.600
36600W        W 8216  19.731   1.744  10.754
36601W        W 8217  21.102  19.483  11.881
36602W        W 8218  17.811  29.001  11.925
36603W        W 8219  32.126   0.480   3.217
36604W        W 8220  28.665   8.169   1.354
36605W        W 8221  12.214  44.182  13.106
36606W        W 8222  13.148   6.321  14.833
36607W        W 8223  13.738  23.613  11.643
36608W        W 8224  40.044  32.000   2.097
36609W        W 8225  20.650  12.136  12.369
36610W        W 8226  30.684  40.719   2.169
36611W        W 8227  32.852   7.192  11.894
36612W        W 8228  31.228  41.073   0.938
36613W        W 8229  39.452  42.972  14.501
36614W        W 8230  21.483  19.301   0.741
36615W        W 8231  21.275  35.957   3.573
36616W        W 8232  23.933  27.987   5.097
36617W        W 8233  35.794  39.361  11.502
36618W        W 8234  21.804  31.514   4.780
36619W        W 8235   8.684  18.054  11.627
36620W        W 8236   4.687  24.019   0.260
36621W        W 8237  36.485  16.533  14.987
36622W        W 8238  34.176  31.995  12.465
36623W        W 8239  28.048  36.061  13.540
36624W        W 8240   8.303  38.681   0.517
36625W        W 8241  38.362  43.350   1.423
36626W        W 8242  10.739   7.373  11.557
36627W        W 8243  31.901   7.742   4.556
36628W        W 8244   8.609  31.681  14.471
36629W        W 8245  33.463  11.144   2.755
36630W        W 8246  12.420  42.792   4.669
36631W        W 8247  13.346  24.207  13.947
36632W        W 8248  15.359  33.057   2.180
36633W        W 8249  37.130   1.869  13.158
36634W        W 8250  23.040  44.386   3.108
36635W        W 8251   6.824  28.090   4.591
36636W        W 8252  34.922  34.977  12.504
36637W        W 8253  16.633   4.492  11.061
36638W        W 8254   0.437   2.798  14.583
36639W        W 8255   6.230  31.426   0.303
36640W        W 8256  41.475  26.456  14.716
36641W        W 8257  31.360  12.275   1.199
36642W        W 8258  41.718  21.997   0.204
36643W        W 8259  27.566   8.851   1.840
36644W        W 8260  15.717   7.356   4.449
36645W        W 8261  19.570  14.229  14.906
36646W        W 8262  30.675  13.869   1.260
36647W        W 8263  33.482   2.223  12.966
36648W        W 8264  17.075  40.475   3.815
36649W        W 8265  10.568   4.243   4.660
36650W        W 8266  43.906  17.766  13.529
36651W        W 8267  31.399   9.771   2.403
36652W        W 8268  24.133   1.257  14.719
36653W        W 8269  26.188  26.560  11.424
36654W        W 8270  31.635  37.352   1.854
36655W        W 8271  19.868   4.441  13.427
36656W        W 8272   5.170  12.921   1.820
36657W        W 8273  40.299  43.454   0.003
36658W        W 8274  25.228   7.968   2.741
36659W        W 8275  42.355  38.736   1.621
36660W        W 8276  19.222  18.022   1.649
36661W        W 8277  40.095  32.100   1.180
36662W        W 8278  41.489  10.615  12.310
36663W        W 8279  38.478  14.042  13.413
36664W        W 8280  44.025   9.091   1.290
36665W        W 8281  11.502  16.487   4.847
36666W        W 8282  31.407  16.035  12.487
36667W        W 8283  11.136   7.858  13.978
36668W        W 8284  34.007  17.131   1.652
36669W        W 8285  36.611  13.226   0.959
36670W        W 8286  18.956  26.489   0.180
36671W        W 8287  36.570   9.510  11.913
36672W        W 8288  43.284  30.991  10.625
36673W        W 8289  40.712  37.453   4.077
36674W        W 8290  32.518  28.337   1.390
36675W        W 8291  19.098   7.226  12.455
36676W        W 8292  10.572  28.730   4.526
36677W        W 8293  15.241   2.187   1.658
36678W        W 8294  19.648  24.595  11.501
36679W        W 8295   1.787  24.761   0.612
36680W        W 8296  19.193  44.700   2.307
36681W        W 8297   4.516   0.053  12.038
36682W        W 8298  16.535  21.259   0.880
36683W        W 8299   9.251  18.250   0.469
36684W        W 8300  20.695   3.402  14.469
36685W        W 8301  21.278  15.392   1.838
36686W        W 8302  36.689  16.098   2.739
36687W        W 8303  44.792  26.187   4.509
36688W        W 8304  17.871  35.153   1.733
36689W        W 8305  34.005  20.244  12.949
36690W        W 8306  43.367  15.126  14.795
36691W        W 8307  21.769   0.526  14.226
36692W        W 8308  10.482   0.969  13.444
36693W        W 8309  44.269  32.929   1.200
36694W        W 8310  19.661  28.498   4.611
36695W        W 8311  10.411  44.567   3.181
36696W        W 8312   4.300  41.840   2.416
36697W        W 8313  22.196  29.260   3.642
36698W        W 8314  16.332  44.222   1.235
36699W        W 8315  40.487  12.778   4.139
36700W        W 8316  20.712   9.608   2.508
36701W        W 8317  40.871  44.356   3.624
36702W        W 8318  17.349  22.701   1.019
36703W        W 8319  15.781  23.904   1.394
36704W        W 8320  11.790  13.317  13.636
36705W        W 8321   7.302  19.819  11.104
36706W        W 8322  22.903  26.767   4.173
36707W        W 8323  12.592  18.014  12.262
36708W        W 8324  34.540  34.609  12.549
36709W        W 8325   4.438   1.259  12.871
36710W        W 8326  21.624  24.261   1.257
36711W        W 8327  37.311  29.021  11.544
36712W        W 8328  37.918  32.533  14.568
36713W        W 8329  28.126   3.085  14.962
36714W        W 8330   3.788  14.776   2.728
36715W        W 8331  31.619  13.763   0.363
36716W        W 8332   7.704  43.755  10.644
36717W        W 8333  36.443  30.064   0.504
36718W        W 8334  35.635  37.861   0.281
36719W        W 8335  33.540  18.999   2.822
36720W        W 8336  41.003   8.303   3.568
36721W        W 8337  12.581  35.562   4.749
36722W        W 8338  26.078  14.497   2.948
36723W        W 8339  21.270  15.464  14.992
36724W        W 8340  29.370  37.896   4.084
36725W        W 8341  33.827  22.118   0.147
36726W        W 8342  22.165  29.112  13.370
36727W        W 8343  10.666  36.850  14.827
36728W        W 8344  38.505  19.179   4.211
36729W        W 8345  31.163   1.637   5.499
36730W        W 8346   6.979  41.417   4.202
36731W        W 8347  19.501  19.293   0.965
36732W        W 8348  26.027   3.762   4.997
36733W        W 8349  33.034  10.956  13.356
36734W        W 8350  17.815  40.020   4.369
36735W        W 8351   4.395  31.675  14.974
36736W        W 8352   0.881  19.828  12.936
36737W        W 8353  43.057  19.592  14.836
36738W        W 8354  39.487   5.208  14.767
36739W        W 8355  22.755  13.805  13.623
36740W        W 8356  39.814  36.319  12.448
36741W        W 8357   7.978  24.543   1.357
36742W        W 8358  21.528  21.091  13.227
36743W        W 8359  23.348  19.671  14.200
36744W        W 8360  39.982   3.168   2.152
36745W        W 8361   5.460  16.812  14.900
36746W        W 8362  35.253  44.961  14.834
36747W        W 8363  31.410  17.937   0.459
36748W        W 8364  34.385  38.544  14.883
36749W        W 8365   9.684  27.111  11.982
36750W        W 8366  18.215  30.613   4.794
36751W        W 8367  27.227  21.186   1.738
36752W        W 8368  36.314  19.259   0.397
36753W        W 8369  26.083  31.412  13.960
36754W        W 8370  35.072   1.111   3.810
36755W        W 8371  25.463   3.691   2.728
36756W        W 8372   3.388  22.983  10.430
36757W        W 8373  27.177  37.444  12.569
36758W        W 8374  37.077  38.189   0.339
36759W        W 8375  41.580  16.369   4.174
36760W        W 8376  16.803   0.339  10.932
36761W        W 8377  38.493  17.638   0.896
36762W        W 8378  35.075   0.282  10.403
36763W        W 8379  36.795   2.286   1.783
36764W        W 8380   3.879   6.307   1.282
36765W        W 8381  42.272  10.674  11.674
36766W        W 8382  38.239  17.755   2.362
36767W        W 8383  25.524   9.598  13.548
36768W        W 8384  33.377  40.556  10.639
36769W        W 8385  25.535  20.677   4.762
36770W        W 8386  23.481  12.338  11.470
36771W        W 8387  10.482  11.297   1.664
36772W        W 8388   5.954   8.757  13.943
36773W        W 8389  19.648  32.916  14.415
36774W        W 8390  42.246  12.178   0.354
36775W        W 8391  11.984  14.076   5.052
36776W        W 8392   0.476  36.880   2.674
36777W        W 8393  42.119  13.538  11.243
36778W        W 8394   1.226  26.044  12.794
36779W        W 8395  13.273  16.703   2.686
36780W        W 8396  29.981  36.918  11.834
36781W        W 8397  24.043  12.138   2.289
36782W        W 8398  12.710  20.408   1.173
36783W        W 8399  42.756  41.620  13.753
36784W        W 8400  34.621  35.074   2.172
36785W        W 8401  23.297  12.250  13.945
36786W        W 8402  14.770  41.876   1.406
36787W        W 8403  12.856  17.111   1.908
36788W        W 8404  33.639  28.216   4.500
36789W        W 8405  35.032   6.266   0.416
36790W        W 8406  23.552   1.793  12.946
36791W        W 8407  35.693  40.094   1.233
36792W        W 8408  38.809   7.166  11.846
36793W        W 8409  20.202  37.610   3.337
36794W        W 8410  35.207  36.520  11.180
36795W        W 8411  34.859   7.734  12.234
36796W        W 8412  17.216  28.258   1.426
36797W        W 8413  16.807  42.083   1.736
36798W        W 8414  42.021  23.883  11.660
36799W        W 8415   1.514  13.787   1.193
36800W        W 8416  37.394  16.266  11.626
36801W        W 8417  12.833   9.958   0.545
36802W        W 8418  14.119  38.078   3.361
36803W        W 8419   3.869  16.701   2.633
36804W        W 8420   4.177  36.807  12.630
36805W        W 8421   0.507  43.627  11.685
36806W        W 8422  40.231  42.835  11.903
36807W        W 8423   0.802  41.975  14.958
36808W        W 8424  32.244  20.973   5.096
36809W        W 8425  41.710  13.851  13.467
36810W        W 8426  13.121  20.880  10.664
36811W        W 8427  28.801  23.396   3.921
36812W        W 8428   2.267  10.444  11.952
36813W        W 8429  29.970  43.988  14.231
36814W        W 8430  40.353  17.267   1.812
36815W        W 8431  42.001  31.151  11.308
36816W        W 8432  36.375  38.489   4.631
36817W        W 8433   7.346  14.091   0.831
36818W        W 8434   8.936  14.334   2.698
36819W        W 8435   4.979   0.259   2.013
36820W        W 8436  11.700  35.537  10.203
36821W        W 8437  28.565  42.688   0.505
36822W        W 8438  32.566  10.147  13.553
36823W        W 8439   4.333  13.349   3.179
36824W        W 8440  20.196  21.836   0.568
36825W        W 8441   3.737   3.313   3.859
36826W        W 8442  35.996  24.324  12.025
36827W        W 8443  18.235  16.406  11.053
36828W        W 8444  11.690  13.241   1.925
36829W        W 8445   6.309  28.600  13.400
36830W        W 8446  31.246   8.776  12.405
36831W        W 8447  43.847  17.540  12.013
36832W        W 8448   5.370  44.053  13.902
36833W        W 8449  15.819  11.327   2.259
36834W        W 8450  33.473  16.166  14.889
36835W        W 8451  31.052  42.921  13.834
36836W        W 8452  20.203   3.503  13.834
36837W        W 8453  30.059  11.872   3.274
36838W        W 8454  23.204  10.370   1.660
36839W        W 8455  25.386  40.020  14.123
36840W        W 8456  32.458  38.913   0.069
36841W        W 8457  29.678  28.853   2.631
36842W        W 8458  28.050   1.890   2.647
36843W        W 8459  16.629  16.652  12.529
36844W        W 8460   6.257  43.286  12.902
36845W        W 8461  12.905  17.174   4.663
36846W        W 8462  28.956  10.179   2.784
36847W        W 8463  19.732  38.723   2.648
36848W        W 8464  21.634   4.672  11.288
36849W        W 8465  12.595  31.003  10.661
36850W        W 8466  36.055  39.747  12.189
36851W        W 8467  10.125   8.918  13.051
36852W        W 8468  31.433  13.348   4.014
36853W        W 8469   7.482  32.680  13.492
36854W        W 8470  20.748  44.695   0.920
36855W        W 8471  31.459  28.092  12.181
36856W        W 8472   5.697  43.867  12.387
36857W        W 8473  40.451  19.415   4.072
36858W        W 8474  17.115  29.964  14.861
36859W        W 8475   6.177  22.431  10.135
36860W        W 8476  13.080  22.326   4.038
36861W        W 8477  20.662   9.251  12.492
36862W        W 8478  13.537  19.513  12.946
36863W        W 8479   7.787  28.614  12.376
36864W        W 8480  19.256  21.209  11.656
36865W        W 8481  30.816   5.180   3.312
36866W        W 8482  29.738  19.726   4.542
36867W        W 8483  31.122   0.485   2.232
36868W        W 8484  27.676  25.353   0.847
36869W        W 8485  13.193  40.005   4.299
36870W        W 8486  14.762   2.853  11.200
36871W        W 8487   4.960  30.353  11.072
36872W        W 8488  14.710  37.348  10.262
36873W        W 8489  42.995  29.898  12.287
36874W        W 8490  41.378  31.376  12.949
36875W        W 8491  13.672  13.178  11.942
36876W        W 8492   9.052  16.304   3.328
36877W        W 8493  29.600  31.186   0.300
36878W        W 8494  16.342  22.122  14.286
36879W        W 8495   7.584  28.034  12.636
36880W        W 8496  18.674  10.816   1.777
36881W        W 8497  11.834  42.866  13.811
36882W        W 8498  22.486  21.262  14.352
36883W        W 8499  39.519  12.345   0.949
36884W        W 8500  19.639  40.316  13.233
36885W        W 8501  35.686   6.804  12.398
36886W        W 8502  21.682  21.269   4.577
36887W        W 8503   5.053  40.900   2.933
36888W        W 8504  30.630   4.694  12.457
36889W        W 8505  20.674  26.682   5.010
36890W        W 8506  33.898   7.466  11.487
36891W        W 8507  22.052  29.231  11.074
36892W        W 8508  10.432  20.055   3.221
36893W        W 8509  24.717  38.911  12.212
36894W        W 8510   4.371  42.092  13.285
36895W        W 8511  39.428   4.634  14.355
36896W        W 8512  15.078  15.262  13.339
36897W        W 8513  14.991  30.416   4.079
36898W        W 8514  43.811   3.728   0.828
36899W        W 8515  32.140  43.475   1.922
36900W        W 8516  10.863  39.913   2.870
36901W        W 8517  14.089   0.921   0.714
36902W        W 8518  17.384  43.401  10.731
36903W        W 8519  15.090  35.670  14.534
36904W        W 8520  38.296  42.527   2.275
36905W        W 8521  36.430  10.908  14.464
36906W        W 8522  20.577   5.992   4.677
36907W        W 8523  19.845  16.460   0.786
36908W        W 8524   3.010  18.191  11.115
36909W        W 8525  34.651  32.800   1.223
36910W        W 8526   2.021   3.358  12.663
36911W        W 8527  14.562  28.948   1.847
36912W        W 8528  39.397  32.158   2.650
36913W        W 8529  43.060  25.596   3.593
36914W        W 8530  41.457  10.206   4.011
36915W        W 8531  30.623  42.028  12.426
36916W        W 8532   7.378  35.395   2.022
36917W        W 8533   3.056  37.593  12.804
36918W        W 8534  27.590  38.274   2.839
36919W        W 8535  15.691  18.236  14.074
36920W        W 8536  38.501  43.810   1.215
36921W        W 8537  38.380  28.970   0.860
36922W        W 8538  13.925  22.460  14.316
36923W        W 8539  34.371  12.563  12.515
36924W        W 8540  19.683  38.040   0.819
36925W        W 8541  34.061  22.335   1.300
36926W        W 8542  12.585  44.376   2.913
36927W        W 8543  40.378  32.002  11.897
36928W        W 8544   9.224   2.330  10.866
36929W        W 8545  24.087  22.576   3.317
36930W        W 8546   8.219  33.275   4.544
36931W        W 8547   5.307  43.991   5.581
36932W        W 8548  22.952  15.163  10.965
36933W        W 8549  36.628  14.540  13.358
36934W        W 8550  34.377   0.667  11.097
36935W        W 8551   7.462  30.560   4.752
36936W        W 8552  16.735   7.333   2.310
36937W        W 8553  37.663  22.947  11.504
36938W        W 8554  20.627  24.264  13.459
36939W        W 8555  32.000   8.715   3.074
36940W        W 8556  34.549  35.588   0.493
36941W        W 8557  15.016  21.980   1.745
36942W        W 8558  27.165  35.846   0.629
36943W        W 8559  29.180  28.061  14.453
36944W        W 8560  39.313  34.015   3.201
36945W        W 8561   4.824  25.697   2.281
36946W        W 8562  24.040  29.335   3.774
36947W        W 8563   5.201  27.996  13.993
36948W        W 8564   6.236   8.833  13.528
36949W        W 8565  24.073  36.261   1.031
36950W        W 8566  31.408  37.404   0.211
36951W        W 8567   1.378  32.317  13.963
36952W        W 8568  41.644  11.965   5.088
36953W        W 8569   5.035   9.330   4.658
36954W        W 8570  25.722   1.750  13.584
36955W        W 8571  30.913  34.013   1.677
36956W        W 8572  14.386   3.300   3.034
36957W        W 8573  17.128   6.142  11.578
36958W        W 8574  14.653   4.785  10.644
36959W        W 8575   7.940  37.954   3.160
36960W        W 8576  18.523  34.313   4.465
36961W        W 8577  34.564  43.116  14.071
36962W        W 8578   0.874  27.230   4.782
36963W        W 8579  17.150  14.988   1.867
36964W        W 8580  32.492  10.186  10.026
36965W        W 8581  16.100  10.228   3.773
36966W        W 8582   6.802  34.325   0.537
36967W        W 8583  16.647  31.828  11.918
36968W        W 8584  26.582  15.613   4.207
36969W        W 8585  30.874  17.165   0.869
36970W        W 8586   4.362  11.850   1.875
36971W        W 8587  11.881  23.986  10.963
36972W        W 8588  34.565   2.265   1.382
36973W        W 8589  26.517  43.091   4.687
36974W        W 8590  11.258  14.813   3.629
36975W        W 8591   9.168  24.592  14.257
36976W        W 8592   4.846  38.541   3.855
36977W        W 8593  39.066  12.749  11.914
36978W        W 8594  16.150  20.698  13.348
36979W        W 8595   1.350  38.105  12.122
36980W        W 8596  37.836  43.189  13.530
36981W        W 8597  24.201  30.016   2.300
36982W        W 8598  16.561  19.104   1.424
36983W        W 8599   7.521   6.313  10.308
36984W        W 8600  25.541  15.803   4.158
36985W        W 8601  44.034  10.642  13.657
36986W        W 8602  35.877   0.972   4.839
36987W        W 8603  17.433  28.219  10.773
36988W        W 8604  33.583  33.985   2.501
36989W        W 8605  22.151  42.155  13.269
36990W        W 8606  39.360  12.841  11.524
36991W        W 8607   6.129  29.763  10.824
36992W        W 8608   0.479  14.822   4.544
36993W        W 8609  19.069  39.691   0.855
36994W        W 8610  19.590  11.474   4.106
36995W        W 8611  42.255  28.477   4.725
36996W        W 8612  18.526   1.268  12.843
36997W        W 8613  41.524  22.422  11.699
36998W        W 8614   2.325   7.191  13.945
36999W        W 8615  24.466  23.299   2.726
37000W        W 8616   0.035  37.000  12.297
37001W        W 8617  22.514  34.851  14.704
37002W        W 8618  29.534  14.670   2.801
37003W        W 8619   5.895  32.524  14.436
37004W        W 8620  29.523   9.913   0.372
37005W        W 8621   3.437  18.591   0.388
37006W        W 8622  38.754  34.591   2.395
37007W        W 8623  42.906  31.206  14.442
37008W        W 8624  28.998  35.788   0.461
37009W        W 8625   7.035   2.499   3.244
37010W        W 8626  43.555   5.910   0.910
37011W        W 8627  20.213  42.801   4.922
37012W        W 8628  12.880  43.305   0.917
37013W        W 8629  16.684   4.956   4.103
37014W        W 8630  28.260  12.845   3.172
37015W        W 8631   0.865  27.900   3.734
37016W        W 8632  23.053   2.527   1.517
37017W        W 8633  31.540  39.048   0.245
37018W        W 8634   2.455  33.478   2.816
37019W        W 8635  14.870   7.300  12.475
37020W        W 8636  26.929  14.585   0.528
37021W        W 8637  23.477  39.831   1.166
37022W        W 8638   4.380   8.220   4.102
37023W        W 8639  23.535  33.418   3.163
37024W        W 8640  19.104  10.850   1.432
37025W        W 8641   4.462  43.357  11.225
37026W        W 8642  20.015  31.442  11.677
37027W        W 8643  42.087   4.141   4.353
37028W        W 8644  44.250  38.627  13.528
37029W        W 8645  31.979  39.678  12.200
37030W        W 8646  34.265  16.587   4.682
37031W        W 8647  26.453  14.833   1.759
37032W        W 8648  23.163  17.564  13.943
37033W        W 8649   3.240  41.879  11.068
37034W        W 8650  21.783   9.363  13.935
37035W        W 8651  20.336  40.931  13.998
37036W        W 8652  15.373  32.104   0.419
37037W        W 8653  23.835  19.087   3.373
37038W        W 8654   6.323  24.483  11.510
37039W        W 8655  37.621  24.645  13.311
37040W        W 8656  29.585  36.569   4.723
37041W        W 8657   9.666  26.953  12.466
37042W        W 8658  21.050  30.960  14.846
37043W        W 8659  37.518  35.705   4.082
37044W        W 8660  26.418  25.739   0.399
37045W        W 8661  37.902  18.001   4.614
37046W        W 8662  25.973  13.334   9.570
37047W        W 8663  44.698  38.287   0.292
37048W        W 8664  30.339  29.836   0.095
37049W        W 8665  12.128  26.898   3.659
37050W        W 8666   1.898  18.748   2.438
37051W        W 8667   2.964  13.188  14.913
37052W        W 8668  39.867  11.894  14.606
37053W        W 8669  13.743  43.563  13.481
37054W        W 8670  38.030   7.730   1.314
37055W        W 8671  11.213  44.373   1.708
37056W        W 8672  26.114  25.212  13.297
37057W        W 8673  43.131  22.549   2.926
37058W        W 8674  18.674  18.086   4.109
37059W        W 8675   8.652  12.331   3.107
37060W        W 8676  39.719  19.307   1.648
37061W        W 8677  42.481  19.756   0.738
37062W        W 8678  37.855   9.310   4.095
37063W        W 8679   7.215  39.528   3.704
37064W        W 8680  11.888  22.058  13.044
37065W        W 8681  12.150  21.017   4.667
37066W        W 8682  20.459   7.908  13.477
37067W        W 8683  42.171  15.520  13.561
37068W        W 8684  17.644  37.835   1.109
37069W        W 8685  24.291  10.925  11.919
37070W        W 8686  38.268  34.140   2.314
37071W        W 8687  11.571  30.068   3.717
37072W        W 8688  36.544  19.138   4.440
37073W        W 8689  16.335   6.713  12.086
37074W        W 8690  38.967  23.499   1.529
37075W        W 8691  30.902  40.194  12.051
37076W        W 8692  44.747  41.330   0.449
37077W        W 8693  43.816  42.921  10.493
37078W        W 8694   4.669  23.135  10.519
37079W        W 8695   8.150  30.157   3.774
37080W        W 8696  12.663  41.026   1.176
37081W        W 8697  10.638  27.757  13.054
37082W        W 8698  44.713  14.634  13.232
37083W        W 8699  10.634  35.352  12.726
37084W        W 8700  29.986  30.771  12.970
37085W        W 8701  38.891  23.457   3.009
37086W        W 8702  11.630   3.942  14.509
37087W        W 8703  25.687   3.055  11.674
37088W        W 8704  20.296  16.204  14.279
37089W        W 8705  43.970  33.620  12.777
37090W        W 8706   0.270  14.313   3.668
37091W        W 8707  12.452   2.022  12.612
37092W        W 8708  12.095  35.629   0.296
37093W        W 8709  27.434  39.266  11.406
37094W        W 8710   2.014  41.356  13.851
37095W        W 8711  36.325   1.033   2.332
37096W        W 8712  30.056   4.994  12.592
37097W        W 8713  14.164  36.920  14.363
37098W        W 8714  13.160  13.674  12.941
37099W        W 8715  23.861   2.985   4.958
37100W        W 8716  19.298  44.211   0.976
37101W        W 8717  21.173   4.836  14.829
37102W        W 8718  42.760   1.921   1.203
37103W        W 8719  19.562   1.902  13.371
37104W        W 8720  44.548  29.118  13.549
37105W        W 8721  21.966  27.824   1.433
37106W        W 8722   5.408  44.372   3.870
37107W        W 8723  41.421  11.632  12.452
37108W        W 8724  25.562  23.199   3.938
37109W        W 8725  36.017  12.372  14.097
37110W        W 8726   3.701  40.436  10.963
37111W        W 8727  41.408  16.980  14.525
37112W        W 8728  26.514  38.318   0.886
37113W        W 8729  29.468  16.812   2.227
37114W        W 8730  26.503  35.456  14.556
37115W        W 8731  16.743  12.256   3.485
37116W        W 8732   0.745  41.246  11.520
37117W        W 8733  36.456   8.716   0.534
37118W        W 8734   0.980   3.164  10.603
37119W        W 8735   0.776  21.888  12.441
37120W        W 8736   5.563   8.721  12.039
37121W        W 8737  12.495  16.848   1.633
37122W        W 8738  15.456  31.693  10.619
37123W        W 8739  14.817  14.735   3.459
37124W        W 8740   8.753   7.586   0.552
37125W        W 8741  18.096  29.721  12.996
37126W        W 8742  16.570  20.380  13.490
37127W        W 8743  23.635   8.239   4.725
37128W        W 8744  31.447  29.163  13.196
37129W        W 8745   8.767  33.326   4.802
37130W        W 8746  26.563   9.199   1.683
37131W        W 8747   4.274  25.414  10.940
37132W        W 8748  22.073  34.936   1.986
37133W        W 8749  30.589  23.709   0.231
37134W        W 8750  44.353  20.051   3.773
37135W        W 8751  12.325   1.227  13.887
37136W        W 8752  19.081  17.242  11.022
37137W        W 8753  29.636  29.469  12.973
37138W        W 8754  27.681  41.478  10.424
37139W        W 8755  40.341  31.454  12.826
37140W        W 8756  21.780  22.920   2.278
37141W        W 8757  36.302   0.363  13.547
37142W        W 8758  40.833  37.556  12.835
37143W        W 8759   5.749  20.921   4.014
37144W        W 8760  42.306  44.464  11.623
37145W        W 8761  29.982   3.037   1.223
37146W        W 8762  10.045  17.288  13.099
37147W        W 8763  21.260  22.984   1.406
37148W        W 8764  14.205  11.850   1.795
37149W        W 8765  42.270  16.594   2.308
37150W        W 8766  20.601  20.832  13.821
37151W        W 8767  44.865  40.866   1.830
37152W        W 8768  23.554  30.316   1.778
37153W        W 8769  22.425  17.314   2.170
37154W        W 8770  28.914  40.163  11.823
37155W        W 8771  25.915   9.833  11.104
37156W        W 8772  26.340  43.303  13.350
37157W        W 8773  25.395  14.723   5.021
37158W        W 8774   8.737  37.510  13.095
37159W        W 8775  32.795  15.206  13.430
37160W        W 8776  16.771   1.379   3.218
37161W        W 8777   4.168   7.282   4.488
37162W        W 8778  12.638   4.338  12.095
37163W        W 8779   8.228   9.142  10.469
37164W        W 8780   9.856  35.420  11.226
37165W        W 8781   1.211  29.860  12.948
37166W        W 8782   2.316  28.553   3.375
37167W        W 8783   7.832  44.056   3.169
37168W        W 8784  11.787  10.811   2.874
37169W        W 8785   5.249   5.951  13.852
37170W        W 8786  30.924  28.217   4.213
37171W        W 8787  36.618   9.107   1.222
37172W        W 8788  22.069  33.558   0.800
37173W        W 8789  28.522  24.996   1.798
37174W        W 8790  28.381  21.774   1.334
37175W        W 8791  30.587   3.424   0.810
37176W        W 8792  16.603  44.891  13.416
37177W        W 8793   1.526   2.886  13.577
37178W        W 8794  15.679  10.967   3.690
37179W        W 8795  34.059  38.468   3.224
37180W        W 8796  12.696  16.747   0.934
37181W        W 8797  22.394   5.531  11.150
37182W        W 8798  16.286  38.102  11.963
37183W        W 8799  36.334  33.124   0.609
37184W        W 8800  36.333  26.650  12.819
37185W        W 8801  24.073  28.354  12.625
37186W        W 8802  10.660  41.802  13.500
37187W        W 8803  33.929   1.007   1.387
37188W        W 8804   0.343  41.061   1.972
37189W        W 8805  10.043   7.174   3.600
37190W        W 8806   0.474   7.693  10.838
37191W        W 8807   1.985   5.794  13.987
37192W        W 8808  35.779  40.528   3.203
37193W        W 8809  20.757  15.466   2.825
37194W        W 8810  38.361  33.425   4.064
37195W        W 8811  44.932   7.179   1.245
37196W        W 8812  13.252  36.152   1.324
37197W        W 8813  19.699   2.301   2.422
37198W        W 8814  28.147  21.985  10.740
37199W        W 8815  31.492  22.661  13.009
37200W        W 8816   8.121  38.976   0.905
37201W        W 8817  12.406   8.626  14.439
37202W        W 8818  30.883  31.870  10.243
37203W        W 8819  23.498   4.018   3.436
37204W        W 8820  16.846   6.801  12.635
37205W        W 8821   9.683  40.831  11.919
37206W        W 8822   9.974   9.176  11.133
37207W        W 8823   6.156   3.672  12.061
37208W        W 8824  16.672  19.547  11.926
37209W        W 8825  34.336   5.370   4.476
37210W        W 8826  13.072  26.693   0.391
37211W        W 8827  34.787  34.793  12.978
37212W        W 8828  27.641  38.981   1.752
37213W        W 8829   6.410  38.211   1.019
37214W        W 8830  37.473  18.274   2.437
37215W        W 8831  13.874  25.711   4.441
37216W        W 8832  40.789   4.552   1.834
37217W        W 8833  18.597  13.360  12.551
37218W        W 8834  43.964  13.855   2.622
37219W        W 8835  30.110   6.715   1.961
37220W        W 8836  26.444   8.429   3.694
37221W        W 8837  20.069  17.660  14.701
37222W        W 8838   8.010  27.127  13.897
37223W        W 8839   7.945  18.269   0.894
37224W        W 8840  19.153  25.178  14.340
37225W        W 8841  32.076   8.407   2.668
37226W        W 8842   8.227  35.312  14.379
37227W        W 8843  24.531  14.579   2.670
37228W        W 8844  12.458   2.539   1.541
37229W        W 8845  22.879  24.008   2.789
37230W        W 8846  40.353  30.195  13.892
37231W        W 8847  42.440  33.850   1.411
37232W        W 8848  29.527  23.543   4.634
37233W        W 8849   2.210   0.886   3.280
37234W        W 8850   8.687  44.402  12.004
37235W        W 8851  23.699  32.393  13.949
37236W        W 8852  42.574  44.488   4.694
37237W        W 8853   9.894   6.295  12.352
37238W        W 8854  37.983  42.614  14.354
37239W        W 8855  41.130  21.812   3.345
37240W        W 8856  10.399  23.823  11.157
37241W        W 8857  24.472  10.362   3.780
37242W        W 8858   5.201   5.478  14.083
37243W        W 8859  39.385  31.937  11.059
37244W        W 8860  22.951  38.854   0.397
37245W        W 8861   5.940  33.168   3.311
37246W        W 8862   2.410  37.884   4.245
37247W        W 8863  20.667  14.978  11.691
37248W        W 8864  31.028   7.907   3.619
37249W        W 8865  41.850   9.422   1.702
37250W        W 8866  38.799   1.244  12.369
37251W        W 8867   0.383  25.374   0.686
37252W        W 8868  13.810  26.178   4.200
37253W        W 8869  14.767  30.483   3.632
37254W        W 8870  10.850  32.839  12.669
37255W        W 8871   2.823  17.133   1.644
37256W        W 8872   3.271  40.608   0.884
37257W        W 8873  36.183  16.210   2.792
37258W        W 8874  30.671  10.621  11.216
37259W        W 8875  19.892   6.457   0.668
37260W        W 8876  31.867  39.500   1.361
37261W        W 8877  24.543  11.481   3.386
37262W        W 8878  21.752  17.354   0.382
37263W        W 8879  20.668  25.068  12.982
37264W        W 8880   1.062  21.567   1.856
37265W        W 8881   9.699  34.510   1.330
37266W        W 8882  34.613  36.351  11.517
37267W        W 8883   0.861   9.359  11.033
37268W        W 8884  16.295  34.372   1.942
37269W        W 8885   1.377   6.790  14.260
37270W        W 8886   8.147  31.921   4.790
37271W        W 8887  25.444   5.206   0.486
37272W        W 8888  32.433  41.704  14.416
37273W        W 8889  28.050  30.446   2.437
37274W        W 8890   1.942  33.947   3.193
37275W        W 8891   8.919  23.072  11.611
37276W        W 8892  19.413  31.444   4.283
37277W        W 8893  25.550  29.938  10.564
37278W        W 8894  19.542  14.746  13.044
37279W        W 8895  27.322   6.837  11.137
37280W        W 8896  23.561  33.441  12.958
37281W        W 8897  13.644  33.954  11.543
37282W        W 8898   3.951  13.022   2.370
37283W        W 8899  27.543  34.261   4.556
37284W        W 8900   8.849  30.069  11.664
37285W        W 8901  11.790  12.838   2.247
37286W        W 8902   6.646   1.132   4.295
37287W        W 8903   6.563  23.709  11.461
37288W        W 8904  22.370  44.936  10.527
37289W        W 8905  11.811  21.324   3.234
37290W        W 8906   1.472  27.729   1.167
37291W        W 8907   7.643  10.266   3.706
37292W        W 8908  33.817   2.675   2.851
37293W        W 8909   8.233  34.499   3.588
37294W        W 8910  24.723  18.067  13.858
37295W        W 8911   0.855   5.411   2.762
37296W        W 8912  12.663   6.307   1.867
37297W        W 8913  13.157  15.034   3.748
37298W        W 8914  26.471  44.045   3.013
37299W        W 8915  12.611  42.896   1.149
37300W        W 8916  34.750  41.126   0.870
37301W        W 8917  10.281  24.702  10.601
37302W        W 8918   4.781  32.471   0.820
37303W        W 8919   5.454   8.618  11.001
37304W        W 8920  31.063  27.229   5.525
37305W        W 8921  32.611  21.219  13.874
37306W        W 8922   7.722   2.455  14.530
37307W        W 8923  38.874   8.749  13.323
37308W        W 8924   6.773  15.229   0.443
37309W        W 8925  16.136  40.434  11.163
37310W        W 8926  26.206   1.879  10.358
37311W        W 8927  15.809  28.992   2.349
37312W        W 8928  41.759  25.167  11.052
37313W        W 8929   5.586  19.722  14.463
37314W        W 8930   2.638  10.220  12.900
37315W        W 8931  29.719  16.092  13.024
37316W        W 8932  44.803  40.223   0.588
37317W        W 8933  14.246   1.547   4.074
37318W        W 8934  10.658  15.932   3.613
37319W        W 8935  42.847  12.391  14.501
37320W        W 8936  24.841  43.872   1.503
37321W        W 8937  18.891  25.128   2.843
37322W        W 8938  19.780  43.886  10.359
37323W        W 8939  24.192  24.718  11.954
37324W        W 8940  26.338  23.765   3.355
37325W        W 8941  35.582  26.662   1.199
37326W        W 8942  42.649  10.136  14.393
37327W        W 8943   9.633  18.556  12.883
37328W        W 8944   6.093  40.612  14.605
37329W        W 8945  16.839  37.760  13.466
37330W        W 8946  35.164  15.517  10.670
37331W        W 8947  15.309  15.210   2.232
37332W        W 8948  39.952  23.582   4.504
37333W        W 8949  29.536  20.300   0.755
37334W        W 8950  10.207  29.565   3.685
37335W        W 8951  42.870  15.059   0.474
37336W        W 8952  15.360  27.029  12.058
37337W        W 8953  19.258  11.357   4.511
37338W        W 8954  21.126  38.001  11.413
37339W        W 8955  43.214  25.096  13.079
37340W        W 8956   1.751  32.299  11.129
37341W        W 8957  36.201  42.458   1.376
37342W        W 8958   5.237  32.575  11.009
37343W        W 8959   5.914  16.798  14.418
37344W        W 8960  38.514   6.322   2.772
37345W        W 8961  24.229  35.494   1.077
37346W        W 8962  41.665   6.667   2.263
37347W        W 8963  36.794  17.786   4.035
37348W        W 8964  33.166  15.807   4.610
37349W        W 8965  27.635  37.070  11.586
37350W        W 8966  25.973  29.986   3.438
37351W        W 8967  31.862  12.685  11.697
37352W        W 8968  17.874  36.900   3.933
37353W        W 8969  30.039  10.404  12.342
37354W        W 8970  37.952  33.541   0.901
37355W        W 8971   6.278  40.994   0.746
37356W        W 8972  20.570   5.970  13.519
37357W        W 8973   6.340  26.588  10.035
37358W        W 8974   7.820   9.919   3.347
37359W        W 8975   6.364  22.525   1.791
37360W        W 8976  38.115  44.568  12.036
37361W        W 8977  28.412  37.558  12.838
37362W        W 8978   1.396  38.137  13.854
37363W        W 8979  24.242  34.139   1.770
37364W        W 8980  40.428  21.012   1.020
37365W        W 8981  27.706  25.511  12.486
37366W        W 8982  20.308  12.644   1.295
37367W        W 8983  42.513  26.198  11.621
37368W        W 8984  43.458  36.093  14.902
37369W        W 8985  12.823  18.143  14.730
37370W        W 8986  37.953  11.080  14.533
37371W        W 8987  23.502   4.946  11.578
37372W        W 8988   1.990  15.109  14.854
37373W        W 8989  11.949  13.545   2.859
37374W        W 8990  35.435   3.237  11.676
37375W        W 8991  43.452  38.888  10.015
37376W        W 8992  31.441  40.853   0.517
37377W        W 8993  25.991  26.974  12.681
37378W        W 8994  29.707  32.548   0.944
37379W        W 8995   9.254   0.442  11.113
37380W        W 8996  22.516   6.440   2.810
37381W        W 8997  13.133  13.187   2.167
37382W        W 8998   3.787  19.517   1.363
37383W        W 8999  27.844  13.895  13.592
37384W        W 9000  36.154  36.482  10.707
37385W        W 9001   2.054  43.613  11.132
37386W        W 9002  10.187   6.394   0.932
37387W        W 9003  35.003  37.332   1.784
37388W        W 9004  36.345  22.111  11.565
37389W        W 9005  34.087  31.185   4.100
37390W        W 9006  21.441  24.723   0.356
37391W        W 9007  20.596   6.722   0.047
37392W        W 9008  24.691   1.618   4.227
37393W        W 9009  10.694   1.236  10.456
37394W        W 9010   3.829  13.680  11.241
37395W        W 9011  26.742  26.458   3.226
37396W        W 9012  20.459  28.019  13.926
37397W        W 9013  41.994  12.344   3.534
37398W        W 9014  38.061   6.727   4.739
37399W        W 9015  38.880  26.256   2.857
37400W        W 9016  29.913  27.814   9.728
37401W        W 9017   4.739  42.804   0.281
37402W        W 9018  41.556  31.949   2.420
37403W        W 9019  28.423  44.231  14.907
37404W        W 9020   1.512  39.155  11.236
37405W        W 9021  44.239  15.884   0.342
37406W        W 9022  10.149   4.010   3.458
37407W        W 9023  37.535   0.026  14.749
37408W        W 9024   5.491  34.430  10.371
37409W        W 9025  25.617  34.256   2.828
37410W        W 9026  15.524  17.015   2.634
37411W        W 9027  25.556  34.723  10.138
37412W        W 9028  18.071   3.644  10.673
37413W        W 9029  20.294  33.819  12.510
37414W        W 9030  36.029  42.955  13.169
37415W        W 9031  38.619  40.301  11.128
37416W        W 9032  10.611  28.966  13.863
37417W        W 9033  30.655  14.872   2.698
37418W        W 9034   1.484  40.041  13.384
37419W        W 9035   4.811  23.580   4.209
37420W        W 9036  28.071  42.219  11.473
37421W        W 9037  41.328  13.175   1.673
37422W        W 9038  11.760   1.433  10.726
37423W        W 9039  16.199  22.623  11.732
37424W        W 9040   8.167  12.998   4.170
37425W        W 9041   3.643   1.844  14.489
37426W        W 9042  43.836  36.985   1.325
37427W        W 9043  17.186   6.198  10.224
37428W        W 9044  43.069  36.569   0.463
37429W        W 9045  37.627  39.037  13.047
37430W        W 9046  16.353  10.841   2.672
37431W        W 9047  12.758  11.464   3.744
37432W        W 9048  43.845  14.472   1.918
37433W        W 9049  12.494   3.581   1.963
37434W        W 9050  29.942   1.318  13.285
37435W        W 9051   6.909   5.600  14.551
37436W        W 9052   0.891   5.776  14.979
37437W        W 9053   9.171  10.887   0.387
37438W        W 9054  24.001  37.308   1.815
37439W        W 9055   6.935  18.813   0.376
37440W        W 9056  37.900   4.800   2.818
37441W        W 9057  40.572  19.770   2.478
37442W        W 9058  37.435  21.659   4.911
37443W        W 9059   2.607   3.809   1.477
37444W        W 9060   4.264  35.818  11.549
37445W        W 9061  15.644   5.484  12.853
37446W        W 9062  44.657   3.886   2.720
37447W        W 9063  20.060   3.360   3.706
37448W        W 9064   9.892   7.206  14.002
37449W        W 9065  25.416  22.060   2.727
37450W        W 9066  19.971  41.972  10.616
37451W        W 9067  33.668  10.123   4.129
37452W        W 9068  44.687  18.537   0.173
37453W        W 9069  21.092  27.760   1.741
37454W        W 9070  31.321   6.345   1.977
37455W        W 9071  30.736  36.594  12.579
37456W        W 9072   5.251  31.152   0.678
37457W        W 9073  12.625  15.695   0.775
37458W        W 9074  18.056  12.415   1.755
37459W        W 9075   3.746  36.770   0.423
37460W        W 9076  10.165  43.422  13.889
37461W        W 9077  36.986   0.946   4.615
37462W        W 9078   6.429  40.563  12.592
37463W        W 9079  21.205  20.791  12.449
37464W        W 9080  39.061  20.000  14.301
37465W        W 9081  18.480  12.888  12.396
37466W        W 9082  41.342   1.903  14.829
37467W        W 9083  27.587   1.347  12.032
37468W        W 9084  21.847  15.139   3.596
37469W        W 9085  34.539  41.315  13.527
37470W        W 9086   9.654   1.071   0.423
37471W        W 9087  35.327  36.951  14.080
37472W        W 9088  10.772   2.390  11.048
37473W        W 9089  42.317  27.616   1.430
37474W        W 9090  42.607  28.632   3.305
37475W        W 9091  29.956  27.926   2.252
37476W        W 9092  32.546  23.053   1.184
37477W        W 9093  41.983   3.512  12.888
37478W        W 9094  43.997   3.276   3.136
37479W        W 9095  43.904  19.701   1.889
37480W        W 9096  28.936  20.582  12.218
37481W        W 9097  35.834  33.572  12.582
37482W        W 9098  19.589  12.023   2.746
37483W        W 9099  28.238  21.163  11.140
37484W        W 9100  22.400  39.902   4.148
37485W        W 9101   6.213   9.853  13.543
37486W        W 9102  22.238   7.477  13.949
37487W        W 9103  28.238  13.573   0.823
37488W        W 9104  26.180  34.742  13.307
37489W        W 9105  21.096  25.269  10.618
37490W        W 9106   7.153  22.941  13.236
37491W        W 9107  38.367   7.273   3.737
37492W        W 9108  41.274   1.390  11.508
37493W        W 9109  30.084  25.147   0.744
37494W        W 9110  43.747  25.695  14.035
37495W        W 9111  42.234  25.362  11.502
37496W        W 9112  39.989   5.182   2.295
37497W        W 9113  40.300  19.548  13.334
37498W        W 9114   7.215  25.099  13.605
37499W        W 9115  14.448  21.211   0.347
37500W        W 9116  17.208   6.145  12.107
37501W        W 9117  33.036  42.774   1.770
37502W        W 9118   2.952   2.146   1.373
37503W        W 9119  29.198  38.430  11.097
37504W        W 9120   1.794  30.458   0.196
37505W        W 9121  34.488  21.030   3.661
37506W        W 9122   1.724  33.027   3.687
37507W        W 9123  41.347   1.927  11.445
37508W        W 9124  11.950  10.727  12.892
37509W        W 9125   4.374   2.335  12.364
37510W        W 9126  14.847  14.400   2.538
37511W        W 9127  16.268  36.003   4.120
37512W        W 9128  34.014  28.938  14.306
37513W        W 9129   1.263  41.670   0.743
37514W        W 9130   9.801  39.346  13.580
37515W        W 9131  41.242  15.833  13.279
37516W        W 9132  27.402  29.593  12.452
37517W        W 9133   3.338  30.083   2.485
37518W        W 9134  36.834  31.428   0.760
37519W        W 9135   3.028  39.423   0.683
37520W        W 9136   0.786  12.592  10.721
37521W        W 9137  27.669   2.239  13.183
37522W        W 9138  27.562  39.319   0.022
37523W        W 9139  34.805  44.881  10.571
37524W        W 9140  39.693   5.098   1.643
37525W        W 9141  10.376  23.253  13.499
37526W        W 9142   5.858   5.381   1.311
37527W        W 9143  16.816  23.376  13.320
37528W        W 9144  43.131  23.640   4.856
37529W        W 9145  22.526  22.751   5.108
37530W        W 9146  37.302  27.380  12.145
37531W        W 9147   0.818  31.972   0.021
37532W        W 9148   3.667  18.114   4.205
37533W        W 9149  20.957  34.526  12.116
37534W        W 9150  15.448   3.320   3.287
37535W        W 9151  11.732  44.765  11.087
37536W        W 9152  27.203  29.390  10.490
37537W        W 9153   0.599  42.897   1.339
37538W        W 9154  14.297  16.281   1.460
37539W        W 9155  21.482  17.596   2.152
37540W        W 9156  12.117   6.442   2.815
37541W        W 9157   6.635   8.766  11.867
37542W        W 9158  19.567  11.389  12.928
37543W        W 9159  29.130   1.952  12.915
37544W        W 9160  34.358   5.982   2.665
37545W        W 9161   4.232  34.396   4.572
37546W        W 9162   9.115  43.272  14.759
37547W        W 9163   2.489  26.146   0.892
37548W        W 9164   1.527  43.501  14.989
37549W        W 9165  24.104  32.903   2.757
37550W        W 9166   6.243  15.286   1.337
37551W        W 9167   7.330  38.374   2.667
37552W        W 9168  14.680  15.223   3.312
37553W        W 9169  35.373  19.544   0.479
37554W        W 9170  42.438  11.054   3.248
37555W        W 9171  40.502   4.275   2.821
37556W        W 9172  17.561  31.650   4.585
37557W        W 9173  23.465   9.193   0.833
37558W        W 9174  36.108  23.537   1.973
37559W        W 9175  21.812   0.545   3.272
37560W        W 9176  25.835   3.598   0.002
37561W        W 9177  32.160  30.526  10.702
37562W        W 9178  25.225  20.969  14.910
37563W        W 9179   2.882  37.098   2.798
37564W        W 9180  34.287  17.135  11.947
37565W        W 9181  40.987  10.667  12.511
37566W        W 9182   3.371  15.923   3.765
37567W        W 9183  42.506   4.382  14.749
37568W        W 9184  38.059  28.604   1.760
37569W        W 9185  18.559  11.664  12.969
37570W        W 9186  35.584  36.600  13.782
37571W        W 9187  32.660  29.685   0.364
37572W        W 9188   4.637  19.817  14.731
37573W        W 9189  30.764  42.232   3.194
37574W        W 9190  18.323  30.015  11.124
37575W        W 9191   0.451  14.377   2.841
37576W        W 9192  32.678  13.570   4.190
37577W        W 9193  25.203   1.418   3.608
37578W        W 9194   8.638  34.454  14.351
37579W        W 9195  42.081  31.403  13.273
37580W        W 9196  32.680  17.616  11.107
37581W        W 9197  44.865  27.098   4.674
37582W        W 9198  23.203  20.913   3.334
37583W        W 9199  18.845  42.532  10.290
37584W        W 9200  31.273  31.162  13.868
37585W        W 9201  37.490   1.933   0.887
37586W        W 9202   1.920  43.597  10.171
37587W        W 9203  36.136   7.198   2.709
37588W        W 9204  26.808   2.352  12.017
37589W        W 9205   9.824  12.922  14.770
37590W        W 9206  22.775  38.517  11.119
37591W        W 9207  38.097   2.856  12.018
37592W        W 9208   9.220  15.703  11.928
37593W        W 9209  15.734   2.704   3.630
37594W        W 9210  19.098  17.647   1.998
37595W        W 9211  39.117   1.578  14.017
37596W        W 9212  37.235   9.256   1.042
37597W        W 9213  34.116  34.281  12.217
37598W        W 9214  19.694  37.947   4.637
37599W        W 9215  15.510  41.809   0.795
37600W        W 9216  15.279  32.765   4.583
37601W        W 9217   9.160  19.669   1.389
37602W        W 9218   6.930  20.313  11.052
37603W        W 9219  25.546  25.590  10.380
37604W        W 9220  10.620  17.538   0.795
37605W        W 9221  10.208   4.894  11.563
37606W        W 9222   3.744  15.391   4.936
37607W        W 9223   4.438  35.400   4.692
37608W        W 9224   5.731  22.130   1.782
37609W        W 9225   6.228  28.556   1.532
37610W        W 9226  35.967   0.276   1.272
37611W        W 9227  35.429  34.001   4.600
37612W        W 9228  12.769  18.607  14.528
37613W        W 9229  23.138  24.627  10.706
37614W        W 9230  30.112  35.570   1.198
37615W        W 9231  23.927   9.186   1.797
37616W        W 9232  40.659  36.049  14.330
37617W        W 9233  23.564  28.321   2.838
37618W        W 9234  17.221   9.205   0.913
37619W        W 9235   8.827  25.889  14.438
37620W        W 9236  21.400  26.487   4.595
37621W        W 9237  39.265  15.637  10.526
37622W        W 9238  17.665  35.523  14.042
37623W        W 9239  14.823  14.345   3.067
37624W        W 9240  37.448   6.145   3.280
37625W        W 9241  16.655  21.281   1.826
37626W        W 9242  44.033  23.520  14.915
37627W        W 9243   4.903  44.418   0.109
37628W        W 9244  44.827  22.456   1.985
37629W        W 9245   2.555   7.327  14.428
37630W        W 9246  42.819  13.264  11.475
37631W        W 9247  44.813  26.695   2.306
37632W        W 9248   2.259  41.396  13.347
37633W        W 9249  38.596  34.692   0.403
37634W        W 9250  27.576   3.755   1.043
37635W        W 9251  18.137  44.220  11.128
37636W        W 9252   8.132  12.734   2.966
37637W        W 9253  27.055  42.242  11.602
37638W        W 9254  37.040  16.303  10.722
37639W        W 9255   3.362   6.960   1.736
37640W        W 9256  42.710  33.570  14.843
37641W        W 9257  30.274  21.245  13.860
37642W        W 9258  30.016   0.066  10.566
37643W        W 9259  33.797  11.715  12.496
37644W        W 9260  26.345  30.139   4.837
37645W        W 9261  29.139  11.464   4.890
37646W        W 9262   5.967  34.601  13.919
37647W        W 9263  35.662  14.405   2.234
37648W        W 9264   8.400  38.911  14.525
37649W        W 9265  13.203  36.028  12.066
37650W        W 9266   7.154  22.695  11.118
37651W        W 9267  30.456  27.442   2.720
37652W        W 9268   8.339  36.871  10.890
37653W        W 9269  16.198  25.517  10.694
37654W        W 9270  19.322  40.785   1.759
37655W        W 9271  41.999  33.180  12.940
37656W        W 9272  25.220  19.986  10.692
37657W        W 9273  37.542  27.245  11.082
37658W        W 9274  23.611  18.477   3.669
37659W        W 9275  26.848  19.625   3.764
37660W        W 9276  44.862  11.937  14.405
37661W        W 9277   5.724  42.886   0.302
37662W        W 9278   9.734  36.115  13.720
37663W        W 9279  16.617  36.817  10.671
37664W        W 9280  17.170  44.442  14.863
37665W        W 9281  10.763  23.009   2.256
37666W        W 9282  37.845   9.228  14.506
37667W        W 9283  43.546  21.658   2.292
37668W        W 9284  25.596  28.282   3.635
37669W        W 9285  13.456  40.825   2.202
37670W        W 9286   7.276  19.110   2.666
37671W        W 9287   2.412  36.765  14.851
37672W        W 9288  14.200   6.083   3.212
37673W        W 9289   4.751  15.132  13.476
37674W        W 9290   6.510   8.426   4.122
37675W        W 9291  44.250  20.390   3.350
37676W        W 9292   3.571   1.869   3.270
37677W        W 9293  16.128  17.575  12.525
37678W        W 9294   7.188  28.439   0.671
37679W        W 9295  32.984   8.200  13.818
37680W        W 9296   8.252  25.459  10.999
37681W        W 9297  12.316   2.776  10.954
37682W        W 9298  43.957   1.412   3.570
37683W        W 9299  15.761   8.564   2.868
37684W        W 9300   9.843  44.975   1.362
37685W        W 9301  21.904   5.200  13.286
37686W        W 9302  29.614  12.568   1.269
37687W        W 9303  35.342   1.726  11.958
37688W        W 9304  12.396  41.983   0.367
37689W        W 9305  38.243   1.507  11.076
37690W        W 9306  27.234  28.322  10.544
37691W        W 9307  38.400  33.007  11.939
37692W        W 9308  20.966  23.135   0.714
37693W        W 9309  13.073  39.226  11.509
37694W        W 9310   4.443  33.380  11.952
37695W        W 9311  28.081  37.427   5.376
37696W        W 9312  32.653  10.530   2.783
37697W        W 9313  37.848  32.115  10.500
37698W        W 9314  36.886  43.285  12.870
37699W        W 9315   8.301  25.543   3.708
37700W        W 9316  21.967  35.720  12.373
37701W        W 9317  37.829   8.947   3.700
37702W        W 9318   0.370   3.725   0.260
37703W        W 9319  41.612  31.553  13.393
37704W        W 9320  25.071  24.651   4.899
37705W        W 9321  37.038   2.975   4.645
37706W        W 9322  33.623  10.547  11.112
37707W        W 9323  37.917   7.355   2.460
37708W        W 9324  27.996  42.587   4.159
37709W        W 9325   1.871  21.371   1.715
37710W        W 9326  19.774  10.098   3.928
37711W        W 9327  19.748  29.350  12.464
37712W        W 9328  11.459  35.920  10.481
37713W        W 9329  29.050  31.578  10.333
37714W        W 9330  39.344  37.771   4.612
37715W        W 9331  31.010  18.028  10.617
37716W        W 9332  22.307   2.699   1.774
37717W        W 9333  27.733   4.749  12.454
37718W        W 9334  39.508   6.307   2.872
37719W        W 9335  33.219  43.428   0.259
37720W        W 9336  43.498  13.723   3.428
37721W        W 9337  16.777  24.899   1.258
37722W        W 9338  23.036  28.135  13.911
37723W        W 9339   5.928   8.906   1.326
37724W        W 9340  20.561  43.492  14.684
37725W        W 9341  25.687   0.079   1.264
37726W        W 9342  21.763  22.125   0.100
37727W        W 9343  41.830   0.880  11.568
37728W        W 9344  32.008  42.072   3.857
37729W        W 9345  42.562  16.736  12.632
37730W        W 9346  41.309  21.803  14.227
37731W        W 9347   2.777  18.254   3.783
37732W        W 9348  13.146   3.127  12.748
37733W        W 9349  35.410  38.365  12.567
37734W        W 9350   8.049  43.004   2.780
37735W        W 9351  29.154  19.320   0.552
37736W        W 9352  42.981  42.137   3.594
37737W        W 9353  27.030  40.473   4.137
37738W        W 9354  41.994   4.027  13.773
37739W        W 9355  40.895  40.847  11.185
37740W        W 9356  29.967  39.120   3.008
37741W        W 9357   8.123  35.902   0.787
37742W        W 9358  16.548  13.070   1.464
37743W        W 9359  35.434  31.135   4.261
37744W        W 9360  30.595   9.903   2.867
37745W        W 9361   4.396   9.484   4.688
37746W        W 9362  17.784  35.794  12.844
37747W        W 9363  18.664  32.022   9.970
37748W        W 9364  17.368   6.371   5.052
37749W        W 9365  30.194   6.933  11.278
37750W        W 9366   7.458  14.732  14.493
37751W        W 9367   1.925  35.832   0.644
37752W        W 9368   2.870  40.133  14.792
37753W        W 9369   3.724  19.700   3.350
37754W        W 9370   9.211   6.356  10.710
37755W        W 9371  13.094  12.574   0.730
37756W        W 9372  12.250   8.184  11.656
37757W        W 9373   5.405  31.372  11.537
37758W        W 9374  41.287  29.039   2.632
37759W        W 9375  20.771  34.084  12.960
37760W        W 9376  11.394   5.384   3.147
37761W        W 9377  28.651  40.683   2.828
37762W        W 9378  41.314  26.020  12.793
37763W        W 9379  31.421  43.440  14.196
37764W        W 9380   8.860  30.651  11.088
37765W        W 9381   9.438  17.375   0.579
37766W        W 9382  34.420  11.676  13.200
37767W        W 9383   9.211  21.744   3.208
37768W        W 9384  13.071  39.635  12.858
37769W        W 9385  14.652  11.336   1.565
37770W        W 9386  42.936   3.374   4.229
37771W        W 9387  23.159  19.466   0.233
37772W        W 9388  13.250  32.414  12.594
37773W        W 9389  21.380   4.199  11.094
37774W        W 9390  22.796  13.166   0.471
37775W        W 9391  16.495  17.800  13.113
37776W        W 9392   4.624   8.697   4.160
37777W        W 9393  36.796  18.768   4.159
37778W        W 9394  19.331  36.887   1.463
37779W        W 9395  23.932  28.476   3.537
37780W        W 9396   0.721  42.225  12.776
37781W        W 9397  39.106  16.840   1.430
37782W        W 9398   8.410  22.056   2.911
37783W        W 9399  41.786  30.553   5.090
37784W        W 9400  10.200  26.996  11.893
37785W        W 9401   1.255  30.903   4.842
37786W        W 9402  23.359  21.902   3.979
37787W        W 9403  39.475  35.629   2.890
37788W        W 9404  16.129  25.662   3.413
37789W        W 9405  36.809  43.413  10.704
37790W        W 9406  18.137  43.069   2.291
37791W        W 9407  12.328  23.964   1.211
37792W        W 9408  39.505  19.085  12.386
37793W        W 9409  42.570  14.674  11.704
37794W        W 9410  11.377  39.165   4.088
37795W        W 9411  34.168  29.291   4.847
37796W        W 9412   1.833  37.149  12.194
37797W        W 9413  10.268  20.928  13.585
37798W        W 9414  22.728  25.358  14.747
37799W        W 9415  30.972  39.213  10.957
37800W        W 9416  22.231   1.015   3.663
37801W        W 9417  41.838  16.681  10.638
37802W        W 9418  10.409  11.760   0.291
37803W        W 9419   7.329  14.659   1.832
37804W        W 9420  12.397  34.122  12.842
37805W        W 9421  42.231   9.900  12.105
37806W        W 9422  13.272  25.558   4.622
37807W        W 9423  11.909  39.260   3.614
37808W        W 9424   8.324  32.780   4.672
37809W        W 9425  11.883  18.122  14.485
37810W        W 9426  28.253  24.098  14.991
37811W        W 9427  38.344   2.384  12.844
37812W        W 9428   8.327  27.137  14.307
37813W        W 9429  35.772  29.447   1.971
37814W        W 9430  32.390  13.265   2.156
37815W        W 9431   8.456  24.201  12.029
37816W        W 9432  36.462  21.166  12.677
37817W        W 9433  29.615  40.154   3.848
37818W        W 9434  23.222  42.443   0.163
37819W        W 9435  11.623   2.262   3.175
37820W        W 9436  35.425  18.670   4.733
37821W        W 9437  37.865   3.303   3.324
37822W        W 9438  31.402  30.594   0.466
37823W        W 9439  21.074  20.523  14.970
37824W        W 9440  23.665  18.557   1.261
37825W        W 9441  25.768  20.862   2.297
37826W        W 9442  23.259  42.834   2.290
37827W        W 9443  29.908  11.643  11.432
37828W        W 9444  44.472  16.735  12.428
37829W        W 9445   3.009  11.809   3.662
37830W        W 9446  36.309  17.305   4.074
37831W        W 9447  11.342   4.882   4.461
37832W        W 9448  40.291  21.512  10.716
37833W        W 9449   4.526  19.324   2.362
37834W        W 9450   8.150   8.509   1.686
37835W        W 9451  25.102   6.785   4.365
37836W        W 9452  31.519  37.694   4.992
37837W        W 9453  33.414  32.553  13.599
37838W        W 9454  44.511   9.345   1.290
37839W        W 9455  42.768  20.578   0.789
37840W        W 9456  23.946  43.975   4.670
37841W        W 9457  21.271  20.608   3.149
37842W        W 9458  29.060  41.318   4.321
37843W        W 9459  33.666  15.607  13.798
37844W        W 9460  26.106  20.223  13.770
37845W        W 9461  41.436  12.196   1.757
37846W        W 9462  10.574   7.914   3.364
37847W        W 9463  28.689  29.487  11.538
37848W        W 9464  15.803   0.962   0.406
37849W        W 9465   1.196  24.194   4.213
37850W        W 9466   5.766  39.072   4.788
37851W        W 9467   4.245  24.853  13.022
37852W        W 9468  43.514  44.822   1.477
37853W        W 9469  16.317  33.598  13.034
37854W        W 9470  28.652  40.933   4.831
37855W        W 9471  28.615  35.167   1.796
37856W        W 9472  17.778   7.837  14.531
37857W        W 9473  34.578  26.131  11.847
37858W        W 9474   5.787  33.632  11.663
37859W        W 9475   6.965   8.787   0.419
37860W        W 9476  20.565  38.833   1.690
37861W        W 9477  29.166   4.440  12.722
37862W        W 9478  41.918  37.319  14.407
37863W        W 9479  17.013  31.463   0.765
37864W        W 9480  20.308  33.751   3.262
37865W        W 9481  11.225  20.268  10.913
37866W        W 9482  37.444  39.330   2.778
37867W        W 9483  36.343  21.729  14.585
37868W        W 9484  33.235  44.233  14.519
37869W        W 9485  41.432  29.937   3.720
37870W        W 9486  18.770   7.181   1.241
37871W        W 9487  29.037  41.572   0.237
37872W        W 9488   1.428  23.582  10.307
37873W        W 9489  20.225  35.815  14.872
37874W        W 9490  39.786   7.266   3.757
37875W        W 9491  38.980  32.985   4.547
37876W        W 9492   0.927  20.594   0.651
37877W        W 9493  30.679  33.084  12.689
37878W        W 9494  23.005  17.205  11.504
37879W        W 9495  23.284  11.381   1.746
37880W        W 9496  28.171  13.473  12.788
37881W        W 9497  16.014  17.726  14.938
37882W        W 9498   7.593  11.388  11.016
37883W        W 9499  24.899  15.600  11.487
37884W        W 9500  12.313  44.103   3.263
37885W        W 9501  20.393  35.887  10.271
37886W        W 9502  26.506  21.921   1.330
37887W        W 9503  15.495  26.932   0.996
37888W        W 9504  39.297  31.107   2.754
37889W        W 9505   1.716  20.239   0.865
37890W        W 9506  18.522  15.078  12.184
37891W        W 9507   6.250  29.227   2.747
37892W        W 9508  24.484  13.442  14.796
37893W        W 9509  30.136   3.005  14.941
37894W        W 9510  24.260  28.233  12.165
37895W        W 9511  13.819  35.490  13.025
37896W        W 9512   8.938  35.339  14.048
37897W        W 9513  39.438  13.782  10.571
37898W        W 9514  13.323  36.409  12.403
37899W        W 9515  40.095  31.883  14.016
37900W        W 9516   7.933  43.081  12.943
37901W        W 9517  22.922   1.479   4.304
37902W        W 9518  40.451  33.146  12.417
37903W        W 9519  37.157   3.918   4.164
37904W        W 9520  35.967   2.651  14.702
37905W        W 9521  41.903  28.959   4.645
37906W        W 9522  24.486  34.609   1.783
37907W        W 9523  30.508   0.684  14.891
37908W        W 9524  20.027  40.480   2.352
37909W        W 9525   3.866  26.766   0.027
37910W        W 9526  41.925  38.849   1.909
37911W        W 9527  43.808  43.759   3.771
37912W        W 9528  40.291  41.476   4.603
37913W        W 9529  29.993   3.018   3.598
37914W        W 9530  30.604   0.579  11.692
37915W        W 9531  29.594  33.763  10.545
37916W        W 9532   6.328  22.045   2.875
37917W        W 9533  22.456  32.500  11.145
37918W        W 9534  42.509  39.837  10.716
37919W        W 9535  30.720  43.745   4.114
37920W        W 9536   6.743   4.264   1.177
37921W        W 9537  34.507  26.729  14.646
37922W        W 9538   9.620  11.704   2.783
37923W        W 9539  37.943  43.732   2.773
37924W        W 9540   5.474  27.016  14.985
37925W        W 9541  25.739  24.615   0.323
37926W        W 9542  13.402  23.896  13.524
37927W        W 9543  34.224  22.143  10.717
37928W        W 9544   9.813  41.418  13.122
37929W        W 9545  26.113   1.216   2.574
37930W        W 9546  36.061   9.654  11.845
37931W        W 9547  14.154   2.471  14.840
37932W        W 9548  13.825   7.762  13.766
37933W        W 9549  29.576   1.502  11.650
37934W        W 9550  40.836   0.775   1.280
37935W        W 9551  38.580  13.847   1.462
37936W        W 9552   1.684   3.895  10.785
37937W        W 9553  32.994  42.754   4.213
37938W        W 9554  14.788   3.385   0.601
37939W        W 9555  39.403  40.437   3.545
37940W        W 9556  39.945  11.479  14.304
37941W        W 9557  31.011   6.501   2.347
37942W        W 9558  15.225   4.738  12.005
37943W        W 9559  25.325  30.141  12.123
37944W        W 9560  21.259   4.484   2.729
37945W        W 9561  13.845  22.355  13.066
37946W        W 9562  25.132  44.815  12.004
37947W        W 9563  28.149  13.342   3.093
37948W        W 9564  34.423   0.463   1.913
37949W        W 9565  20.179  35.781  14.347
37950W        W 9566  25.476  32.314  14.046
37951W        W 9567  37.614  23.901  13.764
37952W        W 9568  43.760   6.243   0.007
37953W        W 9569  29.801  16.025   2.395
37954W        W 9570  19.581  31.208   1.692
37955W        W 9571  36.835  41.026  14.837
37956W        W 9572   1.823  28.368   1.815
37957W        W 9573   7.143  35.790  12.917
37958W        W 9574  35.030   0.348   1.486
37959W        W 9575  24.194   8.212   2.835
37960W        W 9576  18.942  44.504  10.220
37961W        W 9577  11.120  29.507  10.625
37962W        W 9578  34.025   8.490  12.103
37963W        W 9579  41.918  23.568  14.541
37964W        W 9580  26.779  28.524   1.918
37965W        W 9581   8.629   0.254  13.448
37966W        W 9582  26.435  44.941   1.782
37967W        W 9583  37.719  25.495   0.669
37968W        W 9584  44.395  42.551  12.440
37969W        W 9585  10.394  33.258  11.424
37970W        W 9586  17.185  15.725  14.453
37971W        W 9587   6.763  41.745   3.114
37972W        W 9588  19.222  44.219   4.539
37973W        W 9589   7.621   6.514  12.143
37974W        W 9590  23.045  12.743  10.464
37975W        W 9591   1.557   4.502   3.494
37976W        W 9592  27.503  30.185   0.403
37977W        W 9593  44.592  12.886  10.018
37978W        W 9594  31.380  18.634  12.918
37979W        W 9595  14.057  17.246  11.935
37980W        W 9596  37.315  22.545  10.242
37981W        W 9597  25.523  37.866   4.687
37982W        W 9598  25.523  42.188  12.406
37983W        W 9599  21.764  34.818   2.974
37984W        W 9600  18.559   2.015  11.954
37985W        W 9601  25.724  25.139  12.975
37986W        W 9602   0.799  38.097  14.927
37987W        W 9603  38.879  32.534  11.645
37988W        W 9604  44.920   6.420   2.867
37989W        W 9605  43.252  11.366   4.655
37990W        W 9606  15.788  14.050  10.220
37991W        W 9607   3.116  23.530   4.867
37992W        W 9608  40.041  42.354   4.626
37993W        W 9609  14.874  18.567  13.981
37994W        W 9610   9.034   4.656  12.786
37995W        W 9611  42.149  31.393  11.870
37996W        W 9612  28.968  11.293   1.252
37997W        W 9613  23.144  42.111  14.794
37998W        W 9614   6.194  21.241  10.304
37999W        W 9615   5.274  29.415   4.559
38000W        W 9616   3.398  38.996  11.884
38001W        W 9617  28.514  38.893   2.380
38002W        W 9618   9.106  35.122  12.482
38003W        W 9619  41.187  35.834  14.171
38004W        W 9620   6.688  11.571  14.866
38005W        W 9621   5.034  41.340   2.309
38006W        W 9622  36.495  18.658   2.788
38007W        W 9623  16.171  30.556   4.667
38008W        W 9624  20.169   0.813   4.693
38009W        W 9625  37.520  26.460   4.635
38010W        W 9626   5.440  13.815   1.778
38011W        W 9627  43.875  11.100   0.423
38012W        W 9628  30.920   9.651   0.390
38013W        W 9629  12.215  20.251   0.778
38014W        W 9630  24.719  24.221  14.551
38015W        W 9631  11.898  26.604  13.084
38016W        W 9632   8.429   4.111  10.758
38017W        W 9633  27.002  20.967  10.752
38018W        W 9634   6.755  38.417  10.697
38019W        W 9635  39.511  31.134   0.923
38020W        W 9636  25.011  34.562  12.002
38021W        W 9637  42.436  25.129  13.529
38022W        W 9638  16.352  20.569   3.118
38023W        W 9639  20.623   6.210   3.688
38024W        W 9640  38.283  26.710   0.452
38025W        W 9641   5.601  33.108  12.565
38026W        W 9642   3.399  15.244  13.055
38027W        W 9643  25.090   9.899  12.150
38028W        W 9644   4.429   2.280  14.872
38029W        W 9645   3.211  40.487   2.634
38030W        W 9646   2.951  19.752   3.978
38031W        W 9647  35.487  13.562   1.306
38032W        W 9648   4.083  27.878   0.999
38033W        W 9649  43.951  32.217  11.019
38034W        W 9650  14.626  14.819  12.858
38035W        W 9651  41.252   4.340   3.590
38036W        W 9652  24.241  19.043   1.864
38037W        W 9653  42.936  43.376   0.152
38038W        W 9654  30.543  19.504   1.404
38039W        W 9655  16.160  16.053  14.084
38040W        W 9656  43.389  19.021   4.952
38041W        W 9657  25.042  11.272   4.098
38042W        W 9658  25.944   1.221   4.397
38043W        W 9659  41.275  33.448   4.055
38044W        W 9660  10.893  16.484   4.432
38045W        W 9661  11.307  42.940   1.193
38046W        W 9662  28.159  31.154  13.437
38047W        W 9663   7.404  38.485  12.521
38048W        W 9664  14.497  16.738  10.660
38049W        W 9665  44.841  27.906  10.796
38050W        W 9666   7.794  36.106   2.701
38051W        W 9667  24.747  14.707  13.033
38052W        W 9668  38.319   4.830   1.406
38053W        W 9669   7.641  12.551   1.362
38054W        W 9670  15.777  27.995  13.032
38055W        W 9671  38.424   3.661  11.113
38056W        W 9672  30.340   4.977  12.139
38057W        W 9673  24.004  10.319   0.480
38058W        W 9674   5.893  29.516   0.208
38059W        W 9675   8.696  28.911  12.898
38060W        W 9676  19.507  15.299   1.424
38061W        W 9677  10.070  10.448  10.468
38062W        W 9678   6.449   2.708  11.977
38063W        W 9679  13.639  22.736   0.177
38064W        W 9680  23.273  20.126   3.640
38065W        W 9681   0.385  41.336  12.778
38066W        W 9682  43.961   6.657   1.287
38067W        W 9683  12.817  23.363  13.891
38068W        W 9684   2.464   2.228   0.806
38069W        W 9685  22.998  15.387   0.477
38070W        W 9686  31.688  36.557  14.467
38071W        W 9687  34.809   0.331  14.324
38072W        W 9688   4.266  18.322   2.282
38073W        W 9689   3.320  44.106  14.797
38074W        W 9690  15.153  31.892  14.657
38075W        W 9691   4.665  21.147   3.866
38076W        W 9692   6.398  31.904   0.156
38077W        W 9693  16.228   5.684  11.900
38078W        W 9694   3.453   9.719  11.132
38079W        W 9695  37.162  40.484  14.100
38080W        W 9696  38.332  28.997  11.287
38081W        W 9697   3.487   4.956  14.501
38082W        W 9698   3.727  22.724  13.913
38083W        W 9699  27.010  16.636  12.510
38084W        W 9700  11.944  27.071  12.350
38085W        W 9701   8.595  43.496  14.603
38086W        W 9702   2.679  43.761   0.908
38087W        W 9703  43.789   8.131  11.990
38088W        W 9704  29.319  33.564   3.621
38089W        W 9705  41.549  10.368   2.588
38090W        W 9706  36.955  25.351   4.852
38091W        W 9707  16.247   9.128  11.969
38092W        W 9708  11.620  10.340  13.959
38093W        W 9709  24.005  26.640  14.715
38094W        W 9710  10.845  10.209   1.580
38095W        W 9711  20.761  44.531  13.613
38096W        W 9712  22.870  38.918   4.994
38097W        W 9713  40.833  10.253  12.816
38098W        W 9714  22.069  21.523   0.773
38099W        W 9715  28.184  14.064   4.632
38100W        W 9716  33.314  17.784   4.802
38101W        W 9717  13.359  43.095   0.688
38102W        W 9718  29.615   7.774  11.988
38103W        W 9719   3.289   7.501  14.825
38104W        W 9720   5.315  25.977   2.094
38105W        W 9721  41.336  44.026  14.407
38106W        W 9722  15.621  18.082   0.074
38107W        W 9723   5.691  11.904   4.891
38108W        W 9724   3.315  18.277   2.351
38109W        W 9725  28.470  18.191  10.835
38110W        W 9726  38.027  35.582   4.043
38111W        W 9727  41.370   6.697  14.343
38112W        W 9728  28.431   5.876  12.104
38113W        W 9729   5.628   2.301  12.085
38114W        W 9730  13.856  38.525   3.366
38115W        W 9731  14.711  12.200   2.165
38116W        W 9732  28.270  21.839  11.681
38117W        W 9733  37.828   2.286  11.432
38118W        W 9734  15.835   7.727   3.284
38119W        W 9735  42.486  25.070   1.955
38120W        W 9736  44.520  14.714   2.819
38121W        W 9737  31.284  36.637   4.262
38122W        W 9738   2.802  17.735   2.851
38123W        W 9739  29.956  14.842   0.374
38124W        W 9740  33.740   1.440  11.556
38125W        W 9741  29.001  22.512  10.561
38126W        W 9742  12.052   0.395   2.330
38127W        W 9743  14.104  27.493  14.846
38128W        W 9744  38.765  24.055  11.523
38129W        W 9745  19.275   5.882   0.172
38130W        W 9746   6.218  16.065  11.923
38131W        W 9747  32.007  27.639  11.158
38132W        W 9748  43.406  19.945  12.392
38133W        W 9749  21.585  42.026  11.169
38134W        W 9750  34.001   1.308   1.831
38135W        W 9751  34.504  42.339   4.488
38136W        W 9752  13.167  41.190  13.763
38137W        W 9753  41.703   9.107  13.149
38138W        W 9754  44.985  20.734  11.480
38139W        W 9755   9.608  40.836  12.459
38140W        W 9756  41.372  10.646  10.417
38141W        W 9757  42.568   0.334  14.053
38142W        W 9758  24.732  39.458  11.206
38143W        W 9759  24.650   8.899  13.921
38144W        W 9760  30.986   4.676  14.488
38145W        W 9761  20.408  12.084   2.722
38146W        W 9762  23.992  24.965  11.539
38147W        W 9763  16.169   0.129   3.413
38148W        W 9764  25.962  31.015   2.675
38149W        W 9765   0.247  29.625  12.076
38150W        W 9766   6.243   0.202  11.578
38151W        W 9767  21.722  12.175  13.330
38152W        W 9768  18.311   4.768  12.646
38153W        W 9769  35.035  37.945  12.868
38154W        W 9770  18.045   4.646  13.561
38155W        W 9771  37.304  36.549   3.605
38156W        W 9772   7.447  20.751  11.920
38157W        W 9773  36.955  39.790  10.522
38158W        W 9774  27.667   7.907   2.153
38159W        W 9775   2.306  12.461  11.144
38160W        W 9776  28.671  42.087   1.934
38161W        W 9777   8.357  14.605   3.171
38162W        W 9778  39.890  12.090  10.662
38163W        W 9779  38.845   3.608  10.597
38164W        W 9780  14.298  41.473  14.909
38165W        W 9781   8.786  29.015   4.342
38166W        W 9782  32.111  13.785  14.387
38167W        W 9783  43.061  29.646  14.507
38168W        W 9784  22.670  33.171   0.143
38169W        W 9785   8.177  41.878   1.301
38170W        W 9786   2.094  25.909   4.952
38171W        W 9787  18.578  42.453  14.310
38172W        W 9788  12.258  37.359   2.163
38173W        W 9789  25.352  17.205   4.321
38174W        W 9790  38.090  33.457   1.422
38175W        W 9791  21.934  31.487   1.746
38176W        W 9792   7.398  39.387  12.316
38177W        W 9793   5.796  40.966  14.869
38178W        W 9794  28.823  44.053  13.100
38179W        W 9795   4.811  38.053   3.653
38180W        W 9796   1.527  42.038   1.079
38181W        W 9797  26.758  22.080  14.722
38182W        W 9798  22.060  27.149   2.311
38183W        W 9799   8.162   9.687   2.794
38184W        W 9800  25.802   8.615   3.189
38185W        W 9801  38.505   2.017   2.792
38186W        W 9802  22.801  28.654  12.548
38187W        W 9803   6.922  11.933  10.385
38188W        W 9804   0.847  34.849   2.183
38189W        W 9805  23.955  35.135  14.106
38190W        W 9806  42.925   9.233   4.088
38191W        W 9807  38.987  39.207  10.029
38192W        W 9808   7.674  27.450   4.781
38193W        W 9809  13.176   7.229  10.280
38194W        W 9810  20.833  42.305   3.221
38195W        W 9811  31.458  16.623   3.148
38196W        W 9812  16.462  32.436   4.554
38197W        W 9813  13.277  35.067  10.278
38198W        W 9814  42.232  31.143   2.388
38199W        W 9815  25.307   2.023  13.404
38200W        W 9816   9.657  13.735  14.402
38201W        W 9817  15.756  41.857   4.951
38202W        W 9818  23.681  22.046  14.932
38203W        W 9819  17.464  28.536   1.927
38204W        W 9820  42.528  43.521  12.549
38205W        W 9821   8.763  41.720  12.772
38206W        W 9822  41.946   7.520  10.267
38207W        W 9823  30.495  36.325  12.976
38208W        W 9824  15.564   9.880  13.978
38209W        W 9825  34.457  38.582  11.182
38210W        W 9826   9.114  31.011   1.374
38211W        W 9827  14.905  14.367   4.444
38212W        W 9828  22.770   5.357   3.666
38213W        W 9829  36.333  31.361   0.831
38214W        W 9830   0.983  39.021   0.180
38215W        W 9831  25.988  35.310  14.506
38216W        W 9832  39.541   5.727   2.302
38217W        W 9833  17.855  13.017   3.346
38218W        W 9834  13.781   3.701   9.711
38219W        W 9835   5.904   9.649   4.286
38220W        W 9836  18.615  42.285   2.210
38221W        W 9837  23.117  36.452  13.616
38222W        W 9838   7.419   1.353   4.540
38223W        W 9839   9.782  37.882   0.266
38224W        W 9840  42.986  38.021   5.108
38225W        W 9841  18.856   0.819   2.715
38226W        W 9842   8.650  40.342  11.518
38227W        W 9843  31.011   0.902  14.948
38228W        W 9844   0.864  36.919  10.357
38229W        W 9845   4.477  21.606   1.683
38230W        W 9846  41.549   8.339   2.694
38231W        W 9847  25.642  30.907  10.786
38232W        W 9848  39.422   3.423  12.839
38233W        W 9849  20.488  21.278  12.130
38234W        W 9850  31.061  42.776   4.798
38235W        W 9851  43.354  42.996  13.488
38236W        W 9852  40.369  20.693   4.784
38237W        W 9853  12.607  44.027  14.392
38238W        W 9854  29.196  42.248  14.818
38239W        W 9855   7.296  28.405  13.535
38240W        W 9856   1.484   2.298   2.229
38241W        W 9857  21.623  11.284   3.368
38242W        W 9858   4.276  26.749  11.006
38243W        W 9859  27.225  41.919   1.219
38244W        W 9860  43.927   1.731  13.363
38245W        W 9861  32.030  27.809   0.573
38246W        W 9862  16.135   3.896   2.809
38247W        W 9863   1.553  42.547  13.052
38248W        W 9864  42.854  39.098   3.498
38249W        W 9865  39.970  16.122   0.371
38250W        W 9866  12.712  44.941  14.853
38251W        W 9867  38.629  41.327   1.649
38252W        W 9868  23.277   4.810   4.232
38253W        W 9869  14.884  41.800  12.267
38254W        W 9870  35.456  17.236   2.352
38255W        W 9871  12.185   9.180   0.950
38256W        W 9872  32.891  25.502   1.855
38257W        W 9873  42.196  28.522   0.968
38258W        W 9874  36.615   0.827   1.927
38259W        W 9875  42.068  14.640   0.485
38260W        W 9876  43.813  29.142   4.464
38261W        W 9877  41.408  27.040  12.116
38262W        W 9878  44.418  27.955   2.370
38263W        W 9879  12.765  37.225   2.836
38264W        W 9880   5.210   4.183  14.761
38265W        W 9881  44.672  42.345  10.524
38266W        W 9882  19.208   5.698  14.156
38267W        W 9883  15.197  15.337   1.752
38268W        W 9884   7.337   2.977  14.022
38269W        W 9885   5.653  12.616   0.331
38270W        W 9886  25.487  11.949  10.718
38271W        W 9887   2.442  38.541  11.739
38272W        W 9888   9.565  43.742   2.426
38273W        W 9889  38.944  19.094  10.269
38274W        W 9890  39.368  34.688  14.039
38275W        W 9891  13.672   2.425   0.018
38276W        W 9892   6.193   8.707  10.418
38277W        W 9893  38.416   8.832   0.523
38278W        W 9894  14.104  34.403  12.946
38279W        W 9895   2.846  13.173  10.809
38280W        W 9896  25.607  25.943   3.419
38281W        W 9897   0.946  22.235   1.360
38282W        W 9898  15.858  17.672  12.067
38283W        W 9899  19.283  37.695   0.437
38284W        W 9900  42.933  44.524  13.948
38285W        W 9901  28.484  23.534   0.935
38286W        W 9902  13.452  40.067   2.724
38287W        W 9903  10.717  37.624   2.694
38288W        W 9904  43.085  22.602  11.476
38289W        W 9905  22.369   1.957   3.253
38290W        W 9906  27.623  10.295   1.501
38291W        W 9907  22.485   2.717   0.437
38292W        W 9908  15.722  25.029   2.374
38293W        W 9909  13.747  20.080   0.384
38294W        W 9910   3.603  17.179  10.435
38295W        W 9911  40.198  15.701  14.822
38296W        W 9912   9.898  18.658   2.274
38297W        W 9913  20.724  31.389  11.110
38298W        W 9914  26.231  39.497  10.700
38299W        W 9915  41.358   5.972  11.964
38300W        W 9916   3.247  42.721  13.495
38301W        W 9917  43.403  27.667   4.242
38302W        W 9918  43.736  39.449   4.643
38303W        W 9919  28.788  20.952   0.781
38304W        W 9920  33.990   8.574   2.596
38305W        W 9921  12.172  34.401   1.336
38306W        W 9922   4.731   0.199   3.816
38307W        W 9923   1.452  43.712   9.950
38308W        W 9924  17.243  11.822  12.139
38309W        W 9925  34.377  15.728  11.692
38310W        W 9926  39.340  30.741   2.385
38311W        W 9927  12.637  40.514  11.409
38312W        W 9928   8.471  44.886  11.905
38313W        W 9929  37.382  38.409   4.780
38314W        W 9930  10.841   1.210  11.517
38315W        W 9931  44.436  39.214  12.423
38316W        W 9932  15.584  40.540   1.379
38317W        W 9933  21.566  12.052   0.705
38318W        W 9934  31.186  17.052   3.740
38319W        W 9935   7.240  39.366  14.942
38320W        W 9936  41.781   2.958  12.046
38321W        W 9937  43.326   5.524  11.996
38322W        W 9938  44.009   9.677   4.581
38323W        W 9939  38.973  36.141  10.744
38324W        W 9940  29.401  10.477   0.970
38325W        W 9941  43.382  43.829   3.475
38326W        W 9942  22.257  10.360  11.090
38327W        W 9943  26.960  34.052  14.707
38328W        W 9944  35.839  38.132  12.373
38329W        W 9945  13.707  14.098  11.872
38330W        W 9946  15.182  34.843  11.220
38331W        W 9947  31.107  27.685   0.654
38332W        W 9948  29.108  31.589  12.529
38333W        W 9949   1.945  12.853  11.157
38334W        W 9950  15.176  17.725  14.256
38335W        W 9951   1.542  21.753   1.804
38336W        W 9952  15.202  37.577   4.696
38337W        W 9953  18.646   3.155   1.456
38338W        W 9954  43.920  32.492   2.841
38339W        W 9955  30.126   6.784  11.789
38340W        W 9956  39.163  15.894  14.989
38341W        W 9957  22.521   7.639  11.849
38342W        W 9958  36.110  12.444   1.506
38343W        W 9959  16.697   6.333  10.350
38344W        W 9960  10.869  15.733  11.091
38345W        W 9961  21.534  30.941  14.585
38346W        W 9962   4.626  44.741   4.626
38347W        W 9963   5.660  44.310   2.861
38348W        W 9964  20.849  40.486   2.914
38349W        W 9965   2.164  44.699  11.925
38350W        W 9966  18.624  10.095  14.928
38351W        W 9967  15.487  32.350   4.857
38352W        W 9968  16.544  25.105  14.199
38353W        W 9969  42.009   2.493  12.959
38354W        W 9970   4.645  32.507  12.992
38355W        W 9971  33.617  43.863   5.051
38356W        W 9972  17.675  39.213  14.767
38357W        W 9973   7.538  29.903   0.862
38358W        W 9974  39.584  16.557   3.150
38359W        W 9975   4.540  24.946   4.175
38360W        W 9976  14.272  22.037  13.490
38361W        W 9977   3.041  16.190   1.742
38362W        W 9978   2.677  34.409  11.076
38363W        W 9979   6.499   3.950  12.949
38364W        W 9980  15.210  12.683   4.973
38365W        W 9981  25.943   3.538  11.630
38366W        W 9982  31.976  30.130   1.184
38367W        W 9983  24.107   4.978   2.975
38368W        W 9984  27.609  25.693  14.980
38369W        W 9985  15.568  18.959   2.309
38370W        W 9986  28.113  15.158   4.339
38371W        W 9987   4.781  16.750   0.518
38372W        W 9988  16.529  17.320  12.915
38373W        W 9989  13.971   2.052  11.114
38374W        W 9990  15.817  13.426   4.567
38375W        W 9991  21.915  19.158   0.966
38376W        W 9992   1.173  16.581  13.533
38377W        W 9993  18.485  33.901   1.591
38378W        W 9994  42.568  42.046   0.385
38379W        W 9995   8.146  31.628   0.713
38380W        W 9996  44.588  32.969  12.555
38381W        W 9997  27.169   3.752  13.284
38382W        W 9998  26.224   3.804   3.239
38383W        W 9999   4.739  31.492   4.603
38384W        W10000  40.943   4.706   2.309
38385W        W10001  20.976  24.960   0.323
38386W        W10002  42.423  27.931   3.903
38387W        W10003   2.343  16.000   2.218
38388W        W10004  29.958  41.337   2.220
38389W        W10005  26.972  39.373  11.799
38390W        W10006   0.353  14.729  11.843
38391W        W10007  40.005  21.212  12.066
38392W        W10008  24.620  29.896  14.591
38393W        W10009  20.365  25.496  14.919
38394W        W10010   0.058  42.326   0.556
38395W        W10011  33.127  21.820  13.903
38396W        W10012  37.156  27.897   0.295
38397W        W10013  29.357  19.746  14.365
38398W        W10014   3.220  17.813   1.432
38399W        W10015  22.078   7.595  12.112
38400W        W10016  13.677  14.752  14.594
38401W        W10017  36.831  37.597  11.501
38402W        W10018  19.338  17.764  10.714
38403W        W10019  40.522  10.988   1.306
38404W        W10020  14.110  17.590   5.224
38405W        W10021   4.346  33.976   2.750
38406W        W10022  34.865  42.783   4.456
38407W        W10023  39.906  38.453   2.883
38408W        W10024  38.825  15.301   0.929
38409W        W10025  24.428  37.883  12.462
38410W        W10026   8.212   4.865  13.038
38411W        W10027  35.379  35.720   1.793
38412W        W10028  24.812  18.076  12.044
38413W        W10029  25.443   0.739  14.301
38414W        W10030  20.646  32.664  11.992
38415W        W10031  22.276  15.901  10.610
38416W        W10032  34.427  30.067   4.071
38417W        W10033   8.699   4.978  11.397
38418W        W10034  25.925  13.734   1.395
38419W        W10035  29.517  10.193   2.013
38420W        W10036  23.049   5.274   0.288
38421W        W10037  42.537  24.062   2.388
38422W        W10038   9.096  44.342  14.279
38423W        W10039  43.788  19.078  12.065
38424W        W10040   4.201  21.984   0.891
38425W        W10041  39.698  25.103  14.267
38426W        W10042  22.640  13.742   1.723
38427W        W10043  15.270  14.124  13.965
38428W        W10044  22.075  24.051  14.583
38429W        W10045  10.283  19.112   2.538
38430W        W10046  32.922  23.087   4.593
38431W        W10047  15.714  19.814  12.419
38432W        W10048  33.331  27.000  11.481
38433W        W10049  23.096   9.420  13.487
38434W        W10050  20.960  26.398  11.617
38435W        W10051  25.766  13.139   3.659
38436W        W10052  36.288   2.581  14.307
38437W        W10053  29.711   1.910   2.399
38438W        W10054   4.363  33.257  14.382
38439W        W10055  33.374  32.578   3.840
38440W        W10056  13.939  25.049   3.559
38441W        W10057  10.657  42.517  14.092
38442W        W10058  21.244  35.615  11.093
38443W        W10059  34.508  16.608   1.219
38444W        W10060  24.515  30.049  12.945
38445W        W10061  23.229  27.221  10.586
38446W        W10062  25.488   8.843   4.017
38447W        W10063  13.051  20.655   2.742
38448W        W10064  13.591  25.957   2.891
38449W        W10065  19.261  21.127  13.968
38450W        W10066  22.658   8.368   3.650
38451W        W10067   2.522   7.772  11.490
38452W        W10068   4.776  37.488  11.363
38453W        W10069  35.007  30.633   0.876
38454W        W10070  13.677  24.277  14.362
38455W        W10071   9.831  12.761   1.720
38456W        W10072  33.821   9.294  10.572
38457W        W10073  37.835   4.232   1.785
38458W        W10074  22.677  10.781  12.959
38459W        W10075   3.020  39.924  14.351
38460W        W10076  44.629  11.630   4.048
38461W        W10077  22.285  14.618   4.606
38462W        W10078  26.229  14.873  13.007
38463W        W10079  24.086  12.808   2.664
38464W        W10080  40.931  31.196   4.215
38465W        W10081   3.442   4.311  11.617
38466W        W10082  41.696   0.189   0.091
38467W        W10083  24.197  37.020  12.198
38468W        W10084  36.973   9.896   0.672
38469W        W10085  22.718  22.703  14.632
38470W        W10086  33.567  18.272   0.485
38471W        W10087  19.338  11.610  11.936
38472W        W10088  13.836  40.128   1.208
38473W        W10089  23.363  35.518  12.723
38474W        W10090  26.414  32.641  10.752
38475W        W10091  38.497  10.441   0.415
38476W        W10092  43.934  32.525  12.986
38477W        W10093  22.322  11.332  13.525
38478W        W10094   5.626   7.360   0.476
38479W        W10095   4.455  14.294  12.479
38480W        W10096  11.797   6.620   0.069
38481W        W10097  22.494  18.653   0.748
38482W        W10098  29.271  33.017   3.607
38483W        W10099  26.067   0.204   2.436
38484W        W10100  35.151  44.905   1.756
38485W        W10101   3.157  44.015   4.675
38486W        W10102  27.681  19.985   0.683
38487W        W10103  24.540  41.749  13.913
38488W        W10104  23.140  22.133  12.153
38489W        W10105  31.011  39.537   3.719
38490W        W10106  24.498  35.076  11.543
38491W        W10107  21.073  11.853   0.696
38492W        W10108  21.669  42.296   2.861
38493W        W10109  22.537  25.617   0.946
38494W        W10110  30.676  17.017  11.999
38495W        W10111  22.128  16.213  13.602
38496W        W10112  27.457  41.598   3.284
38497W        W10113  33.879  26.596   3.160
38498W        W10114  28.275  13.283   0.397
38499W        W10115  39.427  27.007   2.819
38500W        W10116  31.545   8.325   4.682
38501W        W10117   2.315  39.443   3.243
38502W        W10118   2.272  33.781   4.157
38503W        W10119  12.811   4.678  14.440
38504W        W10120  16.061  16.554   3.362
38505W        W10121   0.787   2.030   2.731
38506W        W10122  43.909   0.441  12.923
38507W        W10123  33.691  11.590   2.817
38508W        W10124   4.633  30.955   4.489
38509W        W10125  30.986  33.514  12.157
38510W        W10126  23.492  11.429   3.047
38511W        W10127   5.502  18.726   1.633
38512W        W10128  28.401  38.063   2.500
38513W        W10129  19.226  12.203   1.622
38514W        W10130  14.279  17.765   0.422
38515W        W10131  38.386  18.082   1.994
38516W        W10132  20.607  14.847   3.163
38517W        W10133  17.150   9.771  13.085
38518W        W10134  41.207  11.129   0.256
38519W        W10135  10.231  27.342  13.147
38520W        W10136  21.563  36.265   0.809
38521W        W10137  38.275  24.193   1.277
38522W        W10138   2.714  21.192  10.778
38523W        W10139  42.834  20.092   0.523
38524W        W10140  23.214   5.829  11.088
38525W        W10141  17.959   2.658  14.411
38526W        W10142  33.248  12.043  11.941
38527W        W10143  38.304   3.812   2.839
38528W        W10144  12.217  26.526  13.521
38529W        W10145  43.752   6.732  14.795
38530W        W10146   7.786  33.973  14.035
38531W        W10147   7.942  27.983  10.676
38532W        W10148   1.259  16.283   3.818
38533W        W10149  30.565  13.171   1.881
38534W        W10150  41.844   6.180  12.681
38535W        W10151  42.872  43.870   3.665
38536W        W10152  20.486  20.081  10.728
38537W        W10153  10.123  39.583   1.694
38538W        W10154  10.139  21.532   2.796
38539W        W10155  17.059  20.138   0.647
38540W        W10156  32.416  33.612   3.200
38541W        W10157  44.738   9.327   1.754
38542W        W10158  43.797  34.809   3.509
38543W        W10159  14.132  17.777   5.703
38544W        W10160   7.704  38.082  12.674
38545W        W10161  35.003  23.630   1.916
38546W        W10162  32.102  19.751  12.997
38547W        W10163  20.612  20.304  14.884
38548W        W10164  41.130  14.773   0.368
38549W        W10165  42.232  33.491  13.462
38550W        W10166  31.547  35.356  11.629
38551W        W10167  25.052  16.252  13.600
38552W        W10168   4.162  23.188   2.855
38553W        W10169  18.738  37.091  14.839
38554W        W10170  32.908  20.608  10.988
38555W        W10171  19.548  42.435   4.649
38556W        W10172  20.672  31.881  11.057
38557W        W10173  24.176  15.658   4.548
38558W        W10174   5.414  20.531   2.228
38559W        W10175  40.478  38.794   2.584
38560W        W10176  30.962   9.086   2.762
38561W        W10177   9.844  41.414   3.760
38562W        W10178   6.891  20.810   4.598
38563W        W10179  10.143   7.226   0.099
38564W        W10180  15.621   5.964  14.939
38565W        W10181  33.466  32.351   0.978
38566W        W10182  24.172  16.555   1.203
38567W        W10183  28.063  39.775  13.519
38568W        W10184  27.938   0.974  10.413
38569W        W10185   1.681  27.977   4.233
38570W        W10186  35.448  40.843  10.749
38571W        W10187   8.348  12.369   2.686
38572W        W10188  16.060  38.982  11.581
38573W        W10189  18.661  22.971  13.455
38574W        W10190   7.848  16.932  12.038
38575W        W10191  34.964  41.310  14.463
38576W        W10192  21.802   2.994   2.601
38577W        W10193  40.810  10.544  13.411
38578W        W10194   6.414  26.008  10.706
38579W        W10195  25.887  27.438  11.519
38580W        W10196  32.614  40.507  13.487
38581W        W10197  18.106  11.844   2.790
38582W        W10198  26.515  17.523  11.636
38583W        W10199  20.534  17.268   3.360
38584W        W10200  34.561  38.026  13.114
38585W        W10201  37.353  23.818  12.929
38586W        W10202   3.158  31.690   3.812
38587W        W10203  40.339   8.620  13.374
38588W        W10204   1.432  26.451   4.366
38589W        W10205   1.415  13.083  14.999
38590W        W10206  12.360   1.167   1.360
38591W        W10207  39.047  25.528   0.685
38592W        W10208  12.213  21.978   3.671
38593W        W10209   3.451   4.949  11.189
38594W        W10210  39.947  43.369  13.294
38595W        W10211  17.008  40.239  13.085
38596W        W10212  34.654   6.424  11.602
38597W        W10213  14.695  14.082   2.143
38598W        W10214  17.767   3.945   1.870
38599W        W10215  31.389  28.112  13.628
38600W        W10216  30.551   5.656   0.997
38601W        W10217  43.816   0.229   3.229
38602W        W10218  12.407  23.966  14.698
38603W        W10219  33.822  23.493  12.440
38604W        W10220  38.298  29.420   4.798
38605W        W10221  33.857  11.128   1.305
38606W        W10222  20.447  17.257   4.727
38607W        W10223  23.651  13.813   0.739
38608W        W10224  30.448  12.306   1.409
38609W        W10225   5.768  14.698  13.320
38610W        W10226  21.086  20.029  13.836
38611W        W10227  28.597   8.918  10.961
38612W        W10228   3.002   8.875  11.090
38613W        W10229   6.308  39.437  13.065
38614W        W10230  29.569  30.007  10.417
38615W        W10231  26.514  21.139  12.332
38616W        W10232   5.890  40.808   4.139
38617W        W10233  29.909  37.427  11.935
38618W        W10234   9.078  19.064   2.199
38619W        W10235  21.146  21.303  14.314
38620W        W10236  12.849  23.647   0.354
38621W        W10237  32.557  43.372  14.770
38622W        W10238   5.277  21.594  12.823
38623W        W10239  39.785  34.849   0.763
38624W        W10240  35.508  33.088  14.517
38625W        W10241   5.373  43.094   0.957
38626W        W10242   6.363  35.163   2.387
38627W        W10243  25.953  27.167   0.903
38628W        W10244  41.883  37.015  12.416
38629W        W10245  19.624  39.766   0.737
38630W        W10246  40.765  34.993  13.785
38631W        W10247  40.039   8.758   1.314
38632W        W10248  25.063  26.487  12.809
38633W        W10249  13.604   1.247   4.436
38634W        W10250  42.769  33.595  12.572
38635W        W10251  14.616  42.336   4.573
38636W        W10252  33.499  37.531   3.258
38637W        W10253  30.539   8.780  13.660
38638W        W10254  21.535  40.507  11.769
38639W        W10255   1.669   4.046  12.164
38640W        W10256   3.441   1.153  13.741
38641W        W10257  30.009   7.823  13.641
38642W        W10258  42.426   0.535   2.352
38643W        W10259  36.019  21.179  12.970
38644W        W10260  37.540  28.251   0.322
38645W        W10261  33.886   2.308   0.945
38646W        W10262  26.424  17.739  11.182
38647W        W10263  10.727  17.069  12.566
38648W        W10264  41.453  31.140   4.323
38649W        W10265  21.249  23.777   0.009
38650W        W10266  27.733  42.927   2.223
38651W        W10267  10.308  44.717  10.944
38652W        W10268   1.729  34.793  11.388
38653W        W10269   2.985  25.600   3.151
38654W        W10270  29.303  27.111   2.213
38655W        W10271  24.728  35.357  11.152
38656W        W10272   8.359   1.052   1.101
38657W        W10273   2.281  30.112  12.030
38658W        W10274  17.676  13.542   0.213
38659W        W10275  34.393  10.698  14.461
38660W        W10276  16.773  35.303   4.682
38661W        W10277   1.617   4.540   0.780
38662W        W10278  12.611   1.949  11.051
38663W        W10279   2.188  11.822  13.512
38664W        W10280  33.082  21.217   2.363
38665W        W10281  11.061  42.037  13.240
38666W        W10282  18.015  37.071  10.697
38667W        W10283  40.899  32.036  12.066
38668W        W10284   6.004   3.701  13.849
38669W        W10285  11.660  41.652  12.094
38670W        W10286   2.992  36.566   2.865
38671W        W10287   7.701   3.778   0.670
38672W        W10288  13.395  25.916  14.290
38673W        W10289  17.009  43.394   2.714
38674W        W10290  25.052  31.937   1.718
38675W        W10291  42.062  39.543   0.344
38676W        W10292  41.013  10.914   2.452
38677W        W10293   9.743  39.068  11.777
38678W        W10294  44.243  25.957   3.267
38679W        W10295  21.701   4.787  14.937
38680W        W10296  33.374   3.699  11.338
38681W        W10297  44.810  43.924   3.879
38682W        W10298  29.147  28.850  14.931
38683W        W10299   6.424   6.370  11.631
38684W        W10300  43.982   9.421   2.444
38685W        W10301   0.269  24.606   5.272
38686W        W10302  14.910  23.999   1.839
38687W        W10303  26.975  11.835   3.606
38688W        W10304  18.760  17.778   3.626
38689W        W10305  30.245  12.484   0.388
38690W        W10306  36.110  32.974  11.460
38691W        W10307  20.247  22.526   9.931
38692W        W10308   2.966   4.819  13.722
38693W        W10309  39.072   9.493   4.681
38694W        W10310  21.957  14.829   2.727
38695W        W10311  24.577   3.866   3.659
38696W        W10312  16.615  44.503  10.475
38697W        W10313  28.232  26.967   3.573
38698W        W10314   2.286  14.222  13.100
38699W        W10315  32.364  21.214   1.691
38700W        W10316  16.725   2.269   1.286
38701W        W10317  41.189  40.353   2.309
38702W        W10318  42.939  44.441  10.916
38703W        W10319  33.088  34.591  12.769
38704W        W10320  12.279  29.739   4.668
38705W        W10321  31.115   7.278   3.379
38706W        W10322  37.472  10.722   2.811
38707W        W10323  19.816   2.652   0.877
38708W        W10324   6.343  11.020  11.594
38709W        W10325  13.841  16.332  11.172
38710W        W10326  35.626  13.240   0.582
38711W        W10327  34.807  39.801   3.784
38712W        W10328   2.667  24.191  12.512
38713W        W10329  16.080   2.201  11.953
38714W        W10330  42.277  15.316   2.851
38715W        W10331  35.882  28.205   2.811
38716W        W10332  39.491  43.441  13.834
38717W        W10333  44.573   3.318   4.055
38718W        W10334  27.603   0.832   3.282
38719W        W10335  26.893  23.678   2.319
38720W        W10336  36.931   4.720   3.263
38721W        W10337  29.403   3.695  12.380
38722W        W10338  14.176  29.160   0.740
38723W        W10339  33.347  43.778   4.039
38724W        W10340  21.622  31.476  14.502
38725W        W10341  39.448  14.577  14.807
38726W        W10342  38.302  28.660   4.401
38727W        W10343  41.167  20.632   3.710
38728W        W10344   0.482  14.896   2.834
38729W        W10345  40.658  15.541  14.538
38730W        W10346   9.935  44.503   4.897
38731W        W10347  16.566  19.981  12.192
38732W        W10348  36.982  17.444  13.207
38733W        W10349   0.909   1.388   0.746
38734W        W10350   3.343  17.803  13.590
38735W        W10351  17.656  31.532   2.437
38736W        W10352  40.567  39.166  12.604
38737W        W10353  37.934  41.003  10.506
38738W        W10354  23.492  30.583   0.505
38739W        W10355  15.560  33.599  10.925
38740W        W10356   8.098  21.036  12.873
38741W        W10357  32.639  12.211  12.874
38742W        W10358  40.417  26.227   1.531
38743W        W10359  10.123  17.977   4.626
38744W        W10360  37.501  38.195  11.364
38745W        W10361  13.123   9.686   3.196
38746W        W10362   0.834  12.750  11.185
38747W        W10363  23.199  33.936   3.600
38748W        W10364   5.236   0.126   4.589
38749W        W10365  38.285  36.183  11.048
38750W        W10366  23.727   0.454  10.618
38751W        W10367  32.655  42.349  13.439
38752W        W10368  37.044  17.407   3.017
38753W        W10369  14.834  40.233   3.888
38754W        W10370  24.723  17.644   1.266
38755W        W10371  29.364   0.357  13.515
38756W        W10372  23.216  35.364   0.750
38757W        W10373  11.807  17.313   0.769
38758W        W10374  20.188   6.803  13.239
38759W        W10375   5.297  39.597  13.385
38760W        W10376  28.233  10.804   0.969
38761W        W10377  35.058  26.708  14.881
38762W        W10378   5.122  13.600  12.185
38763W        W10379  33.296  17.164   1.368
38764W        W10380  34.136   1.791  11.548
38765W        W10381   0.799  29.634   0.275
38766W        W10382  34.150   3.486   0.506
38767W        W10383  38.327  43.695  11.153
38768W        W10384  44.926  41.503  12.089
38769W        W10385   2.470  21.498   3.598
38770W        W10386  17.633  39.008   0.785
38771W        W10387  41.309  25.888  14.066
38772W        W10388  30.971  41.382  13.026
38773W        W10389  21.317  15.929   1.831
38774W        W10390  26.152  29.906  11.245
38775W        W10391  43.777  44.724   3.326
38776W        W10392  28.694  41.164   3.775
38777W        W10393   3.404  22.967  13.330
38778W        W10394  23.191  37.850  11.559
38779W        W10395   9.142   7.289   0.806
38780W        W10396  18.971  23.174   3.580
38781W        W10397  26.011   2.752   4.029
38782W        W10398  16.349  11.839  14.363
38783W        W10399  32.431  40.383  14.469
38784W        W10400   4.326  25.502  12.244
38785W        W10401  20.748  44.241  10.491
38786W        W10402  24.661  37.998  14.983
38787W        W10403   5.891  20.062   2.257
38788W        W10404  35.900  10.913  12.490
38789W        W10405   7.688  27.862  14.491
38790W        W10406  16.676  16.748  14.621
38791W        W10407  33.384  19.998  11.443
38792W        W10408  31.796   0.231  11.683
38793W        W10409  41.737   8.662   3.357
38794W        W10410  24.248  20.709  10.356
38795W        W10411  14.079  10.745  13.327
38796W        W10412  27.599  18.319   4.351
38797W        W10413  30.979  25.742   2.302
38798W        W10414  17.321   0.432  11.008
38799W        W10415   8.927  31.505  13.153
38800W        W10416  40.999   1.802   0.377
38801W        W10417  37.377   8.487  10.769
38802W        W10418  29.266  16.153   5.113
38803W        W10419  43.399  44.817  14.886
38804W        W10420  35.033  38.935  11.488
38805W        W10421   0.968  24.234  12.021
38806W        W10422   8.175  18.233  10.953
38807W        W10423  40.528  23.312  13.965
38808W        W10424   1.984  36.561  14.011
38809W        W10425  35.011  44.715   3.640
38810W        W10426  29.790  30.726   0.470
38811W        W10427  18.989  24.615   1.798
38812W        W10428  24.680  12.553  12.201
38813W        W10429   9.922   4.505  10.727
38814W        W10430  35.151   3.412   0.327
38815W        W10431   3.938   9.893   1.716
38816W        W10432  42.508  22.153  11.971
38817W        W10433  26.196  29.894  14.856
38818W        W10434  42.983  40.595   0.460
38819W        W10435  29.444  41.550   3.212
38820W        W10436  21.624  15.560  14.013
38821W        W10437  36.118  32.744  12.372
38822W        W10438  15.950  41.112  11.623
38823W        W10439   2.934  10.832   3.671
38824W        W10440  35.891  20.677  12.000
38825W        W10441  38.324  26.694   2.141
38826W        W10442   4.963  36.964   1.352
38827W        W10443   5.554  12.549  11.902
38828W        W10444  32.834   1.666  11.507
38829W        W10445  36.793  15.635   1.892
38830W        W10446  21.626  14.800   1.315
38831W        W10447  13.522   4.735  13.339
38832W        W10448  31.101  23.705   4.693
38833W        W10449  40.444  16.732  13.859
38834W        W10450   9.694  38.293  13.427
38835W        W10451  39.834   2.427  13.746
38836W        W10452  41.998  34.570  10.540
38837W        W10453   1.816  38.719  13.325
38838W        W10454   4.127  23.410   2.370
38839W        W10455  31.192  10.457  10.302
38840W        W10456  33.585  30.908  14.334
38841W        W10457   3.030   3.499  10.762
38842W        W10458   5.169  23.060  12.628
38843W        W10459  41.831   4.136   2.047
38844W        W10460  44.788  41.824  13.446
38845W        W10461  15.656  26.193  13.573
38846W        W10462  30.400   7.235  14.519
38847W        W10463  30.024  27.885  11.083
38848W        W10464  40.413  26.988   4.518
38849W        W10465   3.851  31.087   1.420
38850W        W10466  30.020   5.851   3.601
38851W        W10467  44.228   7.357  14.465
38852W        W10468   8.895  18.236   4.548
38853W        W10469  29.078  39.267   0.824
38854W        W10470  38.026  19.445   5.028
38855W        W10471   9.122  24.200   4.288
38856W        W10472  23.007  12.145   2.190
38857W        W10473  33.723   2.732   3.546
38858W        W10474   2.330  25.937   3.220
38859W        W10475  42.478  39.747   1.728
38860W        W10476  31.817  23.246   3.712
38861W        W10477  44.884  21.913   3.239
38862W        W10478  11.364  36.397   2.253
38863W        W10479  31.857   8.979   3.490
38864W        W10480  18.301   5.385  12.964
38865W        W10481  25.182  33.111  14.763
38866W        W10482  19.651  43.205   0.796
38867W        W10483  19.727  16.109  13.203
38868W        W10484   0.420  37.696  12.884
38869W        W10485   2.887  31.458   0.424
38870W        W10486  37.366   9.027   0.115
38871W        W10487   1.158  19.835   4.997
38872W        W10488  44.781  25.407   4.025
38873W        W10489  17.344  39.560  12.572
38874W        W10490  13.206   5.709   3.292
38875W        W10491  33.501  18.117  13.624
38876W        W10492   8.073   4.540  10.735
38877W        W10493   6.307  44.948   2.832
38878W        W10494  28.127  43.584  13.474
38879W        W10495  29.543  27.508   3.324
38880W        W10496  22.776  31.626  12.396
38881W        W10497  38.795  17.522  11.148
38882W        W10498  20.771   3.775   1.782
38883W        W10499  23.307   4.677   3.439
38884W        W10500  22.782  27.919   2.390
38885W        W10501  35.005  34.157  13.393
38886W        W10502  21.960  44.785  13.394
38887W        W10503   8.262  16.181  12.896
38888W        W10504   3.141  16.259  11.726
38889W        W10505   5.803  41.209  13.557
38890W        W10506  19.728  43.298   1.298
38891W        W10507  23.004  27.180  12.365
38892W        W10508   5.811  18.729   2.918
38893W        W10509  42.486  33.184   2.959
38894W        W10510   8.682  41.294   0.465
38895W        W10511   4.876   5.379  10.324
38896W        W10512   8.807  33.030  12.127
38897W        W10513   8.205   0.973   1.581
38898W        W10514  23.982  15.687   2.737
38899W        W10515   4.755   7.636  13.964
38900W        W10516  10.660   9.195  14.928
38901W        W10517  10.140  34.659   0.242
38902W        W10518  29.445  43.795  13.623
38903W        W10519   7.552  34.482   2.343
38904W        W10520  32.510  19.342   2.121
38905W        W10521  25.562   3.789   2.211
38906W        W10522  33.860  42.955   4.364
38907W        W10523  34.375   5.692  14.558
38908W        W10524  25.587  40.855  13.957
38909W        W10525   5.584  37.305  14.344
38910W        W10526  20.899   5.359  13.541
38911W        W10527  18.721   7.360  13.852
38912W        W10528  33.417  12.750  12.731
38913W        W10529  41.350   8.479   2.233
38914W        W10530   5.259  16.689  10.709
38915W        W10531  30.879  13.820  14.912
38916W        W10532  37.732   6.840  12.262
38917W        W10533  32.655  12.755   3.576
38918W        W10534  42.130   5.889   1.270
38919W        W10535  27.539  42.813   1.374
38920W        W10536  13.675  27.911   3.653
38921W        W10537  33.207   2.656   2.749
38922W        W10538   9.121  34.202   3.659
38923W        W10539  24.001  33.676  10.203
38924W        W10540  39.963   4.236   4.078
38925W        W10541   1.536  36.745   0.365
38926W        W10542  13.842  33.067   4.507
38927W        W10543   4.924  23.072  14.878
38928W        W10544  12.352  34.249   2.257
38929W        W10545  16.462  26.970  14.019
38930W        W10546  25.978  21.265  12.871
38931W        W10547  42.856  20.703  11.679
38932W        W10548  14.006  39.961   4.954
38933W        W10549   9.012  30.728  10.175
38934W        W10550  38.725  18.175   0.995
38935W        W10551  29.905   3.386  10.696
38936W        W10552   2.772  30.389   1.247
38937W        W10553  24.034  28.851  14.361
38938W        W10554  35.430  31.550   1.949
38939W        W10555  33.907  23.651  13.838
38940W        W10556  25.542  28.281   1.178
38941W        W10557  41.334   2.652   2.350
38942W        W10558  29.321  11.787   5.428
38943W        W10559  10.924   4.311   3.444
38944W        W10560  21.648  14.996  12.773
38945W        W10561  24.116  43.595   3.872
38946W        W10562  12.215  30.109   1.250
38947W        W10563   4.942  15.274   0.986
38948W        W10564  37.584  24.656   0.947
38949W        W10565   4.792  26.140  10.643
38950W        W10566  44.200   3.771   4.796
38951W        W10567  32.628  24.008   1.256
38952W        W10568   1.321  42.764   5.067
38953W        W10569  37.317   4.916  11.624
38954W        W10570  30.456  29.559  14.077
38955W        W10571  22.737  12.191   0.361
38956W        W10572  19.481  38.429   1.097
38957W        W10573   5.240  37.803   0.160
38958W        W10574  13.741  40.750   0.400
38959W        W10575  15.116  29.529   2.654
38960W        W10576  39.897  16.982   0.095
38961W        W10577  12.926  29.460   1.248
38962W        W10578   2.770  38.766   3.757
38963W        W10579  18.657   3.879   3.782
38964W        W10580   8.881  34.021   3.150
38965W        W10581  28.117  22.901   4.579
38966W        W10582   8.392  30.896   0.145
38967W        W10583  37.587  40.277   2.719
38968W        W10584  37.928  28.698  13.591
38969W        W10585  14.546  16.144  13.256
38970W        W10586   1.460  14.081  13.910
38971W        W10587   2.807   7.308  14.923
38972W        W10588  40.465  19.461  12.124
38973W        W10589  39.520  13.445   0.954
38974W        W10590  34.460  35.924   0.875
38975W        W10591  16.128  28.245   1.881
38976W        W10592  36.321  29.937  12.609
38977W        W10593  17.775  21.968  13.540
38978W        W10594   4.140  43.854  10.555
38979W        W10595  20.761   1.447   4.806
38980W        W10596  21.756   0.492   0.223
38981W        W10597  15.017  23.964  13.547
38982W        W10598  19.227  29.599  13.024
38983W        W10599  25.708   0.823   2.397
38984W        W10600  11.640   9.071  13.661
38985W        W10601   3.722  34.102  12.988
38986W        W10602   8.977  16.866  11.516
38987W        W10603  40.010  33.267   4.470
38988W        W10604  14.753   4.552  12.115
38989W        W10605  28.791   1.883  12.488
38990W        W10606  33.586  29.534  11.254
38991W        W10607  13.681   0.838  11.669
38992W        W10608  37.405  24.392  13.743
38993W        W10609   8.700  26.574  12.543
38994W        W10610  34.500  24.624  11.021
38995W        W10611  43.923  20.077  10.905
38996W        W10612  43.024  34.041  11.883
38997W        W10613  10.110  24.104   4.116
38998W        W10614  16.767  42.119  13.017
38999W        W10615  18.195   1.496  12.525
39000W        W10616  14.021  38.859  11.638
39001W        W10617  33.963  24.594   4.661
39002W        W10618  41.626  27.623  11.480
39003W        W10619   2.179  30.986  11.739
39004W        W10620  15.748   5.290   2.148
39005W        W10621   0.347  27.660  11.603
39006W        W10622  27.376  12.589  12.092
39007W        W10623   9.085  35.129  11.632
39008W        W10624   9.249   2.465  14.839
39009W        W10625   8.528  13.227   0.256
39010W        W10626  14.218  44.021  13.965
39011W        W10627  15.650  13.519   2.863
39012W        W10628   1.790   6.847   1.788
39013W        W10629   7.873  22.491   4.167
39014W        W10630   3.771  28.536   3.406
39015W        W10631   4.508  33.420   3.963
39016W        W10632  30.004  13.682   4.931
39017W        W10633  19.870  11.311  10.030
39018W        W10634  23.841  16.254  12.840
39019W        W10635  37.552  24.681   4.561
39020W        W10636  37.912  33.695   4.655
39021W        W10637  16.336  17.245   0.303
39022W        W10638  32.956  41.353   3.452
39023W        W10639  40.950   1.909  14.016
39024W        W10640  10.434   8.813   4.541
39025W        W10641   9.139  23.046  12.120
39026W        W10642  39.556  18.072  11.521
39027W        W10643  10.610  14.693  11.277
39028W        W10644  28.861  33.275  12.020
39029W        W10645   3.258  42.014  13.935
39030W        W10646  16.860  39.372  11.371
39031W        W10647  32.701  23.190  12.963
39032W        W10648  43.938   4.185   2.128
39033W        W10649  41.205   0.979   1.611
39034W        W10650  21.052   5.903  14.007
39035W        W10651   5.488   4.856   3.262
39036W        W10652  20.528  10.316   4.117
39037W        W10653   7.518  22.264   2.370
39038W        W10654  16.242  35.806  14.725
39039W        W10655  29.833  16.013   0.946
39040W        W10656  35.997   8.124   4.011
39041W        W10657  41.119   3.475   0.422
39042W        W10658   1.527  36.494  12.207
39043W        W10659  12.833   4.936  12.330
39044W        W10660  37.823  20.628   2.300
39045W        W10661   6.392  15.492  11.130
39046W        W10662   5.565  36.323  11.570
39047W        W10663  14.979  36.185  10.446
39048W        W10664  34.691  33.398  11.156
39049W        W10665  28.959  24.699   2.391
39050W        W10666   0.647  42.830   2.346
39051W        W10667  43.685  28.654   1.289
39052W        W10668  28.180  24.669  12.086
39053W        W10669  35.841  18.122  13.426
39054W        W10670   7.946  24.146  11.154
39055W        W10671   9.360  16.506  11.592
39056W        W10672  23.257   2.704  11.102
39057W        W10673  43.953  43.448   0.423
39058W        W10674   0.383  11.810  12.232
39059W        W10675  22.507  43.961   4.786
39060W        W10676  43.961  43.791  10.372
39061W        W10677  15.881  27.560  14.264
39062W        W10678  20.058  24.423   2.948
39063W        W10679  15.589  15.707  12.529
39064W        W10680  24.653  21.276  13.000
39065W        W10681  29.581  15.683  14.852
39066W        W10682  23.629  24.443  10.661
39067W        W10683  39.559  34.535  11.467
39068W        W10684  42.894  25.688   1.408
39069W        W10685  27.308  17.799  12.389
39070W        W10686  32.853   5.318   0.040
39071W        W10687  28.888  41.962  11.685
39072W        W10688  41.425  13.625   1.934
39073W        W10689   2.943   8.345  12.452
39074W        W10690  15.759  37.809   2.685
39075W        W10691  24.991  29.426  12.606
39076W        W10692  41.769   5.645  11.877
39077W        W10693   7.355  30.325   1.139
39078W        W10694   0.537  23.814  11.458
39079W        W10695  27.984  34.871  10.546
39080W        W10696  20.167   8.294   4.660
39081W        W10697   5.402  34.414  14.845
39082W        W10698   7.420   5.370  11.465
39083W        W10699  35.788   2.786   2.362
39084W        W10700  39.477  41.566  12.141
39085W        W10701  10.773   8.366  10.745
39086W        W10702  35.887  34.356   2.273
39087W        W10703  12.059  19.832   0.383
39088W        W10704  42.716  39.705  11.246
39089W        W10705  39.635  33.468   2.376
39090W        W10706  14.728  36.464   1.723
39091W        W10707  14.803  25.336   3.671
39092W        W10708  43.974  33.152   2.373
39093W        W10709   5.245   1.731  13.594
39094W        W10710  16.930  42.288   3.780
39095W        W10711  18.634  10.223   4.504
39096W        W10712  21.217  10.146  13.916
39097W        W10713   4.762  16.429   4.623
39098W        W10714  29.047   0.494  12.902
39099W        W10715  26.157  21.734   0.437
39100W        W10716   5.981   3.584   0.941
39101W        W10717  23.214  18.647   2.291
39102W        W10718  20.189   0.729  12.468
39103W        W10719   1.678  29.115   1.446
39104W        W10720  25.104  38.417   2.285
39105W        W10721  33.135  21.649  11.052
39106W        W10722  44.933  32.567   0.863
39107W        W10723   2.772  20.272  10.739
39108W        W10724   9.903  27.265  11.542
39109W        W10725  41.392  35.299   0.146
39110W        W10726  10.263  21.465  13.542
39111W        W10727   1.252  11.675   0.303
39112W        W10728  38.744   5.386   1.685
39113W        W10729  39.526  12.699   2.806
39114W        W10730  40.949  10.877  11.523
39115W        W10731  28.709   4.236   0.367
39116W        W10732   0.025  33.445   1.009
39117W        W10733  11.775  10.675   1.905
39118W        W10734   7.798  40.535   2.872
39119W        W10735  11.794  36.902   1.462
39120W        W10736  32.516  12.594   2.718
39121W        W10737  43.808  29.158   3.954
39122W        W10738  31.791  42.428  12.998
39123W        W10739  36.872  43.347   0.765
39124W        W10740  26.232   4.809  14.899
39125W        W10741   0.573  22.139   5.256
39126W        W10742  14.138  41.019   0.162
39127W        W10743  34.905  29.953  14.483
39128W        W10744  24.035  23.532  14.971
39129W        W10745  15.813  15.789   9.826
39130W        W10746  32.886  43.713  10.033
39131W        W10747  38.791  31.346   4.907
39132W        W10748   3.261  13.268   2.599
39133W        W10749  11.195  15.693   1.897
39134W        W10750  24.950   0.595   3.701
39135W        W10751   7.491  21.725  12.203
39136W        W10752  33.129  43.097   2.155
39137W        W10753  34.532  34.961   1.178
39138W        W10754  12.265   8.589   3.358
39139W        W10755  14.561  44.917   1.311
39140W        W10756  11.424  14.125   1.309
39141W        W10757  10.193  34.027  11.629
39142W        W10758   5.749   6.152  11.820
39143W        W10759  37.520  40.278   2.187
39144W        W10760  24.245  16.069  14.422
39145W        W10761   1.729  42.103  13.244
39146W        W10762  33.539   6.129  13.358
39147W        W10763   8.307  22.733  14.817
39148W        W10764  12.744  24.048   4.374
39149W        W10765  13.568  18.596  11.267
39150W        W10766  31.490  21.580   1.489
39151W        W10767   8.177  44.887   3.722
39152W        W10768  25.425  44.871  12.810
39153W        W10769  27.779  20.737   0.246
39154W        W10770  22.750   2.242  11.746
39155W        W10771   8.167  14.814  14.068
39156W        W10772   4.937  22.236  14.223
39157W        W10773  25.643  24.117   0.585
39158W        W10774  12.625   5.986   9.769
39159W        W10775  23.430  20.455  12.871
39160W        W10776  39.042  29.196   0.379
39161W        W10777  25.412  34.936   2.437
39162W        W10778  42.305   5.669   3.589
39163W        W10779   4.872  22.547   0.125
39164W        W10780  30.465   1.431  13.299
39165W        W10781  26.889   7.679  14.344
39166W        W10782  29.149  30.067  12.397
39167W        W10783  39.800   1.417   2.518
39168W        W10784  30.671  21.637  14.091
39169W        W10785   0.189   6.754   0.959
39170W        W10786  42.960  19.575   3.670
39171W        W10787   6.960  22.013  14.812
39172W        W10788  22.435  21.768  14.720
39173W        W10789  20.764  35.909   2.721
39174W        W10790   0.861  26.550  10.964
39175W        W10791  44.344  24.021   3.457
39176W        W10792  20.733  32.892  11.110
39177W        W10793  24.697   8.626  13.494
39178W        W10794  44.953  20.216   1.459
39179W        W10795  34.444  41.950  12.867
39180W        W10796  40.965  30.698  12.175
39181W        W10797   8.063  34.055   1.003
39182W        W10798   9.363  13.687   3.150
39183W        W10799  28.920  34.057   0.412
39184W        W10800  20.751  40.330   0.299
39185W        W10801  33.897  21.032  12.076
39186W        W10802  35.314   2.787   4.454
39187W        W10803  21.093  16.111   4.136
39188W        W10804  34.135  15.857  14.966
39189W        W10805   5.817  28.311   0.056
39190W        W10806  42.909  15.740   1.413
39191W        W10807   6.210   7.232   0.996
39192W        W10808  19.747   3.970  11.580
39193W        W10809  31.504  11.247  11.303
39194W        W10810  31.525  20.011  12.486
39195W        W10811  33.119  40.590   0.693
39196W        W10812  25.760  28.515  11.030
39197W        W10813  33.104  31.707   2.878
39198W        W10814  28.960   5.385   1.187
39199W        W10815   5.885  19.820  13.002
39200W        W10816  13.776   5.819   0.352
39201W        W10817  31.142  10.379  13.003
39202W        W10818  18.822  12.058  11.144
39203W        W10819  32.096  33.354  14.831
39204W        W10820  30.975  27.201   0.053
39205W        W10821   2.505  20.112   2.847
39206W        W10822  15.270  26.115  13.909
39207W        W10823  43.743  34.339   3.673
39208W        W10824   8.209  28.923  10.915
39209W        W10825  24.454  11.037   2.331
39210W        W10826  37.393  43.602  12.092
39211W        W10827  40.009  26.944  11.037
39212W        W10828  18.456   2.669   1.501
39213W        W10829  43.874  16.800  13.384
39214W        W10830  30.176  19.411  11.272
39215W        W10831   9.383  39.144  13.290
39216W        W10832   4.928  43.804  14.260
39217W        W10833   1.070  36.490  10.676
39218W        W10834  18.292   4.226   2.164
39219W        W10835  39.011  21.089  12.447
39220W        W10836  44.013   7.985   1.945
39221W        W10837  38.022  20.320  13.390
39222W        W10838  30.869  18.750   4.554
39223W        W10839  27.646  32.183   3.768
39224W        W10840  15.640  38.032   4.095
39225W        W10841  40.762   5.531   4.119
39226W        W10842  18.568  27.528  11.525
39227W        W10843  18.842  16.817  11.129
39228W        W10844  26.272  32.056  13.791
39229W        W10845  30.665  23.129  12.007
39230W        W10846  25.605  17.323   3.335
39231W        W10847  19.574  28.942  13.546
39232W        W10848  34.614   3.672   0.803
39233W        W10849   5.585  19.983   2.878
39234W        W10850  17.117  32.601   0.342
39235W        W10851  37.629   5.561   3.141
39236W        W10852   7.403   9.168   2.785
39237W        W10853  40.357  21.912   2.662
39238W        W10854  23.702  27.455  10.508
39239W        W10855  19.511  44.576   2.711
39240W        W10856  29.569   3.924   1.438
39241W        W10857  20.594   9.700  10.739
39242W        W10858  11.194  29.325  12.807
39243W        W10859  23.017  14.910   0.255
39244W        W10860  14.504   4.137   3.496
39245W        W10861  28.319  19.730   4.602
39246W        W10862  44.847  43.519   2.004
39247W        W10863  26.473   5.914  12.508
39248W        W10864  33.131  36.949   3.825
39249W        W10865  25.575  10.363   1.308
39250W        W10866  36.640   7.388  12.652
39251W        W10867  26.947  22.535   0.658
39252W        W10868   0.344  24.940   0.303
39253W        W10869  41.810   7.334   1.749
39254W        W10870  27.951  41.299  12.411
39255W        W10871  15.212  28.420   1.404
39256W        W10872   4.902  20.402  12.880
39257W        W10873  22.602  26.855  14.980
39258W        W10874  28.804  30.647  11.409
39259W        W10875  26.513  33.664  11.973
39260W        W10876  31.624   6.910  11.117
39261W        W10877  14.679  16.262  14.198
39262W        W10878  20.628  31.876  14.720
39263W        W10879  28.199  36.046  10.911
39264W        W10880  18.145  21.632   0.828
39265W        W10881  21.953  17.710   3.952
39266W        W10882  43.057  14.803  12.513
39267W        W10883   8.149  14.676  11.552
39268W        W10884  13.934  42.394  11.634
39269W        W10885  19.669  20.536  14.058
39270W        W10886  14.154   4.835  14.414
39271W        W10887  21.701  22.540   0.981
39272W        W10888  43.904   4.692   4.318
39273W        W10889   4.955  12.028  13.892
39274W        W10890  24.412  37.594   3.370
39275W        W10891  14.665  29.656   0.321
39276W        W10892  30.142   1.751  14.204
39277W        W10893  24.872  37.230   4.002
39278W        W10894  26.519  35.141   1.428
39279W        W10895  39.194   7.118   2.707
39280W        W10896  20.356  14.035  13.275
39281W        W10897  10.758  40.354  12.548
39282W        W10898   8.054  22.117  14.245
39283W        W10899   7.799  44.331   0.902
39284W        W10900  42.976  41.692  12.338
39285W        W10901  19.671   6.419  14.740
39286W        W10902  19.656  10.616   1.637
39287W        W10903  24.873  39.071   0.030
39288W        W10904  10.795  17.069   3.260
39289W        W10905  26.058  10.885  13.342
39290W        W10906   9.313  16.395  12.450
39291W        W10907  27.668  21.094   4.633
39292W        W10908   0.956  19.589   2.992
39293W        W10909  20.394   3.844   3.662
39294W        W10910  24.628  30.534  12.773
39295W        W10911  21.757  41.495  11.448
39296W        W10912   7.525  36.893  10.451
39297W        W10913  40.399  28.154   0.642
39298W        W10914  13.684  30.005  12.861
39299W        W10915  24.093  11.811   0.398
39300W        W10916  23.473  30.168   1.280
39301W        W10917  23.545  33.403  11.905
39302W        W10918  15.045  39.938  10.680
39303W        W10919  21.368  26.112  12.970
39304W        W10920  40.091   0.636  13.560
39305W        W10921  39.645  25.222   4.005
39306W        W10922  38.115  26.204   2.108
39307W        W10923  27.384  38.983   2.381
39308W        W10924  41.404   6.677  14.863
39309W        W10925   4.045  14.337   2.693
39310W        W10926  43.891  28.631   5.084
39311W        W10927  33.392  31.097  13.901
39312W        W10928   7.374  23.493   4.943
39313W        W10929  35.301  23.094   0.392
39314W        W10930  28.510  17.166   4.581
39315W        W10931  16.083  37.135   1.416
39316W        W10932  18.203  22.017  10.637
39317W        W10933  20.667  25.517  10.421
39318W        W10934  27.697   1.565   1.781
39319W        W10935  24.116  31.335   0.939
39320W        W10936   3.945  31.433  14.324
39321W        W10937  43.325  44.419   1.217
39322W        W10938  13.074  19.591   4.167
39323W        W10939   7.162  39.664   0.404
39324W        W10940  41.833  32.287  14.913
39325W        W10941  23.030  13.356  13.102
39326W        W10942  23.552  29.055   4.168
39327W        W10943  14.123  29.295   3.694
39328W        W10944  25.426  38.414  13.972
39329W        W10945   8.403  33.861  11.095
39330W        W10946  10.404  17.128   4.644
39331W        W10947  18.877  36.013   1.892
39332W        W10948  25.709  43.477  14.774
39333W        W10949  19.349  39.531  12.337
39334W        W10950  26.666   7.220   4.644
39335W        W10951  44.975  12.725  14.820
39336W        W10952  40.391  29.004  11.277
39337W        W10953  40.477   2.787   0.469
39338W        W10954  40.923  24.376  13.133
39339W        W10955  42.027  41.318   3.273
39340W        W10956  13.349  34.105   3.557
39341W        W10957  39.117  19.548  14.054
39342W        W10958  19.827  44.302  11.138
39343W        W10959   8.420  19.233   0.825
39344W        W10960   2.610  13.641   0.310
39345W        W10961  44.525  10.829   4.608
39346W        W10962  25.722  21.476   0.346
39347W        W10963  41.784  39.265  12.921
39348W        W10964  13.625  33.453  11.428
39349W        W10965  30.028  16.506   0.932
39350W        W10966  37.913  42.451  11.118
39351W        W10967  31.503   8.818   1.091
39352W        W10968  32.065  10.092  13.271
39353W        W10969  16.705  13.678   2.101
39354W        W10970  26.126  16.365  11.181
39355W        W10971  42.371   8.882   1.134
39356W        W10972  12.696  40.888  13.022
39357W        W10973  32.484   2.503   4.119
39358W        W10974   5.646  29.500  12.663
39359W        W10975  40.322  27.398  13.881
39360W        W10976   1.637  23.282  13.491
39361W        W10977   2.252  39.717   1.605
39362W        W10978  29.462  10.418   0.452
39363W        W10979  42.317  13.059   2.168
39364W        W10980  39.187   6.442   4.083
39365W        W10981   9.690  32.386   4.949
39366W        W10982  21.099  18.089  11.881
39367W        W10983  31.014  40.773   2.993
39368W        W10984  43.162  29.319   5.043
39369W        W10985  11.810  17.194   1.277
39370W        W10986  29.456  34.519  10.578
39371W        W10987  44.421  18.097  12.840
39372W        W10988  32.935   6.615  11.274
39373W        W10989   1.391   5.402  13.436
39374W        W10990  19.515  38.962   4.633
39375W        W10991  36.482   2.706   1.702
39376W        W10992  24.984  31.703   2.796
39377W        W10993  23.920  41.814   0.197
39378W        W10994   3.171  44.392  12.777
39379W        W10995  23.649  14.888  11.160
39380W        W10996   0.694  15.616   4.131
39381W        W10997  18.049  29.176   2.755
39382W        W10998  25.002  20.130   1.439
39383W        W10999  39.562  12.797   0.367
39384W        W11000  36.091  10.111   3.384
39385W        W11001   8.057   5.175   3.098
39386W        W11002  21.685  38.751  10.096
39387W        W11003  20.896  11.652  13.218
39388W        W11004  14.337  31.156   4.880
39389W        W11005  24.626  12.407  12.722
39390W        W11006  39.035  27.898   1.886
39391W        W11007  29.942   5.376   2.736
39392W        W11008  41.866   1.627   2.672
39393W        W11009  21.897   3.897  12.104
39394W        W11010  19.661  23.610  11.472
39395W        W11011  23.575  13.349   0.959
39396W        W11012  27.583   7.241  12.384
39397W        W11013   4.290  24.252   1.628
39398W        W11014  38.379  41.290  14.009
39399W        W11015  41.546   2.266   4.162
39400W        W11016  21.513  26.245   0.509
39401W        W11017  16.940  34.925   4.985
39402W        W11018  11.350  30.534  10.731
39403W        W11019  31.336  42.619  10.179
39404W        W11020  26.176  13.126  13.345
39405W        W11021   3.915  22.762  12.053
39406W        W11022  39.082  12.908  12.407
39407W        W11023   1.230  11.075   1.908
39408W        W11024  28.825  26.043  14.018
39409W        W11025  32.672  29.428   4.202
39410W        W11026  11.427  22.615  11.010
39411W        W11027  42.737  42.375  14.030
39412W        W11028   2.746   1.393   1.991
39413W        W11029   5.375   0.750  12.325
39414W        W11030   5.686   6.698  12.103
39415W        W11031   9.241  30.026  12.599
39416W        W11032  36.843  21.461  12.828
39417W        W11033  32.951   8.110   1.347
39418W        W11034  24.614  40.632  12.032
39419W        W11035  17.526  26.070  10.781
39420W        W11036  42.277   1.836   0.914
39421W        W11037  36.825   7.875  12.458
39422W        W11038  19.853   0.357   3.175
39423W        W11039  31.868   1.987   1.364
39424W        W11040  33.945  31.137   3.223
39425W        W11041  32.178  24.875  10.666
39426W        W11042   3.018   6.331  13.425
39427W        W11043  19.564  42.474  11.626
39428W        W11044   4.219  26.263   4.214
39429W        W11045  12.528  11.696   3.213
39430W        W11046  37.539  43.724  13.014
39431W        W11047  36.651  31.517  10.711
39432W        W11048  14.310   3.986  10.125
39433W        W11049  28.983  24.210   3.165
39434W        W11050  23.256  34.589   2.917
39435W        W11051  23.212  21.315   0.841
39436W        W11052  12.282  38.815  12.375
39437W        W11053   8.355   7.108  11.595
39438W        W11054  15.479  36.379  13.842
39439W        W11055  39.354   1.299   4.842
39440W        W11056   7.710  16.874   0.737
39441W        W11057  33.243  40.538  14.811
39442W        W11058   4.370   6.121  14.323
39443W        W11059  10.621  39.423   0.316
39444W        W11060  15.696  12.837  14.499
39445W        W11061  20.122  27.776  13.550
39446W        W11062   2.489  23.028  10.281
39447W        W11063  39.308   3.653  12.193
39448W        W11064  34.320  41.243   0.235
39449W        W11065   6.069  44.518   2.626
39450W        W11066  30.395  43.560  10.883
39451W        W11067  18.636  13.323  14.076
39452W        W11068  33.876  43.419  12.188
39453W        W11069  20.722  14.374   1.374
39454W        W11070  25.800  17.108   4.603
39455W        W11071  32.615  21.201   1.241
39456W        W11072   3.180  14.259   2.438
39457W        W11073   2.544  44.466   2.785
39458W        W11074  37.514  10.238   0.682
39459W        W11075  29.571  40.595  10.935
39460W        W11076  13.624  32.370   0.396
39461W        W11077  21.947  22.630  11.991
39462W        W11078  39.551   0.811  11.832
39463W        W11079  14.274  13.760   1.207
39464W        W11080  34.295  31.962   1.834
39465W        W11081  33.141   6.065   1.323
39466W        W11082  14.101   5.857  11.201
39467W        W11083  38.644  20.826   4.268
39468W        W11084  10.834  39.043  14.553
39469W        W11085  32.545  19.801   4.563
39470W        W11086  16.687   5.730  11.592
39471W        W11087  23.732  25.507   0.319
39472W        W11088  44.961   9.731   2.881
39473W        W11089  31.956   3.216  14.867
39474W        W11090   4.417  16.516   2.963
39475W        W11091  18.890  11.661  10.819
39476W        W11092   5.968  11.004  12.909
39477W        W11093  43.830  32.987  14.915
39478W        W11094  15.823  21.712  12.981
39479W        W11095  36.769   1.251  10.889
39480W        W11096  29.481   9.516   2.484
39481W        W11097  23.606  22.031   1.782
39482W        W11098  39.209  43.901  13.257
39483W        W11099   3.989  42.290  12.814
39484W        W11100  17.789   7.986  13.001
39485W        W11101  13.295   9.829  12.853
39486W        W11102  22.274  44.486   4.531
39487W        W11103  18.040   7.284   0.231
39488W        W11104  34.597  35.625   3.458
39489W        W11105  19.613   2.863  14.348
39490W        W11106  44.862   0.837   0.673
39491W        W11107  29.948  38.519  12.446
39492W        W11108  13.831  16.546   3.388
39493W        W11109   5.637  26.937  12.488
39494W        W11110  20.152  22.802  12.343
39495W        W11111   9.231  23.039   3.641
39496W        W11112   3.880  40.325  11.871
39497W        W11113   3.019  33.222  14.975
39498W        W11114   4.514  19.599  12.880
39499W        W11115  16.894  20.057   5.123
39500W        W11116  20.693   8.910  14.366
39501W        W11117  20.301  37.533  13.831
39502W        W11118   8.834  18.673  12.168
39503W        W11119   8.289  28.679   1.473
39504W        W11120  25.323  43.341  13.416
39505W        W11121   1.796  26.864   3.670
39506W        W11122  21.630   0.624  10.995
39507W        W11123   5.180  41.585  11.012
39508W        W11124  22.171   0.230   3.062
39509W        W11125  21.280  15.355  12.963
39510W        W11126  19.362  14.436   4.030
39511W        W11127   2.795   9.152   3.973
39512W        W11128  34.081  18.156   0.342
39513W        W11129  19.990  21.072   3.183
39514W        W11130   8.068  31.716  14.378
39515W        W11131   4.089   6.199   2.778
39516W        W11132  19.509  29.379  11.271
39517W        W11133  30.477  28.119   0.737
39518W        W11134  36.516   9.154   5.147
39519W        W11135  42.591   0.445   0.980
39520W        W11136   6.489  30.532   0.573
39521W        W11137  28.339   5.384  10.691
39522W        W11138  12.234  13.528  10.657
39523W        W11139  34.065  15.977   3.097
39524W        W11140   8.251   6.726  14.823
39525W        W11141   7.853   6.201  11.218
39526W        W11142  41.824  44.347  11.525
39527W        W11143  42.315  39.354   4.235
39528W        W11144  16.800   6.219   0.968
39529W        W11145  39.341  11.328  11.537
39530W        W11146   5.202  36.353  10.072
39531W        W11147  21.503  18.212   4.894
39532W        W11148  44.534  41.077  12.787
39533W        W11149  18.655  41.487   1.724
39534W        W11150  39.351  13.322  10.352
39535W        W11151  12.872   8.720  12.039
39536W        W11152  41.306  30.497   4.564
39537W        W11153  13.218  26.039   4.923
39538W        W11154  40.994  17.335  12.439
39539W        W11155  28.975  24.643   4.394
39540W        W11156  12.610  38.393  14.595
39541W        W11157  35.334  35.277  12.403
39542W        W11158  29.674  12.038  12.123
39543W        W11159   1.525   0.382   3.647
39544W        W11160   9.028  43.764  14.687
39545W        W11161  34.851  33.581  10.706
39546W        W11162  37.057  15.170  14.731
39547W        W11163   3.675  14.495   2.322
39548W        W11164   8.360   9.913  11.881
39549W        W11165  10.087  23.919  14.851
39550W        W11166  27.984  35.945  13.004
39551W        W11167  22.289  32.399   0.493
39552W        W11168   0.903   0.985  13.477
39553W        W11169  13.730  15.870   4.582
39554W        W11170   6.261   7.386  10.755
39555W        W11171  18.736  24.971  11.483
39556W        W11172  39.643  24.788   0.875
39557W        W11173  16.911  28.463  11.335
39558W        W11174   0.426  38.378  11.505
39559W        W11175  40.651  41.929  11.587
39560W        W11176  22.331   1.932  13.898
39561W        W11177  37.175  34.784   4.719
39562W        W11178  21.661  16.853   3.148
39563W        W11179  41.612  22.009  13.070
39564W        W11180  20.187  43.364   2.360
39565W        W11181   0.418  15.764  12.812
39566W        W11182  11.737  17.819   0.822
39567W        W11183  23.248  38.880  13.481
39568W        W11184  11.123  39.117   3.225
39569W        W11185  19.687  26.629   4.256
39570W        W11186  16.099   6.699  13.069
39571W        W11187  34.106  14.498  11.983
39572W        W11188  37.806  38.601  14.463
39573W        W11189  37.353  40.828  11.052
39574W        W11190   4.300  13.066  11.453
39575W        W11191  11.866  20.500  13.071
39576W        W11192  42.521  14.606  14.727
39577W        W11193  24.314  34.888   2.862
39578W        W11194   4.307  29.546  10.928
39579W        W11195  22.305  16.482   4.430
39580W        W11196  29.728  10.675  11.243
39581W        W11197  23.715   7.410  14.558
39582W        W11198  35.623  43.536  11.530
39583W        W11199  20.742  36.463   3.419
39584W        W11200  37.583  20.849  10.801
39585W        W11201  27.734  28.575  13.275
39586W        W11202   3.611   6.609   2.065
39587W        W11203   2.692   9.831  11.619
39588W        W11204  31.397   7.407  12.193
39589W        W11205  19.797  33.032   3.328
39590W        W11206   5.880  30.448   1.806
39591W        W11207   3.747  33.919  11.655
39592W        W11208   4.306  25.334   3.934
39593W        W11209   7.429  12.117   3.061
39594W        W11210  27.009  29.459   4.795
39595W        W11211  11.885  36.132   0.521
39596W        W11212  39.974   8.323   3.601
39597W        W11213  27.061  44.523   0.153
39598W        W11214   7.161  14.815   1.371
39599W        W11215  12.817  27.532  11.249
39600W        W11216  32.407  17.626   2.388
39601W        W11217  21.427  34.813   4.110
39602W        W11218   2.925  44.741   1.061
39603W        W11219  28.008   4.877  14.316
39604W        W11220  17.456   8.639  11.963
39605W        W11221  11.600  38.496   1.876
39606W        W11222  25.227  33.391  13.797
39607W        W11223  42.415   7.854   2.303
39608W        W11224  26.169  29.234  13.902
39609W        W11225   0.626  26.535  14.127
39610W        W11226  32.018   9.587  14.966
39611W        W11227  24.697  28.925  11.764
39612W        W11228   9.072  13.002   1.419
39613W        W11229   6.671  32.883  11.043
39614W        W11230   8.100  39.873  12.661
39615W        W11231   4.774   2.405   4.425
39616W        W11232  25.465   7.160  13.327
39617W        W11233   3.950  32.478   1.016
39618W        W11234  38.473  26.522  15.000
39619W        W11235  43.218  28.089  14.988
39620W        W11236  39.307  14.861  12.910
39621W        W11237  37.507   3.173  13.512
39622W        W11238  30.150  24.053  12.756
39623W        W11239  27.312  23.709   2.643
39624W        W11240  34.078  31.049  13.450
39625W        W11241  21.582  23.838   0.445
39626W        W11242  16.808  15.700  13.511
39627W        W11243  14.195  16.826  10.249
39628W        W11244  30.869  23.238  13.466
39629W        W11245  31.930   5.897   1.227
39630W        W11246   8.309  40.295  14.832
39631W        W11247   8.729  23.902   1.135
39632W        W11248  42.548  43.878   4.103
39633W        W11249  16.560  31.970   3.367
39634W        W11250   8.798  12.269   3.673
39635W        W11251  27.030  37.863   0.347
39636W        W11252  43.405  33.614   0.324
39637W        W11253   9.344  22.544   3.667
39638W        W11254  19.391  29.611  13.879
39639W        W11255  11.809  43.445  10.714
39640W        W11256  20.045  44.592   3.591
39641W        W11257   4.506   9.604   2.424
39642W        W11258  33.170  31.349  14.861
39643W        W11259  32.042  22.677  10.795
39644W        W11260   4.798   6.357   2.297
39645W        W11261  43.955  28.929   0.335
39646W        W11262  41.790  33.001   4.667
39647W        W11263  41.318  16.826   4.257
39648W        W11264  30.326  29.541   4.115
39649W        W11265  10.174  10.871   1.783
39650W        W11266  23.681  40.392  12.188
39651W        W11267  12.746   8.704   4.372
39652W        W11268   5.466  21.632   2.422
39653W        W11269  40.403  33.165  13.847
39654W        W11270  29.214  35.389  13.072
39655W        W11271  25.184  17.623   0.483
39656W        W11272  31.388   3.356   1.943
39657W        W11273  33.212  13.944   1.391
39658W        W11274  10.908  30.126   4.473
39659W        W11275  15.608  15.783   3.103
39660W        W11276   3.119   6.806  10.247
39661W        W11277   7.099  31.129   0.181
39662W        W11278   7.176  21.536   0.987
39663W        W11279  24.076  44.469  10.735
39664W        W11280   3.397  23.580  14.379
39665W        W11281   1.222  31.484  13.454
39666W        W11282  36.235   2.843  12.098
39667W        W11283  17.669  38.023  10.934
39668W        W11284  14.797  38.746  14.281
39669W        W11285  15.708  39.062   4.108
39670W        W11286  24.984  13.384  12.022
39671W        W11287   3.781  24.041   3.757
39672W        W11288  38.448  30.865  13.057
39673W        W11289  40.262  15.673   0.346
39674W        W11290   1.219  16.602  12.424
39675W        W11291  28.985  25.654   1.368
39676W        W11292  43.249  25.602  14.826
39677W        W11293  30.471  10.417   9.826
39678W        W11294   5.503  39.619   3.230
39679W        W11295  37.501  21.022  11.302
39680W        W11296  10.350  27.528  13.954
39681W        W11297  28.471   6.661   4.914
39682W        W11298  27.648  14.044  12.441
39683W        W11299   1.848  16.091  13.007
39684W        W11300   5.415  42.115   4.729
39685W        W11301   0.882  11.178  11.748
39686W        W11302  43.252   8.525   5.002
39687W        W11303  27.620  14.213  13.981
39688W        W11304  16.500   4.009  10.975
39689W        W11305  42.407  19.338   4.343
39690W        W11306  24.552  41.460   2.149
39691W        W11307  22.036   5.237   3.184
39692W        W11308  37.799  28.579   4.532
39693W        W11309  33.581  18.803  10.813
39694W        W11310  19.151  16.095   3.172
39695W        W11311  17.616  21.726  12.622
39696W        W11312  23.466  35.119  10.735
39697W        W11313   6.951  43.313  13.805
39698W        W11314  32.174  13.319  10.669
39699W        W11315  21.696  22.702  14.593
39700W        W11316  37.796  20.076  12.991
39701W        W11317  40.319  11.491   3.013
39702W        W11318  26.029  29.465   3.613
39703W        W11319  11.212  33.485   2.831
39704W        W11320  41.991  18.622  14.026
39705W        W11321  21.737  12.852  14.501
39706W        W11322  15.217   2.629   2.858
39707W        W11323  44.216  20.176   1.986
39708W        W11324  33.109   5.242  13.496
39709W        W11325   1.043   3.110  11.608
39710W        W11326  15.401  13.140   4.766
39711W        W11327  33.494   8.172  13.861
39712W        W11328  27.490  14.146  10.973
39713W        W11329  38.772  15.608  10.706
39714W        W11330  40.633   5.458  14.519
39715W        W11331   7.711  37.579  12.513
39716W        W11332  21.594  29.602  12.654
39717W        W11333  16.437  14.502   5.026
39718W        W11334  22.873  16.263  11.161
39719W        W11335  37.298  31.963   1.787
39720W        W11336  32.403   7.222  11.624
39721W        W11337   4.795  23.591  10.730
39722W        W11338  32.152  35.384   4.534
39723W        W11339  40.730  14.765   1.384
39724W        W11340  42.782  17.799  14.446
39725W        W11341  26.612  26.051   9.980
39726W        W11342   2.316  32.646   3.221
39727W        W11343  21.018  33.854  13.547
39728W        W11344  33.670  18.759  12.063
39729W        W11345   2.242  42.490  14.475
39730W        W11346  10.917  11.683   0.236
39731W        W11347   9.376  19.161   4.153
39732W        W11348  43.657  32.089  12.954
39733W        W11349  28.907  29.529  12.490
39734W        W11350   4.258  26.921   1.845
39735W        W11351  27.487  20.986   2.165
39736W        W11352  23.721  30.223   2.680
39737W        W11353  38.585   6.885  11.481
39738W        W11354   7.475   5.025   3.255
39739W        W11355  17.512  25.567  11.088
39740W        W11356  39.327   9.152   2.282
39741W        W11357  38.829  21.754   3.795
39742W        W11358  40.609  16.222   4.630
39743W        W11359  35.341  38.257  11.659
39744W        W11360  33.322  32.238  12.031
39745W        W11361  28.902  39.410  10.721
39746W        W11362  15.661  16.049   2.455
39747W        W11363  39.433  14.130   3.724
39748W        W11364  41.916  33.717  13.796
39749W        W11365  20.321  14.393  12.777
39750W        W11366  19.294  29.169   0.242
39751W        W11367  20.547   5.136  13.878
39752W        W11368  26.010  42.862   3.268
39753W        W11369  34.071   8.801  14.766
39754W        W11370  25.470   1.430  13.253
39755W        W11371  10.282   5.863   3.914
39756W        W11372   0.890   0.573   4.235
39757W        W11373  17.621  24.190  13.940
39758W        W11374  16.017  28.775   1.928
39759W        W11375   3.556  37.088  11.655
39760W        W11376  14.498   7.420   0.082
39761W        W11377  16.105  25.570   1.706
39762W        W11378  42.861  27.649  14.885
39763W        W11379  23.217  16.317   2.070
39764W        W11380   1.273   4.749  14.833
39765W        W11381  32.367   0.382  14.887
39766W        W11382  14.767  37.526   4.386
39767W        W11383  27.221  40.426   3.172
39768W        W11384   6.930  33.192   0.149
39769W        W11385  15.829  40.301  12.567
39770W        W11386  40.251  25.131   0.189
39771W        W11387   6.722   8.479   0.839
39772W        W11388  16.652  36.510  14.298
39773W        W11389  37.936  15.780   0.869
39774W        W11390  21.221  16.476  14.030
39775W        W11391  42.900  19.959  13.574
39776W        W11392  35.126  44.200   2.006
39777W        W11393   3.931  42.340   0.250
39778W        W11394  16.859  43.891  14.998
39779W        W11395   5.671  35.846   1.267
39780W        W11396   9.816  42.897  13.881
39781W        W11397  27.888   9.405  13.773
39782W        W11398  30.538  21.630  12.048
39783W        W11399  17.562  24.507   2.751
39784W        W11400   6.713   7.151  11.036
39785W        W11401  40.439  29.683  14.053
39786W        W11402  34.599   2.742   1.103
39787W        W11403  37.904  16.011  11.032
39788W        W11404  38.974  36.410  13.380
39789W        W11405  24.016  15.231  11.124
39790W        W11406  12.192  37.227   5.082
39791W        W11407  20.549  14.679  11.244
39792W        W11408  16.542  26.523  14.313
39793W        W11409  43.219  43.719  13.890
39794W        W11410  44.942  27.055  13.383
39795W        W11411   7.673   6.880   4.140
39796W        W11412  28.641  35.086   2.726
39797W        W11413  38.410   4.779  13.374
39798W        W11414  31.929  15.674  11.809
39799W        W11415   2.221   9.533  11.657
39800W        W11416  32.031  20.694   2.263
39801W        W11417  31.382   9.677   0.642
39802W        W11418  18.176   0.448  13.373
39803W        W11419  11.691  41.992   2.935
39804W        W11420   3.088  16.813  11.217
39805W        W11421  32.087   1.362  12.467
39806W        W11422  32.540  20.035  11.415
39807W        W11423  15.815  39.827   3.739
39808W        W11424  28.419  38.463   3.256
39809W        W11425  15.404  32.018  11.046
39810W        W11426  25.487  33.451   2.332
39811W        W11427  11.090  32.071  10.677
39812W        W11428  28.115  29.114  10.179
39813W        W11429  20.739  20.603   3.169
39814W        W11430  32.439  31.496   3.852
39815W        W11431  26.905  14.540   2.432
39816W        W11432  16.718  11.868   2.178
39817W        W11433  33.667  16.876   4.975
39818W        W11434  41.406  33.972   2.809
39819W        W11435  12.811  17.297   3.306
39820W        W11436   9.329  18.845  12.565
39821W        W11437  26.134   7.723   1.104
39822W        W11438  38.332  32.998   1.321
39823W        W11439  28.114   9.124   3.795
39824W        W11440  14.789  34.803  10.886
39825W        W11441  34.539  13.918   5.056
39826W        W11442  20.242   7.744  13.932
39827W        W11443  44.431  39.948   3.100
39828W        W11444  34.273  29.001  11.215
39829W        W11445   4.304  26.006  13.047
39830W        W11446  18.271   9.293  13.880
39831W        W11447   8.678  27.472   3.629
39832W        W11448  19.249  23.240   2.359
39833W        W11449   8.905  21.035   1.845
39834W        W11450  23.536  13.470   4.086
39835W        W11451  24.698  32.708   1.877
39836W        W11452  22.063  26.520  13.632
39837W        W11453  29.664  42.239  12.717
39838W        W11454  16.336   1.908  12.980
39839W        W11455  26.468  40.045   3.120
39840W        W11456  36.363  11.264  13.939
39841W        W11457  11.622  16.056  11.911
39842W        W11458  11.926  22.120  12.215
39843W        W11459  20.117  21.700   3.858
39844W        W11460  12.478  35.885  10.695
39845W        W11461  14.257  43.873   3.598
39846W        W11462   3.898   9.438  11.124
39847W        W11463  30.662   4.727  14.892
39848W        W11464  18.562  13.829   2.324
39849W        W11465  18.167   9.327  14.779
39850W        W11466  35.899  37.867  13.388
39851W        W11467  14.784  38.093   2.913
39852W        W11468  23.443  32.643  14.914
39853W        W11469  24.402   7.001   0.927
39854W        W11470  13.864  41.256  12.893
39855W        W11471  21.277   5.653   3.328
39856W        W11472   1.188  14.234   1.310
39857W        W11473  31.159  14.029   4.106
39858W        W11474  39.264  13.668   3.147
39859W        W11475  31.053  21.869   0.309
39860W        W11476  19.214   8.127  12.386
39861W        W11477  34.233  41.240  11.995
39862W        W11478  40.409  10.283   1.618
39863W        W11479  44.101  23.891  11.545
39864W        W11480   9.883  35.638   0.896
39865W        W11481  30.771  19.514   3.096
39866W        W11482   2.162  15.392  13.384
39867W        W11483  18.605   7.658   3.443
39868W        W11484  40.423  36.601  13.330
39869W        W11485  27.664  34.932  12.465
39870W        W11486  27.525  30.805   4.764
39871W        W11487  22.140  37.781  14.266
39872W        W11488  38.520  25.672   1.289
39873W        W11489  44.030  21.076   0.916
39874W        W11490   6.342  20.033  13.879
39875W        W11491  34.276  33.549   3.773
39876W        W11492  30.151   0.977  11.042
39877W        W11493  20.495  12.222  13.914
39878W        W11494  15.738  44.535  11.909
39879W        W11495   3.691  38.448  13.759
39880W        W11496  35.645  16.352  11.563
39881W        W11497   8.707   5.662   1.930
39882W        W11498  25.566   7.458   3.981
39883W        W11499  15.878  20.479  13.908
39884W        W11500  39.947   6.541  12.661
39885W        W11501  43.609  34.616   5.472
39886W        W11502   7.935  11.185  11.966
39887W        W11503   8.893   5.514   2.777
39888W        W11504  25.426  21.705  13.569
39889W        W11505  11.332  12.826  13.040
39890W        W11506   1.744   9.276  12.543
39891W        W11507   1.720  15.237   4.584
39892W        W11508  15.150   3.820  13.111
39893W        W11509  44.417  13.570   3.182
39894W        W11510  25.230  12.808   0.483
39895W        W11511  20.580  10.880   2.245
39896W        W11512   3.718  33.494   2.367
39897W        W11513  17.634  44.029   0.231
39898W        W11514  19.570  33.955   4.868
39899W        W11515   4.634  40.767  13.469
39900W        W11516  15.590  42.886  14.843
39901W        W11517  36.426   0.332   1.008
39902W        W11518  42.292  23.024   0.926
39903W        W11519  44.063  18.546   1.252
39904W        W11520   5.821  38.051   2.389
39905W        W11521  14.151  23.005  11.655
39906W        W11522  34.400  35.586  12.309
39907W        W11523  11.514  32.357   4.782
39908W        W11524  11.632   9.229   1.863
39909W        W11525  10.729  23.822  11.879
39910W        W11526  15.060  44.416  14.918
39911W        W11527  24.182  29.396  13.369
39912W        W11528  41.015  20.961  12.097
39913W        W11529  18.487  15.518  11.098
39914W        W11530  30.611  34.057  10.717
39915W        W11531  32.880  19.042   3.405
39916W        W11532   6.204   6.443   1.954
39917W        W11533  20.481   5.290   4.151
39918W        W11534  26.198  20.042   3.377
39919W        W11535  17.051  39.031   4.647
39920W        W11536   5.780  32.803   3.650
39921W        W11537  15.432   6.868   2.848
39922W        W11538   5.169   1.424   3.072
39923W        W11539  21.140  15.564   4.169
39924W        W11540  25.960  43.887  13.333
39925W        W11541  32.883  16.569   0.288
39926W        W11542   1.046   7.320   3.971
39927W        W11543   3.422   8.941  13.973
39928W        W11544  34.252  41.035   1.609
39929W        W11545  35.486   7.773  13.993
39930W        W11546   5.232  28.141   2.706
39931W        W11547  31.967   3.275   3.081
39932W        W11548  40.936  32.097  13.495
39933W        W11549   9.746  22.464  14.322
39934W        W11550  13.734   7.608  12.756
39935W        W11551   3.650  21.238  13.864
39936W        W11552   3.962  12.926  12.569
39937W        W11553  17.097  39.846  10.923
39938W        W11554   6.947  38.325  13.007
39939W        W11555  14.912  34.363  12.447
39940W        W11556  43.215  35.009   5.402
39941W        W11557  12.838   2.937  13.908
39942W        W11558   8.166   3.727   0.408
39943W        W11559  44.792   1.941  12.366
39944W        W11560  39.233  43.433   1.858
39945W        W11561  16.571   6.480   4.215
39946W        W11562   2.588  31.181  11.484
39947W        W11563   9.283  27.939  11.116
39948W        W11564   7.988  33.533   0.945
39949W        W11565  17.788  30.075   1.923
39950W        W11566  23.479  25.149  12.051
39951W        W11567   4.021  10.772   4.530
39952W        W11568  10.112  27.831  12.995
39953W        W11569  22.996  24.984  12.917
39954W        W11570  11.361  12.600  13.835
39955W        W11571  20.181  20.091   1.257
39956W        W11572   0.206  15.105   1.476
39957W        W11573  17.285  41.068   3.248
39958W        W11574  17.656   5.386   0.285
39959W        W11575  25.250  19.942  12.991
39960W        W11576  42.737  11.848   3.768
39961W        W11577  14.316  40.507   3.772
39962W        W11578  26.919  17.163  10.561
39963W        W11579  10.101  32.149   0.048
39964W        W11580   9.628  43.331  10.752
39965W        W11581  17.970  11.827   3.724
39966W        W11582  25.598  31.464   0.790
39967W        W11583  44.749  26.172   1.380
39968W        W11584  25.569   6.863  10.486
39969W        W11585  37.497   2.664  13.719
39970W        W11586  27.994  31.460   1.468
39971W        W11587  30.497  24.076  13.746
39972W        W11588  35.665  24.327  12.512
39973W        W11589  22.185  23.695  12.867
39974W        W11590  32.501  13.952  10.779
39975W        W11591  39.947   1.187  11.656
39976W        W11592  25.169   8.279   4.041
39977W        W11593  35.975  35.018   1.249
39978W        W11594   6.932  21.168   2.791
39979W        W11595   7.340  40.748   1.247
39980W        W11596  14.205   2.451   0.878
39981W        W11597  32.603  22.102   1.625
39982W        W11598  25.690  21.174   3.638
39983W        W11599   2.150  42.224  13.501
39984W        W11600  44.252  44.967   3.269
39985W        W11601  33.000  23.860  12.857
39986W        W11602  27.951  30.733  12.518
39987W        W11603  33.569  33.392  14.089
39988W        W11604  34.979  44.422  13.076
39989W        W11605  34.848   1.699  10.556
39990W        W11606   3.788  34.529  13.531
39991W        W11607   6.048  25.890  14.350
39992W        W11608  39.697   3.056   3.123
39993W        W11609  39.365   2.386  11.618
39994W        W11610   9.462  24.462  13.844
39995W        W11611  17.064  29.292  13.957
39996W        W11612  43.077  44.333   4.588
39997W        W11613  38.518  34.612  13.047
39998W        W11614   9.407  15.667   0.411
39999W        W11615   4.856  37.027  13.804
40000W        W11616  23.192  38.490   3.809
40001W        W11617  33.419  12.353   0.866
40002W        W11618  36.147  24.899   3.241
40003W        W11619  26.654  21.215   3.202
40004W        W11620  25.483  31.572  12.341
40005W        W11621  16.888   6.103   2.784
40006W        W11622  32.945  17.606   0.378
40007W        W11623   9.743   9.659  13.985
40008W        W11624  31.717   0.397   4.522
40009W        W11625   9.807  19.132   2.748
40010W        W11626  23.128  11.510  13.457
40011W        W11627   4.777  37.116   4.685
40012W        W11628  17.227  18.726  11.889
40013W        W11629  35.917  29.743   2.352
40014W        W11630  37.620  39.010  10.765
40015W        W11631  30.500  36.841  12.074
40016W        W11632   4.476   7.195  11.013
40017W        W11633   4.923  12.748  10.653
40018W        W11634   0.753  38.644   1.884
40019W        W11635   3.847  35.399  11.218
40020W        W11636  22.648   3.270   1.268
40021W        W11637   1.849  21.763  14.735
40022W        W11638  30.049  44.043   3.833
40023W        W11639  11.353  27.187   3.816
40024W        W11640  10.645  26.113   1.976
40025W        W11641  12.235   0.991  12.915
40026W        W11642  20.855   4.674  14.238
40027W        W11643  43.954  44.823   4.560
40028W        W11644  25.638  31.914  14.383
40029W        W11645  18.094  34.189   1.799
40030W        W11646   4.923  31.160  11.427
40031W        W11647   6.442  27.705   0.919
40032W        W11648  18.005  44.029  10.173
40033W        W11649   3.388  18.703   3.737
40034W        W11650   0.356  24.380   0.949
40035W        W11651  20.734  31.163  10.640
40036W        W11652  30.701  19.604   4.690
40037W        W11653  12.196   3.144   4.155
40038W        W11654  31.389  38.561   3.098
40039W        W11655  44.954  30.954   1.818
40040W        W11656  38.817  23.156   1.936
40041W        W11657  19.223   1.026  12.358
40042W        W11658   7.633  11.315  11.516
40043W        W11659  30.083   4.085   2.135
40044W        W11660  30.080  13.105  11.851
40045W        W11661   4.463  29.638  13.502
40046W        W11662  41.963   6.877   3.781
40047W        W11663  14.842  17.256  10.703
40048W        W11664  12.731  42.978  12.019
40049W        W11665  44.037  22.957   2.783
40050W        W11666  27.686  17.428   4.166
40051W        W11667  10.767   3.488   4.007
40052W        W11668  16.105  30.397   1.292
40053W        W11669  40.420  31.367   1.422
40054W        W11670  25.147  12.728   2.149
40055W        W11671  34.106  10.206   1.199
40056W        W11672  26.575  18.071  12.511
40057W        W11673  19.688   6.825  10.689
40058W        W11674  23.974  18.700  14.894
40059W        W11675  29.122  41.393   4.852
40060W        W11676   0.367  33.939  10.889
40061W        W11677  42.382  17.383   4.917
40062W        W11678   3.348  42.221   1.270
40063W        W11679  22.690  30.135   3.760
40064W        W11680  42.166   0.055  11.900
40065W        W11681  19.562  37.054   2.189
40066W        W11682  35.022  39.850  12.987
40067W        W11683  31.333  25.550   2.748
40068W        W11684  14.878  39.028   0.720
40069W        W11685  44.382  13.070   3.160
40070W        W11686  39.371   6.266  11.612
40071W        W11687  16.395  29.971  12.009
40072W        W11688  15.121  17.179   4.105
40073W        W11689  30.986   5.002   2.479
40074W        W11690  10.134  42.166   1.412
40075W        W11691  16.194   0.986   3.980
40076W        W11692  22.779  40.581   3.268
40077W        W11693  10.805  37.561   4.610
40078W        W11694  11.765  39.890   4.592
40079W        W11695  10.323  39.979   1.990
40080W        W11696  22.445  16.755  11.105
40081W        W11697  23.781   9.085  12.891
40082W        W11698  36.878  16.336  14.308
40083W        W11699   0.840  22.501  10.575
40084W        W11700  42.284  42.464  13.059
40085W        W11701   8.891  17.234  14.886
40086W        W11702  21.020  21.053   3.160
40087W        W11703  13.383   0.257  13.542
40088W        W11704  41.731  14.785   3.477
40089W        W11705  30.001   9.363  13.754
40090W        W11706  26.876  36.527  11.592
40091W        W11707  17.259  28.464   2.417
40092W        W11708  42.364   3.161   1.856
40093W        W11709   7.363  31.070  14.047
40094W        W11710   5.416  34.871  14.585
40095W        W11711   5.477  20.680  14.034
40096W        W11712  11.362  15.805  11.003
40097W        W11713  38.338  18.488   1.254
40098W        W11714  14.436  13.133   2.419
40099W        W11715  25.533  11.329   3.880
40100W        W11716  37.606   7.384   2.896
40101W        W11717  15.369  26.734   2.128
40102W        W11718  29.105  18.873  13.942
40103W        W11719  34.229  19.673  14.019
40104W        W11720  44.137  10.592  12.016
40105W        W11721  26.721  13.623  12.637
40106W        W11722  10.183  35.806   2.527
40107W        W11723  25.612   2.055   0.164
40108W        W11724  24.010  19.036   0.438
40109W        W11725  40.857  23.974   2.790
40110W        W11726  37.681  35.618  11.157
40111W        W11727  12.763  14.898   3.427
40112W        W11728  41.973  31.604  14.271
40113W        W11729  43.325   2.743  14.843
40114W        W11730  28.920  32.321  12.988
40115W        W11731  13.868  12.084  12.161
40116W        W11732  35.939  37.631   2.192
40117W        W11733   4.803  43.886   0.217
40118W        W11734  20.388  16.828  11.218
40119W        W11735  37.135  31.015   0.650
40120W        W11736  40.146   4.093  13.394
40121W        W11737  32.448  26.691   1.815
40122W        W11738  16.354  44.232   4.747
40123W        W11739   5.844  13.800   3.150
40124W        W11740   6.366   2.140  14.251
40125W        W11741   4.131  33.429  12.356
40126W        W11742  34.071  12.570   2.729
40127W        W11743  23.547  13.597  11.711
40128W        W11744   6.939  33.852   4.225
40129W        W11745   0.582  20.070  13.966
40130W        W11746  24.629  35.102   1.969
40131W        W11747   9.373  34.934   0.471
40132W        W11748  40.274  43.257   4.285
40133W        W11749  15.345  41.437   3.106
40134W        W11750  14.945  10.435  13.332
40135W        W11751  35.456  12.634   4.325
40136W        W11752  14.436  39.154   0.415
40137W        W11753  44.922   0.740   1.224
40138W        W11754  16.735  27.659  11.176
40139W        W11755  13.646  38.855   1.343
40140W        W11756  16.967  30.473   0.679
40141W        W11757  38.265  32.340   4.870
40142W        W11758  22.201  35.785   1.274
40143W        W11759  13.010   3.454   1.864
40144W        W11760  44.841  30.067   0.858
40145W        W11761  35.313  42.323   2.809
40146W        W11762  17.108  11.849  10.478
40147W        W11763   1.952  44.349   2.111
40148W        W11764   8.895   9.598  14.405
40149W        W11765   7.617  27.651   1.863
40150W        W11766  16.250  42.261  13.663
40151W        W11767  38.528  13.107  13.389
40152W        W11768  41.896   3.286  13.362
40153W        W11769   8.259  44.063  10.686
40154W        W11770  36.985  36.871   2.942
40155W        W11771  31.194  33.164   3.153
40156W        W11772  23.558  28.286  10.971
40157W        W11773  26.010   5.722  10.810
40158W        W11774  44.986  18.016  11.126
40159W        W11775  18.327  19.787   0.185
40160W        W11776  36.923  33.046   3.268
40161W        W11777  16.779  44.078  12.245
40162W        W11778  42.008  31.939   1.276
40163W        W11779  16.548  29.292  14.081
40164W        W11780  10.811  39.931  13.813
40165W        W11781  44.722  39.810  10.397
40166W        W11782   8.713  34.590  12.986
40167W        W11783  24.244  35.463   3.852
40168W        W11784  43.913  41.826   1.754
40169W        W11785  17.196  21.349  14.771
40170W        W11786  22.311  26.966   1.342
40171W        W11787  44.704  36.888   3.154
40172W        W11788  11.362  41.860  12.438
40173W        W11789  20.542  33.923   0.804
40174W        W11790  34.730  32.129  11.576
40175W        W11791  11.093  11.022  11.206
40176W        W11792  10.808  36.525   3.362
40177W        W11793   5.397  29.491  11.357
40178W        W11794  28.078   8.760   3.456
40179W        W11795   4.007  24.658   4.609
40180W        W11796  43.298  16.452   0.323
40181W        W11797  14.782   3.417   2.692
40182W        W11798   5.222  27.120  14.012
40183W        W11799  42.037  40.593  12.374
40184W        W11800  26.982   9.661   2.225
40185W        W11801  11.785  32.817  12.255
40186W        W11802   6.853   1.451   2.000
40187W        W11803  32.516   8.333  13.986
40188W        W11804  16.126  35.542   2.297
40189W        W11805  19.448  44.398  10.184
40190W        W11806  13.294  38.912  13.984
40191W        W11807  21.788  38.901  14.317
40192W        W11808  36.305  39.420  11.503
40193W        W11809  35.894  27.819   1.850
40194W        W11810  24.072  12.806  14.443
40195W        W11811   4.006  11.743   0.214
40196W        W11812  42.999  41.443   1.769
40197W        W11813  17.878  41.480   4.298
40198W        W11814   7.859   4.687   3.093
40199W        W11815  21.252  38.137   1.824
40200W        W11816  13.964  39.891   3.638
40201W        W11817   7.192   6.902  13.586
40202W        W11818  29.696  30.896  12.379
40203W        W11819   1.379  32.805  13.811
40204W        W11820  28.715   4.701   2.889
40205W        W11821   1.419  33.127  13.385
40206W        W11822   4.673  25.186  11.536
40207W        W11823   0.307  12.387  11.973
40208W        W11824  18.837  23.570  12.976
40209W        W11825  17.579  44.474  11.982
40210W        W11826  41.873   6.165  10.704
40211W        W11827  40.512  44.952   2.686
40212W        W11828  42.528  31.468   3.294
40213W        W11829  26.111  22.976   2.242
40214W        W11830   3.156  31.621  13.988
40215W        W11831  33.696  12.262  12.799
40216W        W11832  30.433  14.702  11.640
40217W        W11833  16.648  39.809  14.342
40218W        W11834  41.576  21.113  11.391
40219W        W11835  42.691  44.954   4.041
40220W        W11836  37.409  34.356   0.766
40221W        W11837   3.011  28.979  14.994
40222W        W11838  10.901   0.918   0.365
40223W        W11839   1.237  25.216   2.963
40224W        W11840  37.324  30.962   2.873
40225W        W11841  37.426  16.281   0.338
40226W        W11842  14.057  17.840   2.275
40227W        W11843  33.149   4.271   0.945
40228W        W11844  30.653   2.299  13.367
40229W        W11845   0.996  30.421  14.049
40230W        W11846  42.184   2.507   2.327
40231W        W11847   7.791  31.100  12.881
40232W        W11848   1.902  24.262  14.001
40233W        W11849  35.721  22.347  14.799
40234W        W11850  24.521   4.673   2.187
40235W        W11851   6.717  25.073   2.185
40236W        W11852   5.858   0.601   0.455
40237W        W11853  16.151  42.554  11.195
40238W        W11854   2.392  39.820   4.380
40239W        W11855  33.003   2.818  10.970
40240W        W11856   5.477  23.796  14.811
40241W        W11857  25.290  33.895  14.537
40242W        W11858   4.241  23.003  12.365
40243W        W11859  38.792  34.013   3.070
40244W        W11860  11.639  37.381  14.026
40245W        W11861   8.387  25.519   1.426
40246W        W11862  16.150  27.337  13.802
40247W        W11863   7.679  20.965  14.589
40248W        W11864  10.552  21.901  14.521
40249W        W11865   3.080  12.141  13.555
40250W        W11866  42.368   2.304  14.028
40251W        W11867  36.904  14.135   2.818
40252W        W11868   0.339  39.111   2.067
40253W        W11869  23.985   2.223  14.939
40254W        W11870   7.972  12.186  14.005
40255W        W11871  27.355  36.919  12.877
40256W        W11872  15.189  25.278  14.216
40257W        W11873  10.798  24.563   4.104
40258W        W11874   4.804  40.049   3.853
40259W        W11875  17.681  23.960  13.446
40260W        W11876   8.138  13.949   4.379
40261W        W11877   6.688  29.532  11.628
40262W        W11878  26.374  25.312   9.988
40263W        W11879  33.803  32.087   1.775
40264W        W11880   0.734  14.607  10.662
40265W        W11881   2.415  26.796  14.055
40266W        W11882  15.893  23.458   3.791
40267W        W11883  37.648  29.032   4.265
40268W        W11884  33.270  10.134  10.744
40269W        W11885  29.718  32.721   3.662
40270W        W11886  40.739   2.017   0.790
40271W        W11887  24.565  17.937  12.860
40272W        W11888  40.340  16.271   3.844
40273W        W11889  19.481   8.306   2.494
40274W        W11890  28.588  23.053  13.548
40275W        W11891  28.225  40.001  13.963
40276W        W11892  23.095  24.478  12.984
40277W        W11893   9.103   1.960  14.852
40278W        W11894   5.075  29.634   2.192
40279W        W11895   4.866  16.904   3.804
40280W        W11896  28.689  28.205  14.436
40281W        W11897  41.505  33.566   4.519
40282W        W11898  13.716  23.602  10.598
40283W        W11899   7.836  26.176   3.875
40284W        W11900  28.028  24.910   1.026
40285W        W11901  16.245  30.846  12.115
40286W        W11902  37.803   8.191   2.423
40287W        W11903   6.193   6.926   3.628
40288W        W11904  13.289  30.556   2.699
40289W        W11905  41.883   1.662  12.597
40290W        W11906  27.392   4.312   2.702
40291W        W11907   4.781  44.751  11.222
40292W        W11908   9.749  27.439   3.656
40293W        W11909  12.823  16.318  14.632
40294W        W11910  43.080  39.116  11.921
40295W        W11911  33.395  27.158  10.746
40296W        W11912  35.115  19.130  12.032
40297W        W11913  41.874  22.975   4.723
40298W        W11914  14.840  33.610  11.894
40299W        W11915  25.522  18.730  14.863
40300W        W11916  32.416  42.544  11.607
40301W        W11917   0.997  21.293  13.004
40302W        W11918  28.556  43.022   4.979
40303W        W11919   7.328  24.740   2.593
40304W        W11920  16.660  44.816   2.135
40305W        W11921   7.551  20.814  11.303
40306W        W11922   8.815  44.540   3.215
40307W        W11923   6.700  24.165  11.668
40308W        W11924  26.628  15.759   3.220
40309W        W11925  41.971  13.427  13.627
40310W        W11926  16.508   8.244  11.641
40311W        W11927  36.810  14.076  11.386
40312W        W11928  14.549  28.065  13.377
40313W        W11929   2.695  33.981   4.573
40314W        W11930  20.776  19.036   3.795
40315W        W11931  33.669  10.803  12.514
40316W        W11932  36.908   5.577  13.919
40317W        W11933   9.929  39.642  11.652
40318W        W11934   0.389  33.846   2.805
40319W        W11935  25.521  15.416  14.891
40320W        W11936  21.342  22.061  14.781
40321W        W11937  16.929   6.204  13.947
40322W        W11938  17.840  23.218   0.270
40323W        W11939  33.797   7.330   2.311
40324W        W11940  31.393  23.083   4.622
40325W        W11941   1.697  32.866   4.623
40326W        W11942  36.108  23.844   3.422
40327W        W11943  14.799  39.826  12.057
40328W        W11944   5.345  38.073   4.099
40329W        W11945  43.020  30.094   2.107
40330W        W11946  22.441   7.110   2.307
40331W        W11947  38.494  14.173  13.910
40332W        W11948   2.450  18.169   1.921
40333W        W11949  21.703   2.913  12.658
40334W        W11950  37.405  19.043  10.444
40335W        W11951  43.031  26.942  12.391
40336W        W11952  40.821  33.451   1.720
40337W        W11953  23.493  23.992  13.864
40338W        W11954  28.440  31.972  14.277
40339W        W11955   5.775  16.105   3.607
40340W        W11956  44.900   4.092  10.721
40341W        W11957  20.237  36.923   5.006
40342W        W11958  42.988  29.591   1.821
40343W        W11959  11.678  26.550  13.550
40344W        W11960  16.558  35.029  11.041
40345W        W11961   0.812  44.545   2.669
40346W        W11962  42.041   2.064   3.597
40347W        W11963  14.828  42.772  12.007
40348W        W11964  33.556  42.497   3.715
40349W        W11965  36.443   5.059   4.154
40350W        W11966  42.351   5.304   1.797
40351W        W11967   1.705  32.104  10.650
40352W        W11968  10.790   6.740  13.888
40353W        W11969  33.922  34.329  11.748
40354W        W11970  22.508  11.566  10.660
40355W        W11971  19.146  23.555  14.998
40356W        W11972  15.642  42.794   2.107
40357W        W11973   2.863  30.255   3.751
40358W        W11974  33.181  13.543  11.045
40359W        W11975  37.913  38.350  12.075
40360W        W11976   5.790  26.640  13.485
40361W        W11977  36.226  11.633   5.298
40362W        W11978   7.907   9.085   4.606
40363W        W11979  21.059  17.701   3.387
40364W        W11980  18.783  38.952  10.708
40365W        W11981  20.259  21.032   0.069
40366W        W11982   4.307  27.620  11.668
40367W        W11983  16.972  22.769   1.385
40368W        W11984   5.929  31.418   3.414
40369W        W11985  29.471  32.999  14.536
40370W        W11986  37.083  36.176   0.971
40371W        W11987  13.092   0.977   3.677
40372W        W11988  16.836   6.125  13.039
40373W        W11989  25.675  16.247  12.461
40374W        W11990  26.966  29.343   1.004
40375W        W11991  31.718  29.645  11.074
40376W        W11992  33.116  27.057  12.064
40377W        W11993  34.556  43.546   0.003
40378W        W11994  28.029  42.805   0.537
40379W        W11995  13.260  11.804  14.472
40380W        W11996  31.692  18.022  13.455
40381W        W11997   6.385  24.097   4.412
40382W        W11998  22.941   4.534   1.730
40383W        W11999  39.475  14.618  12.500
40384W        W12000  19.713  11.961  13.629
40385W        W12001  27.040  44.012   4.044
40386W        W12002  35.122   6.312   5.018
40387W        W12003  30.956  39.393  11.625
40388W        W12004  10.277  29.679  10.684
40389W        W12005  18.235   0.239   0.776
40390W        W12006  20.001   4.762  10.519
40391W        W12007  27.415  20.720  14.824
40392W        W12008  27.603  23.307   4.293
40393W        W12009  29.342  25.555   2.673
40394W        W12010   6.466  13.244  13.816
40395W        W12011   8.538  14.302   1.204
40396W        W12012   7.438  43.856  11.969
40397W        W12013  29.569  38.094  12.182
40398W        W12014  13.574   6.829  13.458
40399W        W12015  23.764  19.026  13.674
40400W        W12016  17.119  23.243   4.435
40401W        W12017  14.117  22.890  14.989
40402W        W12018  37.411   3.768   0.223
40403W        W12019   0.989  16.030   4.193
40404W        W12020  18.515  16.078  14.327
40405W        W12021  20.067  43.982  13.372
40406W        W12022  24.483  38.032  13.333
40407W        W12023  17.804  13.756  12.004
40408W        W12024   4.316  43.900   1.804
40409W        W12025  27.826  18.789  14.649
40410W        W12026  12.094  21.665   0.395
40411W        W12027  42.638  30.172   3.620
40412W        W12028  13.195  43.025   4.131
40413W        W12029  11.370  44.765   2.854
40414W        W12030  29.093  43.398  13.537
40415W        W12031   0.382   7.878  14.060
40416W        W12032  21.793   3.079   5.070
40417W        W12033  22.984  10.292  13.562
40418W        W12034  23.519   4.416  13.404
40419W        W12035   4.511  32.823  13.403
40420W        W12036  34.905  29.971   4.654
40421W        W12037   6.801  31.304   2.273
40422W        W12038   1.679  41.456  12.473
40423W        W12039  38.684   2.468  11.132
40424W        W12040  28.527  16.243   1.245
40425W        W12041  34.785  11.317   1.491
40426W        W12042  27.360  10.847  14.385
40427W        W12043  42.420  37.000  13.992
40428W        W12044  23.599  37.016   2.399
40429W        W12045   8.516  14.144  12.007
40430W        W12046  24.685  13.726  10.952
40431W        W12047  21.088   4.215   3.178
40432W        W12048  24.569  17.284  14.962
40433W        W12049  34.807  40.148   0.522
40434W        W12050  39.775  31.073  12.446
40435W        W12051  39.722  28.663   2.744
40436W        W12052  19.609  16.408   3.299
40437W        W12053   5.216  36.686   2.827
40438W        W12054   6.346  17.628  13.534
40439W        W12055  14.753  19.047  11.943
40440W        W12056   4.644  44.197   3.663
40441W        W12057  30.098  41.369  11.991
40442W        W12058  23.109   7.864  11.056
40443W        W12059  35.892   1.391  12.378
40444W        W12060  38.065  13.866   1.382
40445W        W12061  35.970  15.476  12.664
40446W        W12062  13.372  42.378  11.659
40447W        W12063  36.933  29.010  13.514
40448W        W12064  24.714   5.634  14.520
40449W        W12065  12.723  35.867  14.328
40450W        W12066  18.056   5.514   3.587
40451W        W12067  42.207  35.932  11.170
40452W        W12068  43.434  31.657   1.257
40453W        W12069  26.274  31.463  13.451
40454W        W12070  44.203  20.637  12.102
40455W        W12071   8.852  20.211   4.009
40456W        W12072   2.403  20.111   3.766
40457W        W12073  28.175  41.988   2.801
40458W        W12074  41.839  42.488   1.833
40459W        W12075  42.941  15.201   1.406
40460W        W12076   2.190  14.459   3.755
40461W        W12077  29.600  12.414   3.774
40462W        W12078  12.812  40.408  13.281
40463W        W12079  15.945  36.534   0.810
40464W        W12080  23.528   3.634  11.638
40465W        W12081  28.540  27.021  12.022
40466W        W12082   7.013  28.829   0.364
40467W        W12083   2.974   5.216  10.430
40468W        W12084  12.287   6.215  10.665
40469W        W12085  14.373  18.640   1.476
40470W        W12086  40.416  32.904   1.256
40471W        W12087  22.636  35.341  11.327
40472W        W12088  31.641  12.302  11.044
40473W        W12089   6.668  18.807   4.878
40474W        W12090  13.063  41.895  14.764
40475W        W12091  18.257   8.258   0.791
40476W        W12092  36.052  40.391  13.254
40477W        W12093   4.178  44.708  14.038
40478W        W12094  18.044  22.244  12.850
40479W        W12095   8.642  12.559  14.464
40480W        W12096  39.237   4.907   3.350
40481W        W12097  25.202  23.688  13.890
40482W        W12098   5.130  16.597   3.216
40483W        W12099  42.986  32.011   1.324
40484W        W12100   2.691  37.655  14.468
40485W        W12101  30.526  20.790  13.851
40486W        W12102  12.524  14.755   0.276
40487W        W12103  19.079  26.548   5.047
40488W        W12104  14.822  41.867   4.511
40489W        W12105  23.533  17.971  14.488
40490W        W12106   5.034  12.422  12.894
40491W        W12107  23.513   7.851  12.595
40492W        W12108  26.965  18.869  14.378
40493W        W12109  38.469  26.561   2.671
40494W        W12110  24.352  38.355  11.528
40495W        W12111   9.813   3.675  12.387
40496W        W12112  38.371  15.523   0.934
40497W        W12113   6.737   4.137   0.691
40498W        W12114   9.818  40.317   0.240
40499W        W12115  31.541  20.067  11.042
40500W        W12116   7.186  14.158   1.900
40501W        W12117   7.924  23.163   0.034
40502W        W12118  37.880  32.680  11.138
40503W        W12119  31.861  36.318  11.170
40504W        W12120  19.821  13.806  14.834
40505W        W12121  14.006   2.722  11.723
40506W        W12122  15.824  12.432   3.838
40507W        W12123  11.415  15.608  12.028
40508W        W12124  40.196  30.417   9.752
40509W        W12125  23.001  43.797   3.603
40510W        W12126   1.485   1.342  11.304
40511W        W12127  32.302  29.115   1.668
40512W        W12128   3.860  20.024   0.330
40513W        W12129  37.343  43.063  13.507
40514W        W12130  28.954   6.078  12.257
40515W        W12131  20.787  12.878   1.274
40516W        W12132   5.998  33.034  14.411
40517W        W12133  23.135   3.521   1.359
40518W        W12134  23.456   3.254  12.119
40519W        W12135  38.542  28.269   1.198
40520W        W12136  23.698  33.842   1.406
40521W        W12137  34.899  12.319  13.712
40522W        W12138  44.268  22.790   4.173
40523W        W12139  14.355  44.882   0.835
40524W        W12140  21.741  19.208   1.442
40525W        W12141  29.513  22.431  11.733
40526W        W12142  25.645   7.897   4.363
40527W        W12143   3.714  42.472  12.415
40528W        W12144  13.823  21.968   3.587
40529W        W12145  34.281  30.674   4.086
40530W        W12146   9.870  42.977   0.367
40531W        W12147   0.818  34.592  14.835
40532W        W12148  21.578  14.760  12.115
40533W        W12149  41.995  10.697   4.149
40534W        W12150  21.261  29.596   3.146
40535W        W12151  14.025  28.953  10.538
40536W        W12152  39.736  21.130  14.346
40537W        W12153   0.306   0.912  14.093
40538W        W12154  11.782  35.489   2.377
40539W        W12155  22.507  12.153   4.357
40540W        W12156   6.401  37.294   4.588
40541W        W12157   0.625   2.898   3.664
40542W        W12158  39.701  35.336   0.943
40543W        W12159  25.975  16.818  11.386
40544W        W12160  10.932  43.878   4.158
40545W        W12161  21.804   6.882  14.387
40546W        W12162  44.939   3.285  11.241
40547W        W12163  23.011  25.122  10.740
40548W        W12164   0.948  14.488   2.784
40549W        W12165  28.861   5.545   0.243
40550W        W12166   1.676  19.245  11.641
40551W        W12167   6.680  42.884   1.265
40552W        W12168  17.532  19.641  13.292
40553W        W12169  42.800  18.955  12.934
40554W        W12170  14.237  28.466   4.622
40555W        W12171  27.877   7.142   0.128
40556W        W12172  21.452   7.363  14.313
40557W        W12173  37.035  40.393  12.542
40558W        W12174  27.439  42.281  10.950
40559W        W12175  22.494  12.884   2.807
40560W        W12176  20.741  34.362   4.310
40561W        W12177  17.332  16.083   3.375
40562W        W12178   6.153   0.671  14.301
40563W        W12179   7.349   6.310  14.911
40564W        W12180  26.777  13.082   3.472
40565W        W12181  16.064   9.758  14.906
40566W        W12182   0.776  20.562   0.163
40567W        W12183  29.774  40.304   3.379
40568W        W12184  14.891  34.663  11.613
40569W        W12185  43.111  40.107   2.899
40570W        W12186  34.906  42.358   1.978
40571W        W12187   9.179   0.945  11.190
40572W        W12188  18.566  10.367  14.477
40573W        W12189  32.431  38.977   0.590
40574W        W12190  17.532   4.712   3.695
40575W        W12191  41.056  30.968  13.883
40576W        W12192  16.282  13.996   4.095
40577W        W12193  26.495   7.326  13.283
40578W        W12194  15.697  44.086  11.499
40579W        W12195  37.907   4.979  14.470
40580W        W12196   6.078   1.356  12.172
40581W        W12197  36.028  25.484  11.596
40582W        W12198   1.492  32.330  14.521
40583W        W12199  35.044  11.549   3.460
40584W        W12200  41.594   9.766   3.186
40585W        W12201  32.956  27.062   2.139
40586W        W12202  24.017  26.148   3.241
40587W        W12203  15.121  40.537  14.263
40588W        W12204  22.379  34.693   2.351
40589W        W12205  22.224   1.783  12.513
40590W        W12206  12.394  40.117  14.942
40591W        W12207  43.310  36.875   1.369
40592W        W12208  31.514   9.060  14.277
40593W        W12209  12.306  42.720  13.900
40594W        W12210  30.830  33.593  10.610
40595W        W12211   6.004  13.090   2.070
40596W        W12212  31.420  24.480   1.169
40597W        W12213  23.295  39.930   3.670
40598W        W12214  30.240  35.060   4.850
40599W        W12215  35.362  29.439   1.094
40600W        W12216  10.707  35.096   4.663
40601W        W12217  31.542  23.191  11.976
40602W        W12218  23.158  39.799  14.165
40603W        W12219   4.744  12.336  10.367
40604W        W12220   2.735  32.970  13.869
40605W        W12221  18.511  43.771  13.878
40606W        W12222  10.899  15.260  13.307
40607W        W12223  15.131  33.945   2.384
40608W        W12224  11.619  20.007   0.098
40609W        W12225  44.335  32.836  14.860
40610W        W12226   7.452  27.509   0.945
40611W        W12227  32.078  20.186   3.562
40612W        W12228  35.015  10.393   4.879
40613W        W12229  26.291  28.698   1.867
40614W        W12230  36.453  42.511   3.769
40615W        W12231   2.276  25.506  10.620
40616W        W12232   3.776  18.081   2.184
40617W        W12233   0.187  17.173  11.048
40618W        W12234  24.113  24.592   2.666
40619W        W12235  10.389  32.638   2.795
40620W        W12236   1.153  14.920  10.665
40621W        W12237  42.174   2.902   2.686
40622W        W12238   7.213  43.234  14.329
40623W        W12239   9.361  42.637  13.813
40624W        W12240   6.890  28.606  11.877
40625W        W12241  18.846  43.360  13.946
40626W        W12242  19.157  30.986   2.421
40627W        W12243  17.556   4.652  14.312
40628W        W12244  26.453   9.388  13.525
40629W        W12245  19.244  17.297  12.047
40630W        W12246  32.656  24.399   2.081
40631W        W12247   6.109  30.885   3.346
40632W        W12248  38.295  38.043  14.439
40633W        W12249   3.466  23.198  14.824
40634W        W12250  26.730   3.988  13.366
40635W        W12251   6.287  43.673   1.102
40636W        W12252  28.501  28.085   0.845
40637W        W12253  33.148   5.218   0.984
40638W        W12254  21.032  39.441  11.555
40639W        W12255  18.139  23.246  11.960
40640W        W12256  36.587  43.461   3.211
40641W        W12257  38.942  32.950   1.476
40642W        W12258   0.884   7.132  13.925
40643W        W12259  28.045   6.449   0.867
40644W        W12260   4.749  26.729   2.399
40645W        W12261   9.337  19.535  13.049
40646W        W12262  44.730  20.515  13.479
40647W        W12263  28.660  42.208   2.838
40648W        W12264   0.829   3.065   5.045
40649W        W12265   8.698  26.973  13.387
40650W        W12266  32.647  14.553  12.386
40651W        W12267   8.008   7.909  13.307
40652W        W12268  36.857  17.255   3.972
40653W        W12269  14.140  16.875   5.565
40654W        W12270  14.842  12.803  10.740
40655W        W12271  16.722   9.046  11.616
40656W        W12272  25.206   3.859  12.960
40657W        W12273  12.612   5.498  11.519
40658W        W12274  23.571   8.130   0.392
40659W        W12275  44.490  12.179   2.401
40660W        W12276   2.856  35.300  10.639
40661W        W12277  33.284  30.522  14.490
40662W        W12278  33.105   6.762   1.850
40663W        W12279  15.136  15.608   3.319
40664W        W12280   4.306  25.187  14.350
40665W        W12281  10.867  21.484   0.734
40666W        W12282   4.947  41.944   4.526
40667W        W12283  24.564  22.765   2.696
40668W        W12284  33.043  21.501   4.845
40669W        W12285  41.448   5.655  13.318
40670W        W12286  17.696  22.013   4.508
40671W        W12287  22.676  24.983  12.476
40672W        W12288  12.073   5.874  12.192
40673W        W12289  11.608  40.784  14.914
40674W        W12290  33.929  29.197  12.113
40675W        W12291  32.316  27.943   2.824
40676W        W12292  19.240  30.507  12.990
40677W        W12293  30.473  39.180  14.211
40678W        W12294  18.898  19.666   2.836
40679W        W12295   4.777  37.776  14.919
40680W        W12296  18.580  21.856   0.659
40681W        W12297  23.213  10.383  14.000
40682W        W12298  15.523  20.704  13.598
40683W        W12299  10.286  44.563  11.974
40684W        W12300  37.658   4.903   5.150
40685W        W12301  11.678  17.224   4.598
40686W        W12302   9.107  34.578   0.212
40687W        W12303   1.959  31.388  11.354
40688W        W12304  25.934  29.568   4.663
40689W        W12305  11.701  34.717  12.923
40690W        W12306  17.269  35.798  14.729
40691W        W12307  23.040   0.461   1.805
40692W        W12308   4.302  22.207  10.607
40693W        W12309  32.387  23.704  10.946
40694W        W12310   7.837  29.196  10.657
40695W        W12311  35.313   3.008  13.364
40696W        W12312  12.711  25.216   2.662
40697W        W12313   4.767  21.003  13.670
40698W        W12314  33.290  26.030  12.109
40699W        W12315  35.559  42.320   4.304
40700W        W12316  22.255   1.070   4.553
40701W        W12317  17.970  34.403  11.235
40702W        W12318  24.719  40.432  14.432
40703W        W12319   6.649  43.937   3.680
40704W        W12320  10.775  28.655   0.276
40705W        W12321  28.006  44.262   1.988
40706W        W12322  21.537  14.602  14.958
40707W        W12323  18.550  13.104   3.891
40708W        W12324  22.571  29.681  14.072
40709W        W12325  36.813  15.299   2.285
40710W        W12326  18.350  31.068  13.868
40711W        W12327   1.002  42.388   1.718
40712W        W12328  39.884  19.676   2.999
40713W        W12329   0.865  19.676  14.401
40714W        W12330  21.257   6.176   0.553
40715W        W12331  40.645  28.210  10.158
40716W        W12332  11.700  20.278   0.850
40717W        W12333  19.927   3.484  10.767
40718W        W12334  18.228  13.448  11.864
40719W        W12335  39.399  43.367  13.267
40720W        W12336  28.133   5.819  10.952
40721W        W12337  42.439   4.847   3.558
40722W        W12338  41.605  12.549  14.307
40723W        W12339  28.918  13.057  14.768
40724W        W12340  33.268  19.196   4.698
40725W        W12341  28.629  43.564  13.357
40726W        W12342  42.080  14.369  12.615
40727W        W12343  31.955  42.433   1.448
40728W        W12344  40.932  13.906  11.655
40729W        W12345  29.660  14.694  13.993
40730W        W12346  29.720  37.968   4.441
40731W        W12347  29.703  41.813  13.805
40732W        W12348  24.101  24.993  12.545
40733W        W12349   2.084  21.250  14.461
40734W        W12350  36.126  24.579  14.908
40735W        W12351   3.777   1.845   4.048
40736W        W12352  23.209   6.969  12.150
40737W        W12353   8.824  43.813   1.454
40738W        W12354  38.841  27.159  11.507
40739W        W12355  40.836  38.395   4.688
40740W        W12356  35.987  15.642  14.915
40741W        W12357  22.723  39.927   0.904
40742W        W12358  43.039  34.246   3.546
40743W        W12359  19.980   9.753   0.502
40744W        W12360  18.738  29.057   3.686
40745W        W12361  27.354  29.594   0.800
40746W        W12362   8.315  24.677   0.989
40747W        W12363  44.808  29.978  12.867
40748W        W12364  20.669  40.174   4.414
40749W        W12365   6.103  33.588  13.065
40750W        W12366  31.729   8.518  13.064
40751W        W12367  33.020  34.009   4.631
40752W        W12368  36.095  13.374   2.835
40753W        W12369  32.601  22.145   2.163
40754W        W12370  22.491  10.171  12.208
40755W        W12371  18.786  11.283   1.375
40756W        W12372  34.550  37.950  12.598
40757W        W12373  25.862   1.760  13.106
40758W        W12374  14.610  26.362   4.785
40759W        W12375  34.140  40.955  14.781
40760W        W12376   8.911  30.847   4.590
40761W        W12377  41.815  28.523   1.338
40762W        W12378  19.593   8.214   0.997
40763W        W12379  20.338   2.787  12.119
40764W        W12380  34.050  12.746   2.216
40765W        W12381   4.333  41.603  13.455
40766W        W12382  10.626  36.364   1.839
40767W        W12383   0.254  11.137   4.552
40768W        W12384  15.782  41.910   1.225
40769W        W12385  33.372  38.891   0.024
40770W        W12386  38.112  26.456   3.639
40771W        W12387  18.734  26.735  12.040
40772W        W12388  25.071   6.332   4.629
40773W        W12389  44.022  12.860   0.964
40774W        W12390  41.778  11.319  13.921
40775W        W12391  34.940  30.882  13.619
40776W        W12392  40.607   3.458   1.870
40777W        W12393   3.296  31.411  12.999
40778W        W12394  33.688  23.658   4.504
40779W        W12395  12.837  20.971  11.098
40780W        W12396  40.279  17.259   2.753
40781W        W12397  41.794  12.887   0.349
40782W        W12398   9.536  15.031   1.426
40783W        W12399   7.723  33.450   0.504
40784W        W12400  23.137  21.779   1.763
40785W        W12401  35.425  18.601  13.039
40786W        W12402  36.593  16.768  14.524
40787W        W12403  17.395  18.233   2.782
40788W        W12404  42.673  21.701  11.781
40789W        W12405  16.652  25.542  14.962
40790W        W12406  17.055   6.669  11.500
40791W        W12407  39.718  19.307  13.610
40792W        W12408  40.820   2.734   2.837
40793W        W12409  32.458   2.439   2.129
40794W        W12410   1.951  21.891   5.263
40795W        W12411  38.579  23.242  12.207
40796W        W12412  24.716  29.854  11.532
40797W        W12413  26.771  20.611  14.024
40798W        W12414   3.579  20.510   3.197
40799W        W12415   6.890   4.145  12.086
40800W        W12416  26.259  44.923   4.645
40801W        W12417  34.008   8.538   4.904
40802W        W12418   3.794   0.364   0.092
40803W        W12419   4.175  24.434  13.888
40804W        W12420  36.911   3.477   0.215
40805W        W12421  33.198  43.495  14.010
40806W        W12422  44.727  31.223  12.289
40807W        W12423  32.541  42.053   4.484
40808W        W12424  25.034  30.205  14.483
40809W        W12425  15.602  21.712   4.559
40810W        W12426   7.250  28.150  14.490
40811W        W12427  12.646   4.782  10.208
40812W        W12428  18.106  38.588  11.368
40813W        W12429  34.401  44.351   4.743
40814W        W12430   7.036  16.916   0.647
40815W        W12431  12.153  36.556  10.546
40816W        W12432  36.399  28.640  10.480
40817W        W12433  42.887  24.616  14.702
40818W        W12434  22.082  19.250   4.203
40819W        W12435  25.310  29.500  10.783
40820W        W12436   9.330   5.399  13.309
40821W        W12437  17.263   1.192  14.339
40822W        W12438  16.480  33.335   2.631
40823W        W12439  32.959  33.332  10.649
40824W        W12440  34.455  15.600   3.175
40825W        W12441  33.122  31.350  11.839
40826W        W12442  28.848  16.674  14.434
40827W        W12443  42.400  15.809   1.917
40828W        W12444  16.321  38.260   0.861
40829W        W12445  30.886  33.823  11.088
40830W        W12446  22.377  36.098  14.048
40831W        W12447   0.950  36.642   2.759
40832W        W12448  31.131   2.039   0.763
40833W        W12449  33.333  42.064   2.177
40834W        W12450  14.021  38.420  11.920
40835W        W12451  35.008   9.825  11.773
40836W        W12452  41.873  17.800   3.279
40837W        W12453  36.501  43.700   0.880
40838W        W12454   1.535  44.912  13.817
40839W        W12455  37.123   2.450  11.091
40840W        W12456  15.761  22.610  14.029
40841W        W12457  19.500  40.104   3.060
40842W        W12458  27.876  13.635   5.452
40843W        W12459  14.826   7.417   0.914
40844W        W12460  29.405  35.787  12.782
40845W        W12461  33.464   2.378   2.207
40846W        W12462   9.724   7.110   1.495
40847W        W12463  18.538  33.706  11.948
40848W        W12464   5.263  23.508  10.886
40849W        W12465  39.569   0.585  14.218
40850W        W12466  14.252  15.279   0.359
40851W        W12467  30.052   1.524   1.397
40852W        W12468  21.271  12.697   3.211
40853W        W12469  44.547  10.308   1.652
40854W        W12470  28.480  37.484   1.809
40855W        W12471   9.605  43.318   2.123
40856W        W12472  10.434  30.200  14.232
40857W        W12473  35.158  34.487   3.117
40858W        W12474  37.288  16.087  14.890
40859W        W12475  16.462  36.311  13.825
40860W        W12476   8.718   4.885  13.118
40861W        W12477  10.192  16.587   4.050
40862W        W12478  11.213  21.138  10.898
40863W        W12479  31.011  20.692  14.432
40864W        W12480  10.100  15.607   1.791
40865W        W12481  21.085   2.753   0.413
40866W        W12482  22.595  22.697  13.075
40867W        W12483  26.968  42.012   4.264
40868W        W12484  39.361   5.810  10.330
40869W        W12485  41.102  23.451   4.539
40870W        W12486  13.428  15.329   3.368
40871W        W12487  33.390  29.179   3.673
40872W        W12488  42.038   2.987  11.587
40873W        W12489  34.877   9.233  10.918
40874W        W12490  11.379  33.046  13.550
40875W        W12491  20.470  38.859   4.383
40876W        W12492  41.931  27.543  14.732
40877W        W12493  13.775  44.773   1.650
40878W        W12494  36.456  10.290   5.023
40879W        W12495   5.806  10.313  11.278
40880W        W12496  39.368   1.166   2.369
40881W        W12497  30.153  25.053   4.073
40882W        W12498  27.212   4.552  10.287
40883W        W12499  17.610  34.176   1.095
40884W        W12500   2.015  32.478   4.810
40885W        W12501  18.700   9.828  13.066
40886W        W12502   4.204  36.328  11.641
40887W        W12503  28.706  42.391  13.370
40888W        W12504  31.551  27.154  10.596
40889W        W12505  28.088  15.114   3.824
40890W        W12506  29.974  14.750  13.558
40891W        W12507  38.366  15.296  11.160
40892W        W12508  10.137  35.235   3.057
40893W        W12509  29.415  43.090   4.203
40894W        W12510  23.251  30.785  12.804
40895W        W12511  44.486  34.432   2.347
40896W        W12512  27.123  37.332   0.292
40897W        W12513  36.388  10.942   2.354
40898W        W12514  28.670  14.020   2.872
40899W        W12515  28.941  26.630   1.367
40900W        W12516   5.383  43.787   4.125
40901W        W12517  23.664  19.999   3.938
40902W        W12518  41.601  27.775  13.296
40903W        W12519  28.209  19.467  10.781
40904W        W12520  33.885   4.476  13.879
40905W        W12521  19.104   7.380   1.636
40906W        W12522  13.274  31.985  12.878
40907W        W12523  31.809   4.037  13.827
40908W        W12524  33.004   6.825  12.242
40909W        W12525  22.260  22.476   3.740
40910W        W12526  40.430  41.050   2.896
40911W        W12527   6.826  20.526   0.245
40912W        W12528   9.174  36.548   2.947
40913W        W12529  38.090  34.401  12.858
40914W        W12530  12.955  22.599  14.293
40915W        W12531  32.374  27.410   2.827
40916W        W12532   6.711   0.738  12.069
40917W        W12533   8.874  11.929  13.442
40918W        W12534   2.669  10.437  11.100
40919W        W12535  15.171  11.595  13.783
40920W        W12536  17.520  21.306   1.909
40921W        W12537  24.996   1.893   3.876
40922W        W12538  34.693  16.221   0.008
40923W        W12539  43.520  30.032   3.851
40924W        W12540  23.744  23.301   2.291
40925W        W12541  22.551  25.156   3.833
40926W        W12542  39.696  33.968  10.700
40927W        W12543   0.735  22.637  14.311
40928W        W12544  20.059  27.874   4.992
40929W        W12545  20.610  22.049  14.457
40930W        W12546   6.917  37.780  13.361
40931W        W12547   0.727  15.309   3.721
40932W        W12548  35.072  11.382  11.587
40933W        W12549  15.090  32.167  12.436
40934W        W12550  35.155  11.678   1.681
40935W        W12551  43.439  20.784  14.305
40936W        W12552  13.131  33.677   3.732
40937W        W12553  28.087  24.573  14.819
40938W        W12554  37.014  39.431   4.406
40939W        W12555  43.726  29.666   1.417
40940W        W12556  18.535   3.334   3.711
40941W        W12557  36.662   9.157   0.390
40942W        W12558  42.238   0.941   4.865
40943W        W12559  14.482   4.671  13.501
40944W        W12560  14.302   3.832  12.520
40945W        W12561  41.964   0.148   0.764
40946W        W12562  22.038  37.853  11.048
40947W        W12563  15.400  19.625   1.160
40948W        W12564   0.897  35.057   4.582
40949W        W12565  43.485  26.630   2.662
40950W        W12566   8.259  37.532  10.737
40951W        W12567  38.001  32.931  13.035
40952W        W12568  18.836   9.363  12.623
40953W        W12569   2.669  16.283   3.179
40954W        W12570   3.436  42.396  11.925
40955W        W12571  16.899  23.154  11.032
40956W        W12572  15.515  38.050  10.912
40957W        W12573  26.511  29.652   3.532
40958W        W12574  43.541  35.759   3.377
40959W        W12575  16.364  12.887   0.444
40960W        W12576  28.641  10.298  14.820
40961W        W12577  37.870   1.206  13.529
40962W        W12578  27.141  26.413  11.586
40963W        W12579  12.316  13.286  11.092
40964W        W12580  42.613  12.258  14.967
40965W        W12581  21.961  22.470   4.158
40966W        W12582  30.873  34.362  14.510
40967W        W12583  31.895   8.184   4.306
40968W        W12584   9.163  14.809   2.673
40969W        W12585   2.474  18.739  12.449
40970W        W12586  26.149  21.384   0.049
40971W        W12587  23.617  16.633   0.542
40972W        W12588  19.568  34.099  12.059
40973W        W12589   5.736  19.588  14.930
40974W        W12590  12.689   8.196   3.666
40975W        W12591  44.790  28.484   0.690
40976W        W12592  38.315  19.603  13.658
40977W        W12593  36.397  10.858  11.648
40978W        W12594   2.765   3.338   1.565
40979W        W12595  18.158  28.418   3.252
40980W        W12596  27.749   9.966   0.258
40981W        W12597  37.613   5.359   4.903
40982W        W12598   6.971  33.351   4.156
40983W        W12599  33.359  15.146   0.952
40984W        W12600  29.605  13.508  12.033
40985W        W12601  35.467  42.045  14.889
40986W        W12602   5.686  41.260  12.082
40987W        W12603  42.465   5.702   4.146
40988W        W12604  14.893  31.796  13.374
40989W        W12605  29.604  44.285  14.493
40990W        W12606  15.335  22.510   2.701
40991W        W12607  41.832  25.544   3.171
40992W        W12608  16.695   2.890   1.983
40993W        W12609  22.042  18.976  13.377
40994W        W12610  35.862  22.057   0.719
40995W        W12611   9.364  30.447  12.337
40996W        W12612  42.070   1.434   3.801
40997W        W12613   1.346  11.217   3.442
40998W        W12614  40.397  32.398   2.612
40999W        W12615   3.990   2.002   4.477
41000W        W12616  39.920  39.761   3.736
41001W        W12617  29.433  24.583   4.131
41002W        W12618  35.051  20.633  11.511
41003W        W12619  33.327   8.615  13.663
41004W        W12620   1.129  35.439  13.507
41005W        W12621  41.023   4.294   2.596
41006W        W12622   9.242   4.557   3.768
41007W        W12623  16.014  37.639  12.078
41008W        W12624  29.107  22.190   0.702
41009W        W12625  12.198  43.048   4.282
41010W        W12626   2.928  12.663   3.691
41011W        W12627   1.806  16.275  12.096
41012W        W12628  24.991  14.760   0.684
41013W        W12629  25.813  17.418  13.864
41014W        W12630  33.674  42.597  13.494
41015W        W12631  38.599   4.896  11.208
41016W        W12632  30.526   2.612  11.274
41017W        W12633  13.232  19.504  11.074
41018W        W12634   9.813  32.476   0.883
41019W        W12635  36.532   3.960   0.719
41020W        W12636   6.136  39.863  12.125
41021W        W12637  31.382  30.146   1.794
41022W        W12638  38.362  11.883  11.593
41023W        W12639  15.085  23.156  10.545
41024W        W12640   8.470  20.118  12.912
41025W        W12641  34.923  41.781   3.674
41026W        W12642  40.757   6.962   3.176
41027W        W12643  22.017   7.770   1.233
41028W        W12644  14.014  40.036   0.719
41029W        W12645  31.917  21.237   2.990
41030W        W12646  34.639  23.633   4.159
41031W        W12647   6.940  34.890  14.917
41032W        W12648  22.507  32.102  14.998
41033W        W12649   1.070  24.781  12.767
41034W        W12650  40.974  25.564   0.286
41035W        W12651  29.952   3.720   4.648
41036W        W12652   1.083   9.751   3.237
41037W        W12653  11.742  25.954   2.288
41038W        W12654  11.052   0.465   3.132
41039W        W12655  38.858  27.652  13.929
41040W        W12656  38.518  27.197   2.181
41041W        W12657  35.924   3.484  12.856
41042W        W12658   3.556  22.704   1.369
41043W        W12659  28.893  42.991  14.434
41044W        W12660  27.957  41.031   4.223
41045W        W12661   0.857  26.055   4.562
41046W        W12662  27.248  28.690  13.388
41047W        W12663  10.684   1.198   1.679
41048W        W12664  26.715   4.777   2.859
41049W        W12665  21.977  32.570  12.889
41050W        W12666  17.810  25.164   3.713
41051W        W12667  28.148  25.353  14.345
41052W        W12668  10.155   2.121   3.088
41053W        W12669   6.154  35.074  14.054
41054W        W12670  14.818  14.588  12.439
41055W        W12671   4.318   8.084  11.444
41056W        W12672   5.887  43.191   2.125
41057W        W12673  33.467   7.250  14.817
41058W        W12674  17.677  37.827  12.892
41059W        W12675  16.644  25.035   3.880
41060W        W12676   7.754  17.257   3.720
41061W        W12677  10.353  31.669  12.018
41062W        W12678   1.042   4.656   1.435
41063W        W12679   3.286   1.502   5.329
41064W        W12680  13.248  25.348   0.621
41065W        W12681  40.830  11.771  12.124
41066W        W12682  43.504  29.379  11.177
41067W        W12683  44.332  36.055   0.906
41068W        W12684   1.666  23.779   2.483
41069W        W12685   5.280  33.890   1.019
41070W        W12686  28.129  24.225   2.204
41071W        W12687   6.205   6.173   0.006
41072W        W12688  42.362  28.522   0.090
41073W        W12689  29.796  30.827  10.939
41074W        W12690  24.513  19.729   0.963
41075W        W12691  28.497   3.812  12.444
41076W        W12692   3.548  19.143  11.171
41077W        W12693   5.723  18.208   2.293
41078W        W12694  44.788  29.761  10.663
41079W        W12695  34.353  21.304  12.105
41080W        W12696  21.686  14.862   3.192
41081W        W12697  32.963   5.669   3.654
41082W        W12698  28.714  18.763  14.942
41083W        W12699   4.991   4.473   0.774
41084W        W12700  21.614  14.060   2.301
41085W        W12701   1.705  17.034   4.261
41086W        W12702   7.318  42.968   0.646
41087W        W12703  25.729  30.097   2.149
41088W        W12704  16.739  41.783  11.658
41089W        W12705  13.671  20.433   0.039
41090W        W12706  15.621  27.513   4.820
41091W        W12707  21.951  38.577   1.375
41092W        W12708   0.379   9.638   4.298
41093W        W12709  20.084  42.295   5.528
41094W        W12710   2.888  11.325   0.950
41095W        W12711   0.964  22.471   3.534
41096W        W12712  31.948  21.748   2.128
41097W        W12713  10.651  17.201  10.806
41098W        W12714   5.535  13.634  14.258
41099W        W12715  24.348   2.484  12.160
41100W        W12716  35.141  23.922  11.621
41101W        W12717  29.145  22.713   4.631
41102W        W12718  21.125  18.047  12.945
41103W        W12719  17.621  32.689  10.740
41104W        W12720  34.562  10.209  14.396
41105W        W12721   4.593  14.175   5.002
41106W        W12722  34.110  22.739   0.255
41107W        W12723  43.403  13.705   3.947
41108W        W12724  13.940  10.891  12.816
41109W        W12725  20.837  40.101  13.009
41110W        W12726  22.949  16.614   3.617
41111W        W12727   0.569   2.395  11.563
41112W        W12728  17.281  20.281  13.817
41113W        W12729   3.508  21.094  13.073
41114W        W12730  34.384  28.245   1.370
41115W        W12731  26.403  16.616   2.125
41116W        W12732  18.476  23.041   4.369
41117W        W12733  13.839   5.305   2.470
41118W        W12734  35.583  42.920  13.534
41119W        W12735  30.426  30.578   5.027
41120W        W12736   7.319   8.766   0.825
41121W        W12737  37.969  13.424   9.659
41122W        W12738  42.249  19.769   4.555
41123W        W12739  33.310  25.707  12.861
41124W        W12740  17.215  23.728   4.345
41125W        W12741  29.058  21.865   1.807
41126W        W12742  37.883  41.270   0.447
41127W        W12743   3.398  29.960  10.669
41128W        W12744  25.939  30.403  10.519
41129W        W12745  36.482  38.598  13.375
41130W        W12746  28.187  38.128  14.000
41131W        W12747  35.927  25.292  12.135
41132W        W12748  15.776  32.494  12.599
41133W        W12749  36.089  26.145   4.587
41134W        W12750  40.644  38.919  10.253
41135W        W12751   1.646  26.937   4.171
41136W        W12752   7.498  25.008  14.994
41137W        W12753   0.023  12.197  14.903
41138W        W12754  37.459  37.313   0.259
41139W        W12755  30.688   5.996  10.787
41140W        W12756  33.013  27.902   4.255
41141W        W12757   1.530  13.720  11.980
41142W        W12758   6.143   4.728  12.091
41143W        W12759  13.361   3.980   4.973
41144W        W12760  12.858   7.938   4.491
41145W        W12761  30.632  29.862   3.656
41146W        W12762  14.234  34.198   3.755
41147W        W12763  23.459  14.555   3.292
41148W        W12764   0.392  43.250  13.921
41149W        W12765  11.767  32.934   4.515
41150W        W12766  34.018  19.658  11.618
41151W        W12767  11.622  12.876  12.625
41152W        W12768   8.491  31.075   2.223
41153W        W12769  31.930   3.085  14.022
41154W        W12770  36.927  18.393   2.707
41155W        W12771  24.107   5.485  14.794
41156W        W12772  39.965   7.787   0.991
41157W        W12773  23.104  26.612  14.357
41158W        W12774  38.800  40.207  10.266
41159W        W12775  37.372  13.732  13.922
41160W        W12776  27.160  21.673  14.543
41161W        W12777  38.490  17.168  11.539
41162W        W12778  22.731  37.547  11.369
41163W        W12779   0.579   2.908  11.580
41164W        W12780  41.063  14.727   3.438
41165W        W12781  36.890  40.400  14.529
41166W        W12782  31.693  25.023   3.425
41167W        W12783   1.642  28.214  12.371
41168W        W12784  21.647  29.490  11.239
41169W        W12785  27.864   1.275   3.187
41170W        W12786  10.135  14.651  11.482
41171W        W12787  39.944   4.755   0.715
41172W        W12788   4.295  22.644  13.900
41173W        W12789   4.865  23.204   3.153
41174W        W12790  38.347  34.170  14.913
41175W        W12791  16.634  41.326  13.453
41176W        W12792  43.674  43.417   2.768
41177W        W12793  34.513  30.625  13.426
41178W        W12794   9.393  21.180  10.609
41179W        W12795   8.355   0.105  14.465
41180W        W12796  38.962  14.185  11.255
41181W        W12797  33.574  41.864  11.329
41182W        W12798   3.851   3.452  11.001
41183W        W12799  26.680  16.405   9.913
41184W        W12800  22.865  19.069  13.927
41185W        W12801  11.589  20.815  11.557
41186W        W12802  11.963  16.749   4.612
41187W        W12803  34.381  30.142  12.516
41188W        W12804  35.593  42.382  10.758
41189W        W12805  15.628  35.010   0.935
41190W        W12806   8.807  36.875  12.213
41191W        W12807  25.261  44.526   2.191
41192W        W12808   0.869  11.812  12.407
41193W        W12809  25.982  26.164  13.798
41194W        W12810   1.439  16.120  13.813
41195W        W12811  25.524   5.977   4.097
41196W        W12812  40.301  16.388  11.875
41197W        W12813  17.723  37.358   4.071
41198W        W12814  19.153  14.077   0.658
41199W        W12815  20.143  25.372  12.523
41200W        W12816  35.846  36.884  10.724
41201W        W12817  22.543   9.856  13.979
41202W        W12818  25.490  10.513   0.362
41203W        W12819  19.332   7.288  12.949
41204W        W12820  23.453   1.082  11.619
41205W        W12821  33.510   0.233   2.547
41206W        W12822   5.254  35.940   3.442
41207W        W12823  41.074  41.850   2.646
41208W        W12824  39.371  23.738  14.980
41209W        W12825   3.918  26.015   2.338
41210W        W12826  43.025  39.358   1.652
41211W        W12827  44.812  30.133  14.297
41212W        W12828  24.148   2.922   0.672
41213W        W12829  35.863  29.559   3.258
41214W        W12830  12.391  38.147   1.465
41215W        W12831  25.823   3.326   0.476
41216W        W12832  43.881  23.534  13.254
41217W        W12833  26.133  16.034   0.714
41218W        W12834  39.526  11.062   3.186
41219W        W12835  19.008  11.328   3.105
41220W        W12836  13.259  44.299   3.708
41221W        W12837   6.436  22.238   1.338
41222W        W12838  35.444  37.606  13.439
41223W        W12839  20.667  40.262  12.032
41224W        W12840  31.972  33.342   4.956
41225W        W12841   7.594  38.922  13.024
41226W        W12842  30.409  42.587  10.553
41227W        W12843  39.369  16.681   3.613
41228W        W12844  30.245  24.690  11.121
41229W        W12845  21.792  17.024  11.994
41230W        W12846   6.796  11.780  11.373
41231W        W12847  28.181  37.553  14.985
41232W        W12848  41.432  25.581  11.194
41233W        W12849   2.232   8.585  11.425
41234W        W12850  39.406  44.354  13.476
41235W        W12851  29.473  36.536  11.051
41236W        W12852   6.726  11.367   1.435
41237W        W12853  27.133  30.027  12.539
41238W        W12854  32.653  13.862   1.419
41239W        W12855  19.553   2.948  14.889
41240W        W12856  27.208   8.162   2.416
41241W        W12857  44.405   8.873   3.674
41242W        W12858  31.094  29.508   0.282
41243W        W12859  38.525  33.305  12.552
41244W        W12860  31.478  44.874  14.128
41245W        W12861  19.498   4.156  13.155
41246W        W12862  37.920   0.836  12.641
41247W        W12863  38.465  40.376  12.948
41248W        W12864  12.665  33.198  12.532
41249W        W12865   2.006   6.366   4.621
41250W        W12866  42.481  35.481  11.189
41251W        W12867  14.484  25.218  13.296
41252W        W12868  34.511   1.815   2.289
41253W        W12869  38.310  30.300   1.862
41254W        W12870  14.193  17.518   4.039
41255W        W12871  14.783  29.486   0.834
41256W        W12872  37.041   3.321  11.303
41257W        W12873  37.154  11.338   4.458
41258W        W12874  38.029  38.328  13.502
41259W        W12875  28.393  44.434   3.811
41260W        W12876  11.307  17.630   4.588
41261W        W12877   2.832  43.791   5.024
41262W        W12878  14.858  15.887  11.984
41263W        W12879   0.349  29.418   2.274
41264W        W12880  41.343  33.356  11.547
41265W        W12881  28.783  10.819   1.043
41266W        W12882   7.582   0.996  11.968
41267W        W12883   9.283  22.055   0.962
41268W        W12884  42.857  32.449  12.064
41269W        W12885  12.773  26.504   1.197
41270W        W12886  28.573  38.007  12.992
41271W        W12887  30.492  15.865   1.279
41272W        W12888   4.420  27.317   4.094
41273W        W12889  11.898  15.249   3.385
41274W        W12890  30.942   1.399   3.734
41275W        W12891   2.730   3.234  11.140
41276W        W12892  23.054  33.865  14.504
41277W        W12893  20.611   3.773  14.073
41278W        W12894   0.026   0.567   2.146
41279W        W12895  10.855  38.031   4.392
41280W        W12896  27.499   2.653  11.510
41281W        W12897   4.497  33.448  14.888
41282W        W12898  26.154  13.164  13.933
41283W        W12899   4.872  24.214  14.819
41284W        W12900  17.683  20.169  14.118
41285W        W12901   9.730  14.831   4.669
41286W        W12902  14.239   6.652  12.698
41287W        W12903  33.948  12.804  11.407
41288W        W12904  29.685  37.556   4.896
41289W        W12905  37.900  34.156   2.765
41290W        W12906  29.635  19.336   0.015
41291W        W12907   3.277   3.300  11.183
41292W        W12908  31.637   0.710   4.109
41293W        W12909  14.185  34.606   0.032
41294W        W12910  15.781   4.469   0.762
41295W        W12911  11.992  21.699   1.871
41296W        W12912  35.133  42.767  12.885
41297W        W12913  33.960  20.112  13.823
41298W        W12914  19.514  21.785  11.175
41299W        W12915   4.967  32.585  13.403
41300W        W12916  11.213  19.953  13.377
41301W        W12917  31.139  34.067   3.127
41302W        W12918  22.126   5.492  14.349
41303W        W12919  15.442  44.468   0.277
41304W        W12920  32.270  12.325  11.931
41305W        W12921  15.760   2.506  10.755
41306W        W12922  41.439  18.781  12.403
41307W        W12923  43.659  19.224   1.800
41308W        W12924   8.198   8.722   2.335
41309W        W12925  21.060  43.913   4.685
41310W        W12926  36.180   6.775  12.197
41311W        W12927  32.448  37.476   0.356
41312W        W12928  41.317  40.086  12.030
41313W        W12929   5.668   9.615  12.612
41314W        W12930  24.118  33.734  11.618
41315W        W12931  40.282  29.554  10.642
41316W        W12932   8.227  20.943  13.704
41317W        W12933  33.579  35.934   4.264
41318W        W12934  39.977  25.453  11.048
41319W        W12935   4.202  21.060   3.359
41320W        W12936  27.190  19.025  11.505
41321W        W12937  25.127  36.169   2.947
41322W        W12938  27.995   9.499   4.134
41323W        W12939  28.071  23.477   1.712
41324W        W12940  13.174   1.984   0.926
41325W        W12941  43.866   3.830  12.027
41326W        W12942  35.131   3.394   2.190
41327W        W12943  30.359   3.808  12.601
41328W        W12944  35.501   7.321   1.256
41329W        W12945  15.622  38.414  13.012
41330W        W12946  43.698  12.057   4.215
41331W        W12947  33.992  31.078  12.913
41332W        W12948  11.501   1.159  13.215
41333W        W12949  37.879   7.744  11.492
41334W        W12950  14.978  26.128   1.369
41335W        W12951  21.666  23.531  14.835
41336W        W12952  10.782  15.109   1.247
41337W        W12953  38.949  16.334  12.809
41338W        W12954  42.440  41.889   2.421
41339W        W12955  18.636  16.558  10.740
41340W        W12956  27.119  39.372   2.683
41341W        W12957  19.085  31.401  13.052
41342W        W12958  30.377  12.314   3.194
41343W        W12959   2.892   3.724  11.203
41344W        W12960  40.900  32.449  13.880
41345W        W12961  37.433  31.448   3.015
41346W        W12962  27.528  14.613   3.483
41347W        W12963  14.652  35.091  14.329
41348W        W12964   9.148  18.641  10.805
41349W        W12965  21.395  44.779  11.553
41350W        W12966  24.550  12.183  10.972
41351W        W12967  32.080  25.218   2.167
41352W        W12968  41.555  24.653  14.384
41353W        W12969   3.791  37.393   1.940
41354W        W12970  25.232  26.491   2.760
41355W        W12971  21.615  16.402  11.550
41356W        W12972  26.094  41.843  11.666
41357W        W12973  44.007  21.563  14.231
41358W        W12974  40.283  33.035   0.762
41359W        W12975  13.935  35.875   1.765
41360W        W12976  31.727  40.737  11.095
41361W        W12977   0.582   6.982  14.549
41362W        W12978  22.519   9.449  14.332
41363W        W12979  21.086  41.337   0.242
41364W        W12980  35.764   0.506  11.505
41365W        W12981  13.309  19.724  13.349
41366W        W12982  25.366  38.847  12.844
41367W        W12983  26.261  20.291  10.946
41368W        W12984  44.170  41.046   4.860
41369W        W12985  23.079  22.264   1.058
41370W        W12986  33.558  24.126   3.690
41371W        W12987  34.804  20.674  11.063
41372W        W12988   7.814  20.010  12.014
41373W        W12989  25.653  16.274  11.928
41374W        W12990  12.791  37.625   3.147
41375W        W12991   1.466  18.948   3.612
41376W        W12992   9.226  33.611  12.428
41377W        W12993  17.875  18.207   4.601
41378W        W12994  18.191  37.863  11.990
41379W        W12995  20.592  34.637   0.684
41380W        W12996  19.078  42.436  14.485
41381W        W12997  10.775   5.911   4.146
41382W        W12998  22.212  10.725   4.441
41383W        W12999  44.927  34.838  13.777
41384W        W13000  39.099  17.216   4.813
41385W        W13001   2.967   6.630   1.486
41386W        W13002  38.933  37.363  12.088
41387W        W13003  10.191  15.663   3.699
41388W        W13004  14.644  35.481   0.250
41389W        W13005  27.635   2.132  11.482
41390W        W13006  38.479  20.861  13.083
41391W        W13007  10.277   2.013   4.990
41392W        W13008   7.452  23.105   0.919
41393W        W13009  31.607  40.397  14.796
41394W        W13010   0.857  44.315  13.245
41395W        W13011  24.723  41.656   1.673
41396W        W13012   2.979  35.540  14.966
41397W        W13013  26.113  17.663   1.961
41398W        W13014   2.457   7.453  12.396
41399W        W13015   9.406  28.445   0.905
41400W        W13016  31.632  18.545   5.163
41401W        W13017   9.619   8.617   4.150
41402W        W13018  20.671  37.838   2.635
41403W        W13019   1.243   6.981  12.063
41404W        W13020  26.465   3.332  11.982
41405W        W13021   6.084  33.516  11.263
41406W        W13022  33.484  43.435  12.508
41407W        W13023  34.895  16.050   2.024
41408W        W13024   5.773  28.790  13.125
41409W        W13025  11.338  28.922   1.254
41410W        W13026  42.467  35.937   2.320
41411W        W13027  13.921  40.814   0.984
41412W        W13028  25.117   5.110   3.957
41413W        W13029  20.353  27.385  12.497
41414W        W13030  41.928  21.219   4.152
41415W        W13031  26.022   2.989   2.581
41416W        W13032   5.952   6.619   4.019
41417W        W13033  42.428  39.061   3.807
41418W        W13034  35.063  28.430  10.640
41419W        W13035  10.474  31.091  13.726
41420W        W13036  44.801  40.277   4.783
41421W        W13037  22.842  11.728  13.088
41422W        W13038  34.433  23.963   3.164
41423W        W13039   6.687  18.626  11.989
41424W        W13040   0.179  27.526  13.381
41425W        W13041  38.515   4.335  14.979
41426W        W13042  17.480  11.213  11.897
41427W        W13043  26.696  22.168  13.424
41428W        W13044  20.604  41.473  10.781
41429W        W13045  14.188  17.771   4.761
41430W        W13046  22.502  31.939  13.929
41431W        W13047  17.499  36.047   1.324
41432W        W13048  27.916  34.506   3.609
41433W        W13049  28.233  35.419   0.353
41434W        W13050  18.955  37.334  11.220
41435W        W13051  44.222  19.879   3.322
41436W        W13052  20.006  29.041  10.583
41437W        W13053  36.643   0.384  10.613
41438W        W13054   8.625  33.495  11.980
41439W        W13055  44.217  15.631   0.814
41440W        W13056  12.381  28.420  11.966
41441W        W13057   3.739   1.301   1.837
41442W        W13058  32.116  20.589   3.261
41443W        W13059  32.671   9.267   3.948
41444W        W13060  33.584  25.723  12.431
41445W        W13061  16.644   4.661   3.688
41446W        W13062   4.405  22.033   2.455
41447W        W13063  43.384  40.772   4.514
41448W        W13064  31.493  33.652   2.441
41449W        W13065  31.409   6.883   3.197
41450W        W13066   5.339  11.159   4.725
41451W        W13067  12.845  22.293   0.729
41452W        W13068  35.525  28.681  12.780
41453W        W13069  36.636  33.949  12.470
41454W        W13070  37.028  12.853   0.889
41455W        W13071  39.223  10.894  14.764
41456W        W13072  33.397   6.037  11.923
41457W        W13073  17.490  20.542   4.881
41458W        W13074  30.147  20.012   3.757
41459W        W13075  10.147  11.693  13.283
41460W        W13076   2.715  11.717  12.392
41461W        W13077  12.780  27.807  12.253
41462W        W13078  27.208   5.991  12.898
41463W        W13079  24.196  12.316   2.814
41464W        W13080   3.865  18.772   2.815
41465W        W13081  42.859  22.506  12.121
41466W        W13082  21.937  17.641   2.477
41467W        W13083   6.554  16.705   0.508
41468W        W13084  35.314  14.242  12.399
41469W        W13085  32.481   8.791   3.208
41470W        W13086  19.397  30.553   2.189
41471W        W13087  39.460  34.865  12.999
41472W        W13088   3.140  35.634   2.712
41473W        W13089  39.833  40.264   1.918
41474W        W13090   1.261  19.751   1.136
41475W        W13091   2.550  13.034  12.594
41476W        W13092  35.754  17.550   3.156
41477W        W13093  32.821  23.236  13.945
41478W        W13094  44.978  11.769   0.773
41479W        W13095  24.415  28.965   0.612
41480W        W13096  16.560  24.101  12.647
41481W        W13097  31.834  23.192   0.216
41482W        W13098  41.425   1.411  14.963
41483W        W13099  36.997   5.314   4.395
41484W        W13100  41.784  14.062   3.822
41485W        W13101  24.359  19.465  11.942
41486W        W13102  36.975  23.484  14.263
41487W        W13103  15.231  17.884   3.665
41488W        W13104  23.070  23.998  13.198
41489W        W13105  37.343  21.012  14.019
41490W        W13106  41.421  19.977  12.913
41491W        W13107  22.689   5.768   4.590
41492W        W13108  15.542  33.350  12.944
41493W        W13109  11.640  35.606   3.753
41494W        W13110  36.982  32.961  13.314
41495W        W13111  14.645  24.539   3.642
41496W        W13112  41.563   0.902  12.338
41497W        W13113  10.104   5.667   1.335
41498W        W13114  14.220  10.949   3.211
41499W        W13115  23.456   4.324   4.117
41500W        W13116  23.486  25.280  14.245
41501W        W13117   6.810  22.071   2.639
41502W        W13118  38.341  38.431  10.705
41503W        W13119  35.001  19.506  10.592
41504W        W13120   2.848  31.350  10.765
41505W        W13121   8.328  15.087   2.221
41506W        W13122   6.756  37.345   1.732
41507W        W13123  37.172   1.960   1.957
41508W        W13124  18.538   3.018  11.182
41509W        W13125  36.523  28.414  12.581
41510W        W13126  35.780   1.249  11.066
41511W        W13127   0.559  15.360  11.190
41512W        W13128  38.665   4.234  12.500
41513W        W13129  21.188  19.213  13.512
41514W        W13130  31.180  15.316  11.984
41515W        W13131  27.518  26.949  14.494
41516W        W13132  29.233  43.562  12.025
41517W        W13133   2.299  34.058  11.085
41518W        W13134  12.917   1.924  14.955
41519W        W13135  10.274   9.422  12.026
41520W        W13136  33.414  36.890  13.899
41521W        W13137  20.990   8.602   2.121
41522W        W13138  37.572  23.263   4.248
41523W        W13139  10.859  40.479  10.536
41524W        W13140   2.235  25.068  11.215
41525W        W13141   4.398  36.125  11.170
41526W        W13142  15.198  19.142  11.400
41527W        W13143  38.993  24.837   1.441
41528W        W13144   7.667  21.115  10.690
41529W        W13145   7.300  34.371   0.402
41530W        W13146  32.158  38.142  14.372
41531W        W13147  31.712  42.820   2.274
41532W        W13148   5.161   8.406  11.861
41533W        W13149  31.436  22.004   1.167
41534W        W13150  34.721  37.524  12.911
41535W        W13151  20.868  40.615  13.104
41536W        W13152  12.752  41.557   0.511
41537W        W13153  20.513  42.700  13.012
41538W        W13154   2.417  30.650  13.560
41539W        W13155  33.918   5.213   2.834
41540W        W13156   6.441  37.400   9.680
41541W        W13157  36.286  13.688   2.338
41542W        W13158   2.193  38.648   4.572
41543W        W13159  28.606  42.467  12.423
41544W        W13160  39.735   0.024   3.797
41545W        W13161  38.991  11.606   1.499
41546W        W13162  38.103  42.542  12.492
41547W        W13163  20.714  26.054   0.741
41548W        W13164   0.435  23.555   3.109
41549W        W13165  26.893  30.983  11.176
41550W        W13166  33.508  25.065   0.850
41551W        W13167  29.438  16.446  13.285
41552W        W13168  36.148   9.136  11.967
41553W        W13169  33.126  28.711   3.772
41554W        W13170  14.646  27.157  10.951
41555W        W13171  27.875  27.710  11.102
41556W        W13172  44.731  25.574  13.403
41557W        W13173  15.666   9.397   3.713
41558W        W13174   9.613  26.796   0.277
41559W        W13175   5.170  39.024   2.662
41560W        W13176  39.816  16.955   3.423
41561W        W13177  27.140  34.764   1.970
41562W        W13178  12.023  16.155   1.433
41563W        W13179  22.771   6.433   0.542
41564W        W13180  25.115  11.763   3.366
41565W        W13181  20.121  15.614   2.663
41566W        W13182  20.777   7.643  13.803
41567W        W13183  33.455  35.304   4.864
41568W        W13184  44.931  38.148   3.158
41569W        W13185  11.917  29.435  13.347
41570W        W13186  34.299  30.550   2.731
41571W        W13187  14.513  42.787   5.006
41572W        W13188  39.961  34.467   1.077
41573W        W13189  14.500   0.952  12.491
41574W        W13190  31.407  31.612  11.929
41575W        W13191  19.297  14.039   3.690
41576W        W13192  43.867   6.688  13.324
41577W        W13193  22.395  15.110  13.068
41578W        W13194  17.339  24.643   4.274
41579W        W13195  42.285  14.959  14.425
41580W        W13196  20.537   5.877  10.676
41581W        W13197  34.642  30.251  10.675
41582W        W13198  22.171  13.078  13.409
41583W        W13199  35.769  29.148   0.750
41584W        W13200   4.016   2.793   2.670
41585W        W13201   0.499   2.337   3.601
41586W        W13202   7.890  36.612   2.676
41587W        W13203  32.874   0.247   0.879
41588W        W13204  37.110  30.353  10.689
41589W        W13205   1.826  14.326   2.605
41590W        W13206  36.592  36.445   1.717
41591W        W13207   3.967  39.846  14.282
41592W        W13208  27.514  39.970   3.840
41593W        W13209   7.346  36.101   2.113
41594W        W13210  21.478   9.159   3.261
41595W        W13211  42.308   9.125   1.640
41596W        W13212  27.168  10.091  10.731
41597W        W13213  11.194  31.411   1.654
41598W        W13214  37.695  24.392   4.987
41599W        W13215  27.141  26.530   0.187
41600W        W13216  34.897  25.403   3.715
41601W        W13217  22.620  35.555   0.430
41602W        W13218  16.178   6.199  14.058
41603W        W13219  42.418  25.513  12.073
41604W        W13220  17.303  43.830   2.662
41605W        W13221  41.003   5.939  13.335
41606W        W13222  41.975  13.378   0.287
41607W        W13223  41.941  39.081   4.517
41608W        W13224  31.348   9.805   1.498
41609W        W13225  22.563   1.964  10.776
41610W        W13226  23.111  16.971  11.970
41611W        W13227  28.038  21.763   2.322
41612W        W13228  23.735  14.480   2.425
41613W        W13229  32.034  20.297   1.196
41614W        W13230  15.806   5.688   0.347
41615W        W13231  35.153  44.455   4.613
41616W        W13232  34.729   1.445  13.896
41617W        W13233   5.240   0.723  10.557
41618W        W13234   3.066  21.839   4.648
41619W        W13235  39.105  41.728   1.593
41620W        W13236  44.404  43.916  10.100
41621W        W13237  14.859   0.054   0.889
41622W        W13238   8.753  34.718   0.629
41623W        W13239  20.111  35.519   2.177
41624W        W13240  16.949  33.147   3.746
41625W        W13241  20.335   7.426   1.052
41626W        W13242  21.946   8.494  12.815
41627W        W13243  36.256  16.936   1.277
41628W        W13244  10.011  12.089  13.972
41629W        W13245   8.826   9.932   3.414
41630W        W13246   0.868  41.971   0.479
41631W        W13247  27.187  10.005   1.698
41632W        W13248  19.663  30.639  11.946
41633W        W13249  22.852  17.827   4.203
41634W        W13250  35.929  26.621   4.462
41635W        W13251  25.157  17.995  10.684
41636W        W13252  21.771  34.583  11.000
41637W        W13253  43.477  34.063  12.110
41638W        W13254  11.646  24.674   3.660
41639W        W13255  38.026  11.500   2.672
41640W        W13256  36.393   6.699  10.755
41641W        W13257  22.458  11.256  11.582
41642W        W13258  32.360  33.129   0.840
41643W        W13259  33.285  30.754  12.455
41644W        W13260   5.411  37.372  11.654
41645W        W13261   3.921  21.065   1.833
41646W        W13262  24.526  16.780  11.728
41647W        W13263  34.301  25.496  12.932
41648W        W13264  17.097   7.908   2.706
41649W        W13265  16.228   7.061   4.558
41650W        W13266   0.395  41.551   1.536
41651W        W13267  29.611  40.365  13.976
41652W        W13268  24.563  16.823   0.258
41653W        W13269  21.965  14.404  14.619
41654W        W13270  24.119  36.442  10.787
41655W        W13271  10.896  35.411  14.308
41656W        W13272   2.206  14.715   0.877
41657W        W13273   3.302  38.318  10.756
41658W        W13274   8.314  35.061  12.039
41659W        W13275   6.629  40.768   3.923
41660W        W13276  37.858  37.330  14.938
41661W        W13277  16.625   5.779  13.367
41662W        W13278   9.616  22.557   4.863
41663W        W13279  14.304  31.636  11.679
41664W        W13280  14.872  19.691  13.559
41665W        W13281  43.899  36.839  14.804
41666W        W13282   5.416  11.867   1.753
41667W        W13283  40.818  31.129   2.482
41668W        W13284  36.948  16.554   4.258
41669W        W13285  15.455  37.912   2.263
41670W        W13286  11.694  29.227   2.112
41671W        W13287   9.955   8.690  12.440
41672W        W13288  33.175   2.933   3.363
41673W        W13289   1.630  16.807  13.548
41674W        W13290  25.090  24.150   4.683
41675W        W13291  23.323   9.496  14.094
41676W        W13292  32.189  12.688  13.576
41677W        W13293   7.848  17.773   1.703
41678W        W13294  32.231  33.440   4.526
41679W        W13295  34.330  17.688   2.608
41680W        W13296   1.817  40.853   1.914
41681W        W13297  21.970   2.658  11.072
41682W        W13298  12.095  14.282   3.199
41683W        W13299   8.334  23.557  14.007
41684W        W13300  33.377  23.221  14.475
41685W        W13301  12.653   2.266   2.396
41686W        W13302   7.956  39.194  11.630
41687W        W13303  25.534  43.375   0.303
41688W        W13304  17.163  29.722  13.060
41689W        W13305  27.586  28.937  11.112
41690W        W13306   1.770  23.764  13.449
41691W        W13307  12.810  20.087   2.831
41692W        W13308  10.331   3.967  13.820
41693W        W13309   9.280  24.215  11.585
41694W        W13310  17.713  33.626  11.088
41695W        W13311   5.334   7.876   4.461
41696W        W13312   1.747  25.198  11.335
41697W        W13313   4.499  15.588   4.556
41698W        W13314   4.504  17.168  10.838
41699W        W13315  39.532  26.968   1.171
41700W        W13316  37.907  11.115   1.647
41701W        W13317  39.585   3.866  12.609
41702W        W13318   5.416  24.584  12.004
41703W        W13319  44.919  15.873  11.070
41704W        W13320   6.166  33.540   2.082
41705W        W13321  20.649  26.196  14.087
41706W        W13322   5.700  22.688   4.140
41707W        W13323  40.014   0.530   3.083
41708W        W13324  22.924  11.615   0.827
41709W        W13325  12.158  13.121  13.294
41710W        W13326   2.972   8.477   2.406
41711W        W13327  14.089   9.802  14.970
41712W        W13328  39.240  26.952  11.229
41713W        W13329  34.136  39.238   2.934
41714W        W13330  18.932   2.915  12.100
41715W        W13331  42.076  24.072   4.188
41716W        W13332  26.725  27.283   1.344
41717W        W13333  33.305   6.909  14.455
41718W        W13334  12.834   2.370   1.223
41719W        W13335  22.713  23.993   0.473
41720W        W13336  35.394  36.939  10.449
41721W        W13337  20.051  43.561  12.129
41722W        W13338  27.019  40.507  13.372
41723W        W13339   7.241  23.269  12.797
41724W        W13340  29.817  20.949  12.112
41725W        W13341  41.518  41.322  13.422
41726W        W13342   1.261  41.901   1.584
41727W        W13343  43.211   6.203   0.239
41728W        W13344  42.695  29.018   2.928
41729W        W13345  33.582  27.987   5.009
41730W        W13346  12.223  38.846   3.675
41731W        W13347  39.565  10.310   3.610
41732W        W13348  21.732  33.470  12.356
41733W        W13349  24.937  40.929   0.600
41734W        W13350   2.669  13.950  14.235
41735W        W13351  17.034  23.652   0.762
41736W        W13352  38.305  19.190   3.349
41737W        W13353   3.843  30.848   2.822
41738W        W13354  24.682  20.932   1.711
41739W        W13355   1.994  36.480   0.440
41740W        W13356  40.106  22.130  13.557
41741W        W13357   4.685  26.389  11.091
41742W        W13358  13.332  22.989  13.538
41743W        W13359   4.318  30.950   1.691
41744W        W13360   3.525  29.280  13.329
41745W        W13361  23.584  39.924   2.827
41746W        W13362  29.196  16.715   2.830
41747W        W13363   0.365   0.385   3.736
41748W        W13364  21.064  41.687   4.053
41749W        W13365  31.907  31.441   4.669
41750W        W13366  12.425  37.493  14.958
41751W        W13367  44.877   7.894  13.984
41752W        W13368  38.290  18.834  11.360
41753W        W13369   8.595  12.310   0.441
41754W        W13370  10.671  30.395  10.416
41755W        W13371  14.610  37.973   4.216
41756W        W13372  28.926  17.211   4.971
41757W        W13373  26.014  44.841  12.173
41758W        W13374  11.150  24.035  11.011
41759W        W13375  24.778  40.482   4.138
41760W        W13376   5.991  40.563  12.348
41761W        W13377  32.065   7.731   1.636
41762W        W13378  15.416   3.260  11.374
41763W        W13379  35.863  31.159   0.745
41764W        W13380   5.739  30.555  14.480
41765W        W13381  39.951  15.779   0.794
41766W        W13382  41.526   5.524   4.338
41767W        W13383  14.217  43.060   1.294
41768W        W13384  24.071   6.877  13.402
41769W        W13385  31.528   1.969  10.979
41770W        W13386  16.611  32.352  11.933
41771W        W13387  22.592   3.766  11.607
41772W        W13388  43.103  19.072  14.330
41773W        W13389  28.640  24.259   4.985
41774W        W13390  42.140  15.843   0.835
41775W        W13391  42.088  37.939   1.901
41776W        W13392  33.506  21.916   3.025
41777W        W13393   3.749   1.836  11.263
41778W        W13394  24.667  41.369   1.242
41779W        W13395   0.760   0.516  13.679
41780W        W13396  19.680  35.282  11.405
41781W        W13397  11.717  12.253  10.996
41782W        W13398  28.385  12.144  12.467
41783W        W13399  18.284  36.266   2.272
41784W        W13400   0.542   8.835   1.776
41785W        W13401  28.119  44.393  12.012
41786W        W13402  38.497  26.207  14.554
41787W        W13403  34.395   6.755   1.783
41788W        W13404  24.835   6.242  13.315
41789W        W13405  27.497   9.748   4.099
41790W        W13406  21.770  18.221   0.927
41791W        W13407   4.430  44.426  12.440
41792W        W13408   2.303   1.399   4.599
41793W        W13409   1.008  33.631   4.565
41794W        W13410  28.471  20.610   4.983
41795W        W13411   6.339  32.727   4.697
41796W        W13412  17.369  44.301  13.557
41797W        W13413  15.103  33.426  11.225
41798W        W13414  38.495  41.471   3.166
41799W        W13415  36.005  43.266   4.701
41800W        W13416  15.201  20.807   2.355
41801W        W13417  17.035  33.327   1.838
41802W        W13418  15.175   7.122  13.921
41803W        W13419   3.705  30.060   1.399
41804W        W13420  33.339   4.851  14.254
41805W        W13421  32.796   0.829   2.028
41806W        W13422  31.894  34.373   1.354
41807W        W13423  14.063  35.522   1.342
41808W        W13424  23.041  28.974   2.890
41809W        W13425  24.605  25.487   0.862
41810W        W13426  23.010  15.965  12.339
41811W        W13427  15.966  35.364  14.698
41812W        W13428  35.927  10.324  10.701
41813W        W13429   3.333  22.756   4.539
41814W        W13430   7.979  10.441   3.333
41815W        W13431  33.369  27.174   4.592
41816W        W13432  17.606  44.751  13.429
41817W        W13433   8.925  11.916   1.349
41818W        W13434  22.064  26.475   5.260
41819W        W13435  28.005  37.133  13.816
41820W        W13436  36.834   6.347   1.653
41821W        W13437  35.605  33.579  12.123
41822W        W13438  12.016  39.969  10.558
41823W        W13439  23.101  43.304   0.448
41824W        W13440  24.608  16.767  14.302
41825W        W13441  30.566  35.613   1.998
41826W        W13442  23.201  31.263   4.319
41827W        W13443  33.856   6.958   0.379
41828W        W13444  24.298  30.205   0.257
41829W        W13445  43.052   7.443   1.765
41830W        W13446   6.850  32.014   4.902
41831W        W13447  38.105  35.519  14.585
41832W        W13448  40.800  43.018   4.601
41833W        W13449   6.258  15.712  14.770
41834W        W13450  22.234  25.481  14.829
41835W        W13451   7.183   0.850  12.842
41836W        W13452   3.452  26.739  12.662
41837W        W13453  36.333  31.173   1.875
41838W        W13454   8.880  18.452   1.928
41839W        W13455  13.236  12.339   2.243
41840W        W13456  29.566  20.590  11.823
41841W        W13457  42.420   7.865   4.302
41842W        W13458  26.400   2.415  13.686
41843W        W13459  38.080  30.827  14.040
41844W        W13460  35.778  13.619   2.315
41845W        W13461  28.825  32.651   2.816
41846W        W13462   9.721  29.799   3.638
41847W        W13463  21.487  36.059  12.131
41848W        W13464   7.030   7.502   0.770
41849W        W13465  10.274  28.553   0.337
41850W        W13466  34.514  40.050   2.882
41851W        W13467   8.464  28.420  14.109
41852W        W13468  29.550   0.665  14.919
41853W        W13469  44.823  22.142  13.461
41854W        W13470   6.836  17.920  13.268
41855W        W13471  14.678  21.313   5.122
41856W        W13472  23.711  33.080  14.668
41857W        W13473  39.828   1.406  14.565
41858W        W13474  29.401  12.091  12.583
41859W        W13475  11.624  25.659   3.761
41860W        W13476  34.687  18.521   4.215
41861W        W13477  37.307  21.108  10.442
41862W        W13478  44.768  42.991   3.729
41863W        W13479  25.949  37.742  10.463
41864W        W13480   1.134  14.959  12.882
41865W        W13481  27.456  12.836  14.337
41866W        W13482  38.492  32.836   2.667
41867W        W13483  21.563  18.313  12.082
41868W        W13484  19.576   8.743  13.978
41869W        W13485  31.459  10.414   2.702
41870W        W13486  38.880  17.134  14.294
41871W        W13487  12.714  10.901  10.708
41872W        W13488  10.904   9.992   2.431
41873W        W13489   4.879  43.316   0.214
41874W        W13490  32.520   8.990   1.683
41875W        W13491  18.839  19.003  14.431
41876W        W13492  18.845  21.801  12.853
41877W        W13493  27.122   7.208  14.360
41878W        W13494  27.907  44.346   3.931
41879W        W13495   5.382  29.207   2.241
41880W        W13496   4.033  42.804  12.930
41881W        W13497  10.811   6.834   3.109
41882W        W13498  33.369   0.058  12.530
41883W        W13499  32.496  38.854   3.674
41884W        W13500  22.955  15.672  13.696
41885W        W13501  23.682  35.954  14.916
41886W        W13502  19.260  19.194   1.725
41887W        W13503  13.538  29.439   2.828
41888W        W13504  20.635   3.116   1.136
41889W        W13505   7.951   3.307   0.599
41890W        W13506  35.632  26.648  14.428
41891W        W13507  42.028   1.854   3.130
41892W        W13508   6.906  11.798   1.682
41893W        W13509  29.610  42.568  14.904
41894W        W13510  11.634  13.752   2.143
41895W        W13511   2.514  33.833   5.070
41896W        W13512  18.312  42.562  10.263
41897W        W13513  25.742  40.965   2.176
41898W        W13514  20.948  28.684   3.699
41899W        W13515   0.408   6.309   2.726
41900W        W13516  15.909  25.107  12.023
41901W        W13517  33.048  11.239   3.138
41902W        W13518   2.605  40.046   3.604
41903W        W13519   6.867  42.573  14.859
41904W        W13520  38.507  43.498  14.414
41905W        W13521  42.843  36.227  14.388
41906W        W13522   5.218   2.764  14.485
41907W        W13523  18.375   1.360  13.358
41908W        W13524   5.481  34.024  14.513
41909W        W13525  44.950  35.376  12.091
41910W        W13526  29.453  35.992   0.286
41911W        W13527   7.696  33.555   2.815
41912W        W13528  35.006   4.275   1.825
41913W        W13529  32.067  27.699   1.090
41914W        W13530  23.927  12.680   4.093
41915W        W13531  15.869  30.697  14.475
41916W        W13532  28.203  31.532   3.313
41917W        W13533  42.958  15.692   5.142
41918W        W13534  15.344  25.458  13.290
41919W        W13535   0.543  39.949  12.080
41920W        W13536  43.109  32.909  10.783
41921W        W13537  23.344  13.942  13.700
41922W        W13538  39.494  43.672  14.838
41923W        W13539  41.257  38.536  13.887
41924W        W13540  19.471  33.138  10.734
41925W        W13541   2.432  43.522   4.560
41926W        W13542  19.525  32.925  13.442
41927W        W13543  16.135  18.090  13.834
41928W        W13544   1.862  24.682   4.320
41929W        W13545  32.806  21.474   1.665
41930W        W13546  37.241  17.816  13.482
41931W        W13547  26.099   0.122  11.647
41932W        W13548  30.667  25.123  13.765
41933W        W13549  43.018   5.359  10.394
41934W        W13550   3.903  10.601  14.517
41935W        W13551  43.434  10.869  11.533
41936W        W13552  13.349  11.936  11.982
41937W        W13553  22.272  40.445   0.365
41938W        W13554  12.348   9.828  13.826
41939W        W13555  30.908  43.246   2.615
41940W        W13556  36.891   6.661   2.843
41941W        W13557  15.540   3.421  13.813
41942W        W13558  20.644  12.168   1.876
41943W        W13559   6.317  13.597  11.489
41944W        W13560   8.180  17.652   4.360
41945W        W13561  17.421  41.231  11.113
41946W        W13562  22.357  33.616   5.127
41947W        W13563  38.330  18.322  11.262
41948W        W13564  38.100  11.731   0.204
41949W        W13565  10.371  27.725   3.107
41950W        W13566  34.104  16.251   0.784
41951W        W13567  14.271   4.164   5.116
41952W        W13568  26.761  40.047   1.186
41953W        W13569   7.692   4.420   0.932
41954W        W13570  24.682  37.157  12.058
41955W        W13571  26.165  13.667  11.592
41956W        W13572  29.577   5.852   4.844
41957W        W13573  15.689  25.065  14.913
41958W        W13574  18.649   8.260   4.513
41959W        W13575   7.790  39.244   2.360
41960W        W13576  37.860   3.780  12.327
41961W        W13577   4.042  25.242  13.499
41962W        W13578  11.703  20.170   1.929
41963W        W13579  41.186   0.940  14.324
41964W        W13580  33.030  32.317  11.556
41965W        W13581  34.447  40.263   4.534
41966W        W13582  31.046  16.961   4.939
41967W        W13583  12.464  16.270   1.717
41968W        W13584  12.420  22.615   0.806
41969W        W13585  36.127  16.006   0.749
41970W        W13586  42.223   2.307  11.229
41971W        W13587  42.893  42.173  14.487
41972W        W13588   3.767  18.230  14.034
41973W        W13589  43.169  36.841  10.709
41974W        W13590  30.034  21.032   0.517
41975W        W13591  28.667   8.468  13.596
41976W        W13592   1.848  11.804  14.665
41977W        W13593  11.433  18.353  11.100
41978W        W13594  25.408  10.211  10.304
41979W        W13595  28.997  17.092  11.029
41980W        W13596   4.136   2.837   1.821
41981W        W13597  10.182  12.503   2.002
41982W        W13598   3.402  11.919  10.605
41983W        W13599  27.638  43.990   4.502
41984W        W13600  24.413   9.290   1.740
41985W        W13601  10.356  22.791  12.567
41986W        W13602  32.858  40.987   2.757
41987W        W13603  30.925  34.545   2.266
41988W        W13604  43.264  18.415   4.219
41989W        W13605   7.029  29.388  13.543
41990W        W13606  11.316  28.759   0.357
41991W        W13607  20.352   2.366   3.606
41992W        W13608  17.605   1.803   3.164
41993W        W13609  42.610  30.337   0.085
41994W        W13610  35.298  36.853  12.872
41995W        W13611  16.750  33.914   3.097
41996W        W13612  36.983   7.063   3.242
41997W        W13613  22.697  30.372   2.354
41998W        W13614   5.105  28.134  14.518
41999W        W13615  12.626   0.811   4.582
42000W        W13616  25.955  44.529   1.755
42001W        W13617   5.362  43.289  11.319
42002W        W13618  34.917   1.270   1.381
42003W        W13619  17.168  10.931  14.894
42004W        W13620  25.649   9.880  13.988
42005W        W13621  34.001  34.043   2.184
42006W        W13622  28.634  22.195  14.077
42007W        W13623  27.125  10.456  13.031
42008W        W13624  28.369  12.086  14.082
42009W        W13625   9.754   0.238  12.629
42010W        W13626  14.927  37.130   4.666
42011W        W13627  32.300  13.167  13.393
42012W        W13628   0.927   8.358   4.563
42013W        W13629  37.552  43.010   2.160
42014W        W13630   8.904   6.863   0.975
42015W        W13631   7.393  15.204   1.113
42016W        W13632  19.017  26.513   3.611
42017W        W13633  27.372  32.397  11.082
42018W        W13634  36.552  36.619  11.460
42019W        W13635  33.609  38.350   4.514
42020W        W13636  27.746  38.024   1.954
42021W        W13637   1.528  43.459   2.273
42022W        W13638  33.401   4.299  12.019
42023W        W13639  13.136  29.030   1.425
42024W        W13640  19.166  34.950   3.480
42025W        W13641   9.786  12.246   4.280
42026W        W13642  25.535   7.748  12.868
42027W        W13643  15.229  29.433  11.890
42028W        W13644  26.589   3.851  13.835
42029W        W13645  26.137  29.472  13.381
42030W        W13646   8.913   7.836  14.614
42031W        W13647  38.916  40.885  14.024
42032W        W13648  38.134  32.096   2.254
42033W        W13649   9.151  43.635  13.764
42034W        W13650  28.703  41.579   4.577
42035W        W13651  36.891  30.944  13.253
42036W        W13652  29.424  44.347  11.025
42037W        W13653  14.711  19.550  11.947
42038W        W13654   9.621  34.000  10.793
42039W        W13655   5.716  40.907  11.539
42040W        W13656  43.446   4.165  10.808
42041W        W13657  27.468  31.423   0.680
42042W        W13658  42.396  41.915  11.111
42043W        W13659  20.737  14.648   4.939
42044W        W13660  11.849  11.392   0.236
42045W        W13661  40.672  36.350   2.025
42046W        W13662   2.629  10.810   2.263
42047W        W13663   2.546   8.551   2.820
42048W        W13664  14.673  19.274   1.708
42049W        W13665  35.797  27.462   3.172
42050W        W13666  22.896  13.767  12.790
42051W        W13667   8.485  22.031   2.406
42052W        W13668  12.158  30.192  11.721
42053W        W13669   2.251   6.870   4.645
42054W        W13670  32.586  28.115  12.426
42055W        W13671  33.572   7.142   5.424
42056W        W13672  30.246  14.837  11.168
42057W        W13673  20.162  23.230   3.880
42058W        W13674  19.857   7.203   3.231
42059W        W13675  37.859  32.093  11.012
42060W        W13676  24.757  32.168   4.148
42061W        W13677  33.056  38.587   1.935
42062W        W13678   4.185  20.981   4.682
42063W        W13679  24.469  34.592  13.004
42064W        W13680  14.657  16.661   1.901
42065W        W13681  22.664  33.593   0.493
42066W        W13682  27.512  42.907  11.740
42067W        W13683  41.282  30.248   4.105
42068W        W13684  28.148   5.172  14.800
42069W        W13685   9.988  43.745  10.868
42070W        W13686  29.731   3.182  11.568
42071W        W13687  44.757  29.422   2.738
42072W        W13688  27.837  42.179   0.004
42073W        W13689  36.927  42.573  10.970
42074W        W13690  44.411   2.197  12.576
42075W        W13691  29.496   8.763   4.960
42076W        W13692  41.443  10.257  10.729
42077W        W13693  41.502  41.934   2.287
42078W        W13694  28.628  16.407  14.829
42079W        W13695  25.674  17.232   9.937
42080W        W13696   3.335  34.440   0.397
42081W        W13697  31.820  15.494   4.135
42082W        W13698  38.905  42.868  11.031
42083W        W13699  37.042  41.450  12.507
42084W        W13700  27.893  11.757   2.690
42085W        W13701  36.723  12.679  14.801
42086W        W13702  13.855   1.001  12.168
42087W        W13703  42.207   4.453   3.912
42088W        W13704  21.031  17.767   2.887
42089W        W13705  34.985  31.063  12.007
42090W        W13706  14.041  31.500   3.692
42091W        W13707  41.973  33.096   1.761
42092W        W13708  15.698   8.970  13.007
42093W        W13709  43.786   4.934  12.927
42094W        W13710  18.023  42.574  10.704
42095W        W13711  41.619   4.443  14.694
42096W        W13712  39.383  33.433   4.853
42097W        W13713  30.888  41.503  10.267
42098W        W13714  24.957  36.928  12.890
42099W        W13715  18.475   9.659  11.009
42100W        W13716  41.517  37.060   2.904
42101W        W13717  20.472  33.613  12.962
42102W        W13718   2.788   0.024  13.422
42103W        W13719   0.752  16.770   0.325
42104W        W13720  14.493  21.086  12.094
42105W        W13721   1.227  33.431   1.165
42106W        W13722  13.633  22.714   1.793
42107W        W13723  24.394   9.223   0.792
42108W        W13724  24.215  40.349  14.505
42109W        W13725  19.866  36.004   0.806
42110W        W13726  28.251  19.003  14.861
42111W        W13727  29.016  43.861   3.185
42112W        W13728   1.783  32.597   3.124
42113W        W13729  34.988  32.569  11.474
42114W        W13730   4.265  19.731  12.452
42115W        W13731  13.842  19.287  13.824
42116W        W13732  22.972  14.127  14.012
42117W        W13733  43.442  20.418   4.752
42118W        W13734   1.972   3.464  10.702
42119W        W13735  33.583  23.637  14.250
42120W        W13736  24.140   7.410   3.898
42121W        W13737  31.027  15.160  11.060
42122W        W13738  17.504  44.603   5.393
42123W        W13739  18.332  23.049  12.498
42124W        W13740  14.186  23.591   1.962
42125W        W13741  40.389   1.797   0.393
42126W        W13742  40.196  33.780  10.715
42127W        W13743  32.628   4.348   2.501
42128W        W13744  15.335   4.201   0.757
42129W        W13745  10.174  25.692  12.536
42130W        W13746  25.071  30.535   2.470
42131W        W13747  24.639  35.615  13.088
42132W        W13748  14.842   5.098   3.834
42133W        W13749  18.282  34.156   0.054
42134W        W13750  23.607  35.610   2.824
42135W        W13751  34.158  35.141  11.563
42136W        W13752  28.028   3.069  11.040
42137W        W13753   8.844  34.859   3.184
42138W        W13754  24.940  35.092   4.805
42139W        W13755   4.474  11.266  13.323
42140W        W13756  31.576   8.043   3.696
42141W        W13757  31.968   5.229   1.883
42142W        W13758  35.422   2.499   3.215
42143W        W13759  39.883  23.980  14.986
42144W        W13760  14.626   8.898  13.410
42145W        W13761  24.459  21.228   0.340
42146W        W13762  30.018  43.586   3.561
42147W        W13763  42.526  12.831  13.166
42148W        W13764   2.889  33.542   4.829
42149W        W13765  19.161  25.284  11.503
42150W        W13766  40.512  13.922  12.533
42151W        W13767  36.295  21.050   9.788
42152W        W13768  15.223  11.291   2.289
42153W        W13769  21.108   0.331   1.219
42154W        W13770  15.368  44.557   3.236
42155W        W13771   5.712  16.554  11.519
42156W        W13772  10.616   7.588  12.913
42157W        W13773  31.077  11.705  10.308
42158W        W13774   4.953   8.654  10.901
42159W        W13775  30.762  29.608   2.373
42160W        W13776  33.970   0.268  14.028
42161W        W13777   7.326  41.405  14.752
42162W        W13778   8.739  31.135  10.386
42163W        W13779  28.958  43.051   2.620
42164W        W13780  13.884  34.623  12.518
42165W        W13781  12.065  30.319  11.192
42166W        W13782  19.167  25.567   3.680
42167W        W13783  29.834  23.517   3.711
42168W        W13784  40.979   2.259  11.618
42169W        W13785  23.769  43.723   3.034
42170W        W13786  37.356  21.485  13.815
42171W        W13787  27.040  21.585   2.020
42172W        W13788  44.433  35.589  14.949
42173W        W13789  43.880   9.202   4.285
42174W        W13790  44.427  44.425  13.489
42175W        W13791  25.212  25.092   0.844
42176W        W13792  38.952  44.050   1.373
42177W        W13793  42.506  31.100   0.341
42178W        W13794  27.223  26.630   3.368
42179W        W13795  10.089  41.241   5.455
42180W        W13796  23.142  33.360   0.415
42181W        W13797  35.488  41.009  13.630
42182W        W13798  17.062   7.234  13.033
42183W        W13799  19.067  15.022   1.329
42184W        W13800  38.531  36.250   4.585
42185W        W13801  27.441  41.380  11.437
42186W        W13802  36.500  37.488   3.926
42187W        W13803  44.979  11.122   3.349
42188W        W13804   6.020  30.342   0.793
42189W        W13805  34.044  43.329   4.059
42190W        W13806   1.742  20.553   4.183
42191W        W13807   1.415  41.535   1.941
42192W        W13808   0.195  18.387   1.911
42193W        W13809  24.929  27.608   0.399
42194W        W13810  15.286   7.599   1.693
42195W        W13811  14.649  41.877   0.470
42196W        W13812  11.813  39.075  11.507
42197W        W13813  30.596   7.197   4.743
42198W        W13814  40.332  12.586  14.719
42199W        W13815  25.262  44.192  14.947
42200W        W13816  36.493  10.947   0.793
42201W        W13817   2.245  28.677   3.881
42202W        W13818  39.332  36.943  10.781
42203W        W13819  38.384  36.580   2.625
42204W        W13820   0.488   7.899   1.750
42205W        W13821   5.396   7.178  11.104
42206W        W13822  17.464  44.040   4.197
42207W        W13823  42.776  27.912   0.448
42208W        W13824  31.029  32.490   1.408
42209W        W13825  34.157  17.118  11.049
42210W        W13826   4.519  18.580  10.650
42211W        W13827  34.174  17.563   0.870
42212W        W13828  37.270  27.632   4.221
42213W        W13829   9.344  10.216  13.248
42214W        W13830  36.144  33.470   9.755
42215W        W13831  10.885  35.897  14.096
42216W        W13832  42.386  31.838  13.110
42217W        W13833  23.438  44.202  14.055
42218W        W13834   6.900  31.565   3.712
42219W        W13835  24.500  12.422   0.674
42220W        W13836   2.366  37.066  12.923
42221W        W13837  13.629  33.995   4.388
42222W        W13838   9.178  28.095  10.240
42223W        W13839  39.818  22.186  10.693
42224W        W13840   9.367  19.319   2.566
42225W        W13841  18.808  26.145   4.767
42226W        W13842   1.179  31.912   3.310
42227W        W13843   2.364  36.035   0.437
42228W        W13844  32.656  32.152   0.913
42229W        W13845  24.265  19.142  14.992
42230W        W13846  38.356  10.189   0.859
42231W        W13847  12.356  11.667   1.457
42232W        W13848  15.130   1.961   3.546
42233W        W13849  37.065  12.597  10.287
42234W        W13850   0.521   6.027   4.065
42235W        W13851  13.021  19.375   3.281
42236W        W13852  25.749  38.280   4.095
42237W        W13853  11.327  28.520   0.912
42238W        W13854  16.819  41.760   4.951
42239W        W13855  21.665  12.255   0.218
42240W        W13856  22.636  21.676   2.665
42241W        W13857  14.604  37.724   3.372
42242W        W13858  24.104  32.887   0.408
42243W        W13859  20.157  41.712  14.725
42244W        W13860  36.120  31.487  13.800
42245W        W13861  19.676  23.712   1.407
42246W        W13862   7.671  19.684  14.899
42247W        W13863   8.156  26.653   2.633
42248W        W13864   3.426  26.451  14.963
42249W        W13865  19.041  21.051  14.486
42250W        W13866  15.587  37.139  13.520
42251W        W13867   0.680   5.614   0.473
42252W        W13868  33.495   0.239  14.301
42253W        W13869  27.624  25.209  13.557
42254W        W13870  33.443  21.809   4.908
42255W        W13871  16.067  29.140  13.949
42256W        W13872  34.721  24.549  13.314
42257W        W13873  35.928  12.606   2.650
42258W        W13874  32.299  28.999  13.672
42259W        W13875  42.983  42.517   2.150
42260W        W13876  35.081   1.513  11.580
42261W        W13877  22.532  15.940  13.892
42262W        W13878  43.324  37.957   0.126
42263W        W13879  33.474  12.674   1.722
42264W        W13880  23.995  36.804   3.250
42265W        W13881   9.553   2.667   0.634
42266W        W13882  34.243  13.289   3.224
42267W        W13883   2.209  22.458   3.195
42268W        W13884  24.728  33.694  13.833
42269W        W13885  24.124   5.822  13.893
42270W        W13886  44.230  23.285   4.105
42271W        W13887  12.564  28.993   4.620
42272W        W13888  24.700   3.304   1.491
42273W        W13889  38.994  13.110  14.384
42274W        W13890  13.107   3.625   2.364
42275W        W13891  36.812  38.363   4.352
42276W        W13892  30.501  19.484   0.025
42277W        W13893  18.864  44.385   4.168
42278W        W13894  26.858  39.482  13.923
42279W        W13895  28.183  41.821   1.867
42280W        W13896  29.355  40.896  14.805
42281W        W13897  37.034   8.803   1.321
42282W        W13898  13.190   3.601  12.945
42283W        W13899  19.465  34.334  12.880
42284W        W13900  33.898  30.828   4.993
42285W        W13901  33.162  12.320   3.165
42286W        W13902  35.640  21.035  12.314
42287W        W13903  30.053  40.814   4.815
42288W        W13904   4.885  35.829  13.045
42289W        W13905  22.195  33.723   2.225
42290W        W13906  22.324  22.090  10.573
42291W        W13907  10.605  32.425  13.409
42292W        W13908  30.544  32.951   0.080
42293W        W13909  27.695  32.412  11.542
42294W        W13910   8.256   4.487   0.905
42295W        W13911  40.419  20.111  10.929
42296W        W13912  39.934  24.330  13.971
42297W        W13913  25.656  33.682  12.349
42298W        W13914  18.286  13.332  14.916
42299W        W13915  15.262  19.336   3.310
42300W        W13916  28.202  10.241  12.151
42301W        W13917  11.381   8.638  14.436
42302W        W13918  15.707   7.811   9.918
42303W        W13919   2.256  16.258  10.954
42304W        W13920  42.382  28.960  14.287
42305W        W13921  16.584  13.308  14.265
42306W        W13922  13.953  26.893   0.542
42307W        W13923  17.507  11.742  13.026
42308W        W13924  17.702  15.765  14.467
42309W        W13925  11.434  25.145   1.405
42310W        W13926  42.046  22.572  11.590
42311W        W13927  33.418   5.872   1.707
42312W        W13928  38.068   5.198   3.677
42313W        W13929  37.367  25.216   0.949
42314W        W13930  30.635  15.674  10.543
42315W        W13931  17.716   1.719  12.471
42316W        W13932  15.891  26.762   1.919
42317W        W13933  32.128  31.055   0.308
42318W        W13934  39.019  19.216   1.448
42319W        W13935  33.443  11.320   3.792
42320W        W13936  29.664  21.139  11.085
42321W        W13937  37.973  32.631   1.466
42322W        W13938  38.730  12.626   3.719
42323W        W13939  31.817  28.942   4.246
42324W        W13940  35.864   4.339   4.109
42325W        W13941  43.462  37.917   9.901
42326W        W13942  26.008  38.273   3.652
42327W        W13943  25.547   7.643  11.925
42328W        W13944  19.045  43.773   0.758
42329W        W13945  41.997   5.204   0.420
42330W        W13946  39.076  39.053   1.370
42331W        W13947  42.402  44.509  12.517
42332W        W13948  17.228  26.980  13.544
42333W        W13949  13.865  33.956  12.010
42334W        W13950   5.806  23.230   3.262
42335W        W13951  11.408  11.168   4.550
42336W        W13952  28.528  29.420  10.080
42337W        W13953  19.527  33.111   3.778
42338W        W13954  42.043  33.076   4.135
42339W        W13955  18.683  38.503   0.084
42340W        W13956   5.878  21.473   0.582
42341W        W13957  33.589  13.412   2.689
42342W        W13958  21.293  17.344  11.194
42343W        W13959  31.951   5.525   0.619
42344W        W13960  33.788   1.814   0.041
42345W        W13961   6.442  42.852  14.416
42346W        W13962  31.050  42.823   2.854
42347W        W13963  44.523  33.819  11.462
42348W        W13964  35.081  23.559  10.568
42349W        W13965  42.301  44.977  13.279
42350W        W13966  36.136  19.461  11.898
42351W        W13967  41.977  21.300  11.137
42352W        W13968  29.060  16.345   3.318
42353W        W13969  38.248  16.264  11.653
42354W        W13970  38.432  11.287  14.260
42355W        W13971  32.906   7.581  13.014
42356W        W13972   8.691  33.388  14.869
42357W        W13973  15.742  24.116   2.365
42358W        W13974  16.842  44.875  14.773
42359W        W13975   3.725  41.015  14.782
42360W        W13976  15.390   3.927  14.034
42361W        W13977  41.753  16.559  11.148
42362W        W13978  22.997  38.841   4.133
42363W        W13979  42.098  16.654  14.793
42364W        W13980  13.911  13.706  14.913
42365W        W13981  18.644  20.328   3.907
42366W        W13982   8.120  36.061  13.035
42367W        W13983   1.128  37.483  14.368
42368W        W13984  44.379  24.118  11.007
42369W        W13985  39.276  37.574  11.621
42370W        W13986   9.947   3.682  11.126
42371W        W13987   7.137  37.891   2.681
42372W        W13988   8.959   1.432  13.288
42373W        W13989  22.233  37.982  10.590
42374W        W13990  15.075  12.821   0.833
42375W        W13991  35.895  19.144  11.115
42376W        W13992  28.184  39.279  13.412
42377W        W13993  16.070   3.338  13.881
42378W        W13994  24.210  38.300  12.275
42379W        W13995  44.701  14.820   0.823
42380W        W13996  43.514  13.401  14.378
42381W        W13997   1.647   4.260   3.042
42382W        W13998  12.150   2.850  12.781
42383W        W13999  12.019  43.824   2.462
42384W        W14000  35.025  11.350   2.880
42385W        W14001   9.713  32.858  12.257
42386W        W14002  14.503  39.833  11.640
42387W        W14003  13.907  10.762  14.943
42388W        W14004  15.263  41.312   1.744
42389W        W14005   9.722  36.352   0.436
42390W        W14006   6.660  22.753   4.512
42391W        W14007  24.314   4.610   4.325
42392W        W14008  21.285  41.777  11.507
42393W        W14009   9.823  22.257  12.044
42394W        W14010  27.145   2.329  14.350
42395W        W14011  41.473   6.784  10.678
42396W        W14012  16.275   4.693   3.319
42397W        W14013   6.403  22.778   1.349
42398W        W14014  22.298   1.061   2.234
42399W        W14015  36.795  33.885   4.828
42400W        W14016  24.922  40.647   1.832
42401W        W14017  41.901   0.083   4.513
42402W        W14018  41.952  36.441  10.614
42403W        W14019  42.443  28.242   4.300
42404W        W14020  28.200  36.486   3.252
42405W        W14021  32.519  37.508   2.416
42406W        W14022  38.064  24.096  14.049
42407W        W14023   1.814   8.838  11.544
42408W        W14024  16.096  41.228   2.750
42409W        W14025   0.982  20.096   3.825
42410W        W14026  43.899  28.000  13.548
42411W        W14027  37.785  21.156  12.519
42412W        W14028  28.569   9.288   1.868
42413W        W14029   9.112  26.023   4.619
42414W        W14030   7.875   5.105   4.334
42415W        W14031  12.284  26.890  14.896
42416W        W14032  17.965   5.157  12.612
42417W        W14033  23.616   9.678  14.550
42418W        W14034  42.717  25.208  11.469
42419W        W14035   4.809  14.771  11.733
42420W        W14036  10.848  30.436   2.785
42421W        W14037   2.738  12.648  11.408
42422W        W14038  17.252  13.708   0.022
42423W        W14039  22.797  16.640  14.934
42424W        W14040  10.391  26.206  11.047
42425W        W14041  34.471  25.051   0.636
42426W        W14042   4.156   0.484  13.454
42427W        W14043   0.503  30.061  12.350
42428W        W14044  18.343  15.165  13.293
42429W        W14045  30.970  16.225   4.212
42430W        W14046  16.857  26.924   0.547
42431W        W14047   8.846  19.932   3.042
42432W        W14048  38.319   0.764   1.227
42433W        W14049  21.086  23.435   4.814
42434W        W14050  20.782  35.883   2.185
42435W        W14051  17.955   9.385   1.336
42436W        W14052  26.741  26.775   0.446
42437W        W14053   9.949  40.331   0.758
42438W        W14054  10.319  31.968  14.572
42439W        W14055  14.598  40.253   1.291
42440W        W14056   6.124   4.478   2.886
42441W        W14057   9.312  38.059  11.251
42442W        W14058   0.729  25.980  12.900
42443W        W14059  16.088  23.142   0.417
42444W        W14060  36.941   3.517   1.365
42445W        W14061  21.814   1.701   0.890
42446W        W14062  22.687  36.439   0.334
42447W        W14063  32.278  34.073  11.373
42448W        W14064   8.837   3.945   1.228
42449W        W14065   0.820  23.007   4.628
42450W        W14066  22.264  22.117  11.522
42451W        W14067  17.198  26.653  14.795
42452W        W14068  40.356  11.894  12.308
42453W        W14069  11.504  36.413  11.713
42454W        W14070  27.514   7.898  13.020
42455W        W14071  37.090  22.723   4.054
42456W        W14072  18.779  15.649  14.456
42457W        W14073  36.369  41.445  12.807
42458W        W14074  24.602   7.807   3.237
42459W        W14075  11.852  34.412  14.448
42460W        W14076  22.170   7.730  10.675
42461W        W14077   9.357  33.968  14.194
42462W        W14078  40.468  37.444  11.983
42463W        W14079   3.792  37.568  11.719
42464W        W14080  29.000  31.923   0.163
42465W        W14081   0.978  20.972  11.608
42466W        W14082   4.873  33.896   2.782
42467W        W14083  43.553  26.948   0.392
42468W        W14084  35.203  16.834  13.453
42469W        W14085  27.957  14.284   4.210
42470W        W14086  25.231  37.843  12.808
42471W        W14087   1.045  42.046  11.120
42472W        W14088  28.482  16.889   2.409
42473W        W14089  23.325  19.280  13.790
42474W        W14090  22.293  26.157   0.721
42475W        W14091  35.582   6.894   0.982
42476W        W14092  28.688  35.064  12.485
42477W        W14093  34.642  17.265  13.296
42478W        W14094  17.167  44.460  11.001
42479W        W14095  39.422  23.819   1.014
42480W        W14096  28.730   0.914  13.922
42481W        W14097  38.884  20.942  11.117
42482W        W14098  28.932  31.402   0.243
42483W        W14099  20.219  16.110   4.295
42484W        W14100  15.702   6.771  10.992
42485W        W14101  34.952   0.628   3.543
42486W        W14102  37.535  32.365  11.295
42487W        W14103  39.813   8.392  12.600
42488W        W14104  32.884  29.407  14.957
42489W        W14105   8.412   8.298   0.324
42490W        W14106  26.448   4.417   3.863
42491W        W14107  38.842  26.933   4.453
42492W        W14108  22.738  15.608  14.545
42493W        W14109  29.619  42.323  12.226
42494W        W14110   9.900  10.820   2.292
42495W        W14111  34.352   0.205   5.495
42496W        W14112  42.867  37.417  11.679
42497W        W14113   0.109  28.011   2.629
42498W        W14114  43.277  32.157   1.740
42499W        W14115  27.618   2.483  12.415
42500W        W14116  44.785  15.880  12.026
42501W        W14117   1.255  42.835  12.280
42502W        W14118   5.981  29.801   3.363
42503W        W14119  34.673   7.277  11.118
42504W        W14120  23.684  27.645  12.804
42505W        W14121  23.922  20.988  14.432
42506W        W14122  34.625  22.681   4.278
42507W        W14123  38.891  43.557   3.677
42508W        W14124   2.986   9.779  13.807
42509W        W14125  26.581   1.533   1.364
42510W        W14126  18.286  24.143   1.479
42511W        W14127  43.471   1.294  11.217
42512W        W14128  17.762   1.215  12.526
42513W        W14129  20.521   1.300   4.329
42514W        W14130  18.583  37.635   1.559
42515W        W14131   4.864   6.844   2.437
42516W        W14132   0.026  40.495   3.243
42517W        W14133   6.893   7.550   4.280
42518W        W14134  13.312  14.300  11.609
42519W        W14135  43.736  17.808   3.257
42520W        W14136   7.117  27.500   1.830
42521W        W14137  10.472  35.705  14.391
42522W        W14138  20.439  20.553   1.257
42523W        W14139   8.796  33.357  12.559
42524W        W14140  34.918  41.257   4.325
42525W        W14141  36.999  14.200   1.265
42526W        W14142   8.731  17.120  11.116
42527W        W14143   0.090   8.242  10.910
42528W        W14144  32.887  39.301  13.586
42529W        W14145  16.362  35.572  12.098
42530W        W14146  14.855  33.076   4.569
42531W        W14147  18.298  26.758   3.343
42532W        W14148   4.687  15.195   0.542
42533W        W14149   0.927   7.767  10.593
42534W        W14150  42.739  12.244  10.755
42535W        W14151  26.113  36.580   3.124
42536W        W14152  33.631  24.081  12.962
42537W        W14153  11.720  44.774  14.330
42538W        W14154  29.591   7.171  14.086
42539W        W14155  24.999  35.966   3.842
42540W        W14156  15.913   1.914   3.702
42541W        W14157  10.477  39.628  11.649
42542W        W14158  35.677   0.777   0.907
42543W        W14159  37.553   0.894   0.715
42544W        W14160  20.032   6.389  11.541
42545W        W14161  17.999  12.760  12.422
42546W        W14162  34.677  11.320   3.715
42547W        W14163  32.461  39.817   0.161
42548W        W14164  24.272   1.381  12.961
42549W        W14165  30.087  39.971  11.554
42550W        W14166  32.865  26.861  11.646
42551W        W14167  30.603   7.830  10.868
42552W        W14168  33.943   4.655  14.761
42553W        W14169   3.765  33.529  10.830
42554W        W14170  38.068  32.641  14.060
42555W        W14171  27.362   6.587  13.806
42556W        W14172  27.025  32.555  11.458
42557W        W14173  11.770  14.830   4.328
42558W        W14174  26.615  22.531  12.470
42559W        W14175  44.115   8.737  12.918
42560W        W14176  23.220  23.155  13.612
42561W        W14177  13.226  13.583   1.822
42562W        W14178   1.745  31.505  13.368
42563W        W14179  40.991  31.692  11.192
42564W        W14180  14.631  15.592  12.350
42565W        W14181  40.170  30.405   4.057
42566W        W14182  24.442   4.441  14.943
42567W        W14183  31.869  30.643  11.524
42568W        W14184  13.631   9.614  12.500
42569W        W14185   0.741  17.648  11.178
42570W        W14186  37.957   1.269   2.846
42571W        W14187   7.379  12.296  14.853
42572W        W14188  12.424   5.687  12.512
42573W        W14189  26.468  44.765  11.933
42574W        W14190  12.417   8.440  13.469
42575W        W14191  41.448   9.197   1.954
42576W        W14192  43.017  36.559  13.437
42577W        W14193  38.335   9.393   1.407
42578W        W14194   9.614  43.206  12.577
42579W        W14195  43.882  38.672  11.631
42580W        W14196   6.727  14.311   4.407
42581W        W14197   1.712  18.188   0.339
42582W        W14198  31.473  35.938   0.800
42583W        W14199  22.179  11.201   4.658
42584W        W14200  25.354  16.673  10.724
42585W        W14201  11.187  41.321  14.419
42586W        W14202   8.121   4.364   2.806
42587W        W14203   6.258   6.302   5.512
42588W        W14204   1.764   9.396  14.307
42589W        W14205  14.533  25.881  11.080
42590W        W14206  21.579   5.405  12.351
42591W        W14207  14.865  32.993  13.571
42592W        W14208  29.000  11.854   4.511
42593W        W14209   4.248  22.768  11.398
42594W        W14210  37.541   3.795  14.221
42595W        W14211  16.159  39.405   3.089
42596W        W14212   7.355  37.466  14.967
42597W        W14213  22.315  18.098   3.159
42598W        W14214  44.428  32.385   4.227
42599W        W14215  17.997  38.382  10.363
42600W        W14216  33.396  14.383   1.613
42601W        W14217  40.979  24.822  12.853
42602W        W14218   9.256  39.004  11.521
42603W        W14219  26.960  18.038   3.713
42604W        W14220  16.312   4.277  12.516
42605W        W14221  12.278   9.370  13.487
42606W        W14222   3.267  44.284   4.243
42607W        W14223  37.709  31.567   3.425
42608W        W14224  36.630   5.844  12.427
42609W        W14225  23.080  15.452   3.128
42610W        W14226  22.173  23.609  14.830
42611W        W14227  31.446  19.491  12.469
42612W        W14228  40.973  30.627  10.870
42613W        W14229   5.487   1.830   4.667
42614W        W14230   1.239   1.324  14.736
42615W        W14231  18.471   4.214   1.673
42616W        W14232   5.230  30.551  12.832
42617W        W14233  17.725  34.037   2.149
42618W        W14234  14.903  17.621   2.678
42619W        W14235  12.897  33.636   4.209
42620W        W14236  12.121  31.615  13.116
42621W        W14237  43.470  28.527  14.800
42622W        W14238  42.257   9.848  11.111
42623W        W14239  24.661  34.098   2.893
42624W        W14240  29.941   7.130   0.495
42625W        W14241   4.481  37.054  10.683
42626W        W14242  17.742  17.074  12.169
42627W        W14243  16.304  33.877   0.795
42628W        W14244  42.204  43.407  11.119
42629W        W14245  24.237  15.152  13.396
42630W        W14246  29.937  16.150  14.019
42631W        W14247  40.691  38.513   0.758
42632W        W14248  39.695  31.567  14.146
42633W        W14249  26.235  44.283  14.302
42634W        W14250  32.570  16.691  11.533
42635W        W14251  18.698  27.917  12.576
42636W        W14252   8.170  25.201  13.411
42637W        W14253  39.318   6.150   3.708
42638W        W14254   7.670  12.903   3.149
42639W        W14255   6.371  25.622  11.988
42640W        W14256  33.740  43.055   1.251
42641W        W14257  12.820  42.455   0.975
42642W        W14258  13.038  41.858  13.349
42643W        W14259  40.976  13.442   0.496
42644W        W14260  35.844  42.784  11.568
42645W        W14261  29.075  22.765   1.868
42646W        W14262  10.224  19.790  12.793
42647W        W14263  16.478   4.282   1.961
42648W        W14264  14.320  14.435   0.388
42649W        W14265  37.289   2.953  11.094
42650W        W14266   3.126  37.449   4.916
42651W        W14267  26.053  41.216   1.262
42652W        W14268  23.970  41.274   4.063
42653W        W14269  12.408  18.147   0.835
42654W        W14270  42.815  10.397  11.129
42655W        W14271  30.584   0.261   1.375
42656W        W14272  25.011  41.366  13.045
42657W        W14273  22.787   9.867  14.444
42658W        W14274  12.623  31.873  10.638
42659W        W14275   6.231  43.799  13.943
42660W        W14276   0.918  44.993   1.004
42661W        W14277  34.394  43.542  10.399
42662W        W14278   4.959  36.738  13.373
42663W        W14279  39.892  15.593  13.842
42664W        W14280   0.524  18.615  12.597
42665W        W14281  23.200  40.553   2.806
42666W        W14282  32.300   5.877  12.038
42667W        W14283  32.631  17.310  10.665
42668W        W14284   9.865   0.963   1.370
42669W        W14285  20.563  44.743  11.654
42670W        W14286  21.730  29.389  13.508
42671W        W14287  42.885   3.564  12.977
42672W        W14288  37.817  29.067   1.744
42673W        W14289  28.971  44.415  12.459
42674W        W14290  14.687   0.789  14.010
42675W        W14291  20.247  18.793   2.576
42676W        W14292   2.005  23.138   4.985
42677W        W14293  19.503  31.436  12.389
42678W        W14294  34.432  28.066  14.741
42679W        W14295  24.184  27.075   1.672
42680W        W14296   1.435   4.538   3.994
42681W        W14297  40.836  35.535  14.425
42682W        W14298  32.563  14.122   2.157
42683W        W14299  27.266  26.906   2.753
42684W        W14300  10.313  31.144   2.772
42685W        W14301  18.158  37.355  12.047
42686W        W14302  15.876  34.179   0.738
42687W        W14303  32.187  34.172  12.224
42688W        W14304   2.752  44.110  11.003
42689W        W14305  10.909   3.684  13.001
42690W        W14306  12.897  35.078   0.011
42691W        W14307  42.397   0.221   1.945
42692W        W14308  18.824  38.397   3.730
42693W        W14309  16.294  22.656  11.233
42694W        W14310  30.423  40.813  11.640
42695W        W14311  35.054  15.037  10.820
42696W        W14312  14.796  38.596   3.015
42697W        W14313  18.750  33.042  11.197
42698W        W14314  27.512  24.526  10.832
42699W        W14315  28.743  33.592   2.741
42700W        W14316  10.104  10.720   4.604
42701W        W14317   8.207  18.082  13.453
42702W        W14318  19.239  20.264  12.914
42703W        W14319  20.526  40.200   2.622
42704W        W14320  15.295   6.184   1.746
42705W        W14321  37.399  13.576  13.015
42706W        W14322  17.084   5.314   1.607
42707W        W14323  23.521  34.907   3.231
42708W        W14324  39.805   4.541  10.667
42709W        W14325  32.220   1.929  11.555
42710W        W14326   2.309   9.581   3.903
42711W        W14327  21.558  14.889   4.072
42712W        W14328  19.458  33.379   1.474
42713W        W14329  17.183   5.383   2.407
42714W        W14330  13.441  32.563  14.928
42715W        W14331  19.129  14.132   0.137
42716W        W14332   2.252  22.185  13.412
42717W        W14333  26.731  14.142   1.326
42718W        W14334  14.736  42.318   1.820
42719W        W14335  35.148  10.793   0.747
42720W        W14336   6.926  40.310   1.663
42721W        W14337  40.787  26.642   5.217
42722W        W14338  23.262  24.242  10.339
42723W        W14339  22.081  27.489  12.105
42724W        W14340  28.031  22.297  14.763
42725W        W14341  44.857  37.861   0.663
42726W        W14342  13.461  43.099  10.303
42727W        W14343  19.714   5.253   0.940
42728W        W14344  43.821   8.701  11.446
42729W        W14345  43.152  33.270  12.401
42730W        W14346   1.303  10.276   0.754
42731W        W14347   5.519  13.159   2.882
42732W        W14348   4.013  18.348   3.131
42733W        W14349   6.239  33.586   2.604
42734W        W14350  36.325   9.618  13.143
42735W        W14351   0.024   1.324  13.893
42736W        W14352  10.739  26.198   1.477
42737W        W14353   0.791  10.799  12.087
42738W        W14354   7.365  32.451  14.488
42739W        W14355  20.480  26.488   3.324
42740W        W14356  14.793  17.325   3.131
42741W        W14357   7.207  14.080  12.449
42742W        W14358  23.552  28.224   1.343
42743W        W14359  30.113  26.471   0.931
42744W        W14360  38.271  13.584   0.988
42745W        W14361  32.812  16.146   1.116
42746W        W14362  33.682   8.244   0.999
42747W        W14363   9.835  37.504   2.365
42748W        W14364  15.176  20.872   3.219
42749W        W14365  26.911  26.858  11.483
42750W        W14366  18.395  25.125  12.634
42751W        W14367  39.420  16.608   2.678
42752W        W14368  40.261  10.199   9.976
42753W        W14369  20.642  36.169   4.195
42754W        W14370   7.417  36.931   4.800
42755W        W14371  37.797  39.112  14.459
42756W        W14372  11.787  38.871  12.336
42757W        W14373   3.334  42.542   1.750
42758W        W14374  10.271   2.385  11.067
42759W        W14375   7.098  17.992  14.522
42760W        W14376  14.141  17.969   2.777
42761W        W14377   5.888  20.798  12.012
42762W        W14378   4.563  36.615  14.321
42763W        W14379  30.082  41.830  11.120
42764W        W14380  15.170  32.520   1.385
42765W        W14381  31.317  15.345   4.124
42766W        W14382   8.752  16.989   4.234
42767W        W14383  43.543   3.837  13.071
42768W        W14384  29.634  42.700   1.410
42769W        W14385  33.408  37.987  11.535
42770W        W14386  34.004  41.120   1.048
42771W        W14387   4.764   1.535  13.666
42772W        W14388  23.608  40.712   3.266
42773W        W14389  37.379  16.615  13.465
42774W        W14390  39.004  12.764   2.684
42775W        W14391  44.261  44.455  14.315
42776W        W14392  35.543  40.567  11.931
42777W        W14393  37.446   0.316  14.276
42778W        W14394  18.826  20.318   1.294
42779W        W14395  33.579  16.604  12.574
42780W        W14396  17.695  44.918  12.927
42781W        W14397  13.231  37.077   3.151
42782W        W14398   2.401  35.282  14.071
42783W        W14399  42.848  16.631   4.639
42784W        W14400  40.879  22.992  14.224
42785W        W14401  33.335  42.076   3.865
42786W        W14402  21.266  25.910   5.001
42787W        W14403   2.099   9.164   4.182
42788W        W14404  30.047  30.467  11.535
42789W        W14405  22.409  42.754   4.170
42790W        W14406  25.329  25.059   4.567
42791W        W14407   5.419  35.490  13.371
42792W        W14408  27.050  30.868   0.343
42793W        W14409   9.663  14.318  13.073
42794W        W14410  31.051  16.033  10.619
42795W        W14411  13.348  18.533  13.893
42796W        W14412   1.290  21.793   2.729
42797W        W14413   9.372  20.438  12.783
42798W        W14414  39.986   6.780   2.979
42799W        W14415   3.345  12.808   3.963
42800W        W14416   4.892   1.756  12.026
42801W        W14417   5.867  16.772   2.737
42802W        W14418  33.478   9.782   0.892
42803W        W14419  40.785  28.557   4.646
42804W        W14420   1.469  25.101   3.917
42805W        W14421  26.417   5.423  11.001
42806W        W14422  18.426  35.710   1.280
42807W        W14423   5.731  12.228   2.699
42808W        W14424  32.839  28.565   3.368
42809W        W14425   2.447   5.377   1.427
42810W        W14426  22.135  12.463   3.837
42811W        W14427  25.786  31.194   0.380
42812W        W14428  26.166   6.914  11.597
42813W        W14429   0.470  21.000  12.369
42814W        W14430  25.486   3.174  13.058
42815W        W14431  21.105  12.334  12.144
42816W        W14432  33.374  33.589   1.294
42817W        W14433  10.321   7.126   2.082
42818W        W14434  14.723  18.055   0.466
42819W        W14435  22.659  24.390  13.697
42820W        W14436  41.731  27.600   4.586
42821W        W14437  33.349   5.459  14.882
42822W        W14438   8.885  21.062   1.303
42823W        W14439  40.887   4.518  12.356
42824W        W14440  21.240  34.649   0.930
42825W        W14441  36.039  42.540  12.393
42826W        W14442   9.675   2.481  10.542
42827W        W14443  18.000  25.149   0.430
42828W        W14444  33.516   1.970  11.027
42829W        W14445  30.553  39.780   3.646
42830W        W14446  21.095  34.717   1.879
42831W        W14447  26.230  21.959   3.290
42832W        W14448  28.916   8.932   0.893
42833W        W14449  28.762  12.128  13.701
42834W        W14450  21.694  38.318  12.062
42835W        W14451  22.516  32.064  12.522
42836W        W14452   3.279   1.756  11.467
42837W        W14453   8.654   3.449   1.251
42838W        W14454  29.916  20.205  14.805
42839W        W14455  13.687   8.910   0.214
42840W        W14456  37.436  15.754   0.348
42841W        W14457  33.925   3.257   0.932
42842W        W14458  33.950  35.645  11.552
42843W        W14459   1.273  32.087   4.174
42844W        W14460  30.641  31.445   2.228
42845W        W14461   6.330  41.081  11.047
42846W        W14462  35.046  16.572  14.471
42847W        W14463  23.475  17.765  10.629
42848W        W14464  11.779  30.683  13.853
42849W        W14465   2.196  16.728   3.780
42850W        W14466  42.933  12.892  14.469
42851W        W14467   3.832   3.378   2.663
42852W        W14468  24.587  32.275   1.048
42853W        W14469  13.374   3.017   4.731
42854W        W14470   1.031  14.229   1.896
42855W        W14471  43.285   4.489  11.214
42856W        W14472  41.906  38.771  11.090
42857W        W14473   9.255  36.122  13.883
42858W        W14474   2.221  33.759  13.909
42859W        W14475  26.093   0.816  12.025
42860W        W14476  33.046  22.181   3.179
42861W        W14477   2.195  23.684   2.375
42862W        W14478  14.651  21.259  11.634
42863W        W14479  44.474   2.905  14.259
42864W        W14480  37.474  25.613   1.753
42865W        W14481  24.987  41.341  10.692
42866W        W14482  44.917  24.873  12.079
42867W        W14483  37.622  21.560  14.814
42868W        W14484  22.163  30.413   0.927
42869W        W14485  30.943   9.719   3.296
42870W        W14486  28.123  34.349  10.651
42871W        W14487  13.250  43.373  14.489
42872W        W14488   4.687  30.901   3.949
42873W        W14489  42.238  43.882  10.519
42874W        W14490   0.761  42.517   4.202
42875W        W14491   5.367   2.009   3.717
42876W        W14492  25.624  23.319  11.138
42877W        W14493   0.322  33.884   5.039
42878W        W14494  19.211   9.957   1.213
42879W        W14495   9.386   8.878  10.741
42880W        W14496  10.967  28.201  14.410
42881W        W14497   0.457  37.227   3.058
42882W        W14498  20.274  24.919   4.788
42883W        W14499   1.352  17.977  12.884
42884W        W14500  44.436   8.251  14.648
42885W        W14501  19.815  17.692   1.418
42886W        W14502  14.808  29.948   1.971
42887W        W14503  31.140  14.951   3.642
42888W        W14504   2.396  31.597  10.918
42889W        W14505  30.440  15.167  13.347
42890W        W14506  10.520  37.639  13.341
42891W        W14507  18.175  11.328   2.781
42892W        W14508  27.635  44.669  10.654
42893W        W14509  35.220  31.041   1.324
42894W        W14510  44.422  33.507  11.064
42895W        W14511  37.938  13.851   4.229
42896W        W14512   7.462  39.025  10.660
42897W        W14513  25.850  43.758   0.986
42898W        W14514  18.151   6.857  10.769
42899W        W14515  29.899  16.705   4.854
42900W        W14516   2.247  25.485   4.687
42901W        W14517  15.888  40.073  13.493
42902W        W14518  18.814   4.388  12.344
42903W        W14519   8.332  43.983   2.916
42904W        W14520   1.683  40.344   0.667
42905W        W14521  27.965   0.364  12.921
42906W        W14522   0.758   3.381  13.554
42907W        W14523  36.988  19.670  14.463
42908W        W14524  44.578   6.293  14.375
42909W        W14525  28.892  26.001   4.496
42910W        W14526  17.216  22.220   4.970
42911W        W14527  20.214  15.890  12.598
42912W        W14528  30.579  30.841   3.644
42913W        W14529   6.965   6.798  14.039
42914W        W14530  12.446  26.641   4.872
42915W        W14531   3.949  19.600  13.439
42916W        W14532  10.738  16.708  11.668
42917W        W14533  16.194  22.069   0.994
42918W        W14534  23.851  28.975  13.378
42919W        W14535  14.580  33.021   2.590
42920W        W14536  20.586  18.689   1.539
42921W        W14537  13.686  17.862   3.522
42922W        W14538  25.993  21.430   3.277
42923W        W14539   3.251   9.011   2.342
42924W        W14540  11.787  33.947   0.661
42925W        W14541  15.425  29.054  11.638
42926W        W14542  35.489  13.823  11.072
42927W        W14543  28.124  41.396   0.389
42928W        W14544   9.046  12.902  14.335
42929W        W14545  18.561   5.749  10.674
42930W        W14546  29.488  30.443  10.106
42931W        W14547   9.736  41.826   3.504
42932W        W14548  38.629  40.715  11.973
42933W        W14549  29.530  29.689  14.006
42934W        W14550  24.016  39.452  13.968
42935W        W14551  13.287  25.941  13.272
42936W        W14552  16.059  36.391  11.804
42937W        W14553   3.300  23.483   1.974
42938W        W14554  15.788  44.803   4.238
42939W        W14555  38.010   7.379  13.427
42940W        W14556  24.253  11.111  13.669
42941W        W14557  29.476   2.319   2.152
42942W        W14558  18.833   4.769   0.443
42943W        W14559  20.337  30.104   4.503
42944W        W14560  36.554  15.165   0.976
42945W        W14561   5.128  12.352  12.371
42946W        W14562  23.424   7.491  13.356
42947W        W14563  13.831  23.624  12.626
42948W        W14564  19.565  36.382   3.854
42949W        W14565  44.648  17.004   3.705
42950W        W14566  30.582  42.428   3.672
42951W        W14567   5.818  41.430  14.048
42952W        W14568  40.605  42.553   1.482
42953W        W14569  15.596   6.781  14.328
42954W        W14570  17.742  14.671   3.328
42955W        W14571  22.306  44.252   1.789
42956W        W14572   3.412  43.993   1.922
42957W        W14573  30.179  20.044   2.216
42958W        W14574  30.109  13.555  11.138
42959W        W14575   9.210  34.539   4.091
42960W        W14576  36.670  43.919  10.777
42961W        W14577  12.855  25.281   0.247
42962W        W14578  15.190   7.323  12.909
42963W        W14579  17.632   4.390   2.967
42964W        W14580  24.071  21.267   4.463
42965W        W14581   5.364  33.150   0.041
42966W        W14582  42.378   7.081  13.001
42967W        W14583  42.123  11.639  11.719
42968W        W14584   1.283  26.640  11.228
42969W        W14585  37.046  20.117   2.319
42970W        W14586  12.566  28.924   0.602
42971W        W14587  11.842  22.949   1.013
42972W        W14588  16.018   9.530   0.368
42973W        W14589   2.417  33.938  14.367
42974W        W14590  13.289  19.594  13.882
42975W        W14591  10.319   4.663   2.652
42976W        W14592  38.016   4.108  12.959
42977W        W14593   5.214  40.457  12.072
42978W        W14594  28.166   4.562   4.570
42979W        W14595  13.375  36.307  13.343
42980W        W14596  36.954  40.452   0.035
42981W        W14597  25.285  10.877   3.840
42982W        W14598   1.256  30.008  13.466
42983W        W14599   2.454   6.248   0.444
42984W        W14600  16.780  37.101   3.265
42985W        W14601   9.669  27.145   1.214
42986W        W14602  42.338  25.469   3.141
42987W        W14603  20.562   5.220   2.825
42988W        W14604   6.450  33.951  14.239
42989W        W14605  20.656   7.317  14.794
42990W        W14606   6.472  11.766   4.116
42991W        W14607  32.914  15.682   4.033
42992W        W14608  38.480  42.591  14.493
42993W        W14609  17.581  10.165  10.744
42994W        W14610  13.643  34.159  12.439
42995W        W14611  43.430  42.957  12.582
42996W        W14612   2.357   2.491  13.478
42997W        W14613  20.576   6.173   2.944
42998W        W14614   0.986  10.694  14.343
42999W        W14615  30.824  31.044  12.985
43000W        W14616  34.949  39.478   1.318
43001W        W14617   4.245  27.851  12.863
43002W        W14618  25.483  18.199  14.338
43003W        W14619   2.343   3.229  13.950
43004W        W14620   5.027  41.768   2.863
43005W        W14621  43.348  31.353   0.806
43006W        W14622  19.145  18.637  12.050
43007W        W14623  18.740  32.872   4.282
43008W        W14624  42.731   1.661   0.736
43009W        W14625  10.213  43.510   1.486
43010W        W14626  38.236  13.242  10.069
43011W        W14627  10.576  20.560  13.376
43012W        W14628   2.515  19.207   2.818
43013W        W14629   0.007   8.177   3.667
43014W        W14630  22.537   8.150   4.120
43015W        W14631  27.152  20.266   1.837
43016W        W14632  33.847   3.435   1.410
43017W        W14633  41.012   0.113  12.395
43018W        W14634  41.221  42.309  14.095
43019W        W14635  12.591  40.519   1.276
43020W        W14636  17.842  23.599  14.434
43021W        W14637  34.290  25.783  11.133
43022W        W14638  11.723  26.655  12.580
43023W        W14639  32.953  14.122   1.792
43024W        W14640   4.253  37.306   3.204
43025W        W14641  33.971   2.195   5.513
43026W        W14642  40.887   2.865  10.439
43027W        W14643  13.793  27.038  11.143
43028W        W14644  21.217   3.917  14.247
43029W        W14645   0.422  40.863  10.667
43030W        W14646  11.619  22.715   4.636
43031W        W14647  26.050  32.113   4.609
43032W        W14648  37.200   3.155  10.410
43033W        W14649  36.444   8.404   2.384
43034W        W14650  32.400  40.421   1.414
43035W        W14651  38.949   5.466   4.874
43036W        W14652  11.934  17.041  12.004
43037W        W14653  11.728   0.824  11.588
43038W        W14654  27.875  13.258  11.972
43039W        W14655  16.608   9.097   1.826
43040W        W14656  43.303  27.601  12.867
43041W        W14657  11.508   3.829   0.023
43042W        W14658  39.147   9.727  14.467
43043W        W14659   5.156  28.552   0.449
43044W        W14660  15.149  33.876  12.207
43045W        W14661  19.500  30.650  13.947
43046W        W14662  20.590  15.350   3.313
43047W        W14663  17.065  40.568  13.493
43048W        W14664  37.850   0.505   2.443
43049W        W14665  16.541  10.280  12.503
43050W        W14666   6.843   0.369   4.918
43051W        W14667   9.340   5.265   2.576
43052W        W14668  37.863  31.469  12.641
43053W        W14669  40.840  35.108  14.721
43054W        W14670  32.833  36.527  11.510
43055W        W14671  36.850  23.239  12.998
43056W        W14672  23.126  23.620   0.979
43057W        W14673  11.319  25.796  13.055
43058W        W14674  39.056  24.405  14.356
43059W        W14675  35.905   5.541   3.096
43060W        W14676  30.697  38.819  10.669
43061W        W14677  44.220  23.116  13.271
43062W        W14678  26.254  41.006  12.185
43063W        W14679  18.108  38.090  12.444
43064W        W14680  39.178  34.402   4.633
43065W        W14681   0.642  39.452   3.283
43066W        W14682  12.831  44.610   3.697
43067W        W14683  27.370  14.680   1.754
43068W        W14684  39.850  39.834  12.942
43069W        W14685  16.257  14.774   3.730
43070W        W14686   2.699   8.734   3.689
43071W        W14687  44.024  44.484  13.112
43072W        W14688   9.393  23.248  13.138
43073W        W14689  27.676  25.549  14.474
43074W        W14690  34.982  18.865  13.127
43075W        W14691   9.707   3.977   3.180
43076W        W14692  39.625   1.336  11.168
43077W        W14693  12.664  11.230   0.455
43078W        W14694   2.773  44.416   4.021
43079W        W14695  33.494  11.893   0.628
43080W        W14696  25.107  27.949   2.774
43081W        W14697  19.774  23.860  13.295
43082W        W14698  33.158  30.632  12.950
43083W        W14699   5.383   1.827  12.171
43084W        W14700  36.016  35.837   2.371
43085W        W14701  29.118  41.805   1.895
43086W        W14702  11.164  12.059  12.916
43087W        W14703  32.510   3.682  11.677
43088W        W14704  21.521  16.687   1.255
43089W        W14705   2.999  34.788   0.579
43090W        W14706  26.565   5.190   3.176
43091W        W14707  30.947  14.611  14.414
43092W        W14708  28.318  17.247   5.039
43093W        W14709  17.746   9.580   4.846
43094W        W14710  42.578  38.017   5.434
43095W        W14711   5.667  32.404  12.942
43096W        W14712  38.344   9.354  13.965
43097W        W14713  43.768  29.990   0.952
43098W        W14714  37.142  32.943   3.875
43099W        W14715  17.247  33.354  14.606
43100W        W14716   7.630  15.183  12.105
43101W        W14717   2.142  38.954  10.674
43102W        W14718   4.234   2.557   1.325
43103W        W14719   4.397  25.403  14.798
43104W        W14720  25.055  28.076   1.258
43105W        W14721   5.205  18.136  11.676
43106W        W14722   7.361  12.570  14.287
43107W        W14723  25.393  18.075   2.273
43108W        W14724   3.425  19.701   0.589
43109W        W14725   0.238  41.809   3.227
43110W        W14726   0.802  23.235  10.267
43111W        W14727  18.633  28.515   0.232
43112W        W14728  12.152  11.232   0.642
43113W        W14729  21.216  12.170   4.071
43114W        W14730  18.215  31.119   1.858
43115W        W14731   1.415  24.177  13.463
43116W        W14732  44.893   1.473  11.037
43117W        W14733  43.185  25.073  11.655
43118W        W14734  38.907  32.611   1.873
43119W        W14735  41.348  10.253   3.084
43120W        W14736  20.532  36.558   1.136
43121W        W14737  13.734  39.687   0.985
43122W        W14738  26.284  25.694  14.463
43123W        W14739  14.544  15.139   3.808
43124W        W14740  37.612  11.868  14.483
43125W        W14741  29.346  33.066   1.744
43126W        W14742  38.494  10.816  13.474
43127W        W14743  15.557  32.532  10.172
43128W        W14744   7.293   1.403   1.714
43129W        W14745   3.279  41.237  14.320
43130W        W14746  43.454  40.741   0.316
43131W        W14747  13.204  28.009  14.740
43132W        W14748  33.980  41.473   1.439
43133W        W14749  14.289  43.385  14.464
43134W        W14750   3.881  15.528   2.191
43135W        W14751   2.269  31.562  13.476
43136W        W14752  32.959   7.282   2.780
43137W        W14753  16.633  21.761   0.968
43138W        W14754   2.472  29.264  12.547
43139W        W14755  15.871  29.735   2.833
43140W        W14756  22.920   2.966  10.046
43141W        W14757  11.204   6.544   0.920
43142W        W14758   2.359  31.328   2.326
43143W        W14759   4.347  14.621  11.531
43144W        W14760  21.718   0.042   3.274
43145W        W14761  40.543  30.979  12.043
43146W        W14762  15.915  14.419  11.580
43147W        W14763   0.251   0.860   3.611
43148W        W14764  15.896  20.066  11.628
43149W        W14765  44.721  44.356  11.636
43150W        W14766  35.576  19.992   0.279
43151W        W14767  21.984  38.797  10.838
43152W        W14768  41.606  36.030  11.536
43153W        W14769  29.587  28.751  13.295
43154W        W14770   0.541  11.952  10.247
43155W        W14771  18.655  19.844   1.532
43156W        W14772  35.957  11.167   0.680
43157W        W14773   4.414   0.677  14.773
43158W        W14774  36.948  19.171  12.707
43159W        W14775  17.587  38.827   3.817
43160W        W14776  13.055   5.704  11.946
43161W        W14777  11.925  16.287  12.411
43162W        W14778  31.906  43.775   1.141
43163W        W14779  29.471  22.732   3.115
43164W        W14780  40.391  35.115   3.028
43165W        W14781  17.242  43.474   2.236
43166W        W14782  36.817  29.987   2.089
43167W        W14783  35.096  30.586   2.346
43168W        W14784  23.486   8.838   4.019
43169W        W14785  34.963  16.977   2.200
43170W        W14786  28.558   5.835  13.532
43171W        W14787  32.120  35.091  10.566
43172W        W14788  13.866   7.277  12.346
43173W        W14789  29.458  19.829   2.678
43174W        W14790   4.289  24.380  14.858
43175W        W14791   0.636  36.863  11.345
43176W        W14792  12.742   5.298  11.981
43177W        W14793  36.272   6.330   3.306
43178W        W14794  20.508  43.427  11.494
43179W        W14795   8.666  44.159   1.122
43180W        W14796  24.427   7.262  13.419
43181W        W14797   5.358   0.856  11.803
43182W        W14798   1.862  26.535   1.721
43183W        W14799  22.719  28.917  11.192
43184W        W14800  25.202  40.800   4.150
43185W        W14801  36.169  27.760   2.984
43186W        W14802  24.814  35.858   1.481
43187W        W14803   4.208  28.047   2.800
43188W        W14804  33.016  15.991   3.148
43189W        W14805  18.166  19.703   1.337
43190W        W14806  36.937  18.292  10.912
43191W        W14807   5.200  40.231  11.179
43192W        W14808  40.768  26.238  11.617
43193W        W14809   7.254  18.071  11.456
43194W        W14810   0.416  12.487  12.894
43195W        W14811  44.596  16.722  14.810
43196W        W14812  30.173  43.836  14.681
43197W        W14813  30.353  13.195   3.844
43198W        W14814  22.536  18.304   2.731
43199W        W14815   6.639   8.008   2.985
43200W        W14816  15.834  31.617  14.313
43201W        W14817   0.047   1.204   1.013
43202W        W14818  20.029   9.419   3.907
43203W        W14819  19.971  24.330  13.951
43204W        W14820   7.092  31.689  12.454
43205W        W14821  26.607  31.547  14.770
43206W        W14822  18.091  43.826  11.455
43207W        W14823  34.148  33.131  12.409
43208W        W14824   0.293   2.529  12.922
43209W        W14825   1.420  21.209   1.888
43210W        W14826   3.484  41.859  12.000
43211W        W14827  17.110  13.859   2.907
43212W        W14828  21.342   2.043   2.706
43213W        W14829  37.629  24.900   2.309
43214W        W14830  28.431  20.926   3.545
43215W        W14831  18.613   1.878   2.637
43216W        W14832  17.012  24.236   4.243
43217W        W14833  38.776  43.781   1.804
43218W        W14834   4.862  40.358   0.821
43219W        W14835   5.313  39.993  11.793
43220W        W14836  25.652  19.238   1.466
43221W        W14837  17.613   4.458  14.936
43222W        W14838  28.021  22.966  10.608
43223W        W14839  30.030  37.179  10.381
43224W        W14840  40.343   3.831   0.516
43225W        W14841  29.969  38.690   0.892
43226W        W14842  41.727  33.948   1.443
43227W        W14843   9.571   7.718  12.461
43228W        W14844   1.883  37.065  10.768
43229W        W14845  20.118  17.290   0.038
43230W        W14846  14.936  40.320   2.764
43231W        W14847  43.958   9.943   2.708
43232W        W14848  14.860  25.396   4.566
43233W        W14849  44.796  24.057  12.789
43234W        W14850  29.612   2.406   2.629
43235W        W14851   0.010  18.570  12.614
43236W        W14852  15.836   5.756   1.218
43237W        W14853   5.291  27.746   1.771
43238W        W14854  30.984  26.535  11.747
43239W        W14855  25.955  16.741   2.419
43240W        W14856  23.513  44.780   2.236
43241W        W14857  38.365  27.497   0.762
43242W        W14858   1.909  21.788  13.315
43243W        W14859  17.496  40.004   0.256
43244W        W14860  14.010  34.943  13.071
43245W        W14861   8.419  14.210   2.677
43246W        W14862   6.375  32.172  10.692
43247W        W14863  37.558  27.965  12.074
43248W        W14864  16.444  36.128   2.312
43249W        W14865  39.122  17.010   0.325
43250W        W14866  39.242  29.935  11.109
43251W        W14867  33.488  27.253   0.278
43252W        W14868  22.581  18.710  13.431
43253W        W14869  43.127  31.490  11.606
43254W        W14870  23.796  39.031   3.610
43255W        W14871  30.108   0.026   1.287
43256W        W14872  35.124  13.152  12.170
43257W        W14873  31.699  30.179   4.959
43258W        W14874  37.037   2.418  13.069
43259W        W14875   2.316  44.588   3.724
43260W        W14876   2.775  36.945   0.626
43261W        W14877  28.975   8.943   1.831
43262W        W14878  13.361   0.893   4.111
43263W        W14879   7.805   5.160  11.144
43264W        W14880   4.009  31.563  11.229
43265W        W14881  15.349  26.454   0.785
43266W        W14882   6.419  12.263  12.006
43267W        W14883  17.323  26.674   3.193
43268W        W14884   0.591   9.907   0.054
43269W        W14885  44.916  12.094  13.581
43270W        W14886   9.387  26.419  14.471
43271W        W14887  26.929  41.399  12.337
43272W        W14888  34.402  36.295  14.958
43273W        W14889  26.583  34.387   2.519
43274W        W14890  41.315  38.949   3.745
43275W        W14891  22.051  21.965  13.618
43276W        W14892  11.333   1.250   0.436
43277W        W14893  35.824  32.396   2.378
43278W        W14894  42.912   8.342   3.571
43279W        W14895  18.309  10.035  13.366
43280W        W14896  39.857   5.831  14.768
43281W        W14897  20.364  15.515   0.012
43282W        W14898  39.307  26.068   0.006
43283W        W14899  11.196  33.595   4.729
43284W        W14900  29.581  15.173   3.276
43285W        W14901  28.391  27.927  14.969
43286W        W14902  38.970   8.113  11.124
43287W        W14903   2.111   1.776   4.260
43288W        W14904   9.891   6.449   1.658
43289W        W14905  18.306   0.425   3.149
43290W        W14906   7.337  16.578   0.928
43291W        W14907  21.963  13.719  13.987
43292W        W14908   5.875  13.402   4.206
43293W        W14909  29.878  16.367  11.983
43294W        W14910   5.458  31.019   2.130
43295W        W14911   3.333  40.282  14.561
43296W        W14912  21.051  38.501  13.969
43297W        W14913   8.785  21.741   2.740
43298W        W14914  12.726  43.479  14.506
43299W        W14915  26.949   7.520   1.691
43300W        W14916  18.824  24.742  11.031
43301W        W14917   7.187  37.061   2.242
43302W        W14918  26.278  26.918  13.106
43303W        W14919  36.043   2.467  13.002
43304W        W14920  34.515  29.612   0.284
43305W        W14921   6.572  10.263   2.120
43306W        W14922   4.989   6.621  14.920
43307W        W14923  20.003   8.826  13.030
43308W        W14924  18.681  33.476  13.306
43309W        W14925  11.255  34.089  13.813
43310W        W14926  12.408  26.742  13.978
43311W        W14927  21.977  30.562  11.662
43312W        W14928   6.898   4.790   3.502
43313W        W14929  31.759  34.231   3.835
43314W        W14930  44.381  16.768  11.131
43315W        W14931  37.008   3.433   3.896
43316W        W14932  30.891  18.098  13.846
43317W        W14933   2.504  11.051   0.760
43318W        W14934  27.240  36.807   1.303
43319W        W14935  44.972  33.576  14.600
43320W        W14936  15.861  29.860  11.958
43321W        W14937  42.715  39.823   2.723
43322W        W14938  14.342   2.836  12.135
43323W        W14939  27.780   3.529  11.059
43324W        W14940  10.607  23.210   2.740
43325W        W14941  18.727   0.777  12.629
43326W        W14942   5.336  17.233  11.474
43327W        W14943   0.202  14.558   0.813
43328W        W14944  17.897  27.648   3.199
43329W        W14945  35.493  33.107  14.024
43330W        W14946   4.831  17.620  11.402
43331W        W14947  30.552  20.045   1.453
43332W        W14948  20.810  17.115  11.091
43333W        W14949  30.767  36.916   2.366
43334W        W14950  36.126  37.150  12.437
43335W        W14951  11.864  27.080  12.886
43336W        W14952  33.528   1.794   4.580
43337W        W14953  42.442  17.669  11.082
43338W        W14954   3.462  35.123   1.809
43339W        W14955   0.927   8.857  13.289
43340W        W14956   9.260   8.385  10.713
43341W        W14957  39.977  34.161  14.218
43342W        W14958  35.485  21.300   1.295
43343W        W14959  11.050  30.972  10.598
43344W        W14960  36.956  30.368   1.776
43345W        W14961  29.984  15.243   4.645
43346W        W14962  14.635  42.014  13.238
43347W        W14963  27.633  37.568   0.820
43348W        W14964  38.735  41.224   4.555
43349W        W14965  11.013   6.337   4.702
43350W        W14966  21.618  21.723  10.509
43351W        W14967  27.554  18.092  14.321
43352W        W14968  21.852  41.105   5.248
43353W        W14969  18.770   3.971  10.951
43354W        W14970   0.542   4.706  11.996
43355W        W14971  19.864  17.033  13.903
43356W        W14972   1.979  25.002   1.559
43357W        W14973   6.452  16.077   3.508
43358W        W14974  27.066  17.358   3.327
43359W        W14975   0.791  23.228  11.009
43360W        W14976  10.157  11.747  14.806
43361W        W14977  12.379   9.599   2.737
43362W        W14978   7.720  11.858  10.878
43363W        W14979  19.528  16.915   4.190
43364W        W14980  34.401  12.792  11.096
43365W        W14981  11.281  35.784  13.342
43366W        W14982  42.284  29.863  11.879
43367W        W14983  40.434  14.694   4.892
43368W        W14984  18.705   6.747   1.837
43369W        W14985  27.662   7.929  10.602
43370W        W14986  36.780  29.072  11.120
43371W        W14987  41.321  29.426  13.955
43372W        W14988  33.110   3.649  10.471
43373W        W14989  23.248  19.209  14.784
43374W        W14990   2.311  19.211   1.564
43375W        W14991  17.591  31.111  14.476
43376W        W14992  24.473   3.334   4.100
43377W        W14993  16.101  40.244  14.435
43378W        W14994  38.885  32.167  10.444
43379W        W14995   8.628   1.729  14.732
43380W        W14996  10.586  25.658   0.187
43381W        W14997  11.427  34.851  13.359
43382W        W14998  22.321  13.538  14.856
43383W        W14999  30.564  32.441  14.890
43384W        W15000   4.775  15.922   3.699
43385W        W15001  21.209  16.114   3.219
43386W        W15002  29.480  22.457   2.147
43387W        W15003  39.299  24.302   4.180
43388W        W15004  34.119  37.211  12.562
43389W        W15005  34.907  14.123   4.258
43390W        W15006  15.075  19.529   2.855
43391W        W15007  36.135  19.049  14.921
43392W        W15008  44.633  23.070   0.310
43393W        W15009  24.322   3.948  13.393
43394W        W15010  15.286  22.077  13.388
43395W        W15011  19.203  41.368   2.679
43396W        W15012  36.085  32.347   1.434
43397W        W15013  21.004  38.980   4.534
43398W        W15014  35.417  12.671   1.846
43399W        W15015  38.427   1.504   2.820
43400W        W15016  31.902  31.062  14.838
43401W        W15017  32.395   6.798  14.436
43402W        W15018   5.852   4.092   0.898
43403W        W15019  29.077  18.683   4.072
43404W        W15020  28.725  12.569   1.024
43405W        W15021  13.192   5.288  12.505
43406W        W15022  41.359  42.726   1.856
43407W        W15023  14.108  29.215  13.807
43408W        W15024  37.346  39.405   3.652
43409W        W15025   3.962  20.786  12.982
43410W        W15026  14.479  39.125   4.977
43411W        W15027  44.724  16.880  13.697
43412W        W15028  23.095  16.887   4.244
43413W        W15029  21.096  20.776  14.524
43414W        W15030  36.235  34.587  11.918
43415W        W15031  20.258  27.640  10.496
43416W        W15032  43.875   4.100  13.412
43417W        W15033  22.534  39.741  11.995
43418W        W15034  12.950  43.420  14.957
43419W        W15035  21.088  14.143   3.213
43420W        W15036  20.646   8.182  13.079
43421W        W15037  38.149  23.727   1.043
43422W        W15038  38.163  14.137  12.407
43423W        W15039  18.008  32.608   4.620
43424W        W15040  29.674   6.879   1.323
43425W        W15041  17.120  35.399   1.682
43426W        W15042  22.915  28.989  12.079
43427W        W15043  40.925  15.623   4.384
43428W        W15044  12.875   7.736  12.836
43429W        W15045   1.006  35.914  14.293
43430W        W15046  36.941  31.015  14.768
43431W        W15047  17.143   2.058   4.351
43432W        W15048  28.591  41.017  11.856
43433W        W15049  16.359  36.066  14.285
43434W        W15050  31.023   3.231   3.769
43435W        W15051  29.525  23.763   1.396
43436W        W15052   6.671  31.942   3.432
43437W        W15053  30.129  18.477   4.179
43438W        W15054  41.480  40.155   3.886
43439W        W15055   3.981  37.809   2.201
43440W        W15056   6.892  28.143  13.815
43441W        W15057  15.987  41.854  13.485
43442W        W15058  40.784  11.344   2.634
43443W        W15059  15.197  23.755   2.328
43444W        W15060   7.671  42.955   2.415
43445W        W15061  35.657  36.968  14.485
43446W        W15062  26.584  17.662  14.614
43447W        W15063  30.039  33.577   4.666
43448W        W15064  36.736   6.778  11.998
43449W        W15065   4.680   3.429  14.298
43450W        W15066  22.099   0.622  12.122
43451W        W15067  15.227  34.506   3.112
43452W        W15068   2.401  26.476  12.425
43453W        W15069   9.838  22.962  12.399
43454W        W15070   7.348  35.964  12.478
43455W        W15071  10.319  35.329  14.076
43456W        W15072  13.307  27.676   1.634
43457W        W15073   4.839  40.118  12.077
43458W        W15074  36.845   9.797   4.623
43459W        W15075  42.018  25.478   4.122
43460W        W15076  27.974  12.567  14.326
43461W        W15077  19.778  29.537   3.092
43462W        W15078   4.849  42.650  12.126
43463W        W15079  36.895  21.429   2.802
43464W        W15080  33.028  40.446  12.038
43465W        W15081  25.464  32.707  12.119
43466W        W15082   0.643  35.537   1.816
43467W        W15083  40.566  24.508  12.455
43468W        W15084  36.327  33.806   4.625
43469W        W15085  20.042  13.682  14.373
43470W        W15086  35.061  29.476  11.579
43471W        W15087  21.453  22.531   1.746
43472W        W15088   3.368  17.771  14.091
43473W        W15089   5.446  17.490   1.323
43474W        W15090  23.349  25.250   4.080
43475W        W15091  24.701  39.864   3.487
43476W        W15092  17.115  36.907   2.638
43477W        W15093  35.677  11.083  14.231
43478W        W15094  42.559  23.663   4.656
43479W        W15095   1.164  13.154   2.498
43480W        W15096  41.542  19.300  12.339
43481W        W15097  22.030  15.350   2.301
43482W        W15098  39.067  32.240   2.241
43483W        W15099  32.840  17.465   2.161
43484W        W15100  44.575  33.290  14.370
43485W        W15101  11.537  37.836   0.760
43486W        W15102  21.730  13.525   0.718
43487W        W15103   2.456  21.984  12.951
43488W        W15104   4.378  39.060   3.468
43489W        W15105  28.982  26.227   2.227
43490W        W15106  16.619   4.238  13.829
43491W        W15107  37.857  17.079   3.705
43492W        W15108  26.900   5.778   1.568
43493W        W15109  37.790  42.564   0.726
43494W        W15110   7.612   2.906  10.951
43495W        W15111  38.979  21.893  14.482
43496W        W15112  12.629   1.435   4.227
43497W        W15113   2.981  22.262  11.588
43498W        W15114  41.828  39.818   5.083
43499W        W15115  38.245   2.483   1.831
43500W        W15116  21.087  34.916  10.495
43501W        W15117  36.026  10.151   0.600
43502W        W15118  28.206   0.804   4.530
43503W        W15119   0.313  34.849  11.436
43504W        W15120  16.691  31.217   4.417
43505W        W15121  44.239  40.944  11.974
43506W        W15122  27.759  11.824  12.810
43507W        W15123  15.556  20.575  10.838
43508W        W15124   3.557  14.260   2.795
43509W        W15125   9.337   9.869   0.189
43510W        W15126  14.064   0.463   2.341
43511W        W15127  15.327  14.610  11.097
43512W        W15128  43.093   5.122   2.456
43513W        W15129  13.117  33.563  10.772
43514W        W15130  34.531  30.635   3.614
43515W        W15131  18.321  20.737  12.978
43516W        W15132  23.775  19.518   3.097
43517W        W15133  10.149  18.285   5.033
43518W        W15134  11.812  33.415   0.866
43519W        W15135   5.610  44.932   3.780
43520W        W15136   9.705   4.320  14.917
43521W        W15137  36.273  44.061  14.955
43522W        W15138   2.302  24.989  10.711
43523W        W15139  41.354  36.852   1.567
43524W        W15140  36.330  12.793   2.367
43525W        W15141  33.743  42.542   4.691
43526W        W15142  41.326  25.681   1.887
43527W        W15143  38.073  36.544   0.457
43528W        W15144  30.980  13.050  13.614
43529W        W15145  19.160  10.081   4.489
43530W        W15146  40.929  28.957  13.883
43531W        W15147  23.077  30.770   4.326
43532W        W15148  41.617  19.793  12.446
43533W        W15149  22.319   7.240  12.621
43534W        W15150  11.189  31.466  12.594
43535W        W15151   0.856   7.487   4.427
43536W        W15152  20.144  23.512   0.948
43537W        W15153  29.848  26.996   2.097
43538W        W15154  40.465  25.455   0.528
43539W        W15155  40.532  35.036  13.348
43540W        W15156   6.184   5.949  10.945
43541W        W15157  30.382  16.111  13.792
43542W        W15158  29.386  27.647  11.946
43543W        W15159  11.357   4.939  11.557
43544W        W15160  11.245   1.452  10.570
43545W        W15161   8.824   3.965  12.377
43546W        W15162  37.417  37.556   3.724
43547W        W15163  34.471  16.654  11.845
43548W        W15164  13.608  43.846   4.600
43549W        W15165  21.701  31.721  14.950
43550W        W15166  17.276  31.638  10.226
43551W        W15167  28.085  23.404   4.469
43552W        W15168   0.322  36.704   0.799
43553W        W15169  25.902  40.468   4.798
43554W        W15170  30.417   9.784   0.319
43555W        W15171  32.976   9.602   0.832
43556W        W15172   3.025   9.288  13.935
43557W        W15173  30.204  41.010   3.806
43558W        W15174   0.011   5.135  11.483
43559W        W15175  37.537  44.361  11.182
43560W        W15176  21.363  35.497   1.049
43561W        W15177  32.459   4.899   3.657
43562W        W15178   3.468  33.667   2.822
43563W        W15179   0.984  32.638   2.200
43564W        W15180  41.423  14.380   3.619
43565W        W15181   0.019  20.603   1.817
43566W        W15182  12.905  18.880   3.174
43567W        W15183  35.585  19.531   1.873
43568W        W15184   4.750  22.010   0.206
43569W        W15185  36.406  23.095  11.644
43570W        W15186  20.886  21.050  11.226
43571W        W15187  25.878  14.503   5.053
43572W        W15188  39.805  35.343  11.513
43573W        W15189  34.956  12.726   3.621
43574W        W15190   2.866  36.910  14.649
43575W        W15191  20.836   9.644   4.913
43576W        W15192   4.676  16.249   1.330
43577W        W15193  19.050  33.263   1.968
43578W        W15194   3.674  18.672  13.329
43579W        W15195  20.237   0.409   0.913
43580W        W15196  42.183  16.822  10.989
43581W        W15197  10.458  37.385   1.834
43582W        W15198  43.824   0.887   4.364
43583W        W15199  25.657  42.995  14.973
43584W        W15200  22.665  12.645  13.104
43585W        W15201  28.386  17.568   1.625
43586W        W15202  21.272   5.248   0.190
43587W        W15203  29.637   8.948  14.478
43588W        W15204   2.971  34.504  11.903
43589W        W15205  38.914  31.701  11.168
43590W        W15206   0.314  38.156  11.996
43591W        W15207  12.668  13.235   1.907
43592W        W15208  26.041  41.754   1.247
43593W        W15209  17.562  17.631   1.790
43594W        W15210  10.889   8.395   1.438
43595W        W15211  42.686  12.209  12.495
43596W        W15212  10.452  26.694   3.707
43597W        W15213  34.620  12.744   4.942
43598W        W15214  35.416  43.435  13.453
43599W        W15215  10.221   8.790   1.405
43600W        W15216  33.829  25.456  12.080
43601W        W15217   0.454   1.431  11.504
43602W        W15218   0.405  24.309   4.601
43603W        W15219  33.896  25.734   3.345
43604W        W15220  17.085  16.546   3.230
43605W        W15221  14.644  31.124  11.472
43606W        W15222  20.329  18.284  10.676
43607W        W15223  17.116  24.211   0.768
43608W        W15224  17.584  14.727  13.798
43609W        W15225  43.861  41.847  12.763
43610W        W15226  25.056   5.317   4.448
43611W        W15227  43.685  17.560  14.012
43612W        W15228  33.390  41.041  10.805
43613W        W15229  30.484  43.826  12.001
43614W        W15230  44.469  26.193  14.279
43615W        W15231  27.238  29.007  14.767
43616W        W15232  30.602  26.721  10.509
43617W        W15233  23.669  33.066   0.167
43618W        W15234  35.979  30.646   2.500
43619W        W15235  20.765  21.242   2.733
43620W        W15236  39.257  37.832  11.188
43621W        W15237  15.386  26.219  11.978
43622W        W15238  42.848   1.841  10.637
43623W        W15239  13.921  17.123   4.782
43624W        W15240  39.402  43.201  11.113
43625W        W15241   0.488   0.946   0.865
43626W        W15242  18.755  23.538   1.351
43627W        W15243  16.614  42.560  12.030
43628W        W15244  39.048   6.203   1.080
43629W        W15245  44.830  12.293  10.526
43630W        W15246  39.543  29.921  11.556
43631W        W15247   4.186  19.652  14.531
43632W        W15248  13.707  11.339  12.907
43633W        W15249  44.783  34.586   4.665
43634W        W15250   2.737  12.665  10.908
43635W        W15251  33.881   3.813   4.130
43636W        W15252  33.115  42.766   3.150
43637W        W15253  18.158  10.448  11.596
43638W        W15254  33.580  13.664  11.607
43639W        W15255  24.720  11.136   2.763
43640W        W15256  14.190   2.025  13.014
43641W        W15257  34.309   1.338  11.241
43642W        W15258  40.709  11.157  13.930
43643W        W15259  11.632  14.057   4.102
43644W        W15260  29.156  17.733   4.956
43645W        W15261  17.398  12.605  13.760
43646W        W15262   5.363  24.191   0.669
43647W        W15263  16.597   3.206   2.547
43648W        W15264  31.635  29.818   1.444
43649W        W15265  40.554  15.210   4.542
43650W        W15266   2.009   1.037   1.470
43651W        W15267  25.127  41.388   1.479
43652W        W15268   4.413  28.447  14.011
43653W        W15269  18.302   9.918  10.521
43654W        W15270  12.792  18.457   1.060
43655W        W15271  10.223  27.639   3.604
43656W        W15272   1.820  41.854   1.826
43657W        W15273  44.421  11.018  11.982
43658W        W15274  14.124  41.278   0.991
43659W        W15275  41.682  22.157   3.727
43660W        W15276  34.356  12.553  11.587
43661W        W15277   9.876  44.913  14.928
43662W        W15278  44.004  30.521   1.791
43663W        W15279  39.103  27.648   4.576
43664W        W15280  26.486   7.834  12.925
43665W        W15281  11.355  36.028  14.796
43666W        W15282  22.800  44.781   3.375
43667W        W15283  26.845  14.286  10.977
43668W        W15284   4.411   0.742   5.101
43669W        W15285   3.662  44.109  14.415
43670W        W15286  43.313  39.613  14.967
43671W        W15287   5.357  17.073   1.611
43672W        W15288  26.194  44.237   2.183
43673W        W15289  38.149  43.495   0.961
43674W        W15290   7.739   8.756  12.079
43675W        W15291  17.795  38.915   4.320
43676W        W15292   0.403   0.731  12.596
43677W        W15293  23.774  39.078  13.409
43678W        W15294  32.347  42.809   0.066
43679W        W15295  39.538  14.654   0.320
43680W        W15296   3.514  20.315  14.947
43681W        W15297  15.186  33.369  13.630
43682W        W15298  33.509  30.012   9.939
43683W        W15299   1.965  35.458   4.727
43684W        W15300  35.591  11.406   2.173
43685W        W15301  26.431  34.497   3.532
43686W        W15302  42.901  30.117   1.116
43687W        W15303  20.051  26.019  12.873
43688W        W15304  30.842  15.309  13.066
43689W        W15305  25.191  43.276   4.553
43690W        W15306  30.380  22.497   2.603
43691W        W15307  28.951  41.519  12.493
43692W        W15308   1.010  25.690   3.359
43693W        W15309  41.555  19.567  13.847
43694W        W15310  20.398   5.048  10.224
43695W        W15311  32.847  29.792  13.912
43696W        W15312  41.090  38.023   1.983
43697W        W15313  38.550  29.912  13.478
43698W        W15314  24.604  17.520   3.776
43699W        W15315  23.981   2.547  13.436
43700W        W15316  26.034  41.321   4.225
43701W        W15317   9.872  23.778  11.117
43702W        W15318   0.447  21.067   2.299
43703W        W15319  29.476   5.932  14.525
43704W        W15320  20.603  43.696   0.679
43705W        W15321  21.383   1.685  14.000
43706W        W15322  38.122  37.147  11.435
43707W        W15323   8.273  33.001  10.879
43708W        W15324  27.887  32.917   0.692
43709W        W15325   5.911  12.767   2.930
43710W        W15326  36.453  23.763  11.211
43711W        W15327   5.229  10.988   0.915
43712W        W15328   8.730   6.910  14.485
43713W        W15329  35.643  21.877  13.843
43714W        W15330   2.715  11.250  13.108
43715W        W15331  34.292  44.166   4.270
43716W        W15332   6.754  21.549   3.439
43717W        W15333   6.638  44.303  12.049
43718W        W15334  25.512  34.614  10.677
43719W        W15335   4.309  18.031   4.785
43720W        W15336   6.960  34.439  13.974
43721W        W15337  31.927  15.890  13.370
43722W        W15338  29.692   6.106   0.918
43723W        W15339  42.772  36.568  12.615
43724W        W15340  35.982  35.078  13.091
43725W        W15341  16.238   9.378   2.706
43726W        W15342   2.950  28.568  10.748
43727W        W15343  43.035  12.603  11.963
43728W        W15344  24.930  30.983   1.165
43729W        W15345  34.535   0.376   3.712
43730W        W15346   8.425  19.737   0.630
43731W        W15347   8.934   8.188  14.235
43732W        W15348  33.463  11.586  12.075
43733W        W15349  42.572  14.400   1.729
43734W        W15350   1.972  24.462  10.110
43735W        W15351   8.761  39.463   0.604
43736W        W15352   2.278  25.473  13.457
43737W        W15353   1.455  43.231  12.563
43738W        W15354  10.178   4.032  13.329
43739W        W15355   2.047  38.161   4.490
43740W        W15356  21.695  38.027   2.801
43741W        W15357  30.635  10.415   2.901
43742W        W15358  13.161   4.215  12.089
43743W        W15359  21.004   6.363  11.674
43744W        W15360  20.392  26.445  12.930
43745W        W15361  14.321   7.676  13.956
43746W        W15362  18.641  14.887  10.882
43747W        W15363  24.634  10.686  11.013
43748W        W15364  37.700  15.345   3.357
43749W        W15365  18.137  39.449  11.730
43750W        W15366  30.115  27.375  14.130
43751W        W15367  28.054  38.297   4.759
43752W        W15368  31.533   8.907   3.084
43753W        W15369  40.997  20.431   0.973
43754W        W15370  23.656  11.499  12.054
43755W        W15371  29.530  27.603   1.382
43756W        W15372   8.588  29.006   1.752
43757W        W15373  41.553  17.332   1.358
43758W        W15374   6.636   3.775  14.266
43759W        W15375  37.893  11.289   4.134
43760W        W15376   6.275  28.918  14.050
43761W        W15377  16.804   1.125   0.425
43762W        W15378  21.488  32.724  12.887
43763W        W15379   4.649  15.114  10.118
43764W        W15380  40.533  11.642   9.971
43765W        W15381  30.391  28.955   0.271
43766W        W15382   3.814  16.235   3.897
43767W        W15383  30.466  22.998  13.798
43768W        W15384  20.203   8.939  12.549
43769W        W15385  30.614  32.067   4.208
43770W        W15386   6.033  13.495  10.224
43771W        W15387  28.149  40.501   2.854
43772W        W15388  15.559   0.832   4.539
43773W        W15389   7.299  31.094  11.132
43774W        W15390  30.541  43.247  11.299
43775W        W15391  30.665  16.877  11.485
43776W        W15392   5.469  25.182  13.883
43777W        W15393  14.624  23.655  12.169
43778W        W15394  34.638  25.289  14.655
43779W        W15395   6.829  20.558   0.778
43780W        W15396  15.024   5.458  12.394
43781W        W15397  25.857  44.014   1.850
43782W        W15398   7.781  42.635   3.703
43783W        W15399  20.308  41.841   0.223
43784W        W15400  21.473  43.798  12.175
43785W        W15401   5.952  21.061   1.866
43786W        W15402  23.246  43.511  13.614
43787W        W15403  22.585  28.148   2.811
43788W        W15404  21.883  15.343  13.089
43789W        W15405  27.429  16.797   2.915
43790W        W15406  11.400  37.780  12.428
43791W        W15407  41.472  23.002   0.433
43792W        W15408  27.284  17.836   3.374
43793W        W15409  40.880  44.756   4.862
43794W        W15410  30.706  28.472  14.586
43795W        W15411  33.551  19.450  14.934
43796W        W15412  15.726  16.787   3.874
43797W        W15413  34.916  43.526  13.374
43798W        W15414   9.593  14.782  13.608
43799W        W15415  17.647   2.484  12.016
43800W        W15416  12.196  25.676   4.493
43801W        W15417   2.404  11.777   1.820
43802W        W15418  23.751   5.948   1.378
43803W        W15419  44.221  18.034  14.388
43804W        W15420  29.226  14.720   2.214
43805W        W15421   4.750   5.352  13.391
43806W        W15422  25.002  15.784  14.886
43807W        W15423  42.473  35.891  12.042
43808W        W15424  31.116   6.864  13.835
43809W        W15425   1.102  40.067   4.134
43810W        W15426  12.192  26.841  10.850
43811W        W15427  43.773  33.663  13.267
43812W        W15428  29.806   6.221   2.973
43813W        W15429  22.320  20.368   1.448
43814W        W15430  44.194   3.817   1.812
43815W        W15431  13.658  42.941  10.750
43816W        W15432  37.778  40.560  12.471
43817W        W15433  26.660  17.641   0.763
43818W        W15434  20.056  15.124   2.307
43819W        W15435   1.924   2.014   0.053
43820W        W15436   7.097  28.682   4.165
43821W        W15437   7.889  28.190  14.845
43822W        W15438  31.643   4.239   1.882
43823W        W15439  29.496  17.683   4.161
43824W        W15440   8.079  33.448  11.099
43825W        W15441  14.316   8.872  13.009
43826W        W15442  33.507  27.736  11.583
43827W        W15443  16.403   0.036  10.739
43828W        W15444  14.860  36.552   4.030
43829W        W15445  16.755  10.621  10.392
43830W        W15446   7.334  32.561  12.614
43831W        W15447  34.430   4.851  14.275
43832W        W15448  32.644  38.113  13.297
43833W        W15449  12.683  41.898  12.945
43834W        W15450  35.532  39.042   4.897
43835W        W15451  27.591  15.500  10.375
43836W        W15452   4.506   2.984   1.199
43837W        W15453  26.146   9.168   4.052
43838W        W15454  31.932  37.045  12.893
43839W        W15455  41.001   5.089   0.235
43840W        W15456  21.161  44.755  13.884
43841W        W15457  29.892   0.538   3.599
43842W        W15458  40.305   1.038   1.934
43843W        W15459  18.543  32.717   3.767
43844W        W15460  21.734  23.202   4.101
43845W        W15461   4.316  32.711   0.736
43846W        W15462   8.759  40.388   0.239
43847W        W15463   8.632  41.589   4.508
43848W        W15464  30.512   7.963   4.409
43849W        W15465  28.094  39.095  14.844
43850W        W15466  38.334  31.579   2.191
43851W        W15467  24.205  34.014   4.102
43852W        W15468   0.162  19.533  12.139
43853W        W15469  39.523  10.926   0.462
43854W        W15470  39.034  24.751  14.703
43855W        W15471  26.203  14.184   9.836
43856W        W15472  20.087  11.307  10.974
43857W        W15473  12.276  18.159   1.827
43858W        W15474   2.168  30.650   2.812
43859W        W15475  42.316  32.024  14.440
43860W        W15476  43.275  11.667  13.091
43861W        W15477  37.403  30.122   1.925
43862W        W15478   6.497  27.970  11.163
43863W        W15479  11.251  38.826  10.747
43864W        W15480  20.780   7.225   1.295
43865W        W15481  36.854  18.250  10.359
43866W        W15482  13.188  11.417  11.107
43867W        W15483  35.345  38.826   0.375
43868W        W15484  24.193  30.545  13.371
43869W        W15485  31.110  13.606   2.346
43870W        W15486   0.509  13.824   3.708
43871W        W15487  39.061  43.130  14.178
43872W        W15488  30.304  38.296  14.277
43873W        W15489  15.232  36.910   3.908
43874W        W15490  23.748   5.499   2.241
43875W        W15491   0.070   6.129  14.517
43876W        W15492  11.742  30.620   4.568
43877W        W15493  31.568  29.445  10.097
43878W        W15494  15.070  29.627   1.649
43879W        W15495  36.092   2.985  13.936
43880W        W15496  13.252  12.282   1.172
43881W        W15497   3.222  17.783  11.477
43882W        W15498   0.359  40.919   3.281
43883W        W15499  43.333   6.415  14.750
43884W        W15500  35.489  31.149  11.983
43885W        W15501  13.768  26.176   1.334
43886W        W15502  31.958  27.967  12.867
43887W        W15503   4.755  26.856   1.520
43888W        W15504  37.283   1.212  14.332
43889W        W15505   2.369  33.538   4.648
43890W        W15506   5.121   1.646  10.621
43891W        W15507  38.870  31.636  12.179
43892W        W15508  19.569  40.388   2.641
43893W        W15509  17.442  31.424   4.135
43894W        W15510   2.352  16.746   1.427
43895W        W15511  32.900   0.818  11.449
43896W        W15512  21.489  23.269  11.649
43897W        W15513  42.797  40.369  11.736
43898W        W15514   3.428  11.143  10.983
43899W        W15515  19.086  42.364  12.530
43900W        W15516   2.896  31.701   2.432
43901W        W15517  20.666   3.805   0.518
43902W        W15518  24.961  41.435  12.096
43903W        W15519  42.216  18.777   0.868
43904W        W15520  33.429   3.557   3.265
43905W        W15521  20.564  15.783  14.414
43906W        W15522  41.227  44.001   3.715
43907W        W15523   4.298  34.312   1.358
43908W        W15524  35.045   8.740   0.982
43909W        W15525   1.063  42.761   4.587
43910W        W15526  18.008  40.956  12.759
43911W        W15527  35.272  39.354  14.325
43912W        W15528   9.636  31.545   4.333
43913W        W15529  29.612  33.438  10.126
43914W        W15530  30.666  23.470  11.156
43915W        W15531  43.808  38.122  14.347
43916W        W15532  40.898  16.723  10.602
43917W        W15533  30.483  24.211  11.892
43918W        W15534  21.750  36.108   2.735
43919W        W15535  33.342  33.824  13.837
43920W        W15536  14.130  12.979  12.033
43921W        W15537   1.951  32.659   2.109
43922W        W15538  21.520   9.178  11.597
43923W        W15539   6.755  22.240  12.893
43924W        W15540  19.245   5.969  13.719
43925W        W15541   2.446  31.772   4.578
43926W        W15542   0.768  20.201  14.447
43927W        W15543   0.409  37.320   9.723
43928W        W15544  31.475  29.867   0.955
43929W        W15545  25.813  18.181  12.081
43930W        W15546  19.477  27.289   0.824
43931W        W15547   7.761  17.341   4.218
43932W        W15548  39.016   5.441  14.209
43933W        W15549   3.868  42.377   2.910
43934W        W15550  37.088   9.326   4.745
43935W        W15551  33.180  21.411   2.853
43936W        W15552   1.005  18.107  11.924
43937W        W15553  22.511  23.691   2.961
43938W        W15554  19.245  10.047  11.152
43939W        W15555   0.625  37.841  12.392
43940W        W15556   7.876  26.512  13.611
43941W        W15557   8.151  32.319   1.290
43942W        W15558  43.382  18.145  13.241
43943W        W15559  38.370  37.845   3.259
43944W        W15560  25.499  21.735   2.304
43945W        W15561  41.537  21.491  13.861
43946W        W15562  25.953  13.076   1.829
43947W        W15563   9.679  15.844  13.054
43948W        W15564  26.758  21.208   3.698
43949W        W15565  26.530   3.820   4.094
43950W        W15566  29.497  20.801  14.347
43951W        W15567   3.207   3.915  13.512
43952W        W15568  25.025   4.853   1.394
43953W        W15569   5.899  20.588   0.562
43954W        W15570  32.659  15.863  13.001
43955W        W15571   0.468  36.374   2.777
43956W        W15572  11.756  44.504   3.514
43957W        W15573  26.524  28.376  12.106
43958W        W15574  12.345  20.168   3.174
43959W        W15575   3.447  21.636   1.846
43960W        W15576  38.959  36.088   0.532
43961W        W15577  15.386  16.342  10.574
43962W        W15578  13.375  10.386   3.556
43963W        W15579   8.745  23.779  12.391
43964W        W15580  38.509  22.232  13.152
43965W        W15581  17.498   9.539   3.978
43966W        W15582  20.768  25.763   1.250
43967W        W15583  22.294   6.240   0.481
43968W        W15584  15.699  12.753  13.494
43969W        W15585  25.967  31.520   4.956
43970W        W15586  22.819  27.146   1.297
43971W        W15587  36.677  31.453  13.983
43972W        W15588   1.146  40.312  14.258
43973W        W15589   0.226  21.583   4.138
43974W        W15590  42.801  37.049   2.169
43975W        W15591  42.429  39.497  14.237
43976W        W15592   9.591  35.565   3.625
43977W        W15593  17.844  30.455  13.412
43978W        W15594  24.238  29.081  12.978
43979W        W15595   5.183  42.003  14.444
43980W        W15596  10.480  43.705  11.044
43981W        W15597  42.826  33.375  10.719
43982W        W15598  29.422  23.117   3.892
43983W        W15599  12.736  11.431  14.412
43984W        W15600  40.736  43.474   4.333
43985W        W15601  40.552  42.101   3.636
43986W        W15602  25.905  38.586   1.709
43987W        W15603  26.791  39.729   2.861
43988W        W15604  12.620   4.667  13.548
43989W        W15605   1.496  38.955   4.299
43990W        W15606  36.830   6.728  11.085
43991W        W15607  15.543  23.156  12.974
43992W        W15608  27.958  25.059  10.608
43993W        W15609  44.933  41.490   2.790
43994W        W15610  34.184  37.119  14.507
43995W        W15611  19.810  24.594  14.356
43996W        W15612  35.705  27.916  10.999
43997W        W15613  26.001  18.811  12.392
43998W        W15614  32.974   5.107  10.441
43999W        W15615  27.164  27.211   2.257
44000W        W15616  37.082  12.412   1.846
44001W        W15617  28.015  16.587  10.126
44002W        W15618  43.371  44.341  14.404
44003W        W15619  28.396   9.153   3.294
44004W        W15620   6.512  12.290  11.131
44005W        W15621  29.070  31.242  13.455
44006W        W15622  12.896   6.565   4.057
44007W        W15623  13.071  40.759   1.367
44008W        W15624  40.748  29.741   3.867
44009W        W15625  38.774  44.010   2.305
44010W        W15626  22.541  33.080  12.433
44011W        W15627  37.924  27.441   3.799
44012W        W15628  11.802  14.728  11.203
44013W        W15629  24.733   3.287  12.513
44014W        W15630  15.797  40.032   4.224
44015W        W15631   1.757   0.042   2.801
44016W        W15632  13.050  18.140  12.561
44017W        W15633  39.458   0.714  12.843
44018W        W15634  19.870  36.822   1.232
44019W        W15635  33.520  44.972   2.994
44020W        W15636  13.133  29.900   0.507
44021W        W15637   0.608  29.949   1.310
44022W        W15638  32.591   3.510   1.855
44023W        W15639  26.988  12.347  13.823
44024W        W15640  41.844  26.455   3.988
44025W        W15641  32.578   2.075   2.507
44026W        W15642  13.041  17.117   3.728
44027W        W15643  33.471  21.293   4.595
44028W        W15644  30.589  34.026   0.693
44029W        W15645  31.975  28.111   2.410
44030W        W15646  44.881   2.500   0.261
44031W        W15647  34.631  43.369  14.519
44032W        W15648  11.439  37.012   0.250
44033W        W15649  44.494  23.676  13.060
44034W        W15650   1.341   7.773  14.518
44035W        W15651   8.379  10.141   9.834
44036W        W15652  19.036  29.562  11.284
44037W        W15653  35.514  29.885   3.491
44038W        W15654  16.232  22.433  13.890
44039W        W15655  39.201  22.785   5.097
44040W        W15656   5.795  24.702  13.576
44041W        W15657  27.203   2.905  12.904
44042W        W15658  41.256  21.237   4.523
44043W        W15659   1.449  21.535  10.649
44044W        W15660   8.094   2.765   3.153
44045W        W15661  27.079  34.598   4.596
44046W        W15662  10.429  24.170   3.100
44047W        W15663  15.964  15.331  11.759
44048W        W15664  44.557  27.269   1.700
44049W        W15665  25.992   8.177   3.710
44050W        W15666  37.056  41.371  14.537
44051W        W15667  10.357   0.381   1.653
44052W        W15668  37.858  41.619  10.696
44053W        W15669  31.598  10.894   1.796
44054W        W15670  14.281  40.844  12.890
44055W        W15671   1.716  15.050  14.018
44056W        W15672  31.729  27.464   5.123
44057W        W15673  22.514  20.082   2.428
44058W        W15674  15.644  24.929  14.412
44059W        W15675   6.899  14.733   0.427
44060W        W15676  38.474  16.028  12.494
44061W        W15677  31.008  19.270  14.327
44062W        W15678  22.716  27.682   0.123
44063W        W15679  33.151  12.010   0.240
44064W        W15680  39.527   2.211   4.570
44065W        W15681   7.377   7.834   1.927
44066W        W15682  39.259  44.089   0.836
44067W        W15683  12.108  34.628   4.147
44068W        W15684  15.312  34.363   3.590
44069W        W15685  36.957  22.112   4.439
44070W        W15686  24.941  10.189  14.504
44071W        W15687  28.751  13.841   4.060
44072W        W15688  39.528  43.537  12.393
44073W        W15689  21.872  40.507  13.104
44074W        W15690  14.821  35.199  10.549
44075W        W15691  33.070  22.735   1.294
44076W        W15692  29.365   9.351  11.601
44077W        W15693  33.119   1.243  10.897
44078W        W15694  32.901  23.042  14.411
44079W        W15695  15.081  27.004  11.208
44080W        W15696  41.480  22.576   4.060
44081W        W15697   1.357   1.260  12.345
44082W        W15698  31.067  34.047   2.587
44083W        W15699  37.422   0.341   1.245
44084W        W15700  39.348  22.555   2.739
44085W        W15701  22.858  21.142   3.736
44086W        W15702  19.764   3.726  12.945
44087W        W15703  20.028  34.513   0.232
44088W        W15704  36.887   9.870  10.871
44089W        W15705   1.441  37.862   3.885
44090W        W15706   3.266  12.630   5.043
44091W        W15707  26.558  36.847   3.043
44092W        W15708  15.088  27.034  10.685
44093W        W15709  10.652  44.316  13.475
44094W        W15710  34.403  15.151   1.220
44095W        W15711  37.863  10.666  10.336
44096W        W15712   4.192  34.890   2.348
44097W        W15713  37.115  38.347   3.452
44098W        W15714  18.845  20.175   4.589
44099W        W15715  35.623  34.793  11.466
44100W        W15716  28.075  14.749   1.628
44101W        W15717  29.144  11.830  11.238
44102W        W15718   2.512   7.745  13.740
44103W        W15719  18.243  25.565  12.381
44104W        W15720  37.830  13.205  13.798
44105W        W15721  33.731  43.452  14.019
44106W        W15722  19.358  10.870   4.405
44107W        W15723  33.460   7.312   2.951
44108W        W15724  19.162   4.845   1.454
44109W        W15725  27.771   4.364   0.426
44110W        W15726  14.335  13.199   0.533
44111W        W15727   3.736  42.001  13.149
44112W        W15728   9.298  19.764   2.833
44113W        W15729  34.439  20.155  14.011
44114W        W15730  42.058  37.640  11.212
44115W        W15731  36.036   4.805   1.037
44116W        W15732   5.239  37.354  12.572
44117W        W15733  40.868  38.305  11.086
44118W        W15734  28.022  16.025   1.828
44119W        W15735  30.811  11.622   0.420
44120W        W15736  19.634  33.769  14.772
44121W        W15737   0.047  20.224  13.169
44122W        W15738  26.416   6.910  11.149
44123W        W15739  19.044   8.263   3.188
44124W        W15740   3.868  27.037   0.486
44125W        W15741  29.091  36.144   3.252
44126W        W15742  38.603  42.256  14.874
44127W        W15743  23.095  31.588   3.899
44128W        W15744   2.177   3.854  10.981
44129W        W15745  20.581  37.091  13.876
44130W        W15746  34.390  29.069  14.945
44131W        W15747  31.121   8.765   3.351
44132W        W15748  38.103  10.768  12.581
44133W        W15749  24.063   1.834  12.756
44134W        W15750  16.193  15.102   0.806
44135W        W15751  35.898   8.544   3.077
44136W        W15752  18.274  30.672   4.283
44137W        W15753   4.822   0.428   5.092
44138W        W15754  37.643   2.593  11.092
44139W        W15755   2.677  23.841   2.231
44140W        W15756  28.576  26.884   2.607
44141W        W15757   9.055  28.243   1.317
44142W        W15758  43.979  13.289  14.782
44143W        W15759  40.981  15.169   3.701
44144W        W15760   3.226  11.887   5.134
44145W        W15761  15.283  26.540   4.137
44146W        W15762   6.822  23.290  11.594
44147W        W15763  14.637  26.163   1.833
44148W        W15764  13.745   8.761   3.077
44149W        W15765  20.292  33.208   3.399
44150W        W15766  13.829  34.118  11.099
44151W        W15767  35.782  42.559   2.749
44152W        W15768  34.605  35.672  13.331
44153W        W15769   3.597   1.917   0.530
44154W        W15770  17.391  26.468  10.245
44155W        W15771  19.770  39.933  10.928
44156W        W15772  10.173  39.597   0.687
44157W        W15773  30.938  28.635  12.482
44158W        W15774  15.110  21.669  14.362
44159W        W15775  11.706  18.667   1.929
44160W        W15776  34.434   4.348  12.180
44161W        W15777   6.853  13.179   4.249
44162W        W15778  40.513   3.853   4.138
44163W        W15779  31.576  25.096   2.924
44164W        W15780  24.142  22.230   4.065
44165W        W15781  37.824   6.812  12.783
44166W        W15782  29.685  23.162  12.831
44167W        W15783  44.449   0.527  13.559
44168W        W15784  24.446  27.745   0.489
44169W        W15785   5.651   0.711  14.449
44170W        W15786  31.548  44.376  11.674
44171W        W15787  31.747   4.993   4.113
44172W        W15788  22.468   0.242  12.043
44173W        W15789  43.227  35.995   4.635
44174W        W15790  32.036  35.160   2.274
44175W        W15791  34.797  30.696   4.056
44176W        W15792   5.806   6.659   1.668
44177W        W15793  39.575  42.982  11.542
44178W        W15794  37.567  39.164   0.822
44179W        W15795  37.295   2.458   1.841
44180W        W15796  38.790  39.300   3.354
44181W        W15797  11.370   6.277   0.511
44182W        W15798   5.137   5.323  12.572
44183W        W15799  19.219  18.513   1.433
44184W        W15800  25.498  37.021   2.182
44185W        W15801  15.483   1.492   2.428
44186W        W15802  35.643  43.210  14.417
44187W        W15803  32.842  29.116   1.649
44188W        W15804  42.241   5.809  12.004
44189W        W15805  22.085  43.382   2.323
44190W        W15806   7.563  31.944   9.810
44191W        W15807  28.761  31.300  12.840
44192W        W15808   9.726  22.990  10.616
44193W        W15809  29.031   7.918  13.940
44194W        W15810  37.374  11.832  11.567
44195W        W15811  39.314   7.194  11.765
44196W        W15812   9.454  44.851   3.189
44197W        W15813   4.980   7.461  11.167
44198W        W15814  23.077  42.872   3.125
44199W        W15815  19.956  30.454   3.645
44200W        W15816  28.454   0.570   0.432
44201W        W15817   1.103  36.035   0.822
44202W        W15818  37.264   8.695   9.927
44203W        W15819   5.235  24.652  13.028
44204W        W15820  23.303  16.316  14.420
44205W        W15821  26.061  30.412  11.047
44206W        W15822   1.094  39.352   2.390
44207W        W15823  29.888  44.277   1.706
44208W        W15824  33.084  18.629  10.943
44209W        W15825   2.968  17.589   1.856
44210W        W15826  27.471   3.321   2.389
44211W        W15827   5.759  17.747   2.059
44212W        W15828  35.902  40.827   0.508
44213W        W15829   5.634  26.416  12.632
44214W        W15830  37.518  40.991   2.624
44215W        W15831   1.241  34.615  12.600
44216W        W15832  21.123  29.601   2.224
44217W        W15833   0.360  42.188  14.785
44218W        W15834  40.983  36.707  11.753
44219W        W15835   4.347  14.188   3.516
44220W        W15836  38.526   7.869   3.112
44221W        W15837  16.062  41.201  14.644
44222W        W15838   7.361  43.306   1.214
44223W        W15839  19.704  13.361   1.068
44224W        W15840  15.645  24.374  13.369
44225W        W15841  16.336  40.336  12.575
44226W        W15842   9.336  28.168   1.746
44227W        W15843  32.116  20.174  11.694
44228W        W15844  10.391  27.077  11.426
44229W        W15845  38.066  34.450   0.304
44230W        W15846   9.168  21.182  14.422
44231W        W15847  44.715  32.456  13.563
44232W        W15848  25.397  11.376  14.799
44233W        W15849   9.391   5.099   1.704
44234W        W15850   1.730  14.271   1.265
44235W        W15851  27.874  25.636   2.189
44236W        W15852  34.405   8.553  14.115
44237W        W15853  30.309   9.958   4.169
44238W        W15854  33.549  39.507  12.284
44239W        W15855  22.773  14.891   3.754
44240W        W15856   4.925  26.223   2.319
44241W        W15857   7.347  44.447  11.626
44242W        W15858   4.163  12.900  10.988
44243W        W15859  12.914   8.204  12.642
44244W        W15860  13.819  14.177  11.390
44245W        W15861  20.061   6.190  10.600
44246W        W15862  20.635  12.046  11.469
44247W        W15863   2.271   8.749  13.416
44248W        W15864   3.495  26.871  13.677
44249W        W15865  14.314  20.455   3.433
44250W        W15866   0.678  19.604  11.211
44251W        W15867  10.547  27.154   1.486
44252W        W15868  15.860  33.051   1.378
44253W        W15869   8.700   1.350  12.332
44254W        W15870  37.531  28.649   1.891
44255W        W15871  33.918   5.217   3.687
44256W        W15872  35.532  12.130  11.382
44257W        W15873  40.844   5.517   0.006
44258W        W15874  10.123  28.826   4.220
44259W        W15875  15.390  10.678  13.297
44260W        W15876  16.844  36.039  13.527
44261W        W15877  23.037  27.710  13.583
44262W        W15878   3.217  30.203  11.082
44263W        W15879  44.193  14.025  14.380
44264W        W15880  44.450  23.638   4.547
44265W        W15881  14.082   4.508   1.693
44266W        W15882   5.424   6.100   4.352
44267W        W15883  37.873  26.106  11.721
44268W        W15884  12.698  21.576   1.252
44269W        W15885  31.443   0.532   3.652
44270W        W15886   2.602  27.652   1.933
44271W        W15887  40.101   6.876   3.836
44272W        W15888  36.460   6.347  12.117
44273W        W15889  21.820  38.304   2.332
44274W        W15890  44.042  33.975  11.505
44275W        W15891  10.693  37.481  13.828
44276W        W15892  18.517  42.717   3.209
44277W        W15893   7.765  32.161  12.859
44278W        W15894  35.317  33.702   0.485
44279W        W15895  14.857   6.454  14.935
44280W        W15896   8.076  44.373  14.484
44281W        W15897  24.179  17.070   1.364
44282W        W15898  23.610   9.596   1.850
44283W        W15899  23.484   4.743  12.911
44284W        W15900  30.401  27.228   1.037
44285W        W15901  36.563  26.221   2.362
44286W        W15902  13.817  29.416   4.155
44287W        W15903  19.625   2.281   0.533
44288W        W15904  27.508  17.025  13.359
44289W        W15905  17.094   5.229  13.924
44290W        W15906  12.407  38.405   4.714
44291W        W15907  16.441  37.677  11.196
44292W        W15908  39.377  35.438   2.432
44293W        W15909  40.689  40.686   3.193
44294W        W15910  11.702   2.292  13.753
44295W        W15911  11.971  11.372   2.768
44296W        W15912  30.982  31.607   3.687
44297W        W15913   7.338  28.355   4.472
44298W        W15914  19.937  38.288   3.625
44299W        W15915   3.376  39.319  11.414
44300W        W15916  15.657  23.656   2.595
44301W        W15917  14.026  10.340  10.758
44302W        W15918  24.245  22.284   1.399
44303W        W15919  30.262  21.009   0.994
44304W        W15920   0.974  16.000   1.526
44305W        W15921   9.415  38.278   3.163
44306W        W15922  16.864  14.181  13.125
44307W        W15923  27.997  16.352   1.379
44308W        W15924   8.122  38.430  14.826
44309W        W15925  24.259  31.066   0.507
44310W        W15926  30.132   6.194   4.628
44311W        W15927  25.032  31.719  12.997
44312W        W15928  17.083  43.807   9.893
44313W        W15929  18.621   3.890  12.342
44314W        W15930  26.229  40.669   2.073
44315W        W15931  19.527  38.385  14.845
44316W        W15932  26.939  42.310   1.025
44317W        W15933  40.417  43.967  13.889
44318W        W15934  16.470  27.435  13.360
44319W        W15935  38.277  38.973   4.728
44320W        W15936  10.221  19.203   3.041
44321W        W15937  20.706  10.493   3.160
44322W        W15938  29.028  44.510   4.396
44323W        W15939  40.842  27.293   4.555
44324W        W15940  42.004  15.576  10.262
44325W        W15941  32.016  40.013  11.781
44326W        W15942  29.793   0.394   3.110
44327W        W15943  18.617   1.755  12.413
44328W        W15944   2.837   1.982   3.931
44329W        W15945   3.950  36.418  11.191
44330W        W15946  26.025   1.368  12.067
44331W        W15947   5.055  34.613   4.250
44332W        W15948  36.344  35.471   1.674
44333W        W15949  37.580  44.495  14.696
44334W        W15950  10.531  19.510  11.144
44335W        W15951  23.907  25.955  11.509
44336W        W15952  20.041  14.360   4.713
44337W        W15953   9.090  38.426  14.787
44338W        W15954  12.336  11.990  11.613
44339W        W15955  38.072  19.249  14.823
44340W        W15956  42.304  22.644  14.062
44341W        W15957   3.656   0.071   4.559
44342W        W15958   4.229  38.805   1.273
44343W        W15959  36.937  20.705   3.572
44344W        W15960  13.842  44.717   3.088
44345W        W15961  14.413  33.845  14.020
44346W        W15962  31.558  26.115  10.664
44347W        W15963  26.353   3.881   4.580
44348W        W15964  24.207  30.408  12.496
44349W        W15965  16.144  25.588  12.056
44350W        W15966  18.038  11.369  13.868
44351W        W15967   6.878  25.948   0.582
44352W        W15968   5.769  27.100   2.462
44353W        W15969  24.377  17.883  10.449
44354W        W15970  38.349  44.772   0.433
44355W        W15971  13.759  14.690   0.935
44356W        W15972  32.093  27.588  14.550
44357W        W15973  20.952  39.002   3.536
44358W        W15974   9.653  19.090  12.053
44359W        W15975   8.148  35.389  14.891
44360W        W15976  28.764  44.717  14.054
44361W        W15977   3.643  41.305  10.363
44362W        W15978  24.532  42.591   0.097
44363W        W15979  32.637  33.053   3.379
44364W        W15980  28.464  17.123  10.623
44365W        W15981   4.945  20.946   1.823
44366W        W15982   1.967   0.277   4.541
44367W        W15983   2.815  14.353   4.740
44368W        W15984  30.156  23.117   0.349
44369W        W15985   7.480  18.961   0.314
44370W        W15986   7.915  20.747  11.658
44371W        W15987  21.438  28.106   9.887
44372W        W15988   1.328  27.545  12.448
44373W        W15989  30.033  20.526   3.844
44374W        W15990  31.889  19.698  14.704
44375W        W15991  21.084  17.868   1.886
44376W        W15992  17.707   0.786   1.294
44377W        W15993  18.083  19.141   4.347
44378W        W15994  30.091  28.520   0.391
44379W        W15995  27.937  29.547   1.809
44380W        W15996  17.187  33.919   4.190
44381W        W15997  35.318  38.395  13.083
44382W        W15998  13.676  40.409   0.791
44383W        W15999  20.134  24.623   3.438
44384W        W16000  24.900  26.195   3.039
44385W        W16001   9.638  10.928  14.395
44386W        W16002  42.743  21.218   3.556
44387W        W16003   4.390  17.080  11.863
44388W        W16004  35.958  19.146   3.194
44389W        W16005   3.444   9.276  13.589
44390W        W16006  35.121  39.572  12.101
44391W        W16007  41.343   7.473   2.549
44392W        W16008  34.794  23.417  14.746
44393W        W16009  39.521   0.979  14.533
44394W        W16010  18.911  16.894  12.616
44395W        W16011  28.954  15.150   2.467
44396W        W16012   0.316  19.002   1.237
44397W        W16013  13.367  15.808   4.146
44398W        W16014  38.823  21.743   4.798
44399W        W16015  43.650  40.258   2.931
44400W        W16016   6.537  26.417  12.402
44401W        W16017  22.054  18.569   2.668
44402W        W16018  29.604  10.241  14.963
44403W        W16019  34.900  11.252   0.770
44404W        W16020  15.280  13.054   3.414
44405W        W16021   3.252  10.308   4.660
44406W        W16022  39.508  44.847  13.728
44407W        W16023  14.809   6.386   0.836
44408W        W16024  41.017  19.680  13.873
44409W        W16025  26.618  31.969   2.258
44410W        W16026  37.571  36.097   4.945
44411W        W16027  21.858  30.565  12.308
44412W        W16028  36.860  10.229  10.477
44413W        W16029  16.232  19.852   5.135
44414W        W16030  17.798  15.506  13.620
44415W        W16031   1.969  41.826  11.595
44416W        W16032   0.510   3.397  10.454
44417W        W16033   4.498  30.707   5.020
44418W        W16034  42.756  37.026  11.360
44419W        W16035  28.770  28.025  10.325
44420W        W16036  17.864   2.448   3.008
44421W        W16037  10.815  10.360   2.080
44422W        W16038  10.641  16.943   3.731
44423W        W16039   8.332  10.072   3.251
44424W        W16040  40.845  21.011   1.907
44425W        W16041  20.541  22.567  14.341
44426W        W16042   2.390  42.890  14.136
44427W        W16043  22.798  11.086  13.437
44428W        W16044  20.747  16.330   4.941
44429W        W16045  21.216  13.147   1.462
44430W        W16046  44.370  12.617   0.405
44431W        W16047  44.543  32.874   9.835
44432W        W16048  15.053  15.122   1.262
44433W        W16049  18.323  15.538   3.687
44434W        W16050   1.281   0.774  13.825
44435W        W16051   8.931  37.141  14.159
44436W        W16052  23.346   1.792  11.163
44437W        W16053   9.313   4.079   3.999
44438W        W16054  44.031   2.191   1.844
44439W        W16055   9.819  38.681   2.389
44440W        W16056  15.298  37.041  12.145
44441W        W16057  28.652  10.908   0.562
44442W        W16058   7.114  30.259  14.008
44443W        W16059  37.514  31.303   2.528
44444W        W16060  26.156  36.927  13.857
44445W        W16061  13.042  17.833   2.317
44446W        W16062  29.462  31.400  10.591
44447W        W16063  22.102   7.426   3.996
44448W        W16064  44.847  40.042   3.391
44449W        W16065  18.638  38.336   3.261
44450W        W16066  38.012  18.776   3.274
44451W        W16067  32.861  39.168   3.469
44452W        W16068  44.154  26.044   0.222
44453W        W16069  39.538   8.242  13.070
44454W        W16070  43.359   7.175  14.495
44455W        W16071  34.454  21.850   0.075
44456W        W16072   2.560  34.391  12.164
44457W        W16073  31.467  35.882  11.973
44458W        W16074  37.555  17.228   4.404
44459W        W16075  23.461  21.971   2.657
44460W        W16076  30.040  23.372   0.866
44461W        W16077   1.775  21.727   3.459
44462W        W16078  10.774  22.030  10.623
44463W        W16079   0.236  26.699   2.637
44464W        W16080  20.173   8.820  12.012
44465W        W16081  18.165  13.222   2.949
44466W        W16082   2.764  38.066   1.469
44467W        W16083  21.279  11.206   1.193
44468W        W16084  26.182  29.421  10.756
44469W        W16085  32.012  16.931   4.545
44470W        W16086  17.253  17.132  10.337
44471W        W16087  41.452  38.956  10.902
44472W        W16088  43.927  29.675   4.567
44473W        W16089  33.598  19.058   4.072
44474W        W16090  29.708  27.177   0.447
44475W        W16091  11.513  22.476  10.234
44476W        W16092   9.657  16.382   1.675
44477W        W16093  38.973   5.860   1.693
44478W        W16094   6.247  28.943  13.000
44479W        W16095  38.790   3.295   3.293
44480W        W16096   9.803   9.922   1.933
44481W        W16097  41.351  37.866   1.262
44482W        W16098   5.121  36.017   4.348
44483W        W16099  43.363  14.160   1.762
44484W        W16100  37.826  14.058   5.779
44485W        W16101   7.620   2.379   2.797
44486W        W16102  44.304  12.326   1.902
44487W        W16103  12.647  14.602   3.824
44488W        W16104   9.706  19.674   2.298
44489W        W16105  33.655  25.842   1.522
44490W        W16106  21.058   7.751   4.654
44491W        W16107  44.428  39.888  11.154
44492W        W16108  17.796  30.974  14.939
44493W        W16109  12.434  38.325  13.034
44494W        W16110   7.347  16.800   0.251
44495W        W16111  44.010  14.113   4.905
44496W        W16112  14.781  42.579   0.957
44497W        W16113  26.004  38.516  11.955
44498W        W16114  39.298  13.407   4.180
44499W        W16115  30.084  38.544  13.851
44500W        W16116   5.863  26.883  11.850
44501W        W16117  17.317  37.544   1.411
44502W        W16118  27.229  18.587  14.035
44503W        W16119   5.499   3.937   3.240
44504W        W16120   3.734  30.030  12.559
44505W        W16121  17.302  12.845  10.596
44506W        W16122   1.036  40.745  12.452
44507W        W16123  36.607  22.453  12.825
44508W        W16124  15.884  41.809  11.140
44509W        W16125  10.874  14.574  13.005
44510W        W16126  21.150   3.569  11.787
44511W        W16127  32.978  32.871   0.783
44512W        W16128  11.648  34.638   2.608
44513W        W16129   0.388   9.560  11.101
44514W        W16130  24.999   8.560  14.020
44515W        W16131  10.760  27.455   0.706
44516W        W16132  22.569  11.113   1.317
44517W        W16133  16.104   9.849  13.940
44518W        W16134  44.899   7.611   3.640
44519W        W16135  22.288   5.312   1.431
44520W        W16136   1.933  24.567   4.804
44521W        W16137  15.321  30.056   1.961
44522W        W16138   5.079  19.694  11.990
44523W        W16139   4.697  37.919  11.987
44524W        W16140  42.384   5.406  12.523
44525W        W16141  12.366  41.123  11.126
44526W        W16142  26.453   7.472  11.910
44527W        W16143  44.953  42.040   4.610
44528W        W16144  44.339  25.591   1.409
44529W        W16145  31.691  11.884   4.516
44530W        W16146  22.752  31.178  11.686
44531W        W16147  38.584  15.490  12.489
44532W        W16148  16.718  28.255   1.579
44533W        W16149  27.622  22.057  14.457
44534W        W16150  25.745  29.191  13.120
44535W        W16151  18.646  18.595   5.065
44536W        W16152   1.727  39.797   3.724
44537W        W16153   3.895   1.742  13.579
44538W        W16154  10.285   2.339  12.507
44539W        W16155  31.008  34.514   2.806
44540W        W16156  10.243  15.619  14.764
44541W        W16157  35.282  31.672   3.408
44542W        W16158  43.398  30.044   1.297
44543W        W16159  14.808  13.166   3.241
44544W        W16160   1.398  28.906   2.410
44545W        W16161  31.984   2.423   4.279
44546W        W16162  10.100  25.294  14.010
44547W        W16163  30.164  12.711  10.959
44548W        W16164  23.993  34.861   0.385
44549W        W16165  23.683  31.008   4.294
44550W        W16166   6.329   3.724   3.440
44551W        W16167  36.797  12.184  13.038
44552W        W16168  33.033   0.542   1.689
44553W        W16169   5.877  29.987  11.217
44554W        W16170  22.587   5.978   1.861
44555W        W16171  37.996  13.639   0.545
44556W        W16172  16.276   7.305   1.901
44557W        W16173  25.778  17.361  13.370
44558W        W16174  31.429  37.827   3.722
44559W        W16175  42.297   0.145   3.208
44560W        W16176  31.088  36.056  13.935
44561W        W16177   8.840  29.982   4.523
44562W        W16178   7.268  20.196   2.300
44563W        W16179  27.969  35.040  11.831
44564W        W16180  19.790  14.668   0.839
44565W        W16181   1.974   5.227  10.650
44566W        W16182  26.460  30.523   3.285
44567W        W16183  27.253   9.742   0.775
44568W        W16184   4.300  14.782   2.713
44569W        W16185  27.137  34.461   0.991
44570W        W16186  24.237  22.028  11.593
44571W        W16187   6.183  17.612   3.812
44572W        W16188  10.385  25.440  12.952
44573W        W16189  28.129  18.583   2.635
44574W        W16190  20.100  33.656   2.654
44575W        W16191  28.014  25.072   0.549
44576W        W16192  32.023   0.500  10.217
44577W        W16193  17.515  27.505   3.560
44578W        W16194  11.372  36.422   4.572
44579W        W16195   8.340  22.519   3.759
44580W        W16196  28.472  30.415  14.946
44581W        W16197  28.517  36.389   0.266
44582W        W16198  11.619  31.309   4.277
44583W        W16199  10.820   8.453  11.251
44584W        W16200  14.876   0.860   0.360
44585W        W16201  23.625  32.401  12.545
44586W        W16202  19.049  32.624  14.310
44587W        W16203  10.788  24.004   2.124
44588W        W16204  43.384  43.520   1.498
44589W        W16205  31.833  24.165  12.647
44590W        W16206  24.678  31.395  11.268
44591W        W16207  12.744  23.087  13.411
44592W        W16208  11.338  38.027   4.151
44593W        W16209  38.615   3.930   1.815
44594W        W16210   2.195  40.760   1.375
44595W        W16211  44.344  26.453   2.110
44596W        W16212  24.740  15.779  14.419
44597W        W16213   8.764  28.495   4.558
44598W        W16214  28.469  33.612  13.506
44599W        W16215  15.137  31.563  11.013
44600W        W16216  34.597  42.538  11.645
44601W        W16217   6.160   1.989   1.243
44602W        W16218  23.802  23.595   4.629
44603W        W16219   9.892  28.395   4.040
44604W        W16220  43.297  16.516   1.256
44605W        W16221  28.642  11.688  13.930
44606W        W16222  37.077  30.339   4.054
44607W        W16223  38.968  31.626   3.844
44608W        W16224  43.494  20.592   2.388
44609W        W16225   1.162  14.279  12.115
44610W        W16226  42.941   1.128   5.015
44611W        W16227  34.155  18.444  14.665
44612W        W16228  35.302  32.448   2.517
44613W        W16229  16.376  31.035   4.798
44614W        W16230  19.728  18.931   4.595
44615W        W16231   7.346  38.594   4.116
44616W        W16232  17.072  10.701  11.188
44617W        W16233  12.352  34.547   0.437
44618W        W16234  32.073   1.018   4.014
44619W        W16235  22.745  36.959   0.408
44620W        W16236  26.932  13.658   2.634
44621W        W16237  29.442  32.418  13.034
44622W        W16238  22.830   0.841   9.964
44623W        W16239  35.354   9.699  13.497
44624W        W16240  28.572  31.705  13.840
44625W        W16241  43.443  34.654   1.316
44626W        W16242  10.773   0.233   3.710
44627W        W16243  25.039  37.728   4.053
44628W        W16244  30.100   4.903  11.654
44629W        W16245  41.468   5.674  13.905
44630W        W16246   6.640   9.470  11.752
44631W        W16247  38.793  29.925  12.084
44632W        W16248  14.179  44.226  10.653
44633W        W16249  43.493  29.389  14.575
44634W        W16250  19.777   2.746   4.205
44635W        W16251  19.479  21.109   3.232
44636W        W16252   9.129  22.260   1.847
44637W        W16253  12.678  27.813  14.969
44638W        W16254  19.806  20.812  12.921
44639W        W16255  15.244  38.344   4.231
44640W        W16256  20.140   6.451   3.683
44641W        W16257  36.044  26.518   4.943
44642W        W16258  42.890   2.499  13.923
44643W        W16259  26.033  32.005   5.125
44644W        W16260  25.719  41.476  11.669
44645W        W16261   7.844  40.361  12.329
44646W        W16262  36.623  31.360  13.087
44647W        W16263  20.274  37.110   1.811
44648W        W16264  22.216  25.960   4.118
44649W        W16265  28.508  33.338   3.376
44650W        W16266   1.858  12.118  11.097
44651W        W16267  19.223   2.877  10.622
44652W        W16268   3.938  42.311  14.725
44653W        W16269   9.181  43.511  12.424
44654W        W16270  24.177   7.300   1.928
44655W        W16271  16.984   8.311   1.968
44656W        W16272   9.782  31.506  13.675
44657W        W16273  43.696  25.518  13.549
44658W        W16274   6.129  26.563   0.644
44659W        W16275  26.076  36.291  13.437
44660W        W16276  29.042  36.637  11.671
44661W        W16277  13.233  19.029   2.167
44662W        W16278  19.042  32.005  10.336
44663W        W16279  23.782   5.393   1.406
44664W        W16280  20.539  37.943   0.447
44665W        W16281  37.892  36.521   2.326
44666W        W16282  26.571  42.306   1.938
44667W        W16283  38.561  30.766   1.833
44668W        W16284  27.550  42.340  11.464
44669W        W16285  36.560  32.060  12.611
44670W        W16286   4.771  42.403   3.283
44671W        W16287  19.151  39.643   4.363
44672W        W16288  16.429  28.270   0.264
44673W        W16289   2.548  28.427   2.939
44674W        W16290  15.301   1.025   2.331
44675W        W16291  40.022  44.340   0.746
44676W        W16292  26.182  11.379   4.680
44677W        W16293  26.450  25.438  14.050
44678W        W16294   4.651   2.242   0.441
44679W        W16295  12.383  16.671   2.109
44680W        W16296   1.426  42.530   1.361
44681W        W16297  35.467   7.139   4.551
44682W        W16298  42.252  39.032   1.201
44683W        W16299   6.506  44.578  10.264
44684W        W16300   2.112  19.459   0.213
44685W        W16301  38.547  11.284   0.865
44686W        W16302   2.448  34.867  12.277
44687W        W16303  41.020   4.317  13.890
44688W        W16304  36.816  14.807  11.646
44689W        W16305  16.359  34.086   4.193
44690W        W16306  32.546  24.740   0.766
44691W        W16307   8.839   3.313   0.312
44692W        W16308  16.639  25.059  12.888
44693W        W16309  32.027  25.807  14.414
44694W        W16310  44.490  38.576   3.276
44695W        W16311  30.925   1.355   0.275
44696W        W16312   4.269  33.524   2.330
44697W        W16313  36.141  33.855  11.613
44698W        W16314  14.598  35.897  11.131
44699W        W16315  21.080   9.515   3.909
44700W        W16316  17.689  27.955  11.134
44701W        W16317  33.898   9.280  14.446
44702W        W16318   0.988  31.578  12.136
44703W        W16319  40.464  23.356  12.988
44704W        W16320  21.183  26.007   3.325
44705W        W16321  14.245   4.943   1.939
44706W        W16322  32.381  10.686  14.428
44707W        W16323  21.899   1.488   1.377
44708W        W16324  43.926   4.595  13.289
44709W        W16325  30.534  32.705   0.859
44710W        W16326  27.231  13.174  13.375
44711W        W16327   7.897  14.007  11.204
44712W        W16328  43.973  21.747  10.997
44713W        W16329   4.302  38.512   1.732
44714W        W16330  36.036   9.546   1.211
44715W        W16331  28.512   1.844   2.407
44716W        W16332  28.621  11.644   2.221
44717W        W16333  29.183  26.515   1.804
44718W        W16334   6.594  38.841  12.935
44719W        W16335   5.831  39.812  14.471
44720W        W16336  21.421   4.014  13.770
44721W        W16337  42.611  43.676   2.724
44722W        W16338  26.027  26.973  11.658
44723W        W16339  42.374  28.964  11.974
44724W        W16340  22.437  20.614  13.017
44725W        W16341  26.501  36.742   3.569
44726W        W16342  28.011  33.519   3.357
44727W        W16343  27.357  15.717   2.346
44728W        W16344  17.331  29.920   4.112
44729W        W16345  21.477   5.110   1.932
44730W        W16346  24.712  30.978  13.984
44731W        W16347  32.748  30.218   5.061
44732W        W16348  19.736   9.663   0.996
44733W        W16349  44.428  38.394  12.316
44734W        W16350  30.692  33.949   0.199
44735W        W16351  16.749   6.839   4.572
44736W        W16352  14.393   6.873  13.127
44737W        W16353  37.351   0.410   0.697
44738W        W16354  42.316  12.684   1.293
44739W        W16355  21.555  18.383   2.616
44740W        W16356  10.816   9.681   3.736
44741W        W16357   1.631   7.375  13.056
44742W        W16358   5.823  30.789  14.962
44743W        W16359   3.472  32.375   0.858
44744W        W16360  29.057  29.475   4.653
44745W        W16361  10.390  15.218   0.055
44746W        W16362  15.796  26.224   4.885
44747W        W16363  41.141   3.972  14.459
44748W        W16364  11.230   5.961   4.399
44749W        W16365  31.639  29.450   4.223
44750W        W16366   0.063  20.170  13.835
44751W        W16367  23.826  28.571  10.617
44752W        W16368  12.215  32.582   1.799
44753W        W16369  11.754  24.699  12.425
44754W        W16370  11.171  17.183  13.748
44755W        W16371  34.076  32.887  14.812
44756W        W16372  38.346  40.230  12.013
44757W        W16373  28.968  24.672   3.889
44758W        W16374  38.964  44.963  14.727
44759W        W16375  27.487   7.220  14.803
44760W        W16376  26.009  36.106   3.361
44761W        W16377  30.348  15.571   1.735
44762W        W16378  30.074  14.291  14.830
44763W        W16379  40.784   1.270  14.418
44764W        W16380  32.068  16.885   3.746
44765W        W16381  39.481   1.718   3.506
44766W        W16382  19.245   9.206  11.176
44767W        W16383  17.111  40.504   2.396
44768W        W16384   3.030  44.388   1.891
44769W        W16385  36.780   4.238   4.336
44770W        W16386  16.277  30.152  11.535
44771W        W16387  28.483  15.639  14.303
44772W        W16388   4.363  42.884  12.021
44773W        W16389  14.823  24.968  14.394
44774W        W16390  32.429   1.406  14.837
44775W        W16391  40.255  16.209   0.813
44776W        W16392  33.959   8.340  14.571
44777W        W16393  23.742  17.137   0.577
44778W        W16394  33.590  19.735   3.306
44779W        W16395   6.368  18.059   3.715
44780W        W16396  28.889  25.421  13.258
44781W        W16397  26.984  32.361   2.368
44782W        W16398  13.287  20.376  11.397
44783W        W16399  25.978  18.325  14.308
44784W        W16400  42.788  17.361  13.358
44785W        W16401  33.249  34.892   5.134
44786W        W16402  16.693  15.202   2.053
44787W        W16403  26.483  21.734   0.839
44788W        W16404  20.737  22.129  13.410
44789W        W16405  16.226   5.562  11.028
44790W        W16406   0.378  18.630  11.653
44791W        W16407  18.868  29.671  13.929
44792W        W16408   5.349  14.178   3.815
44793W        W16409  10.603  37.474   5.071
44794W        W16410   5.245  13.645   4.598
44795W        W16411  40.828  39.326   2.410
44796W        W16412  27.747  19.496   5.173
44797W        W16413  24.224  10.602   2.160
44798W        W16414  14.868  22.555   4.018
44799W        W16415  22.581  19.321   2.846
44800W        W16416  31.925  30.621   0.498
44801W        W16417  34.612  25.178   1.479
44802W        W16418  28.906  24.415  13.339
44803W        W16419   1.135  31.669   1.729
44804W        W16420  40.414  34.421  14.392
44805W        W16421  25.570  27.041  11.888
44806W        W16422   6.401  13.738  14.065
44807W        W16423   0.543   1.535   3.760
44808W        W16424  43.508  44.264  13.080
44809W        W16425  24.986   4.714   2.936
44810W        W16426  22.633  39.581   3.242
44811W        W16427  23.327  36.561   2.216
44812W        W16428   1.683  10.602   3.617
44813W        W16429  29.972   5.223  13.591
44814W        W16430  29.110  34.871  13.887
44815W        W16431   4.458  17.271  11.343
44816W        W16432   3.836  32.611   2.237
44817W        W16433   8.436  17.395  13.705
44818W        W16434  35.035  31.411  12.419
44819W        W16435  30.590   8.227   0.791
44820W        W16436  30.601  44.494  14.348
44821W        W16437  24.698  43.330   4.684
44822W        W16438  21.270   1.300  14.784
44823W        W16439  32.327   7.214   1.445
44824W        W16440  19.025  24.733   4.497
44825W        W16441  35.664  16.776  12.974
44826W        W16442  20.472   3.227   0.263
44827W        W16443  23.049  34.758  10.676
44828W        W16444  16.547  15.174   1.205
44829W        W16445  13.818  34.978  13.596
44830W        W16446  34.257  42.159  11.634
44831W        W16447  41.893  23.617   0.063
44832W        W16448  16.710  30.187   2.090
44833W        W16449  32.152   9.780   4.736
44834W        W16450  34.444  43.518   3.313
44835W        W16451  32.723  36.111   0.264
44836W        W16452  38.457  43.797   2.692
44837W        W16453   2.763  11.333   1.458
44838W        W16454  16.760  27.142   2.377
44839W        W16455   5.367  14.137  14.446
44840W        W16456  29.457   7.674   4.115
44841W        W16457  30.350  27.118  12.122
44842W        W16458  25.540  26.637  14.880
44843W        W16459  27.337  24.478  14.555
44844W        W16460  28.400  15.343  13.515
44845W        W16461  31.576   5.836   4.333
44846W        W16462   1.824  15.104   0.753
44847W        W16463  12.762  29.548  13.076
44848W        W16464  29.201  28.300   5.477
44849W        W16465   3.085   5.185   1.767
44850W        W16466  29.024  35.940   4.614
44851W        W16467   0.426  34.037   0.274
44852W        W16468  15.273  20.168  14.386
44853W        W16469  30.154  37.502  13.165
44854W        W16470  17.551  41.236   4.650
44855W        W16471  32.665  41.964   1.293
44856W        W16472  24.534  37.343   1.707
44857W        W16473  12.504  20.518  12.543
44858W        W16474  34.485  24.183  13.576
44859W        W16475  14.271  10.656  14.348
44860W        W16476  39.024   7.951   3.752
44861W        W16477  20.496  28.029  10.894
44862W        W16478  27.469  31.151  14.447
44863W        W16479  28.590   1.272   2.720
44864W        W16480  32.396   1.008  13.511
44865W        W16481  24.299  44.471   3.676
44866W        W16482   9.743   4.646  13.843
44867W        W16483  19.110  37.313   2.224
44868W        W16484  19.675  18.059   2.749
44869W        W16485  24.684  41.540   0.310
44870W        W16486  34.468  25.668  14.976
44871W        W16487  24.705   1.186  13.825
44872W        W16488  39.316  27.145   4.599
44873W        W16489  18.637   9.826   0.408
44874W        W16490  38.535  43.957  11.541
44875W        W16491  10.893  19.566   1.890
44876W        W16492   3.372  25.047   3.082
44877W        W16493  10.231  37.338  13.641
44878W        W16494  28.011  31.973   4.202
44879W        W16495  10.376  15.144  12.115
44880W        W16496  29.085  10.879   2.345
44881W        W16497   5.024  34.931   2.753
44882W        W16498  19.776  10.816   4.117
44883W        W16499  20.670   2.944   0.652
44884W        W16500  17.587  32.966  10.306
44885W        W16501  42.617  23.439  11.104
44886W        W16502  27.456  30.519  10.995
44887W        W16503  26.012  39.916  13.389
44888W        W16504  16.766  28.865   3.243
44889W        W16505  16.837  39.116  12.846
44890W        W16506  38.423   7.277   2.346
44891W        W16507  38.587   4.686   0.907
44892W        W16508  21.537  21.559  14.541
44893W        W16509   4.853  36.415   4.513
44894W        W16510  10.868  22.283   2.995
44895W        W16511  25.854   3.806  13.480
44896W        W16512  15.111  44.977   2.301
44897W        W16513  25.379  41.010  14.425
44898W        W16514  18.093   2.959   4.767
44899W        W16515  38.371  24.477   2.010
44900W        W16516  13.858  20.143   4.315
44901W        W16517   0.977  30.318  13.019
44902W        W16518   4.731  35.419   3.825
44903W        W16519  21.081  18.993  12.076
44904W        W16520  27.582   6.626  11.542
44905W        W16521   1.186   6.747   3.740
44906W        W16522  12.336   7.959   4.524
44907W        W16523  17.822  30.642   3.406
44908W        W16524  36.605  10.293   2.630
44909W        W16525  16.341  37.312   2.603
44910W        W16526  36.519  30.476   4.062
44911W        W16527  14.504  33.080  14.341
44912W        W16528   6.954  16.155  14.498
44913W        W16529  15.813  42.796   0.335
44914W        W16530  12.208  20.642   4.329
44915W        W16531  32.359  26.569   9.962
44916W        W16532  38.789  33.592   2.770
44917W        W16533  11.252  23.330  14.874
44918W        W16534  13.161  30.420  13.741
44919W        W16535  43.208  14.855   3.152
44920W        W16536   9.265  25.567   0.681
44921W        W16537  15.176  11.138  14.608
44922W        W16538  36.857  33.184  12.001
44923W        W16539  22.499  28.140   0.305
44924W        W16540  14.220   7.789  14.869
44925W        W16541  35.088  20.588  14.893
44926W        W16542  44.204  16.561  10.298
44927W        W16543   6.523  27.179   0.840
44928W        W16544   6.390   4.634   1.900
44929W        W16545   8.279  21.975  13.365
44930W        W16546  32.227  11.121   2.411
44931W        W16547  24.244   1.267   3.733
44932W        W16548  34.337   7.235   2.332
44933W        W16549  18.107  26.065  13.551
44934W        W16550  11.343  15.557  14.871
44935W        W16551   2.669  27.116   4.436
44936W        W16552   9.271  35.967   3.634
44937W        W16553  43.758  18.562  12.083
44938W        W16554  23.522  39.239  14.794
44939W        W16555  40.380  27.654   0.882
44940W        W16556  37.082  26.024  10.757
44941W        W16557  26.529   7.541   1.400
44942W        W16558   1.956  11.575  11.137
44943W        W16559  25.146  11.136   0.201
44944W        W16560   8.649   4.176  14.934
44945W        W16561  44.295   4.912  13.443
44946W        W16562  32.617  14.340  12.902
44947W        W16563  25.035  40.480   4.583
44948W        W16564  43.169  29.009   2.702
44949W        W16565  37.425  33.682   4.248
44950W        W16566  39.490  28.986   1.398
44951W        W16567  21.715  31.752   0.753
44952W        W16568  36.315   7.367  13.484
44953W        W16569   0.309   2.194   4.675
44954W        W16570   4.959  10.842  12.997
44955W        W16571  24.656  34.386   4.713
44956W        W16572   7.511  32.127   1.766
44957W        W16573  17.269  24.596  13.996
44958W        W16574  42.491  37.672   9.805
44959W        W16575  26.498  33.956  13.987
44960W        W16576  29.147  35.095  14.765
44961W        W16577  18.055  30.069   0.072
44962W        W16578  12.513   5.113   0.318
44963W        W16579  20.467  44.237   9.977
44964W        W16580  20.159  11.990  14.797
44965W        W16581   6.481  34.025  10.749
44966W        W16582  42.523  15.800   2.786
44967W        W16583  11.416  23.261   4.132
44968W        W16584  24.579  37.561   2.903
44969W        W16585   0.681  21.707   0.877
44970W        W16586  38.649  37.469  12.507
44971W        W16587  10.591  35.097  13.488
44972W        W16588  22.118  28.372   1.308
44973W        W16589  21.542  28.022  10.764
44974W        W16590   1.539  40.641  12.526
44975W        W16591  10.743  42.532   2.298
44976W        W16592  35.299   4.553  12.521
44977W        W16593  10.153  37.415  11.907
44978W        W16594   9.657  14.283   3.209
44979W        W16595  17.780   5.579   4.156
44980W        W16596  15.435  17.271   1.692
44981W        W16597  35.833  14.306   0.247
44982W        W16598  34.104  35.410  11.128
44983W        W16599  16.751  19.265   2.903
44984W        W16600  19.680  35.379  12.957
44985W        W16601  15.830   6.014   1.651
44986W        W16602   2.976  17.476  13.323
44987W        W16603   8.443  29.120   1.231
44988W        W16604  44.857  32.117   4.222
44989W        W16605  42.946  38.790  11.038
44990W        W16606  30.604  20.994  14.735
44991W        W16607  44.552  12.132   1.497
44992W        W16608   2.074  28.595   0.918
44993W        W16609  22.742   4.087  12.906
44994W        W16610  17.701  18.105   1.049
44995W        W16611  39.846  39.373  10.658
44996W        W16612  22.746  39.551  14.927
44997W        W16613  26.619   4.272   4.358
44998W        W16614  41.114   1.248   3.781
44999W        W16615  27.763  35.152   4.511
45000W        W16616  34.673  30.554   0.511
45001W        W16617  39.524  37.788   2.277
45002W        W16618  43.857   1.272  14.694
45003W        W16619  20.100  32.919   2.914
45004W        W16620  30.812   1.773   3.123
45005W        W16621   7.184  12.527   4.528
45006W        W16622  33.030  36.814  13.506
45007W        W16623   7.965   5.439   0.874
45008W        W16624   9.172  12.690   2.876
45009W        W16625  44.215  30.940  13.162
45010W        W16626  31.971  41.689   0.866
45011W        W16627  17.589  16.129   2.278
45012W        W16628  41.045  44.896   1.165
45013W        W16629   0.772  42.785  10.625
45014W        W16630   2.540  30.397  14.580
45015W        W16631  11.769   1.123   2.637
45016W        W16632   1.417   6.127   0.357
45017W        W16633   6.800  30.780   2.244
45018W        W16634  19.352  35.894   0.104
45019W        W16635  33.589  16.224  13.003
45020W        W16636  27.086   0.849   3.197
45021W        W16637  24.484  10.819  14.049
45022W        W16638   1.081  22.044   0.337
45023W        W16639   6.849   0.644   3.374
45024W        W16640  25.732  29.447  10.497
45025W        W16641  18.528  15.236   2.414
45026W        W16642  11.303  14.317   3.552
45027W        W16643  11.998  32.353   4.525
45028W        W16644  42.087  36.642  13.767
45029W        W16645  27.982  29.941  11.526
45030W        W16646  44.257  26.773   0.859
45031W        W16647  12.796  18.987   4.535
45032W        W16648   6.921  22.019  13.351
45033W        W16649  39.803  16.337  13.492
45034W        W16650  42.222  34.401  11.024
45035W        W16651  22.238  36.413   0.033
45036W        W16652  24.247   4.281  11.237
45037W        W16653  15.257  15.061   4.208
45038W        W16654  43.078  23.402  10.325
45039W        W16655  30.193   8.131  10.717
45040W        W16656  15.759  29.960   4.199
45041W        W16657  44.224  19.282  11.192
45042W        W16658  36.947  41.823  11.672
45043W        W16659  27.153   5.462   3.881
45044W        W16660  43.638  15.635  11.059
45045W        W16661  11.217  41.132   2.890
45046W        W16662  23.197  34.626  13.548
45047W        W16663  36.883  14.983  12.462
45048W        W16664  15.649  23.226   0.712
45049W        W16665   0.427  44.157  12.990
45050W        W16666   9.647   4.747  14.346
45051W        W16667  26.999  11.862   4.616
45052W        W16668  27.431  33.777  10.595
45053W        W16669   5.201  36.458  12.999
45054W        W16670  28.540   1.431   3.991
45055W        W16671   4.130  44.286  12.886
45056W        W16672   8.252  22.231   0.245
45057W        W16673  28.160   2.504   4.339
45058W        W16674  39.311  30.641  14.071
45059W        W16675   5.363  40.733  11.199
45060W        W16676  25.641  13.026   4.634
45061W        W16677   4.771  13.987   3.297
45062W        W16678   4.357   9.552  10.393
45063W        W16679  30.539  23.946  12.386
45064W        W16680   3.175  40.807   0.241
45065W        W16681  31.583  29.704  11.959
45066W        W16682  33.421  37.943  14.374
45067W        W16683  28.579  31.203  13.736
45068W        W16684  30.964   6.388  10.544
45069W        W16685  15.851   5.927  13.732
45070W        W16686  30.659  12.630  11.032
45071W        W16687  43.293  13.444   2.585
45072W        W16688  13.155   3.929  12.507
45073W        W16689  24.456  43.018  14.301
45074W        W16690   9.336  39.324  11.945
45075W        W16691  37.274   3.722   3.093
45076W        W16692  34.169  36.778   3.810
45077W        W16693  38.847  27.377   0.945
45078W        W16694  44.433  22.166   1.364
45079W        W16695  30.240  44.415   0.803
45080W        W16696  17.786  27.453  10.390
45081W        W16697  23.849  29.424   1.675
45082W        W16698  26.186   9.389  14.362
45083W        W16699   0.369  27.946   2.192
45084W        W16700  13.249  27.651  13.600
45085W        W16701  25.851  40.269   1.224
45086W        W16702  12.740  24.059   3.317
45087W        W16703  22.983  30.452   0.427
45088W        W16704  18.516  28.913   2.710
45089W        W16705  30.162  34.940   2.319
45090W        W16706  13.671  24.532  12.163
45091W        W16707  37.505  16.253  12.817
45092W        W16708  12.940  36.049   2.440
45093W        W16709  17.697  25.991   2.830
45094W        W16710  17.658  14.614  14.922
45095W        W16711  30.333  22.296   4.586
45096W        W16712  34.393  22.694   0.669
45097W        W16713  22.757  22.596   3.742
45098W        W16714  42.801  20.508  12.170
45099W        W16715  44.855  22.395  13.000
45100W        W16716  14.755  11.841   3.339
45101W        W16717  41.785  30.868   3.700
45102W        W16718  14.830  25.602  13.379
45103W        W16719  24.492  27.457   4.533
45104W        W16720   7.384  22.308   4.239
45105W        W16721  24.879  38.530  14.931
45106W        W16722  25.000  43.073   5.031
45107W        W16723  38.848  37.026   2.155
45108W        W16724  11.282  17.830  14.867
45109W        W16725  17.621  28.011  11.634
45110W        W16726  36.758   5.840  13.445
45111W        W16727   3.143  22.798  12.562
45112W        W16728   1.797   4.847   0.415
45113W        W16729  19.728  32.713   1.045
45114W        W16730  18.574  41.773   2.177
45115W        W16731  36.492  21.527  10.580
45116W        W16732  24.576  23.643   3.575
45117W        W16733  24.599  40.259   1.747
45118W        W16734  27.452  13.420  11.653
45119W        W16735  20.219  36.512  12.574
45120W        W16736  23.347   1.787  13.890
45121W        W16737  28.115  35.166  13.809
45122W        W16738  20.937  23.572  10.931
45123W        W16739  15.338  37.579  12.797
45124W        W16740  17.147  25.627   0.753
45125W        W16741  43.503  17.528   1.268
45126W        W16742   1.273  41.404   2.880
45127W        W16743  13.740  19.873  12.169
45128W        W16744  16.654   3.806  14.486
45129W        W16745  42.803   1.331  11.976
45130W        W16746  16.040  42.353   1.277
45131W        W16747  33.447   2.510   3.184
45132W        W16748  25.421  33.144   3.719
45133W        W16749  25.708  33.378   1.018
45134W        W16750  23.763  30.149   0.366
45135W        W16751  33.207  10.108   1.331
45136W        W16752   9.191  21.057  11.642
45137W        W16753  22.286  11.405  11.107
45138W        W16754  28.557  43.589   0.267
45139W        W16755   3.827  21.705  13.790
45140W        W16756  37.270   8.330   1.217
45141W        W16757  15.314   0.274   0.794
45142W        W16758   8.917  15.674   0.632
45143W        W16759  19.715  18.396  14.344
45144W        W16760   3.923  15.332  13.813
45145W        W16761   7.902  41.073  13.043
45146W        W16762  35.442   1.991   3.229
45147W        W16763   2.138   0.797   4.860
45148W        W16764   6.681  15.086  11.353
45149W        W16765  22.373   7.389  14.739
45150W        W16766  25.361   3.497   3.208
45151W        W16767  31.344  32.061  13.573
45152W        W16768  39.836   7.811   4.283
45153W        W16769  41.299   5.168  13.326
45154W        W16770  23.515  26.106   3.461
45155W        W16771  27.139  42.934   1.702
45156W        W16772  36.564   5.344  12.614
45157W        W16773  15.693  36.124   3.775
45158W        W16774  43.035  20.208  12.652
45159W        W16775   0.496   8.110  12.553
45160W        W16776  24.992  30.235  12.997
45161W        W16777  15.223  40.457  14.765
45162W        W16778  28.351  37.370   9.863
45163W        W16779   7.008   4.273   3.621
45164W        W16780  40.694   5.144  13.954
45165W        W16781  39.918  30.018  13.056
45166W        W16782  39.150  17.570  14.225
45167W        W16783   5.001  34.048  10.155
45168W        W16784  17.549  29.337   3.649
45169W        W16785   3.758   3.265  11.983
45170W        W16786  27.935  31.901  13.058
45171W        W16787  35.002  36.597  12.443
45172W        W16788   4.920  44.290  11.022
45173W        W16789   2.096  14.284   3.050
45174W        W16790  22.135  37.376   0.025
45175W        W16791  15.240   4.489   1.430
45176W        W16792  42.276   5.603   3.083
45177W        W16793  39.300  25.610  11.136
45178W        W16794  43.408  42.901   3.861
45179W        W16795  23.093   8.868  11.062
45180W        W16796  36.438  36.082   3.672
45181W        W16797  28.703  39.821   1.787
45182W        W16798  36.854  16.514  12.454
45183W        W16799  10.192  44.492   5.347
45184W        W16800   9.776  18.771   3.140
45185W        W16801  24.453  31.429  13.951
45186W        W16802  15.712  40.835   3.893
45187W        W16803   5.838  13.096   0.072
45188W        W16804   1.920  30.022  11.099
45189W        W16805  16.029  27.522   2.625
45190W        W16806  29.441  33.641  12.807
45191W        W16807  44.757   5.140  13.469
45192W        W16808  28.402  28.613  12.454
45193W        W16809  30.042  19.097  14.744
45194W        W16810  25.276  27.550   4.652
45195W        W16811  37.895  44.284  11.664
45196W        W16812  16.731  10.109   2.801
45197W        W16813  28.705  34.257   4.207
45198W        W16814   1.186   9.741  12.894
45199W        W16815   9.915  19.695   3.724
45200W        W16816  26.166  39.274  11.636
45201W        W16817  40.663  12.258   5.023
45202W        W16818  42.907  30.020   2.604
45203W        W16819  13.702  36.743   4.671
45204W        W16820  40.648  15.050  11.111
45205W        W16821  27.536  27.502   3.803
45206W        W16822  17.192  19.631  10.387
45207W        W16823  40.487   1.173   1.087
45208W        W16824   4.686  32.665  12.511
45209W        W16825   5.977   9.641  13.075
45210W        W16826   8.078  20.251   1.867
45211W        W16827   2.657   6.706   3.815
45212W        W16828  43.418   8.744   2.898
45213W        W16829  26.012  43.757   2.868
45214W        W16830  28.158   5.242   3.207
45215W        W16831  34.591  42.743   0.449
45216W        W16832  18.217   8.340  13.855
45217W        W16833   9.786  23.772   2.403
45218W        W16834   4.799   6.872   4.519
45219W        W16835  16.239  31.967   4.608
45220W        W16836  30.645   7.584  14.229
45221W        W16837  10.464  26.727  11.031
45222W        W16838  22.611   9.664  12.928
45223W        W16839   6.876  40.514  13.931
45224W        W16840  12.268  39.879   4.700
45225W        W16841   9.773  39.360  12.611
45226W        W16842  24.666   9.385   3.937
45227W        W16843  11.544  29.863  13.355
45228W        W16844  33.504   6.679   3.039
45229W        W16845  29.244   3.845   4.230
45230W        W16846  35.816  32.916   2.320
45231W        W16847  22.959  43.838   4.563
45232W        W16848   0.685  41.452   4.311
45233W        W16849  13.262   6.409   2.701
45234W        W16850   3.470  12.047   1.257
45235W        W16851  14.739   7.861  14.969
45236W        W16852  38.217  26.898  13.244
45237W        W16853  28.786   7.222   0.153
45238W        W16854   0.526   2.254  13.898
45239W        W16855  14.578  16.328  11.906
45240W        W16856  15.248  42.477  14.941
45241W        W16857  17.619   1.459  11.109
45242W        W16858   3.833  25.495  11.242
45243W        W16859   0.829  24.816   0.972
45244W        W16860  37.990  37.843  12.022
45245W        W16861  38.088   6.442   3.147
45246W        W16862  42.899  32.438   3.149
45247W        W16863  33.087  39.037   0.861
45248W        W16864   9.266  17.741   2.026
45249W        W16865  18.817  39.827  14.836
45250W        W16866  17.183  28.984  13.554
45251W        W16867  36.894   0.539   2.273
45252W        W16868  32.389  16.695  13.314
45253W        W16869  32.129  42.941  11.795
45254W        W16870  40.566  29.095  12.627
45255W        W16871  14.288   9.859  10.762
45256W        W16872  11.244  26.643   2.426
45257W        W16873   6.951  40.994  14.133
45258W        W16874  44.331   0.972  14.490
45259W        W16875  33.529  39.516   1.670
45260W        W16876  20.318  42.766   1.991
45261W        W16877   6.892  21.077   3.302
45262W        W16878  19.269  31.540   3.331
45263W        W16879  20.859  28.654   0.280
45264W        W16880   3.811  44.274   3.034
45265W        W16881  10.396  13.819  13.844
45266W        W16882  44.773  22.133  13.971
45267W        W16883  28.462  35.294   4.062
45268W        W16884   6.811  23.304   3.306
45269W        W16885  11.205  32.741  11.206
45270W        W16886  13.049  23.509  13.434
45271W        W16887  41.398  17.079  13.134
45272W        W16888  16.977   4.347   1.918
45273W        W16889   8.495  22.063  11.528
45274W        W16890  34.071  44.029   0.473
45275W        W16891  35.080   8.391   2.095
45276W        W16892  29.213   0.330   0.178
45277W        W16893  30.420  22.872   3.536
45278W        W16894  21.838  42.380  14.781
45279W        W16895  41.744  41.482   2.316
45280W        W16896  14.308  43.378  11.663
45281W        W16897  43.205   5.763  10.677
45282W        W16898  25.595  33.192  12.238
45283W        W16899  21.056  24.766  10.721
45284W        W16900  32.689  28.067   5.500
45285W        W16901  38.758  27.760  10.685
45286W        W16902  23.221  40.510   9.919
45287W        W16903  44.327  14.550  10.313
45288W        W16904  28.075   4.134  13.566
45289W        W16905  23.478  25.631   3.713
45290W        W16906  10.774  13.142   4.373
45291W        W16907  27.172  11.435   1.318
45292W        W16908  14.689  11.308   4.589
45293W        W16909  33.943  40.047  13.869
45294W        W16910  24.367  40.224  11.518
45295W        W16911  40.602  36.135  12.426
45296W        W16912  14.067  23.383  14.265
45297W        W16913  44.697  23.116   4.234
45298W        W16914  31.457  44.832   3.656
45299W        W16915  35.041  37.483  10.878
45300W        W16916  28.574  41.984  10.702
45301W        W16917  17.133  40.206   1.600
45302W        W16918  23.486   3.059  12.663
45303W        W16919  19.062   5.751   3.579
45304W        W16920  40.383   0.802  12.724
45305W        W16921  29.593  30.669   0.008
45306W        W16922  38.988  34.484   9.939
45307W        W16923  18.846  37.933   3.505
45308W        W16924  13.679  38.076  11.690
45309W        W16925  43.922  13.815  11.179
45310W        W16926  40.371  33.832  13.017
45311W        W16927  14.847  43.779  12.879
45312W        W16928  35.524   3.134  12.852
45313W        W16929  37.299   7.429   4.602
45314W        W16930   2.893  31.700   0.882
45315W        W16931  21.018  15.774  12.765
45316W        W16932   3.642  17.035   5.052
45317W        W16933   1.716  15.643   1.765
45318W        W16934  12.690  35.216   3.997
45319W        W16935   2.226  41.866  13.908
45320W        W16936  18.133  24.583   1.213
45321W        W16937  13.724  34.005  13.379
45322W        W16938  23.943  13.355  14.499
45323W        W16939  24.616  23.589  12.393
45324W        W16940  25.419  18.552   3.576
45325W        W16941   7.885  38.947   5.126
45326W        W16942  16.877  17.322   3.742
45327W        W16943   7.279  31.066  14.589
45328W        W16944  33.559   8.329  11.905
45329W        W16945  23.458  25.399  13.384
45330W        W16946  10.853   5.479  14.892
45331W        W16947  14.803  16.616  11.047
45332W        W16948   2.543  27.627  10.661
45333W        W16949  33.086  16.074  11.020
45334W        W16950   6.926   5.450   2.733
45335W        W16951  14.826  12.351   0.869
45336W        W16952  33.994  17.122   0.624
45337W        W16953   8.606   7.821  11.155
45338W        W16954  36.092  18.064  11.084
45339W        W16955  31.586  38.564  11.481
45340W        W16956  11.246  44.993   3.869
45341W        W16957  42.903  30.779  12.557
45342W        W16958   7.374   2.668   4.500
45343W        W16959  40.786  15.056  13.548
45344W        W16960  25.248  44.012   4.425
45345W        W16961  23.245   1.576  14.356
45346W        W16962  31.014  23.541   0.848
45347W        W16963  28.136  12.626   1.732
45348W        W16964   8.429  32.435   0.355
45349W        W16965  38.046  23.471   0.613
45350W        W16966  13.715   6.836   3.220
45351W        W16967  25.884  16.778   9.741
45352W        W16968  41.310  16.293   2.734
45353W        W16969  19.554  25.998   0.721
45354W        W16970  24.979  19.276   3.725
45355W        W16971  43.874  41.852  14.710
45356W        W16972  33.501   7.720   4.734
45357W        W16973  32.820   2.153  10.556
45358W        W16974  27.050  12.066  14.233
45359W        W16975   8.265  16.492   0.782
45360W        W16976  19.412  31.701   3.811
45361W        W16977  37.010  30.921  12.745
45362W        W16978  38.997  38.319  13.915
45363W        W16979  11.294   1.015   2.827
45364W        W16980   7.788  32.097  10.983
45365W        W16981  14.784  11.627  10.546
45366W        W16982  12.167   3.359  10.355
45367W        W16983  28.098  34.131  11.117
45368W        W16984  20.056  27.504   4.133
45369W        W16985  26.706   3.715  14.728
45370W        W16986   2.791  38.547  14.244
45371W        W16987  39.039  43.635   4.523
45372W        W16988  25.099  10.927  11.025
45373W        W16989  24.282  15.269   1.894
45374W        W16990  37.099  14.334  13.505
45375W        W16991   1.480  26.468  14.116
45376W        W16992   4.395  17.724   3.130
45377W        W16993  31.578  40.017   4.576
45378W        W16994  25.896  30.119   1.244
45379W        W16995   1.820  39.959   1.356
45380W        W16996  20.396   0.182  12.511
45381W        W16997   2.707  13.855  12.319
45382W        W16998   7.964   2.833  14.877
45383W        W16999  30.528  10.414  13.740
45384W        W17000  30.026  44.503  12.863
45385W        W17001  13.690  16.818  14.940
45386W        W17002   9.173  25.605   1.682
45387W        W17003  28.643  20.299  14.862
45388W        W17004  20.234   3.493   2.389
45389W        W17005  11.678  10.001  14.857
45390W        W17006  36.860  32.110  14.342
45391W        W17007  17.783  18.231  10.799
45392W        W17008  38.043   1.273  14.912
45393W        W17009   6.194  43.070  13.372
45394W        W17010  19.135  33.057  11.685
45395W        W17011  14.411  29.436   4.084
45396W        W17012  31.687   4.381  11.166
45397W        W17013  18.699  25.977   0.400
45398W        W17014  22.018  13.115  14.842
45399W        W17015  33.415  21.191  14.418
45400W        W17016  18.909   0.734   0.576
45401W        W17017  11.044  36.103   2.863
45402W        W17018   2.819  11.372   4.219
45403W        W17019   6.485  44.902  14.807
45404W        W17020  18.078  38.285   2.362
45405W        W17021   4.337  20.058   1.932
45406W        W17022  22.130   5.083  11.525
45407W        W17023  31.994  26.167   4.287
45408W        W17024  21.285  35.194   4.596
45409W        W17025  12.009  41.379  13.002
45410W        W17026   7.240  14.427  11.608
45411W        W17027  32.551  32.427  14.032
45412W        W17028  31.134  32.004   3.986
45413W        W17029  26.186  32.649  14.483
45414W        W17030  18.730  24.036   1.213
45415W        W17031   5.229  38.178   2.958
45416W        W17032  12.504  29.671  12.649
45417W        W17033  27.809  20.519   2.827
45418W        W17034  24.280   7.276   0.405
45419W        W17035  36.115  12.209   4.461
45420W        W17036  15.390  42.659  10.775
45421W        W17037   3.931  35.897  11.147
45422W        W17038  43.007   1.244   3.905
45423W        W17039  29.229  19.307  11.190
45424W        W17040  15.933   6.528   2.835
45425W        W17041  14.112  16.316  12.098
45426W        W17042  14.669  15.292  13.876
45427W        W17043  22.149  23.761  13.869
45428W        W17044   4.234  31.408   0.402
45429W        W17045  37.560  29.882  11.680
45430W        W17046  15.839   9.232  12.267
45431W        W17047  43.387  26.177   4.941
45432W        W17048   0.396  28.157   1.713
45433W        W17049  40.964  35.464  13.883
45434W        W17050  44.185  24.910  11.745
45435W        W17051  15.510   1.834  13.565
45436W        W17052  33.444  29.243  10.677
45437W        W17053  37.002  28.673  14.858
45438W        W17054  31.332  37.020   4.590
45439W        W17055  19.020   6.065  12.419
45440W        W17056   1.436  30.517  13.711
45441W        W17057  12.272  20.041  11.100
45442W        W17058  42.308  43.396   4.073
45443W        W17059  19.995   8.327  11.944
45444W        W17060  39.472   7.652   3.170
45445W        W17061  33.811  33.565  12.540
45446W        W17062  22.016  22.078   0.964
45447W        W17063  44.180  22.458   2.676
45448W        W17064  20.120  20.765  13.341
45449W        W17065  14.631  27.439  14.822
45450W        W17066  30.018  31.933  10.449
45451W        W17067   3.221  24.508  11.984
45452W        W17068  44.809  15.121  10.796
45453W        W17069   3.707  26.616   0.792
45454W        W17070  15.118  19.247   2.380
45455W        W17071   8.237  22.114   4.152
45456W        W17072   2.398  24.199  13.807
45457W        W17073  37.954   5.956   3.225
45458W        W17074   4.147   9.237   1.275
45459W        W17075   8.779  32.536   4.843
45460W        W17076  12.321  37.092  13.109
45461W        W17077  18.151   8.981  11.532
45462W        W17078  14.552  27.049  13.411
45463W        W17079  39.153   3.831   1.750
45464W        W17080  22.098  30.393  13.805
45465W        W17081  26.061  10.391  14.240
45466W        W17082  31.666   0.712   3.216
45467W        W17083  24.050  40.925   1.753
45468W        W17084  36.028   8.650  11.137
45469W        W17085  31.380  14.575  12.107
45470W        W17086  19.163  34.706  13.609
45471W        W17087  18.643  28.911   1.299
45472W        W17088   9.880  18.291   4.249
45473W        W17089  31.084  39.783  10.742
45474W        W17090  41.508  32.967  11.252
45475W        W17091   4.103  22.061  12.643
45476W        W17092  40.598  15.418   3.211
45477W        W17093   2.215  10.930  12.041
45478W        W17094  15.765  35.510   4.613
45479W        W17095  35.146  31.291   4.902
45480W        W17096  14.156  27.565   1.576
45481W        W17097  25.567   7.475   1.310
45482W        W17098  16.332  38.527  11.604
45483W        W17099  17.798  36.454   1.330
45484W        W17100  31.346  26.558   2.517
45485W        W17101  38.806   0.047  12.969
45486W        W17102  41.071   3.739  11.998
45487W        W17103  44.572  31.484  14.489
45488W        W17104  11.777  32.905   0.398
45489W        W17105  15.262  35.360  11.255
45490W        W17106  22.621  24.690   2.909
45491W        W17107  11.250   2.392   2.613
45492W        W17108  40.097  18.067   3.090
45493W        W17109  30.102   7.279  11.643
45494W        W17110  42.013   0.842  12.985
45495W        W17111   0.387  19.087   0.334
45496W        W17112  30.443  23.298  11.580
45497W        W17113  27.737   0.842  13.650
45498W        W17114  27.666   6.381  13.422
45499W        W17115   5.993  27.155  12.772
45500W        W17116  10.124  37.975  13.417
45501W        W17117  39.894   3.382  13.081
45502W        W17118  13.661   2.834   2.415
45503W        W17119  30.425  24.789  11.639
45504W        W17120  31.504   9.449  11.180
45505W        W17121  35.845  11.284  10.668
45506W        W17122  23.968  28.549   1.276
45507W        W17123  39.312  32.820  13.003
45508W        W17124   8.697  37.848   1.297
45509W        W17125  38.417  15.133  12.923
45510W        W17126  31.097  14.084   2.619
45511W        W17127   8.757   4.864  10.898
45512W        W17128   8.357  23.496  12.659
45513W        W17129  26.952   9.742  14.893
45514W        W17130  23.268   5.996   1.139
45515W        W17131  43.348   0.941   2.349
45516W        W17132  41.345  18.682   0.348
45517W        W17133  29.076   7.992   3.973
45518W        W17134   9.665   1.029  11.209
45519W        W17135  26.011  37.913   1.960
45520W        W17136  24.803  13.311   0.184
45521W        W17137  19.533   1.395  13.972
45522W        W17138  19.102   6.550  11.155
45523W        W17139  16.819  42.539  10.642
45524W        W17140  24.157  43.965   2.689
45525W        W17141   3.790  12.707   1.077
45526W        W17142  29.636   9.848   2.886
45527W        W17143  28.520  39.011  13.958
45528W        W17144  27.431  40.066  12.083
45529W        W17145  40.916  39.067   1.475
45530W        W17146  38.397   0.992   2.744
45531W        W17147   0.488  42.347   3.377
45532W        W17148  20.075  13.900  12.528
45533W        W17149  22.191  25.619  11.971
45534W        W17150  32.906   4.449   4.291
45535W        W17151   9.298   2.994   4.885
45536W        W17152  12.967  39.553   1.366
45537W        W17153   6.253  26.761  14.736
45538W        W17154  26.484  39.227  11.086
45539W        W17155  18.582   2.009  13.318
45540W        W17156   3.777  22.455   1.847
45541W        W17157  26.255  21.147  13.308
45542W        W17158  15.915  27.098   2.884
45543W        W17159  40.670  21.280  12.326
45544W        W17160  40.082  20.821  13.470
45545W        W17161  14.655  39.744  14.328
45546W        W17162  20.117  34.951  10.922
45547W        W17163   2.630   6.427   1.929
45548W        W17164  17.080  18.242  13.086
45549W        W17165  42.033  12.709  13.040
45550W        W17166  10.246  40.434  13.750
45551W        W17167   3.469  25.695  14.285
45552W        W17168   7.838   1.401   0.438
45553W        W17169  11.556  29.003  14.247
45554W        W17170  34.219  42.603  13.420
45555W        W17171   8.413  24.790   2.747
45556W        W17172  39.196  16.080   4.286
45557W        W17173  21.697  31.836  11.118
45558W        W17174  18.262  40.056  12.000
45559W        W17175  17.037  36.979   1.356
45560W        W17176  28.948  24.170   3.674
45561W        W17177  19.654   6.033   0.486
45562W        W17178  30.394  43.407   3.877
45563W        W17179  38.454  42.894   4.708
45564W        W17180  13.313  19.549   0.971
45565W        W17181  40.631  24.427   4.485
45566W        W17182   3.894  27.655   1.430
45567W        W17183   3.695   9.086   3.797
45568W        W17184  26.913   6.775   1.352
45569W        W17185   2.342   1.184  11.879
45570W        W17186   5.384  14.784   0.197
45571W        W17187   8.914   5.346  13.989
45572W        W17188   4.830  23.509  11.673
45573W        W17189  27.886   4.926  13.802
45574W        W17190  23.995  31.479  11.015
45575W        W17191  41.597   9.802  10.528
45576W        W17192   1.475  40.794   0.424
45577W        W17193  27.569  28.883  11.984
45578W        W17194  31.265  38.362   1.128
45579W        W17195  24.400  29.205   3.111
45580W        W17196  16.291   5.916   2.392
45581W        W17197  21.136  28.468  11.258
45582W        W17198   9.843  24.316  12.142
45583W        W17199  11.300   9.954  11.429
45584W        W17200   5.985  40.375  11.307
45585W        W17201  30.138  11.402  11.058
45586W        W17202  29.769  41.749   0.266
45587W        W17203  43.787  15.758  10.562
45588W        W17204  32.985  27.476  14.029
45589W        W17205  21.724  10.141   0.734
45590W        W17206  17.383  13.202   2.463
45591W        W17207  35.513   5.876   1.371
45592W        W17208   7.675  18.674  14.021
45593W        W17209  31.182  33.103  11.893
45594W        W17210   9.981   9.094   5.048
45595W        W17211   9.643  25.248   3.753
45596W        W17212   8.357   2.244  13.276
45597W        W17213  34.678   8.440   0.756
45598W        W17214  35.340   7.159  12.130
45599W        W17215  34.014  34.914  13.882
45600W        W17216  16.769  40.529   1.765
45601W        W17217  16.945  37.597   3.148
45602W        W17218   8.520  41.519  10.006
45603W        W17219  28.388  30.870  11.135
45604W        W17220  10.200  29.931   0.209
45605W        W17221  21.057  19.852  11.520
45606W        W17222  41.414  24.439   3.798
45607W        W17223  18.225  21.058  10.730
45608W        W17224  19.202  44.208   3.251
45609W        W17225   0.458  26.247   4.303
45610W        W17226  32.184   3.828  12.062
45611W        W17227   9.478  23.764   0.673
45612W        W17228  32.068  33.356  13.806
45613W        W17229   6.151  13.780   0.469
45614W        W17230  32.855  18.728  14.643
45615W        W17231  28.697  42.770  10.227
45616W        W17232  14.362  31.524   0.738
45617W        W17233   3.545  32.997  13.628
45618W        W17234  27.231  12.735   1.678
45619W        W17235  36.561   3.785  12.467
45620W        W17236  38.285  27.049   1.743
45621W        W17237  28.164  18.324  12.656
45622W        W17238  29.146  35.433   4.564
45623W        W17239  35.294   9.767   3.578
45624W        W17240  43.828  37.073  12.917
45625W        W17241  40.589  42.434  11.120
45626W        W17242  40.150  23.742  11.993
45627W        W17243  27.861  32.878  13.875
45628W        W17244  28.659  13.241   1.739
45629W        W17245  30.175  25.646  13.542
45630W        W17246  14.619  33.604   0.736
45631W        W17247  28.751   6.651  13.887
45632W        W17248   1.861  26.676  14.715
45633W        W17249   9.951   3.311   4.405
45634W        W17250   2.766  18.044  11.529
45635W        W17251  36.895  22.837  12.652
45636W        W17252  39.780  14.550   1.363
45637W        W17253  35.154  41.564   2.283
45638W        W17254   8.230  13.203  13.398
45639W        W17255   9.800  34.637  13.986
45640W        W17256   3.312  31.779   1.478
45641W        W17257  39.852   5.994  10.696
45642W        W17258  30.543  18.043  14.645
45643W        W17259  25.171   2.738  13.111
45644W        W17260  41.469   6.852   0.857
45645W        W17261  36.272  44.766   0.058
45646W        W17262  15.296  17.551  10.421
45647W        W17263  40.052  41.587   0.724
45648W        W17264   4.311  16.773  13.937
45649W        W17265  40.740   2.082  12.055
45650W        W17266   2.550  27.445  11.972
45651W        W17267   5.659  37.960  14.901
45652W        W17268  31.108  29.958   1.323
45653W        W17269   8.974  31.393   1.758
45654W        W17270   1.035  22.971  10.628
45655W        W17271  11.155  38.107  13.062
45656W        W17272   3.186  13.351  14.436
45657W        W17273  35.433  10.619  14.333
45658W        W17274   5.644   9.607  14.878
45659W        W17275  23.114  36.880  11.668
45660W        W17276   7.261   4.074   3.149
45661W        W17277  41.387  24.632   0.767
45662W        W17278  26.924  35.460  13.477
45663W        W17279  31.135  35.007  13.816
45664W        W17280  38.555  30.924  10.737
45665W        W17281   1.352  34.907   2.876
45666W        W17282  36.322  29.797   1.966
45667W        W17283  32.698  16.377  12.467
45668W        W17284  36.111  34.512   0.421
45669W        W17285  21.068  42.021   3.633
45670W        W17286  34.999   0.438  14.793
45671W        W17287  22.712  22.260  13.361
45672W        W17288  31.489   8.163   1.953
45673W        W17289   5.722   3.626   4.595
45674W        W17290  13.435  27.482  11.071
45675W        W17291  41.473  44.305  13.986
45676W        W17292   0.437  32.231  14.714
45677W        W17293  27.810  14.729   4.467
45678W        W17294  29.509  23.713  13.507
45679W        W17295  39.350  12.242   1.709
45680W        W17296   4.447  23.587   4.948
45681W        W17297  25.122   8.461   2.821
45682W        W17298  34.152   0.358  12.969
45683W        W17299   6.271  15.863  12.921
45684W        W17300  14.230  34.129  13.474
45685W        W17301  25.049   6.174   4.125
45686W        W17302  19.354   6.199  14.329
45687W        W17303  12.193  44.891  13.552
45688W        W17304  42.198  28.598  11.257
45689W        W17305  38.565  39.499   0.580
45690W        W17306  21.652  44.338   0.233
45691W        W17307   0.769   7.933  13.404
45692W        W17308  30.965  33.307   4.599
45693W        W17309  35.739  41.537  11.968
45694W        W17310  14.789  24.393  14.327
45695W        W17311  11.400   4.415  11.579
45696W        W17312  38.870  18.850  10.736
45697W        W17313  27.634  26.489  14.321
45698W        W17314  43.212  11.877   0.491
45699W        W17315  12.300  40.061   2.565
45700W        W17316   4.849  20.686   2.803
45701W        W17317  35.228  10.463   1.833
45702W        W17318  11.232  29.711  11.540
45703W        W17319   9.888  26.653  12.102
45704W        W17320  33.373  43.049  13.491
45705W        W17321  33.621  35.744  12.949
45706W        W17322  44.512  25.144   1.619
45707W        W17323  31.423   1.757  14.223
45708W        W17324  19.202  29.852  14.300
45709W        W17325  25.632  14.008   2.855
45710W        W17326  14.937   7.668   3.506
45711W        W17327  17.752  27.161   1.410
45712W        W17328  12.166  24.641   3.736
45713W        W17329  22.313  14.318  12.172
45714W        W17330  28.439  29.994   4.142
45715W        W17331  40.350   7.840   3.568
45716W        W17332   8.125  13.692   2.943
45717W        W17333  28.591  22.330   0.513
45718W        W17334  31.268  31.273  11.091
45719W        W17335  34.000  40.042   2.245
45720W        W17336  16.643   3.930  11.919
45721W        W17337  34.612  26.623   0.137
45722W        W17338  43.066  37.467  13.526
45723W        W17339  44.996  14.366   4.538
45724W        W17340   7.463  40.964   2.233
45725W        W17341  36.776  25.623  11.993
45726W        W17342  36.112  32.464  11.575
45727W        W17343  43.314  18.957   4.454
45728W        W17344  26.703   1.284  12.649
45729W        W17345  21.617   0.236   1.186
45730W        W17346   4.680  21.231  10.648
45731W        W17347   2.959  43.556   4.561
45732W        W17348  41.412  15.213   0.406
45733W        W17349   6.168  33.687   3.649
45734W        W17350  22.653  42.831   1.261
45735W        W17351   4.202  10.873  13.560
45736W        W17352  19.739  43.413  10.610
45737W        W17353  21.247  30.597  13.528
45738W        W17354   4.816  27.331   2.435
45739W        W17355  42.522   2.193   4.112
45740W        W17356  29.070  31.469   4.621
45741W        W17357  29.172  12.891  11.644
45742W        W17358  15.440  15.285  11.607
45743W        W17359  41.136  24.259  11.629
45744W        W17360  42.609  27.082  11.509
45745W        W17361  37.253  16.199  12.361
45746W        W17362  33.764  22.791   4.799
45747W        W17363  14.689  36.912  12.873
45748W        W17364  23.046  31.760   4.392
45749W        W17365  14.124   8.186  13.892
45750W        W17366   4.701  17.957  14.452
45751W        W17367  24.888  42.831   4.583
45752W        W17368  33.652  43.701   0.444
45753W        W17369   9.402   2.345  13.529
45754W        W17370  24.061  18.238  12.765
45755W        W17371   0.614   5.527   4.062
45756W        W17372  26.096  34.342   2.698
45757W        W17373  44.050   2.722  14.758
45758W        W17374  39.932   4.350  12.036
45759W        W17375  21.503  22.250  14.298
45760W        W17376   2.088  24.074  14.446
45761W        W17377  42.923  21.552   3.907
45762W        W17378  11.213  44.974  12.995
45763W        W17379  44.381  18.556  14.338
45764W        W17380  32.332  36.556  11.155
45765W        W17381  29.358  32.478   3.267
45766W        W17382   1.359  21.253   2.796
45767W        W17383  15.770  26.281   1.745
45768W        W17384  26.711  25.027   4.890
45769W        W17385  35.348  15.295   2.287
45770W        W17386  36.854  37.893   3.150
45771W        W17387  15.919  12.503   1.308
45772W        W17388   2.557  28.391   4.180
45773W        W17389  33.971  34.800   2.821
45774W        W17390  29.017  13.548  12.419
45775W        W17391  18.364  44.279  11.587
45776W        W17392  23.556  31.046  14.831
45777W        W17393   0.470  25.559  14.430
45778W        W17394   8.003   0.688  13.021
45779W        W17395  10.761  13.739   1.884
45780W        W17396  40.936  39.761   4.566
45781W        W17397  16.530  12.662   3.232
45782W        W17398  13.850  24.750   0.032
45783W        W17399   3.870  28.038  12.151
45784W        W17400  14.631  19.635   3.297
45785W        W17401  41.277   4.397  11.170
45786W        W17402  37.488  36.129  11.852
45787W        W17403  10.877  41.813  11.027
45788W        W17404   3.869  14.124   1.809
45789W        W17405  17.260  39.275  14.055
45790W        W17406  14.435  32.228   3.809
45791W        W17407   6.471  20.310  10.826
45792W        W17408  25.414  14.780  10.651
45793W        W17409  29.887  31.084  13.954
45794W        W17410  18.076  15.250   0.972
45795W        W17411  29.952  36.066   0.494
45796W        W17412  23.468  18.736   3.231
45797W        W17413   1.923  39.603   4.293
45798W        W17414  34.637   6.744   0.016
45799W        W17415  37.477  28.417  14.838
45800W        W17416  15.689   7.229   2.327
45801W        W17417  40.743  29.201   3.808
45802W        W17418   7.806  16.597   2.681
45803W        W17419   8.425  21.005  10.975
45804W        W17420  10.301  25.135   4.551
45805W        W17421  30.250  13.191  13.088
45806W        W17422  34.912   5.397   0.971
45807W        W17423  30.177  29.898  11.539
45808W        W17424  29.697  24.178   4.356
45809W        W17425   7.383   7.889   0.764
45810W        W17426  36.861   6.986  11.535
45811W        W17427   8.651   5.868  11.399
45812W        W17428  33.537  20.521  10.625
45813W        W17429  34.558  15.126  13.913
45814W        W17430  43.917  18.107  12.853
45815W        W17431   1.905  39.792  10.793
45816W        W17432   9.249   4.701   2.445
45817W        W17433  15.653  43.398  12.157
45818W        W17434  23.663  20.284  13.326
45819W        W17435   0.440  43.201  12.492
45820W        W17436   3.732  39.994  11.504
45821W        W17437  38.092  21.641  13.115
45822W        W17438  18.623   1.319   1.022
45823W        W17439   3.109  30.582   2.424
45824W        W17440  32.898  22.879  10.781
45825W        W17441   1.750  32.771  14.541
45826W        W17442  17.773  42.314   3.285
45827W        W17443  16.288  15.064  12.651
45828W        W17444  42.333  28.013   4.925
45829W        W17445  11.848  38.332  14.951
45830W        W17446  16.019  20.503  14.791
45831W        W17447  37.620  32.139   2.229
45832W        W17448  15.050  30.412   0.313
45833W        W17449  39.060  22.393  14.369
45834W        W17450  32.899   2.211   0.810
45835W        W17451  39.867  32.211   5.252
45836W        W17452  11.234  15.121   1.001
45837W        W17453  37.603   0.635   5.116
45838W        W17454  36.464   5.367   1.293
45839W        W17455  17.631   0.964  13.027
45840W        W17456   2.300  33.057   3.660
45841W        W17457  20.332   0.840  11.997
45842W        W17458  32.825  22.068  14.300
45843W        W17459  40.825  12.960   0.379
45844W        W17460  17.247  43.842  10.374
45845W        W17461  43.731   5.886  12.879
45846W        W17462  23.985  20.258   0.441
45847W        W17463   0.353   8.413   2.675
45848W        W17464  43.271  30.636   0.191
45849W        W17465  29.500  29.524  10.212
45850W        W17466   4.104  38.012  11.656
45851W        W17467  32.934  31.704  10.764
45852W        W17468   5.003  37.328  14.950
45853W        W17469  31.139  36.804  13.474
45854W        W17470  15.704  14.195   4.044
45855W        W17471  24.644  18.178  14.893
45856W        W17472   1.291  28.396   2.331
45857W        W17473  13.921  38.823   1.932
45858W        W17474  36.406  33.061   3.290
45859W        W17475  19.847  23.325   3.082
45860W        W17476  16.679  31.877   2.854
45861W        W17477  37.937  36.541   1.337
45862W        W17478  12.610  39.427  11.410
45863W        W17479  39.337  40.406  14.333
45864W        W17480  38.762  10.787  10.158
45865W        W17481   5.729  15.683  10.640
45866W        W17482  13.115  37.227   0.372
45867W        W17483   3.413  24.620  13.435
45868W        W17484  44.551  23.186  12.881
45869W        W17485  16.827  30.622  13.415
45870W        W17486  41.220  27.089   3.808
45871W        W17487  10.252  25.748   0.880
45872W        W17488  26.206  21.229   1.721
45873W        W17489   2.766  14.829   1.845
45874W        W17490  40.607  30.498  14.692
45875W        W17491  31.713  15.360   1.836
45876W        W17492  18.366   9.303   2.691
45877W        W17493  22.584  40.582  12.583
45878W        W17494  29.694   9.358   2.996
45879W        W17495   6.855  18.616  13.449
45880W        W17496  33.468  30.916   3.050
45881W        W17497  40.026  38.310  11.649
45882W        W17498  44.886  19.007   3.009
45883W        W17499   5.663  16.364   4.039
45884W        W17500  43.810  43.451   1.106
45885W        W17501   8.362  23.852   2.810
45886W        W17502   6.491   2.928   1.406
45887W        W17503  13.937  19.109   3.066
45888W        W17504  32.910  15.020   3.192
45889W        W17505   0.008  32.024  14.378
45890W        W17506  14.158  36.152  11.049
45891W        W17507  36.102  18.881  10.688
45892W        W17508  40.842  40.887   1.821
45893W        W17509  44.707  40.896   3.301
45894W        W17510  43.966  27.941  14.424
45895W        W17511   5.471  24.615   4.292
45896W        W17512  26.448  22.623  13.310
45897W        W17513  29.538  23.203   1.390
45898W        W17514  31.214  18.473  11.623
45899W        W17515  44.825   2.715  13.767
45900W        W17516   8.663  42.558   1.694
45901W        W17517  17.299  13.691   1.521
45902W        W17518  25.729  10.858   3.600
45903W        W17519  20.619  39.352   3.721
45904W        W17520  43.055   6.679   1.335
45905W        W17521  19.277   1.427   2.633
45906W        W17522  29.377  24.001   2.877
45907W        W17523  13.348   1.299   2.878
45908W        W17524  31.439   2.907  13.871
45909W        W17525  12.876   9.180   4.543
45910W        W17526  39.819  30.081   0.048
45911W        W17527  22.513  13.568   4.102
45912W        W17528   3.195  12.840  14.372
45913W        W17529  28.581  10.587   1.461
45914W        W17530  19.253  24.231  11.611
45915W        W17531  13.708  30.293   3.075
45916W        W17532   7.691  21.219  11.620
45917W        W17533  30.893  15.064  11.640
45918W        W17534  22.299  18.296  11.261
45919W        W17535   4.829   4.902  14.398
45920W        W17536   7.804   6.274  13.432
45921W        W17537  33.439  30.188  12.899
45922W        W17538  26.581   3.706  12.979
45923W        W17539  17.038  19.193   1.587
45924W        W17540  17.808   7.764   1.796
45925W        W17541  37.665   2.830   4.016
45926W        W17542  34.563  33.076   4.753
45927W        W17543  15.128   4.529  14.858
45928W        W17544  30.471  14.847   1.323
45929W        W17545  14.093  17.582   0.862
45930W        W17546  27.640  13.530  12.454
45931W        W17547  42.427  22.635   3.674
45932W        W17548   8.407  25.216  10.566
45933W        W17549  37.616   7.978  14.299
45934W        W17550  36.000  16.042   3.359
45935W        W17551   3.199  10.288   1.894
45936W        W17552  19.079  30.982   2.917
45937W        W17553  10.178  38.859  11.983
45938W        W17554  21.153  15.394   5.023
45939W        W17555  12.940  17.189  12.179
45940W        W17556  30.017   6.532   5.054
45941W        W17557  10.303  18.467   4.496
45942W        W17558  17.594  31.932   3.228
45943W        W17559  17.112  23.587   0.095
45944W        W17560  16.688   1.101  11.888
45945W        W17561  38.092   7.883   0.453
45946W        W17562  12.214  31.802  14.070
45947W        W17563  15.757   2.217   1.416
45948W        W17564   7.776  25.999  13.634
45949W        W17565  43.371  14.774  10.528
45950W        W17566  32.977  42.736  12.660
45951W        W17567  29.089  30.507   0.878
45952W        W17568  10.739  20.632  12.891
45953W        W17569  43.465  19.619   3.743
45954W        W17570  26.176  22.678  13.963
45955W        W17571  40.847  24.193   0.422
45956W        W17572  37.362   4.367  10.877
45957W        W17573   1.393  30.489   1.414
45958W        W17574  28.019  27.840  10.634
45959W        W17575  34.279  39.938  12.060
45960W        W17576  14.821  11.392  12.430
45961W        W17577   6.891  25.123  13.188
45962W        W17578   4.625  37.379  14.579
45963W        W17579  19.502  28.971  14.059
45964W        W17580   8.325  33.629   0.187
45965W        W17581  16.539  31.451   1.497
45966W        W17582  10.662  18.494   0.123
45967W        W17583  12.565  42.599  13.458
45968W        W17584  19.803   7.296  14.724
45969W        W17585  41.041  38.855   0.989
45970W        W17586  18.817  17.089  13.139
45971W        W17587  34.832  43.000   3.985
45972W        W17588  35.103  22.505  11.175
45973W        W17589   1.888   6.951   0.072
45974W        W17590  36.360   7.369   0.359
45975W        W17591   0.365  12.887  12.054
45976W        W17592  24.183  19.786   3.936
45977W        W17593   5.685  16.051   3.116
45978W        W17594  31.377  37.447  12.142
45979W        W17595  12.335   8.990   3.673
45980W        W17596   7.314   7.357   2.225
45981W        W17597   2.977  19.783  12.931
45982W        W17598  24.452  24.547   3.675
45983W        W17599  23.019  20.557  13.843
45984W        W17600   5.101   6.024  11.082
45985W        W17601  41.963  11.884  11.280
45986W        W17602   6.839  33.444  11.705
45987W        W17603  33.327  31.767   1.811
45988W        W17604  10.779  20.032  10.763
45989W        W17605  40.751  18.147  12.313
45990W        W17606  16.393  25.539  13.451
45991W        W17607  24.227  36.903   4.728
45992W        W17608  17.278  10.726  14.401
45993W        W17609  40.411   7.286   4.653
45994W        W17610  38.335  32.876  11.063
45995W        W17611  26.470  32.671  12.093
45996W        W17612   0.506  24.742   4.311
45997W        W17613  23.320   6.949  10.576
45998W        W17614  22.106   2.336  14.395
45999W        W17615   2.367   5.876   1.667
46000W        W17616  14.738  25.245  13.754
46001W        W17617  11.927  11.183   1.939
46002W        W17618  32.602  20.500   2.887
46003W        W17619  38.599  37.949   2.787
46004W        W17620  33.658  34.418  10.274
46005W        W17621  30.935  25.961   0.343
46006W        W17622  39.351  40.765   0.299
46007W        W17623  21.541  14.103  11.405
46008W        W17624  29.233  10.697  14.117
46009W        W17625  43.585  40.284  12.647
46010W        W17626   4.778  44.995  10.274
46011W        W17627  28.509  44.941   3.077
46012W        W17628  22.403  10.895   0.297
46013W        W17629  19.647  15.337   3.330
46014W        W17630   8.916  12.824  11.948
46015W        W17631  41.249  23.021   0.903
46016W        W17632  10.525  14.757  13.357
46017W        W17633   9.499   7.135   3.613
46018W        W17634   2.793  44.539  10.223
46019W        W17635   4.712  16.073   2.807
46020W        W17636  42.090  17.328  10.943
46021W        W17637  13.911  23.158   1.760
46022W        W17638  20.067  31.084   1.874
46023W        W17639  33.512  23.790   1.774
46024W        W17640  16.792  17.589   4.177
46025W        W17641  23.687   1.362  14.037
46026W        W17642  15.841  38.140  13.499
46027W        W17643  30.475  32.936  14.046
46028W        W17644  28.607   5.214   3.800
46029W        W17645  11.746   9.289   4.668
46030W        W17646  35.986  12.153   2.421
46031W        W17647  15.551  16.320  13.424
46032W        W17648  36.790  35.281  13.428
46033W        W17649  39.409  38.694   1.167
46034W        W17650   8.643  37.375   4.664
46035W        W17651  15.760  34.032   3.621
46036W        W17652  28.086  34.484  11.671
46037W        W17653  24.948  12.570   0.854
46038W        W17654  21.947  36.545   2.939
46039W        W17655   9.325  34.649   2.248
46040W        W17656  42.510  41.689  12.059
46041W        W17657  42.467  23.948  10.756
46042W        W17658   9.603  18.312  11.591
46043W        W17659  27.066   3.021   2.461
46044W        W17660  39.749  31.592   1.901
46045W        W17661  12.657  15.991  14.988
46046W        W17662   2.267   8.117  11.164
46047W        W17663  13.093  32.678   1.302
46048W        W17664  16.538  14.775   0.218
46049W        W17665  44.770  30.151  10.991
46050W        W17666   0.311   5.401   2.164
46051W        W17667  43.213  36.818   4.247
46052W        W17668   9.317   3.190  10.878
46053W        W17669   9.991  18.654  10.889
46054W        W17670  15.060  28.619   3.459
46055W        W17671  40.546  15.392  12.423
46056W        W17672  27.705  22.507   0.248
46057W        W17673  25.915  31.707   3.701
46058W        W17674  34.997   2.387  14.970
46059W        W17675  37.361  36.981   2.074
46060W        W17676  23.553   8.630  11.108
46061W        W17677   7.161   2.136   2.820
46062W        W17678  32.885   9.368  11.169
46063W        W17679  14.224  33.474  13.111
46064W        W17680  36.430  22.806   4.566
46065W        W17681   6.440  39.905  14.935
46066W        W17682  43.269  23.982   1.819
46067W        W17683  28.869  28.073   5.144
46068W        W17684  12.114   1.847  12.280
46069W        W17685  33.032  29.452   4.586
46070W        W17686  18.821  25.619  14.003
46071W        W17687  24.126  11.329   1.320
46072W        W17688  36.273  41.734   2.461
46073W        W17689  34.928   8.844  11.834
46074W        W17690  18.269  19.139  13.319
46075W        W17691  13.377  22.751   0.633
46076W        W17692  23.743  32.500   0.320
46077W        W17693   0.249  33.593  12.485
46078W        W17694  18.835  30.163  14.033
46079W        W17695  20.540  14.307   4.607
46080W        W17696  31.579  22.569  14.075
46081W        W17697  43.061  42.961   2.405
46082W        W17698  16.046  27.420   4.005
46083W        W17699  44.769  32.174  12.054
46084W        W17700  30.157  36.983   0.252
46085W        W17701   1.874   7.385   1.698
46086W        W17702   7.097  13.274  14.462
46087W        W17703  40.314   5.757  10.669
46088W        W17704   2.390  41.947  11.197
46089W        W17705  26.596  22.513   2.710
46090W        W17706  19.605   0.498   2.200
46091W        W17707   5.978  20.129  10.788
46092W        W17708  33.640   3.912   1.071
46093W        W17709  14.137   4.784  12.927
46094W        W17710  32.655  40.248   0.543
46095W        W17711   9.450  18.580   4.971
46096W        W17712  37.008  19.870  11.836
46097W        W17713  15.261   6.296   5.067
46098W        W17714  23.966  38.448  11.869
46099W        W17715  44.006  43.788   4.650
46100W        W17716   8.657  41.909   2.285
46101W        W17717  25.119   9.617  11.555
46102W        W17718  34.544  34.025   1.470
46103W        W17719   7.840  15.632  12.997
46104W        W17720  17.697  18.327  10.290
46105W        W17721  32.365  21.974   4.163
46106W        W17722  28.983  19.194   3.315
46107W        W17723  37.224  17.304  13.628
46108W        W17724  30.128  17.583  13.584
46109W        W17725  17.409  28.976  14.901
46110W        W17726   2.746   6.179  13.832
46111W        W17727  37.812  21.575   0.336
46112W        W17728  29.242  27.033  11.564
46113W        W17729  31.497  24.508  12.390
46114W        W17730   2.308  37.386   1.539
46115W        W17731  36.420  26.200   3.312
46116W        W17732  12.191  31.488   1.732
46117W        W17733  27.966  19.266   0.831
46118W        W17734  35.375  29.670   4.652
46119W        W17735  17.775  11.466  12.677
46120W        W17736  29.735  14.702   2.326
46121W        W17737  34.038   3.748  10.995
46122W        W17738  12.697   2.034  11.558
46123W        W17739  36.112  17.657  13.426
46124W        W17740  10.358   9.436   3.725
46125W        W17741  15.511  42.376   0.404
46126W        W17742  31.101   7.636   1.684
46127W        W17743   7.801  28.903   1.263
46128W        W17744  25.179  36.828   3.245
46129W        W17745  14.069  20.663  12.413
46130W        W17746  18.597   7.728   0.890
46131W        W17747  44.047   2.741  13.352
46132W        W17748  36.996   5.294  13.484
46133W        W17749  36.107  28.270   1.752
46134W        W17750  12.752  40.024   4.883
46135W        W17751  19.109  20.770   1.243
46136W        W17752  38.447  16.145   3.671
46137W        W17753   8.098  25.983  14.070
46138W        W17754  44.109  12.766  12.472
46139W        W17755   4.215  21.881   3.495
46140W        W17756  26.209  34.470   4.016
46141W        W17757  38.441  32.822   3.578
46142W        W17758   9.650  17.246   2.755
46143W        W17759  29.255  33.567   2.759
46144W        W17760  13.003  12.648  10.275
46145W        W17761  41.990  35.336   0.910
46146W        W17762   3.086   9.519  13.311
46147W        W17763  32.128  31.951  14.824
46148W        W17764   8.984   9.261  13.206
46149W        W17765   4.230  17.237  10.399
46150W        W17766  25.925  26.218  14.767
46151W        W17767  27.007  16.290  13.442
46152W        W17768  15.238  10.090  13.080
46153W        W17769  39.408  24.578  13.995
46154W        W17770  11.044  34.717  14.303
46155W        W17771  39.659  42.254  11.164
46156W        W17772   4.773   5.493   4.269
46157W        W17773   8.769   2.030   4.121
46158W        W17774  43.440  16.109  10.908
46159W        W17775  40.652   9.877  10.628
46160W        W17776   4.428   7.761  14.983
46161W        W17777  30.065  23.995   1.594
46162W        W17778  18.933  35.611   1.275
46163W        W17779  31.081  38.785   1.416
46164W        W17780  36.741  11.298  12.576
46165W        W17781   6.244  26.250  14.050
46166W        W17782  25.602  22.984  12.620
46167W        W17783  32.301   1.476  10.677
46168W        W17784   8.837  13.945  14.689
46169W        W17785  14.733  16.009   1.255
46170W        W17786  42.751   3.994   1.646
46171W        W17787  18.204  17.168   0.318
46172W        W17788  27.564  30.269   2.484
46173W        W17789  42.514  34.706   0.038
46174W        W17790  35.020  14.059  11.053
46175W        W17791  27.625   7.229   4.364
46176W        W17792  19.240  44.714  14.992
46177W        W17793  21.694  19.341  13.542
46178W        W17794  22.460  31.131   2.748
46179W        W17795  32.628  21.291   2.139
46180W        W17796  43.679  34.972   2.210
46181W        W17797  23.483  44.003  13.588
46182W        W17798  24.003   7.395  12.536
46183W        W17799   3.880  28.320   0.780
46184W        W17800  22.252  35.921   4.063
46185W        W17801  12.745  29.587  10.764
46186W        W17802  25.561  31.513   3.996
46187W        W17803  22.029   7.555   4.519
46188W        W17804   0.011  12.540   3.693
46189W        W17805  43.931  24.718  11.129
46190W        W17806  19.456   6.763  14.094
46191W        W17807  22.801  16.537   1.796
46192W        W17808  18.745  36.019  12.431
46193W        W17809   3.861  38.792   0.894
46194W        W17810  26.483  40.578   0.321
46195W        W17811  44.338  35.192   1.261
46196W        W17812  43.472   1.884   3.454
46197W        W17813  17.769   3.883   3.214
46198W        W17814  20.025  12.462   0.914
46199W        W17815  33.532  35.424   0.503
46200W        W17816  14.361  25.596  11.521
46201W        W17817  17.598  26.173   3.311
46202W        W17818   8.607  42.440   0.383
46203W        W17819  12.219  13.004  11.514
46204W        W17820   7.203  26.101   4.660
46205W        W17821   6.621   5.280  14.864
46206W        W17822   4.860   2.652  11.705
46207W        W17823  14.351  20.722  13.785
46208W        W17824  31.391  44.037   1.773
46209W        W17825  26.853  12.270   0.000
46210W        W17826  32.995   1.968  11.089
46211W        W17827  27.092  33.422   3.857
46212W        W17828  24.278  24.748   2.189
46213W        W17829  10.957  35.147   2.753
46214W        W17830   8.366  12.678  11.114
46215W        W17831   8.329  34.670  12.436
46216W        W17832  44.741  21.411   3.280
46217W        W17833  19.265  24.185   1.959
46218W        W17834  33.617  41.372  14.029
46219W        W17835  37.038  32.337   0.039
46220W        W17836  44.402  28.545   2.854
46221W        W17837  35.954  11.153  11.514
46222W        W17838  28.133  34.667   0.052
46223W        W17839  29.184  32.536   0.928
46224W        W17840  30.126   9.692   2.914
46225W        W17841  37.805  20.692  14.439
46226W        W17842  40.675   0.508  12.430
46227W        W17843  33.251  34.128  11.010
46228W        W17844  10.664  26.489  11.496
46229W        W17845  32.009  35.902   3.293
46230W        W17846  34.440  32.273   3.534
46231W        W17847  41.708  37.366   3.265
46232W        W17848   8.198   7.045   4.120
46233W        W17849   0.989  23.250  11.858
46234W        W17850  24.477  42.074  13.429
46235W        W17851  40.103  19.263   2.783
46236W        W17852  18.455  28.468  11.372
46237W        W17853   2.994  17.775   3.807
46238W        W17854  42.301  43.087  10.374
46239W        W17855  19.875  21.906   1.461
46240W        W17856  24.614  31.128   3.217
46241W        W17857  41.109  28.444   1.657
46242W        W17858   6.980  36.841   0.534
46243W        W17859  44.040  40.683  14.666
46244W        W17860  24.427   7.158   4.739
46245W        W17861   2.159  21.000   1.495
46246W        W17862   5.334  38.574   4.020
46247W        W17863  32.632   8.547   3.655
46248W        W17864   8.045   3.869  11.487
46249W        W17865   0.684   9.890  12.800
46250W        W17866   2.877  23.932  10.261
46251W        W17867  38.919   7.659  11.951
46252W        W17868  41.058  39.002  10.562
46253W        W17869  41.110   3.873   2.862
46254W        W17870  39.582  38.930  11.237
46255W        W17871  16.983  36.602   1.703
46256W        W17872  44.278  44.658   3.706
46257W        W17873  32.472  43.880   3.671
46258W        W17874  40.438  16.269   3.351
46259W        W17875  19.701  29.992   3.742
46260W        W17876  41.291  10.491  11.483
46261W        W17877  42.693   6.204   0.949
46262W        W17878  40.380   8.786   3.107
46263W        W17879  16.635   0.825   2.239
46264W        W17880  19.348  22.557  12.230
46265W        W17881  10.810   3.270   4.993
46266W        W17882  30.879  25.673  12.772
46267W        W17883  34.946  12.675   4.132
46268W        W17884  37.132  11.666  13.999
46269W        W17885  33.830  15.195   3.666
46270W        W17886  42.402  22.380   2.330
46271W        W17887   3.831  44.742   2.654
46272W        W17888  16.728  33.052   0.881
46273W        W17889   3.806  24.353  11.949
46274W        W17890  30.688  20.308  11.163
46275W        W17891  42.774  39.754   4.203
46276W        W17892  29.688  24.195  10.725
46277W        W17893  20.957  35.907  11.855
46278W        W17894  11.672  39.838   1.388
46279W        W17895  13.402  12.701  14.298
46280W        W17896  12.516  40.224   4.054
46281W        W17897  17.341  38.355   0.849
46282W        W17898  20.483  19.167  11.131
46283W        W17899   0.995   0.312   2.291
46284W        W17900  32.970  36.264  13.506
46285W        W17901  29.644  32.400  12.524
46286W        W17902  26.503  25.557   2.231
46287W        W17903  25.451  20.101  13.940
46288W        W17904  43.029  34.336   2.260
46289W        W17905   8.590  35.123  12.483
46290W        W17906  40.046   7.934  11.221
46291W        W17907  14.197   9.111   0.255
46292W        W17908  37.969  15.573   2.675
46293W        W17909  15.239   8.009  14.257
46294W        W17910  42.506   9.058  13.332
46295W        W17911  33.222   8.688  12.028
46296W        W17912  14.249  16.615   2.621
46297W        W17913  12.631  12.367  10.940
46298W        W17914  24.692  38.203   4.154
46299W        W17915  15.283  21.133  13.396
46300W        W17916  26.404  11.810   2.742
46301W        W17917  42.265  10.191   1.732
46302W        W17918  37.070  34.996  12.048
46303W        W17919  33.504   4.409   3.711
46304W        W17920  27.732  34.909  10.980
46305W        W17921  26.055  44.213   0.779
46306W        W17922   8.116  16.251  13.791
46307W        W17923  29.973  26.142   2.626
46308W        W17924   6.405   9.173   2.666
46309W        W17925   1.439  41.783   0.265
46310W        W17926  37.903  26.525   1.141
46311W        W17927  26.719  10.020   0.270
46312W        W17928  43.909  33.210  14.037
46313W        W17929  13.163  17.196   2.381
46314W        W17930  41.446  14.391  11.970
46315W        W17931  19.884  25.626   0.817
46316W        W17932  15.124  44.248   2.914
46317W        W17933  20.754  42.455  13.946
46318W        W17934  10.176  24.706   0.916
46319W        W17935  37.247  43.365   1.938
46320W        W17936   9.610  27.762  12.756
46321W        W17937  23.111  31.457   1.044
46322W        W17938  29.723  44.679   3.706
46323W        W17939   0.029  10.417  14.417
46324W        W17940  23.563   5.275   0.421
46325W        W17941  32.466  14.720   3.816
46326W        W17942  21.906  11.588   1.769
46327W        W17943  30.916  17.998   0.351
46328W        W17944  39.353  38.340   0.170
46329W        W17945  26.495   0.219  14.373
46330W        W17946  28.634  36.488   0.875
46331W        W17947   6.400  36.536   0.042
46332W        W17948  20.668   2.769  10.717
46333W        W17949  17.017  10.165  10.296
46334W        W17950  34.850   9.293   2.675
46335W        W17951  39.958  44.204  13.750
46336W        W17952  37.994  19.264   4.179
46337W        W17953  39.523  21.622   2.425
46338W        W17954   9.645  23.137   2.695
46339W        W17955  37.068  33.512   3.069
46340W        W17956  14.602   2.275   0.140
46341W        W17957   1.196  20.401   2.381
46342W        W17958  14.613  21.197  13.921
46343W        W17959  33.746  10.284   3.229
46344W        W17960   3.498   5.309   0.921
46345W        W17961  33.389   3.422  12.012
46346W        W17962  39.611  16.631  14.432
46347W        W17963  17.146  15.857   5.179
46348W        W17964   4.928  19.065  12.447
46349W        W17965   7.393  21.182   3.406
46350W        W17966  40.425  32.962   4.493
46351W        W17967  39.542   6.562   1.883
46352W        W17968  16.545   2.688   2.448
46353W        W17969  15.745  16.182  14.930
46354W        W17970  17.765   6.856   0.456
46355W        W17971  35.486  34.828   2.900
46356W        W17972   5.964   5.971  13.167
46357W        W17973  12.346  37.321  11.721
46358W        W17974  29.455  29.056  13.876
46359W        W17975  36.599   3.711  10.682
46360W        W17976  22.235  24.612  12.405
46361W        W17977  18.800  21.517   2.224
46362W        W17978   6.666  25.184  11.969
46363W        W17979   9.495  26.968  11.180
46364W        W17980  34.343  16.168  11.360
46365W        W17981  23.454   3.931  12.521
46366W        W17982  32.125   8.745  13.337
46367W        W17983  44.815  24.947  14.341
46368W        W17984   3.330  36.774  12.999
46369W        W17985  37.986  19.258   0.731
46370W        W17986  12.252   5.727  10.045
46371W        W17987  26.761   8.228  11.214
46372W        W17988  24.675  24.636  11.547
46373W        W17989  25.403   3.339   5.096
46374W        W17990  19.712  36.027  14.259
46375W        W17991  10.629   7.882  11.342
46376W        W17992  15.352  38.270   0.990
46377W        W17993   5.223  44.728  10.324
46378W        W17994  11.873  34.552  10.637
46379W        W17995   4.675  41.619  11.171
46380W        W17996  41.156  13.903   0.375
46381W        W17997  43.317  23.588  14.373
46382W        W17998  34.629   2.888  11.843
46383W        W17999  16.795   3.953   0.887
46384W        W18000  19.227   0.425   1.835
46385W        W18001   1.760  29.304   3.269
46386W        W18002  28.465  20.109  13.478
46387W        W18003  24.246  13.075  13.567
46388W        W18004   5.977  17.860   3.077
46389W        W18005  28.715  28.197   0.371
46390W        W18006   0.863  13.763   2.056
46391W        W18007   0.937  44.279   3.661
46392W        W18008  29.403   0.016   3.375
46393W        W18009  12.033  16.022  11.125
46394W        W18010  39.396  17.973   3.215
46395W        W18011   5.234  42.687   1.876
46396W        W18012  20.816  11.192  13.426
46397W        W18013  11.107  14.176  14.973
46398W        W18014  15.305  38.967  12.070
46399W        W18015   6.937   9.887  12.984
46400W        W18016   0.393  24.216  14.731
46401W        W18017  44.615  28.976   0.891
46402W        W18018  36.973   8.620   3.220
46403W        W18019  11.728  14.260   4.575
46404W        W18020  33.137  18.296   4.900
46405W        W18021  43.165  34.027  12.920
46406W        W18022  23.758   3.244   0.548
46407W        W18023  24.373  37.140   3.137
46408W        W18024  25.751  36.866   4.687
46409W        W18025   5.819  44.986  13.804
46410W        W18026  11.660   2.486  10.771
46411W        W18027   7.580  29.093   1.821
46412W        W18028  10.256  42.530  11.827
46413W        W18029  12.890  36.488  13.318
46414W        W18030  23.512  43.517   4.222
46415W        W18031  21.720  19.129  11.448
46416W        W18032  29.701   8.608   2.238
46417W        W18033  18.950  19.817  11.574
46418W        W18034  24.265  19.030  12.176
46419W        W18035   2.847  24.949  10.188
46420W        W18036  18.285  10.002  11.371
46421W        W18037   7.262  14.343   4.389
46422W        W18038  28.930   8.774   4.965
46423W        W18039   0.855   8.340   2.522
46424W        W18040  25.900  12.755  13.575
46425W        W18041  26.645  22.249   4.195
46426W        W18042  19.045  12.214  11.931
46427W        W18043  34.663  44.996   0.813
46428W        W18044  12.302   4.770  14.384
46429W        W18045  37.041  18.763   3.170
46430W        W18046   0.913  11.731   2.212
46431W        W18047   7.834   6.307  11.717
46432W        W18048   4.713  42.328  12.525
46433W        W18049   9.126  29.589   4.323
46434W        W18050  17.757  39.478  11.197
46435W        W18051   4.270  35.214  14.686
46436W        W18052  24.543  22.524  10.762
46437W        W18053  30.406  15.333   4.325
46438W        W18054   1.334  15.237  12.491
46439W        W18055  39.006  41.878   4.013
46440W        W18056  20.683  41.251   4.619
46441W        W18057  24.256  25.619   1.210
46442W        W18058  23.313   0.317  14.795
46443W        W18059  32.044  38.842   3.395
46444W        W18060  16.626  29.698  12.418
46445W        W18061  12.014   8.338  11.183
46446W        W18062   1.368   2.453  12.040
46447W        W18063  20.213  39.199   4.056
46448W        W18064  41.448   2.999  12.465
46449W        W18065   7.730   9.926   2.461
46450W        W18066  18.025  40.268  11.603
46451W        W18067  12.789  12.490   3.731
46452W        W18068  15.028  23.104  11.604
46453W        W18069  43.604   0.161   1.109
46454W        W18070   0.672  43.427  12.958
46455W        W18071  26.167  44.346   1.257
46456W        W18072  32.943  14.600   0.485
46457W        W18073   5.693  25.511   0.476
46458W        W18074  33.485   0.296  13.781
46459W        W18075  16.570  28.121  12.033
46460W        W18076  18.816  33.322   4.619
46461W        W18077  34.682   3.848   4.122
46462W        W18078  30.118  21.875  13.349
46463W        W18079  36.741  18.964   0.375
46464W        W18080  27.177  15.202   1.708
46465W        W18081  30.417  28.071   4.912
46466W        W18082  43.557  33.542  13.892
46467W        W18083  30.944  34.780  12.570
46468W        W18084  43.468  36.610  13.048
46469W        W18085  32.842  37.501   1.342
46470W        W18086  34.921  41.322   1.862
46471W        W18087  22.737  13.266  14.970
46472W        W18088  33.506  21.722  12.485
46473W        W18089  23.595   5.389   4.712
46474W        W18090  41.814  12.071   3.150
46475W        W18091  23.410  13.803   1.203
46476W        W18092   8.378  27.261  11.558
46477W        W18093  24.043  36.482  12.113
46478W        W18094   5.284  23.773   1.968
46479W        W18095  38.208  24.094  10.330
46480W        W18096  15.104  24.883   1.776
46481W        W18097  34.461  31.857  12.908
46482W        W18098  43.667  17.039  10.193
46483W        W18099  34.974  27.960  11.455
46484W        W18100  10.682   3.845  14.470
46485W        W18101  33.479  39.810  14.008
46486W        W18102  11.356  16.696  10.876
46487W        W18103  33.258  41.846  14.532
46488W        W18104  15.375  24.445  10.980
46489W        W18105  25.738  41.407  14.833
46490W        W18106  18.739  21.205   1.323
46491W        W18107  28.415  32.630   1.700
46492W        W18108  42.988  26.202  10.658
46493W        W18109   1.247  41.988   2.129
46494W        W18110  44.975   4.248   4.283
46495W        W18111  34.755   6.276   0.900
46496W        W18112  13.168  31.832  13.917
46497W        W18113   3.376  44.322   3.318
46498W        W18114  12.972  11.259   0.884
46499W        W18115  11.140  12.877  14.269
46500W        W18116  33.302  20.575   1.802
46501W        W18117  43.478  10.206  10.755
46502W        W18118  28.639   9.144   3.755
46503W        W18119  30.915  22.443   4.149
46504W        W18120   7.718   8.813   1.682
46505W        W18121   3.419  28.215   3.771
46506W        W18122   1.408   0.975   9.964
46507W        W18123  35.781  35.493   4.080
46508W        W18124   2.724   5.163  14.861
46509W        W18125   2.652  38.818  10.637
46510W        W18126  43.023  12.285   3.731
46511W        W18127  36.086  26.165   3.698
46512W        W18128  11.116  20.760   1.351
46513W        W18129   4.783  29.533   4.358
46514W        W18130   1.408  31.420  13.979
46515W        W18131  12.236   0.454  10.590
46516W        W18132  35.111   8.879   4.931
46517W        W18133   0.493   9.943  11.451
46518W        W18134  27.548  21.568  14.238
46519W        W18135  44.504  37.933   1.675
46520W        W18136  17.411  44.463  13.020
46521W        W18137  13.377  11.986  10.312
46522W        W18138  33.482   6.258   3.355
46523W        W18139  15.334  31.562  14.190
46524W        W18140  38.624  33.801  12.592
46525W        W18141  21.501  30.586  11.897
46526W        W18142  38.509  23.360   1.235
46527W        W18143   4.529  11.161  12.472
46528W        W18144  20.545   1.391   0.236
46529W        W18145   9.626  31.391  14.158
46530W        W18146   2.866  23.417  14.375
46531W        W18147  39.525  22.695   2.242
46532W        W18148  21.295  23.072  12.489
46533W        W18149  24.231  20.389  10.776
46534W        W18150  23.948  39.841  10.938
46535W        W18151  34.496  13.657   2.321
46536W        W18152  35.711  30.444   0.236
46537W        W18153  30.434  17.659  13.041
46538W        W18154  25.540  30.147   2.638
46539W        W18155  19.426   8.114   3.532
46540W        W18156  34.401  24.814  14.804
46541W        W18157  39.355  15.656  12.524
46542W        W18158  25.668  17.197  12.917
46543W        W18159  24.233  11.495   2.185
46544W        W18160   6.692  12.326   1.915
46545W        W18161  19.144  42.929   0.973
46546W        W18162  36.567  18.807   3.345
46547W        W18163  18.976   8.362   4.924
46548W        W18164  15.762   6.906  14.904
46549W        W18165  30.041   4.435   4.640
46550W        W18166   3.261  20.706   0.200
46551W        W18167  17.533  14.533   3.870
46552W        W18168  11.792   5.227  11.617
46553W        W18169  18.165  14.710   4.210
46554W        W18170   3.391  10.283  13.367
46555W        W18171  32.433  39.032   2.331
46556W        W18172  26.699   2.818  10.749
46557W        W18173  11.616  27.637   1.836
46558W        W18174  13.457   3.983   2.836
46559W        W18175  34.660  28.243  13.752
46560W        W18176  24.947  41.574   0.803
46561W        W18177  29.372  29.208  13.360
46562W        W18178   0.384  22.992   9.778
46563W        W18179  41.840   7.343   0.871
46564W        W18180  10.767  33.664  14.926
46565W        W18181  11.736  15.383  11.589
46566W        W18182  27.926  21.546   4.514
46567W        W18183   0.848  15.078  12.463
46568W        W18184  14.215  44.535   1.278
46569W        W18185   9.689  39.119   3.721
46570W        W18186  27.459  20.716   1.731
46571W        W18187  38.707  27.667  11.561
46572W        W18188   8.760  38.882  12.446
46573W        W18189   2.510  40.803   4.107
46574W        W18190  17.822  40.950  13.249
46575W        W18191   4.687   1.604  14.198
46576W        W18192  22.705   5.917   0.544
46577W        W18193  38.698  35.844  11.069
46578W        W18194  24.513  27.181  12.805
46579W        W18195  25.696  42.789  11.574
46580W        W18196  33.191  14.289   3.626
46581W        W18197  27.034  16.590  10.264
46582W        W18198  31.720  31.044  11.152
46583W        W18199  42.721  10.779  14.745
46584W        W18200  38.619  21.033  12.084
46585W        W18201  13.216   5.865  10.430
46586W        W18202  32.317   3.501   5.036
46587W        W18203  28.764  23.535  13.875
46588W        W18204  19.699  39.929   1.287
46589W        W18205  28.088  38.608  13.895
46590W        W18206  12.253  18.603  12.377
46591W        W18207   7.171  31.164   4.878
46592W        W18208   0.648  18.851  10.252
46593W        W18209  14.857  41.945  12.772
46594W        W18210  10.179  28.535   1.905
46595W        W18211  33.859  35.428   2.276
46596W        W18212  11.484  40.536  13.039
46597W        W18213   3.548   3.333  10.114
46598W        W18214  28.452  33.051  10.403
46599W        W18215  38.856  19.845   2.808
46600W        W18216  31.914  43.009   1.845
46601W        W18217   9.334  21.067   2.520
46602W        W18218  11.315  36.135  14.273
46603W        W18219   0.788  39.375  13.990
46604W        W18220  11.270   0.890   1.328
46605W        W18221  28.257  21.630   0.838
46606W        W18222  12.100   4.421  10.961
46607W        W18223   6.674  20.631   1.852
46608W        W18224  28.716  11.262  13.351
46609W        W18225   9.923  42.940   2.298
46610W        W18226  25.201   5.184  11.581
46611W        W18227   4.768  13.230  12.209
46612W        W18228  18.940  10.102   2.566
46613W        W18229   5.011  43.103  14.767
46614W        W18230  10.469  11.688  10.233
46615W        W18231  16.264   1.094  14.516
46616W        W18232  14.193   2.794   4.652
46617W        W18233  26.620  22.036   0.418
46618W        W18234   3.841  13.253  12.213
46619W        W18235  12.180  35.702  10.321
46620W        W18236   3.817  13.163  11.245
46621W        W18237  25.737  19.531   4.949
46622W        W18238  20.739  42.536   1.760
46623W        W18239  21.614  31.850  12.466
46624W        W18240  15.730   5.231   1.239
46625W        W18241  17.240   1.157  10.346
46626W        W18242  15.593  15.852   1.178
46627W        W18243  24.906   4.643   3.856
46628W        W18244  10.215  33.096   0.420
46629W        W18245  34.418  21.225   2.307
46630W        W18246  37.088  18.390  14.260
46631W        W18247  17.323  42.095   3.099
46632W        W18248   6.266  30.232   2.814
46633W        W18249  27.087  20.217   0.406
46634W        W18250  44.598  44.252   3.538
46635W        W18251  31.514   3.405  13.167
46636W        W18252   8.731  19.602  14.059
46637W        W18253  29.931   8.718  10.595
46638W        W18254  11.016  17.471  12.996
46639W        W18255   1.054  36.531  13.069
46640W        W18256  39.646   6.217  12.921
46641W        W18257  28.444  34.977  12.018
46642W        W18258   8.119  34.986   2.753
46643W        W18259  33.341  35.378   2.337
46644W        W18260  41.680  19.358   1.722
46645W        W18261  16.772  29.563  13.326
46646W        W18262   9.861  35.609  11.721
46647W        W18263  23.635  37.757  13.878
46648W        W18264  34.766  21.477  13.423
46649W        W18265  14.218  43.839   0.854
46650W        W18266  30.615  35.572  10.688
46651W        W18267  44.054   1.362   0.881
46652W        W18268  10.585   8.275   0.973
46653W        W18269  22.168  29.891  11.899
46654W        W18270  28.027   3.407   1.336
46655W        W18271  27.466  13.265  10.575
46656W        W18272  32.442  43.746  10.288
46657W        W18273  20.250  29.485   1.888
46658W        W18274  42.556   5.048  13.335
46659W        W18275  39.297   7.696   1.669
46660W        W18276  21.757  42.241  12.925
46661W        W18277  34.504  17.733   1.682
46662W        W18278  41.207  14.110   3.224
46663W        W18279  23.016  41.911   1.305
46664W        W18280  35.276   1.934   0.012
46665W        W18281  13.331   2.215   1.341
46666W        W18282   1.877   1.314   4.261
46667W        W18283  34.838  20.632   0.804
46668W        W18284  18.953  43.798   1.264
46669W        W18285  26.116  11.743   3.906
46670W        W18286   9.432  40.939   1.951
46671W        W18287  42.350  22.822   0.091
46672W        W18288  20.816   1.610  14.841
46673W        W18289   6.705  11.368   0.393
46674W        W18290   7.819  30.429  14.405
46675W        W18291  42.457  22.731  12.586
46676W        W18292   7.399  29.639   1.804
46677W        W18293  12.599  25.743   0.285
46678W        W18294  10.195  39.880  12.060
46679W        W18295  44.317  31.581   0.832
46680W        W18296   7.703  26.722  12.579
46681W        W18297  31.950  21.803   3.899
46682W        W18298  13.534  10.887   1.000
46683W        W18299  21.046   0.696  11.631
46684W        W18300  19.159  42.505   0.367
46685W        W18301   4.424   7.814   1.792
46686W        W18302  23.017   0.878   0.631
46687W        W18303  14.676  29.443   1.938
46688W        W18304  36.281  10.725  14.957
46689W        W18305  39.489  18.484   3.120
46690W        W18306   9.891  10.226   1.484
46691W        W18307  13.134  23.124  13.088
46692W        W18308  36.338   1.948   2.306
46693W        W18309  13.614  39.813   0.479
46694W        W18310  40.908  25.738  11.705
46695W        W18311  40.046  37.836  11.835
46696W        W18312  43.862   9.191  13.554
46697W        W18313   5.899  24.938  14.022
46698W        W18314  22.008  13.159   4.413
46699W        W18315   9.259   8.955  12.924
46700W        W18316   8.748  36.840  13.727
46701W        W18317   5.725   5.126   4.176
46702W        W18318  25.682  15.342  12.397
46703W        W18319   7.148  23.414   2.698
46704W        W18320   6.933  43.677  11.165
46705W        W18321  28.882  34.914  11.639
46706W        W18322   8.692  41.833   1.360
46707W        W18323  17.149  36.822   2.129
46708W        W18324   9.991   6.133   5.033
46709W        W18325  19.756  36.599  12.276
46710W        W18326  38.365  36.345   2.166
46711W        W18327  19.816  14.881   4.577
46712W        W18328  24.070  33.556   3.921
46713W        W18329  44.543   6.424   4.737
46714W        W18330  13.283  39.343  10.589
46715W        W18331   2.869  14.171  11.896
46716W        W18332   6.767  15.618  10.564
46717W        W18333  28.450   3.940   3.308
46718W        W18334  35.526  35.665  13.773
46719W        W18335  31.967   0.813   0.341
46720W        W18336  43.437  37.712  11.043
46721W        W18337   8.692  32.887  14.884
46722W        W18338  32.427  41.024   2.426
46723W        W18339   0.551  14.122   3.271
46724W        W18340   1.718  18.707   0.182
46725W        W18341  24.581  37.654   4.250
46726W        W18342  37.990  30.397   4.088
46727W        W18343  29.415  34.459  13.757
46728W        W18344  27.552   7.418  13.323
46729W        W18345  12.936  44.292   3.293
46730W        W18346  19.684  38.970  13.045
46731W        W18347   2.553  41.448  12.897
46732W        W18348   9.770   2.363  14.838
46733W        W18349  43.311  22.594  12.361
46734W        W18350  44.434  20.068   4.732
46735W        W18351  42.323   6.121   3.274
46736W        W18352  10.223   1.395  13.312
46737W        W18353  17.876  38.354  14.632
46738W        W18354  34.667  44.227   2.311
46739W        W18355  25.206  43.896  11.708
46740W        W18356  43.825  32.950  11.538
46741W        W18357  10.700  26.582  14.775
46742W        W18358  18.182  33.393  13.258
46743W        W18359   8.710   4.447   1.199
46744W        W18360  39.123   0.428   4.300
46745W        W18361   3.350  27.203  11.233
46746W        W18362  41.807  14.533  11.112
46747W        W18363  38.764  18.045  11.210
46748W        W18364   6.827   7.784  11.800
46749W        W18365   2.148  17.385   5.068
46750W        W18366   3.963  16.804  11.973
46751W        W18367  14.882  30.446   1.865
46752W        W18368   2.620  26.694   2.331
46753W        W18369  31.059  42.326   2.711
46754W        W18370   8.427  25.522   4.182
46755W        W18371  13.674  18.579  10.775
46756W        W18372  38.997  37.079  12.548
46757W        W18373  29.228   8.914   2.308
46758W        W18374  17.203  16.026   1.941
46759W        W18375  14.247  24.241  11.606
46760W        W18376  40.744   7.377   1.940
46761W        W18377  15.011  22.176   3.208
46762W        W18378  42.136  34.294   1.363
46763W        W18379  24.071  29.458   2.162
46764W        W18380  33.040  11.117  12.078
46765W        W18381  17.935  29.551   0.234
46766W        W18382  15.268   7.877  10.604
46767W        W18383  41.381  35.992   1.178
46768W        W18384  20.134  23.439   1.478
46769W        W18385  25.387  37.198  11.122
46770W        W18386  16.835  44.905   5.026
46771W        W18387  34.547   7.248  14.922
46772W        W18388  29.971  18.972  12.159
46773W        W18389  10.274  28.351   4.379
46774W        W18390  24.214  22.082   3.206
46775W        W18391  13.506  20.787   1.768
46776W        W18392  10.117  44.137   3.285
46777W        W18393  17.260  17.341   2.409
46778W        W18394  35.882   8.738   4.444
46779W        W18395   7.376  12.014   2.539
46780W        W18396  18.094  37.755   2.407
46781W        W18397  20.157  44.540  11.894
46782W        W18398  23.449  28.507  11.417
46783W        W18399  37.510   7.495  13.527
46784W        W18400  29.918  26.918  11.232
46785W        W18401  24.512  27.715   2.589
46786W        W18402  18.123   3.180   0.835
46787W        W18403  16.581  38.134   2.265
46788W        W18404  14.595  26.918  12.460
46789W        W18405  40.500  18.612  10.544
46790W        W18406  40.356   7.269  14.024
46791W        W18407  36.409  41.504   4.050
46792W        W18408  25.999  24.006   3.023
46793W        W18409  16.310  14.716   1.194
46794W        W18410  38.552  11.860  10.694
46795W        W18411  29.108  26.172  11.761
46796W        W18412  25.698   7.829  10.690
46797W        W18413  41.331  17.813   0.702
46798W        W18414  28.005  39.798   4.614
46799W        W18415  37.454  12.360  11.504
46800W        W18416   2.290  43.285  13.738
46801W        W18417   9.078  18.160   2.342
46802W        W18418  35.570   2.340   0.860
46803W        W18419  38.842  38.791  12.029
46804W        W18420  15.579  16.685  12.525
46805W        W18421  11.797  22.113   2.726
46806W        W18422  31.658  22.168   2.100
46807W        W18423  21.562  38.764  11.122
46808W        W18424  15.345   1.709  11.880
46809W        W18425  35.622  25.329   4.742
46810W        W18426   1.519  18.550   2.740
46811W        W18427   0.554  23.496  10.624
46812W        W18428  25.740  42.043   2.414
46813W        W18429  35.961  33.041  10.972
46814W        W18430  38.792   5.743   1.229
46815W        W18431   2.245  32.830  11.892
46816W        W18432   1.693   0.810   3.335
46817W        W18433   2.399  38.955   2.391
46818W        W18434  37.504  39.218  11.206
46819W        W18435  17.282  28.423   3.243
46820W        W18436   2.366  25.145   3.606
46821W        W18437  35.851   3.418   4.591
46822W        W18438   1.694  36.180  13.801
46823W        W18439  21.047  22.050  11.090
46824W        W18440   1.863  16.541   3.392
46825W        W18441   8.964  38.434  10.271
46826W        W18442  34.455  29.872  12.092
46827W        W18443   3.816  34.405   1.125
46828W        W18444  38.031  30.525  14.460
46829W        W18445   6.098  42.862  10.522
46830W        W18446   4.794  24.021  12.802
46831W        W18447  16.312  26.071   1.646
46832W        W18448   6.195  15.776   2.491
46833W        W18449   8.213  23.680   1.460
46834W        W18450  31.969  28.705   0.991
46835W        W18451  25.518  27.089  11.375
46836W        W18452   2.266  41.578  14.334
46837W        W18453  44.798  24.615  11.231
46838W        W18454  18.130  37.203   2.622
46839W        W18455  32.172  27.637   2.429
46840W        W18456  42.918  22.566   3.564
46841W        W18457  18.554  28.205  10.130
46842W        W18458  10.236  42.622   1.639
46843W        W18459  20.167  24.049  13.567
46844W        W18460  13.266   4.493   5.070
46845W        W18461  25.919   7.677  11.150
46846W        W18462   4.827  28.798  10.932
46847W        W18463  31.676  24.400  11.122
46848W        W18464  17.263  30.107  11.424
46849W        W18465   3.867  40.582  13.871
46850W        W18466  41.449  40.821  13.568
46851W        W18467  14.284  32.152  11.642
46852W        W18468  39.413  41.431  11.087
46853W        W18469  28.531  39.370  14.768
46854W        W18470   3.814  17.596  13.376
46855W        W18471  28.214  38.326  13.241
46856W        W18472   3.842  19.429  12.571
46857W        W18473  37.396   0.920  13.528
46858W        W18474  33.136  33.060   3.631
46859W        W18475  24.712  11.512   2.385
46860W        W18476   8.518   9.762  10.186
46861W        W18477  39.493  20.709  14.621
46862W        W18478  12.917  37.247   4.528
46863W        W18479  41.421  27.202  13.041
46864W        W18480  16.364  34.293  11.582
46865W        W18481  15.689  34.472   0.286
46866W        W18482  41.972  28.400   0.485
46867W        W18483  44.496   6.499   4.149
46868W        W18484   4.966  35.354  13.947
46869W        W18485  27.161   3.514  14.564
46870W        W18486  32.450  36.575   4.249
46871W        W18487  41.980   7.202  11.637
46872W        W18488  44.557  24.039  13.443
46873W        W18489  41.577   9.675   1.340
46874W        W18490  27.083  29.744  13.788
46875W        W18491   4.852  19.833   0.853
46876W        W18492  36.805   1.004  14.126
46877W        W18493  17.184   2.713  11.030
46878W        W18494  26.963  10.961   0.354
46879W        W18495   2.240  21.088  10.969
46880W        W18496  20.307   1.771  14.832
46881W        W18497  28.444   9.366   2.762
46882W        W18498  10.684  13.351   0.860
46883W        W18499  30.473  14.272   3.343
46884W        W18500   0.299  22.033   3.898
46885W        W18501   7.618  44.524   0.446
46886W        W18502  26.191  23.939  13.358
46887W        W18503  20.853   1.707  13.921
46888W        W18504  25.232  42.292  11.134
46889W        W18505  27.725  10.816   0.682
46890W        W18506  41.998  33.093   2.728
46891W        W18507  32.051  29.410   4.806
46892W        W18508  12.807  24.731  10.714
46893W        W18509  27.032  42.981   2.772
46894W        W18510  10.861  41.557   4.323
46895W        W18511  29.908  18.114   1.344
46896W        W18512  39.977   8.749   3.930
46897W        W18513  25.957  16.359   4.202
46898W        W18514  28.524  24.992   3.859
46899W        W18515   0.828   6.316   3.100
46900W        W18516  13.622   0.961   3.675
46901W        W18517  22.764  27.102  10.799
46902W        W18518  26.655  41.000  12.515
46903W        W18519  16.103  24.105  10.188
46904W        W18520  19.214  32.348   0.764
46905W        W18521  11.214  14.198   2.743
46906W        W18522   6.877  24.187   2.052
46907W        W18523   9.686  15.067   3.368
46908W        W18524  31.704  43.800   3.352
46909W        W18525  18.020  23.811  12.036
46910W        W18526  13.074  28.660  11.349
46911W        W18527  36.657  42.248  14.421
46912W        W18528  36.940  10.490   3.851
46913W        W18529  29.092   2.905   4.199
46914W        W18530  28.122  14.382   1.237
46915W        W18531   3.813  43.328   0.806
46916W        W18532  37.969  37.579   0.381
46917W        W18533  42.789  30.104   4.250
46918W        W18534  13.403   0.060   1.888
46919W        W18535  42.312  17.235   2.668
46920W        W18536  42.856   2.944   1.889
46921W        W18537  43.710   9.790  13.833
46922W        W18538  15.335  14.123  10.973
46923W        W18539  28.395  18.806  12.656
46924W        W18540  27.620  34.898  14.816
46925W        W18541  23.190  26.151  14.109
46926W        W18542  16.564  23.794  13.482
46927W        W18543  42.048   8.802   2.472
46928W        W18544  29.420  34.414  12.377
46929W        W18545  22.120  40.170  11.111
46930W        W18546  32.005  34.571  11.923
46931W        W18547  16.893   0.653   0.215
46932W        W18548  15.665   5.585  14.575
46933W        W18549   9.273  31.816  14.342
46934W        W18550  18.085   2.996   3.786
46935W        W18551  17.590  35.528   1.986
46936W        W18552  40.129  24.496   4.445
46937W        W18553  21.857  26.595   4.807
46938W        W18554  24.999  40.907  11.486
46939W        W18555  39.820  31.947  13.154
46940W        W18556  41.559  43.524   3.494
46941W        W18557  43.346   6.686   1.794
46942W        W18558  33.166  33.457   4.600
46943W        W18559  11.163  40.762  12.575
46944W        W18560  15.804  33.482   4.381
46945W        W18561   1.653  44.868   4.784
46946W        W18562  35.046  27.493  13.790
46947W        W18563  27.015  38.649   3.408
46948W        W18564  12.669  24.205  12.420
46949W        W18565   0.777  33.784   3.170
46950W        W18566   3.085   4.918  13.222
46951W        W18567  31.305   1.729  12.934
46952W        W18568  28.113  20.959  10.701
46953W        W18569  14.227  19.019   1.823
46954W        W18570  35.776   8.167   0.023
46955W        W18571  14.845  26.056   0.884
46956W        W18572  33.914  20.483  13.403
46957W        W18573  38.806  20.331   3.648
46958W        W18574  16.341  14.115  11.738
46959W        W18575   3.386  12.264  12.610
46960W        W18576   3.838  43.857  12.044
46961W        W18577  24.082  24.138   4.997
46962W        W18578   8.947  17.725   1.300
46963W        W18579  13.411  38.403  12.828
46964W        W18580  43.188   6.456   3.113
46965W        W18581  35.400   2.167  11.676
46966W        W18582  36.917  41.220   4.002
46967W        W18583  42.547  14.974  12.386
46968W        W18584  30.712  27.483   4.931
46969W        W18585  40.995   6.788   2.718
46970W        W18586  28.091  43.259   0.843
46971W        W18587  10.950  14.257   2.089
46972W        W18588  30.476  38.801  11.133
46973W        W18589  12.384  26.116  12.170
46974W        W18590  41.499  21.490   3.243
46975W        W18591   2.225   7.593  11.085
46976W        W18592  33.195   8.280   0.811
46977W        W18593   6.963  11.257   4.700
46978W        W18594  25.562  42.172  14.366
46979W        W18595  22.095   9.148  14.297
46980W        W18596   3.943  11.201  12.442
46981W        W18597  17.136  29.941   3.254
46982W        W18598  25.726  37.017  14.486
46983W        W18599  40.833   2.463   2.368
46984W        W18600  20.065  39.943   4.665
46985W        W18601  26.374  23.761   4.158
46986W        W18602  19.485   9.822   1.969
46987W        W18603   7.985   6.733   3.763
46988W        W18604   7.446  27.931  10.867
46989W        W18605  15.836  38.900  12.947
46990W        W18606   7.978  42.879  11.156
46991W        W18607   1.965  12.733   1.224
46992W        W18608   5.382  10.893  14.836
46993W        W18609  16.676  23.761   2.807
46994W        W18610  34.857  44.786   2.642
46995W        W18611  39.904   9.789   0.358
46996W        W18612  33.265  34.347  14.270
46997W        W18613  18.829  35.076   3.847
46998W        W18614  37.170  12.168  13.976
46999W        W18615  12.796   6.555   0.540
47000W        W18616  26.446   4.822   0.400
47001W        W18617  31.623  36.413  10.514
47002W        W18618  40.809  13.136   1.730
47003W        W18619  43.411  30.379  14.344
47004W        W18620  28.737   6.138  13.903
47005W        W18621  20.089  29.452   0.929
47006W        W18622  19.623  29.005   4.779
47007W        W18623  28.152   6.307  13.145
47008W        W18624  22.131   3.985   1.818
47009W        W18625  44.106  34.975  14.496
47010W        W18626  16.337   2.252  13.542
47011W        W18627  28.422   9.092  11.568
47012W        W18628  44.745   3.230  13.440
47013W        W18629  23.711   4.515   2.212
47014W        W18630  37.293  29.662   1.200
47015W        W18631  12.622  10.369  11.589
47016W        W18632  31.965   1.332   2.768
47017W        W18633  16.238  39.750  13.279
47018W        W18634  38.208  13.856   1.906
47019W        W18635   8.691  18.760   0.954
47020W        W18636  23.055  13.258   4.132
47021W        W18637  26.827  23.686  14.171
47022W        W18638  17.250  26.862  11.923
47023W        W18639  16.498   0.189   3.840
47024W        W18640  43.119  36.405   1.358
47025W        W18641  34.205  37.284   3.906
47026W        W18642  22.127   7.800   0.734
47027W        W18643  10.997  38.376   4.020
47028W        W18644   2.815  27.278   4.923
47029W        W18645  23.570  34.066  11.600
47030W        W18646  36.486   5.859   1.440
47031W        W18647   5.792  30.418  12.871
47032W        W18648   0.498  42.264  12.285
47033W        W18649  13.925  11.802  12.852
47034W        W18650  17.688  20.274   1.822
47035W        W18651  24.527  17.969   3.371
47036W        W18652  20.074  37.918  13.579
47037W        W18653  34.817  36.176   2.796
47038W        W18654  41.059  35.065   5.002
47039W        W18655   3.359  28.461  13.155
47040W        W18656   7.889   9.766  11.683
47041W        W18657  21.746  37.439  14.444
47042W        W18658  32.407  32.689  14.449
47043W        W18659  32.100  43.066  14.702
47044W        W18660  25.088  15.295  13.776
47045W        W18661  20.079  30.040   0.449
47046W        W18662  32.067  27.495   1.592
47047W        W18663  22.066  16.674  11.655
47048W        W18664  23.598   5.718  12.007
47049W        W18665   5.977  34.686   2.982
47050W        W18666   0.271  22.296   1.798
47051W        W18667   0.462  33.477   0.713
47052W        W18668   5.394   8.312  12.290
47053W        W18669  27.345   5.668   1.815
47054W        W18670  16.314  23.445  13.189
47055W        W18671  41.456  31.256   3.387
47056W        W18672  12.715   6.231   0.963
47057W        W18673  39.426  18.757  11.175
47058W        W18674  33.612  19.215  11.149
47059W        W18675  11.699  30.815  11.978
47060W        W18676  33.855  41.143  12.953
47061W        W18677   4.092   8.619   0.417
47062W        W18678  22.256  34.690  12.191
47063W        W18679  25.453  12.855  13.298
47064W        W18680  44.360  35.843  12.553
47065W        W18681   5.228   4.238   2.100
47066W        W18682  26.521  42.754   3.827
47067W        W18683   5.896  21.672   2.155
47068W        W18684   2.969  43.672   3.679
47069W        W18685  21.065   6.509  14.887
47070W        W18686  23.140  24.014  12.696
47071W        W18687  27.132   2.312   0.525
47072W        W18688   3.958  39.488  10.712
47073W        W18689  16.651  29.685  10.647
47074W        W18690   3.911  26.234  14.897
47075W        W18691  40.831  30.030  14.721
47076W        W18692  40.137  36.110  14.370
47077W        W18693   9.689   7.924  12.954
47078W        W18694  39.593   2.203  12.549
47079W        W18695  23.630   5.387   3.631
47080W        W18696  30.995  24.117   0.037
47081W        W18697  44.203  15.675   2.627
47082W        W18698  38.492  12.936   1.714
47083W        W18699  18.071   0.362   1.280
47084W        W18700   9.200  35.625  12.498
47085W        W18701  16.861  44.381   1.398
47086W        W18702  43.882  21.241  14.606
47087W        W18703  43.001   7.859  12.994
47088W        W18704  28.997   3.444  10.548
47089W        W18705   3.286  44.798   2.371
47090W        W18706  23.587  36.187   4.689
47091W        W18707  34.996   3.399   3.173
47092W        W18708  22.779  43.400   0.006
47093W        W18709  25.592  44.277  11.581
47094W        W18710  24.125  37.896   4.151
47095W        W18711  39.515  33.891   1.646
47096W        W18712  44.006  36.363  13.362
47097W        W18713  10.127   2.882   1.953
47098W        W18714  34.434  44.807   1.249
47099W        W18715   6.096  38.820  11.183
47100W        W18716  14.059  41.549  14.082
47101W        W18717  13.311   2.783  11.045
47102W        W18718  28.447  32.943  14.703
47103W        W18719  11.839  35.896   1.414
47104W        W18720  26.849   7.265  13.697
47105W        W18721  16.677   5.867  11.067
47106W        W18722  39.336  12.249  14.537
47107W        W18723  12.571  41.944  14.882
47108W        W18724   0.881  13.378  13.939
47109W        W18725   4.948  22.247  13.269
47110W        W18726  32.654   6.819   2.271
47111W        W18727  19.607  14.296  11.166
47112W        W18728  44.321   7.993   2.384
47113W        W18729  25.580  10.907  14.977
47114W        W18730  12.903  43.459  12.039
47115W        W18731  43.812  35.575   3.826
47116W        W18732  40.755  18.719   1.391
47117W        W18733  30.879  41.032  12.618
47118W        W18734   2.309  43.248   5.436
47119W        W18735  19.514  11.108   1.744
47120W        W18736  44.358   4.398   1.027
47121W        W18737   7.222   3.746  13.470
47122W        W18738  35.590  32.992  11.548
47123W        W18739  28.511  36.367  12.400
47124W        W18740  14.704  23.897  11.452
47125W        W18741  38.570  22.127  11.159
47126W        W18742   6.759  30.395  12.125
47127W        W18743  40.135  25.125  12.087
47128W        W18744   4.900   1.755  11.084
47129W        W18745  24.058   9.804  11.034
47130W        W18746  20.012   8.123   3.254
47131W        W18747  27.319  27.323  12.818
47132W        W18748  13.794  16.793  11.939
47133W        W18749  13.638  44.851  13.805
47134W        W18750  27.436  36.670   1.773
47135W        W18751   3.033  41.575  13.772
47136W        W18752  14.177   9.254   3.887
47137W        W18753   8.178  24.273  11.602
47138W        W18754  18.480  19.656   2.522
47139W        W18755  33.092  15.181   1.837
47140W        W18756  12.177  10.214   2.014
47141W        W18757   2.389  28.725  11.468
47142W        W18758   0.337  26.175  12.353
47143W        W18759  28.501   1.457   0.464
47144W        W18760  22.862  42.474   4.289
47145W        W18761   3.843  43.955   1.604
47146W        W18762  36.565   7.965  14.530
47147W        W18763   3.935  39.311  12.620
47148W        W18764  21.123  27.069  14.978
47149W        W18765  13.183  30.963  10.931
47150W        W18766   7.803  27.448  11.419
47151W        W18767   6.305  44.882   0.728
47152W        W18768  17.732  16.823   4.569
47153W        W18769  12.666  43.136  13.393
47154W        W18770  24.311  44.948  11.400
47155W        W18771  24.439  35.064   0.457
47156W        W18772   6.581  15.262  12.381
47157W        W18773  29.507   2.881  13.755
47158W        W18774  30.559  22.714   3.048
47159W        W18775  42.791  37.879   2.672
47160W        W18776   2.750  33.766  13.208
47161W        W18777  41.948  43.803  11.468
47162W        W18778  44.263  25.185   4.111
47163W        W18779  42.992  15.126  13.509
47164W        W18780  26.925  30.383   0.549
47165W        W18781  31.035  22.597  14.898
47166W        W18782  16.617  40.367  14.375
47167W        W18783  22.374  19.655   4.479
47168W        W18784  10.201  26.622   3.218
47169W        W18785   4.283   6.706   0.361
47170W        W18786   1.297  37.053   3.143
47171W        W18787  28.069  19.142  12.030
47172W        W18788  28.186  15.052   4.834
47173W        W18789  28.525  44.256   1.255
47174W        W18790   3.391  10.968   3.402
47175W        W18791  25.949  15.381   0.346
47176W        W18792  16.365   8.820   4.244
47177W        W18793  28.603  15.316   5.042
47178W        W18794  24.642  13.171   3.238
47179W        W18795  21.011  30.184   0.304
47180W        W18796   6.776  21.251  11.045
47181W        W18797   2.414  18.181  13.326
47182W        W18798  20.172  17.696   4.950
47183W        W18799  41.121   4.788   4.670
47184W        W18800  23.663  40.918  10.557
47185W        W18801  12.274   2.332   3.487
47186W        W18802  43.497  39.261  13.481
47187W        W18803  14.551  39.515  11.024
47188W        W18804  30.863  17.475   2.338
47189W        W18805  34.377  39.871  13.583
47190W        W18806  39.851   9.116   2.378
47191W        W18807  44.027   4.229   4.138
47192W        W18808  27.940  31.514   3.757
47193W        W18809  10.433   3.235  12.393
47194W        W18810   2.548  22.214   2.894
47195W        W18811  41.353   7.200  14.998
47196W        W18812  33.190  38.064   2.811
47197W        W18813  44.634  21.620   1.579
47198W        W18814  32.933  21.756   1.250
47199W        W18815  21.305  26.696   3.673
47200W        W18816  28.416  38.850   4.401
47201W        W18817  33.980  44.559   1.312
47202W        W18818   4.772  15.450   4.967
47203W        W18819  35.008  28.937  10.523
47204W        W18820  29.937  10.734  10.598
47205W        W18821  28.467  11.577  12.943
47206W        W18822  32.635   0.229  12.171
47207W        W18823   4.970  15.587   0.283
47208W        W18824  22.543  22.656  13.627
47209W        W18825  43.550  30.103   0.319
47210W        W18826  12.080  30.985  10.570
47211W        W18827   9.136  28.976  10.307
47212W        W18828   9.178  19.760  11.300
47213W        W18829  32.937   0.969  12.845
47214W        W18830  35.853  41.347  12.815
47215W        W18831   5.770  16.728  10.657
47216W        W18832  21.156  35.059  13.167
47217W        W18833  36.769  36.484   0.676
47218W        W18834  20.145  41.059   0.760
47219W        W18835  15.793   6.162  10.440
47220W        W18836   5.757  11.438   4.636
47221W        W18837  16.530  27.179  11.233
47222W        W18838  41.951   1.159  12.567
47223W        W18839   6.622   6.484  12.456
47224W        W18840  14.763  44.749  13.962
47225W        W18841  18.550  35.994  11.554
47226W        W18842  32.535  19.641   1.276
47227W        W18843  22.109  20.536   0.457
47228W        W18844  32.186   2.212   1.722
47229W        W18845  36.757  32.876  13.763
47230W        W18846  22.748  27.717  13.137
47231W        W18847   3.274  33.100   3.830
47232W        W18848   6.447  32.005  11.190
47233W        W18849   4.947  29.649   3.356
47234W        W18850  24.254  14.145   4.567
47235W        W18851  42.960  15.588   0.432
47236W        W18852  39.064  21.809  13.410
47237W        W18853  20.493  28.949  11.266
47238W        W18854  35.524  28.963   1.241
47239W        W18855   6.241  21.235   1.350
47240W        W18856  42.259  36.913  14.508
47241W        W18857  18.054  37.219  14.951
47242W        W18858  16.748  26.130   2.421
47243W        W18859  35.917  12.653   1.083
47244W        W18860  20.557  43.323   3.325
47245W        W18861  24.478  41.568  12.110
47246W        W18862   2.468  32.364  14.221
47247W        W18863  15.660  44.392   0.799
47248W        W18864   0.473  38.384  14.005
47249W        W18865  27.464  19.844   1.610
47250W        W18866  17.668  21.143   4.184
47251W        W18867  35.535  25.400   0.007
47252W        W18868  28.815  33.907   2.241
47253W        W18869  39.998  37.488  12.199
47254W        W18870  19.080  16.727  14.488
47255W        W18871  43.798   6.862  11.160
47256W        W18872   0.508  21.014   3.156
47257W        W18873  12.932   6.123   0.247
47258W        W18874  18.244  33.441  10.409
47259W        W18875  41.013  32.325   4.817
47260W        W18876  19.127  21.758  13.361
47261W        W18877  14.838  32.594   4.341
47262W        W18878  33.160   1.788   1.871
47263W        W18879  17.836  40.299  12.895
47264W        W18880  18.806   5.417  10.336
47265W        W18881   5.306  17.144   3.854
47266W        W18882   6.309  36.979   2.753
47267W        W18883  40.385  30.401   3.168
47268W        W18884  32.127  15.914   3.655
47269W        W18885   8.509   3.461  13.917
47270W        W18886  36.108   8.826  14.676
47271W        W18887  11.748  43.759   0.392
47272W        W18888  32.967   9.921   2.893
47273W        W18889  33.212  26.673   1.397
47274W        W18890  23.558  16.594   2.336
47275W        W18891  21.504  17.752  14.355
47276W        W18892  27.458   9.127  11.591
47277W        W18893   1.198  28.719  14.036
47278W        W18894   7.428   3.438  13.811
47279W        W18895  19.552  31.541  11.913
47280W        W18896  22.217  28.232   4.570
47281W        W18897  41.505   0.015   0.957
47282W        W18898  10.115  36.900  11.500
47283W        W18899  42.440  19.426   3.777
47284W        W18900   9.068   8.345  11.543
47285W        W18901  17.482  22.446  12.082
47286W        W18902  37.130  25.692   2.175
47287W        W18903  24.588  42.061   0.269
47288W        W18904  20.600   3.394  11.561
47289W        W18905   0.367  15.305  10.544
47290W        W18906  28.189  37.577  10.443
47291W        W18907  35.109  26.642   0.917
47292W        W18908  23.328  26.479   4.608
47293W        W18909  14.425  12.113  11.110
47294W        W18910  27.859  23.820  13.914
47295W        W18911  33.160   2.047  11.590
47296W        W18912   0.566  30.432  12.714
47297W        W18913  16.719  22.248   2.734
47298W        W18914  26.723  34.885  12.648
47299W        W18915  29.465  21.213   4.525
47300W        W18916  35.488  25.929   3.090
47301W        W18917   2.745  39.896   1.645
47302W        W18918   0.886   4.378   1.849
47303W        W18919  34.878  27.859  14.522
47304W        W18920  36.832   4.726   4.095
47305W        W18921  19.136  36.040  11.612
47306W        W18922  44.202  29.028   5.061
47307W        W18923  16.332   0.023   0.974
47308W        W18924  28.394  40.393  14.974
47309W        W18925  11.353  22.468   5.042
47310W        W18926  22.974  31.582   1.869
47311W        W18927  33.555  12.070   2.280
47312W        W18928  44.587  34.573   5.142
47313W        W18929  39.014  21.222   2.551
47314W        W18930   9.725   5.382  11.926
47315W        W18931  35.530   4.165   3.155
47316W        W18932  42.820  42.240  11.510
47317W        W18933  32.606  44.671   2.478
47318W        W18934  10.916  33.969   0.916
47319W        W18935  15.628  30.233  14.362
47320W        W18936  36.217  25.693   0.297
47321W        W18937   5.855  33.397   2.876
47322W        W18938  36.994  38.682   1.915
47323W        W18939  41.745   7.072  12.616
47324W        W18940  23.549  28.197  13.953
47325W        W18941  22.029  20.672   2.691
47326W        W18942  14.178  12.271   3.881
47327W        W18943  26.945  25.476  13.061
47328W        W18944   6.453  34.315  11.182
47329W        W18945  21.341   5.995  10.053
47330W        W18946  31.205  10.546  13.484
47331W        W18947  22.926  43.069  12.349
47332W        W18948  32.875  26.076   0.314
47333W        W18949   1.785   7.187  13.953
47334W        W18950  35.905   4.236  12.103
47335W        W18951  11.258  20.017  10.472
47336W        W18952  30.079  37.121  10.891
47337W        W18953  23.654  25.208  11.178
47338W        W18954  20.204   8.455  12.392
47339W        W18955  17.278  41.480   5.068
47340W        W18956  10.876   4.537   0.103
47341W        W18957   1.396  12.046  14.958
47342W        W18958  15.089   3.224  11.786
47343W        W18959  19.510  23.006  13.682
47344W        W18960   2.669  22.617   0.941
47345W        W18961  37.896  19.729   1.504
47346W        W18962  10.579  40.294   3.150
47347W        W18963   8.369  18.280  12.032
47348W        W18964   3.725  29.482   1.902
47349W        W18965  26.576  38.535  12.622
47350W        W18966   5.014  39.993   2.754
47351W        W18967   8.843  40.873   4.506
47352W        W18968   5.810  30.326  14.007
47353W        W18969  42.320   2.643   0.588
47354W        W18970  44.891  10.415   4.270
47355W        W18971  25.087   3.957   2.047
47356W        W18972  32.368  43.288  14.295
47357W        W18973  13.074  18.292   1.492
47358W        W18974   6.944  22.195  11.279
47359W        W18975  23.862   1.808  13.813
47360W        W18976  26.219  15.324   1.727
47361W        W18977  42.251  37.650  12.925
47362W        W18978  38.541  40.161  14.263
47363W        W18979  16.411  32.116  11.509
47364W        W18980  33.860  21.086  11.160
47365W        W18981  24.426  10.818  11.448
47366W        W18982  41.556  27.473  14.383
47367W        W18983  16.275   8.481   4.801
47368W        W18984   5.214  23.265   1.866
47369W        W18985  13.681  39.527   4.962
47370W        W18986   6.642  13.400  12.434
47371W        W18987   2.299  14.683  14.904
47372W        W18988  14.777  36.060  11.600
47373W        W18989  20.794  38.506  10.706
47374W        W18990  37.740  24.725  11.598
47375W        W18991  32.127  38.494  14.986
47376W        W18992  41.743  34.381  14.418
47377W        W18993   3.542  41.525   0.792
47378W        W18994   1.509  25.707  13.034
47379W        W18995  37.404  31.335   4.854
47380W        W18996  15.282  15.925  14.748
47381W        W18997   2.986  31.216  14.674
47382W        W18998  10.589  43.280  14.964
47383W        W18999  42.851  24.800   0.949
47384W        W19000   5.033  39.072   0.231
47385W        W19001  32.115  33.903   0.379
47386W        W19002  14.629  33.388  13.877
47387W        W19003  19.777   0.181   1.812
47388W        W19004  42.062  11.287  12.105
47389W        W19005  15.876   6.231  13.142
47390W        W19006  24.135  37.984   0.045
47391W        W19007  15.156  13.045   3.902
47392W        W19008  27.724  41.584   1.984
47393W        W19009  30.591  32.732  11.555
47394W        W19010  23.504  40.380  11.696
47395W        W19011   0.744  11.611   0.343
47396W        W19012  16.430  24.558  11.009
47397W        W19013  32.009   8.132  12.773
47398W        W19014   3.692   2.552  13.886
47399W        W19015  19.757  16.973   0.887
47400W        W19016  31.459  23.967   1.190
47401W        W19017  23.756  44.471  14.393
47402W        W19018  22.553  12.776  13.638
47403W        W19019  16.309  33.605   1.246
47404W        W19020  34.913  44.883  12.828
47405W        W19021   5.088  14.305  11.563
47406W        W19022  35.393  35.178  11.128
47407W        W19023  28.951   2.242  11.617
47408W        W19024   0.872   0.912  12.411
47409W        W19025  20.005   1.794   2.347
47410W        W19026  36.012  28.092   3.784
47411W        W19027   5.308   0.288  12.507
47412W        W19028  10.707  18.532   0.633
47413W        W19029  42.952   4.075   4.735
47414W        W19030  16.799  10.092   3.303
47415W        W19031  41.271   5.894   0.899
47416W        W19032  34.006  24.992  13.892
47417W        W19033  43.702   7.253   4.103
47418W        W19034   9.949  31.045  13.860
47419W        W19035   9.277   2.720   2.347
47420W        W19036  33.770   0.622   4.198
47421W        W19037   4.882  43.439  12.445
47422W        W19038  18.776  44.409   2.340
47423W        W19039  26.444  39.743  11.976
47424W        W19040   1.118   9.646   0.865
47425W        W19041  36.135  15.205   1.290
47426W        W19042  44.593  15.340   0.310
47427W        W19043  26.834  13.921  10.334
47428W        W19044  39.534   3.853   4.144
47429W        W19045  11.808  13.318  12.402
47430W        W19046   3.204   6.624  13.043
47431W        W19047  33.172   6.199  14.536
47432W        W19048  26.239  26.746  10.949
47433W        W19049  32.343   5.447  13.974
47434W        W19050   5.626  33.347   3.689
47435W        W19051  23.620  35.037   1.235
47436W        W19052  43.290  43.905   4.834
47437W        W19053   2.850  32.143   2.177
47438W        W19054   4.944  26.208  11.540
47439W        W19055  36.364  41.244   1.875
47440W        W19056  20.139  41.586  10.918
47441W        W19057   9.325  29.682   1.733
47442W        W19058  24.041  38.997  11.227
47443W        W19059  16.852  37.353   2.716
47444W        W19060  25.159   1.465   4.114
47445W        W19061   9.606  43.110  14.862
47446W        W19062  30.074   7.435   0.895
47447W        W19063  13.780  39.357   1.958
47448W        W19064  44.883  19.518  14.470
47449W        W19065  39.429  35.600  13.878
47450W        W19066  20.347  30.943   0.485
47451W        W19067  16.824  16.153   1.284
47452W        W19068  15.201  40.073   4.267
47453W        W19069  42.980  42.752  13.780
47454W        W19070  41.778  29.075   2.471
47455W        W19071  24.489  13.725  10.483
47456W        W19072  14.367  41.992  14.976
47457W        W19073  22.298  35.545   5.079
47458W        W19074  25.655  27.582  14.339
47459W        W19075  23.716  28.533  12.283
47460W        W19076  33.388  40.760   0.285
47461W        W19077   6.474  34.889   2.818
47462W        W19078  25.182  34.900   1.552
47463W        W19079   0.911  27.890   2.846
47464W        W19080  36.507   3.467   2.741
47465W        W19081  21.094  35.448  12.508
47466W        W19082  23.488  22.365   0.378
47467W        W19083  16.222   0.775   1.375
47468W        W19084  11.379  21.169   2.359
47469W        W19085  13.400  29.415   2.210
47470W        W19086  12.256  14.710   1.154
47471W        W19087  36.913   9.772  13.320
47472W        W19088  40.500  17.479   0.620
47473W        W19089   7.408  43.404   1.728
47474W        W19090   6.970   9.109  11.622
47475W        W19091  20.487  29.913   1.744
47476W        W19092  17.479   9.782   4.447
47477W        W19093  34.195  12.346   3.200
47478W        W19094   9.057  22.206  14.586
47479W        W19095   1.273  39.497  14.264
47480W        W19096  17.140   4.826   1.800
47481W        W19097  24.973   2.820  12.551
47482W        W19098   0.306   9.473  11.609
47483W        W19099  11.331  20.262   1.212
47484W        W19100   5.168  12.017   0.784
47485W        W19101  35.074  38.351  14.261
47486W        W19102  40.038  28.446  12.868
47487W        W19103   2.869  30.461  11.372
47488W        W19104  14.299  11.866   3.579
47489W        W19105   7.907  12.645   5.016
47490W        W19106  28.733   8.586   4.489
47491W        W19107  41.354  28.586   3.592
47492W        W19108  27.442   7.291   0.941
47493W        W19109  27.163  30.553  11.904
47494W        W19110  15.594   8.185   3.320
47495W        W19111  10.629  24.075   4.046
47496W        W19112  15.553  19.779  11.395
47497W        W19113  39.611  42.748   4.032
47498W        W19114  19.184  20.481   4.361
47499W        W19115  42.336   9.613   2.579
47500W        W19116  35.781  33.438   3.694
47501W        W19117  39.842  41.921  12.112
47502W        W19118  39.019   0.492   3.329
47503W        W19119   3.933  28.629   2.401
47504W        W19120   5.399  43.764  11.487
47505W        W19121  25.950  31.550  13.046
47506W        W19122  29.120   5.894   3.514
47507W        W19123  21.195   0.506  13.019
47508W        W19124  36.521   1.592  11.166
47509W        W19125  35.421  11.285  13.063
47510W        W19126   0.253  30.149  11.188
47511W        W19127   6.678  42.408  12.178
47512W        W19128  26.166   6.713  10.724
47513W        W19129  10.115   7.830  11.250
47514W        W19130  39.056  41.875  14.049
47515W        W19131  37.338   5.334  10.892
47516W        W19132  34.975   8.810   2.368
47517W        W19133  36.117  25.277  10.721
47518W        W19134  42.412  10.142   3.375
47519W        W19135  10.636  23.533  12.640
47520W        W19136  21.176  30.106   2.139
47521W        W19137   5.474   1.031  10.905
47522W        W19138  37.812  32.494   2.983
47523W        W19139  11.617  40.341  13.977
47524W        W19140  31.961   5.013  13.086
47525W        W19141   0.356  28.446  14.321
47526W        W19142  19.139  29.130   1.218
47527W        W19143   9.620  20.767   0.221
47528W        W19144  42.506  13.721  11.571
47529W        W19145  38.575   4.905   3.736
47530W        W19146  25.141  31.221  13.091
47531W        W19147  34.799  34.504  11.577
47532W        W19148  22.650   9.648   4.130
47533W        W19149  11.289  41.361  10.403
47534W        W19150  31.464  40.275   3.710
47535W        W19151  14.762  40.032  12.917
47536W        W19152   0.833  14.789  13.521
47537W        W19153   8.132   2.450   2.743
47538W        W19154   0.466   7.252  13.635
47539W        W19155  40.845  35.103  12.950
47540W        W19156   2.160  19.331   4.100
47541W        W19157   6.238  39.300  11.297
47542W        W19158  21.972   8.843  11.998
47543W        W19159  40.564  28.235  13.001
47544W        W19160  30.760  24.096   0.528
47545W        W19161   0.845  14.718  12.069
47546W        W19162  38.098   6.415  13.004
47547W        W19163  21.101  17.661   0.587
47548W        W19164  10.927   5.725  13.614
47549W        W19165  20.005  33.582  11.307
47550W        W19166  28.617  37.079   3.697
47551W        W19167   0.284  14.871  10.812
47552W        W19168  34.387  24.511  12.886
47553W        W19169   5.488  36.187   5.150
47554W        W19170   4.716  38.328  11.131
47555W        W19171   6.880  34.131   2.905
47556W        W19172   7.091  17.017  11.607
47557W        W19173  42.571  21.033   1.933
47558W        W19174  18.725  23.890  11.401
47559W        W19175   9.832   8.351   4.898
47560W        W19176  15.066  44.938   1.400
47561W        W19177  31.461  18.068  10.896
47562W        W19178  38.828  30.038  10.186
47563W        W19179   0.655  33.953   0.759
47564W        W19180   0.775  13.666  13.494
47565W        W19181  30.573  37.787   4.044
47566W        W19182   3.940   6.764  14.974
47567W        W19183   0.325  31.600   4.635
47568W        W19184  34.930  32.082   2.780
47569W        W19185  25.042  10.777   4.285
47570W        W19186  43.816  15.525   2.960
47571W        W19187  20.564  22.783  12.642
47572W        W19188  10.096  32.608  11.985
47573W        W19189  15.422  33.214  14.508
47574W        W19190  35.280  35.789  12.445
47575W        W19191  42.190  43.361   2.752
47576W        W19192  14.406  33.954  13.009
47577W        W19193  21.767  40.504  14.429
47578W        W19194  12.330  31.889   1.336
47579W        W19195  39.708   2.386  11.152
47580W        W19196  40.350  42.941   2.764
47581W        W19197  40.493   5.314   2.367
47582W        W19198  21.257  39.532  14.850
47583W        W19199  34.301   7.723   1.619
47584W        W19200   2.793  26.320   2.669
47585W        W19201   5.186  18.518   0.700
47586W        W19202  27.586   5.773  12.579
47587W        W19203  26.687  39.036  10.087
47588W        W19204  39.875  29.179   3.720
47589W        W19205   9.962  18.629  11.383
47590W        W19206  25.035  37.381   1.426
47591W        W19207  40.500  38.260   1.718
47592W        W19208  11.147   4.000  14.311
47593W        W19209  37.570  17.640   0.341
47594W        W19210  43.799  14.892  12.982
47595W        W19211  41.198  15.388  13.522
47596W        W19212   0.861  11.678  11.911
47597W        W19213  17.642  37.844   4.290
47598W        W19214  35.059   5.877   2.214
47599W        W19215  14.686  31.611   1.416
47600W        W19216  40.882  25.500  10.681
47601W        W19217  39.808  31.379  13.368
47602W        W19218   4.300  34.671  12.233
47603W        W19219  10.207   7.238   9.898
47604W        W19220   7.269  23.811   1.397
47605W        W19221  19.072  14.278  12.051
47606W        W19222  25.060  41.283   4.026
47607W        W19223  23.797  17.784  14.894
47608W        W19224  19.012   2.871  14.810
47609W        W19225  23.073   7.009  14.009
47610W        W19226  36.550  23.556   3.572
47611W        W19227  22.136   2.805   4.793
47612W        W19228  17.172  31.866   4.095
47613W        W19229  15.295  34.820  13.560
47614W        W19230   4.534  21.990  11.697
47615W        W19231  41.941  23.889   1.729
47616W        W19232  42.290  16.145   3.650
47617W        W19233   4.387  39.467  12.863
47618W        W19234  42.991  42.478   3.987
47619W        W19235   9.704  36.882   4.103
47620W        W19236   5.921  30.089  13.553
47621W        W19237  23.612  13.703  13.338
47622W        W19238  26.593   7.370   0.908
47623W        W19239  17.136  26.263   4.201
47624W        W19240  42.857  37.873  11.011
47625W        W19241  19.780  12.872   0.296
47626W        W19242  24.773   5.372   2.597
47627W        W19243   4.917  18.573  13.768
47628W        W19244  11.128  39.416   0.447
47629W        W19245  13.417  38.548   0.002
47630W        W19246   8.407  13.764  11.227
47631W        W19247   5.853   1.376   1.779
47632W        W19248  23.788   6.445   1.314
47633W        W19249  40.039   2.299   4.963
47634W        W19250  42.845  13.608  12.731
47635W        W19251  25.234  20.238   0.737
47636W        W19252  13.877  40.501  14.334
47637W        W19253  36.432  31.207   3.898
47638W        W19254   3.388  11.607  11.999
47639W        W19255  20.631   1.210  10.804
47640W        W19256  26.962  44.938   3.292
47641W        W19257  24.137   6.185   5.077
47642W        W19258  14.546  27.010   2.163
47643W        W19259  13.163  33.017   2.375
47644W        W19260   6.377  32.598   1.588
47645W        W19261  18.992   4.234   4.648
47646W        W19262  10.349  20.849   1.850
47647W        W19263  11.720  42.440  12.500
47648W        W19264   3.667  23.003   0.329
47649W        W19265  25.712  33.925   2.417
47650W        W19266  14.968  25.935   3.092
47651W        W19267  41.859   2.245  13.392
47652W        W19268  36.029  41.066  12.394
47653W        W19269  15.926  21.765  11.257
47654W        W19270   2.670   9.315  11.554
47655W        W19271  39.185  31.426  14.078
47656W        W19272  36.759  22.626   3.683
47657W        W19273  19.070  15.783  12.079
47658W        W19274  44.393   6.392  11.487
47659W        W19275   3.270  14.182   3.783
47660W        W19276  27.977   1.591   3.995
47661W        W19277  18.073  29.655   1.834
47662W        W19278   6.755  19.536  10.553
47663W        W19279  29.741  35.431  13.001
47664W        W19280   2.211  43.563   1.624
47665W        W19281  18.417  32.592  13.816
47666W        W19282  42.454   6.462  11.085
47667W        W19283  34.000  19.591  13.540
47668W        W19284  25.732  29.972   0.751
47669W        W19285   8.713  18.642  14.121
47670W        W19286  40.752  23.232  12.283
47671W        W19287  25.404  11.340  13.852
47672W        W19288  29.474   7.613   2.325
47673W        W19289  44.753  17.557   4.255
47674W        W19290  14.178   7.478   4.586
47675W        W19291  18.045  17.980  14.941
47676W        W19292  41.543  18.645   2.292
47677W        W19293  22.402   1.211   3.207
47678W        W19294  31.438   2.483   4.310
47679W        W19295  41.990  42.857  12.674
47680W        W19296   0.938  12.416   4.519
47681W        W19297  30.135  29.073   0.833
47682W        W19298  19.266  27.771  10.497
47683W        W19299  10.262  21.342   4.129
47684W        W19300   8.497  28.997  12.336
47685W        W19301  12.200   9.362   4.395
47686W        W19302   2.264   7.407   0.280
47687W        W19303  21.039  20.131   1.828
47688W        W19304  31.838  26.145  14.040
47689W        W19305   4.684  37.401   5.094
47690W        W19306  39.574   3.659  14.425
47691W        W19307  29.625  21.431  12.046
47692W        W19308  23.509   6.184  14.775
47693W        W19309  20.861  12.004   0.251
47694W        W19310  21.033  28.226   1.917
47695W        W19311  40.482  40.308   5.055
47696W        W19312   3.789  23.988   3.224
47697W        W19313  22.217   8.717  12.432
47698W        W19314   2.009   0.799   2.423
47699W        W19315  44.957   3.007  14.435
47700W        W19316  27.214  10.403   3.172
47701W        W19317  33.064  41.509   1.430
47702W        W19318  41.108  18.425  13.567
47703W        W19319  43.734  24.580  12.584
47704W        W19320  12.786  12.374   4.239
47705W        W19321  19.593   5.944  10.645
47706W        W19322   5.517   1.780   1.838
47707W        W19323  20.770   8.863  13.320
47708W        W19324   7.967  26.963  11.579
47709W        W19325   1.653  25.193   0.340
47710W        W19326  39.499  12.903   9.501
47711W        W19327  14.316   4.878   4.578
47712W        W19328  42.250  12.140  10.932
47713W        W19329  27.340   3.616  11.945
47714W        W19330  31.978  37.349   3.284
47715W        W19331   2.835  42.415   0.255
47716W        W19332  13.809  12.336   0.475
47717W        W19333  12.246  42.540   4.231
47718W        W19334  33.476  42.011  10.427
47719W        W19335  19.790   5.302   1.465
47720W        W19336  40.286   0.995   4.636
47721W        W19337  33.365  16.346   0.366
47722W        W19338   8.374  17.290  12.038
47723W        W19339  39.898  25.919  12.434
47724W        W19340   3.822  32.559  11.880
47725W        W19341  36.974  34.557   1.674
47726W        W19342  32.995  39.777   2.276
47727W        W19343  22.462  14.742  13.429
47728W        W19344   0.464   7.995   3.444
47729W        W19345  19.877  29.689   4.123
47730W        W19346  30.191  27.463  11.500
47731W        W19347  10.200   8.391   2.690
47732W        W19348  14.752   7.634  12.102
47733W        W19349   2.884  44.541  10.728
47734W        W19350  32.149  17.760   4.033
47735W        W19351  33.978  36.396   1.301
47736W        W19352  28.853  18.276   4.371
47737W        W19353  18.215  41.853  12.465
47738W        W19354  27.674  19.227   4.257
47739W        W19355  21.211  39.342   4.165
47740W        W19356  22.097  17.661  13.784
47741W        W19357  21.278  13.839   4.706
47742W        W19358  43.648   0.715  11.185
47743W        W19359  19.055  13.969   2.246
47744W        W19360  34.491  21.708  14.565
47745W        W19361  35.183  42.046  12.538
47746W        W19362   9.633   3.088   3.575
47747W        W19363  39.982  41.152   3.694
47748W        W19364  14.653  11.850   0.749
47749W        W19365  36.964  28.195  12.803
47750W        W19366   8.783  19.027   0.473
47751W        W19367  14.335  33.424   1.436
47752W        W19368   1.541  40.333  12.938
47753W        W19369  41.858   2.664  11.223
47754W        W19370  40.000  33.023   0.313
47755W        W19371   4.436  15.175  10.625
47756W        W19372  42.034   7.680  12.230
47757W        W19373  32.322  12.588  10.747
47758W        W19374   8.891  39.555  12.112
47759W        W19375  40.562  21.919   0.691
47760W        W19376  14.210   7.452   2.285
47761W        W19377  33.849  19.485  12.517
47762W        W19378  15.534  44.334  12.342
47763W        W19379  42.463  35.758  10.751
47764W        W19380   5.346   4.198  11.691
47765W        W19381  35.441  39.811  10.660
47766W        W19382   7.163  44.540   4.849
47767W        W19383  30.625  24.173   2.856
47768W        W19384  44.324   9.198   4.044
47769W        W19385  43.424  28.192  12.024
47770W        W19386  31.376  22.494   0.835
47771W        W19387  15.107  27.281   3.311
47772W        W19388  17.261  33.146  11.546
47773W        W19389  14.007   9.635  13.962
47774W        W19390  16.627  43.083  11.946
47775W        W19391   8.884  39.940   2.401
47776W        W19392  43.969  30.545   4.351
47777W        W19393  43.017  15.236  10.527
47778W        W19394  41.937   4.324   0.531
47779W        W19395  30.413  33.603   4.319
47780W        W19396  16.113  41.771  12.223
47781W        W19397  38.793  29.114  10.505
47782W        W19398   9.409  35.934   5.129
47783W        W19399  13.669   8.234  13.009
47784W        W19400  38.483   6.337  12.159
47785W        W19401  20.017   8.461   4.190
47786W        W19402  36.536  11.896  11.732
47787W        W19403  11.526  16.733  11.551
47788W        W19404  43.456   0.521  14.219
47789W        W19405  18.075  32.425   3.741
47790W        W19406  21.910  40.746   0.154
47791W        W19407  24.662  24.659   4.136
47792W        W19408   0.875  30.577   3.183
47793W        W19409  31.856   1.326   0.483
47794W        W19410  40.768   5.283   2.844
47795W        W19411   2.262  35.498   0.431
47796W        W19412  18.747  44.891   0.040
47797W        W19413   4.458  23.426  12.031
47798W        W19414  35.043  20.860   4.872
47799W        W19415  18.959  33.426  11.962
47800W        W19416  13.751  19.150   2.143
47801W        W19417   2.921   8.832  14.152
47802W        W19418  24.992  41.412   4.528
47803W        W19419   4.708  39.331   4.221
47804W        W19420  42.428  29.111  13.495
47805W        W19421  10.797  20.171  13.130
47806W        W19422  44.043  33.576  13.703
47807W        W19423  15.321  38.502  12.534
47808W        W19424  12.743   7.433  14.477
47809W        W19425  34.430  28.755   1.384
47810W        W19426  30.382  34.340   0.320
47811W        W19427   3.350  28.295   3.253
47812W        W19428  19.723   3.264  12.631
47813W        W19429  40.380  21.111  12.706
47814W        W19430   8.843   0.839   1.252
47815W        W19431  10.418  29.594  12.193
47816W        W19432   0.237  22.341  14.916
47817W        W19433  31.754  43.944   5.644
47818W        W19434  12.222  23.093   0.695
47819W        W19435  43.366   1.566  14.018
47820W        W19436  31.992   2.694  14.907
47821W        W19437   0.871  43.011  13.943
47822W        W19438  43.308  24.643   0.020
47823W        W19439  18.792  43.363   0.959
47824W        W19440  30.901  26.964  10.961
47825W        W19441  12.750  33.602  13.271
47826W        W19442  33.830  27.672  11.994
47827W        W19443  33.942  16.156  11.034
47828W        W19444  42.005  11.742   1.462
47829W        W19445   3.508  22.695  12.901
47830W        W19446   2.593   1.859  12.897
47831W        W19447  26.510  39.399   0.678
47832W        W19448  41.796  30.849   0.016
47833W        W19449  39.012  34.599  10.582
47834W        W19450  18.278   8.877   2.243
47835W        W19451  15.785   9.860  13.525
47836W        W19452   0.779  23.408   4.961
47837W        W19453  15.179   8.922   0.486
47838W        W19454  35.941  23.023   1.944
47839W        W19455  31.058  44.312  11.529
47840W        W19456  44.978  43.899   2.864
47841W        W19457  18.317  32.018   0.740
47842W        W19458  16.486  36.424  12.088
47843W        W19459  36.478  16.687  13.457
47844W        W19460  14.163   5.397   4.590
47845W        W19461  33.938  29.470  10.541
47846W        W19462  19.780   8.379  13.619
47847W        W19463  13.096  13.119   1.626
47848W        W19464   6.237   0.961   2.704
47849W        W19465  38.412   0.739  11.542
47850W        W19466  24.519   7.796  13.915
47851W        W19467   5.871  25.260  13.558
47852W        W19468   0.493  36.660   5.226
47853W        W19469  14.781  13.848  11.404
47854W        W19470  20.802  39.557  12.354
47855W        W19471  41.446   7.731  11.075
47856W        W19472   0.530  35.176  14.079
47857W        W19473  38.919  41.694   4.525
47858W        W19474  11.666  30.166  10.442
47859W        W19475   7.842  15.324   0.863
47860W        W19476  41.710  17.646   2.408
47861W        W19477   1.711  28.985   2.860
47862W        W19478  24.713  40.885   1.054
47863W        W19479  12.825   7.511   1.040
47864W        W19480   9.091  28.938  12.138
47865W        W19481  13.013  15.441   5.063
47866W        W19482  14.558   6.904   9.994
47867W        W19483  35.391  20.771   3.246
47868W        W19484  35.067  34.032  12.411
47869W        W19485  17.089   1.076  13.045
47870W        W19486   4.743  38.705  10.146
47871W        W19487   5.031  37.319  13.400
47872W        W19488  35.124  39.952  14.463
47873W        W19489   0.844   0.241   3.822
47874W        W19490  32.028  13.187   3.219
47875W        W19491  41.528  39.805  12.450
47876W        W19492  16.218  10.851   4.263
47877W        W19493   7.285  28.679  14.350
47878W        W19494  21.191   2.462   4.732
47879W        W19495   9.607  42.110   4.454
47880W        W19496   5.518  17.198  13.700
47881W        W19497   5.775  12.839  11.531
47882W        W19498   1.858  19.639   1.270
47883W        W19499  26.178  17.116  10.017
47884W        W19500   5.319  41.333   2.765
47885W        W19501  43.539   8.332  14.755
47886W        W19502  31.100   1.740  10.867
47887W        W19503   1.791  17.630  12.938
47888W        W19504   8.495   8.661  14.912
47889W        W19505   6.526  23.417  14.009
47890W        W19506  21.784  40.038  11.556
47891W        W19507   0.177  41.335   4.165
47892W        W19508  10.366  14.606  12.863
47893W        W19509  18.551  11.483  10.482
47894W        W19510  17.720  20.159   2.927
47895W        W19511   5.189  26.600   0.782
47896W        W19512  11.059  12.780   4.153
47897W        W19513  24.391  44.349  13.704
47898W        W19514  33.641  34.648   4.907
47899W        W19515  11.309  18.260  12.026
47900W        W19516  38.004  28.081  14.496
47901W        W19517  13.724  40.787  12.151
47902W        W19518  10.690  20.011   0.584
47903W        W19519  28.835   0.766  11.581
47904W        W19520  23.230  33.019   1.404
47905W        W19521  14.804  40.814   4.693
47906W        W19522  35.875  21.554   0.515
47907W        W19523  42.882  31.286  13.573
47908W        W19524   2.881   7.354  12.694
47909W        W19525  36.741   2.916  12.284
47910W        W19526   1.936   2.227   0.826
47911W        W19527  13.384  17.625   4.347
47912W        W19528  37.933  42.375  13.566
47913W        W19529  26.721   3.782   3.098
47914W        W19530  40.101  12.949  11.980
47915W        W19531   5.239   4.268   2.608
47916W        W19532   6.741  39.162   3.108
47917W        W19533  28.715  22.143  13.563
47918W        W19534   1.350  35.843   1.233
47919W        W19535   7.250  23.203   0.460
47920W        W19536  33.457  19.442   1.256
47921W        W19537  35.514  38.497  14.461
47922W        W19538  11.225  12.977   3.692
47923W        W19539  37.355  43.990   1.701
47924W        W19540  44.433  20.084  11.078
47925W        W19541  14.782  10.121  10.792
47926W        W19542  10.386   3.400   3.207
47927W        W19543  42.308  13.042  12.334
47928W        W19544   9.004  22.769   4.029
47929W        W19545  36.440   0.774  14.408
47930W        W19546   3.749  16.183   2.535
47931W        W19547  41.136  26.127  14.517
47932W        W19548  30.005  21.718   2.265
47933W        W19549  41.750  27.506  10.976
47934W        W19550  21.979  12.870   1.953
47935W        W19551  28.549   0.183  10.776
47936W        W19552  26.924  28.363   3.753
47937W        W19553  38.438  39.733  14.554
47938W        W19554   9.149  33.546  14.449
47939W        W19555   5.226  21.504  12.073
47940W        W19556  25.392   1.878  11.403
47941W        W19557  15.762  27.018   4.713
47942W        W19558  21.037   1.805   3.335
47943W        W19559  16.530  32.075  12.367
47944W        W19560  11.211   8.883   1.152
47945W        W19561   3.848   5.990  13.731
47946W        W19562  38.174  35.478   0.395
47947W        W19563   7.522  31.034  12.001
47948W        W19564   2.288  38.983   3.811
47949W        W19565  19.830  15.340  11.098
47950W        W19566  27.369  23.846  14.855
47951W        W19567   9.143   4.602  11.180
47952W        W19568  16.337  15.293   1.673
47953W        W19569  32.882  26.863   4.204
47954W        W19570   2.394  32.764   4.088
47955W        W19571  39.004   6.366   4.547
47956W        W19572  11.009  15.878   0.111
47957W        W19573  36.962   8.890  10.341
47958W        W19574  20.762  39.373  11.084
47959W        W19575  34.189  26.476   0.437
47960W        W19576  27.982  18.092  10.656
47961W        W19577  42.459  20.324  14.341
47962W        W19578  26.013  16.630  12.377
47963W        W19579   5.826   8.401   1.466
47964W        W19580  43.440  20.983   4.535
47965W        W19581  33.447  33.928   0.009
47966W        W19582  36.375  20.252  13.313
47967W        W19583  30.874  19.143   2.627
47968W        W19584  20.983  37.982  14.036
47969W        W19585  35.967  39.381  14.997
47970W        W19586  28.599  14.584   0.839
47971W        W19587  44.208  28.676   1.164
47972W        W19588   8.736  10.859   3.601
47973W        W19589  37.244   4.570  12.518
47974W        W19590  43.403  12.394   0.953
47975W        W19591   3.253  25.935   1.864
47976W        W19592  39.450  19.171  14.215
47977W        W19593  33.316   8.777   5.298
47978W        W19594  32.893  22.592  12.106
47979W        W19595  29.905  41.876   4.142
47980W        W19596  14.314  41.341   1.983
47981W        W19597  23.439  15.820  14.105
47982W        W19598  15.411   6.235  11.354
47983W        W19599  16.516  27.320   3.240
47984W        W19600  35.195  18.744   2.355
47985W        W19601   0.855   3.404  14.058
47986W        W19602  24.135  14.589  14.796
47987W        W19603  32.573  38.527  14.679
47988W        W19604  35.132  29.526  12.558
47989W        W19605   5.286  25.529  11.931
47990W        W19606   1.779  39.557   3.241
47991W        W19607   8.386  30.743  13.125
47992W        W19608  35.908  11.111   3.213
47993W        W19609  25.947  38.561  14.843
47994W        W19610  15.151  43.562  13.371
47995W        W19611   5.851  15.003  14.983
47996W        W19612  11.865  13.728   3.335
47997W        W19613  43.566  37.380  13.494
47998W        W19614  18.095   0.235  11.985
47999W        W19615  40.942  43.237   0.700
48000W        W19616  43.942  31.641   4.175
48001W        W19617  33.697  26.416   1.365
48002W        W19618  22.031  11.237  13.956
48003W        W19619  39.049  26.173   1.277
48004W        W19620  39.281  18.112  14.180
48005W        W19621  35.804  28.602   1.966
48006W        W19622  34.597  34.683  13.967
48007W        W19623  15.631  43.275   0.768
48008W        W19624  18.053  36.804  11.141
48009W        W19625   1.960  17.639  12.019
48010W        W19626  14.271  37.863  14.317
48011W        W19627  32.973  35.122   3.115
48012W        W19628  32.924  20.622  14.473
48013W        W19629  44.125  19.841  11.910
48014W        W19630  34.098  26.079   1.271
48015W        W19631  10.548   8.487   4.106
48016W        W19632  34.147  14.596  13.479
48017W        W19633  11.763  30.523  11.569
48018W        W19634  33.917  36.945   4.217
48019W        W19635   4.345  17.359   0.719
48020W        W19636  44.277  15.608   4.972
48021W        W19637  28.243  21.241  14.951
48022W        W19638   2.138   4.255  12.065
48023W        W19639  36.908  14.706   1.031
48024W        W19640  18.111  23.703  14.863
48025W        W19641  44.027  15.122   3.212
48026W        W19642   8.364  15.303   4.285
48027W        W19643  43.997   9.386  14.017
48028W        W19644  13.309  24.485   1.630
48029W        W19645  39.067   8.028  13.994
48030W        W19646  30.864  12.076  12.485
48031W        W19647  31.023   5.190  12.954
48032W        W19648  27.809  31.882  11.617
48033W        W19649   4.472  16.395   0.751
48034W        W19650  41.421   0.286   0.529
48035W        W19651   6.705  29.102  11.172
48036W        W19652  19.302  20.771  12.823
48037W        W19653  18.035  15.313  12.907
48038W        W19654   6.160  27.959   2.777
48039W        W19655  24.265  27.232  11.907
48040W        W19656  23.012   5.298  12.593
48041W        W19657  13.678  16.611  12.423
48042W        W19658   3.133  17.114   0.309
48043W        W19659  30.629  42.257  13.643
48044W        W19660  35.657  37.170   2.304
48045W        W19661   4.872  36.126  12.443
48046W        W19662  36.909  37.194  14.005
48047W        W19663   3.646  26.984  14.172
48048W        W19664  22.935   3.856  12.490
48049W        W19665  27.488   5.625  11.625
48050W        W19666   9.662   0.154   4.209
48051W        W19667  42.363  19.165  10.956
48052W        W19668  24.132  29.898   2.819
48053W        W19669  41.112  38.779  10.031
48054W        W19670  12.276   4.127  13.718
48055W        W19671  37.878   9.619   5.523
48056W        W19672  43.046  34.345   1.192
48057W        W19673  35.601   2.234   4.461
48058W        W19674  19.913  44.785  13.424
48059W        W19675  33.356  30.563  10.635
48060W        W19676  34.239  19.644  12.146
48061W        W19677  39.376  44.970  12.392
48062W        W19678  33.580  33.163  11.819
48063W        W19679  23.915  21.557   0.720
48064W        W19680  36.470  16.638  11.593
48065W        W19681   6.887  37.842  11.917
48066W        W19682   3.046   7.566  13.538
48067W        W19683   2.553  24.914  13.516
48068W        W19684  43.988  30.617  11.595
48069W        W19685  37.970  43.849  12.592
48070W        W19686  25.550  25.894  14.828
48071W        W19687  19.338  10.473   4.776
48072W        W19688  18.005   0.490   2.266
48073W        W19689  21.162  37.978  13.488
48074W        W19690  39.515  13.616  14.904
48075W        W19691  21.674  14.579  13.587
48076W        W19692  40.759   9.663   4.930
48077W        W19693   5.329   2.405   3.258
48078W        W19694  22.385  15.623   4.858
48079W        W19695  24.496  30.674   0.241
48080W        W19696  36.929  27.722  11.411
48081W        W19697  34.118  15.285  12.983
48082W        W19698  17.360  33.588   4.586
48083W        W19699  13.145   5.898  13.306
48084W        W19700  10.128  35.782  12.135
48085W        W19701  17.378  20.755  12.997
48086W        W19702  10.682  41.405  13.143
48087W        W19703  23.692  23.479   4.106
48088W        W19704  10.288  38.329   3.667
48089W        W19705  41.623  14.738   0.193
48090W        W19706  43.169   3.315  11.745
48091W        W19707  34.837  11.881  13.432
48092W        W19708  38.585  26.639   3.630
48093W        W19709  17.072  30.491  12.074
48094W        W19710  30.205   6.861  12.678
48095W        W19711   7.393  21.582  13.055
48096W        W19712   5.116   8.681  13.076
48097W        W19713  42.940  16.804   3.099
48098W        W19714  20.187   5.787  14.260
48099W        W19715  41.700  28.506  11.123
48100W        W19716  34.834  19.850  11.491
48101W        W19717  21.117  29.496   4.594
48102W        W19718  13.665  36.180   0.919
48103W        W19719  21.019   4.852  10.607
48104W        W19720  29.480   4.195  10.705
48105W        W19721  13.808  21.044   1.378
48106W        W19722  33.480  25.893   2.432
48107W        W19723  26.210  20.970   3.161
48108W        W19724  18.940  43.833  11.078
48109W        W19725  11.131  36.770   0.935
48110W        W19726  43.693  38.491   4.223
48111W        W19727  38.857  21.694   2.783
48112W        W19728  35.065  42.784   1.688
48113W        W19729  14.662   6.412   3.401
48114W        W19730  13.746  11.919  11.489
48115W        W19731  30.074  26.987  12.704
48116W        W19732  31.196   9.080   4.569
48117W        W19733  39.641  38.110  11.020
48118W        W19734   9.640   3.945  11.544
48119W        W19735  26.248  25.102  12.832
48120W        W19736  41.300  41.791  13.413
48121W        W19737  11.318  16.618   2.285
48122W        W19738  18.093  20.742   2.319
48123W        W19739  34.006  18.845  11.143
48124W        W19740  41.462  16.255   1.754
48125W        W19741  19.014   6.295   0.321
48126W        W19742   3.834  28.052  11.103
48127W        W19743  28.298  42.419   3.751
48128W        W19744  32.095  24.373  10.733
48129W        W19745  23.695  30.929  13.043
48130W        W19746  39.239  11.636   2.429
48131W        W19747  21.047   3.345  12.252
48132W        W19748  34.377  17.751  14.516
48133W        W19749  13.880   3.177  11.035
48134W        W19750   2.323  16.222  14.282
48135W        W19751  25.569  21.915   1.314
48136W        W19752  22.377  27.878  12.774
48137W        W19753  19.022  43.327  12.979
48138W        W19754   5.972  15.204  10.693
48139W        W19755  29.038  41.091  11.618
48140W        W19756  24.484   5.989   1.933
48141W        W19757  21.358  24.664  11.130
48142W        W19758   4.300  39.490   2.204
48143W        W19759   0.421  22.138  11.630
48144W        W19760  37.409   6.734  14.051
48145W        W19761  11.500  38.495   1.372
48146W        W19762  21.782  41.802  12.647
48147W        W19763  34.050  32.639   3.236
48148W        W19764  29.233  38.509   0.226
48149W        W19765  39.532  12.549  12.470
48150W        W19766  17.745  26.149   4.783
48151W        W19767  12.158   5.781   4.291
48152W        W19768  42.429  16.570   3.254
48153W        W19769  38.112  20.783  10.767
48154W        W19770  28.100  19.656   3.193
48155W        W19771  15.782   0.445  13.369
48156W        W19772  40.281  24.802   4.067
48157W        W19773   0.286   6.800   3.615
48158W        W19774   0.668  41.678  11.124
48159W        W19775  34.034  15.884  12.422
48160W        W19776   1.487  25.506   4.244
48161W        W19777  14.160  21.392  11.708
48162W        W19778  39.446   6.635   4.466
48163W        W19779  26.498   5.777   3.761
48164W        W19780   0.306  44.722   4.527
48165W        W19781  22.720  24.848  14.875
48166W        W19782   5.343   5.137   2.336
48167W        W19783   3.861  24.982   5.130
48168W        W19784  19.424  42.533  12.937
48169W        W19785   4.174   0.891  13.776
48170W        W19786  20.940   4.454   1.831
48171W        W19787  14.331   8.867   0.749
48172W        W19788   0.823   4.848   4.501
48173W        W19789   9.982  29.883   0.696
48174W        W19790   3.295  43.271  14.381
48175W        W19791   6.954  42.703  12.974
48176W        W19792  35.331  25.001   2.720
48177W        W19793  31.206  27.955   2.854
48178W        W19794  21.678   5.025   1.445
48179W        W19795  37.640  11.159  13.363
48180W        W19796  36.526  17.029   0.856
48181W        W19797  13.743  11.109   2.115
48182W        W19798  40.360  41.118  11.244
48183W        W19799  12.079  42.995   0.293
48184W        W19800  29.210  42.477  13.484
48185W        W19801  13.757  41.470  11.574
48186W        W19802  17.843  31.771   0.292
48187W        W19803  24.838  20.667  14.044
48188W        W19804  41.920   1.040  10.724
48189W        W19805  33.869  36.315  12.077
48190W        W19806   3.203  15.704   0.002
48191W        W19807  43.210   7.695  14.424
48192W        W19808  37.981  28.712  12.247
48193W        W19809  23.078  24.425  12.069
48194W        W19810  42.048   6.719  12.848
48195W        W19811  37.260  38.561  11.641
48196W        W19812  18.261  19.112   4.863
48197W        W19813  17.533  22.177  12.920
48198W        W19814  12.672  36.981  11.977
48199W        W19815  33.431  37.069  14.772
48200W        W19816  31.595  28.785   2.683
48201W        W19817  22.063   7.334   0.899
48202W        W19818  18.556  24.838   4.733
48203W        W19819  23.903  42.272   3.817
48204W        W19820   2.764   8.497   1.899
48205W        W19821   3.436   9.144  13.095
48206W        W19822  15.756  42.787   5.334
48207W        W19823   2.983   7.190  13.171
48208W        W19824  43.157  33.174   4.256
48209W        W19825   3.763   9.036   4.328
48210W        W19826  35.963  22.973  14.554
48211W        W19827  28.247  36.324   4.102
48212W        W19828  12.888  27.097   2.276
48213W        W19829  20.573  41.517   1.457
48214W        W19830  42.422  13.723   2.772
48215W        W19831  19.699  30.653   2.602
48216W        W19832  34.910  25.911  12.960
48217W        W19833  24.016  30.437   4.554
48218W        W19834  36.946  39.449  14.006
48219W        W19835  25.899  44.701   0.895
48220W        W19836   6.267  16.209   2.231
48221W        W19837  17.152   0.483  12.886
48222W        W19838   5.723  41.735  13.404
48223W        W19839   3.690  14.662  12.198
48224W        W19840  42.492   3.556   0.390
48225W        W19841  22.889  24.466  11.149
48226W        W19842   0.739  38.913   1.156
48227W        W19843   2.324  25.055  12.023
48228W        W19844  28.870   1.992   3.184
48229W        W19845  16.602  11.090  10.557
48230W        W19846   0.330   8.403   0.225
48231W        W19847  39.529  44.802   1.991
48232W        W19848  20.361   6.280   0.469
48233W        W19849  42.021  19.968   3.756
48234W        W19850   4.290  35.988   2.455
48235W        W19851  44.230  10.244  11.225
48236W        W19852  11.327  26.871   3.292
48237W        W19853  40.297   3.600   3.731
48238W        W19854  37.494  34.667   0.348
48239W        W19855  15.073  20.302   2.433
48240W        W19856  13.897   6.676  13.088
48241W        W19857  36.769  43.924   0.008
48242W        W19858  33.972  43.007   4.857
48243W        W19859  20.252  44.304   3.990
48244W        W19860   3.539  38.842   0.506
48245W        W19861   0.265  10.212   0.377
48246W        W19862  27.949  25.037  12.414
48247W        W19863   9.379  22.642   2.775
48248W        W19864  10.434  28.597  12.039
48249W        W19865   8.700  13.596   4.287
48250W        W19866  27.506   6.114  11.482
48251W        W19867   2.368   9.890   1.992
48252W        W19868   4.439  13.205   4.653
48253W        W19869  13.320  28.535   4.330
48254W        W19870  27.626  17.703  10.642
48255W        W19871   4.844   7.920   1.421
48256W        W19872  27.079  44.831  11.632
48257W        W19873   6.658  44.942  11.444
48258W        W19874  38.869  14.790   4.837
48259W        W19875  39.705  39.485  11.153
48260W        W19876  22.324  25.335   5.060
48261W        W19877  13.048   6.831   3.606
48262W        W19878  11.137  42.007   2.893
48263W        W19879  27.790  19.954  12.708
48264W        W19880  42.297  30.378  11.981
48265W        W19881  25.207  44.460   4.736
48266W        W19882  29.943  42.280   2.029
48267W        W19883   9.779   7.745   4.212
48268W        W19884  26.868  23.556   4.198
48269W        W19885  40.836  25.118   1.369
48270W        W19886  15.521  42.067  13.562
48271W        W19887  26.544  22.139   3.678
48272W        W19888  33.931  39.766  10.977
48273W        W19889  18.718  25.839  12.379
48274W        W19890   9.896   4.796   4.979
48275W        W19891  20.302  37.349  10.711
48276W        W19892  42.744  29.665   2.266
48277W        W19893  22.473  31.533   3.822
48278W        W19894   3.365  42.049  11.531
48279W        W19895  35.491   9.774  11.091
48280W        W19896  43.201  14.865  14.367
48281W        W19897  20.430  23.828   1.740
48282W        W19898  21.127   2.981   1.760
48283W        W19899   7.511   3.406   2.285
48284W        W19900   8.129  27.978   2.345
48285W        W19901  22.377  34.457   0.973
48286W        W19902  30.818   7.571   1.215
48287W        W19903  19.754  31.501   3.477
48288W        W19904  10.584  22.254  13.471
48289W        W19905  17.114  18.797  10.469
48290W        W19906  30.453  16.766  13.042
48291W        W19907  36.499  36.606   3.705
48292W        W19908   3.032  11.655  13.860
48293W        W19909  29.504  42.737  12.567
48294W        W19910   1.304   4.930   4.302
48295W        W19911  35.970   6.587  13.891
48296W        W19912   9.126  40.394   4.491
48297W        W19913   2.171   3.168  14.917
48298W        W19914  20.254   9.669   3.247
48299W        W19915  20.329  13.371  12.033
48300W        W19916  32.110  35.889   2.785
48301W        W19917   1.413   1.260   0.735
48302W        W19918  14.143  19.609  14.943
48303W        W19919  26.722   4.884  14.972
48304W        W19920  35.061   6.285  11.929
48305W        W19921   3.314   4.488  14.407
48306W        W19922  28.892  12.280   3.239
48307W        W19923  30.449  31.633  10.362
48308W        W19924  20.698  13.753  11.810
48309W        W19925  25.306   7.260   3.153
48310W        W19926   7.693  35.368   3.813
48311W        W19927  10.663  12.111   3.536
48312W        W19928  31.496   0.908   0.152
48313W        W19929  33.989  35.293   2.753
48314W        W19930   4.499  24.975  12.072
48315W        W19931  27.149  35.895   1.585
48316W        W19932   8.422  19.814   2.729
48317W        W19933  44.932  12.713  10.845
48318W        W19934   5.914  26.629   4.946
48319W        W19935   7.888  14.879  10.719
48320W        W19936  12.545  15.759  13.448
48321W        W19937   5.296   9.257  12.369
48322W        W19938  42.759  29.664  14.103
48323W        W19939  25.253  35.455   1.210
48324W        W19940   4.719  41.262  14.383
48325W        W19941  27.118  14.832  12.537
48326W        W19942  16.201   9.431   0.883
48327W        W19943  29.181  18.542  14.881
48328W        W19944   4.277   5.474   4.164
48329W        W19945  17.321  29.203  11.856
48330W        W19946  44.720   6.131  13.536
48331W        W19947  15.667   5.346  13.742
48332W        W19948   6.204  21.286  12.671
48333W        W19949  32.934   9.399   2.577
48334W        W19950  10.866   6.597  14.393
48335W        W19951  25.598  36.296   0.787
48336W        W19952   3.376  39.415  14.827
48337W        W19953  15.372  18.081   1.837
48338W        W19954   3.207  17.782   2.316
48339W        W19955  32.510  32.424   1.322
48340W        W19956   5.622  39.011  11.057
48341W        W19957  30.900  20.775   2.130
48342W        W19958  10.437  29.072   2.712
48343W        W19959  28.857  29.150  14.507
48344W        W19960   8.416  20.457  10.962
48345W        W19961   1.828  12.168   4.498
48346W        W19962  36.040   4.931   2.343
48347W        W19963   6.632  33.051   3.862
48348W        W19964  33.323   3.600  12.909
48349W        W19965  17.110  44.578   2.358
48350W        W19966  22.011  27.013  12.369
48351W        W19967  29.455   2.078  11.615
48352W        W19968  35.718  31.024   1.228
48353W        W19969  25.574  21.510  11.112
48354W        W19970   4.530   3.064  11.671
48355W        W19971  34.635  25.329   3.118
48356W        W19972  31.341  27.172  13.935
48357W        W19973  13.204  22.200   4.539
48358W        W19974   0.745  42.030  13.786
48359W        W19975   3.108  38.879  12.656
48360W        W19976  31.287   1.282   4.685
48361W        W19977  15.320   9.863   0.725
48362W        W19978  44.840   4.129   3.762
48363W        W19979  36.054  42.510  12.897
48364W        W19980  16.340  38.866  10.676
48365W        W19981  42.420   7.696  14.963
48366W        W19982  16.227  42.534  11.699
48367W        W19983  16.042  18.280   3.758
48368W        W19984  28.401   7.352   2.407
48369W        W19985  28.846  17.577   1.897
48370W        W19986  14.337   4.202  10.619
48371W        W19987   6.789  17.697  13.793
48372W        W19988  40.214   1.997   1.232
48373W        W19989   4.238  18.687  12.925
48374W        W19990   5.769  25.310   3.730
48375W        W19991  26.770  24.810   0.497
48376W        W19992   9.632  39.312   3.241
48377W        W19993  20.523   6.249  11.512
48378W        W19994  32.631   6.671   4.264
48379W        W19995   9.361   4.975   4.566
48380W        W19996  44.543   3.454   1.670
48381W        W19997  19.752  23.205   3.576
48382W        W19998  10.054  37.130  11.042
48383W        W19999  29.841   2.368  14.411
48384W        W20000  25.619  11.183  13.380
48385W        W20001  10.664  38.718   1.605
48386W        W20002   7.668  33.977   2.497
48387W        W20003   4.414  22.255  11.286
48388W        W20004   1.347  41.043   1.811
48389W        W20005  17.271  24.151   1.412
48390W        W20006   5.404   4.181  10.667
48391W        W20007  16.277   2.193   0.314
48392W        W20008  29.923  20.284  11.528
48393W        W20009  29.206  10.160   3.261
48394W        W20010  24.031   7.887  11.165
48395W        W20011   9.096  27.108  13.860
48396W        W20012  13.907  41.686   2.419
48397W        W20013   8.432  29.476   1.863
48398W        W20014   3.501  42.543  14.925
48399W        W20015   8.596  16.827  11.938
48400W        W20016   2.796  30.925  11.084
48401W        W20017   0.761   9.322  13.419
48402W        W20018   5.888  30.682   4.588
48403W        W20019  43.887  32.881   4.843
48404W        W20020   6.667  39.828  12.044
48405W        W20021  44.485   0.571   0.995
48406W        W20022  12.291   1.980   2.721
48407W        W20023   6.906   9.878  11.582
48408W        W20024  38.405  15.161   1.304
48409W        W20025  26.017   2.900  11.119
48410W        W20026  42.953  40.986  14.432
48411W        W20027  37.665  19.559  13.826
48412W        W20028  13.859  27.532  14.370
48413W        W20029   1.064  15.297  11.240
48414W        W20030  13.558  36.951   0.280
48415W        W20031  25.662  43.033  14.038
48416W        W20032  31.092  40.248   3.005
48417W        W20033  18.680  32.284  11.555
48418W        W20034  13.081  13.223  14.789
48419W        W20035  21.740  13.096  12.869
48420W        W20036   3.278  13.733   2.303
48421W        W20037  31.496  43.887   0.822
48422W        W20038  29.781   1.022  10.697
48423W        W20039  41.659  44.939  12.125
48424W        W20040   1.293  15.726  13.397
48425W        W20041   7.090   6.500  12.218
48426W        W20042   0.951   3.576  10.256
48427W        W20043  16.567  42.808  12.490
48428W        W20044  35.768  44.232   1.407
48429W        W20045  41.441  29.170   0.411
48430W        W20046  22.793  36.910   4.598
48431W        W20047  24.549   2.922   3.781
48432W        W20048  31.053  16.550  11.636
48433W        W20049   0.198  39.452   2.879
48434W        W20050  13.737  32.038   3.072
48435W        W20051  33.925  12.827  10.893
48436W        W20052  26.640  31.446   1.249
48437W        W20053  31.365  15.725   1.711
48438W        W20054  29.991  27.652   2.702
48439W        W20055  16.236  25.148  13.179
48440W        W20056  44.401  26.218  11.778
48441W        W20057   8.310  36.130  12.122
48442W        W20058   1.020  39.699  13.221
48443W        W20059   8.929  35.628  12.953
48444W        W20060  23.139   1.376  11.943
48445W        W20061   4.964   5.799   0.056
48446W        W20062  12.127  38.315  11.984
48447W        W20063  22.310  27.240  11.532
48448W        W20064  32.218  42.731   2.170
48449W        W20065  25.940  25.111  10.291
48450W        W20066  23.744   9.866   1.352
48451W        W20067  23.199  18.284  12.993
48452W        W20068   6.373  42.807   3.308
48453W        W20069  17.491  21.720   3.721
48454W        W20070  23.131  27.122   2.813
48455W        W20071  37.781   4.222  13.863
48456W        W20072  44.848   3.872   1.684
48457W        W20073  19.535  28.766   3.750
48458W        W20074  10.873  34.859   3.304
48459W        W20075  15.913   0.033  10.519
48460W        W20076  41.491  33.069   2.850
48461W        W20077  21.800  41.696   4.535
48462W        W20078  26.612   8.261  13.525
48463W        W20079  19.609   6.374  13.758
48464W        W20080  28.492  23.244  11.398
48465W        W20081   7.239  38.994  12.602
48466W        W20082  35.133   4.205   4.958
48467W        W20083   6.623  16.093   4.039
48468W        W20084  15.125  19.090   9.481
48469W        W20085  10.059   0.924  12.121
48470W        W20086  10.280  12.899   3.723
48471W        W20087   6.966  36.071  10.696
48472W        W20088  29.004  41.557  14.344
48473W        W20089  36.993   3.610   2.631
48474W        W20090  20.679  15.799   4.213
48475W        W20091  38.338  31.360   2.682
48476W        W20092  42.868  41.152   4.550
48477W        W20093  43.659   6.062  10.703
48478W        W20094  42.590  12.949  11.092
48479W        W20095   7.404   2.005   1.023
48480W        W20096   2.321  22.067   9.817
48481W        W20097   0.413  44.375   2.921
48482W        W20098  31.106  30.534  10.567
48483W        W20099   6.365  17.153  13.238
48484W        W20100   0.757  33.385  13.780
48485W        W20101  39.488   5.648  14.031
48486W        W20102  41.898  20.256   0.471
48487W        W20103  23.365  38.044   4.610
48488W        W20104  36.523  42.368  12.622
48489W        W20105  31.036  19.335   1.176
48490W        W20106  10.814   2.969   4.171
48491W        W20107   0.489  38.400   2.325
48492W        W20108  17.848  18.725  12.909
48493W        W20109  38.369  15.696  10.382
48494W        W20110  21.444  23.102   4.562
48495W        W20111  28.370   2.090   3.305
48496W        W20112   7.892  35.680   1.197
48497W        W20113  13.078   3.411   4.548
48498W        W20114  24.542  14.864   1.728
48499W        W20115  23.549   3.758   0.324
48500W        W20116  18.008   8.357   2.789
48501W        W20117  26.524  44.404  14.756
48502W        W20118  17.799  10.156   3.160
48503W        W20119  10.306  21.438   9.902
48504W        W20120  33.964  20.630  10.883
48505W        W20121  36.009  17.297  13.022
48506W        W20122  12.429  42.090   3.313
48507W        W20123  18.104  10.516  13.396
48508W        W20124   6.985  10.895  13.929
48509W        W20125  33.669  12.101   3.949
48510W        W20126  27.781  38.422   3.809
48511W        W20127  43.608  43.310   3.652
48512W        W20128   4.691   1.334   3.261
48513W        W20129  37.589   5.354  14.211
48514W        W20130  11.228  36.487  10.738
48515W        W20131  16.534  25.999  11.940
48516W        W20132  21.786  16.709   2.671
48517W        W20133   7.725  12.190   0.852
48518W        W20134  41.110  37.959  13.729
48519W        W20135   7.320   9.140  14.449
48520W        W20136  24.778   2.015  14.839
48521W        W20137  16.325  44.910  13.867
48522W        W20138  30.894  32.008  13.824
48523W        W20139  26.616  32.360   4.742
48524W        W20140  43.534  44.934  12.468
48525W        W20141  33.091  40.881   3.672
48526W        W20142   2.256  41.080   1.764
48527W        W20143  14.143  36.473  12.020
48528W        W20144  28.521  43.284   1.191
48529W        W20145  37.469   9.939  12.587
48530W        W20146  34.341  39.870  14.134
48531W        W20147   3.426   5.711  13.559
48532W        W20148  28.546  14.018  13.024
48533W        W20149  41.546  24.220   1.706
48534W        W20150  37.748  33.231  11.323
48535W        W20151  18.967  21.078   3.206
48536W        W20152  25.475  20.150   1.685
48537W        W20153  40.218  37.557  11.444
48538W        W20154   6.632   4.596  12.132
48539W        W20155   9.410  16.261   2.962
48540W        W20156  41.251   8.777   2.734
48541W        W20157  40.285   3.902  12.097
48542W        W20158  35.526  31.612  11.556
48543W        W20159  36.072  20.627   4.110
48544W        W20160  20.506  21.459  10.370
48545W        W20161   5.368  11.258  10.654
48546W        W20162  35.158  38.146   1.433
48547W        W20163  34.436  23.059   3.236
48548W        W20164  29.853  16.465  13.606
48549W        W20165  18.292  29.565  10.786
48550W        W20166  36.073   2.006   3.619
48551W        W20167  13.502  39.523  11.387
48552W        W20168  36.881  42.404   3.103
48553W        W20169  14.313  24.261   0.786
48554W        W20170  20.575  18.781  12.865
48555W        W20171  27.883  35.006  12.946
48556W        W20172  20.179  39.594  13.597
48557W        W20173  37.458  39.832  13.408
48558W        W20174  44.519  44.785   0.546
48559W        W20175  34.372  14.622   1.258
48560W        W20176  37.881  37.803   3.802
48561W        W20177  32.008   6.193   5.004
48562W        W20178  32.123  33.867   4.787
48563W        W20179  31.600  39.648   2.341
48564W        W20180   3.421  44.227   5.077
48565W        W20181   5.538  32.444   4.513
48566W        W20182  44.908  10.902   0.483
48567W        W20183  44.981  28.727  12.002
48568W        W20184  30.106  20.736   3.371
48569W        W20185  34.979   0.206   0.450
48570W        W20186  14.778  35.019  13.510
48571W        W20187  13.313   5.237  13.009
48572W        W20188  37.453  14.796  13.070
48573W        W20189  44.474   8.202  14.150
48574W        W20190   9.358  21.126   1.507
48575W        W20191  42.315  35.572  13.062
48576W        W20192  35.727  20.722   2.845
48577W        W20193  10.634  15.613   4.518
48578W        W20194  19.021  30.504  14.866
48579W        W20195  25.548  13.071   2.780
48580W        W20196   5.381  21.695   2.925
48581W        W20197  19.260  24.693   4.051
48582W        W20198  13.054   1.713  10.989
48583W        W20199   6.232  19.046   4.553
48584W        W20200  13.746  19.556   0.313
48585W        W20201  38.321  19.682  14.497
48586W        W20202  25.692  16.546   2.886
48587W        W20203  37.959  37.331  11.930
48588W        W20204   0.406   8.286  12.090
48589W        W20205  34.385  18.856   1.393
48590W        W20206   6.962  38.623   2.330
48591W        W20207   4.427  22.243   5.527
48592W        W20208   9.718  27.093  13.356
48593W        W20209  20.955  30.874   2.585
48594W        W20210  45.000  12.723   1.741
48595W        W20211   7.726  23.808   3.578
48596W        W20212  20.286  15.124   1.338
48597W        W20213   1.393  23.570   1.230
48598W        W20214  37.961   5.287  12.459
48599W        W20215  24.051  25.138   2.449
48600W        W20216  31.817  43.257   4.308
48601W        W20217  44.511   9.837  11.451
48602W        W20218  23.977  39.801   4.209
48603W        W20219  17.275  31.190   3.702
48604W        W20220  24.944  33.429   3.312
48605W        W20221  41.173   6.642   2.158
48606W        W20222   7.423  23.742  13.527
48607W        W20223  34.974  26.029  13.499
48608W        W20224  13.534   9.667  13.317
48609W        W20225  29.344  40.471  13.518
48610W        W20226  32.434  26.587  13.936
48611W        W20227   1.472   6.640  14.960
48612W        W20228  42.456  42.507  14.452
48613W        W20229  17.990   6.192   0.396
48614W        W20230  28.721  43.963  12.577
48615W        W20231  30.486  27.962  13.471
48616W        W20232  33.637  25.306   1.669
48617W        W20233   8.420   6.869  11.080
48618W        W20234  36.002  25.644   4.536
48619W        W20235   0.137  27.539   1.961
48620W        W20236  44.017  27.185  12.584
48621W        W20237   6.717  38.014  14.358
48622W        W20238  44.493  27.128  11.400
48623W        W20239  22.792  16.740  13.646
48624W        W20240  20.328  26.017   1.401
48625W        W20241  38.337  26.048  13.104
48626W        W20242   7.950  43.423  14.004
48627W        W20243  17.608  35.625   0.982
48628W        W20244  33.015  43.972   3.574
48629W        W20245  32.359  20.168   1.760
48630W        W20246  22.121   9.846   2.366
48631W        W20247  43.938  43.398  13.512
48632W        W20248   1.392  39.568   4.132
48633W        W20249   0.661  13.308   5.094
48634W        W20250  37.098  24.827   3.219
48635W        W20251   7.861  33.783   3.307
48636W        W20252  44.953  10.247   3.095
48637W        W20253  18.191  18.457  14.867
48638W        W20254  40.023   9.892  14.866
48639W        W20255   5.544  44.559  13.923
48640W        W20256  44.273  40.069   2.109
48641W        W20257   7.791  43.936   4.169
48642W        W20258  43.321  23.503   3.597
48643W        W20259  40.448  14.098   0.838
48644W        W20260  25.896  18.331   1.389
48645W        W20261  17.518  34.465  10.550
48646W        W20262  30.665  17.119   4.637
48647W        W20263   1.648  15.320  13.373
48648W        W20264  20.022  38.869  13.499
48649W        W20265   9.283  40.396   5.003
48650W        W20266  18.728  38.652  13.036
48651W        W20267  35.879   5.668  14.671
48652W        W20268   5.262  35.850   2.455
48653W        W20269   3.886  27.986   0.339
48654W        W20270  11.145  38.971   2.227
48655W        W20271  25.167  43.176  14.977
48656W        W20272   7.495  43.035   2.900
48657W        W20273  39.652  26.988   0.146
48658W        W20274  19.044  20.112   3.600
48659W        W20275   7.843  28.466  12.863
48660W        W20276  42.041  18.544   4.642
48661W        W20277  15.638  34.811   9.723
48662W        W20278   8.839  17.765   2.749
48663W        W20279   0.908  34.573  10.803
48664W        W20280  36.905   3.252  10.822
48665W        W20281  35.384  40.543   2.754
48666W        W20282  30.646  10.531   1.524
48667W        W20283  29.480  31.042   1.720
48668W        W20284  14.183  37.989  11.543
48669W        W20285  23.155  15.222  11.444
48670W        W20286  30.816  15.291   2.453
48671W        W20287  23.754   7.779   1.831
48672W        W20288  16.684   2.620  10.837
48673W        W20289  32.412  13.126  12.395
48674W        W20290  21.636   5.744   0.236
48675W        W20291   3.184  34.168  13.006
48676W        W20292  26.070  21.692   1.506
48677W        W20293  22.565  25.728  12.880
48678W        W20294  25.652  10.372   2.220
48679W        W20295   1.800  18.067  12.552
48680W        W20296  36.406   8.661   1.034
48681W        W20297  27.384  27.504   1.424
48682W        W20298  41.418   4.032   3.982
48683W        W20299  41.993  26.958   3.903
48684W        W20300  21.628  35.492   2.009
48685W        W20301  17.525  17.004  13.046
48686W        W20302  36.161   9.946  14.009
48687W        W20303   8.439  38.780   0.032
48688W        W20304  39.794  18.151  14.915
48689W        W20305  31.857  21.306   0.267
48690W        W20306  11.735  42.764   4.282
48691W        W20307  34.868  24.029  10.142
48692W        W20308  37.784  12.823   1.379
48693W        W20309  15.323  32.360   2.305
48694W        W20310   2.810  32.710   1.298
48695W        W20311  11.893  22.486   0.793
48696W        W20312  27.758   5.567   0.715
48697W        W20313   9.080  12.759  12.595
48698W        W20314  31.482  36.416  12.035
48699W        W20315  17.731  25.067   2.798
48700W        W20316   3.768   2.820   4.317
48701W        W20317  22.087  20.726  14.852
48702W        W20318  37.862  30.564   4.578
48703W        W20319  29.044  15.192   0.953
48704W        W20320  15.254   5.264  11.971
48705W        W20321  19.115  24.252   0.445
48706W        W20322  21.089  25.536   0.489
48707W        W20323   1.945  25.074   2.649
48708W        W20324  29.724  28.653  11.260
48709W        W20325  43.684  43.902   1.341
48710W        W20326  17.691  34.031  14.400
48711W        W20327  20.902   6.332   1.864
48712W        W20328  29.066  17.684   2.399
48713W        W20329   1.688  37.090   1.099
48714W        W20330   4.752   5.621   3.196
48715W        W20331  19.814  39.629  14.374
48716W        W20332  31.513   4.068  14.818
48717W        W20333  16.307  35.371  11.608
48718W        W20334  31.388  25.015   0.495
48719W        W20335  28.923   6.543   2.737
48720W        W20336  27.210  32.208   2.818
48721W        W20337  24.681  28.603   3.414
48722W        W20338  32.153  28.916   4.611
48723W        W20339  19.793  26.573  13.742
48724W        W20340  28.466  35.529  12.585
48725W        W20341  42.544  39.406   0.647
48726W        W20342  16.854  20.624  13.900
48727W        W20343  30.349  33.121   1.084
48728W        W20344  20.211  20.472   1.916
48729W        W20345  37.412  19.151  10.945
48730W        W20346  31.336  15.482  13.031
48731W        W20347  26.020  26.673  13.970
48732W        W20348  28.583  13.741   0.444
48733W        W20349  36.770  16.779   3.813
48734W        W20350  31.992  15.321   0.401
48735W        W20351   8.265   2.319  10.980
48736W        W20352  10.001  26.968  11.111
48737W        W20353  26.263  25.159   5.098
48738W        W20354   0.760   5.504  11.958
48739W        W20355  41.589  35.118   1.170
48740W        W20356  16.679   6.766  10.659
48741W        W20357  17.925  32.099  14.860
48742W        W20358  26.337  36.884  12.979
48743W        W20359  18.065  34.354   0.935
48744W        W20360  30.918  30.940  10.835
48745W        W20361   8.900  12.106  14.765
48746W        W20362  18.498  20.731   1.459
48747W        W20363  29.599  30.532  13.610
48748W        W20364   4.979  40.354  12.551
48749W        W20365   9.119  39.239  13.736
48750W        W20366   8.724  10.892   0.779
48751W        W20367  16.131  29.737   2.388
48752W        W20368  33.917  17.570   3.384
48753W        W20369  27.589  26.739   0.394
48754W        W20370  25.375  26.247  11.647
48755W        W20371  15.906  44.420   4.571
48756W        W20372  14.009  16.130   3.673
48757W        W20373  44.215   2.442   3.890
48758W        W20374  37.369   5.399  11.386
48759W        W20375  34.232  28.404  12.992
48760W        W20376  22.159  37.380   0.540
48761W        W20377   3.409  42.732   1.281
48762W        W20378  31.386  38.157  14.751
48763W        W20379  41.879  33.862  13.304
48764W        W20380   6.716  26.772   2.881
48765W        W20381   3.803  26.265   3.274
48766W        W20382  38.950  42.059   1.237
48767W        W20383   0.357  42.223  11.769
48768W        W20384  20.556  10.819  14.852
48769W        W20385  40.401  21.784   2.135
48770W        W20386  29.423  21.066  13.888
48771W        W20387  15.125   5.444   1.119
48772W        W20388  14.905  40.317   4.633
48773W        W20389  30.374  41.155  12.608
48774W        W20390  27.170  17.738   0.792
48775W        W20391  37.569  20.867  11.777
48776W        W20392   7.479  13.917   2.779
48777W        W20393  26.135   7.272  14.264
48778W        W20394  15.991  32.394   1.044
48779W        W20395   6.351  14.122  13.701
48780W        W20396  33.101   4.467  14.553
48781W        W20397  18.068  39.639  13.972
48782W        W20398  21.539  17.809  11.340
48783W        W20399  16.464  19.652   3.130
48784W        W20400   1.653  22.641  12.403
48785W        W20401  43.201  23.636   0.271
48786W        W20402  16.277  40.731  14.080
48787W        W20403  10.799  26.306   3.711
48788W        W20404  43.636  17.990   2.052
48789W        W20405  13.676  28.507   1.931
48790W        W20406  39.030  15.020   4.335
48791W        W20407  40.616  42.860   4.160
48792W        W20408   4.606  36.104  14.391
48793W        W20409   8.513  13.206  11.200
48794W        W20410  26.616  32.773   4.403
48795W        W20411  43.887  35.466   2.898
48796W        W20412  28.399  23.213  14.021
48797W        W20413  17.557  18.204   5.001
48798W        W20414  27.433  25.223  14.829
48799W        W20415  11.770   9.868   1.220
48800W        W20416  32.462  35.627   0.879
48801W        W20417  32.652  39.812   2.645
48802W        W20418  16.091  38.317  13.981
48803W        W20419  29.483  19.856   5.011
48804W        W20420  35.939  19.862   3.679
48805W        W20421  13.100  17.328  13.365
48806W        W20422  10.320  13.658  12.988
48807W        W20423  37.993  34.775   1.490
48808W        W20424  24.016  17.041  10.508
48809W        W20425  36.719  15.961   1.415
48810W        W20426  32.648  35.420  12.209
48811W        W20427  34.585   0.815   1.254
48812W        W20428  10.166  29.690  14.444
48813W        W20429   9.364  38.016   0.539
48814W        W20430  24.451  43.783   4.663
48815W        W20431  35.490  35.988   0.977
48816W        W20432  19.576  29.498  14.777
48817W        W20433  42.839  38.928   5.007
48818W        W20434  26.560  13.253   2.569
48819W        W20435  31.122   3.532   2.391
48820W        W20436  25.714   1.676  14.087
48821W        W20437   0.693  14.266  11.862
48822W        W20438  40.427  44.108  12.516
48823W        W20439  18.749  31.357   2.640
48824W        W20440  40.708  43.772  14.874
48825W        W20441  23.447  26.559   3.204
48826W        W20442  20.121   9.843  13.192
48827W        W20443  21.626  15.347  12.416
48828W        W20444  22.515   0.941  14.825
48829W        W20445  12.455  22.387  14.332
48830W        W20446  40.095  38.551  12.322
48831W        W20447   2.298  40.231   1.453
48832W        W20448  41.745  32.558  11.059
48833W        W20449  38.904  38.870  13.858
48834W        W20450  11.299  18.889   1.732
48835W        W20451  44.608   8.839  12.897
48836W        W20452  21.651  43.248  12.337
48837W        W20453   0.967   8.867   4.564
48838W        W20454  14.763  29.125  14.341
48839W        W20455  30.174  16.002   2.767
48840W        W20456  41.789  43.051   2.783
48841W        W20457  12.654  13.830  10.690
48842W        W20458   5.244  18.862   4.854
48843W        W20459  42.970  43.921  11.028
48844W        W20460   8.839  10.099  12.163
48845W        W20461   3.289   2.754   4.136
48846W        W20462  26.025   5.005  12.944
48847W        W20463  15.347  18.340  11.473
48848W        W20464  38.518  13.582  14.928
48849W        W20465  12.678  33.514  11.069
48850W        W20466  14.885  32.047   0.577
48851W        W20467  26.684  37.737   3.573
48852W        W20468  13.726  30.995  14.792
48853W        W20469   2.858  33.491  11.776
48854W        W20470  42.909  43.964  12.086
48855W        W20471  34.680  14.629  13.369
48856W        W20472  29.008  28.162  13.570
48857W        W20473  18.726  34.916  13.293
48858W        W20474  35.402  43.066   0.787
48859W        W20475  39.506  32.987   4.580
48860W        W20476  39.397  23.054  11.593
48861W        W20477  26.430  23.247  11.544
48862W        W20478  37.903   9.935   0.836
48863W        W20479  26.440  32.663   1.863
48864W        W20480  22.269  10.182  14.983
48865W        W20481  40.794  16.050   2.700
48866W        W20482  37.371  15.546  10.719
48867W        W20483  32.019  24.679   0.800
48868W        W20484  17.056  30.547   2.636
48869W        W20485   1.662  22.811  13.301
48870W        W20486  36.062  15.566  14.410
48871W        W20487  44.703  33.551   0.055
48872W        W20488  18.620  27.175   1.024
48873W        W20489   8.554  14.138   1.768
48874W        W20490  10.925  38.885   4.131
48875W        W20491   9.402  37.070   4.500
48876W        W20492  12.310  36.873   0.761
48877W        W20493   0.498  32.308  12.507
48878W        W20494   7.748  35.191   1.071
48879W        W20495  44.222  16.422  10.795
48880W        W20496  27.075   9.092   4.538
48881W        W20497  44.932   7.599   0.892
48882W        W20498  29.096   5.208  14.853
48883W        W20499   9.554  20.680  12.370
48884W        W20500  20.695   4.984  12.465
48885W        W20501  28.100  34.892   1.826
48886W        W20502  40.283  24.307  12.832
48887W        W20503  39.528  39.025  14.345
48888W        W20504  20.186  24.145   2.124
48889W        W20505  16.033  39.901  12.283
48890W        W20506  22.361  33.152  10.557
48891W        W20507  31.947  36.685  10.811
48892W        W20508   2.801   9.656   3.787
48893W        W20509  32.548   3.835  14.581
48894W        W20510  12.219  40.271  14.486
48895W        W20511  40.057  21.667   4.260
48896W        W20512  38.679  37.533  10.271
48897W        W20513  39.021   4.938  10.788
48898W        W20514   3.983  23.660   0.553
48899W        W20515  42.363  10.150  13.942
48900W        W20516  29.142  19.165   3.818
48901W        W20517  31.123  15.884  13.315
48902W        W20518  31.899  10.879   1.364
48903W        W20519  25.365   3.818   4.772
48904W        W20520  31.982  29.722   3.925
48905W        W20521  13.870  41.793  12.011
48906W        W20522  39.571  14.661  10.529
48907W        W20523  38.624   4.308  13.340
48908W        W20524  41.510  19.251   3.804
48909W        W20525  29.602  38.041  11.122
48910W        W20526  44.472  17.853   2.448
48911W        W20527  38.089  43.089  11.830
48912W        W20528   3.956  12.121  14.339
48913W        W20529  23.660  30.907  12.114
48914W        W20530   9.331  32.182   0.954
48915W        W20531  31.608   1.143  12.448
48916W        W20532  32.186   6.955   1.939
48917W        W20533  31.114  38.895   2.805
48918W        W20534  14.310  21.875  11.554
48919W        W20535  19.786  34.965  12.270
48920W        W20536  33.876  10.661   0.536
48921W        W20537  25.039   0.164   1.590
48922W        W20538   1.803  37.032  14.082
48923W        W20539  43.016   5.726  14.501
48924W        W20540  43.826  24.724  14.877
48925W        W20541   5.000   5.405   0.966
48926W        W20542  28.883  29.694   4.228
48927W        W20543   9.089  31.388  10.697
48928W        W20544   4.394  37.564  10.576
48929W        W20545  23.180  18.323  14.395
48930W        W20546  12.731  41.980  14.373
48931W        W20547  34.055  26.582   3.649
48932W        W20548  42.807  12.116   1.451
48933W        W20549  21.599  24.060  13.455
48934W        W20550  14.810  24.534   2.605
48935W        W20551  43.353  43.006   2.838
48936W        W20552  17.684  30.704   1.250
48937W        W20553  18.535  21.681  14.756
48938W        W20554  15.073   5.004  11.572
48939W        W20555   0.275   1.937  12.507
48940W        W20556  37.925  44.022  11.206
48941W        W20557  17.795  10.972   0.173
48942W        W20558  22.570   5.932  12.987
48943W        W20559  30.423  19.157  11.895
48944W        W20560  23.933  15.927  11.624
48945W        W20561   3.072  27.651   4.663
48946W        W20562   2.592  19.299  13.795
48947W        W20563   1.676  44.675  14.375
48948W        W20564  31.560  35.514   1.796
48949W        W20565  32.171  16.507  12.394
48950W        W20566  44.202  36.836  13.203
48951W        W20567  34.208  17.695  14.013
48952W        W20568  41.026   7.868   0.053
48953W        W20569  39.465  29.482   1.165
48954W        W20570  38.724  13.441   1.192
48955W        W20571   7.953  34.571  13.892
48956W        W20572  40.877  39.566   1.265
48957W        W20573  44.607  10.723   9.947
48958W        W20574  41.229  14.340  10.651
48959W        W20575  11.324   7.721   0.247
48960W        W20576  44.694  28.384  13.367
48961W        W20577  18.252  17.143   1.940
48962W        W20578   6.420  23.767  14.400
48963W        W20579  21.400   9.072   2.751
48964W        W20580  18.061  39.058   0.489
48965W        W20581  11.509   7.192   3.076
48966W        W20582   9.848  21.106   2.681
48967W        W20583   4.127  27.228   0.080
48968W        W20584  12.068   1.348  12.418
48969W        W20585   6.164  22.222  12.503
48970W        W20586  17.340  18.082  14.405
48971W        W20587   9.629  14.082  10.870
48972W        W20588  41.044  38.966  12.478
48973W        W20589  12.351   0.557  12.664
48974W        W20590  42.994   0.889   1.903
48975W        W20591  44.899  30.527   1.421
48976W        W20592  31.717  22.298  11.478
48977W        W20593   2.485  28.550   2.423
48978W        W20594  24.134   2.876   2.151
48979W        W20595  14.067  27.041   1.648
48980W        W20596  27.554   8.431  12.818
48981W        W20597  28.324  24.781   0.204
48982W        W20598   9.414  25.616   2.121
48983W        W20599   8.806  34.244   0.483
48984W        W20600  20.311  26.560   2.642
48985W        W20601  24.763  42.938   3.098
48986W        W20602   6.206   0.719  11.485
48987W        W20603  20.695   0.744   0.898
48988W        W20604   2.015  24.013   2.775
48989W        W20605  29.400   1.276  12.531
48990W        W20606  20.251   0.520  14.466
48991W        W20607  41.585  40.763   4.455
48992W        W20608  38.595  14.835   0.374
48993W        W20609   1.209  35.887   4.788
48994W        W20610  35.880  24.586  13.820
48995W        W20611  35.437  12.717   3.373
48996W        W20612   3.464  38.429   2.908
48997W        W20613  34.462  29.192  14.473
48998W        W20614  26.050   7.325   1.447
48999W        W20615   2.680  44.297   0.919
49000W        W20616  35.321   3.325  10.712
49001W        W20617  31.116  21.139  10.540
49002W        W20618  31.231  43.798  12.444
49003W        W20619  21.546   7.561  12.496
49004W        W20620   7.248  10.201   5.059
49005W        W20621  29.705  12.641  11.202
49006W        W20622   2.503  28.440  11.896
49007W        W20623   2.006  42.957  14.474
49008W        W20624  28.696  39.316  11.171
49009W        W20625  41.178  41.444   1.270
49010W        W20626   1.837   3.953  14.933
49011W        W20627  41.377  40.384  10.707
49012W        W20628  27.986   6.233   1.345
49013W        W20629   3.286  41.013  10.910
49014W        W20630   7.110  13.613  12.288
49015W        W20631  39.743  25.106  13.374
49016W        W20632  23.009  30.179   1.104
49017W        W20633  25.727  36.115  14.746
49018W        W20634   5.862  29.863  13.048
49019W        W20635  12.646  10.169   1.785
49020W        W20636  32.591  28.615   0.343
49021W        W20637  37.888   0.729  12.132
49022W        W20638  34.078  42.793   1.838
49023W        W20639  32.987  13.781  10.627
49024W        W20640  22.218   7.510  13.058
49025W        W20641  40.328   5.778  13.346
49026W        W20642   7.290  15.731  13.872
49027W        W20643  26.265  27.882  14.386
49028W        W20644  42.592  13.915   5.076
49029W        W20645  12.748  39.081   1.332
49030W        W20646  12.124   5.426   0.469
49031W        W20647  19.766  18.263   2.297
49032W        W20648  41.343  19.388   0.910
49033W        W20649  29.954  36.682  11.173
49034W        W20650  25.162   2.822   4.674
49035W        W20651  32.955  17.002   1.013
49036W        W20652  22.154   0.161   2.551
49037W        W20653  32.035   0.174  10.638
49038W        W20654   5.031  25.935  13.543
49039W        W20655   8.726  37.461   0.020
49040W        W20656  28.071  32.109   4.737
49041W        W20657  28.088  38.070  11.216
49042W        W20658  14.021   0.014   1.222
49043W        W20659   6.611   9.095  14.990
49044W        W20660  25.169   7.143  11.590
49045W        W20661   6.483   4.341   4.684
49046W        W20662  12.264  27.368   1.074
49047W        W20663  38.011  37.556   4.829
49048W        W20664  26.475  43.570  12.472
49049W        W20665   1.762  25.177  13.789
49050W        W20666  37.652  35.094  12.516
49051W        W20667   3.549  30.021   2.984
49052W        W20668  17.271   2.156   5.364
49053W        W20669  25.995  36.559   3.620
49054W        W20670  17.035  37.409  14.406
49055W        W20671  30.526  26.883   4.172
49056W        W20672   8.609  29.520   5.092
49057W        W20673  29.922  44.466  12.347
49058W        W20674  39.794  30.393   0.858
49059W        W20675  29.032  38.325   2.687
49060W        W20676  34.885  43.889   1.672
49061W        W20677   6.279  28.939   3.182
49062W        W20678  21.519  29.666   2.634
49063W        W20679   4.001  20.697  10.537
49064W        W20680  26.418   9.778  11.933
49065W        W20681   2.712  38.733  12.347
49066W        W20682  23.207  43.382   3.825
49067W        W20683  24.557  43.737  10.648
49068W        W20684  44.937  21.304  10.984
49069W        W20685   8.625  13.739  11.693
49070W        W20686  16.366  31.080   2.491
49071W        W20687  29.210  20.982  11.928
49072W        W20688  22.174  41.480   0.291
49073W        W20689  28.011  36.365  14.539
49074W        W20690  37.896  17.828   1.955
49075W        W20691  43.502  36.457  13.560
49076W        W20692  14.579   3.102   9.803
49077W        W20693  28.266  29.951   1.861
49078W        W20694  43.646  27.821  10.157
49079W        W20695  10.163   3.413  11.505
49080W        W20696   0.296   0.437  13.890
49081W        W20697  42.014  27.452  13.372
49082W        W20698  40.177  33.266   2.660
49083W        W20699  19.010  18.215   0.261
49084W        W20700   8.668  17.099  12.668
49085W        W20701  34.820   1.971  12.465
49086W        W20702  30.347  23.773   1.218
49087W        W20703  32.357  25.227   3.579
49088W        W20704  22.708  15.247  13.455
49089W        W20705  13.033   7.045   1.278
49090W        W20706  10.099  35.030  11.665
49091W        W20707  40.618  21.939  10.830
49092W        W20708  16.125   7.641  13.280
49093W        W20709  44.863  23.643   4.886
49094W        W20710  33.208  40.415  12.613
49095W        W20711  35.341  25.207  13.355
49096W        W20712  12.869  33.178   1.707
49097W        W20713  24.252  11.359   2.719
49098W        W20714  24.170  14.083  12.355
49099W        W20715  29.661  14.555   0.732
49100W        W20716   6.226   2.575  10.989
49101W        W20717  11.074  10.599   3.599
49102W        W20718  43.324  38.592   2.872
49103W        W20719  16.860  25.397   1.405
49104W        W20720  31.626  33.599  14.763
49105W        W20721  24.965  19.278   2.340
49106W        W20722   9.644  26.501   3.290
49107W        W20723  35.331  11.276  13.890
49108W        W20724  28.029  24.904  13.452
49109W        W20725   7.774  40.908   0.032
49110W        W20726  21.197   5.655   0.542
49111W        W20727  13.082  23.510  14.751
49112W        W20728  15.147  38.051   0.569
49113W        W20729  35.806  33.385   2.082
49114W        W20730  32.484  38.745  14.015
49115W        W20731   4.638  19.090   1.730
49116W        W20732  26.057  16.599  11.866
49117W        W20733  22.814  30.927   0.547
49118W        W20734  16.245  34.889  12.417
49119W        W20735  41.045  16.587   3.536
49120W        W20736   4.332  37.354   4.584
49121W        W20737   5.793  38.972   3.378
49122W        W20738  32.431  11.109  10.815
49123W        W20739  17.937  16.539   2.248
49124W        W20740   4.195  13.834  12.513
49125W        W20741   0.375  23.016   3.745
49126W        W20742  19.947   9.245  14.768
49127W        W20743  35.621   5.111   3.994
49128W        W20744   5.413  41.283   0.004
49129W        W20745  28.547  24.497   3.635
49130W        W20746  37.563   1.449   4.158
49131W        W20747   2.920  41.445   0.160
49132W        W20748  26.417  15.706   3.708
49133W        W20749  41.256  41.356   2.199
49134W        W20750  21.064  12.929  12.406
49135W        W20751  36.439   6.471   0.349
49136W        W20752  41.721  24.708  13.814
49137W        W20753   8.502  12.228   1.391
49138W        W20754  28.190  33.742  14.812
49139W        W20755  44.882  10.698   1.418
49140W        W20756   1.458   9.424  13.870
49141W        W20757  10.575   0.493   3.294
49142W        W20758  44.843  42.568   0.964
49143W        W20759  26.687  10.170  12.955
49144W        W20760  10.863  15.990   4.225
49145W        W20761  42.944  40.597   2.854
49146W        W20762  15.196  37.626  13.962
49147W        W20763  21.031  20.016  14.779
49148W        W20764   9.202  25.496   2.577
49149W        W20765  36.809  22.575  14.175
49150W        W20766   9.779  23.858   3.736
49151W        W20767  38.870  24.316   1.345
49152W        W20768  10.812   7.888   1.368
49153W        W20769   0.971  39.022  12.027
49154W        W20770  37.333   5.326  12.922
49155W        W20771  36.551  42.762   2.429
49156W        W20772  16.645  28.021  14.427
49157W        W20773  38.790  24.114   4.010
49158W        W20774  26.329   1.592  14.783
49159W        W20775  26.762  35.280  13.933
49160W        W20776  11.192  23.019   0.349
49161W        W20777  41.748  43.423  12.801
49162W        W20778  24.293  31.027  10.922
49163W        W20779  23.522  19.472   3.820
49164W        W20780  39.293  29.032  14.442
49165W        W20781   0.605  43.487   2.616
49166W        W20782  17.522  39.592   4.341
49167W        W20783  27.963   4.252   4.186
49168W        W20784   5.268  20.567   4.549
49169W        W20785  12.837  43.363  13.864
49170W        W20786  10.263  38.312  11.908
49171W        W20787  20.009   1.740  11.177
49172W        W20788  12.617  26.126   0.855
49173W        W20789   6.424  25.167  12.881
49174W        W20790   3.830  38.274   0.971
49175W        W20791   3.051  34.136   1.767
49176W        W20792  25.517  15.667   1.632
49177W        W20793  34.164  29.876   3.627
49178W        W20794  43.925  37.643   0.249
49179W        W20795  39.221  41.163  12.848
49180W        W20796  27.442   4.090   4.334
49181W        W20797  19.329  14.232  12.974
49182W        W20798  42.022  42.002   2.107
49183W        W20799  26.392  12.803   1.452
49184W        W20800  18.647   2.232   1.333
49185W        W20801  43.354  35.150   1.399
49186W        W20802  16.346  21.668  13.103
49187W        W20803  38.827  44.116  14.015
49188W        W20804   8.158  42.860   2.289
49189W        W20805  31.633  38.832  14.286
49190W        W20806  21.210  32.516   4.729
49191W        W20807  38.356   7.778  11.185
49192W        W20808  38.510  11.402   0.219
49193W        W20809   9.663  33.410  14.399
49194W        W20810  17.278  41.711   0.540
49195W        W20811   2.218  29.012  13.422
49196W        W20812  38.342  33.356   2.686
49197W        W20813  39.863  17.288   2.435
49198W        W20814  23.090  10.213   0.708
49199W        W20815  15.850  21.222  14.474
49200W        W20816  17.532  43.272   3.612
49201W        W20817  28.080  17.639  10.398
49202W        W20818  40.953  33.991   0.337
49203W        W20819   5.326  30.648   2.701
49204W        W20820   1.304  16.587  14.540
49205W        W20821   0.230   5.366   1.255
49206W        W20822   5.853  16.673  13.910
49207W        W20823  24.732   0.547   3.025
49208W        W20824   1.825  43.072  10.103
49209W        W20825  39.780  26.423  14.201
49210W        W20826  37.931   5.720   1.224
49211W        W20827  21.509  36.637  14.004
49212W        W20828  24.610  30.059   2.620
49213W        W20829  22.453   4.397   1.815
49214W        W20830  41.516   0.727  10.731
49215W        W20831  31.981   6.219  14.855
49216W        W20832  14.094  38.084  11.035
49217W        W20833  12.160  39.916   1.205
49218W        W20834   3.916  11.814   1.137
49219W        W20835   5.231  29.136  11.036
49220W        W20836   7.803   8.899   4.133
49221W        W20837  30.893  35.450   3.307
49222W        W20838  28.504  30.185   2.369
49223W        W20839  33.045  29.419  10.048
49224W        W20840  15.260  31.357   2.131
49225W        W20841  31.406  12.662   3.629
49226W        W20842  17.461   3.242   2.257
49227W        W20843  10.809  40.151   1.864
49228W        W20844  16.065   0.274  14.871
49229W        W20845  38.497   2.915  14.268
49230W        W20846   0.235  39.969   4.742
49231W        W20847  12.763  26.578   2.210
49232W        W20848  26.587  15.277  12.939
49233W        W20849  12.626  10.198   2.856
49234W        W20850  24.085  17.328   0.185
49235W        W20851  41.968  15.212   3.259
49236W        W20852  27.593  29.089  13.308
49237W        W20853  22.388  35.998   0.305
49238W        W20854  40.764  30.635   3.731
49239W        W20855  19.276  34.928  12.343
49240W        W20856   7.705  19.471  11.988
49241W        W20857   0.474  24.892  10.710
49242W        W20858  20.696  30.650  10.640
49243W        W20859  44.547  42.751  14.998
49244W        W20860  44.496  14.438   0.375
49245W        W20861   4.186   6.790  13.310
49246W        W20862   0.576  21.725  12.910
49247W        W20863  11.863   8.788   4.605
49248W        W20864  16.970  14.760  11.510
49249W        W20865   7.685  42.991   1.470
49250W        W20866  10.301   1.941  13.800
49251W        W20867  28.150  10.390   4.871
49252W        W20868  15.616   1.944   2.222
49253W        W20869  24.764  33.197  13.937
49254W        W20870  19.605  36.563   4.330
49255W        W20871  39.721  12.618   4.538
49256W        W20872  20.785  22.053   3.263
49257W        W20873  27.860  42.849  12.572
49258W        W20874  42.500   0.389  13.545
49259W        W20875  12.661  17.285  14.790
49260W        W20876  35.502   8.706   2.300
49261W        W20877  26.864   1.185  13.140
49262W        W20878  25.096   5.784  13.433
49263W        W20879  10.124  37.546   3.241
49264W        W20880  29.183  14.130  14.075
49265W        W20881   9.618  31.563   0.186
49266W        W20882   5.359  42.296  13.868
49267W        W20883  37.070  18.625  13.372
49268W        W20884  25.062  36.420  13.119
49269W        W20885  40.403  38.307  13.325
49270W        W20886  41.388   7.128  13.430
49271W        W20887  25.225  28.366   4.187
49272W        W20888  35.105  25.153   3.251
49273W        W20889   7.488  40.110  14.511
49274W        W20890  17.502  40.439   4.354
49275W        W20891   2.007  15.343   0.311
49276W        W20892  24.406  43.487   0.214
49277W        W20893  11.410  29.214   1.663
49278W        W20894  27.899  33.562   0.223
49279W        W20895  34.068  19.063   2.825
49280W        W20896   1.780  25.935  12.399
49281W        W20897  15.328  24.935  11.579
49282W        W20898  36.769  29.630   1.303
49283W        W20899   4.926   6.958  11.077
49284W        W20900  15.162  27.450  14.109
49285W        W20901  10.730   7.635  11.992
49286W        W20902  33.269  28.106  10.382
49287W        W20903  25.043  17.645  13.884
49288W        W20904   1.364  36.093   2.182
49289W        W20905  44.479  15.529  13.375
49290W        W20906  18.205  13.309  14.400
49291W        W20907   8.469  23.298  13.109
49292W        W20908  44.956  19.744   4.893
49293W        W20909  16.615   6.695  11.191
49294W        W20910   7.462  42.788  11.178
49295W        W20911   2.682  13.925  10.928
49296W        W20912  27.781  32.456  10.733
49297W        W20913  40.030   9.368   1.896
49298W        W20914  33.514   8.718  13.188
49299W        W20915   5.970  29.014   0.357
49300W        W20916  14.294   1.533   3.160
49301W        W20917  41.023  36.884  12.227
49302W        W20918  30.673  26.515   4.618
49303W        W20919   7.771  13.357  10.645
49304W        W20920   5.910  12.662   2.389
49305W        W20921  30.296  20.296   2.662
49306W        W20922  26.561  13.479  10.296
49307W        W20923  32.918  15.058  12.605
49308W        W20924  18.652  39.713  12.848
49309W        W20925  15.622  38.522   3.209
49310W        W20926  14.249   8.414   5.093
49311W        W20927  15.089   1.281   3.719
49312W        W20928   5.171  29.256  12.500
49313W        W20929  43.444   5.255  11.565
49314W        W20930   7.203   5.433  11.953
49315W        W20931  27.497  34.749   3.755
49316W        W20932   6.463  15.126   0.876
49317W        W20933   6.275   3.531   2.953
49318W        W20934   7.969  34.008   0.016
49319W        W20935  10.172  28.693   2.915
49320W        W20936  25.440  16.313   4.175
49321W        W20937   9.196  22.063  10.753
49322W        W20938   3.838  40.141  13.348
49323W        W20939  37.950   7.873  12.783
49324W        W20940  15.156  38.297   3.251
49325W        W20941  31.450  24.761   1.592
49326W        W20942  40.187  10.816   5.620
49327W        W20943  39.431   7.221  13.600
49328W        W20944  22.764  40.252  12.953
49329W        W20945  25.555  15.537   0.765
49330W        W20946  38.910   8.042  14.488
49331W        W20947  15.191  10.677  14.359
49332W        W20948  11.672   8.458  12.900
49333W        W20949  43.819  19.307   4.886
49334W        W20950  13.806  12.591   3.730
49335W        W20951   6.543  15.258   4.082
49336W        W20952  31.455   5.105   1.872
49337W        W20953  33.375  39.409  10.092
49338W        W20954  38.055  15.963   1.368
49339W        W20955  24.722   8.040   4.262
49340W        W20956   6.217  34.070   2.377
49341W        W20957   9.208  13.464   3.597
49342W        W20958  30.700  20.472  14.787
49343W        W20959  13.136   0.069   1.251
49344W        W20960  17.758   4.331   1.285
49345W        W20961  42.623  10.445   1.996
49346W        W20962   5.356  36.567   4.230
49347W        W20963  18.312  10.239  10.922
49348W        W20964  32.567  20.038   2.639
49349W        W20965  17.256  41.703   1.197
49350W        W20966  23.834  36.389  11.618
49351W        W20967   2.828  12.553  11.879
49352W        W20968  14.403  13.734   3.583
49353W        W20969  17.077   4.212  12.895
49354W        W20970  37.244   4.907  12.135
49355W        W20971   1.865  24.766   0.106
49356W        W20972  32.635  17.551  14.501
49357W        W20973   4.825  16.567  10.455
49358W        W20974  21.984  25.505   1.831
49359W        W20975  34.874  13.346  13.996
49360W        W20976  44.977  19.520   0.907
49361W        W20977  19.298  35.890   3.884
49362W        W20978  16.022  25.708   2.916
49363W        W20979  16.454  26.993   2.846
49364W        W20980  27.739  16.311   9.785
49365W        W20981  41.069   7.148   0.456
49366W        W20982  19.277  23.500  10.926
49367W        W20983   1.725   8.211   2.824
49368W        W20984   3.294   9.130   4.120
49369W        W20985  27.054  39.733  10.932
49370W        W20986  30.612  32.351   2.732
49371W        W20987  43.912  31.086   2.852
49372W        W20988  27.916   6.521   4.998
49373W        W20989  40.361  25.499   4.608
49374W        W20990   3.279   1.028  10.247
49375W        W20991  37.616  11.128  10.226
49376W        W20992  19.115   2.108   1.713
49377W        W20993  11.724  36.617   0.432
49378W        W20994  18.620  26.217   0.857
49379W        W20995  24.084   6.452   2.691
49380W        W20996  12.463   9.275   3.147
49381W        W20997   3.433   3.762  11.016
49382W        W20998   4.680   7.456   0.308
49383W        W20999   2.491  44.301   0.330
49384W        W21000  12.346  17.724   1.194
49385W        W21001   7.865  38.506   1.252
49386W        W21002   1.906   9.193   1.565
49387W        W21003  36.069  32.815  13.173
49388W        W21004  21.077  30.526  12.877
49389W        W21005  33.990  43.750   2.636
49390W        W21006   1.814  19.309  11.153
49391W        W21007   8.432  15.768   3.910
49392W        W21008  24.219  34.642  11.261
49393W        W21009   3.871   7.552  13.557
49394W        W21010  13.672  35.854   1.313
49395W        W21011   4.190  33.856   0.038
49396W        W21012  41.773  28.210  11.545
49397W        W21013  44.403  37.325  12.959
49398W        W21014  14.402  31.176   0.097
49399W        W21015   5.862  28.662   3.642
49400W        W21016  40.997  37.562  14.885
49401W        W21017  39.450  39.399   4.634
49402W        W21018   4.847  27.590   1.985
49403W        W21019  15.972   8.697  10.745
49404W        W21020  16.236  15.752   1.898
49405W        W21021  40.284   3.953   2.459
49406W        W21022  14.848   7.038  13.315
49407W        W21023  30.069  16.934  13.455
49408W        W21024  15.551  31.098  12.507
49409W        W21025  32.526  20.877  12.297
49410W        W21026  18.791  31.780  11.626
49411W        W21027  25.964  24.380  13.443
49412W        W21028  19.804  18.161   4.930
49413W        W21029  32.587  13.564  14.293
49414W        W21030  25.579  42.944   1.391
49415W        W21031  19.472  41.015   3.065
49416W        W21032  32.036   7.038   3.830
49417W        W21033  39.606  20.660   2.774
49418W        W21034  10.849  16.798   2.401
49419W        W21035  25.888   2.450   0.361
49420W        W21036  44.411  18.029   3.803
49421W        W21037  43.773  15.288  13.693
49422W        W21038  14.523  38.877  13.417
49423W        W21039   5.914  40.744  13.358
49424W        W21040  39.364  19.110  11.524
49425W        W21041  30.160  18.317  14.386
49426W        W21042  30.981  12.623  13.108
49427W        W21043  22.591  37.034   3.265
49428W        W21044   7.119  33.425   2.436
49429W        W21045  42.763  41.086   3.698
49430W        W21046  41.542  29.532  14.942
49431W        W21047  42.506  12.709  14.181
49432W        W21048  21.956  43.269   1.821
49433W        W21049  34.697  11.683  14.505
49434W        W21050  26.198  16.721   3.399
49435W        W21051   6.330  14.632  13.841
49436W        W21052   3.689   4.192  14.200
49437W        W21053  39.827   7.267  14.899
49438W        W21054  12.662  12.886  14.019
49439W        W21055  18.313   4.673   2.859
49440W        W21056  10.257  20.795  13.037
49441W        W21057  33.447  39.815  10.748
49442W        W21058  15.720  20.824   2.343
49443W        W21059  10.769   9.770  12.766
49444W        W21060  28.448   2.682  11.674
49445W        W21061  15.312  17.265  14.733
49446W        W21062   0.081   7.620  14.417
49447W        W21063  42.077  12.691   1.764
49448W        W21064  27.467  31.373  10.674
49449W        W21065  34.599  31.509  10.328
49450W        W21066  11.829  34.425  13.338
49451W        W21067   2.297  11.227   1.223
49452W        W21068   1.907  43.270   0.796
49453W        W21069  24.463  17.517  13.148
49454W        W21070  10.144  35.637   0.447
49455W        W21071  15.894  40.529   2.979
49456W        W21072  15.644   9.632  12.001
49457W        W21073  37.106  44.854  13.062
49458W        W21074  29.914  36.022   2.891
49459W        W21075  42.742   7.792  11.178
49460W        W21076   7.283  22.216   3.299
49461W        W21077  20.297   6.291  14.382
49462W        W21078  18.280  27.414  12.914
49463W        W21079  14.930   1.343   1.362
49464W        W21080  27.900  33.635  11.982
49465W        W21081  34.105   2.880   3.237
49466W        W21082   3.298   3.256   4.220
49467W        W21083  14.509   8.932   3.611
49468W        W21084  10.757   8.436   0.501
49469W        W21085   2.726  16.833   0.346
49470W        W21086   4.618  27.125  13.939
49471W        W21087   0.922  40.625  13.785
49472W        W21088  34.119  28.957  11.705
49473W        W21089  23.009  39.491   3.652
49474W        W21090  10.597  18.369   4.019
49475W        W21091  42.912  36.044   3.651
49476W        W21092  28.146  32.991   2.655
49477W        W21093  21.927   3.903  13.774
49478W        W21094   6.938  36.376   2.374
49479W        W21095  24.152   8.176  13.059
49480W        W21096  24.206   6.765   0.295
49481W        W21097   6.404  42.319   2.481
49482W        W21098   7.216   2.535  12.663
49483W        W21099  23.032  31.156  13.798
49484W        W21100  13.960   8.116  12.585
49485W        W21101   1.121  26.385  11.978
49486W        W21102  34.480   2.464  12.087
49487W        W21103  18.143  41.020  12.269
49488W        W21104  39.846  34.642   1.644
49489W        W21105  25.005   0.657   1.714
49490W        W21106  40.955  14.199   0.749
49491W        W21107  18.262  10.828  13.005
49492W        W21108  26.444  18.061   4.456
49493W        W21109   5.658  38.911  11.989
49494W        W21110  22.777  23.405   3.288
49495W        W21111  15.672  43.803   0.960
49496W        W21112  26.399  13.819   3.690
49497W        W21113  42.724  24.200  12.122
49498W        W21114  41.773  16.709   4.531
49499W        W21115  37.198   1.571  10.152
49500W        W21116  12.304  24.613  10.668
49501W        W21117  24.943  15.084  11.292
49502W        W21118  18.769  17.639  10.120
49503W        W21119  32.565  43.036  11.556
49504W        W21120  41.926  36.958   1.710
49505W        W21121  31.239   6.177   2.686
49506W        W21122  20.569  42.767   0.836
49507W        W21123  24.584  34.561  11.647
49508W        W21124   1.296  16.215  11.476
49509W        W21125  38.895  39.809   1.799
49510W        W21126  31.506  32.564  14.911
49511W        W21127  31.032  38.361   2.159
49512W        W21128   9.764   9.974   0.467
49513W        W21129  20.800  24.015  13.053
49514W        W21130  34.195  24.676  10.606
49515W        W21131   1.476  25.557  12.554
49516W        W21132  10.366  20.216   4.093
49517W        W21133  42.629  26.513  10.905
49518W        W21134  18.962  15.713  11.139
49519W        W21135  26.767   5.205   4.579
49520W        W21136  43.400  38.201   4.865
49521W        W21137  12.169   4.425   0.723
49522W        W21138  20.591   2.990   4.595
49523W        W21139  42.891  18.221   0.575
49524W        W21140  29.584  40.993   2.340
49525W        W21141   6.415  17.794  14.523
49526W        W21142  14.780  18.683  14.944
49527W        W21143   1.822  18.125  10.513
49528W        W21144  19.951  22.136   0.962
49529W        W21145  18.721  30.889   4.079
49530W        W21146  39.924  17.125   0.582
49531W        W21147  44.350  25.936  13.301
49532W        W21148  25.514  44.108   0.797
49533W        W21149  18.729   4.395  10.659
49534W        W21150  14.243  29.089  10.973
49535W        W21151   5.169   0.456   5.510
49536W        W21152  12.682  35.092   0.908
49537W        W21153  40.340  14.265   0.331
49538W        W21154  15.529  41.853  11.529
49539W        W21155  38.968  14.153  14.141
49540W        W21156  23.036  11.736   0.326
49541W        W21157  39.311  24.690   0.483
49542W        W21158   5.646  16.556   3.179
49543W        W21159  23.880  32.496   4.208
49544W        W21160  22.738  12.656  14.563
49545W        W21161   3.357   5.248  12.431
49546W        W21162  24.139  23.615   3.847
49547W        W21163  42.919  24.333  12.566
49548W        W21164  19.971   6.257   0.136
49549W        W21165  14.444   9.838   1.409
49550W        W21166  33.069  27.024   3.235
49551W        W21167  21.287  42.336  14.993
49552W        W21168  44.276   8.147   3.291
49553W        W21169  11.595  44.427  10.717
49554W        W21170  33.600  39.327   3.665
49555W        W21171   1.461  26.069  14.800
49556W        W21172   0.700  16.679  12.411
49557W        W21173  31.439  34.773   2.928
49558W        W21174   0.456  31.484  11.260
49559W        W21175  43.930  12.874  10.782
49560W        W21176   7.828  25.291  10.324
49561W        W21177  30.046  27.430  14.651
49562W        W21178  32.820   0.758  13.751
49563W        W21179  42.784  20.087   1.034
49564W        W21180  32.127  31.333  11.026
49565W        W21181  19.050  12.386  14.268
49566W        W21182  14.297   9.303  13.301
49567W        W21183  14.777   4.473  12.625
49568W        W21184  34.534  29.451  11.106
49569W        W21185  28.932  34.505  13.527
49570W        W21186  30.566  21.723   0.480
49571W        W21187   6.637  30.572   2.708
49572W        W21188  14.843   4.190   2.251
49573W        W21189  44.053  40.943   3.978
49574W        W21190   8.659  34.179  10.571
49575W        W21191   3.386   4.818   2.776
49576W        W21192  18.063  23.194  11.434
49577W        W21193  12.127  41.442   2.191
49578W        W21194  42.056  42.509   2.289
49579W        W21195  26.709  11.111  11.912
49580W        W21196  22.726  22.651   0.917
49581W        W21197   0.376  29.916   0.441
49582W        W21198  16.258  14.514  10.988
49583W        W21199  37.394  15.155  12.599
49584W        W21200  29.910  15.841  14.456
49585W        W21201   7.898   6.940   1.612
49586W        W21202  28.641  26.063  13.545
49587W        W21203   6.076   1.839   1.760
49588W        W21204  11.289  23.750   4.115
49589W        W21205  21.116  14.138   2.468
49590W        W21206  39.971  44.390  14.798
49591W        W21207   5.690  33.200   0.967
49592W        W21208  29.522  35.609  11.885
49593W        W21209  38.218   9.673   4.713
49594W        W21210  42.054  32.605   0.884
49595W        W21211  27.466  26.789  13.917
49596W        W21212  19.728  33.444  14.354
49597W        W21213   8.466  34.587   2.072
49598W        W21214  34.942  31.102  11.068
49599W        W21215  27.964  25.129   4.632
49600W        W21216  22.073  26.168  14.004
49601W        W21217  26.084  28.433   3.672
49602W        W21218  38.406  42.075  13.504
49603W        W21219  15.297  39.399  12.424
49604W        W21220   5.930   7.252   1.435
49605W        W21221  42.839  38.075   0.350
49606W        W21222  14.477  27.283   4.132
49607W        W21223  41.515  35.815   0.697
49608W        W21224   1.901  24.031  13.039
49609W        W21225  31.556  24.677   2.615
49610W        W21226  21.770  43.489  13.716
49611W        W21227  38.561  24.101   1.707
49612W        W21228   9.128  43.557   2.242
49613W        W21229  21.615  12.659  13.525
49614W        W21230  17.137  29.376   4.963
49615W        W21231  10.229   5.435   3.607
49616W        W21232  11.549  19.762  14.043
49617W        W21233  13.772  44.067   3.755
49618W        W21234  29.389  11.488   3.610
49619W        W21235  16.731  28.678   0.246
49620W        W21236   6.787  12.278   3.286
49621W        W21237  33.511  12.834  11.677
49622W        W21238  36.305  42.331   1.878
49623W        W21239  20.678  29.324  12.514
49624W        W21240  39.994   8.716  11.528
49625W        W21241  24.159  15.063   3.658
49626W        W21242  30.897   1.864   4.095
49627W        W21243  11.755   5.841   2.041
49628W        W21244  14.791  33.092   5.385
49629W        W21245  29.087  19.002   1.853
49630W        W21246  22.492  14.115   3.356
49631W        W21247  32.771  35.738  12.625
49632W        W21248  26.506   9.863  13.320
49633W        W21249  39.548  29.695  13.802
49634W        W21250  18.614   8.783   4.631
49635W        W21251   5.738  30.820   0.853
49636W        W21252   9.217  27.369  14.533
49637W        W21253  29.595   9.494   3.801
49638W        W21254  23.625  28.956   0.178
49639W        W21255  24.542  27.609  11.066
49640W        W21256  16.143  13.107   0.013
49641W        W21257  21.066  32.177   3.743
49642W        W21258  30.810  20.989   3.822
49643W        W21259   2.721  33.607   3.297
49644W        W21260   0.669  33.795   4.190
49645W        W21261  19.646  33.446  13.365
49646W        W21262  43.828  32.458   4.555
49647W        W21263  15.105  29.945  13.614
49648W        W21264   7.923  38.466  13.986
49649W        W21265  22.508  28.154  13.942
49650W        W21266  20.172   3.434  12.833
49651W        W21267  29.469  44.532   4.137
49652W        W21268  24.488  14.578   0.856
49653W        W21269  24.741  38.031   2.721
49654W        W21270  29.921  21.021   3.768
49655W        W21271  36.692  26.505  11.049
49656W        W21272  13.857   1.441   1.422
49657W        W21273  24.001  44.975   0.333
49658W        W21274  19.790   9.301   0.258
49659W        W21275   4.487  39.748  11.950
49660W        W21276  29.188  15.503   5.452
49661W        W21277  15.744  17.455   2.496
49662W        W21278   2.996  33.803  10.496
49663W        W21279  38.673   9.887  10.040
49664W        W21280  33.199  39.046   3.839
49665W        W21281   8.859  39.862  10.995
49666W        W21282   5.673   6.599  14.384
49667W        W21283  11.980   9.365  14.515
49668W        W21284  11.138   8.304   1.869
49669W        W21285  21.923  30.460  12.869
49670W        W21286   6.915   1.891  14.850
49671W        W21287  35.279  30.861   2.757
49672W        W21288  25.703  43.183   4.572
49673W        W21289  35.480   4.166   4.580
49674W        W21290  26.508  20.762   0.851
49675W        W21291  33.856   9.811  10.356
49676W        W21292  21.629   3.397   2.283
49677W        W21293   9.659  36.528  12.322
49678W        W21294  27.975  28.382  11.566
49679W        W21295  29.536  19.102  13.000
49680W        W21296  44.415  39.558  10.745
49681W        W21297  21.002  20.728   2.708
49682W        W21298  43.044  23.814   3.258
49683W        W21299   5.284   1.208  10.383
49684W        W21300  32.714  39.242  11.229
49685W        W21301  31.342  24.395  14.744
49686W        W21302  20.971  38.341   3.735
49687W        W21303  27.392   1.442   4.589
49688W        W21304  36.597  37.861   0.387
49689W        W21305  22.527   4.266  14.823
49690W        W21306  34.545  23.541   2.820
49691W        W21307  44.392   5.025  14.984
49692W        W21308  15.039   6.980   9.751
49693W        W21309  36.440  17.290  11.171
49694W        W21310  44.321  24.159   2.396
49695W        W21311  15.103  37.145  12.623
49696W        W21312  38.799  25.474  11.008
49697W        W21313  15.862  11.632  14.307
49698W        W21314  17.789  12.900  11.624
49699W        W21315  36.847  29.490  12.986
49700W        W21316  29.671  32.329   2.790
49701W        W21317  17.572  32.161  12.419
49702W        W21318  32.026  30.162  10.338
49703W        W21319   6.918   8.605  11.473
49704W        W21320   5.734  38.334   2.816
49705W        W21321  34.861  33.625   1.440
49706W        W21322   0.383   0.014  11.532
49707W        W21323  22.451   1.389   1.451
49708W        W21324  33.569  29.684   0.266
49709W        W21325  13.536  40.920  14.950
49710W        W21326  44.007  23.900   4.773
49711W        W21327  34.120   3.246   4.718
49712W        W21328  40.100   2.719   4.194
49713W        W21329  39.950  21.962  11.144
49714W        W21330  25.248  31.439   2.446
49715W        W21331  41.534  31.840  14.885
49716W        W21332  35.777  28.305   4.273
49717W        W21333   9.076  40.996   3.626
49718W        W21334  34.533  37.500   3.019
49719W        W21335  19.188  13.250  14.757
49720W        W21336  20.789  22.953  14.827
49721W        W21337  25.151  29.610  11.679
49722W        W21338  19.511   1.850   2.505
49723W        W21339  12.362  22.461  12.293
49724W        W21340   0.791   7.101   0.437
49725W        W21341  43.798   3.172   2.226
49726W        W21342   6.313  39.210   4.830
49727W        W21343  28.666  22.448   3.810
49728W        W21344  27.327  42.524   3.581
49729W        W21345   4.471  21.602  10.366
49730W        W21346  25.405  10.443   3.541
49731W        W21347  36.481   4.301   2.124
49732W        W21348   3.861   7.454  12.070
49733W        W21349  13.879   6.747   3.697
49734W        W21350  26.743  33.916   2.320
49735W        W21351  32.557  38.256  12.818
49736W        W21352  24.637  26.393  13.869
49737W        W21353   6.899  15.556   9.939
49738W        W21354  41.003  17.665  14.748
49739W        W21355  10.178  43.782   2.873
49740W        W21356   2.243  18.590  12.026
49741W        W21357  26.128  14.455   3.466
49742W        W21358  19.413  42.271   1.897
49743W        W21359   2.504   9.205  12.614
49744W        W21360  11.825   8.574   4.146
49745W        W21361  24.981  16.566   2.341
49746W        W21362  15.059  31.080  12.376
49747W        W21363   8.274  41.762  12.414
49748W        W21364   3.788  12.766  13.043
49749W        W21365  40.941  24.591   3.705
49750W        W21366  34.863  33.877   0.223
49751W        W21367  15.615   1.399  12.965
49752W        W21368  41.072   4.792  14.081
49753W        W21369  44.003   0.257  13.441
49754W        W21370   6.232  18.320   3.175
49755W        W21371  22.375  21.561  11.596
49756W        W21372  34.304  25.484  10.698
49757W        W21373  36.520  10.573  10.692
49758W        W21374  39.901   1.701  11.616
49759W        W21375   2.215  28.674   0.394
49760W        W21376  19.073  38.835   3.818
49761W        W21377  23.960  38.462   0.100
49762W        W21378  31.436  39.110  12.466
49763W        W21379  35.480   5.948   2.854
49764W        W21380  11.802  41.510  11.636
49765W        W21381  35.004  32.622   2.143
49766W        W21382   4.870   0.116  14.526
49767W        W21383  40.943   2.157  14.541
49768W        W21384  15.550  15.308   1.344
49769W        W21385  32.256   2.516  10.757
49770W        W21386  14.713  44.031   0.765
49771W        W21387  10.384  25.457   1.299
49772W        W21388  11.142  24.610   4.706
49773W        W21389  20.703  36.857   1.924
49774W        W21390  19.537   7.421  13.426
49775W        W21391  43.501  17.230   0.840
49776W        W21392  38.970  10.626   5.547
49777W        W21393  33.046  25.620   2.340
49778W        W21394   9.788  37.107  10.610
49779W        W21395  20.745  26.690   2.925
49780W        W21396  33.446  43.083   2.558
49781W        W21397  43.848  21.785   3.261
49782W        W21398  21.982  37.558   2.891
49783W        W21399   2.743   0.033  12.399
49784W        W21400  31.174  44.631   5.145
49785W        W21401  43.056  43.928  14.357
49786W        W21402  43.320  12.570  14.670
49787W        W21403   6.621  18.795  11.090
49788W        W21404  42.570   7.240   3.187
49789W        W21405  44.640   5.241   3.239
49790W        W21406  32.992  13.513   0.371
49791W        W21407  35.686  23.157   0.019
49792W        W21408   1.909  31.535   4.865
49793W        W21409   5.880   7.446  13.407
49794W        W21410  23.281  16.830  12.450
49795W        W21411  12.531  41.077  14.840
49796W        W21412  22.756  13.603  10.864
49797W        W21413  29.071  25.178   2.166
49798W        W21414  43.907  35.487  10.424
49799W        W21415  38.054  23.291  11.563
49800W        W21416  36.575  28.633   2.589
49801W        W21417   5.265  42.486   3.738
49802W        W21418  26.166  17.571   0.743
49803W        W21419  33.556  14.860   1.794
49804W        W21420  18.313   4.757   0.427
49805W        W21421  15.236  20.478   4.103
49806W        W21422  28.038  34.455   0.525
49807W        W21423  11.548  40.445   3.553
49808W        W21424  41.152  30.194  10.605
49809W        W21425   9.879  31.898  13.347
49810W        W21426  18.092  32.518   1.307
49811W        W21427  20.275  16.701  12.635
49812W        W21428  25.068   3.131   1.806
49813W        W21429  18.778  12.772   3.531
49814W        W21430  30.873   7.428   3.817
49815W        W21431  43.270   7.458   0.532
49816W        W21432  40.807  30.078   1.499
49817W        W21433  37.859   9.765   2.644
49818W        W21434  25.993  39.833   1.499
49819W        W21435  39.802   2.311   1.373
49820W        W21436   8.664  34.953   1.745
49821W        W21437  43.917   5.050  11.616
49822W        W21438  10.568  32.348   4.503
49823W        W21439   5.286  21.247   3.192
49824W        W21440   4.883  36.806   0.842
49825W        W21441   1.678  14.777  10.868
49826W        W21442  42.004   1.970  12.983
49827W        W21443   9.146   4.128  11.993
49828W        W21444  14.032   3.836   4.676
49829W        W21445  40.978  32.424   4.316
49830W        W21446  39.886  44.937   4.308
49831W        W21447  43.134  17.604  13.997
49832W        W21448   8.102  34.291  14.300
49833W        W21449  23.654  27.084  14.584
49834W        W21450   0.227  25.813  14.054
49835W        W21451  15.252   8.746  13.144
49836W        W21452  21.023  11.987   3.636
49837W        W21453  42.362  42.999  11.407
49838W        W21454  39.538  35.639  14.920
49839W        W21455   9.282   7.123  11.943
49840W        W21456  42.053  41.078   2.540
49841W        W21457  31.082  26.242   3.253
49842W        W21458   2.868  24.430   3.619
49843W        W21459  28.180  43.424  12.024
49844W        W21460  43.956   5.218  14.796
49845W        W21461  33.058  44.053  12.881
49846W        W21462  29.869  14.210   2.170
49847W        W21463   4.235  15.780   4.163
49848W        W21464  30.064   5.108   2.280
49849W        W21465  19.080   9.826  14.781
49850W        W21466  22.604  39.440  11.587
49851W        W21467  18.429  34.944   2.881
49852W        W21468  35.549  15.150  10.676
49853W        W21469  16.316  40.774   1.847
49854W        W21470   1.743  43.529   1.283
49855W        W21471  30.923  37.602  13.924
49856W        W21472  12.325  43.267  11.578
49857W        W21473  34.168  28.729  13.408
49858W        W21474  17.320  27.844   4.110
49859W        W21475  11.707   0.019   3.636
49860W        W21476  44.945   3.999   0.350
49861W        W21477  34.014  20.762  13.826
49862W        W21478  30.929  27.228   1.018
49863W        W21479  33.982  28.991  13.797
49864W        W21480   1.239  44.727   4.230
49865W        W21481  16.023  41.883   0.732
49866W        W21482  25.053   5.733  11.831
49867W        W21483  26.981  22.206  11.238
49868W        W21484  17.905  25.628  13.765
49869W        W21485  42.221   8.821  11.124
49870W        W21486  43.528   9.253   2.196
49871W        W21487  12.273  27.527  13.657
49872W        W21488   8.970  12.473   1.384
49873W        W21489   4.409  38.817  11.977
49874W        W21490   4.165  30.424   0.448
49875W        W21491  26.616  25.481   4.622
49876W        W21492   2.804  15.482  13.743
49877W        W21493   5.398  33.978  11.617
49878W        W21494  28.351   9.700  10.455
49879W        W21495   2.414   7.032   4.176
49880W        W21496  27.823   0.746   4.174
49881W        W21497  12.733   2.346  13.418
49882W        W21498  32.767   4.850   2.399
49883W        W21499   4.182  28.282  12.522
49884W        W21500  15.682  40.566  13.000
49885W        W21501  39.001  10.091   2.283
49886W        W21502   5.381  21.599   0.741
49887W        W21503  33.788  16.796  11.217
49888W        W21504   8.329  19.396  12.505
49889W        W21505  31.439  33.031  14.706
49890W        W21506   7.578  44.408   2.816
49891W        W21507  37.570   6.344  12.105
49892W        W21508   1.993  35.315  13.034
49893W        W21509  17.162  21.300  13.882
49894W        W21510  42.547   6.838   2.193
49895W        W21511   4.325  39.512  11.491
49896W        W21512  10.889  35.427   0.785
49897W        W21513  21.273  42.420  13.107
49898W        W21514   5.354  11.581  11.047
49899W        W21515  30.703  14.032  13.530
49900W        W21516   4.732   8.360  12.158
49901W        W21517  33.852  12.617   0.727
49902W        W21518  39.682  29.029  11.063
49903W        W21519  11.320  39.679   3.999
49904W        W21520   8.664  34.133   4.668
49905W        W21521  22.294  22.195  14.991
49906W        W21522  17.071  28.040  14.755
49907W        W21523  28.181  35.580  14.871
49908W        W21524   1.447   1.302  11.836
49909W        W21525  40.120  19.048   4.188
49910W        W21526  44.698  18.192   1.927
49911W        W21527  39.351  43.320   2.727
49912W        W21528  38.215  18.055   1.020
49913W        W21529  12.850  27.182  11.953
49914W        W21530  33.566  29.195   1.417
49915W        W21531  14.868  14.971   2.364
49916W        W21532  23.830  44.384   5.000
49917W        W21533  37.013  30.424  12.591
49918W        W21534  10.596  26.528   0.297
49919W        W21535   6.065  28.472   3.211
49920W        W21536  10.964  40.134  10.927
49921W        W21537  14.185  33.613  13.606
49922W        W21538  20.069   7.967  12.486
49923W        W21539  38.045  33.026   1.769
49924W        W21540   4.866   9.692   4.075
49925W        W21541  27.136   0.435   0.900
49926W        W21542  36.513  26.725   1.346
49927W        W21543  10.040  25.065  12.861
49928W        W21544  34.263  32.399   4.382
49929W        W21545  25.604  27.828  10.242
49930W        W21546  10.036  26.619   5.048
49931W        W21547   0.711  19.188   1.511
49932W        W21548  12.602  42.411  11.215
49933W        W21549  15.845  14.267  13.088
49934W        W21550  10.922  25.889  14.420
49935W        W21551   5.809   7.744   4.699
49936W        W21552   3.614  39.677  13.516
49937W        W21553   8.699  25.716   2.659
49938W        W21554  11.610   7.319   3.600
49939W        W21555  23.761   3.634   3.692
49940W        W21556  13.079   8.150  13.987
49941W        W21557   5.825  36.095  11.984
49942W        W21558   6.991   8.920   4.641
49943W        W21559   5.120  30.810  12.391
49944W        W21560  43.474   5.921   2.406
49945W        W21561  29.488  33.070   2.271
49946W        W21562  32.543  36.043   2.146
49947W        W21563  44.222  21.553  12.199
49948W        W21564  26.644   7.073   3.195
49949W        W21565  27.168  14.254  10.578
49950W        W21566   6.045  39.334   0.393
49951W        W21567  13.164  42.518  14.016
49952W        W21568  19.007  19.538  11.988
49953W        W21569  38.440   7.694   4.522
49954W        W21570   2.496   6.438   4.416
49955W        W21571   0.665  40.856   1.072
49956W        W21572  10.715   2.306   2.363
49957W        W21573  36.623  38.752   0.955
49958W        W21574  27.737   9.225   2.152
49959W        W21575  30.901  13.779  13.101
49960W        W21576  33.705  44.912  14.976
49961W        W21577  11.862  33.123   1.774
49962W        W21578  37.887  33.476  13.260
49963W        W21579   2.337  33.550  13.460
49964W        W21580  16.328  15.040   5.023
49965W        W21581  18.999  14.835   2.607
49966W        W21582  30.438  14.573  14.477
49967W        W21583   4.296  20.285  10.625
49968W        W21584   2.781   3.438   2.076
49969W        W21585  15.217  25.635   3.897
49970W        W21586   0.292  27.166   2.848
49971W        W21587  34.939  43.808  12.922
49972W        W21588  44.894  28.385  14.681
49973W        W21589   1.438  33.163   4.266
49974W        W21590  35.935  19.988   1.366
49975W        W21591  16.391   7.670  12.832
49976W        W21592  15.849   3.476  13.404
49977W        W21593   1.546   4.414  12.989
49978W        W21594  27.782  23.272   2.765
49979W        W21595  34.249   2.750   2.576
49980W        W21596  37.793  42.502   4.300
49981W        W21597  19.117  34.393   0.962
49982W        W21598  21.579  36.767   0.794
49983W        W21599  41.994   8.418   4.527
49984W        W21600  14.169  35.327   0.337
49985W        W21601  35.094   5.189  13.000
49986W        W21602  25.743  33.888   3.341
49987W        W21603  27.741  26.702   1.833
49988W        W21604  40.545  25.588  13.304
49989W        W21605  32.157  18.719  11.948
49990W        W21606  16.804  44.271  13.525
49991W        W21607  34.914  33.403   0.412
49992W        W21608  36.933  39.339   2.934
49993W        W21609  32.413   0.888  11.642
49994W        W21610  14.142  29.709  12.994
49995W        W21611  23.664  33.921   2.282
49996W        W21612  19.680   4.271   3.396
49997W        W21613  11.108   1.952  14.998
49998W        W21614  42.512  18.802   4.491
49999W        W21615   8.975  11.989  12.330
50000W        W21616  28.794   7.823   0.976
50001W        W21617  10.912  34.403  12.558
50002W        W21618  27.083  22.000   4.083
50003W        W21619   9.158  33.128  14.872
50004W        W21620  32.399  14.189   3.151
50005W        W21621  11.743  35.791  14.022
50006W        W21622  41.946  20.821   4.489
50007W        W21623   9.965  43.622   3.331
50008W        W21624   0.316  27.678  10.772
50009W        W21625  35.392  14.049  13.716
50010W        W21626  36.886  30.707  11.022
50011W        W21627  41.846  12.824  12.549
50012W        W21628  44.001  27.603   2.975
50013W        W21629  18.027  43.417   3.595
50014W        W21630  29.906  35.102  14.247
50015W        W21631  19.281  14.574   0.764
50016W        W21632  38.637  33.497  14.424
50017W        W21633   8.894  30.353   1.002
50018W        W21634   7.450  21.071   2.833
50019W        W21635   0.784   1.357  11.106
50020W        W21636   6.420   1.829  13.828
50021W        W21637   4.484  13.293  14.045
50022W        W21638   8.647  34.934   2.720
50023W        W21639  36.109  14.980   4.196
50024W        W21640  14.443  14.681   2.454
50025W        W21641  30.253  42.255   3.274
50026W        W21642  34.094  10.942   1.936
50027W        W21643   9.528  10.318   1.116
50028W        W21644  29.938  32.490  12.929
50029W        W21645  25.277  11.661   4.876
50030W        W21646  25.754  12.673   3.403
50031W        W21647  42.135  13.864   0.327
50032W        W21648   5.220   8.461   2.285
50033W        W21649  27.523   1.523   3.597
50034W        W21650  42.303  39.567   1.243
50035W        W21651  28.072  15.800   0.502
50036W        W21652  23.277  32.033   3.671
50037W        W21653  18.111  16.492   3.636
50038W        W21654  32.810  20.589  14.991
50039W        W21655  27.862  17.725   0.210
50040W        W21656   2.242  28.187  14.609
50041W        W21657  12.208  11.157  12.486
50042W        W21658  31.566   0.479  13.504
50043W        W21659  43.243  24.231  13.903
50044W        W21660  26.681  12.661  14.240
50045W        W21661   9.317  37.766   1.402
50046W        W21662  25.694  13.236   2.292
50047W        W21663  25.202  37.139   2.816
50048W        W21664   8.897  37.607  13.611
50049W        W21665   2.457  15.541  12.024
50050W        W21666  23.527  19.638  14.809
50051W        W21667   8.363  40.125   4.131
50052W        W21668   1.013  14.216   0.018
50053W        W21669  24.594  39.194  10.745
50054W        W21670  21.195  40.078  14.830
50055W        W21671  27.606   1.239   0.482
50056W        W21672  25.259  32.181  12.959
50057W        W21673  43.317  11.508   0.138
50058W        W21674  21.396  39.608   1.058
50059W        W21675   4.889  21.271  10.156
50060W        W21676  23.361  19.626  12.871
50061W        W21677  27.720  35.405  14.731
50062W        W21678  28.117  16.033   3.346
50063W        W21679   0.114  25.740  12.170
50064W        W21680  31.522  22.978  12.529
50065W        W21681  37.460  39.839  14.426
50066W        W21682  23.661  17.657  11.996
50067W        W21683  37.227   9.837  10.487
50068W        W21684  17.172  17.599  10.739
50069W        W21685  28.577  44.552   0.350
50070W        W21686  32.857   5.753   4.152
50071W        W21687   9.287  14.849  12.459
50072W        W21688  37.811  38.827  13.491
50073W        W21689  30.808  19.406   5.216
50074W        W21690  14.305  36.300  11.549
50075W        W21691  14.873  12.367  11.057
50076W        W21692  15.092   8.621   1.325
50077W        W21693  26.040  19.274  14.428
50078W        W21694  41.539  42.693   0.981
50079W        W21695  26.469  28.197   2.178
50080W        W21696   5.840  14.671   3.210
50081W        W21697  32.483  28.518   2.822
50082W        W21698  24.306  24.747  13.323
50083W        W21699  28.630   6.680   3.925
50084W        W21700  24.208  22.799   1.391
50085W        W21701  38.393  21.048   0.209
50086W        W21702   8.415  24.431   1.953
50087W        W21703   9.353  41.373  14.249
50088W        W21704  27.036  16.807  13.333
50089W        W21705  32.895  10.618  11.995
50090W        W21706   3.255  36.478  13.429
50091W        W21707  26.169  43.632  13.726
50092W        W21708  38.542  21.788  11.609
50093W        W21709  43.983   3.872   3.741
50094W        W21710  11.660   3.457  10.489
50095W        W21711  41.057  19.149   1.349
50096W        W21712  31.556  44.716  10.017
50097W        W21713  42.002  41.121  11.543
50098W        W21714  17.137  28.576   0.545
50099W        W21715  10.631   2.127   2.846
50100W        W21716  13.046  29.786  14.533
50101W        W21717  23.132  12.862   1.370
50102W        W21718  26.724  14.568  12.307
50103W        W21719  17.031  41.048  13.748
50104W        W21720   3.764  24.315   5.546
50105W        W21721  35.916  30.501   1.185
50106W        W21722  23.632   4.748  10.711
50107W        W21723  37.555  11.778   0.357
50108W        W21724  20.192  40.171   4.212
50109W        W21725  10.586  33.275  14.574
50110W        W21726  40.433  28.023   2.161
50111W        W21727   2.577  13.362  12.191
50112W        W21728  15.193  27.522  14.831
50113W        W21729  42.055   7.018   2.325
50114W        W21730   9.669   3.616   0.412
50115W        W21731  22.988  11.327   3.084
50116W        W21732  21.971  39.174   0.537
50117W        W21733  16.086  44.475  12.866
50118W        W21734  16.204  29.958  10.771
50119W        W21735  35.616   3.878   1.452
50120W        W21736  14.343  18.724  11.934
50121W        W21737  15.903   7.024   2.759
50122W        W21738   5.298  14.539   2.882
50123W        W21739  10.345  44.756  14.801
50124W        W21740  25.467  37.799   1.846
50125W        W21741   2.030  31.076  13.528
50126W        W21742  25.241  21.231  13.491
50127W        W21743  39.065  37.984   0.430
50128W        W21744  16.274   3.062  14.833
50129W        W21745  28.716  44.398  14.458
50130W        W21746   0.180  16.277   4.537
50131W        W21747  27.550  41.952  12.649
50132W        W21748  19.601  39.359   4.277
50133W        W21749  22.893  33.033  11.336
50134W        W21750  32.399  35.007  12.343
50135W        W21751  24.492  29.446   0.496
50136W        W21752  10.126  38.970  14.854
50137W        W21753  12.620  15.162  11.115
50138W        W21754  36.990  17.953  12.301
50139W        W21755  22.572   0.423  10.694
50140W        W21756  31.444  25.201   1.877
50141W        W21757   1.925   2.167   4.953
50142W        W21758   1.416  23.045  12.707
50143W        W21759  30.422   7.491  13.784
50144W        W21760  26.664  37.970  11.633
50145W        W21761  34.540  19.117  14.782
50146W        W21762  34.835  40.315  10.831
50147W        W21763  41.403  37.115  11.667
50148W        W21764  12.189  41.504  12.528
50149W        W21765  23.673  16.968   4.440
50150W        W21766  24.242   1.856   4.755
50151W        W21767  18.702  44.626   9.795
50152W        W21768   9.186  10.352  14.332
50153W        W21769  13.241  27.259  12.884
50154W        W21770   7.690  36.596  14.529
50155W        W21771  15.219  44.054  13.184
50156W        W21772   4.470  41.805   4.339
50157W        W21773  37.787  21.786   3.000
50158W        W21774  14.697   7.290  14.108
50159W        W21775  32.967   2.047   5.724
50160W        W21776  30.723  37.637  12.552
50161W        W21777  16.456   1.447  12.642
50162W        W21778  39.357  28.581  14.199
50163W        W21779   4.549  38.364   2.199
50164W        W21780  32.881  17.150  11.081
50165W        W21781  29.009  22.664   2.887
50166W        W21782  11.616  17.451  12.059
50167W        W21783  30.016  15.678   1.330
50168W        W21784   1.712   8.221   4.169
50169W        W21785  44.315  21.920  12.563
50170W        W21786  31.038  28.154  10.668
50171W        W21787  11.601  23.731   3.719
50172W        W21788  20.689  17.603  11.213
50173W        W21789  15.797  32.152  13.649
50174W        W21790   9.716  43.308   2.630
50175W        W21791  24.877  32.603   3.894
50176W        W21792  28.993   7.875   4.965
50177W        W21793  35.628  37.242  13.784
50178W        W21794   2.632  27.490   2.446
50179W        W21795  36.925  34.531   4.151
50180W        W21796  39.901  11.437  12.048
50181W        W21797  42.807  32.067  12.885
50182W        W21798  16.870   9.222  13.856
50183W        W21799  35.526  23.170   0.875
50184W        W21800  21.138  15.734   2.260
50185W        W21801  34.897  14.122  14.382
50186W        W21802  23.157  35.639  13.734
50187W        W21803  23.178  13.852  11.466
50188W        W21804  23.204   0.366   1.285
50189W        W21805  24.797  37.647  12.157
50190W        W21806   0.586  26.530  12.018
50191W        W21807  13.041  29.115  10.745
50192W        W21808   1.625  41.267   0.677
50193W        W21809  21.041  39.004   0.006
50194W        W21810   7.881  23.328   3.697
50195W        W21811   6.429  21.989   4.304
50196W        W21812  15.333  28.707   1.983
50197W        W21813   7.946   8.516   0.278
50198W        W21814  31.736  39.461  11.205
50199W        W21815  42.085   3.513   1.291
50200W        W21816  23.102  34.622   4.581
50201W        W21817  41.828  28.834  12.710
50202W        W21818  33.773  30.437  11.554
50203W        W21819  43.758  18.115   0.317
50204W        W21820   9.662  41.587   2.149
50205W        W21821  44.024  13.745  12.082
50206W        W21822  34.405  39.356  14.025
50207W        W21823  22.294  22.173   3.304
50208W        W21824  12.661   2.312   3.830
50209W        W21825  31.090   0.422  10.113
50210W        W21826  26.981  31.876   0.555
50211W        W21827  40.036  36.600  14.531
50212W        W21828   6.313   3.167  11.595
50213W        W21829  17.184  13.123  12.032
50214W        W21830  23.006  20.861   0.968
50215W        W21831  40.851  36.917  14.448
50216W        W21832  28.589  18.747  11.583
50217W        W21833   1.644  11.116   3.833
50218W        W21834   2.290  44.308  13.818
50219W        W21835   1.854   1.422   0.513
50220W        W21836  36.928  21.105  13.551
50221W        W21837  19.697  40.265   3.540
50222W        W21838  11.022  36.871  11.019
50223W        W21839  16.612  36.232   3.793
50224W        W21840  44.184  33.620  14.216
50225W        W21841  23.170  27.123  14.321
50226W        W21842  15.357  22.990  13.458
50227W        W21843  20.540   4.769  12.912
50228W        W21844  41.790  15.230   2.697
50229W        W21845  43.748  27.697  13.935
50230W        W21846  11.678   5.345  10.454
50231W        W21847  27.429  43.594   1.671
50232W        W21848  38.856  14.045   0.497
50233W        W21849  39.748  17.853   1.827
50234W        W21850  37.026  11.472   1.889
50235W        W21851   5.836  23.985  13.015
50236W        W21852  35.505  37.169   4.892
50237W        W21853   3.245   7.941  13.838
50238W        W21854  22.120  19.973   4.777
50239W        W21855   3.138  27.930   2.472
50240W        W21856  18.469  26.042  10.739
50241W        W21857  23.190  42.345   0.692
50242W        W21858  34.031   4.829  11.155
50243W        W21859  20.769  29.550   0.714
50244W        W21860  30.974  11.895   0.842
50245W        W21861  27.647   6.787   2.417
50246W        W21862  36.444  30.495   2.630
50247W        W21863  37.893  18.349   0.750
50248W        W21864   1.477  13.617  12.855
50249W        W21865  16.873  41.551   0.869
50250W        W21866  27.080  21.052   2.925
50251W        W21867  22.532   0.889   2.662
50252W        W21868   2.434  27.421   4.117
50253W        W21869  38.255  24.060  11.658
50254W        W21870  14.634  39.478   0.774
50255W        W21871  24.302  23.251  14.071
50256W        W21872  26.611  41.771   3.764
50257W        W21873  24.544  42.456   3.142
50258W        W21874  17.518  38.122  13.884
50259W        W21875  14.635   4.513   3.185
50260W        W21876  29.608   5.160  14.909
50261W        W21877  29.969  17.593   4.349
50262W        W21878  26.217   3.895   0.941
50263W        W21879   2.582  14.329   1.891
50264W        W21880   8.730  26.535  10.334
50265W        W21881   4.003  16.074   2.077
50266W        W21882  29.522  36.601   3.830
50267W        W21883   6.431  26.201  13.585
50268W        W21884  38.277  41.689  11.158
50269W        W21885  42.891   4.184   1.169
50270W        W21886   4.422   1.937  12.019
50271W        W21887  13.869   6.889   5.646
50272W        W21888  37.254   5.422   2.786
50273W        W21889   1.940  39.090   3.404
50274W        W21890   3.242   8.285   4.326
50275W        W21891   6.144  38.811  14.698
50276W        W21892   8.415  36.901  12.573
50277W        W21893  25.150  24.710  13.602
50278W        W21894  15.770  42.592   3.067
50279W        W21895   2.981  41.356   2.165
50280W        W21896  38.057  25.011   2.795
50281W        W21897  42.299  15.429  11.117
50282W        W21898  42.667   1.055   3.166
50283W        W21899  13.910   7.807  11.790
50284W        W21900  21.572   3.509  12.073
50285W        W21901  40.114   8.049   2.654
50286W        W21902  13.164   9.691  11.590
50287W        W21903  22.149   3.440  12.025
50288W        W21904  11.397  19.642   2.810
50289W        W21905  36.564  14.899   1.401
50290W        W21906  34.660   0.304  12.957
50291W        W21907  37.409   3.208   3.091
50292W        W21908   9.463  40.430   0.868
50293W        W21909   1.882  35.040  13.887
50294W        W21910  37.427  28.565   2.894
50295W        W21911   9.917   6.686  13.856
50296W        W21912   3.445  28.524   1.503
50297W        W21913   7.668   1.261   4.086
50298W        W21914   5.072   6.851  13.502
50299W        W21915  11.594  42.178  12.021
50300W        W21916  18.382   2.879  13.961
50301W        W21917  21.182  17.073   1.250
50302W        W21918   9.449   2.887  12.564
50303W        W21919  34.872  28.146   3.167
50304W        W21920  31.092   3.750   3.399
50305W        W21921  30.117  15.948  12.196
50306W        W21922  43.730  13.643  13.038
50307W        W21923  11.227  11.834  14.269
50308W        W21924  40.095  22.954  13.079
50309W        W21925   9.806  34.828   3.136
50310W        W21926  26.830  17.775   1.226
50311W        W21927   7.895  39.994  14.969
50312W        W21928  21.703  28.147   2.653
50313W        W21929  24.715   6.280  10.724
50314W        W21930  43.395   1.848   4.816
50315W        W21931  35.997   8.943  12.485
50316W        W21932   7.203  35.981  11.167
50317W        W21933  34.829  28.383  14.587
50318W        W21934  27.985  42.013  11.935
50319W        W21935  42.454   6.941  11.216
50320W        W21936  15.751   5.685   5.471
50321W        W21937  42.749  32.863   0.181
50322W        W21938  22.615   2.494  10.754
50323W        W21939  28.552  14.270  12.483
50324W        W21940  13.395  10.170  13.293
50325W        W21941  32.067   5.421  12.802
50326W        W21942  24.348  19.461   5.233
50327W        W21943  10.475   0.248   4.489
50328W        W21944  28.496  32.963  11.845
50329W        W21945  25.868   6.140  12.066
50330W        W21946  19.939  31.592   1.714
50331W        W21947   2.920  31.967   4.722
50332W        W21948   7.763  18.716  10.653
50333W        W21949  18.039   1.408   3.761
50334W        W21950  33.110  23.796   2.922
50335W        W21951   6.883   1.690  12.913
50336W        W21952  42.893  15.247   2.290
50337W        W21953  31.827  18.718  11.568
50338W        W21954  20.063   6.917   4.124
50339W        W21955  14.297  26.382  13.888
50340W        W21956   8.407  20.417   3.879
50341W        W21957  37.439  30.843   4.692
50342W        W21958  14.674  43.453  12.532
50343W        W21959   8.712  25.137  12.442
50344W        W21960   6.905  28.701   1.971
50345W        W21961   2.739  31.985  12.910
50346W        W21962  16.572  37.960  12.408
50347W        W21963   8.167  36.541   1.400
50348W        W21964  42.282   0.317  11.089
50349W        W21965  25.188   3.236  14.447
50350W        W21966   0.455  34.437   0.724
50351W        W21967   1.808  18.050   2.317
50352W        W21968   1.819  30.954   3.065
50353W        W21969  26.621  25.770   3.602
50354W        W21970   2.517  14.883   3.718
50355W        W21971  31.929  20.428  10.860
50356W        W21972  17.827   0.698  11.536
50357W        W21973  13.244  10.938  11.985
50358W        W21974  10.161  29.062  10.413
50359W        W21975  15.789  34.903  11.480
50360W        W21976  17.674  41.399   0.478
50361W        W21977  10.600  42.234  11.161
50362W        W21978  37.798   7.640   0.058
50363W        W21979  18.538  41.845   3.075
50364W        W21980   2.812  12.209   3.914
50365W        W21981  22.166  33.186   2.939
50366W        W21982  31.079  25.645  14.859
50367W        W21983   9.163  38.455   4.061
50368W        W21984  24.439   3.685   3.196
50369W        W21985  32.178  34.565  11.433
50370W        W21986  37.868  25.084   0.971
50371W        W21987  17.462  24.438  13.521
50372W        W21988  34.285   0.926  14.901
50373W        W21989  17.174  23.170   3.305
50374W        W21990   6.133  35.798   5.032
50375W        W21991   4.387  31.382   3.306
50376W        W21992   9.403  36.119   4.658
50377W        W21993  39.077  33.852  13.834
50378W        W21994  35.713  30.539  13.816
50379W        W21995   4.580  25.875  11.037
50380W        W21996  16.564  23.535   1.792
50381W        W21997  12.167   4.417  11.892
50382W        W21998  24.103   3.128  10.479
50383W        W21999  20.950   2.375   0.908
50384W        W22000   1.859   2.156  12.057
50385W        W22001  32.610  29.375  12.657
50386W        W22002   4.795   9.387  13.540
50387W        W22003  16.802  34.592   2.687
50388W        W22004  20.548  23.761  13.788
50389W        W22005  16.220  42.090  14.151
50390W        W22006   4.244  11.732  13.379
50391W        W22007  36.904   1.991  14.096
50392W        W22008  12.183  37.879   3.660
50393W        W22009  16.504  22.286   3.213
50394W        W22010  29.189  10.686  12.443
50395W        W22011   2.926  28.441  13.442
50396W        W22012   3.637  44.722  10.599
50397W        W22013  28.012  32.377   1.910
50398W        W22014  34.039   1.801  13.964
50399W        W22015  27.489  23.789  10.293
50400W        W22016   9.530  37.211   1.291
50401W        W22017   6.269  39.809   0.819
50402W        W22018  18.152  13.709  12.641
50403W        W22019  39.797  22.260  14.753
50404W        W22020  11.166  28.478   1.950
50405W        W22021  42.472  37.375   1.913
50406W        W22022  10.465  18.889   1.432
50407W        W22023  32.030  31.391  12.583
50408W        W22024   4.248  34.167   0.452
50409W        W22025  35.622  23.275   2.294
50410W        W22026  24.452  18.069   0.932
50411W        W22027  42.506   8.278   4.593
50412W        W22028  27.671  29.424   4.109
50413W        W22029  31.097   9.384   2.314
50414W        W22030  11.538  25.402  12.136
50415W        W22031  16.101  38.908  12.490
50416W        W22032  44.954  30.606  11.113
50417W        W22033  19.753   5.177   2.336
50418W        W22034  16.209   9.109   0.117
50419W        W22035  35.947  16.573  11.231
50420W        W22036   7.747  18.994   2.423
50421W        W22037  30.437  30.762  11.369
50422W        W22038  17.248  12.247  12.425
50423W        W22039  17.711   0.443  13.053
50424W        W22040  33.867  24.706   1.504
50425W        W22041  27.432  29.416   3.221
50426W        W22042  17.386  40.328   5.265
50427W        W22043  43.758  40.549   4.184
50428W        W22044   6.224  22.041   1.839
50429W        W22045   4.220  43.753  10.014
50430W        W22046  12.669  24.651   2.732
50431W        W22047  44.404  40.052   4.183
50432W        W22048  23.943   3.249   2.449
50433W        W22049   3.869   5.312   2.386
50434W        W22050  23.635  30.274   4.898
50435W        W22051  34.543  41.554   3.309
50436W        W22052  36.124  43.367   2.960
50437W        W22053  32.058  31.549   4.184
50438W        W22054  16.530  42.333   2.340
50439W        W22055   7.591  22.831  14.105
50440W        W22056  43.483   3.819  13.866
50441W        W22057  33.729  28.531  12.845
50442W        W22058   4.052  20.143  11.068
50443W        W22059  14.586   7.436  11.168
50444W        W22060  18.743  22.012  11.563
50445W        W22061   6.971  13.285   2.263
50446W        W22062  38.958  35.204   1.805
50447W        W22063  16.857   6.791   1.453
50448W        W22064  39.639  43.426  10.706
50449W        W22065  17.110  21.770   1.209
50450W        W22066  37.507  43.028  10.666
50451W        W22067  26.900  31.369   2.858
50452W        W22068   7.760  42.092  14.770
50453W        W22069  44.859  37.178  12.754
50454W        W22070   2.635  30.883  14.420
50455W        W22071  13.573  15.656  11.588
50456W        W22072  19.239   3.113  11.450
50457W        W22073  32.365   7.816   0.800
50458W        W22074  28.624  19.270  12.875
50459W        W22075  23.090  11.916  11.566
50460W        W22076  26.976   3.547  10.707
50461W        W22077  41.362  14.998  14.409
50462W        W22078  12.802  33.967   1.464
50463W        W22079   4.183  32.409   0.327
50464W        W22080  21.648  12.304  11.297
50465W        W22081  32.875  14.195   4.937
50466W        W22082  23.946  44.839  13.388
50467W        W22083  32.406  38.501   4.109
50468W        W22084   6.402  28.098   3.254
50469W        W22085  38.763  39.522  12.524
50470W        W22086   1.402   1.524   0.274
50471W        W22087  32.373  36.593   0.463
50472W        W22088   9.471  27.423   2.346
50473W        W22089   2.487  17.785   3.812
50474W        W22090  17.192  35.989  10.714
50475W        W22091   5.687  40.190  12.105
50476W        W22092  30.694  26.437  12.342
50477W        W22093  21.146   4.269   0.527
50478W        W22094  11.404  26.628  10.720
50479W        W22095  39.029  24.411  11.794
50480W        W22096  43.943  11.145  13.816
50481W        W22097  12.314  43.799   1.452
50482W        W22098  29.981  38.025  13.923
50483W        W22099  19.066  38.168  12.342
50484W        W22100  36.849  38.835  10.984
50485W        W22101  21.914  33.234   4.914
50486W        W22102  17.277  21.065  10.510
50487W        W22103  26.388   8.874  10.934
50488W        W22104  21.456  39.253   2.294
50489W        W22105  30.009   3.048   0.442
50490W        W22106  23.119  38.683   3.265
50491W        W22107  44.434  19.086  12.456
50492W        W22108  34.091  37.096   4.703
50493W        W22109  10.225  39.821  10.289
50494W        W22110  44.144  38.240   1.854
50495W        W22111  44.448   4.378  12.681
50496W        W22112   5.991  37.595  14.730
50497W        W22113  20.582   7.414  13.385
50498W        W22114  13.905  15.676   2.244
50499W        W22115  28.814  16.387   9.685
50500W        W22116  19.634  31.073  13.495
50501W        W22117   8.455  38.476  13.890
50502W        W22118   5.507  36.433   0.340
50503W        W22119   4.909  35.971  13.979
50504W        W22120  34.538  34.028   0.946
50505W        W22121  10.698  22.929  14.340
50506W        W22122  36.152  44.662  11.181
50507W        W22123  28.969  23.255   2.251
50508W        W22124  23.617  42.184  11.638
50509W        W22125   4.874   2.983   2.150
50510W        W22126  16.787  12.729   4.394
50511W        W22127  44.943  27.600   4.468
50512W        W22128  32.485  26.959   2.263
50513W        W22129  18.342   3.683   3.314
50514W        W22130  44.481  31.101   2.757
50515W        W22131  33.455  37.132   4.227
50516W        W22132   7.468  38.386  13.048
50517W        W22133  43.245   8.707   2.398
50518W        W22134   0.305  29.207  14.956
50519W        W22135   3.682  37.041  14.996
50520W        W22136   7.848  38.878  12.019
50521W        W22137  32.389   3.892   0.519
50522W        W22138   9.255  32.318   1.746
50523W        W22139  41.328  44.380  12.394
50524W        W22140   7.194   0.765  14.383
50525W        W22141  21.607  21.730   3.674
50526W        W22142  30.347  22.218   0.468
50527W        W22143  35.760   5.681   4.423
50528W        W22144  28.525  15.089  10.809
50529W        W22145  19.270  29.346  13.471
50530W        W22146  42.932  18.841   4.144
50531W        W22147  26.028  26.620   0.069
50532W        W22148   3.868  24.040  14.767
50533W        W22149  44.289  31.330  14.894
50534W        W22150   0.143  33.869   0.689
50535W        W22151   8.096  13.192   3.207
50536W        W22152  27.177   4.470   1.313
50537W        W22153  13.716  22.794  14.676
50538W        W22154   5.787  40.613  12.882
50539W        W22155  22.607  18.387  10.459
50540W        W22156   2.911  12.783  13.299
50541W        W22157  42.690  34.844  13.985
50542W        W22158  34.628  25.666   2.622
50543W        W22159  14.567  38.321  12.937
50544W        W22160  43.120  27.176  10.655
50545W        W22161  31.068   3.676  13.136
50546W        W22162  30.604   2.784   3.206
50547W        W22163  42.828  21.034   4.020
50548W        W22164  22.923  20.961   1.473
50549W        W22165   6.163   3.511  11.246
50550W        W22166   2.004  19.155   2.767
50551W        W22167  29.610   7.169   0.896
50552W        W22168  31.068  42.346  12.203
50553W        W22169  37.574  10.261  13.025
50554W        W22170   7.754  35.938   4.062
50555W        W22171  10.136  22.134  14.332
50556W        W22172  33.039  21.741   3.761
50557W        W22173   6.523   7.601   0.801
50558W        W22174   8.252   1.900  14.412
50559W        W22175  12.363  18.760   3.805
50560W        W22176   0.891  40.331  11.655
50561W        W22177  19.135  36.874   1.942
50562W        W22178  36.740   1.761   4.108
50563W        W22179  40.570   2.292   2.958
50564W        W22180  27.201  16.114   1.491
50565W        W22181  13.831   3.043  13.060
50566W        W22182  32.043  10.469  12.906
50567W        W22183  23.253  23.627  11.605
50568W        W22184  43.682  31.857   1.683
50569W        W22185  12.186  39.840   0.318
50570W        W22186   3.037  14.881  13.021
50571W        W22187  26.787  29.944  10.719
50572W        W22188  24.594  36.965   0.764
50573W        W22189  10.055  15.228   2.137
50574W        W22190   3.980  42.840   2.652
50575W        W22191   4.197  40.068   0.594
50576W        W22192   7.696   7.138   4.596
50577W        W22193  28.657   9.888   0.776
50578W        W22194  34.258  40.911   0.642
50579W        W22195  19.188   6.290  14.832
50580W        W22196  30.566   7.175  10.420
50581W        W22197   0.542  15.214  13.365
50582W        W22198  31.919  27.096  11.173
50583W        W22199  12.314  42.017  11.062
50584W        W22200  20.132  36.083  12.976
50585W        W22201  41.408   9.759  14.348
50586W        W22202  22.305  38.975  10.453
50587W        W22203  13.611  31.418   2.785
50588W        W22204  18.795  36.066   2.405
50589W        W22205   3.348  32.551  14.255
50590W        W22206  25.511  35.938   5.171
50591W        W22207   4.425  23.589   0.256
50592W        W22208  41.614  35.133   2.901
50593W        W22209  32.043  31.598   1.470
50594W        W22210   5.721  34.495  14.374
50595W        W22211  42.867  15.652   4.621
50596W        W22212   6.893  30.981  14.258
50597W        W22213  15.263  33.819   4.907
50598W        W22214  28.908  14.290   2.496
50599W        W22215  28.108   4.617  13.411
50600W        W22216  39.361  11.506   4.079
50601W        W22217  15.291  44.763   0.965
50602W        W22218  36.326   8.711  12.852
50603W        W22219  13.668  17.174  13.489
50604W        W22220  19.912  39.903  13.929
50605W        W22221  13.724   4.736   2.676
50606W        W22222  27.770   0.538  14.740
50607W        W22223  22.174  39.441  12.168
50608W        W22224  40.328  39.291   4.186
50609W        W22225   2.250  21.489  13.027
50610W        W22226  22.679  41.547   4.695
50611W        W22227  42.384   1.328   1.013
50612W        W22228  44.864  33.528   3.804
50613W        W22229  27.370  27.520   2.854
50614W        W22230  26.642  19.941   4.643
50615W        W22231  33.965  21.668  10.695
50616W        W22232  19.959  23.016   0.835
50617W        W22233  44.118  29.077  10.347
50618W        W22234  21.942  43.597  11.159
50619W        W22235  44.182  19.914  13.304
50620W        W22236   7.559  29.202  13.536
50621W        W22237  31.452  14.382  11.630
50622W        W22238  39.999  27.759  14.786
50623W        W22239  17.699  18.515  12.009
50624W        W22240   7.745   8.883  10.617
50625W        W22241  36.948   8.893  12.360
50626W        W22242  10.514  33.595   3.363
50627W        W22243  15.360  13.893  12.030
50628W        W22244  12.320  28.489   2.138
50629W        W22245  24.754  22.753   3.648
50630W        W22246  20.236  34.084   0.427
50631W        W22247  30.845  34.468   3.705
50632W        W22248  41.859  16.278   2.589
50633W        W22249   7.356  36.517  11.612
50634W        W22250  10.587   9.187  14.421
50635W        W22251  38.870   8.196   2.892
50636W        W22252  24.151  32.031   1.229
50637W        W22253   3.736  36.861   3.308
50638W        W22254  13.827  25.557  14.490
50639W        W22255   3.187  41.949   3.257
50640W        W22256  27.718   7.469  13.854
50641W        W22257  14.309  25.416   4.363
50642W        W22258  24.714  29.899   2.141
50643W        W22259  25.046  39.103  10.985
50644W        W22260  24.050  18.753   4.653
50645W        W22261  42.433  38.414   0.675
50646W        W22262  30.612  13.875   2.615
50647W        W22263  36.057  40.515   1.239
50648W        W22264  16.670  40.394   1.250
50649W        W22265  29.187  33.464  12.395
50650W        W22266  13.081  23.003   3.260
50651W        W22267  30.407  37.852  12.172
50652W        W22268  31.292  32.498  13.301
50653W        W22269  11.713   1.723  11.520
50654W        W22270  31.343  44.850  11.802
50655W        W22271  38.101   4.691   3.789
50656W        W22272  36.611  16.337  12.000
50657W        W22273  25.164  41.338   0.361
50658W        W22274  37.607  11.210   2.670
50659W        W22275  14.114  24.858  13.324
50660W        W22276  27.968   7.697   2.522
50661W        W22277  18.280   5.994   2.400
50662W        W22278  35.627   9.858   0.792
50663W        W22279  16.203  21.623   0.703
50664W        W22280  20.405  31.947   2.699
50665W        W22281   8.160  29.211   2.683
50666W        W22282  44.931  30.685  11.643
50667W        W22283   4.789  21.533  13.738
50668W        W22284   7.309  37.390  14.454
50669W        W22285  17.842  17.219   1.601
50670W        W22286  33.458  23.209   4.695
50671W        W22287  36.795  37.757  12.527
50672W        W22288  39.402   4.754   1.962
50673W        W22289  22.550  28.631  14.955
50674W        W22290  32.258  30.643  14.395
50675W        W22291  11.929  31.067   3.345
50676W        W22292  14.770  21.625   4.131
50677W        W22293  38.174   4.956  12.123
50678W        W22294  37.882  18.083  11.148
50679W        W22295  29.362  32.995  11.514
50680W        W22296  30.270  18.640   3.135
50681W        W22297  19.765  41.803   0.812
50682W        W22298  37.124  38.420   0.958
50683W        W22299  23.035  15.690   1.945
50684W        W22300  27.437   1.730  12.422
50685W        W22301  21.557  37.124  12.408
50686W        W22302   3.848   1.278   5.457
50687W        W22303  40.003   7.806   0.483
50688W        W22304   8.643  36.072  13.072
50689W        W22305  13.020  15.301   2.359
50690W        W22306  21.360  39.678   4.964
50691W        W22307  40.790  25.973   3.772
50692W        W22308  27.092   6.408  11.565
50693W        W22309  31.097   2.370   3.365
50694W        W22310  13.158  39.733   4.773
50695W        W22311  25.594  24.270  11.108
50696W        W22312  17.436  34.609   3.355
50697W        W22313  13.584   7.411   5.001
50698W        W22314  38.491  31.085   2.246
50699W        W22315  38.774  42.395   3.242
50700W        W22316  26.468  35.123  12.063
50701W        W22317  43.827  29.952   2.617
50702W        W22318  33.845  33.211  11.018
50703W        W22319  20.616  41.272  13.019
50704W        W22320   6.781  18.230  11.672
50705W        W22321  13.067  23.577   3.961
50706W        W22322  34.033  16.725   0.988
50707W        W22323  18.103   6.904   0.908
50708W        W22324  22.637  10.835   4.763
50709W        W22325  36.577  13.560  10.681
50710W        W22326   3.063  14.370   2.942
50711W        W22327  21.090   5.804  11.494
50712W        W22328  38.750  25.605   4.144
50713W        W22329  23.371  10.261  12.399
50714W        W22330  35.578  23.146   4.521
50715W        W22331  12.201  11.844   2.852
50716W        W22332  21.146   2.462  10.758
50717W        W22333   5.243  40.521  14.428
50718W        W22334  39.661  35.750  12.505
50719W        W22335  31.656  27.669  10.431
50720W        W22336   9.884  27.483   0.782
50721W        W22337   2.713  23.410   4.521
50722W        W22338  26.496  32.081  14.773
50723W        W22339   9.863  28.823   3.754
50724W        W22340  38.011  37.066   1.352
50725W        W22341  11.660  27.163  13.825
50726W        W22342   0.465  31.119  13.462
50727W        W22343  32.373  21.321  11.230
50728W        W22344   6.096  39.075   4.379
50729W        W22345   7.396   7.847  14.726
50730W        W22346  38.843  16.340   0.922
50731W        W22347  32.368   5.223   0.430
50732W        W22348   3.306  22.273   1.458
50733W        W22349   9.584  13.863  13.500
50734W        W22350  32.980   9.623  10.692
50735W        W22351  28.114  31.359  13.911
50736W        W22352  39.792  22.107   4.422
50737W        W22353  28.030  27.122   1.701
50738W        W22354  18.643  11.169  14.921
50739W        W22355  13.428  29.027  12.513
50740W        W22356   7.894  37.980  14.971
50741W        W22357  31.814  25.849  13.615
50742W        W22358  38.117  37.793  14.005
50743W        W22359  42.425  19.807   2.862
50744W        W22360  23.690  25.224   0.755
50745W        W22361  18.379  35.153   1.824
50746W        W22362   9.811  19.210   3.885
50747W        W22363  31.169  40.887   4.328
50748W        W22364   9.315  43.532   0.212
50749W        W22365  26.928  25.608   0.374
50750W        W22366  28.986  40.313   2.359
50751W        W22367  33.138  30.932  13.462
50752W        W22368  39.767  29.133  11.975
50753W        W22369  27.148  38.960   4.135
50754W        W22370  29.341  35.961   0.803
50755W        W22371   6.517  35.477   1.256
50756W        W22372  14.111  36.615   0.233
50757W        W22373  21.671  26.601   2.799
50758W        W22374  34.982  40.775   4.526
50759W        W22375  43.278  16.672   4.908
50760W        W22376  26.064  23.121   4.625
50761W        W22377  34.694  12.735  13.495
50762W        W22378  16.649  15.920   5.349
50763W        W22379   4.350  31.558   4.940
50764W        W22380   3.518  11.605   0.189
50765W        W22381  15.311  27.477   2.187
50766W        W22382   6.119  31.008  11.120
50767W        W22383  30.400  33.160   1.819
50768W        W22384  31.203  37.383   2.670
50769W        W22385  32.620  19.626  13.039
50770W        W22386   4.139  26.448  11.856
50771W        W22387  26.477   4.745   2.405
50772W        W22388  18.098  30.241  11.553
50773W        W22389   6.963  15.249   3.573
50774W        W22390  11.187   3.001  14.094
50775W        W22391  20.264  34.416  13.849
50776W        W22392  17.254  26.242   2.923
50777W        W22393  22.660  37.409   1.343
50778W        W22394  14.497  40.982  14.772
50779W        W22395  39.965  21.299   0.968
50780W        W22396  22.656   1.740  11.633
50781W        W22397   5.593   7.956  10.679
50782W        W22398   0.469  17.399   2.405
50783W        W22399   7.714  28.935   0.729
50784W        W22400  25.679  31.506   2.186
50785W        W22401  23.055   3.450  13.429
50786W        W22402  20.544   7.237  12.615
50787W        W22403   0.199  32.116  13.864
50788W        W22404   7.802  24.043  13.287
50789W        W22405  33.565  42.031   0.907
50790W        W22406  12.343  12.768  11.955
50791W        W22407   4.707   3.737   4.637
50792W        W22408  37.485  21.677  12.480
50793W        W22409  19.268   6.310  12.822
50794W        W22410  15.511  40.481   4.234
50795W        W22411  36.449  33.999   1.243
50796W        W22412  39.464  44.307   3.079
50797W        W22413  25.576  25.573   2.659
50798W        W22414  10.865  30.393  11.846
50799W        W22415   7.779   8.058  13.739
50800W        W22416  16.140  10.320  12.973
50801W        W22417  27.604  37.761  12.466
50802W        W22418  44.702  32.082   1.785
50803W        W22419  24.053  28.704   0.335
50804W        W22420  40.547  33.537   3.412
50805W        W22421   1.694  13.467   3.350
50806W        W22422  23.198  22.675  14.424
50807W        W22423   6.822  32.506   1.332
50808W        W22424  17.787  22.044  11.559
50809W        W22425  43.531   7.297   0.977
50810W        W22426  23.736  29.579  13.541
50811W        W22427   9.561  22.426  10.654
50812W        W22428  16.215   7.227  14.002
50813W        W22429   6.689  34.401   2.045
50814W        W22430  25.580  24.629   4.705
50815W        W22431   9.353   9.831  14.328
50816W        W22432  22.608  35.069  12.326
50817W        W22433  37.802  18.478   2.930
50818W        W22434  18.423  10.895  11.635
50819W        W22435   9.954  12.076   2.882
50820W        W22436   5.719  36.616   0.799
50821W        W22437   2.244   0.284  14.098
50822W        W22438  42.023  14.782  13.980
50823W        W22439  17.346  14.136   2.533
50824W        W22440  13.870   6.409  14.359
50825W        W22441  22.539  38.372  10.111
50826W        W22442  43.563  31.692   3.456
50827W        W22443  16.537   8.348   2.301
50828W        W22444  41.897  10.360  12.617
50829W        W22445  17.507  17.742   0.728
50830W        W22446  14.533  24.996   4.631
50831W        W22447  27.959  36.840   0.748
50832W        W22448   2.271  38.568  13.548
50833W        W22449  43.332  17.425  12.195
50834W        W22450  42.802  44.021  13.923
50835W        W22451   9.176  43.993  12.800
50836W        W22452  10.345  26.491  12.972
50837W        W22453   4.620   0.491  10.181
50838W        W22454  27.558  28.045  10.856
50839W        W22455  15.636  30.000   2.402
50840W        W22456  31.118  27.167   0.540
50841W        W22457   8.274   5.020   0.868
50842W        W22458  21.015  28.142   2.421
50843W        W22459   4.300   6.237   3.622
50844W        W22460  11.726  18.280  11.709
50845W        W22461  31.528   3.790   3.111
50846W        W22462  23.776   4.875  13.333
50847W        W22463  21.554  39.791   3.861
50848W        W22464  44.275  41.899  13.028
50849W        W22465  33.936  44.261   2.661
50850W        W22466  24.819   7.341   3.262
50851W        W22467  17.689  35.915   0.001
50852W        W22468  19.096  31.425   0.908
50853W        W22469  25.931  32.991   0.766
50854W        W22470   0.278  22.062  12.635
50855W        W22471  11.873  33.143   2.704
50856W        W22472   1.977  29.479  14.322
50857W        W22473  11.679  19.313  11.485
50858W        W22474   1.932  22.304  12.130
50859W        W22475  29.653  20.785   2.700
50860W        W22476  31.333  14.121   1.560
50861W        W22477  33.867   0.725   2.615
50862W        W22478  22.177  39.755  14.823
50863W        W22479  40.975  25.574   4.091
50864W        W22480  24.787  24.931  13.327
50865W        W22481   2.067  17.628  12.504
50866W        W22482  29.085   2.390  12.641
50867W        W22483  35.675  25.760   0.431
50868W        W22484  22.559  10.334   4.604
50869W        W22485  30.217  14.355  11.343
50870W        W22486  22.311   6.973  14.435
50871W        W22487  39.089  21.301  11.991
50872W        W22488  28.115   0.332  14.354
50873W        W22489   9.389   2.423  11.342
50874W        W22490  39.575  13.894  12.050
50875W        W22491  42.341  42.965  10.896
50876W        W22492  12.863  34.765  12.310
50877W        W22493   6.811  28.135  14.761
50878W        W22494  21.174  29.568  12.321
50879W        W22495   4.104  23.749   4.613
50880W        W22496  10.282  18.998  11.173
50881W        W22497  15.098  16.332  11.965
50882W        W22498  18.792  39.422   0.435
50883W        W22499   0.418  29.528  12.574
50884W        W22500  25.532  37.802   4.181
50885W        W22501   2.276  41.357   4.026
50886W        W22502  13.597  32.738  11.134
50887W        W22503   0.700  19.312  10.517
50888W        W22504  11.873  13.745  10.335
50889W        W22505  28.442  17.150   0.237
50890W        W22506  18.319  10.704  11.162
50891W        W22507  24.979  17.224   0.727
50892W        W22508   2.765  36.010  10.737
50893W        W22509   6.795   7.200  11.565
50894W        W22510  12.645  21.036  13.316
50895W        W22511  40.980  20.806   3.259
50896W        W22512  16.058   8.585  11.646
50897W        W22513  32.227  22.311  14.377
50898W        W22514  20.555  35.692  11.606
50899W        W22515  30.160  25.130  13.783
50900W        W22516  28.876  42.894  13.541
50901W        W22517  26.021   9.188   1.677
50902W        W22518   2.940   9.438  12.464
50903W        W22519  22.122   8.465   4.371
50904W        W22520  35.060  14.534  11.929
50905W        W22521  33.888  33.559   2.390
50906W        W22522  35.980  35.177  14.781
50907W        W22523  29.570  35.350   3.312
50908W        W22524  23.741  23.672  11.709
50909W        W22525  22.982  41.032   1.279
50910W        W22526  21.632  21.050   0.960
50911W        W22527  41.413  18.083   3.125
50912W        W22528  21.293  23.198  11.069
50913W        W22529   3.931  41.094  13.862
50914W        W22530   6.625  37.241  12.037
50915W        W22531  33.580  16.873   1.826
50916W        W22532   0.584  35.985   3.600
50917W        W22533  28.851  31.064  11.081
50918W        W22534  37.967  10.559  14.459
50919W        W22535   2.282   7.162  11.998
50920W        W22536   7.718   4.184   1.424
50921W        W22537  13.962   6.285  10.104
50922W        W22538  41.112  27.558  13.346
50923W        W22539  24.105  31.387  10.485
50924W        W22540  43.489  30.620  13.400
50925W        W22541  43.816   4.417   1.693
50926W        W22542  19.288  20.481   2.865
50927W        W22543  15.548  21.324   0.960
50928W        W22544  41.608  20.190   2.962
50929W        W22545  25.177  15.314   2.767
50930W        W22546  31.957  29.153   2.558
50931W        W22547  40.755   0.256  11.978
50932W        W22548  24.646  44.716   4.595
50933W        W22549   9.259  36.888   0.971
50934W        W22550   5.995  24.160   2.695
50935W        W22551   1.716  12.345  11.957
50936W        W22552   6.498  31.753  11.629
50937W        W22553  14.681  10.723  11.586
50938W        W22554  42.458   2.411  10.666
50939W        W22555  30.190  26.268   4.566
50940W        W22556  36.861   0.260   0.747
50941W        W22557   3.427  23.420  10.686
50942W        W22558  11.777  29.269  12.012
50943W        W22559  17.274   9.318   2.868
50944W        W22560  33.998   1.399   3.064
50945W        W22561  43.357  16.719   3.422
50946W        W22562  43.526   4.104   4.090
50947W        W22563  38.413  40.493  11.556
50948W        W22564  31.545  39.287  13.961
50949W        W22565  40.988  40.524  14.012
50950W        W22566   2.671  37.584   3.635
50951W        W22567  43.286  22.848  11.868
50952W        W22568   9.430  44.643  11.384
50953W        W22569   9.320  38.138   1.798
50954W        W22570  21.538  33.072  14.687
50955W        W22571  38.276  30.577   0.929
50956W        W22572   9.693  13.314   3.414
50957W        W22573  44.810  30.341   3.219
50958W        W22574  12.828  27.023   3.174
50959W        W22575  18.944   3.883  11.895
50960W        W22576  41.067   3.540   1.304
50961W        W22577   5.453  32.543  10.535
50962W        W22578  12.477  29.661   2.387
50963W        W22579  43.424  14.613  14.839
50964W        W22580  25.258  42.860   4.218
50965W        W22581  22.545  36.867   4.131
50966W        W22582  39.743   1.395  12.474
50967W        W22583  11.119  33.010  14.015
50968W        W22584  22.931   5.206   0.803
50969W        W22585  12.250  36.843  12.664
50970W        W22586  10.534  28.155  10.400
50971W        W22587  14.638  18.001  11.123
50972W        W22588  26.166  41.010   0.787
50973W        W22589  34.073  11.420   1.748
50974W        W22590  42.012  31.926  13.475
50975W        W22591  22.826   9.396  13.929
50976W        W22592  26.491  18.094   3.934
50977W        W22593  10.721  39.630   1.888
50978W        W22594  23.116  22.694   0.545
50979W        W22595  31.550  42.581  14.853
50980W        W22596   7.624  31.707   2.397
50981W        W22597   7.884  23.733  12.776
50982W        W22598  39.467  14.224  11.263
50983W        W22599   4.133  18.444  13.373
50984W        W22600  37.843  23.260   2.968
50985W        W22601   8.410   5.784  10.961
50986W        W22602  31.122   9.159   0.273
50987W        W22603  15.498  20.435  14.807
50988W        W22604   6.012  29.092   3.871
50989W        W22605   2.487  33.331  13.020
50990W        W22606  10.143  16.605  10.321
50991W        W22607  36.562  37.944  12.936
50992W        W22608  10.209  19.063  12.036
50993W        W22609  15.036  22.183  11.075
50994W        W22610  22.286   2.955   0.896
50995W        W22611   5.958  37.972   1.883
50996W        W22612  12.303  20.762  12.958
50997W        W22613  42.404   3.808  12.971
50998W        W22614  35.124  38.659   1.511
50999W        W22615  30.520  22.405  14.857
51000W        W22616  20.464   5.703   3.616
51001W        W22617   6.945  15.374   0.919
51002W        W22618  32.098  23.152   0.910
51003W        W22619  40.833  20.229   2.366
51004W        W22620  30.447  42.060  10.541
51005W        W22621  13.539   7.827   1.040
51006W        W22622  28.023  20.971  12.910
51007W        W22623  35.978  18.165   1.733
51008W        W22624  24.547  39.468   3.822
51009W        W22625  39.452   1.226   3.394
51010W        W22626  42.568  38.328   2.962
51011W        W22627  25.571   1.263  13.723
51012W        W22628  16.116  32.664  14.358
51013W        W22629  19.727  34.617   4.165
51014W        W22630   3.167  38.833  10.617
51015W        W22631   4.469  36.372   4.863
51016W        W22632   7.207  18.093  13.611
51017W        W22633  36.944   9.630  13.825
51018W        W22634  14.407  44.407  11.487
51019W        W22635  36.900   3.449  12.151
51020W        W22636  11.987   4.219   2.606
51021W        W22637  22.158  32.098  11.059
51022W        W22638  28.388  24.010   1.798
51023W        W22639  27.553  20.775   0.810
51024W        W22640  25.433  28.446  12.517
51025W        W22641  19.049  11.161   4.059
51026W        W22642  19.629  37.596  14.450
51027W        W22643   2.246  42.791  14.933
51028W        W22644  22.437  33.589   2.740
51029W        W22645  18.793  23.510   0.368
51030W        W22646  11.083  43.340   2.686
51031W        W22647  36.790  22.490   4.773
51032W        W22648   3.989  15.103   3.130
51033W        W22649   0.350   4.678  14.958
51034W        W22650  25.516   2.285   2.658
51035W        W22651  38.164  37.199   4.023
51036W        W22652  16.841   8.227  13.506
51037W        W22653  20.695   5.352  14.335
51038W        W22654   2.649  36.050  12.910
51039W        W22655  14.493   5.881   1.769
51040W        W22656  16.999  29.605  11.019
51041W        W22657  42.298  30.784  11.082
51042W        W22658  21.196  42.658   1.433
51043W        W22659   5.809  30.868  13.971
51044W        W22660  35.893  43.535   3.737
51045W        W22661   9.145  12.082  11.845
51046W        W22662  44.591  37.258   3.601
51047W        W22663  37.701  27.118  13.007
51048W        W22664  28.180   5.879   4.426
51049W        W22665  43.526  32.962   3.312
51050W        W22666  31.116  23.948   1.882
51051W        W22667  39.333  17.541   1.719
51052W        W22668  14.222  33.979   3.273
51053W        W22669  14.796  19.172  14.693
51054W        W22670  44.690   5.648  13.312
51055W        W22671  24.145  37.506  14.043
51056W        W22672  25.696  27.088  14.494
51057W        W22673  41.974  10.834   4.654
51058W        W22674  10.723   2.177  14.734
51059W        W22675  13.249  22.848  10.770
51060W        W22676  15.834  40.836  14.334
51061W        W22677  39.337  32.167  12.355
51062W        W22678  15.218   6.955   2.352
51063W        W22679  14.687  12.314   3.116
51064W        W22680  18.881  16.488   0.662
51065W        W22681  41.971  35.883  12.623
51066W        W22682   5.226  24.641   1.429
51067W        W22683  20.842   0.925   4.040
51068W        W22684   3.814   2.024  14.014
51069W        W22685   1.017  36.569   3.584
51070W        W22686  35.529  40.051  14.844
51071W        W22687   8.080  29.115   1.664
51072W        W22688  12.974  44.763  14.397
51073W        W22689  16.865  41.544  14.826
51074W        W22690  39.082  13.674   0.200
51075W        W22691  31.622  21.408   3.887
51076W        W22692  21.072  19.953  12.919
51077W        W22693  12.713  44.308  11.014
51078W        W22694   9.300  37.970  13.030
51079W        W22695  21.672   2.950   4.589
51080W        W22696  37.824  29.958   0.235
51081W        W22697  37.326  27.577   0.773
51082W        W22698  14.402  32.525  12.860
51083W        W22699  32.370  24.200   4.506
51084W        W22700  18.169  24.201   4.630
51085W        W22701  10.549  25.557  14.302
51086W        W22702  40.790  17.208  14.685
51087W        W22703   7.663  40.120  12.770
51088W        W22704  10.124  44.214   0.270
51089W        W22705   9.672  23.821   5.140
51090W        W22706  44.348   6.493  12.410
51091W        W22707  44.503  11.616  11.407
51092W        W22708   1.308  16.461   1.278
51093W        W22709  16.292  35.338  13.828
51094W        W22710  38.128  27.475   0.268
51095W        W22711  33.059  11.124   4.645
51096W        W22712  14.665  44.285  11.924
51097W        W22713   6.981  43.005   2.905
51098W        W22714   1.554  26.057  10.637
51099W        W22715   8.318  40.024   3.284
51100W        W22716  35.499  18.636   0.536
51101W        W22717  37.163  31.536  10.551
51102W        W22718  25.041  13.204  13.051
51103W        W22719  26.030  26.493   3.976
51104W        W22720  16.664   7.809  11.432
51105W        W22721   1.865  29.541  11.316
51106W        W22722  21.787   9.946  14.852
51107W        W22723  11.411  43.798   2.929
51108W        W22724  25.402  29.405   4.181
51109W        W22725   4.163   3.121  11.279
51110W        W22726  42.621  20.140   4.469
51111W        W22727  43.953  44.929  12.826
51112W        W22728  23.214   1.441   2.622
51113W        W22729  25.351   6.901  14.435
51114W        W22730  20.525   5.916   1.019
51115W        W22731  44.494  38.181   0.784
51116W        W22732  32.198  30.082   0.262
51117W        W22733   9.773   0.948  13.958
51118W        W22734   5.943  43.779  14.394
51119W        W22735  23.185  42.367  11.838
51120W        W22736  16.167  10.757   3.749
51121W        W22737   3.323   8.878  10.590
51122W        W22738  25.738  32.769  11.299
51123W        W22739  24.127  20.192   2.122
51124W        W22740  43.466   4.316   3.268
51125W        W22741   8.024  24.752   1.851
51126W        W22742   5.268  36.991   1.798
51127W        W22743  44.528   1.096   0.974
51128W        W22744  16.274  26.152   4.697
51129W        W22745  15.119  10.723  14.975
51130W        W22746  43.909  21.775   4.540
51131W        W22747   5.459  43.487   4.826
51132W        W22748   1.691  44.969   4.218
51133W        W22749  31.045   4.380  11.562
51134W        W22750   0.469  20.230  13.468
51135W        W22751  27.985  32.420   3.423
51136W        W22752  21.612  34.494  13.732
51137W        W22753  33.548  36.614   2.953
51138W        W22754  24.998  20.031   2.817
51139W        W22755  24.009   6.881  12.547
51140W        W22756  10.514  16.833  14.330
51141W        W22757   2.228   6.176  12.138
51142W        W22758  40.799  18.055   0.027
51143W        W22759  17.201   6.904   2.895
51144W        W22760  13.759  42.983   4.661
51145W        W22761  18.625   4.357   2.553
51146W        W22762  19.466  12.296  12.886
51147W        W22763  40.573  41.333  14.928
51148W        W22764  36.862  38.775   3.231
51149W        W22765  18.013  43.343  14.373
51150W        W22766  13.385  14.076  10.621
51151W        W22767   5.265   5.161  14.489
51152W        W22768  28.172  43.753   2.240
51153W        W22769  20.073  30.516  12.577
51154W        W22770  33.140  35.964  11.729
51155W        W22771  26.686  39.580  13.450
51156W        W22772   5.207  34.436  14.362
51157W        W22773  15.794  16.831   1.241
51158W        W22774  26.142  11.855   3.384
51159W        W22775  30.146  20.759   2.856
51160W        W22776  22.771  16.136  11.925
51161W        W22777  15.835  38.887  10.710
51162W        W22778  10.298  11.409   4.114
51163W        W22779   6.834  28.121   4.054
51164W        W22780   3.978  39.812  11.953
51165W        W22781  20.744  27.591  13.853
51166W        W22782  13.749  28.157   4.553
51167W        W22783  12.660  17.868  11.105
51168W        W22784  25.605  23.479   5.065
51169W        W22785  12.097  25.537   0.214
51170W        W22786  33.615  43.401   3.800
51171W        W22787   3.170  16.079  13.791
51172W        W22788  23.967  16.726  13.017
51173W        W22789  34.889   6.890  12.609
51174W        W22790   6.486  12.864  10.679
51175W        W22791  43.552  43.839   4.375
51176W        W22792  17.205   4.328   4.378
51177W        W22793  17.732  20.757   3.780
51178W        W22794  20.248  21.168  14.039
51179W        W22795  10.358   4.382   1.389
51180W        W22796  16.359  17.103   4.579
51181W        W22797   7.670  18.293   1.329
51182W        W22798  31.048   7.694   0.300
51183W        W22799  35.970   1.412  12.990
51184W        W22800  18.117  23.174  14.290
51185W        W22801   1.693  42.843   4.713
51186W        W22802  38.991  38.938   2.219
51187W        W22803  27.931  44.051  13.413
51188W        W22804  40.849  21.217  12.903
51189W        W22805  38.268  36.380   0.970
51190W        W22806  36.901  42.915  10.585
51191W        W22807  32.004   3.703   3.353
51192W        W22808   8.235  16.157   3.594
51193W        W22809  18.927  28.051  14.313
51194W        W22810  35.957  42.784   4.907
51195W        W22811  31.661  11.400   1.776
51196W        W22812  13.230  38.215  11.494
51197W        W22813   5.407   6.521  13.246
51198W        W22814   6.623  28.107   2.573
51199W        W22815  39.384  39.496   2.646
51200W        W22816  34.778  18.475   2.257
51201W        W22817  17.728  30.509   2.852
51202W        W22818   6.428  30.008   3.256
51203W        W22819  37.092  32.205   1.224
51204W        W22820  25.895  25.162  12.463
51205W        W22821  40.321  34.132   2.722
51206W        W22822  21.058   1.547  14.377
51207W        W22823  11.667  31.508  12.836
51208W        W22824  43.184   2.229  14.896
51209W        W22825  24.337  24.994   2.897
51210W        W22826  40.555   9.648   2.274
51211W        W22827  39.538  42.009  13.834
51212W        W22828  32.504  19.823   4.006
51213W        W22829   6.408   0.734  14.748
51214W        W22830  11.880  44.001  11.570
51215W        W22831  28.535   2.217  10.920
51216W        W22832  25.114  23.751  12.581
51217W        W22833   4.937   1.304  11.317
51218W        W22834  24.408  17.954   2.491
51219W        W22835  40.030  42.961  13.923
51220W        W22836  39.060  21.768   2.301
51221W        W22837   7.227  30.533   2.104
51222W        W22838  37.661  27.758   0.286
51223W        W22839  17.489  35.879   3.126
51224W        W22840  23.059  18.644  11.714
51225W        W22841  34.820   3.383  10.606
51226W        W22842  16.249  15.538  11.047
51227W        W22843  34.787   1.885  14.797
51228W        W22844  44.860   1.369   4.362
51229W        W22845  35.466  39.508   3.609
51230W        W22846  37.780  38.719   1.918
51231W        W22847   3.441   3.422   4.711
51232W        W22848  32.888  34.507  13.246
51233W        W22849  15.126  28.851  10.696
51234W        W22850  22.533   3.734   1.981
51235W        W22851   3.913   9.606   2.165
51236W        W22852  31.113  23.493  14.372
51237W        W22853  29.454  12.291  13.964
51238W        W22854  34.864   4.106   0.962
51239W        W22855  26.903  24.021  13.784
51240W        W22856  29.042   2.302   1.891
51241W        W22857  44.989  31.012   2.792
51242W        W22858  37.882  29.938   1.964
51243W        W22859  22.736   0.638   0.276
51244W        W22860  29.730  36.652  12.484
51245W        W22861  16.745  17.601   1.179
51246W        W22862  16.227  32.840  14.837
51247W        W22863  17.261   7.309   2.266
51248W        W22864  27.578   7.761  14.832
51249W        W22865  17.779  44.559   9.770
51250W        W22866  44.246  19.713  12.381
51251W        W22867  27.182  23.603  11.931
51252W        W22868  37.358   8.385   2.716
51253W        W22869   2.542   1.151  13.735
51254W        W22870  21.279   2.880  12.331
51255W        W22871   6.154  26.204   3.224
51256W        W22872  27.424  17.126   0.301
51257W        W22873   9.465  40.408  11.160
51258W        W22874   3.260  15.708   1.478
51259W        W22875  26.986  20.350  13.573
51260W        W22876  16.036  40.375  12.026
51261W        W22877  39.590  38.942  10.590
51262W        W22878  40.548  19.182   1.262
51263W        W22879  24.142   6.306  10.297
51264W        W22880  33.440  38.820   0.526
51265W        W22881  32.627  26.420  13.495
51266W        W22882  26.423   9.324   0.723
51267W        W22883  22.420  43.295   1.012
51268W        W22884  35.113   6.203   2.605
51269W        W22885   3.867  40.942   2.457
51270W        W22886  42.480  12.593   2.265
51271W        W22887  25.888   4.379   1.725
51272W        W22888  19.254  40.560  14.413
51273W        W22889  37.359   6.428   2.823
51274W        W22890  29.964  36.540  14.216
51275W        W22891  39.358   3.547  10.568
51276W        W22892  24.144  27.159  14.753
51277W        W22893  12.617  23.749   4.793
51278W        W22894  10.237  13.102   0.097
51279W        W22895  37.439  14.336  11.934
51280W        W22896  34.128   2.520   1.334
51281W        W22897   8.621  31.814   4.593
51282W        W22898   1.016  34.919  12.066
51283W        W22899   5.687  26.096   1.767
51284W        W22900   2.850  28.129   3.259
51285W        W22901  39.543  25.584   0.908
51286W        W22902  39.430  29.032   2.935
51287W        W22903  10.761  15.041  10.461
51288W        W22904  40.358  37.591   3.114
51289W        W22905  11.385   1.816   3.827
51290W        W22906  26.424  41.468  12.354
51291W        W22907  23.558  14.227   2.834
51292W        W22908  37.556  20.432  11.528
51293W        W22909   4.722  41.869   3.318
51294W        W22910  21.404  12.480  10.896
51295W        W22911  40.806  26.216  12.697
51296W        W22912  12.684  20.142  10.813
51297W        W22913   5.653  21.784  11.304
51298W        W22914  22.702  24.430  12.434
51299W        W22915  25.899  37.807   3.827
51300W        W22916  23.140  11.651  12.028
51301W        W22917  40.472  32.687  11.694
51302W        W22918  43.309  27.178   2.356
51303W        W22919  11.658   5.727   4.611
51304W        W22920  40.064  34.985   1.192
51305W        W22921  19.318   1.460   3.668
51306W        W22922   7.869  38.519   0.245
51307W        W22923   7.527  28.642   2.735
51308W        W22924   4.501   1.519   2.276
51309W        W22925  29.136  12.603  14.899
51310W        W22926  30.504  41.039  12.111
51311W        W22927  16.183   7.426  10.416
51312W        W22928   4.293  23.688   2.856
51313W        W22929  33.577  26.678   2.700
51314W        W22930  27.642  44.070   9.917
51315W        W22931  12.615  37.050   3.291
51316W        W22932  16.832   6.396   0.090
51317W        W22933  10.631  35.454   0.303
51318W        W22934  37.878   6.243   4.593
51319W        W22935  12.355  38.412   0.033
51320W        W22936  41.855   7.807  13.849
51321W        W22937  42.302  21.198   4.581
51322W        W22938  28.609  43.263   0.675
51323W        W22939  19.695  34.657   1.806
51324W        W22940  40.448  19.179   0.240
51325W        W22941  13.396  19.804  10.578
51326W        W22942  30.920  23.295  10.493
51327W        W22943  32.873   6.625  14.474
51328W        W22944  11.700  11.776   5.094
51329W        W22945   3.006  18.786  11.559
51330W        W22946  41.707  25.064   3.313
51331W        W22947  25.638  29.746   3.830
51332W        W22948  38.566   3.864  11.558
51333W        W22949  18.332  44.329  14.529
51334W        W22950  18.514  26.935  12.502
51335W        W22951  32.447  11.768  13.106
51336W        W22952  30.583  16.824   2.703
51337W        W22953  32.569   4.579  12.336
51338W        W22954  24.557   9.836  14.720
51339W        W22955   4.031  30.734  11.516
51340W        W22956  38.869  29.607  10.727
51341W        W22957  39.471   3.148   4.725
51342W        W22958   6.166  19.510  13.884
51343W        W22959   2.002  40.163  14.342
51344W        W22960  22.170  23.104  10.517
51345W        W22961  36.963  38.659   1.390
51346W        W22962   8.100   2.830  11.048
51347W        W22963  31.150  24.656  13.335
51348W        W22964  21.826  34.378   3.510
51349W        W22965   7.847  35.165  10.760
51350W        W22966  34.617  43.926  10.673
51351W        W22967   3.807  26.732   1.634
51352W        W22968  19.309  11.946  14.414
51353W        W22969  33.129   1.752   0.863
51354W        W22970  37.476  44.219   0.221
51355W        W22971  41.292  33.529  10.559
51356W        W22972  18.673  38.073   0.824
51357W        W22973  22.822  17.976   3.021
51358W        W22974  41.093   2.238   2.769
51359W        W22975  37.804  14.743   0.754
51360W        W22976  17.614   8.662  14.047
51361W        W22977  12.496  33.587  12.824
51362W        W22978   3.824  23.744  10.734
51363W        W22979  15.776  30.259   2.846
51364W        W22980  29.453  44.850   0.991
51365W        W22981   7.554  39.504  11.829
51366W        W22982  27.463  10.393   2.692
51367W        W22983  29.106   4.195   0.796
51368W        W22984  12.514  27.229  11.570
51369W        W22985   4.187  30.678   4.605
51370W        W22986  34.492  10.607   1.777
51371W        W22987  28.199  29.938  10.654
51372W        W22988   0.397  35.654  11.966
51373W        W22989  22.655  42.522   2.385
51374W        W22990  13.131  24.484  14.321
51375W        W22991  25.460  39.133   2.317
51376W        W22992  21.979   3.922   3.275
51377W        W22993   3.515  15.290   1.872
51378W        W22994  20.150  41.270  10.479
51379W        W22995  41.752  41.467  13.975
51380W        W22996  44.451  35.002   0.791
51381W        W22997  10.361  31.062  14.227
51382W        W22998   6.608  32.082   1.530
51383W        W22999  28.580   8.971   0.150
51384W        W23000  40.469  20.493   1.190
51385W        W23001  43.927  17.629   0.372
51386W        W23002  30.720   6.914  11.207
51387W        W23003  21.730  25.549  14.896
51388W        W23004  19.352  34.490   3.690
51389W        W23005  29.986  17.161  13.904
51390W        W23006  15.076  28.947  13.945
51391W        W23007  24.470  34.079  12.424
51392W        W23008  11.010  26.496   1.837
51393W        W23009   5.098  19.535   4.064
51394W        W23010  20.542  41.579  12.586
51395W        W23011  40.223  34.564  12.031
51396W        W23012  28.243   0.203   3.462
51397W        W23013   6.586  38.430   0.537
51398W        W23014  40.769  39.454   0.004
51399W        W23015   6.637  17.154  11.411
51400W        W23016   9.718  25.952  12.683
51401W        W23017   7.728  40.004  11.876
51402W        W23018  26.187  35.102   4.530
51403W        W23019  39.078  28.543  13.777
51404W        W23020  22.543   3.267  11.687
51405W        W23021  29.451  18.342  13.488
51406W        W23022  42.549  35.272  12.718
51407W        W23023  23.538  25.698   0.817
51408W        W23024  31.098  13.658  14.467
51409W        W23025  31.514  38.534   4.481
51410W        W23026  36.290   5.898   3.018
51411W        W23027  16.679  42.783   2.617
51412W        W23028  36.399  19.766   0.321
51413W        W23029  36.241   2.983  11.098
51414W        W23030  28.299  13.876   1.256
51415W        W23031  42.371   8.340  10.501
51416W        W23032  31.506  32.014   3.143
51417W        W23033  25.930   2.907   0.767
51418W        W23034  32.701   4.667  10.326
51419W        W23035  44.070  28.720   4.111
51420W        W23036  13.347  30.164   0.927
51421W        W23037  20.562  30.686   2.877
51422W        W23038  22.002  16.472  11.196
51423W        W23039  43.864  28.169  14.876
51424W        W23040  23.831  23.028  13.857
51425W        W23041  37.109   8.002  14.565
51426W        W23042  40.425   9.678   0.143
51427W        W23043  28.614  10.231  13.430
51428W        W23044   0.355  16.106  14.653
51429W        W23045   2.109  12.152  12.327
51430W        W23046  36.075   8.756  13.579
51431W        W23047  25.346   5.637  11.414
51432W        W23048   4.595  16.988  13.564
51433W        W23049   3.611  21.344   2.728
51434W        W23050  38.392  11.193   1.774
51435W        W23051  28.681  19.707  12.613
51436W        W23052  31.969   9.720   2.342
51437W        W23053  15.608  13.830   2.442
51438W        W23054  39.299  30.055  12.043
51439W        W23055  27.583  27.915  14.702
51440W        W23056   5.902  40.545   1.922
51441W        W23057   9.782   1.554  13.123
51442W        W23058  11.890   0.365  12.657
51443W        W23059  11.603  38.591  14.577
51444W        W23060  22.322  20.624   3.164
51445W        W23061  28.176  32.171  12.486
51446W        W23062  15.577   4.775   2.192
51447W        W23063  35.410   1.699  14.543
51448W        W23064  43.090  27.963   3.711
51449W        W23065  11.782   5.481   3.773
51450W        W23066  11.653  31.954   4.490
51451W        W23067  25.675  31.436   2.746
51452W        W23068  29.297  21.559  12.592
51453W        W23069  18.339   1.354   3.212
51454W        W23070  35.506   8.158   2.293
51455W        W23071  39.920  22.242   0.639
51456W        W23072  19.975  42.148   0.508
51457W        W23073  20.059  40.268   2.829
51458W        W23074  16.653  13.653  13.850
51459W        W23075  38.031  22.142  10.789
51460W        W23076   6.431   1.386  13.489
51461W        W23077   9.335   0.235   5.269
51462W        W23078  28.476  25.097  13.303
51463W        W23079  22.567  39.081   2.184
51464W        W23080  40.833  19.485  14.360
51465W        W23081  24.311  22.250   0.501
51466W        W23082   5.211  18.050   0.412
51467W        W23083  35.438  12.639  14.795
51468W        W23084  26.486  20.668   4.889
51469W        W23085  11.732   6.584  13.771
51470W        W23086  26.831  11.921   1.833
51471W        W23087  24.945   8.325  11.202
51472W        W23088   4.918  41.018   3.938
51473W        W23089   2.495  44.881  13.852
51474W        W23090  11.774  23.723   1.749
51475W        W23091  44.793  37.485  12.361
51476W        W23092   1.982  20.346   0.007
51477W        W23093   5.835  20.331  13.016
51478W        W23094  35.575   4.645   0.734
51479W        W23095   0.476  21.599   3.672
51480W        W23096  26.516  22.747   3.157
51481W        W23097  37.942  33.094  10.825
51482W        W23098  42.911  44.497   2.897
51483W        W23099   6.812  13.537   3.844
51484W        W23100  42.913   5.064  13.971
51485W        W23101  30.961  24.092  12.064
51486W        W23102  31.616  35.136  13.966
51487W        W23103  24.238  10.633   1.654
51488W        W23104  15.769  42.065  11.938
51489W        W23105  15.782  21.386   4.177
51490W        W23106   7.933   5.641   4.631
51491W        W23107   2.046   1.427  14.040
51492W        W23108  44.717   8.442   3.249
51493W        W23109  10.776   9.212  11.577
51494W        W23110  35.459  21.591  11.561
51495W        W23111   3.980  26.718  11.424
51496W        W23112  36.385   3.336  13.011
51497W        W23113   7.402   6.746  12.565
51498W        W23114  11.743  14.369   2.717
51499W        W23115  18.370  33.128  12.068
51500W        W23116  38.568  22.580   2.359
51501W        W23117  32.181  17.591   0.848
51502W        W23118  21.796   2.694   1.742
51503W        W23119  35.401  22.300   2.268
51504W        W23120  12.199  42.035  10.539
51505W        W23121  12.698  32.744  10.781
51506W        W23122  15.372  29.927   2.841
51507W        W23123  11.581  35.279   4.502
51508W        W23124   8.329  20.629  10.480
51509W        W23125  23.772   8.844  11.532
51510W        W23126  19.942  24.529  11.979
51511W        W23127  29.084   7.779  11.364
51512W        W23128  43.039  43.397  10.750
51513W        W23129  10.775  18.662   4.659
51514W        W23130  28.386  38.961  12.123
51515W        W23131  42.497   7.578   3.854
51516W        W23132  35.393  40.630  13.967
51517W        W23133  26.940  36.439  13.438
51518W        W23134  16.156  18.499   1.181
51519W        W23135  42.499  29.992  11.444
51520W        W23136   8.875   0.528  12.896
51521W        W23137  21.079  40.003  13.477
51522W        W23138   9.113  42.454  12.469
51523W        W23139  35.817   2.215  14.349
51524W        W23140  35.843  10.776   2.391
51525W        W23141  35.633  25.674  12.541
51526W        W23142  28.059  16.564   2.438
51527W        W23143  25.035  15.802  13.951
51528W        W23144  30.957  17.491   0.466
51529W        W23145  20.946  16.806  14.523
51530W        W23146  29.945   9.387   2.264
51531W        W23147  22.722   5.747   0.062
51532W        W23148   8.612  19.194  12.121
51533W        W23149  21.293  39.477  12.507
51534W        W23150   5.829  16.077  12.697
51535W        W23151  23.163   6.927  11.060
51536W        W23152  28.510  25.978  12.437
51537W        W23153   2.755   6.640   0.638
51538W        W23154  38.355  24.012  14.819
51539W        W23155  31.994  17.265   4.160
51540W        W23156  43.803  35.981  10.659
51541W        W23157  44.906  20.771  13.899
51542W        W23158  32.600  16.623   1.184
51543W        W23159   0.760  13.261   2.136
51544W        W23160   8.775   9.651   4.266
51545W        W23161   3.311  22.731   4.035
51546W        W23162  27.673  33.857  12.470
51547W        W23163  33.962   7.282  14.114
51548W        W23164  13.384  39.833  14.033
51549W        W23165  38.922  28.252  10.714
51550W        W23166  33.651  11.695  14.445
51551W        W23167  11.444  28.585   2.388
51552W        W23168  27.200  35.415  12.034
51553W        W23169  17.274  30.983   1.449
51554W        W23170  34.660   3.873  10.644
51555W        W23171  17.179  13.205  12.975
51556W        W23172  40.433  22.570   1.343
51557W        W23173  35.297  11.667  11.977
51558W        W23174  25.294  27.947   2.281
51559W        W23175  18.671  37.033   2.200
51560W        W23176  17.219  24.396  14.484
51561W        W23177  21.053  43.507  10.590
51562W        W23178  23.049  15.365   4.144
51563W        W23179  19.771  27.578  10.652
51564W        W23180  32.417  35.529   1.427
51565W        W23181  39.450  28.055   0.778
51566W        W23182   3.303  22.143   0.967
51567W        W23183  36.643  27.023  11.180
51568W        W23184  23.226  12.225   0.501
51569W        W23185  38.903  22.122   0.786
51570W        W23186  15.301  29.129   5.035
51571W        W23187   7.511   2.459  13.543
51572W        W23188  38.476  12.176  13.320
51573W        W23189  29.455  18.965  12.029
51574W        W23190   7.744  16.132  12.880
51575W        W23191  31.639  19.008  11.161
51576W        W23192   5.538  32.858   3.166
51577W        W23193  44.359  15.861   3.596
51578W        W23194   3.496   3.722   4.104
51579W        W23195  27.845  24.617   0.371
51580W        W23196  16.692   5.276  10.146
51581W        W23197   9.919  29.045   1.270
51582W        W23198  16.781  28.199   2.436
51583W        W23199  22.011  19.577  11.612
51584W        W23200  15.757  37.432   0.885
51585W        W23201  11.099  38.122   2.151
51586W        W23202  24.701  37.958  11.451
51587W        W23203  24.569  35.988  11.372
51588W        W23204  15.071   2.941  12.535
51589W        W23205   7.069  31.892   1.651
51590W        W23206  24.247  40.804   2.928
51591W        W23207  24.054   7.620  14.064
51592W        W23208  17.366  10.318   1.345
51593W        W23209  19.540  42.710   0.701
51594W        W23210  28.753   0.052  14.948
51595W        W23211  14.199   6.322  11.987
51596W        W23212   4.779   3.403   3.384
51597W        W23213  15.088   6.694   3.196
51598W        W23214  32.072   7.056  14.743
51599W        W23215  31.910  31.441   2.484
51600W        W23216  31.018   3.855  14.804
51601W        W23217   5.647  42.518   4.481
51602W        W23218  32.837  14.067  12.494
51603W        W23219  42.025  17.146   2.238
51604W        W23220  32.921  42.847   0.895
51605W        W23221   2.800   5.734  11.244
51606W        W23222  19.146  37.320   0.771
51607W        W23223  31.812   1.456   1.440
51608W        W23224   3.719  14.271  10.614
51609W        W23225  26.595  18.904   1.873
51610W        W23226  26.450  29.201  14.352
51611W        W23227  43.058  33.471   4.742
51612W        W23228  19.569  26.672  14.367
51613W        W23229  27.955  39.263   3.622
51614W        W23230   1.041  38.033   0.362
51615W        W23231  30.000  37.993  12.468
51616W        W23232  33.370   0.533   0.890
51617W        W23233  36.260  16.060  12.239
51618W        W23234  36.335   5.203  14.944
51619W        W23235   9.619  39.831   3.273
51620W        W23236  42.379  42.908  13.359
51621W        W23237  18.037  37.432  12.952
51622W        W23238  35.023   4.622   4.113
51623W        W23239   5.339  15.800  14.967
51624W        W23240  32.239  40.881   3.319
51625W        W23241  26.948  24.241   4.704
51626W        W23242  36.037  34.804   3.615
51627W        W23243  22.595  42.911  13.255
51628W        W23244   3.290   3.746  13.008
51629W        W23245   4.259   7.845  12.316
51630W        W23246  34.649  24.462  10.524
51631W        W23247  30.564  34.894   3.570
51632W        W23248  25.001  12.159   3.672
51633W        W23249  38.631  24.062  12.052
51634W        W23250  31.959  31.529   1.973
51635W        W23251   1.243  41.329  14.315
51636W        W23252  32.744  44.177  10.272
51637W        W23253  43.040  11.181  14.427
51638W        W23254   5.204   9.972   0.742
51639W        W23255   7.440   5.505   0.757
51640W        W23256   2.226  41.808   2.268
51641W        W23257  27.654  32.416  13.438
51642W        W23258  29.511  29.956   0.470
51643W        W23259   8.387  42.800  12.933
51644W        W23260  43.042  25.849  14.411
51645W        W23261  32.547   9.047   0.294
51646W        W23262  39.445   3.383  13.366
51647W        W23263  17.136  23.909  14.324
51648W        W23264  26.577  20.271  14.380
51649W        W23265  26.774  19.462   4.712
51650W        W23266  14.869  26.570   0.513
51651W        W23267  32.671  28.949  14.039
51652W        W23268   0.065  33.092  12.300
51653W        W23269  18.347  37.133   3.915
51654W        W23270   1.932   2.247   4.044
51655W        W23271  15.760  30.504   2.330
51656W        W23272  37.456  35.621  11.638
51657W        W23273   9.287  41.232  11.223
51658W        W23274  41.475   6.973   2.636
51659W        W23275  13.126  24.455  12.396
51660W        W23276   4.647  37.538  12.361
51661W        W23277  34.697  16.862   1.664
51662W        W23278  11.070  17.760  14.357
51663W        W23279  29.150  12.068   3.724
51664W        W23280  11.729  28.391  13.443
51665W        W23281  31.823  19.865  13.424
51666W        W23282  40.977  36.907   1.180
51667W        W23283  10.553  25.114  11.991
51668W        W23284  41.761  22.168   4.638
51669W        W23285   8.447  38.443  11.656
51670W        W23286  20.200  16.809   1.725
51671W        W23287  20.248   3.807  11.550
51672W        W23288   8.298  14.560   0.790
51673W        W23289  25.553  30.561  12.391
51674W        W23290  35.519  27.243  14.938
51675W        W23291   4.384  33.605   4.432
51676W        W23292  27.321  12.829  10.772
51677W        W23293   9.416  37.594   4.587
51678W        W23294  42.541  29.059   3.588
51679W        W23295  15.412  11.727   2.690
51680W        W23296  22.154  16.031   1.362
51681W        W23297  11.255  18.743   3.283
51682W        W23298   8.795   8.302  12.369
51683W        W23299  39.763  13.190   2.657
51684W        W23300  16.990  21.640   3.847
51685W        W23301  13.562  18.209  12.695
51686W        W23302  44.355  35.796   5.434
51687W        W23303  20.912  21.997   1.336
51688W        W23304   1.035  44.672  14.688
51689W        W23305   5.271  28.120   3.908
51690W        W23306   9.696  22.530   4.228
51691W        W23307  32.420  25.026  13.322
51692W        W23308  31.205  35.727  11.543
51693W        W23309  30.749  18.198   2.767
51694W        W23310   4.775  29.411  14.942
51695W        W23311  40.994   5.211   2.377
51696W        W23312   9.248  17.611  12.077
51697W        W23313  33.113  19.147  11.194
51698W        W23314  21.687  25.585   2.775
51699W        W23315  28.978  16.692  13.507
51700W        W23316  39.294  25.526   4.775
51701W        W23317  43.074   5.541   1.454
51702W        W23318  14.767  26.026  13.089
51703W        W23319  31.859  19.209  12.266
51704W        W23320  12.598  40.803  10.797
51705W        W23321  39.634  13.368   2.180
51706W        W23322   1.411   9.581  11.858
51707W        W23323  11.013  31.478  14.511
51708W        W23324  19.622  17.382   3.201
51709W        W23325  23.034  22.703  12.821
51710W        W23326  16.080  17.602   1.694
51711W        W23327  13.765  11.649  13.325
51712W        W23328  33.555  30.675   1.671
51713W        W23329   6.099   6.010  11.458
51714W        W23330  11.087   9.903   1.912
51715W        W23331  32.064  17.802   2.761
51716W        W23332  24.182  21.110   0.794
51717W        W23333   4.251  30.175   4.677
51718W        W23334  43.962   2.033   2.754
51719W        W23335   4.427  27.162   2.827
51720W        W23336  18.000   8.449   2.283
51721W        W23337  44.015   6.701   4.073
51722W        W23338  26.589  38.456   2.197
51723W        W23339  37.208   0.784   1.067
51724W        W23340  23.581  16.231  13.780
51725W        W23341  44.217  34.065   4.817
51726W        W23342  27.281  12.977   5.518
51727W        W23343  39.512  32.616  13.927
51728W        W23344   0.263  24.542   2.299
51729W        W23345   4.851  31.677  12.640
51730W        W23346  14.751  44.540   0.967
51731W        W23347  15.686  44.078   3.727
51732W        W23348   2.417   4.492   0.846
51733W        W23349  11.814  28.689  11.135
51734W        W23350  26.016  11.301   3.655
51735W        W23351  15.809   0.805  10.524
51736W        W23352  18.597  34.985  11.011
51737W        W23353   2.472  27.665  13.794
51738W        W23354  34.214   5.210   1.971
51739W        W23355  18.397  26.324  10.296
51740W        W23356  15.672  30.501   4.591
51741W        W23357  12.844   0.731  14.471
51742W        W23358  31.718  26.050   2.733
51743W        W23359  17.615  33.221  10.767
51744W        W23360  21.249  23.661  13.984
51745W        W23361  22.044  29.733   3.557
51746W        W23362  24.662   9.170   0.335
51747W        W23363  35.340  29.800  12.064
51748W        W23364  30.240  24.044   4.845
51749W        W23365  21.042  25.733   1.908
51750W        W23366  27.483  13.202   2.845
51751W        W23367   1.953  43.121  11.076
51752W        W23368  43.724  42.472   1.173
51753W        W23369  33.052  22.975  12.656
51754W        W23370  35.556  11.561  10.350
51755W        W23371  30.109   0.806  12.678
51756W        W23372  41.001   0.938  11.457
51757W        W23373  10.217  15.068  11.188
51758W        W23374  11.632   7.867  13.788
51759W        W23375  34.402  22.106  14.249
51760W        W23376  14.756   9.087   2.055
51761W        W23377  29.532   3.335  14.008
51762W        W23378  40.852  21.301   0.931
51763W        W23379   7.571  11.108   1.239
51764W        W23380  13.808   5.141  13.090
51765W        W23381  24.496   4.650   3.089
51766W        W23382  10.286  28.012  11.350
51767W        W23383  44.514  23.764  10.189
51768W        W23384   5.925  23.143  11.994
51769W        W23385  39.986  33.941  11.533
51770W        W23386  43.233   5.637   0.270
51771W        W23387  17.275  24.517   3.227
51772W        W23388  11.043   3.395   1.999
51773W        W23389  34.399  39.674   2.255
51774W        W23390  30.071   7.950  13.119
51775W        W23391  43.344  38.913   0.693
51776W        W23392  33.086  30.860   1.882
51777W        W23393  20.643  33.970   3.620
51778W        W23394   3.720  17.560   4.195
51779W        W23395   4.787  31.768   4.146
51780W        W23396  22.118  30.073   0.164
51781W        W23397  44.256  17.698   4.185
51782W        W23398  10.528  34.068   3.652
51783W        W23399  15.072  16.361   4.554
51784W        W23400  33.170  39.035  11.073
51785W        W23401  38.549  24.243  14.335
51786W        W23402  30.881  13.131  12.449
51787W        W23403  21.539  25.165  11.531
51788W        W23404  15.441  19.972   4.180
51789W        W23405  17.377  42.731   0.406
51790W        W23406  32.820  32.149  12.006
51791W        W23407  16.214  35.883  10.753
51792W        W23408  40.459  36.915  13.915
51793W        W23409  41.124  21.792  10.991
51794W        W23410  16.148  19.139  13.308
51795W        W23411  34.822   3.925  13.434
51796W        W23412  34.979   8.316   1.603
51797W        W23413   5.443   7.703  11.104
51798W        W23414  12.851  36.465   1.227
51799W        W23415  41.482  15.169  14.900
51800W        W23416  21.187  10.672   3.206
51801W        W23417  15.557  34.778   4.994
51802W        W23418  25.617  26.202  10.693
51803W        W23419  36.760  22.270   1.793
51804W        W23420   7.789   9.415  14.321
51805W        W23421  40.847  17.709  12.056
51806W        W23422   8.647   2.218   4.578
51807W        W23423  39.839  29.579  12.398
51808W        W23424  17.674  20.803  14.481
51809W        W23425  30.530  29.951  13.759
51810W        W23426  32.736  38.320   1.271
51811W        W23427   5.814  24.194   0.943
51812W        W23428  44.196  38.786  12.584
51813W        W23429  37.833  35.047  14.528
51814W        W23430  17.179   3.805   2.737
51815W        W23431  12.118   8.087  10.744
51816W        W23432   6.486  14.535   2.296
51817W        W23433  27.425   2.376   4.164
51818W        W23434  19.499  17.761   2.335
51819W        W23435  35.019  31.224  13.123
51820W        W23436   6.718  32.068  11.967
51821W        W23437  11.418  17.099  11.174
51822W        W23438   9.560  34.633   3.574
51823W        W23439   1.096   8.430   0.396
51824W        W23440   7.030  44.983   2.290
51825W        W23441  37.102   5.194   4.906
51826W        W23442  14.763  20.358   1.241
51827W        W23443   6.638  44.118   1.887
51828W        W23444  11.081  22.397   0.854
51829W        W23445  36.343  28.968  11.388
51830W        W23446  34.358  16.102   0.365
51831W        W23447   9.606  14.196   0.861
51832W        W23448   4.409  43.224   0.405
51833W        W23449  22.462  18.148  12.411
51834W        W23450  36.914  26.176   3.215
51835W        W23451  31.988  41.067  13.844
51836W        W23452  29.558  43.329   2.557
51837W        W23453  16.152   8.427  12.919
51838W        W23454  14.717  44.266  12.841
51839W        W23455  40.060  42.253   1.492
51840W        W23456  18.407  40.428   5.034
51841W        W23457  19.549  41.943   3.184
51842W        W23458   0.806  40.760   4.806
51843W        W23459  35.560  42.762  12.598
51844W        W23460  21.803  24.356  12.450
51845W        W23461  37.400  29.503  12.971
51846W        W23462  33.456  29.687   1.284
51847W        W23463  24.331  39.105   0.637
51848W        W23464  39.936   6.746  10.545
51849W        W23465  27.651  22.044  13.502
51850W        W23466  42.580  17.101  11.718
51851W        W23467   1.151  31.593   4.255
51852W        W23468  29.991  16.131   3.242
51853W        W23469   5.780  40.563   2.434
51854W        W23470  15.594  28.293   2.764
51855W        W23471  44.943  41.475   1.818
51856W        W23472  11.292  17.015   1.908
51857W        W23473  31.594  35.326  10.654
51858W        W23474  37.112  26.598   4.092
51859W        W23475  33.371   5.404  12.658
51860W        W23476   0.148  35.079   3.866
51861W        W23477  12.753  41.475   3.703
51862W        W23478  38.921  34.167   2.046
51863W        W23479  31.243  42.454   3.191
51864W        W23480  43.591  18.503  12.838
51865W        W23481  29.540  16.236  14.757
51866W        W23482  23.040  16.415  12.610
51867W        W23483  35.952  20.011   3.178
51868W        W23484  36.479   8.216   0.771
51869W        W23485  13.269  38.909   3.693
51870W        W23486  22.739   8.676  14.669
51871W        W23487  20.084  34.904  10.395
51872W        W23488   3.152  30.171   0.434
51873W        W23489  34.005  11.873  12.935
51874W        W23490  22.191  36.863  11.599
51875W        W23491  14.367  38.483  11.517
51876W        W23492   0.641   8.700   0.502
51877W        W23493  12.181  35.668  14.783
51878W        W23494  41.580  43.821  10.561
51879W        W23495  28.297  33.924   2.267
51880W        W23496   9.773  22.258  11.089
51881W        W23497  10.017  42.385   0.206
51882W        W23498   6.943  40.546  10.924
51883W        W23499  26.493  20.043   1.228
51884W        W23500   9.907  40.842   1.718
51885W        W23501  30.857  36.122   0.441
51886W        W23502  33.437   8.313  12.858
51887W        W23503   9.353  40.593   1.587
51888W        W23504  18.171   5.669  13.454
51889W        W23505  11.257  20.501   4.512
51890W        W23506  35.010   8.265  11.145
51891W        W23507  36.525  31.725   3.807
51892W        W23508  22.927   1.898   3.364
51893W        W23509  21.598  33.658  10.831
51894W        W23510  15.563  29.049   4.603
51895W        W23511  18.200  36.011  13.063
51896W        W23512  33.969   1.508   2.323
51897W        W23513  28.609  43.038   4.456
51898W        W23514  40.636  22.147  13.457
51899W        W23515   3.334   4.198   1.666
51900W        W23516  13.672  27.245   4.177
51901W        W23517  12.237  23.285   4.101
51902W        W23518  37.167   4.755   2.189
51903W        W23519  30.524  11.518   1.735
51904W        W23520   1.796  38.952   4.741
51905W        W23521   2.248  32.854  14.377
51906W        W23522  20.248  12.671   0.497
51907W        W23523  18.208  32.224   4.326
51908W        W23524   6.266  32.956   4.240
51909W        W23525   3.502  20.657   4.295
51910W        W23526   4.714  12.206   0.525
51911W        W23527  15.733  26.768   0.566
51912W        W23528  37.605  26.124  12.458
51913W        W23529  39.859  36.801   0.977
51914W        W23530   3.822  17.579  10.687
51915W        W23531  36.927  34.067  12.015
51916W        W23532  41.774  32.663  13.840
51917W        W23533   9.893  27.874  14.893
51918W        W23534  13.510  40.376  13.987
51919W        W23535  27.727  13.050  13.951
51920W        W23536   2.726  35.740  12.500
51921W        W23537   2.221  43.556   1.095
51922W        W23538  11.828  13.346  14.157
51923W        W23539  37.475  32.639   2.186
51924W        W23540   4.232  39.631   0.902
51925W        W23541  42.912  33.034   1.679
51926W        W23542  10.648  21.473  14.013
51927W        W23543  12.757   8.346  11.721
51928W        W23544  29.375  20.121   4.558
51929W        W23545   0.999  40.188  13.019
51930W        W23546  27.547   3.384  14.257
51931W        W23547  16.285  37.834   2.588
51932W        W23548   5.935   8.838   3.756
51933W        W23549  20.910  31.725  11.611
51934W        W23550  25.941  16.098  14.214
51935W        W23551  14.606  14.556  13.308
51936W        W23552  23.494  18.841  10.641
51937W        W23553   6.457  43.770  14.406
51938W        W23554  14.087  10.992   4.611
51939W        W23555  27.623  19.066  12.340
51940W        W23556  23.781  41.065   2.893
51941W        W23557  10.351  27.171   3.866
51942W        W23558  30.401  21.908   0.010
51943W        W23559  37.695  21.583  11.267
51944W        W23560  22.035  31.427  13.783
51945W        W23561  22.099   7.836  14.794
51946W        W23562  11.755  25.755   0.885
51947W        W23563  33.971  16.721  11.972
51948W        W23564  32.343  37.515   1.182
51949W        W23565  22.078  28.885  12.910
51950W        W23566  26.204  13.794   1.882
51951W        W23567  27.968   1.450  11.065
51952W        W23568  35.073  35.953  10.693
51953W        W23569  44.447  34.304  11.605
51954W        W23570  31.490  23.068  11.413
51955W        W23571  37.350  28.778   1.424
51956W        W23572  31.759  43.336   2.243
51957W        W23573  42.334   0.712  10.772
51958W        W23574  22.005  12.918   3.661
51959W        W23575  40.945  14.103  11.194
51960W        W23576  39.485  13.840   2.229
51961W        W23577  11.182  19.150   4.076
51962W        W23578   3.782   2.543   1.561
51963W        W23579   7.679  24.150  11.591
51964W        W23580  14.081  12.369   4.892
51965W        W23581   2.008   7.782  11.518
51966W        W23582  43.837  12.885   1.462
51967W        W23583  20.701  42.042   4.173
51968W        W23584   3.344   6.895   1.214
51969W        W23585  38.314  22.227  11.614
51970W        W23586  43.455   4.888  13.334
51971W        W23587  22.629  11.704   3.023
51972W        W23588   7.329  24.517  14.964
51973W        W23589  39.120  12.570   2.208
51974W        W23590  22.100  12.817   4.809
51975W        W23591   1.382  32.980   0.230
51976W        W23592  39.881  26.914  10.543
51977W        W23593   7.899  33.467  12.481
51978W        W23594   9.631  42.814  13.373
51979W        W23595  16.495  19.097  12.375
51980W        W23596  44.417  27.397   3.224
51981W        W23597   7.956   3.141   2.413
51982W        W23598  22.416  39.487  13.368
51983W        W23599  16.665  19.866  13.430
51984W        W23600   9.280  13.668  14.747
51985W        W23601  25.470   9.500  14.789
51986W        W23602   9.198   8.101   4.664
51987W        W23603  26.431  12.755   2.731
51988W        W23604  33.698  39.426   2.725
51989W        W23605  21.270  10.030   0.541
51990W        W23606  34.845  29.734  10.751
51991W        W23607  39.905  41.080   2.867
51992W        W23608  18.603   1.023   4.079
51993W        W23609  17.040   7.735  14.766
51994W        W23610  39.560  33.553   0.830
51995W        W23611  37.991  13.055   1.795
51996W        W23612  11.013  33.208  14.925
51997W        W23613  19.280  40.501   3.304
51998W        W23614  19.250  16.372  14.875
51999W        W23615  14.658  33.359  10.946
52000W        W23616  31.509  27.053   4.306
52001W        W23617  14.783  31.346   0.968
52002W        W23618  27.623   2.406  13.684
52003W        W23619  16.596  12.121   1.723
52004W        W23620  39.433  17.741  11.097
52005W        W23621  26.906  10.049  11.166
52006W        W23622   5.364  24.674   0.256
52007W        W23623   8.016  23.071   4.151
52008W        W23624   5.525  12.341  12.806
52009W        W23625  24.550  19.534   3.696
52010W        W23626  10.577  17.883  14.495
52011W        W23627  14.140   7.933  14.377
52012W        W23628   5.477  27.038   0.893
52013W        W23629  15.959  35.125  11.925
52014W        W23630   6.414  41.292  11.515
52015W        W23631  28.182  25.162   3.140
52016W        W23632  15.301   8.300   2.846
52017W        W23633  30.777  31.581   0.362
52018W        W23634   6.840  43.417  10.736
52019W        W23635  22.426  26.156  13.507
52020W        W23636  17.198   4.296  11.580
52021W        W23637  14.062  31.178   0.498
52022W        W23638  25.236  25.703   3.151
52023W        W23639  18.467   9.694   4.227
52024W        W23640  30.139   8.908   2.314
52025W        W23641  38.468  37.659  12.075
52026W        W23642  34.556  39.876   1.343
52027W        W23643   5.232  41.771   0.171
52028W        W23644  14.558  27.434   3.353
52029W        W23645  42.848  21.749  13.528
52030W        W23646  17.645  20.263   3.945
52031W        W23647  34.948  25.030   0.437
52032W        W23648  30.600   3.707  14.479
52033W        W23649  18.748  43.499   4.680
52034W        W23650   1.344  38.884   2.389
52035W        W23651  29.918  18.216  11.740
52036W        W23652  11.343  33.166   0.932
52037W        W23653  43.664  41.394  12.657
52038W        W23654   6.852  18.295   3.886
52039W        W23655  40.823  17.798   1.433
52040W        W23656  13.580  26.218   0.848
52041W        W23657   0.674  10.171  12.316
52042W        W23658  23.770  25.748  14.830
52043W        W23659  23.068  41.866  11.041
52044W        W23660   2.343  32.927   1.369
52045W        W23661  11.123  14.775  12.566
52046W        W23662  20.777  39.828  11.361
52047W        W23663  31.757  25.217  11.041
52048W        W23664  23.136  35.684  14.243
52049W        W23665  15.861   1.711  12.056
52050W        W23666  30.970  44.025   1.418
52051W        W23667  36.360  15.511   2.146
52052W        W23668  17.896   8.326  13.447
52053W        W23669  20.731  14.861   1.258
52054W        W23670  28.817   9.303  14.826
52055W        W23671   5.243  11.738  14.487
52056W        W23672   7.937  42.915   4.144
52057W        W23673  26.657  31.479   0.738
52058W        W23674   9.247   2.817   1.014
52059W        W23675   3.965  31.368   1.873
52060W        W23676  36.415  15.656  12.521
52061W        W23677  23.271  22.781   1.531
52062W        W23678  38.992  16.622  12.128
52063W        W23679  34.337  23.563  12.472
52064W        W23680  13.133  37.804   2.329
52065W        W23681  26.517  23.448   1.405
52066W        W23682   8.471  40.300   0.683
52067W        W23683  11.810   9.824   3.733
52068W        W23684  12.700  36.245   3.121
52069W        W23685  35.119  37.584  14.344
52070W        W23686   3.492  29.753  13.539
52071W        W23687   3.590  28.922   1.216
52072W        W23688   1.950  10.578   2.690
52073W        W23689  21.255  16.205  12.977
52074W        W23690   9.451  35.403   1.843
52075W        W23691  19.728  27.892  13.166
52076W        W23692   2.380  39.599  12.463
52077W        W23693   3.466  23.767  13.093
52078W        W23694  26.174  15.088  13.492
52079W        W23695  33.573  38.853   4.591
52080W        W23696  42.940  18.740   1.831
52081W        W23697  20.057   5.384   3.694
52082W        W23698  40.415   3.462   2.360
52083W        W23699  37.974  32.996   2.785
52084W        W23700  32.977   9.890   2.379
52085W        W23701  17.558  22.199   0.949
52086W        W23702  11.997   3.835  14.871
52087W        W23703  34.470  31.041   1.832
52088W        W23704   6.167  40.894  11.969
52089W        W23705  11.385  33.414   2.336
52090W        W23706  38.347  36.283   1.473
52091W        W23707  22.337  24.092   3.505
52092W        W23708   9.261  39.137   2.896
52093W        W23709  26.643  31.667   1.800
52094W        W23710  10.137  24.677   4.899
52095W        W23711  11.072  29.088  14.463
52096W        W23712   0.379  37.563  10.989
52097W        W23713  40.822   0.283   1.432
52098W        W23714  40.391  39.062  13.085
52099W        W23715  18.314  42.905   2.752
52100W        W23716  17.367  23.113  13.781
52101W        W23717  13.203   9.738   4.076
52102W        W23718  17.197  14.093  11.152
52103W        W23719   5.183   7.028  11.529
52104W        W23720   7.923   2.027  12.066
52105W        W23721  17.660  40.792  10.891
52106W        W23722  32.984  39.064   2.955
52107W        W23723   3.866   9.933   4.233
52108W        W23724  42.976  23.721   4.335
52109W        W23725  29.844  44.175   2.908
52110W        W23726  38.217   3.462   0.521
52111W        W23727  38.326  44.252   0.329
52112W        W23728   6.684   6.298  10.466
52113W        W23729  36.355  25.932  12.946
52114W        W23730  39.910  16.817   4.431
52115W        W23731  42.575   3.329   1.409
52116W        W23732  17.945   3.790   2.328
52117W        W23733  16.006   6.936  10.445
52118W        W23734  15.632  36.640  13.363
52119W        W23735  28.269  14.572   4.612
52120W        W23736  43.898  13.497  13.515
52121W        W23737  10.976   4.569  14.430
52122W        W23738  10.920  11.339  11.953
52123W        W23739  18.840  41.531  14.981
52124W        W23740  26.281  26.557  14.630
52125W        W23741  27.880  14.305   3.241
52126W        W23742  22.041  30.104  11.424
52127W        W23743  22.085  10.493   0.936
52128W        W23744  20.649  29.502  12.031
52129W        W23745  31.101  35.660   4.145
52130W        W23746  13.114  36.414  13.783
52131W        W23747  11.323   5.444  11.736
52132W        W23748  30.929  16.410  14.635
52133W        W23749  12.881   7.273  13.444
52134W        W23750  31.306  34.571  14.696
52135W        W23751  15.056   6.234   4.607
52136W        W23752  11.774   1.489   0.199
52137W        W23753  43.799  15.358   1.037
52138W        W23754  19.886   9.243   2.766
52139W        W23755  20.074  11.770  12.503
52140W        W23756   1.976  14.747   1.346
52141W        W23757   4.645  13.239  13.231
52142W        W23758  32.096  33.795  14.079
52143W        W23759   5.884  30.571   3.701
52144W        W23760  30.537   7.273   2.448
52145W        W23761  16.796  32.428   3.342
52146W        W23762  38.877  37.164  10.606
52147W        W23763   2.832  16.762  10.772
52148W        W23764  23.162  27.449   3.586
52149W        W23765   6.229  21.549   3.774
52150W        W23766  40.778  31.427  11.580
52151W        W23767  33.435  17.743   0.400
52152W        W23768  27.413  10.276  13.547
52153W        W23769  23.026  18.017   1.094
52154W        W23770  43.499  40.216   2.140
52155W        W23771   8.783  41.158  10.817
52156W        W23772  34.231  42.892   1.362
52157W        W23773  38.309  19.129  12.919
52158W        W23774  15.194  19.598  12.179
52159W        W23775   0.012  13.381   0.052
52160W        W23776  14.582  15.622   2.573
52161W        W23777  44.943  21.656   2.788
52162W        W23778  28.675  16.558  13.922
52163W        W23779  29.456  27.650   0.437
52164W        W23780  36.180  40.746   1.729
52165W        W23781  41.239  24.479  13.988
52166W        W23782  28.179  26.018  10.570
52167W        W23783  15.209  43.881  11.571
52168W        W23784  20.083   0.024  11.744
52169W        W23785  33.949  33.783  13.094
52170W        W23786  31.166  29.939   0.550
52171W        W23787  22.599  35.759  14.407
52172W        W23788  41.561  39.386  13.858
52173W        W23789  22.191  40.470  13.527
52174W        W23790  22.696  42.276  11.130
52175W        W23791  11.135  30.865  14.924
52176W        W23792  21.077  18.492  12.214
52177W        W23793  29.113  43.346  11.556
52178W        W23794   3.818  22.796   4.364
52179W        W23795  40.057  31.167   3.567
52180W        W23796  32.568  21.621  14.415
52181W        W23797  34.391  20.288  14.489
52182W        W23798  28.772  13.763   1.451
52183W        W23799  43.952   5.414   1.927
52184W        W23800   3.263  41.097   0.677
52185W        W23801  13.362  39.297   4.591
52186W        W23802   4.644  13.363  11.198
52187W        W23803   7.280   9.692   4.347
52188W        W23804   1.580  41.268  11.070
52189W        W23805  28.053  22.401   4.624
52190W        W23806  10.652  40.569   4.465
52191W        W23807  19.810   3.705   2.196
52192W        W23808   6.614  12.157   2.439
52193W        W23809  28.233  33.880  14.019
52194W        W23810  12.580  28.210  10.658
52195W        W23811   7.669   3.727   3.198
52196W        W23812  16.614  38.875  12.462
52197W        W23813  25.650  24.130   4.801
52198W        W23814   8.587  32.543  10.850
52199W        W23815  23.729   1.819  10.857
52200W        W23816   3.006  22.041  11.126
52201W        W23817  22.994   1.184  10.388
52202W        W23818  26.249   5.810   3.319
52203W        W23819  29.349  18.724  14.384
52204W        W23820   3.464  39.212  13.328
52205W        W23821  36.101  38.104   1.973
52206W        W23822  34.308  44.201  11.004
52207W        W23823  11.435   9.905   4.591
52208W        W23824   5.787  41.741  11.877
52209W        W23825  37.744  21.754   2.490
52210W        W23826   5.184  44.705  10.845
52211W        W23827  35.964  13.808  11.519
52212W        W23828   3.681   8.163  12.948
52213W        W23829   3.107   2.994  14.814
52214W        W23830  30.607  18.801  13.162
52215W        W23831  15.624  31.649   0.464
52216W        W23832  39.745  41.239  12.679
52217W        W23833  35.863  41.540   2.178
52218W        W23834  29.463  42.391   2.909
52219W        W23835  25.689   3.862   1.709
52220W        W23836  13.554  18.138  11.026
52221W        W23837  26.413  12.644   4.219
52222W        W23838  24.966  23.728  13.428
52223W        W23839  38.640  28.496   1.719
52224W        W23840  26.211  17.114   4.288
52225W        W23841  39.176  29.544  14.579
52226W        W23842  28.606  24.940   3.352
52227W        W23843  36.874  32.988   4.319
52228W        W23844  35.876  27.294   1.788
52229W        W23845  42.906  12.694  14.963
52230W        W23846   1.790  18.320  14.834
52231W        W23847   2.179   4.966   2.059
52232W        W23848  26.667  38.050  12.544
52233W        W23849  20.595  44.019   4.923
52234W        W23850  28.952  27.878   0.721
52235W        W23851  26.084   5.394   2.662
52236W        W23852  20.098  31.102  14.419
52237W        W23853  13.629   8.087  10.701
52238W        W23854  30.608   5.346   1.407
52239W        W23855  32.997  42.331   2.473
52240W        W23856   2.732  43.430   4.118
52241W        W23857  33.132  42.239   2.956
52242W        W23858  18.151  31.990   1.228
52243W        W23859  24.013  33.513   3.404
52244W        W23860  35.437  27.961  12.002
52245W        W23861   9.487  25.218  11.485
52246W        W23862   6.078   7.613  12.953
52247W        W23863  22.486  25.125  11.596
52248W        W23864  25.271  40.913   3.649
52249W        W23865  13.213  41.190  14.273
52250W        W23866   6.148  25.186  11.096
52251W        W23867   7.822  18.765   1.986
52252W        W23868   7.115  33.506  12.144
52253W        W23869  17.030  23.311   1.803
52254W        W23870  18.863  30.958  12.127
52255W        W23871  23.024  10.421   4.307
52256W        W23872  14.065   2.226   1.824
52257W        W23873  33.425  13.185   4.116
52258W        W23874  37.657  44.886   1.255
52259W        W23875  36.599   2.387   2.266
52260W        W23876  29.874   4.676  12.998
52261W        W23877  42.547   5.252   4.970
52262W        W23878  13.137  22.518   0.233
52263W        W23879   7.438  30.973  10.629
52264W        W23880   1.726  14.478   5.117
52265W        W23881  26.175  26.910   2.178
52266W        W23882  20.329  14.594  14.967
52267W        W23883   2.858  18.963   1.425
52268W        W23884  35.717   2.882  11.984
52269W        W23885  23.091   9.490   1.917
52270W        W23886  43.363  39.802   4.565
52271W        W23887  13.927  13.125  14.534
52272W        W23888   1.496   7.706   0.027
52273W        W23889  21.709  42.065   2.318
52274W        W23890  43.016  17.123  13.803
52275W        W23891  13.006  44.404  12.671
52276W        W23892  28.283   2.814  13.756
52277W        W23893   0.759  41.736  12.448
52278W        W23894  10.267  22.123  10.960
52279W        W23895  12.315  30.594   1.037
52280W        W23896  27.692  34.231  11.439
52281W        W23897  35.028   1.809   4.649
52282W        W23898  27.139  28.145  14.559
52283W        W23899  20.680  17.654  10.705
52284W        W23900  23.896  13.301  10.983
52285W        W23901   9.161  29.171   4.017
52286W        W23902   7.743  18.196  10.702
52287W        W23903  38.312  10.602   4.774
52288W        W23904  27.172  41.392  14.331
52289W        W23905  29.611   4.164   0.934
52290W        W23906  40.844  38.924  14.911
52291W        W23907  36.321  17.664  11.516
52292W        W23908  14.896  32.921  11.121
52293W        W23909  38.314  13.446  10.943
52294W        W23910  17.498   0.409   2.362
52295W        W23911  15.762  10.925   1.937
52296W        W23912  35.795  16.228  12.128
52297W        W23913   3.737  42.927  13.847
52298W        W23914  10.617  35.592   4.794
52299W        W23915   1.448  24.561  14.846
52300W        W23916   0.452  10.722  14.350
52301W        W23917  26.087  42.243   0.436
52302W        W23918  27.076   7.507  14.796
52303W        W23919  37.009  39.310  12.979
52304W        W23920   3.987  33.158   3.093
52305W        W23921  27.930  19.792  14.393
52306W        W23922  37.050  30.494  11.462
52307W        W23923  34.582   7.761   4.046
52308W        W23924  16.461  43.261  13.461
52309W        W23925  35.934  25.753   2.670
52310W        W23926   8.184  11.844  14.852
52311W        W23927  44.960   7.309  11.961
52312W        W23928  11.143  11.836   0.686
52313W        W23929   3.928  27.242  10.535
52314W        W23930   7.371  41.526   2.154
52315W        W23931  42.110  27.700  11.274
52316W        W23932   1.841  35.352  11.776
52317W        W23933  28.856  15.080   5.423
52318W        W23934   8.928   4.954  12.372
52319W        W23935  17.512  30.728   2.398
52320W        W23936  32.223  20.672   4.248
52321W        W23937   7.242  19.179   1.226
52322W        W23938  11.844  37.432   0.862
52323W        W23939   2.552  24.495   1.309
52324W        W23940  38.946  25.087  13.827
52325W        W23941  32.671  18.652  11.955
52326W        W23942   0.454  31.789  12.525
52327W        W23943   9.680  35.420   3.138
52328W        W23944   7.884  35.008  13.081
52329W        W23945  24.124  40.514   3.376
52330W        W23946  19.598  22.532  13.501
52331W        W23947  36.147  26.510  11.087
52332W        W23948   8.453  13.761   0.501
52333W        W23949  27.507   0.087   1.777
52334W        W23950  34.435  19.459   2.119
52335W        W23951   2.587   4.968  13.418
52336W        W23952  42.729  28.006   2.087
52337W        W23953  29.719  42.007   4.627
52338W        W23954  14.729   2.344   1.677
52339W        W23955  21.207  28.218   3.695
52340W        W23956  41.661  33.595  12.888
52341W        W23957  19.289  19.480  12.426
52342W        W23958  12.646  33.621   4.680
52343W        W23959  30.605   4.850  11.694
52344W        W23960  34.664  18.522  11.965
52345W        W23961  30.213  12.038  14.775
52346W        W23962  20.322  30.088  12.437
52347W        W23963  21.521  33.629  12.830
52348W        W23964  16.793  18.769   3.935
52349W        W23965   8.993   4.997   4.172
52350W        W23966  43.917   8.705  13.394
52351W        W23967  27.899   9.833  12.083
52352W        W23968  25.961  32.916  10.669
52353W        W23969  35.878   9.683  14.381
52354W        W23970   7.857  23.679   0.207
52355W        W23971  36.899  19.303   3.165
52356W        W23972   8.248  14.010  10.805
52357W        W23973   8.157  17.822  12.711
52358W        W23974  41.226   4.768  13.008
52359W        W23975  37.429  20.184   4.074
52360W        W23976  28.985  40.509   4.885
52361W        W23977  40.313  14.663  12.925
52362W        W23978   7.263   8.657   2.452
52363W        W23979   5.232  35.431   0.734
52364W        W23980   3.336  32.597   2.913
52365W        W23981  26.067   6.746  13.671
52366W        W23982  44.479   0.956   4.282
52367W        W23983  30.213  18.547   0.848
52368W        W23984  20.215   5.826  12.745
52369W        W23985  27.179  26.669   1.783
52370W        W23986   8.290   1.341  13.100
52371W        W23987   6.599   1.471  14.719
52372W        W23988  11.976  41.043  12.479
52373W        W23989  18.100  41.958   4.007
52374W        W23990  10.388  23.516  13.960
52375W        W23991   2.556  33.549  10.341
52376W        W23992   9.637  37.019   2.298
52377W        W23993  31.302  33.444   0.412
52378W        W23994  27.984  24.252   2.699
52379W        W23995  22.968  19.576  12.503
52380W        W23996  44.008  44.763  12.313
52381W        W23997  12.669  13.048   4.609
52382W        W23998  37.762  31.237   3.833
52383W        W23999   4.754  17.740   0.824
52384W        W24000   0.702  32.047  10.793
52385W        W24001  35.556  33.114  12.550
52386W        W24002  43.478  24.504  11.164
52387W        W24003  15.646  13.849  13.550
52388W        W24004  23.186  26.502  12.874
52389W        W24005  14.697  44.210  13.998
52390W        W24006  27.258  19.573  12.939
52391W        W24007  13.657  17.698   5.433
52392W        W24008  11.460  11.344   2.776
52393W        W24009   1.711   6.783  13.467
52394W        W24010  17.225  27.481   1.630
52395W        W24011  21.670   9.900   4.729
52396W        W24012   3.469  32.183  11.955
52397W        W24013  42.021  25.182  11.924
52398W        W24014  44.727  15.356   0.828
52399W        W24015  22.576   0.171   1.883
52400W        W24016  28.605  29.056   0.760
52401W        W24017  25.242  26.268   2.268
52402W        W24018   8.359  17.714  10.487
52403W        W24019  30.729  15.191   1.642
52404W        W24020  21.304  31.398  14.916
52405W        W24021  26.532  27.751   4.134
52406W        W24022  26.523   8.481   1.184
52407W        W24023  36.889   5.187  10.720
52408W        W24024  32.012  25.948   3.245
52409W        W24025  37.619  28.021   0.778
52410W        W24026  44.320  21.948   0.888
52411W        W24027  13.396  13.827   2.761
52412W        W24028   2.750  22.691  13.372
52413W        W24029  10.301  25.988   1.346
52414W        W24030  12.527   0.480   2.163
52415W        W24031  40.237  16.281  11.044
52416W        W24032  22.543  39.816  12.921
52417W        W24033  41.396  18.175   4.141
52418W        W24034  28.207   3.060  12.029
52419W        W24035  33.854  41.268  10.766
52420W        W24036   6.890  27.583  13.082
52421W        W24037  26.999  17.644  14.933
52422W        W24038  10.274   0.561  11.853
52423W        W24039   7.126   6.610  10.500
52424W        W24040  36.940  10.400  14.184
52425W        W24041  43.162  33.583  11.454
52426W        W24042  11.152  40.858   0.883
52427W        W24043  21.487   4.335   2.105
52428W        W24044  37.888  34.166   0.738
52429W        W24045  21.331  10.006   1.908
52430W        W24046  21.667  11.189   3.876
52431W        W24047  37.903  38.103   3.318
52432W        W24048  18.977  16.579   1.176
52433W        W24049  42.752  18.613  13.302
52434W        W24050  23.972  33.121  11.968
52435W        W24051  20.083   6.630   1.352
52436W        W24052  26.218  21.143  11.920
52437W        W24053  32.718   3.309   3.812
52438W        W24054  12.205  30.540   1.542
52439W        W24055   8.777   3.597  13.316
52440W        W24056  11.921  26.485  10.607
52441W        W24057  10.325  36.541  13.236
52442W        W24058  25.459   9.077  11.037
52443W        W24059  24.780  20.184   4.900
52444W        W24060  20.067   8.997   4.278
52445W        W24061  42.864  30.490   2.395
52446W        W24062   5.233   8.436   0.020
52447W        W24063  27.603   4.332  12.110
52448W        W24064  23.487   2.837   0.338
52449W        W24065  23.979  20.869  10.767
52450W        W24066   1.540  18.507  12.555
52451W        W24067  39.847  28.184  13.557
52452W        W24068  34.511  17.562  10.923
52453W        W24069  22.582  20.510  14.773
52454W        W24070  44.824  31.676  11.934
52455W        W24071  15.268  27.146   4.655
52456W        W24072  38.560   0.662  12.900
52457W        W24073   2.309  36.433  12.101
52458W        W24074  18.278  23.526   0.317
52459W        W24075   3.210  30.974   4.970
52460W        W24076  19.113   8.495   3.743
52461W        W24077  29.683  43.764  10.351
52462W        W24078  12.826  41.975   4.567
52463W        W24079  42.088  14.798  11.514
52464W        W24080  30.732  33.916  14.709
52465W        W24081  24.599  24.363   2.332
52466W        W24082  29.682  15.588  10.949
52467W        W24083  28.891  10.403   4.591
52468W        W24084  13.732  28.950  12.924
52469W        W24085  16.174  18.106   5.522
52470W        W24086  37.015  29.173   2.197
52471W        W24087  29.452  15.572  14.337
52472W        W24088  29.388   1.342  10.612
52473W        W24089   4.720   8.680  11.759
52474W        W24090  39.489  15.591   1.905
52475W        W24091   7.405  15.401   2.102
52476W        W24092   3.284  19.854  12.404
52477W        W24093   2.062  24.992  13.396
52478W        W24094  11.401   7.645  11.100
52479W        W24095   6.867  34.061   1.677
52480W        W24096  21.713  37.641   1.806
52481W        W24097  26.572   6.196   3.464
52482W        W24098   4.246  11.216  14.244
52483W        W24099  19.632   0.314  10.247
52484W        W24100  39.336  25.437  13.451
52485W        W24101  13.682  11.630   0.252
52486W        W24102  18.562   7.794  14.924
52487W        W24103  35.107  31.381  13.591
52488W        W24104   2.454  18.130   0.922
52489W        W24105  30.954  38.871  12.556
52490W        W24106  26.151  39.080   1.767
52491W        W24107  16.623  11.103   4.420
52492W        W24108  22.609  12.567   4.039
52493W        W24109  10.967   1.623   1.762
52494W        W24110   5.818   4.613   0.853
52495W        W24111  17.071   8.679  13.323
52496W        W24112  41.357  44.523   0.895
52497W        W24113  33.096  19.612  14.567
52498W        W24114  41.623   0.022  14.350
52499W        W24115  20.026  33.062  13.370
52500W        W24116  19.216  22.716   3.700
52501W        W24117  16.759  41.169   4.468
52502W        W24118  21.493  23.192  14.450
52503W        W24119  13.199   3.734   0.572
52504W        W24120  16.854  13.926  14.800
52505W        W24121  28.891  25.081   0.079
52506W        W24122  34.709  10.817   3.735
52507W        W24123  19.048   8.770  13.850
52508W        W24124  10.048   6.805  12.469
52509W        W24125  33.555  20.378   0.239
52510W        W24126  13.036  20.081  11.783
52511W        W24127  16.775  35.592  13.885
52512W        W24128   3.513  42.421   3.749
52513W        W24129   9.168   4.913  11.612
52514W        W24130  12.078   9.806  11.233
52515W        W24131   4.312   1.709   3.192
52516W        W24132  31.136  44.520   1.434
52517W        W24133  28.147  16.209  11.482
52518W        W24134  30.625  39.358  10.604
52519W        W24135   6.419  41.390   1.088
52520W        W24136  28.940   1.686   2.729
52521W        W24137  10.434  17.041   0.820
52522W        W24138  37.445  30.194   1.007
52523W        W24139  37.130  38.862   2.771
52524W        W24140  30.098  10.359   1.310
52525W        W24141  43.295  12.668  11.530
52526W        W24142  24.626  34.463   2.292
52527W        W24143  39.556  38.875   3.919
52528W        W24144  44.382  43.737  11.162
52529W        W24145  24.677   6.636  12.513
52530W        W24146  29.088  15.600  10.136
52531W        W24147  33.953  43.244   2.556
52532W        W24148  26.533   7.723   1.908
52533W        W24149  20.090  23.526  13.567
52534W        W24150  15.560  19.690   3.093
52535W        W24151  16.014  10.253  12.472
52536W        W24152  29.221  15.426  13.818
52537W        W24153  24.570  33.124   0.942
52538W        W24154  33.196  34.537   0.270
52539W        W24155  17.787  24.017  11.615
52540W        W24156  17.127   1.121   4.150
52541W        W24157  38.324   2.499  14.561
52542W        W24158  28.719  10.763  12.666
52543W        W24159   8.673  25.085  13.383
52544W        W24160   5.713  25.547  14.540
52545W        W24161  10.159  14.163  13.024
52546W        W24162   0.234  40.798   2.422
52547W        W24163  33.785  14.943   4.113
52548W        W24164  31.914  13.799  14.887
52549W        W24165  34.495  21.681  10.695
52550W        W24166  35.858  35.486   1.447
52551W        W24167  37.431  34.435  14.030
52552W        W24168  18.710  33.350  12.390
52553W        W24169  20.131   2.307   1.209
52554W        W24170   4.279   9.152   0.769
52555W        W24171  18.551  16.593   3.004
52556W        W24172  10.196  36.360  13.711
52557W        W24173  40.096  14.603  11.787
52558W        W24174  14.994  42.982   4.939
52559W        W24175   9.879  27.885   3.270
52560W        W24176  33.927  14.657   4.536
52561W        W24177  44.395  28.505  10.833
52562W        W24178  29.536  43.924   1.831
52563W        W24179  36.113  19.059   4.096
52564W        W24180  19.885  39.105   0.738
52565W        W24181   3.406   3.830   3.175
52566W        W24182  41.862   5.131   4.398
52567W        W24183  38.796  29.680  11.238
52568W        W24184   1.250   7.909  14.015
52569W        W24185  38.840  31.632  14.396
52570W        W24186  11.311   9.740  11.905
52571W        W24187  28.167   5.188   0.678
52572W        W24188  44.868   9.693  14.253
52573W        W24189  17.081  29.999   1.247
52574W        W24190   4.205  30.117  13.013
52575W        W24191  31.921  37.300  14.820
52576W        W24192  15.712  26.618  12.050
52577W        W24193  43.954  11.363   4.049
52578W        W24194   0.574  19.580   0.413
52579W        W24195  24.144   6.434   4.069
52580W        W24196   8.019   3.862   2.818
52581W        W24197  12.555  23.648  13.530
52582W        W24198  20.902  17.111   1.677
52583W        W24199  42.500   5.650  11.596
52584W        W24200  28.432  38.025  10.862
52585W        W24201  41.760  26.739   1.281
52586W        W24202  19.627  29.828   1.336
52587W        W24203   0.272  36.064   4.605
52588W        W24204  30.529  36.557   1.011
52589W        W24205  13.881  11.440   1.741
52590W        W24206  43.828  15.148   0.552
52591W        W24207  20.684  24.199  12.160
52592W        W24208  18.930  27.236  12.621
52593W        W24209  25.272  17.283  13.292
52594W        W24210  41.763   0.997   1.853
52595W        W24211  44.669  32.293   2.251
52596W        W24212  34.572  22.166   1.387
52597W        W24213  20.209  34.529  11.613
52598W        W24214  24.222   6.288  14.115
52599W        W24215  11.146  11.625  14.762
52600W        W24216  29.371  15.195  14.980
52601W        W24217  26.027  24.720  13.077
52602W        W24218  12.759   6.951   5.255
52603W        W24219  12.698  18.863  13.526
52604W        W24220  34.860   9.636   3.339
52605W        W24221  19.754  22.093  13.783
52606W        W24222  17.514  43.346   2.678
52607W        W24223   0.371  23.795  10.213
52608W        W24224  44.163   1.871   1.154
52609W        W24225  33.137  38.519   1.004
52610W        W24226  32.734  13.692   2.944
52611W        W24227  27.232   6.332  12.487
52612W        W24228  29.548  40.598   4.126
52613W        W24229  36.138  23.224   2.388
52614W        W24230   9.311  13.548  12.929
52615W        W24231  14.832  25.843   3.611
52616W        W24232   2.510  33.123   3.172
52617W        W24233  22.710  42.028  10.667
52618W        W24234  25.733  31.064   4.917
52619W        W24235  28.949  34.479  12.596
52620W        W24236   3.758  35.561  14.506
52621W        W24237   9.472  29.579  11.908
52622W        W24238  41.512  38.866  13.471
52623W        W24239  43.168  35.090  10.096
52624W        W24240  28.056  19.105   3.426
52625W        W24241  33.610   5.847   4.600
52626W        W24242   0.386   9.742  12.395
52627W        W24243  14.471  26.792   4.501
52628W        W24244  26.685  42.079  10.693
52629W        W24245   1.333   0.469   3.178
52630W        W24246  37.583  12.799  14.672
52631W        W24247   6.238  40.452  14.131
52632W        W24248   8.162   6.656   3.293
52633W        W24249  30.773  26.929   3.726
52634W        W24250  11.882  20.971   2.275
52635W        W24251   6.568  37.987  13.076
52636W        W24252  31.040  24.415   4.330
52637W        W24253  23.494  20.983  10.468
52638W        W24254  40.852  17.649  10.707
52639W        W24255  40.856  42.835   3.710
52640W        W24256  37.553  33.353   3.819
52641W        W24257  41.037  13.654   2.432
52642W        W24258  24.447  14.340   3.135
52643W        W24259   9.109   5.489   0.797
52644W        W24260   3.467  35.405   2.351
52645W        W24261  44.795  15.116   2.664
52646W        W24262  44.005   4.624  12.558
52647W        W24263  32.921  10.368   1.701
52648W        W24264  44.959  36.402   1.084
52649W        W24265   4.820  33.234  14.076
52650W        W24266  18.495  14.648   1.815
52651W        W24267  30.051  13.190  10.797
52652W        W24268  11.397  28.891  12.591
52653W        W24269  25.935  35.083   3.188
52654W        W24270  27.122   6.831   2.345
52655W        W24271   5.936  38.081  11.681
52656W        W24272   0.784  40.239  10.775
52657W        W24273  35.880   2.934   0.787
52658W        W24274  30.398  36.874  14.784
52659W        W24275  15.607  20.110   1.155
52660W        W24276  15.749  41.435  13.283
52661W        W24277  40.142  36.433   1.931
52662W        W24278  19.377  25.955   2.404
52663W        W24279   4.045   5.812  12.936
52664W        W24280  35.924  15.118  11.046
52665W        W24281  12.910  31.642   4.499
52666W        W24282  12.224   4.967  13.428
52667W        W24283  27.023  38.413   4.926
52668W        W24284  31.458   9.812   3.348
52669W        W24285   4.588  19.906  10.806
52670W        W24286  19.503   1.025  14.767
52671W        W24287  13.121  21.499  13.911
52672W        W24288   1.358  10.069  11.671
52673W        W24289  44.515  24.946  13.874
52674W        W24290  29.137  38.097  14.932
52675W        W24291  11.393  34.559   0.757
52676W        W24292  26.388  18.696   3.330
52677W        W24293  17.884   1.422   2.358
52678W        W24294   6.352  24.032   3.892
52679W        W24295  17.215  24.915  13.584
52680W        W24296  16.603   0.999  12.396
52681W        W24297   7.770  21.789   1.862
52682W        W24298  41.299  23.926   3.955
52683W        W24299  44.512   7.788   1.903
52684W        W24300  26.041   8.229  12.000
52685W        W24301  28.593  38.821  12.576
52686W        W24302   0.556  36.158  11.954
52687W        W24303  41.826  38.524  11.521
52688W        W24304  39.832  41.577  11.747
52689W        W24305  27.982  43.206  11.591
52690W        W24306   5.072  37.778  11.663
52691W        W24307  13.273  13.584   0.345
52692W        W24308   9.767  13.802  13.014
52693W        W24309  20.565  35.533   1.324
52694W        W24310   0.808  33.336  13.286
52695W        W24311  24.274  26.384   2.759
52696W        W24312   1.879  22.207   1.159
52697W        W24313  42.857   2.281  14.383
52698W        W24314  13.994  10.125  14.298
52699W        W24315  34.428  35.111  12.107
52700W        W24316  29.192  31.394   4.099
52701W        W24317  19.867  24.782  13.721
52702W        W24318   7.143  32.659  11.081
52703W        W24319  15.773  40.872   2.528
52704W        W24320  43.025  19.794   1.841
52705W        W24321   1.750  34.443  12.603
52706W        W24322  27.549  16.518  11.960
52707W        W24323  24.457  25.771  11.121
52708W        W24324  14.711  22.426  12.600
52709W        W24325  37.842  16.333  14.333
52710W        W24326  17.644   2.436   4.377
52711W        W24327  30.154  13.609   2.731
52712W        W24328  18.506  14.116  13.386
52713W        W24329  35.070  13.094   1.928
52714W        W24330  15.669  13.971  11.601
52715W        W24331  42.484  14.542  13.876
52716W        W24332  17.607  13.542   2.150
52717W        W24333   0.818  24.168   0.786
52718W        W24334  26.408  43.768  14.219
52719W        W24335  39.088   2.546   0.250
52720W        W24336   2.336  13.115  14.052
52721W        W24337  11.603  39.331  10.097
52722W        W24338   0.250  36.979  11.646
52723W        W24339   4.423   8.757   1.334
52724W        W24340  29.455  29.762   1.345
52725W        W24341  14.192  32.514   0.438
52726W        W24342  32.702  42.880   1.377
52727W        W24343  27.030  16.854  14.517
52728W        W24344  20.615  12.375  11.899
52729W        W24345  23.593  31.175  11.100
52730W        W24346  16.823  36.069   4.222
52731W        W24347   0.243  37.100  11.120
52732W        W24348   6.823  18.307   4.484
52733W        W24349  26.155   8.127  10.719
52734W        W24350  14.195  32.987  10.264
52735W        W24351  16.119  18.104  13.313
52736W        W24352  11.867   4.219  11.527
52737W        W24353  42.765  37.037  13.539
52738W        W24354  35.978  10.947  11.038
52739W        W24355   2.765  27.976   1.297
52740W        W24356  27.299  20.146  12.694
52741W        W24357  11.259   0.100   2.015
52742W        W24358  32.775  28.326   5.067
52743W        W24359   2.823  16.060   4.301
52744W        W24360  23.599  29.833   3.006
52745W        W24361   1.749  25.705   0.824
52746W        W24362  22.461  35.325   1.209
52747W        W24363  42.614  16.708  14.882
52748W        W24364  27.311   2.160  12.745
52749W        W24365  21.201   7.061   3.863
52750W        W24366  19.201  27.980   0.158
52751W        W24367  35.075  33.067  14.791
52752W        W24368  41.833  11.392   2.805
52753W        W24369   2.978  29.842  13.558
52754W        W24370  31.119   8.421   0.941
52755W        W24371  26.518  29.197   0.253
52756W        W24372  14.700  21.250   2.391
52757W        W24373  38.157  30.543  11.961
52758W        W24374  28.359  23.765  12.916
52759W        W24375  21.070  43.152   2.311
52760W        W24376   9.306  30.076   4.284
52761W        W24377  16.687  14.076   4.818
52762W        W24378  16.950  23.873  11.315
52763W        W24379  44.001  36.932   3.788
52764W        W24380  38.363  11.256  12.810
52765W        W24381   5.230  44.406  12.090
52766W        W24382  37.369  42.037   5.075
52767W        W24383  31.454  17.134   3.285
52768W        W24384  17.144  44.706   0.320
52769W        W24385  11.485  36.359   0.837
52770W        W24386  19.874  33.099   2.191
52771W        W24387   5.237  11.143   0.394
52772W        W24388  27.420  26.185   1.156
52773W        W24389  15.716  21.558   1.455
52774W        W24390   0.513  17.068   1.176
52775W        W24391  19.270  22.012  14.066
52776W        W24392  21.856   0.908  13.878
52777W        W24393  10.602  15.753   1.902
52778W        W24394  26.211  37.867  11.367
52779W        W24395  42.939  12.152   0.936
52780W        W24396   6.824  23.097  11.102
52781W        W24397  12.315   5.458  14.966
52782W        W24398   5.192  21.198   3.703
52783W        W24399  18.912   6.818  12.130
52784W        W24400   4.339  29.645   4.668
52785W        W24401  16.894   5.383  12.597
52786W        W24402   0.397  43.487  14.851
52787W        W24403  27.034   0.873  12.466
52788W        W24404   8.719   1.474  12.833
52789W        W24405  27.220  24.916   2.510
52790W        W24406  15.257  12.639  13.889
52791W        W24407  42.499  18.928  14.122
52792W        W24408  37.574  32.835   0.813
52793W        W24409   2.197  34.831   1.319
52794W        W24410  36.652  33.957  13.470
52795W        W24411  20.503  15.908   4.686
52796W        W24412  35.418   8.275  14.032
52797W        W24413   2.009   1.785   1.679
52798W        W24414   0.010  18.692   2.624
52799W        W24415   9.268   7.315  12.406
52800W        W24416  36.327   5.253   3.209
52801W        W24417   8.709  19.535  10.638
52802W        W24418  29.212  25.497  14.847
52803W        W24419  21.660  37.091  12.897
52804W        W24420   3.204   0.596  14.908
52805W        W24421  10.903  40.452  12.051
52806W        W24422  34.059  23.761  12.852
52807W        W24423  19.070  29.139  10.999
52808W        W24424  18.177  22.677  13.563
52809W        W24425  40.939  16.858  13.763
52810W        W24426  40.787   9.872  11.141
52811W        W24427   4.363  27.412   1.842
52812W        W24428  23.434  31.251  13.469
52813W        W24429  23.974  40.482   0.959
52814W        W24430  41.649  34.889   5.052
52815W        W24431  42.343  20.607  12.420
52816W        W24432  13.840  19.101  12.939
52817W        W24433  14.531   0.202  11.326
52818W        W24434  26.610  27.715   2.326
52819W        W24435  30.215  29.582  13.416
52820W        W24436  39.878  26.855   3.248
52821W        W24437  14.232  13.676   0.320
52822W        W24438  17.525   7.288   0.312
52823W        W24439  29.061  38.102  12.863
52824W        W24440  14.136  26.685   2.420
52825W        W24441   4.882   9.014   2.898
52826W        W24442   0.355  29.936   2.194
52827W        W24443  14.516   8.222  10.758
52828W        W24444  43.237  33.069  11.587
52829W        W24445  39.116  11.767  12.990
52830W        W24446  21.187  35.991  11.436
52831W        W24447  43.844  35.513  13.847
52832W        W24448  44.052  31.015   1.260
52833W        W24449  40.528  32.295  10.334
52834W        W24450   3.800   4.156   4.135
52835W        W24451  35.479  30.224   3.882
52836W        W24452   1.215  16.197  10.983
52837W        W24453  40.932  13.057  12.477
52838W        W24454  13.653   3.368   3.218
52839W        W24455  26.189  16.208  12.631
52840W        W24456  28.894  21.715   1.350
52841W        W24457  43.357  24.256  12.030
52842W        W24458  34.523  38.905   2.235
52843W        W24459  10.772  32.514  10.527
52844W        W24460  39.295  31.384   3.207
52845W        W24461  14.392  22.595  11.430
52846W        W24462  44.350  25.883  11.380
52847W        W24463  17.478   6.936  14.494
52848W        W24464   2.811  37.525  11.662
52849W        W24465   5.166  22.552  11.110
52850W        W24466   3.170  27.161  13.409
52851W        W24467  31.010  36.641  11.976
52852W        W24468   3.556  36.516  13.918
52853W        W24469  11.524  33.410   3.243
52854W        W24470  12.700  36.786  12.925
52855W        W24471  12.886  31.008  12.568
52856W        W24472  20.746  32.131  10.622
52857W        W24473   3.949   6.662  10.781
52858W        W24474  14.256   8.260   1.194
52859W        W24475   4.983  16.583  14.987
52860W        W24476  25.782   3.902  11.989
52861W        W24477  42.954  12.360   2.330
52862W        W24478  12.351  13.084  12.377
52863W        W24479  43.901  32.583   3.330
52864W        W24480  14.843   6.714   1.338
52865W        W24481  26.680  26.994  14.537
52866W        W24482  32.213  44.339  12.846
52867W        W24483  29.566   2.188  12.471
52868W        W24484  32.527  11.727   1.755
52869W        W24485  41.984  32.136  12.980
52870W        W24486  16.451  18.063  11.414
52871W        W24487  12.967  33.109   4.114
52872W        W24488  28.480   5.193   4.900
52873W        W24489  29.605  30.028   1.775
52874W        W24490  38.942  16.739  10.718
52875W        W24491   8.077  43.421   2.334
52876W        W24492  43.388  10.220  13.849
52877W        W24493  20.701  28.531  10.993
52878W        W24494  34.968   5.433   1.500
52879W        W24495  34.557   6.165  12.070
52880W        W24496   7.150  17.763   2.368
52881W        W24497  19.196  42.764  14.862
52882W        W24498  19.759  21.026   1.730
52883W        W24499  12.281  15.148  10.730
52884W        W24500  39.712  44.429   1.143
52885W        W24501  31.491  26.464   3.021
52886W        W24502  43.510   9.917   0.928
52887W        W24503   8.802   5.915   0.974
52888W        W24504  31.870  28.603  11.514
52889W        W24505  40.283   5.995   1.834
52890W        W24506  23.596  17.102   1.478
52891W        W24507  34.028  44.304   5.498
52892W        W24508  20.738  16.671   0.749
52893W        W24509  19.425  39.623  10.631
52894W        W24510  32.621  30.017  13.508
52895W        W24511  38.589  41.856   1.669
52896W        W24512   1.442  10.145  13.475
52897W        W24513   8.850  10.315  11.676
52898W        W24514  28.062  31.051   3.966
52899W        W24515  42.731  23.276  13.281
52900W        W24516   1.559  21.964  11.585
52901W        W24517   6.419  43.769   4.124
52902W        W24518  34.702  11.727   2.769
52903W        W24519  29.322  33.316  10.582
52904W        W24520   3.716   2.896  12.926
52905W        W24521  10.313  20.037  13.809
52906W        W24522  13.212  41.213   4.730
52907W        W24523  11.204  28.683   4.152
52908W        W24524  19.659  27.191   4.245
52909W        W24525  11.410  35.413   0.809
52910W        W24526   3.750  42.036  14.080
52911W        W24527   3.310  19.274  10.729
52912W        W24528  28.161  23.897   0.751
52913W        W24529  16.655  41.067   0.945
52914W        W24530  33.723   7.252   4.880
52915W        W24531  19.039  10.133  11.634
52916W        W24532  25.077  22.960  14.474
52917W        W24533  16.318  41.374   3.206
52918W        W24534   1.193  20.228   0.397
52919W        W24535  14.072  32.985   4.051
52920W        W24536  39.713   3.445  11.293
52921W        W24537  14.623  19.501   0.103
52922W        W24538   1.417   7.819  10.751
52923W        W24539   3.969  43.804  13.001
52924W        W24540  32.896  21.139  10.357
52925W        W24541  14.354  18.207   3.312
52926W        W24542  23.494  41.959  13.501
52927W        W24543  40.418  28.198  10.639
52928W        W24544   0.304   4.234  14.673
52929W        W24545   3.861  29.732  13.892
52930W        W24546  37.692  20.520   2.802
52931W        W24547  27.924  20.744   3.786
52932W        W24548  37.129  11.892   1.614
52933W        W24549   1.943  31.619   2.379
52934W        W24550  26.035  28.112  14.791
52935W        W24551  24.701  13.909  14.669
52936W        W24552  34.463   8.629  11.181
52937W        W24553   8.435  43.072   4.123
52938W        W24554  14.792   5.609  11.150
52939W        W24555  24.445  38.120  13.881
52940W        W24556  16.545   7.817   0.861
52941W        W24557   6.075  42.870   1.335
52942W        W24558  25.250   3.273  12.505
52943W        W24559  27.636  24.390   2.125
52944W        W24560  22.121  40.562   1.332
52945W        W24561   2.505  30.766   4.979
52946W        W24562   7.256   9.268   2.281
52947W        W24563  10.142  30.456   1.820
52948W        W24564  27.253  42.092   1.755
52949W        W24565  26.099  28.192  13.921
52950W        W24566  12.247   8.471   3.853
52951W        W24567  22.728  10.827  14.362
52952W        W24568  33.459  30.704   0.251
52953W        W24569  34.269  34.764   3.243
52954W        W24570  10.981  12.114   1.299
52955W        W24571   6.273  18.342  11.876
52956W        W24572   7.659  25.149   3.347
52957W        W24573  13.154   4.724   2.375
52958W        W24574  21.905   7.282  14.921
52959W        W24575  40.033  13.983  11.839
52960W        W24576  36.496  25.541   4.695
52961W        W24577  38.884  26.586  12.509
52962W        W24578  21.823  39.010  11.520
52963W        W24579  24.319  10.168   1.445
52964W        W24580  32.010  29.719   1.884
52965W        W24581   7.035  38.856   4.705
52966W        W24582  28.238  13.055  14.053
52967W        W24583  44.773  27.593   4.962
52968W        W24584  41.989  32.093  11.098
52969W        W24585   8.277   5.821   2.742
52970W        W24586  42.646  30.460  14.063
52971W        W24587  25.493   5.430   4.149
52972W        W24588  10.864  19.306  14.492
52973W        W24589  25.761  23.060  10.726
52974W        W24590   1.005  24.569  11.624
52975W        W24591  13.871  17.674  14.952
52976W        W24592   2.841  37.925   4.925
52977W        W24593  22.543  16.625  10.617
52978W        W24594  24.462  17.049   4.329
52979W        W24595  35.079   7.370  12.522
52980W        W24596  15.094  27.016  12.506
52981W        W24597  26.950  12.159   2.352
52982W        W24598  32.884   2.200  14.902
52983W        W24599   1.935  25.498   1.727
52984W        W24600  13.792  40.285   1.693
52985W        W24601  24.621  38.117   0.786
52986W        W24602  14.868  41.488   3.312
52987W        W24603  41.949  17.799  13.520
52988W        W24604  10.236  11.686  11.945
52989W        W24605  36.290  10.841   4.391
52990W        W24606   1.421  19.810   0.660
52991W        W24607  14.780  21.066  13.448
52992W        W24608   0.688  30.615   2.680
52993W        W24609  21.424   2.162   0.923
52994W        W24610  18.144   7.905   1.354
52995W        W24611  21.638   5.034  10.903
52996W        W24612   2.740  22.167  10.723
52997W        W24613  32.062   0.742  14.392
52998W        W24614  24.275  10.617   0.057
52999W        W24615  17.878  16.517  11.869
53000W        W24616  34.403  31.649  14.640
53001W        W24617  14.586  16.197   4.526
53002W        W24618  28.594  20.067   2.651
53003W        W24619  24.555  29.569  12.363
53004W        W24620  15.598  16.644  11.536
53005W        W24621  12.536   5.656  14.496
53006W        W24622  44.409   6.388   1.235
53007W        W24623  11.241  13.364   0.863
53008W        W24624  20.877  25.039  10.211
53009W        W24625  43.418   2.405   0.726
53010W        W24626  32.238  43.939   5.455
53011W        W24627   2.957   6.685   4.677
53012W        W24628  14.063  13.840  13.390
53013W        W24629  31.975  14.645   1.135
53014W        W24630   5.416   3.213  14.882
53015W        W24631  31.109   8.093  11.928
53016W        W24632   9.809  36.610  14.445
53017W        W24633  31.076   4.891  11.540
53018W        W24634  39.659  44.562  14.432
53019W        W24635  12.729  12.295  11.426
53020W        W24636  19.336  36.009  13.442
53021W        W24637  11.891  44.910   1.720
53022W        W24638  30.954  32.607   4.804
53023W        W24639  40.458  16.742  10.878
53024W        W24640   2.724  21.073  10.277
53025W        W24641   7.171  23.679   4.041
53026W        W24642  16.738  40.863   2.455
53027W        W24643  22.311  24.193   4.003
53028W        W24644  43.082  44.890   0.287
53029W        W24645  13.378   1.674   1.290
53030W        W24646  31.022  25.604   1.265
53031W        W24647  18.674  33.982  13.368
53032W        W24648  25.458  33.443   3.312
53033W        W24649   3.898  31.923   0.895
53034W        W24650  44.028  21.278   3.305
53035W        W24651   3.401  13.737   2.823
53036W        W24652  22.050  25.892  11.547
53037W        W24653   8.868  30.240   4.959
53038W        W24654  44.436  34.162   2.961
53039W        W24655  14.110   0.012  11.515
53040W        W24656  20.540  34.427  14.291
53041W        W24657   2.779  36.654   1.433
53042W        W24658  21.553  13.836   4.187
53043W        W24659   4.211   7.675   0.474
53044W        W24660  18.989   3.494   0.706
53045W        W24661  17.221  38.954   1.677
53046W        W24662   1.497   6.348  12.450
53047W        W24663  22.184  41.370   4.638
53048W        W24664   8.263  44.960   1.873
53049W        W24665  31.387  18.097   4.040
53050W        W24666   7.326  40.940   1.730
53051W        W24667  32.540  30.613  12.123
53052W        W24668  31.086  15.233  12.632
53053W        W24669  39.284  16.039  10.863
53054W        W24670  32.682  42.411   3.139
53055W        W24671   2.404  16.703  14.024
53056W        W24672  33.338  26.219   0.076
53057W        W24673  15.809  30.960  14.899
53058W        W24674  15.020  39.585   4.228
53059W        W24675  23.240   5.413   2.307
53060W        W24676  26.556  17.105  12.762
53061W        W24677  35.228  39.348  13.342
53062W        W24678   0.201  30.966  14.511
53063W        W24679  35.439  29.401   4.203
53064W        W24680  32.436  19.400   0.804
53065W        W24681  43.865  13.847   3.756
53066W        W24682  35.387   5.216  13.506
53067W        W24683   0.451  43.408  13.439
53068W        W24684  40.049  34.269   4.245
53069W        W24685  17.070  42.339  11.850
53070W        W24686  26.765  24.197   2.223
53071W        W24687  13.555  18.219   5.496
53072W        W24688  38.608  14.824  10.493
53073W        W24689  40.751  29.736   2.397
53074W        W24690  37.318  41.001  11.531
53075W        W24691  37.731  10.725   1.941
53076W        W24692  31.575  18.751  14.993
53077W        W24693  37.817  37.036   2.318
53078W        W24694  15.696  19.878   2.361
53079W        W24695   6.866  13.506  14.996
53080W        W24696  36.198  24.475  12.484
53081W        W24697   6.501   5.042  12.502
53082W        W24698  34.400  37.574  11.853
53083W        W24699  42.362  26.112   1.863
53084W        W24700   2.841  30.923   0.468
53085W        W24701  23.102  23.184   0.363
53086W        W24702  17.085  10.386  11.625
53087W        W24703  11.198   4.702   0.484
53088W        W24704  32.702  32.420  10.760
53089W        W24705   9.373  30.592  11.014
53090W        W24706  44.880  11.665  12.178
53091W        W24707  16.089   5.705  14.272
53092W        W24708  37.381  15.101  10.958
53093W        W24709  35.682  16.243   2.929
53094W        W24710   9.710  39.612   2.829
53095W        W24711  24.014  43.057  11.632
53096W        W24712  34.358  24.996  14.302
53097W        W24713  27.517   2.847  10.984
53098W        W24714  42.978  33.922   1.525
53099W        W24715  32.833  23.772  10.669
53100W        W24716  28.633   9.139  14.254
53101W        W24717  25.098  15.063   2.322
53102W        W24718  24.510  41.438  13.001
53103W        W24719  30.959   1.616   1.120
53104W        W24720  41.528  36.536   3.740
53105W        W24721  15.277   2.250   0.302
53106W        W24722   6.360  10.378  13.812
53107W        W24723  43.714  12.564   4.159
53108W        W24724  17.176   5.717  14.216
53109W        W24725  43.120  30.599   4.924
53110W        W24726   6.162   0.440   2.748
53111W        W24727  41.855  37.775  11.967
53112W        W24728  13.140  30.483   1.845
53113W        W24729  28.204  38.061  14.890
53114W        W24730  23.653   0.746  12.912
53115W        W24731  13.356  23.939  11.555
53116W        W24732  25.537   6.892  11.002
53117W        W24733  27.004  15.212   1.203
53118W        W24734  37.929  33.943   1.219
53119W        W24735   6.299  39.014  13.368
53120W        W24736  14.909  31.110   1.437
53121W        W24737  16.154  18.091  11.865
53122W        W24738  42.454  17.069   1.276
53123W        W24739   2.778   2.439   1.802
53124W        W24740   4.201  17.190   1.316
53125W        W24741  40.089  27.554  13.434
53126W        W24742  13.287  24.670   4.279
53127W        W24743   0.152  24.390   4.076
53128W        W24744  24.780  25.645   3.363
53129W        W24745  40.855  17.015  11.090
53130W        W24746  43.293  44.527  13.502
53131W        W24747   6.684  20.097   0.474
53132W        W24748   2.369  35.099  10.650
53133W        W24749  16.232  22.935   2.434
53134W        W24750  13.557  28.592  13.867
53135W        W24751  18.478  26.066   2.342
53136W        W24752  40.811   7.911   4.927
53137W        W24753  30.925   3.171  13.481
53138W        W24754  41.478   4.776   3.722
53139W        W24755  24.826  38.890  14.548
53140W        W24756   6.453  32.687   2.625
53141W        W24757  15.538  24.567  12.871
53142W        W24758  14.060  21.517  14.325
53143W        W24759   2.208  17.163   4.185
53144W        W24760  28.432  36.529  11.498
53145W        W24761  23.439  42.165  12.638
53146W        W24762  41.299  22.016   1.310
53147W        W24763  18.763  17.052   3.151
53148W        W24764   8.353  18.830  12.437
53149W        W24765  16.775  21.697  10.829
53150W        W24766  23.701  24.804  14.177
53151W        W24767   3.736   2.334   0.251
53152W        W24768  34.085  11.139   0.258
53153W        W24769  34.847  14.889   1.289
53154W        W24770   0.491  11.407  11.002
53155W        W24771  21.922  19.058   3.297
53156W        W24772  34.497  17.265  13.872
53157W        W24773  29.605  32.684  13.474
53158W        W24774  30.484  11.265   1.283
53159W        W24775  25.888  14.325  12.589
53160W        W24776  43.356   3.121   2.530
53161W        W24777  20.014   8.783   1.755
53162W        W24778  12.803  43.839   0.278
53163W        W24779   0.483   9.959   3.908
53164W        W24780  26.564  28.444  11.617
53165W        W24781  16.060  19.259  10.429
53166W        W24782  10.601  10.576  14.463
53167W        W24783  12.843  39.342   4.539
53168W        W24784  20.186  14.797   3.675
53169W        W24785   7.317  35.100  10.822
53170W        W24786  16.732  32.392  11.162
53171W        W24787  14.974   4.218   4.005
53172W        W24788  20.611  16.094  10.925
53173W        W24789  12.624  12.977  13.450
53174W        W24790  16.996  42.464   4.788
53175W        W24791  12.740   3.432  13.935
53176W        W24792  22.119  28.318  14.974
53177W        W24793  29.400  36.317  11.496
53178W        W24794   2.865  39.749  12.561
53179W        W24795  10.876  42.032   2.463
53180W        W24796  17.604  34.811  11.967
53181W        W24797  19.335  10.220   1.653
53182W        W24798  37.831   9.493   3.621
53183W        W24799   9.291  13.222  12.545
53184W        W24800  24.610   8.615   2.796
53185W        W24801  36.083  25.143   4.591
53186W        W24802  41.849  35.640   3.726
53187W        W24803  34.604   6.511  12.851
53188W        W24804  40.021  34.141   1.638
53189W        W24805   6.332  36.081  13.258
53190W        W24806  21.273  41.275  11.499
53191W        W24807  11.394  17.608   2.642
53192W        W24808   9.636  39.500   2.340
53193W        W24809  39.660   1.425   0.439
53194W        W24810  12.127  40.426  13.998
53195W        W24811   2.978  10.747   4.639
53196W        W24812  13.116  15.392  11.474
53197W        W24813  43.702  30.545  12.033
53198W        W24814  35.482  37.960  14.357
53199W        W24815  40.823  11.928   0.409
53200W        W24816  12.132  20.269  11.528
53201W        W24817  36.541  29.495  13.919
53202W        W24818   8.928  40.747  13.718
53203W        W24819   1.056  20.547  14.735
53204W        W24820  27.897  19.019   2.367
53205W        W24821  21.185   1.489   5.126
53206W        W24822  30.535  29.508  10.339
53207W        W24823  33.448  29.030  12.090
53208W        W24824  13.527  24.718  14.127
53209W        W24825  15.679  10.960  10.144
53210W        W24826  33.334   0.955  12.076
53211W        W24827  18.964   5.500  12.555
53212W        W24828  43.562  25.698   3.658
53213W        W24829  19.697   6.687   4.548
53214W        W24830  22.569  24.476   0.250
53215W        W24831  38.756   8.249   3.409
53216W        W24832  40.486  34.660  10.682
53217W        W24833  11.341   0.389   3.541
53218W        W24834  28.491   6.679  12.562
53219W        W24835  14.205  14.046   0.704
53220W        W24836   4.307  20.106  11.527
53221W        W24837  18.755  29.379   4.089
53222W        W24838   5.016  44.843   2.317
53223W        W24839  37.186  43.449   3.327
53224W        W24840  36.639   9.606  14.818
53225W        W24841  20.798   3.911  14.558
53226W        W24842  36.834   7.728  14.173
53227W        W24843  25.171  44.343   0.430
53228W        W24844  20.804   2.909   2.725
53229W        W24845  41.735  11.121   4.041
53230W        W24846  41.314  24.668  14.860
53231W        W24847  28.522  13.377  13.574
53232W        W24848  23.941   7.899  14.501
53233W        W24849  39.799  23.518  11.186
53234W        W24850  38.146   5.478   3.216
53235W        W24851  15.172  36.799  13.563
53236W        W24852   9.422  21.050  14.848
53237W        W24853   4.191  27.205   1.399
53238W        W24854  41.481  43.075   3.198
53239W        W24855  36.393  14.138  13.914
53240W        W24856  33.476  30.674   2.586
53241W        W24857   6.388  41.293   2.436
53242W        W24858  13.666  24.613   3.611
53243W        W24859  32.143  14.126   4.812
53244W        W24860  38.814  13.879   4.936
53245W        W24861   2.333  17.724   1.201
53246W        W24862  19.158  14.133   3.192
53247W        W24863  11.784  13.217   3.224
53248W        W24864   3.598   4.693  13.268
53249W        W24865  13.195   0.544  13.950
53250W        W24866  10.942  19.953   1.051
53251W        W24867  29.474  28.228  13.371
53252W        W24868  22.025  15.137   4.070
53253W        W24869  23.537   6.828   1.660
53254W        W24870  43.976  34.200   2.505
53255W        W24871  37.622  25.081  10.046
53256W        W24872  29.041  25.572   4.765
53257W        W24873  10.379  17.012  12.147
53258W        W24874  26.198   0.918  12.929
53259W        W24875   9.109  40.776   0.947
53260W        W24876  41.167  30.005  11.069
53261W        W24877   9.669   5.058  13.499
53262W        W24878  27.703  22.108   1.549
53263W        W24879  10.827  20.760   4.156
53264W        W24880  21.615   2.150  14.422
53265W        W24881   2.202  13.436   1.708
53266W        W24882  10.286  35.265  10.655
53267W        W24883   4.937   7.737   1.932
53268W        W24884  31.198  22.011   1.618
53269W        W24885  11.536  41.565   3.268
53270W        W24886  33.507  32.113   3.662
53271W        W24887  18.056  28.774   4.058
53272W        W24888  44.350  31.259  11.238
53273W        W24889  32.356  43.759   0.490
53274W        W24890  16.554  35.620   0.295
53275W        W24891  32.191  38.407   3.657
53276W        W24892   4.399  14.263   4.020
53277W        W24893   6.872  19.274  10.993
53278W        W24894  34.413   7.404  11.581
53279W        W24895  41.284  15.757  11.454
53280W        W24896  42.205  14.451  14.361
53281W        W24897  25.075  42.238   2.451
53282W        W24898  15.864   6.138  11.617
53283W        W24899   4.882   9.353   0.230
53284W        W24900  39.782  27.288  13.992
53285W        W24901   3.790  32.655   4.289
53286W        W24902  25.008   6.674   2.476
53287W        W24903   3.200  40.091   1.780
53288W        W24904  28.875   7.641  14.345
53289W        W24905  17.851  18.737  13.789
53290W        W24906  22.487   1.942   3.758
53291W        W24907  10.288  19.229   3.549
53292W        W24908  42.476  39.955   2.256
53293W        W24909  24.910   4.749  13.753
53294W        W24910  36.989   8.633  11.907
53295W        W24911   9.066  29.191   2.367
53296W        W24912  44.231  33.345  14.966
53297W        W24913  41.095   6.405   1.687
53298W        W24914  11.872  21.334  13.453
53299W        W24915  27.964  37.974  14.434
53300W        W24916  30.019  39.394  12.376
53301W        W24917  16.898  16.726  12.042
53302W        W24918   1.414  35.819   0.217
53303W        W24919  41.574  28.115  12.900
53304W        W24920   0.978  19.117  12.453
53305W        W24921   0.905  24.917   2.011
53306W        W24922  28.605  16.056   0.233
53307W        W24923  14.550   2.460   3.988
53308W        W24924  42.008  44.744   3.282
53309W        W24925  43.982  25.837  12.305
53310W        W24926  36.569  38.244  13.824
53311W        W24927  29.199   0.911   2.451
53312W        W24928  25.605  32.291  11.128
53313W        W24929  25.564  30.704   1.799
53314W        W24930  26.720  39.522   1.145
53315W        W24931  33.461  14.373   2.658
53316W        W24932  14.569  11.034   2.719
53317W        W24933  15.973  33.169  14.422
53318W        W24934   1.135  29.531  14.710
53319W        W24935  18.195  40.328   1.018
53320W        W24936  31.068  16.866   1.743
53321W        W24937  20.042  36.334   1.197
53322W        W24938  27.285  16.710   0.860
53323W        W24939  35.380  44.544   1.201
53324W        W24940  30.585  41.476  14.921
53325W        W24941  16.094  31.044   2.933
53326W        W24942  16.155   4.643  11.875
53327W        W24943  25.289  22.862   3.643
53328W        W24944  17.159   9.770   2.137
53329W        W24945  34.585  34.725   0.284
53330W        W24946  23.146  19.089   4.562
53331W        W24947  24.122  33.235  11.493
53332W        W24948  28.622  15.852   4.606
53333W        W24949   2.484  38.147  14.436
53334W        W24950  40.454  13.580   2.865
53335W        W24951  25.763  25.555  14.503
53336W        W24952  13.607  38.046   3.316
53337W        W24953   7.216  43.193   2.491
53338W        W24954  22.683   7.851   4.619
53339W        W24955   1.414  13.248  12.503
53340W        W24956   8.155  28.057  14.347
53341W        W24957  13.332  14.628   1.236
53342W        W24958  23.600  26.958   1.877
53343W        W24959  17.167  18.410   0.278
53344W        W24960  24.018  41.464   2.646
53345W        W24961  27.776   8.460  10.467
53346W        W24962  43.826  29.366  12.590
53347W        W24963  43.287  12.077  14.578
53348W        W24964  32.986  16.565   4.570
53349W        W24965  28.003   2.809  14.216
53350W        W24966  10.977  21.172  14.912
53351W        W24967  19.066   9.244   2.384
53352W        W24968  24.524  18.139   0.418
53353W        W24969   9.861  21.657  12.593
53354W        W24970   6.231  14.770   1.394
53355W        W24971  11.911  11.780  11.088
53356W        W24972  34.524   5.762   2.223
53357W        W24973  15.584  26.950  11.551
53358W        W24974   1.760   8.417   4.671
53359W        W24975  17.145   6.557  10.609
53360W        W24976  29.635  34.927  13.833
53361W        W24977  23.538  36.754  13.805
53362W        W24978   4.254  26.555   2.348
53363W        W24979  19.258  27.552   0.443
53364W        W24980  24.037  27.670   4.660
53365W        W24981  19.176  10.887   0.905
53366W        W24982  26.119   7.857   4.574
53367W        W24983  40.865  36.547  12.574
53368W        W24984  43.367  43.714   0.966
53369W        W24985  44.503  18.588  12.593
53370W        W24986  29.499   2.959   0.328
53371W        W24987   7.600   1.530  10.790
53372W        W24988  41.718  28.714   0.849
53373W        W24989  21.641  35.651   3.789
53374W        W24990  21.495   2.106  12.114
53375W        W24991   2.782  42.949  12.079
53376W        W24992   1.177  36.567  14.458
53377W        W24993  17.106  41.038   4.839
53378W        W24994   6.488   0.946   3.649
53379W        W24995  16.116  17.144  13.815
53380W        W24996  33.024  21.675  11.893
53381W        W24997  11.515  35.019  14.978
53382W        W24998  31.982  28.113   1.413
53383W        W24999  32.250  41.876   5.294
53384W        W25000   1.199  10.542   1.909
53385W        W25001  39.956  39.548   1.328
53386W        W25002  41.331  38.027  14.191
53387W        W25003   6.693   3.343   3.231
53388W        W25004  38.888  36.391   0.956
53389W        W25005  15.201  32.595   0.401
53390W        W25006  22.160  24.241  14.125
53391W        W25007   8.603  21.035  12.763
53392W        W25008  29.156  14.664  13.294
53393W        W25009  23.999  41.745   4.612
53394W        W25010  34.872  35.487  12.499
53395W        W25011  25.681  32.864  13.113
53396W        W25012  22.850  30.403   5.116
53397W        W25013  17.063  38.851  14.276
53398W        W25014  26.993  15.822  14.732
53399W        W25015  18.857  40.257  14.534
53400W        W25016  40.624  30.054  12.496
53401W        W25017  31.062  23.707   1.373
53402W        W25018  34.455  43.289   3.764
53403W        W25019  34.662  27.073  11.960
53404W        W25020  23.505  17.218  12.707
53405W        W25021  17.324  42.793   1.259
53406W        W25022   5.438  42.780  12.969
53407W        W25023   8.301  28.469  13.622
53408W        W25024  18.224  44.866   9.824
53409W        W25025  33.653  30.138  14.862
53410W        W25026  29.173   5.188   2.285
53411W        W25027  38.150  27.057  12.747
53412W        W25028  20.382   9.354  13.842
53413W        W25029  31.498  31.775   3.606
53414W        W25030  27.524  15.074  10.664
53415W        W25031   4.346   9.930   0.087
53416W        W25032  35.310  29.458  13.115
53417W        W25033  12.605  16.993  12.527
53418W        W25034  40.387   5.880   3.231
53419W        W25035  21.714  13.616  11.596
53420W        W25036   2.691   3.913  10.766
53421W        W25037  18.071  42.951  11.927
53422W        W25038  39.583  35.941   3.839
53423W        W25039  19.599   5.379  11.468
53424W        W25040   2.164  22.698  13.375
53425W        W25041  33.503   7.155  10.632
53426W        W25042  20.120  13.372   1.722
53427W        W25043   9.518  17.803  14.342
53428W        W25044  29.731  28.103   0.281
53429W        W25045  44.507  37.522  10.642
53430W        W25046  39.986   1.875  12.583
53431W        W25047   8.251  16.895  11.091
53432W        W25048  11.566   1.201  12.352
53433W        W25049   2.026  22.608   4.494
53434W        W25050  34.106  15.902  13.771
53435W        W25051  35.354  28.683   2.186
53436W        W25052  26.685  24.064   3.590
53437W        W25053  35.258   1.006   4.268
53438W        W25054   3.348   4.405   4.920
53439W        W25055  42.340  32.493   3.695
53440W        W25056  16.591  27.470  12.592
53441W        W25057  43.567   6.383  12.890
53442W        W25058  29.071  16.218  14.546
53443W        W25059  40.605  12.233  12.028
53444W        W25060  26.668  33.100  11.125
53445W        W25061  14.760  18.107  14.932
53446W        W25062  41.365  23.008  12.863
53447W        W25063   7.871  26.927  14.433
53448W        W25064  26.069   6.386   1.573
53449W        W25065  28.095  42.379  13.318
53450W        W25066  19.707  41.521  10.643
53451W        W25067  20.040   6.123  12.372
53452W        W25068  19.128  28.111  11.709
53453W        W25069  13.267  21.736  14.350
53454W        W25070   5.616  37.547   2.423
53455W        W25071  30.184  22.506   1.379
53456W        W25072  11.359  28.125   3.805
53457W        W25073  37.866  40.960   3.198
53458W        W25074  19.880  18.196   0.450
53459W        W25075  21.104  27.264   0.453
53460W        W25076  41.696  12.381   2.700
53461W        W25077  36.539  13.269   2.554
53462W        W25078  44.325  10.933  10.645
53463W        W25079  14.700  38.352   1.414
53464W        W25080  41.365   7.833   0.794
53465W        W25081  15.318  34.108   1.328
53466W        W25082  22.238  21.262  14.811
53467W        W25083  44.177  38.391  10.201
53468W        W25084  35.945  11.899   3.553
53469W        W25085   3.441  14.799  14.299
53470W        W25086  17.099  22.744   4.539
53471W        W25087   7.380  40.436  13.869
53472W        W25088  27.573  39.871  12.556
53473W        W25089  17.179  26.215  13.053
53474W        W25090  29.477  40.318   2.235
53475W        W25091   6.910  20.764   3.750
53476W        W25092   7.658  36.918  11.526
53477W        W25093  38.863  24.823  11.559
53478W        W25094  12.676   6.997   0.276
53479W        W25095   9.935   9.800  12.060
53480W        W25096  26.292   3.845  11.938
53481W        W25097  25.164  35.979   1.107
53482W        W25098  24.489   1.629  10.981
53483W        W25099   6.702  11.286  14.123
53484W        W25100  14.531   2.396   2.724
53485W        W25101  24.164   8.714  12.178
53486W        W25102  27.948  11.673  10.671
53487W        W25103  43.505  37.384   1.349
53488W        W25104   4.988   2.240   0.951
53489W        W25105  43.832   3.762   3.244
53490W        W25106  24.197  40.365   0.495
53491W        W25107  15.238  25.550   2.895
53492W        W25108   1.210  39.475   0.298
53493W        W25109  41.085  14.890  11.343
53494W        W25110   8.375   7.141   3.214
53495W        W25111  15.509   5.289  12.397
53496W        W25112  14.888  22.673  11.239
53497W        W25113   2.878  15.749   2.404
53498W        W25114  16.138   8.900  12.735
53499W        W25115  10.332  35.652  10.991
53500W        W25116  15.256  39.453  10.712
53501W        W25117  18.001   3.475   3.638
53502W        W25118  35.614  32.453  10.681
53503W        W25119  21.001  22.669  12.394
53504W        W25120  42.899  44.865  10.644
53505W        W25121  12.072  17.736  12.965
53506W        W25122  32.451  35.502  11.744
53507W        W25123   5.719   4.625   4.289
53508W        W25124  36.610  23.490   2.157
53509W        W25125   7.899  44.275   1.426
53510W        W25126  29.566   4.974  11.141
53511W        W25127  10.826   0.703  11.747
53512W        W25128  30.954  37.809   4.986
53513W        W25129  15.795  30.233   3.699
53514W        W25130  44.265  16.674   5.129
53515W        W25131  11.613  25.559   0.405
53516W        W25132   4.966  16.596   2.240
53517W        W25133  27.699   9.199  13.314
53518W        W25134   2.707  39.880  13.481
53519W        W25135  37.428  15.442   4.610
53520W        W25136  23.100   1.396   3.361
53521W        W25137  33.318  36.338   3.843
53522W        W25138  20.493  28.124   4.223
53523W        W25139  30.729  40.585   4.540
53524W        W25140   3.322  14.446  11.900
53525W        W25141  30.205  43.137   0.666
53526W        W25142  20.538  22.265   4.592
53527W        W25143  28.006  23.867  13.372
53528W        W25144  27.210  42.492  12.015
53529W        W25145  15.309  25.162  12.032
53530W        W25146   0.504  32.600   2.454
53531W        W25147   3.801   5.339  12.927
53532W        W25148  10.109   8.744   4.139
53533W        W25149  16.350  10.203  14.931
53534W        W25150  44.288  17.002  10.664
53535W        W25151  34.043  23.028  12.519
53536W        W25152  31.207  38.846  10.649
53537W        W25153  36.778  12.728  12.476
53538W        W25154  29.348  40.785  10.521
53539W        W25155  32.010   1.809   4.837
53540W        W25156  33.113   5.767   0.268
53541W        W25157  30.617  42.945  11.991
53542W        W25158  16.809  37.871  11.482
53543W        W25159  23.557   2.231  13.891
53544W        W25160  16.751   0.308   0.805
53545W        W25161  27.210   2.763   1.425
53546W        W25162  28.716  27.861   4.117
53547W        W25163  37.540  37.864   0.255
53548W        W25164   0.068  19.868  11.706
53549W        W25165  12.472  11.275  13.326
53550W        W25166  10.636  18.079   4.428
53551W        W25167   5.851  13.660   3.668
53552W        W25168  21.736  27.522  13.930
53553W        W25169  23.079  17.029   1.351
53554W        W25170  22.806  24.748  13.345
53555W        W25171   7.590  11.662   0.776
53556W        W25172   1.795   0.815  11.934
53557W        W25173  26.767  31.083  14.954
53558W        W25174   7.770  36.094  14.489
53559W        W25175   8.120   8.211   0.774
53560W        W25176   2.441   6.382  10.791
53561W        W25177  39.872  29.594  13.412
53562W        W25178   6.393  15.699   4.268
53563W        W25179   0.760   8.712  11.634
53564W        W25180  39.819  23.806  14.049
53565W        W25181   5.903  11.404  12.596
53566W        W25182  17.219  43.563  12.896
53567W        W25183  33.460  12.514  13.199
53568W        W25184  37.571  28.523  10.914
53569W        W25185  42.326  20.514   3.280
53570W        W25186   8.639  19.666   1.455
53571W        W25187  40.075  39.906  12.473
53572W        W25188  31.056  13.607  12.624
53573W        W25189  43.354  32.890   0.889
53574W        W25190   0.371  13.615   3.228
53575W        W25191  30.712  26.320  12.837
53576W        W25192  39.861  10.082  11.619
53577W        W25193  36.012  19.728  13.410
53578W        W25194  41.557   8.264   1.794
53579W        W25195   4.305  20.232   4.197
53580W        W25196  26.790   2.885  12.053
53581W        W25197   4.244  32.920  11.770
53582W        W25198  43.488   8.338   2.133
53583W        W25199  42.606  35.819  11.541
53584W        W25200  33.402  12.813  14.066
53585W        W25201  33.952   3.151   2.726
53586W        W25202  29.710   9.829  11.154
53587W        W25203  31.426  41.902  13.596
53588W        W25204  23.582  36.095   3.818
53589W        W25205  19.771  21.386  12.940
53590W        W25206  37.113  20.725  11.540
53591W        W25207   5.400   4.223  11.191
53592W        W25208  35.548  11.917   2.217
53593W        W25209  42.482  22.679   4.564
53594W        W25210  27.491  43.449  14.059
53595W        W25211  24.963  18.761   3.677
53596W        W25212   1.094  40.147  13.725
53597W        W25213   0.716   3.930  13.853
53598W        W25214   9.718  19.454   0.489
53599W        W25215   8.204  27.733  11.611
53600W        W25216  15.774  22.618  11.438
53601W        W25217  44.038   8.273   4.584
53602W        W25218  19.804  29.918  12.426
53603W        W25219  26.958  26.553  13.865
53604W        W25220  39.507  17.788  14.532
53605W        W25221  28.210  16.671   0.090
53606W        W25222  19.080  10.348  14.870
53607W        W25223   8.460  42.068   1.758
53608W        W25224  38.808   0.179   0.785
53609W        W25225  21.552  23.646   4.737
53610W        W25226   9.444  34.597  14.796
53611W        W25227  36.531  34.371  10.796
53612W        W25228  36.405   7.783  11.573
53613W        W25229   5.375  41.736   1.848
53614W        W25230  33.258  42.422   4.943
53615W        W25231   7.939  14.199  13.319
53616W        W25232   8.551  11.926   4.974
53617W        W25233  17.021  43.786   4.324
53618W        W25234   6.324  14.029   5.191
53619W        W25235  11.269  10.541  11.188
53620W        W25236  40.376  24.073   2.976
53621W        W25237  38.594  22.237   1.633
53622W        W25238  28.103  34.325   2.586
53623W        W25239  40.237  34.110   2.173
53624W        W25240  24.349  28.851   1.092
53625W        W25241  24.702  44.036   3.250
53626W        W25242  41.420  40.330  13.405
53627W        W25243  28.454  14.543   5.095
53628W        W25244  15.548  35.500  14.350
53629W        W25245  20.718   6.720  11.461
53630W        W25246  30.094  26.499  11.502
53631W        W25247  34.806  21.788   2.839
53632W        W25248  20.641  16.616  10.823
53633W        W25249  37.900   9.127   2.163
53634W        W25250  28.996  14.662   5.092
53635W        W25251  34.057   9.596   2.360
53636W        W25252  29.860  39.959  12.977
53637W        W25253  26.612  23.964   4.995
53638W        W25254  29.789  26.000   1.619
53639W        W25255  18.349  10.907   3.585
53640W        W25256   7.094  23.229  14.651
53641W        W25257  31.756  41.140  10.324
53642W        W25258   8.112  24.994   4.115
53643W        W25259  27.982   7.391   4.758
53644W        W25260  30.168   7.417  13.049
53645W        W25261  23.034  40.925  13.635
53646W        W25262   4.464  11.737   2.917
53647W        W25263   5.897  12.367  13.601
53648W        W25264  36.150  43.370  11.533
53649W        W25265  31.468  19.513   2.396
53650W        W25266  44.688  19.980  14.335
53651W        W25267  20.047   8.544  14.925
53652W        W25268   5.764   4.488  12.903
53653W        W25269  18.530  21.691   1.175
53654W        W25270  41.468  20.116  14.330
53655W        W25271   3.491  10.429  14.250
53656W        W25272  28.902  12.689  10.711
53657W        W25273  31.107  13.829  12.119
53658W        W25274   6.878   6.288   4.524
53659W        W25275  10.401  33.955  11.174
53660W        W25276   0.737   1.537   2.834
53661W        W25277  22.395  11.807  14.049
53662W        W25278   5.354   5.837  11.940
53663W        W25279  23.272  42.760  11.113
53664W        W25280  10.856  18.647  12.490
53665W        W25281   0.909  39.038   3.875
53666W        W25282  43.000   8.374   2.751
53667W        W25283  12.337  18.480   2.273
53668W        W25284  18.715   3.473   4.269
53669W        W25285  32.883   2.739  14.908
53670W        W25286  32.939   0.064   5.078
53671W        W25287  30.431   4.765   0.850
53672W        W25288  36.865  29.383  12.106
53673W        W25289  12.577  17.255  13.341
53674W        W25290  15.207  34.973   3.344
53675W        W25291  18.648   7.688   1.449
53676W        W25292  30.299   1.893   3.122
53677W        W25293  29.858   3.268  14.428
53678W        W25294  43.121  38.206  10.163
53679W        W25295   8.630  26.169  14.985
53680W        W25296  35.391   5.847  11.937
53681W        W25297  31.150  39.868  12.344
53682W        W25298  43.623  40.492  14.900
53683W        W25299  43.846  15.157  11.103
53684W        W25300  37.276  40.861  10.518
53685W        W25301  10.443  12.615   0.325
53686W        W25302  27.229  22.253   0.329
53687W        W25303  29.479  24.452   3.624
53688W        W25304  32.784  44.570   9.776
53689W        W25305  35.301  41.942   3.353
53690W        W25306  31.200  24.979   3.257
53691W        W25307   0.901  17.314  13.842
53692W        W25308  36.372  40.608   4.598
53693W        W25309  31.074  41.089   3.855
53694W        W25310  34.638  15.123   4.301
53695W        W25311   8.724  44.299  10.621
53696W        W25312  44.173   0.274  14.853
53697W        W25313  18.804  32.077  12.067
53698W        W25314  35.247  27.637   3.962
53699W        W25315  31.289   4.634   1.743
53700W        W25316  32.427  17.685   0.404
53701W        W25317   5.868  43.789   0.793
53702W        W25318  43.672  29.096   4.961
53703W        W25319  42.164   6.665  14.736
53704W        W25320   8.359  44.956   2.782
53705W        W25321  36.886  38.269   4.882
53706W        W25322  23.129  35.887   4.058
53707W        W25323  25.458  12.075   0.392
53708W        W25324  17.230   1.928  12.426
53709W        W25325  21.114   4.344  14.546
53710W        W25326  38.460   5.874   3.402
53711W        W25327  34.532   8.293   1.264
53712W        W25328   3.696  31.381  12.037
53713W        W25329  19.185  19.109  14.886
53714W        W25330  23.243  10.706   2.847
53715W        W25331   8.797  35.898   1.349
53716W        W25332  10.352  44.183  14.815
53717W        W25333  12.289  26.125   1.626
53718W        W25334  15.760  33.091   3.216
53719W        W25335  41.850  37.123   3.702
53720W        W25336  24.453  12.831   4.101
53721W        W25337  44.955  12.857   4.516
53722W        W25338  44.067   7.744  11.782
53723W        W25339   4.431   3.964   4.162
53724W        W25340  43.481   5.286   3.632
53725W        W25341  42.805  41.711  11.432
53726W        W25342  25.074   1.537  13.601
53727W        W25343  29.889  12.727  12.110
53728W        W25344  18.970  36.950   4.687
53729W        W25345  17.617  37.087   2.724
53730W        W25346  20.949  20.121   3.179
53731W        W25347  14.178  44.027  13.102
53732W        W25348  12.726  24.311  13.738
53733W        W25349  13.092  30.013   3.430
53734W        W25350  32.964   5.315  12.991
53735W        W25351  35.335  25.702  11.966
53736W        W25352  25.923  18.746  13.329
53737W        W25353  21.626  43.724   0.773
53738W        W25354  21.206  29.563  13.592
53739W        W25355  18.805  30.576   3.446
53740W        W25356  15.628  43.082   1.684
53741W        W25357  14.545   4.325   1.852
53742W        W25358   1.048  28.877   0.889
53743W        W25359  32.042  42.850   3.178
53744W        W25360  30.643  41.048   1.765
53745W        W25361  11.790  23.729  12.502
53746W        W25362  12.526  23.952   0.680
53747W        W25363  29.544  19.269  12.441
53748W        W25364  29.755  42.419   3.351
53749W        W25365  21.312  34.268   2.593
53750W        W25366  11.400  39.868  14.091
53751W        W25367  43.541   6.605  14.321
53752W        W25368  12.622   4.157   0.292
53753W        W25369  18.631  30.970  14.303
53754W        W25370  20.635  11.851   1.468
53755W        W25371  23.715  34.161   1.824
53756W        W25372  33.252  36.150   0.219
53757W        W25373   2.295  18.996  12.869
53758W        W25374  39.400   1.815   5.030
53759W        W25375   8.212  11.657   4.661
53760W        W25376  34.858   5.171  10.581
53761W        W25377  15.587  33.688  11.984
53762W        W25378  14.277  14.742  12.479
53763W        W25379  18.329   3.449  11.456
53764W        W25380  13.195  14.669  10.449
53765W        W25381   3.930  10.493  13.359
53766W        W25382  36.381  40.082  10.737
53767W        W25383  13.850  22.402   3.914
53768W        W25384   5.175  40.090  10.469
53769W        W25385  11.385  42.442   2.983
53770W        W25386  27.445  19.857   1.109
53771W        W25387  12.678  25.978   1.943
53772W        W25388  16.146   1.813   4.601
53773W        W25389  27.001   8.132  12.154
53774W        W25390   8.278  27.475   0.139
53775W        W25391  28.491  43.281  11.456
53776W        W25392   0.329  34.352   1.343
53777W        W25393  21.655   4.552   1.260
53778W        W25394  13.782   4.298  14.587
53779W        W25395  39.523  34.559   2.843
53780W        W25396  16.537   8.712   0.012
53781W        W25397  10.521  26.608   1.761
53782W        W25398  26.059  15.756   4.377
53783W        W25399  38.315   5.001  12.909
53784W        W25400  33.561   9.332   3.252
53785W        W25401  33.052  16.758  12.503
53786W        W25402  35.337  37.136   1.402
53787W        W25403   9.297  39.929  12.787
53788W        W25404  37.037  13.301  13.408
53789W        W25405   3.844  14.090  13.907
53790W        W25406   2.995   4.300   2.061
53791W        W25407  22.997   4.414  10.805
53792W        W25408  43.588  18.215  10.619
53793W        W25409  18.315  14.993   3.758
53794W        W25410  37.369  35.400  10.775
53795W        W25411  20.566  44.000  14.837
53796W        W25412   8.039  21.114   4.167
53797W        W25413  11.824  24.948   2.204
53798W        W25414  25.940  20.780  13.054
53799W        W25415  37.443  15.315  13.093
53800W        W25416  19.773  33.648   2.261
53801W        W25417  25.800  15.250  14.406
53802W        W25418  11.715  23.764  10.542
53803W        W25419   7.713  43.917  12.410
53804W        W25420  22.083  42.815  11.567
53805W        W25421  16.092  11.210  11.389
53806W        W25422   0.991  40.624   3.259
53807W        W25423  30.214  41.803   4.540
53808W        W25424  21.520   7.268   2.429
53809W        W25425   8.934  29.386   3.556
53810W        W25426  17.069  19.190   3.759
53811W        W25427  40.618  17.117   3.644
53812W        W25428   6.452  37.080   2.040
53813W        W25429  27.066  42.540   0.550
53814W        W25430  30.061  41.515  14.885
53815W        W25431  26.979  26.001  13.892
53816W        W25432   7.337  39.471   0.886
53817W        W25433  14.380  28.106  12.042
53818W        W25434  40.624  16.500  14.449
53819W        W25435  42.741  44.906   2.650
53820W        W25436  17.521  21.757  14.830
53821W        W25437  35.598  35.051  13.710
53822W        W25438   1.109  23.120  14.509
53823W        W25439  13.641   3.136  12.596
53824W        W25440  33.457  18.693   4.778
53825W        W25441   0.277  35.721  10.103
53826W        W25442  35.845  13.794  13.032
53827W        W25443  21.130  25.122  14.318
53828W        W25444  16.251   5.331   1.316
53829W        W25445  38.193  21.994   1.239
53830W        W25446   7.810  27.098   1.380
53831W        W25447   3.707  22.896  14.464
53832W        W25448  15.993  43.778   3.407
53833W        W25449  15.835  12.409  11.858
53834W        W25450  17.357  41.316   0.875
53835W        W25451  37.805  27.136  14.946
53836W        W25452  43.103  21.354   4.891
53837W        W25453  39.806  21.481   3.826
53838W        W25454  13.746  37.494  10.517
53839W        W25455  23.643  35.798  13.031
53840W        W25456   9.399  11.698  12.074
53841W        W25457  19.779  16.052  14.255
53842W        W25458  27.997  11.126  14.980
53843W        W25459  22.969   2.890   0.324
53844W        W25460   7.203  11.564  11.650
53845W        W25461  30.535   8.107   3.177
53846W        W25462   4.296  27.973  13.771
53847W        W25463  16.806  10.961   0.857
53848W        W25464  16.753  30.935  11.207
53849W        W25465  44.494  18.002   5.139
53850W        W25466  11.852   8.768   3.668
53851W        W25467  16.293   8.546  13.902
53852W        W25468  41.045  33.638  10.980
53853W        W25469  42.875   5.340  12.393
53854W        W25470   2.116  16.929   4.646
53855W        W25471  11.463   0.033  11.973
53856W        W25472  35.479  10.290   4.120
53857W        W25473  26.518  31.979  13.334
53858W        W25474  12.133  19.967   2.181
53859W        W25475  11.366  35.652   4.193
53860W        W25476  26.455  34.039   3.768
53861W        W25477  27.878  39.122   5.021
53862W        W25478  10.572  38.407  10.564
53863W        W25479  12.112  31.025   1.397
53864W        W25480  32.430   2.362  10.288
53865W        W25481  44.595  23.482   1.907
53866W        W25482   2.440  42.530   0.925
53867W        W25483  26.149   2.256   0.776
53868W        W25484  30.490  26.436   2.166
53869W        W25485  11.555  28.488   4.769
53870W        W25486  30.480  38.599  12.463
53871W        W25487  18.550  37.599  13.037
53872W        W25488  40.516   5.748  11.586
53873W        W25489  35.615  23.446   3.718
53874W        W25490  44.240  34.532   3.313
53875W        W25491  22.835  27.645   1.089
53876W        W25492  26.405  11.123  12.970
53877W        W25493  13.561   8.918  13.456
53878W        W25494  37.319  32.570   3.185
53879W        W25495  29.678  29.611  13.469
53880W        W25496  28.614  18.035   0.947
53881W        W25497  11.696  13.590  11.968
53882W        W25498  40.495   5.712   2.736
53883W        W25499  15.876  30.080   1.948
53884W        W25500  39.781  30.843   2.730
53885W        W25501   0.261   2.874  12.418
53886W        W25502   9.167  20.177   0.862
53887W        W25503  32.197  35.006  12.858
53888W        W25504   6.957  27.623   3.795
53889W        W25505   8.939  10.744  14.915
53890W        W25506  43.719  42.105  11.172
53891W        W25507  32.036  30.205   2.232
53892W        W25508   8.292  20.588   0.725
53893W        W25509  27.998   5.051  12.101
53894W        W25510  11.588   5.712  12.923
53895W        W25511   3.073  14.847  11.124
53896W        W25512  24.469  30.082  10.601
53897W        W25513  20.680   9.238   0.236
53898W        W25514   1.217  43.866   4.048
53899W        W25515  14.126  36.536  14.709
53900W        W25516  37.490  23.474  11.431
53901W        W25517  10.463  40.290   0.762
53902W        W25518  31.916  32.829   0.534
53903W        W25519  24.148   9.314  10.917
53904W        W25520  10.121  37.406  13.096
53905W        W25521  40.063  41.969   1.066
53906W        W25522  21.046   3.380  13.334
53907W        W25523  29.858   1.238  12.763
53908W        W25524  30.879  39.509  14.259
53909W        W25525  24.216  36.823  13.569
53910W        W25526  43.963  44.548   4.108
53911W        W25527   5.325  16.238  14.068
53912W        W25528  18.207   6.679  13.430
53913W        W25529  19.096  33.579   3.779
53914W        W25530  24.762  22.073  11.579
53915W        W25531  19.658  26.946  12.137
53916W        W25532  19.634  22.160  11.853
53917W        W25533  15.082   5.501  11.562
53918W        W25534  27.896  37.053   3.223
53919W        W25535  34.567  28.669   3.784
53920W        W25536  39.302  15.277   3.918
53921W        W25537  20.701  30.423   4.223
53922W        W25538  30.017   7.785  11.656
53923W        W25539   2.357  26.280  14.075
53924W        W25540   1.305  43.192   4.808
53925W        W25541  33.136  20.192  13.095
53926W        W25542   3.712  11.402   3.651
53927W        W25543  15.311  13.844   1.708
53928W        W25544  12.292  10.378   0.909
53929W        W25545  10.754   4.665  13.783
53930W        W25546   5.364   4.646   1.340
53931W        W25547  16.776  20.466   4.250
53932W        W25548  14.628  15.641  11.603
53933W        W25549  13.068  29.102   3.866
53934W        W25550   3.022  12.273  10.709
53935W        W25551   5.324   8.653  13.571
53936W        W25552  11.742  16.557  11.992
53937W        W25553  21.954  44.997   0.362
53938W        W25554  43.952  19.530  14.042
53939W        W25555  12.784  24.601  13.307
53940W        W25556  30.367   2.882  13.987
53941W        W25557   1.815  27.173   4.600
53942W        W25558  44.440   5.181   2.722
53943W        W25559  30.182  32.336   0.947
53944W        W25560  31.980  13.451   5.154
53945W        W25561  33.332  22.542   3.394
53946W        W25562  42.809  35.394   5.421
53947W        W25563  23.446  37.349  14.714
53948W        W25564   5.834   1.298  11.153
53949W        W25565  13.929  27.722  11.092
53950W        W25566  27.920  20.219   3.236
53951W        W25567  38.914  40.560  11.509
53952W        W25568   8.837  28.674   0.252
53953W        W25569  22.501  25.641  11.469
53954W        W25570  23.049  21.074  11.732
53955W        W25571   6.428  32.555  13.591
53956W        W25572  10.558  27.455  12.591
53957W        W25573   4.020  19.900  10.251
53958W        W25574  37.956  15.009  11.026
53959W        W25575  30.578  33.648   3.820
53960W        W25576  37.692  43.396  11.688
53961W        W25577  44.706  44.733   3.961
53962W        W25578   9.710   9.917   3.320
53963W        W25579  44.589  35.146  14.321
53964W        W25580  41.353  21.383  12.068
53965W        W25581  18.782   3.214  12.614
53966W        W25582  13.299  33.376   0.484
53967W        W25583  22.578  10.190   2.260
53968W        W25584   3.348   0.288   4.167
53969W        W25585  12.581  35.292   3.499
53970W        W25586   2.459  13.445   3.756
53971W        W25587  40.307  39.034  12.167
53972W        W25588  10.903  29.486  11.891
53973W        W25589  22.892   8.832   0.701
53974W        W25590  34.301   3.265   0.010
53975W        W25591  26.090  29.596   3.125
53976W        W25592   3.676  38.588  14.799
53977W        W25593  14.106  18.578   5.098
53978W        W25594  38.551  27.737   1.209
53979W        W25595  27.793   8.593  12.080
53980W        W25596  44.855  23.296  11.143
53981W        W25597  19.773  27.438  13.856
53982W        W25598   1.384  37.349   3.874
53983W        W25599  26.031  22.192  12.414
53984W        W25600  14.174  44.379   3.664
53985W        W25601   2.627   3.949   1.974
53986W        W25602   1.711   0.328   1.878
53987W        W25603   7.445  31.871  11.565
53988W        W25604  43.764  17.271  14.623
53989W        W25605  22.691  36.905  11.335
53990W        W25606  36.252  44.353   1.240
53991W        W25607   0.502  13.799  11.953
53992W        W25608  31.901  28.144  13.795
53993W        W25609   3.964  15.851  13.370
53994W        W25610  32.370  16.787   0.149
53995W        W25611  39.648  29.998   0.524
53996W        W25612  12.647  26.990  10.583
53997W        W25613  30.286  26.135   1.755
53998W        W25614  16.487  31.034  13.428
53999W        W25615  13.540  10.028   1.333
54000W        W25616   7.399  44.957  14.396
54001W        W25617   6.358   9.129  13.926
54002W        W25618  27.161  39.609   3.188
54003W        W25619   3.168  29.539   1.844
54004W        W25620   0.318  30.475   0.410
54005W        W25621   7.679   4.360  13.634
54006W        W25622  38.450  40.724   2.069
54007W        W25623  36.860   9.342  14.423
54008W        W25624  27.126  21.941   4.594
54009W        W25625  10.168  41.573  11.817
54010W        W25626  30.582   7.708  12.953
54011W        W25627   4.808   8.618  10.413
54012W        W25628  35.737  27.810   4.134
54013W        W25629  38.994  26.728   2.647
54014W        W25630  24.644  23.759  14.283
54015W        W25631  38.469  34.661   1.216
54016W        W25632  33.364  10.923  12.917
54017W        W25633  18.676  19.832  10.723
54018W        W25634  38.605  26.196  13.557
54019W        W25635  12.635   1.337   2.206
54020W        W25636  22.240  22.141   1.943
54021W        W25637  27.415   7.651  14.364
54022W        W25638  13.788  24.239  13.360
54023W        W25639  20.246  44.043  10.974
54024W        W25640  41.774  41.957   4.234
54025W        W25641  13.926  28.603  14.418
54026W        W25642  26.072  26.967   4.209
54027W        W25643   2.998  32.184   0.817
54028W        W25644  34.987  22.634   2.407
54029W        W25645  26.458   4.369   0.895
54030W        W25646   9.621  10.228   5.072
54031W        W25647  39.979   7.860   1.480
54032W        W25648  30.942   8.116   4.665
54033W        W25649  18.683  30.844   2.595
54034W        W25650  15.902  11.144  14.840
54035W        W25651  36.634  14.920   3.612
54036W        W25652  31.539  34.052   0.750
54037W        W25653  24.559  17.448   4.661
54038W        W25654  24.254  10.618   0.815
54039W        W25655  25.458  44.829   0.336
54040W        W25656  26.302  16.833  13.949
54041W        W25657  36.512  30.024   3.801
54042W        W25658  44.789  17.693  11.581
54043W        W25659  35.409   5.258  11.587
54044W        W25660   0.721  22.714  11.019
54045W        W25661   6.694  12.663   4.632
54046W        W25662  10.873  13.313  10.767
54047W        W25663  40.037  23.961  11.498
54048W        W25664   6.543  23.760   3.228
54049W        W25665   0.610  35.300  13.534
54050W        W25666  14.758  32.226  13.087
54051W        W25667  31.878  17.588   2.302
54052W        W25668  43.948  29.619  11.064
54053W        W25669   8.323  17.667  11.678
54054W        W25670   2.441  31.693  11.416
54055W        W25671  16.991  27.048   1.900
54056W        W25672  37.533  11.645   1.818
54057W        W25673   9.102  17.342   4.413
54058W        W25674  44.404  11.936   3.664
54059W        W25675   1.760  30.080  12.073
54060W        W25676  12.904  42.331  13.160
54061W        W25677  16.029  42.394  14.506
54062W        W25678   8.421  16.569   1.297
54063W        W25679   9.253   8.468   0.051
54064W        W25680  38.290  22.732  14.449
54065W        W25681  18.226  23.644   1.340
54066W        W25682  31.644  35.217   4.547
54067W        W25683   1.823   9.634   1.326
54068W        W25684  44.971  39.053  12.177
54069W        W25685  37.760  30.570   0.803
54070W        W25686  38.317  43.752   0.198
54071W        W25687  23.505   6.214   0.280
54072W        W25688   0.908  22.050  11.962
54073W        W25689   4.447  41.874   0.800
54074W        W25690   8.289  17.712   4.866
54075W        W25691   7.231  30.678  13.723
54076W        W25692  20.548  30.434   0.383
54077W        W25693  39.448  32.838  14.446
54078W        W25694  16.688  27.626  12.108
54079W        W25695  15.158  39.490   0.750
54080W        W25696  30.486  37.360  14.920
54081W        W25697  19.245  19.785   0.244
54082W        W25698  42.833   8.159   2.309
54083W        W25699  39.384  33.473   1.928
54084W        W25700  28.676  32.855   3.367
54085W        W25701  23.547   7.113  11.350
54086W        W25702   9.632  11.381  11.423
54087W        W25703  15.683  42.948   4.348
54088W        W25704  43.650  35.530  14.366
54089W        W25705  36.851  30.432   0.933
54090W        W25706  20.074  44.936  11.108
54091W        W25707  13.346   3.156  13.240
54092W        W25708  11.386   6.739  10.659
54093W        W25709  25.965  21.759  12.668
54094W        W25710  43.583  13.319   0.159
54095W        W25711   3.269  34.607   4.721
54096W        W25712  14.733  35.094  11.823
54097W        W25713   1.286  25.663  10.385
54098W        W25714  12.043  27.018  13.509
54099W        W25715  26.389  22.949   1.267
54100W        W25716  19.618  38.440  13.929
54101W        W25717  28.356  29.184  14.406
54102W        W25718   7.831  27.121   3.475
54103W        W25719  43.075  33.428   2.225
54104W        W25720  17.695  21.933   3.292
54105W        W25721  43.225  18.698   3.748
54106W        W25722   5.705  35.561   2.786
54107W        W25723  25.300   1.048  10.985
54108W        W25724  10.754  43.241  13.039
54109W        W25725   4.812  35.618  14.373
54110W        W25726   4.508  16.199  10.660
54111W        W25727  32.134   5.468   3.200
54112W        W25728   3.532   0.772   0.267
54113W        W25729  25.226  25.049  11.952
54114W        W25730  16.676  34.138  10.726
54115W        W25731  17.927  35.024   2.710
54116W        W25732  15.231  30.992   2.953
54117W        W25733  23.591  44.959  10.773
54118W        W25734   9.299  20.610  11.909
54119W        W25735  26.162  33.416   1.789
54120W        W25736  18.011  26.891   2.708
54121W        W25737   4.766  38.306  12.769
54122W        W25738  23.823  28.015  12.031
54123W        W25739   0.996  17.486   2.414
54124W        W25740  11.215  43.916   0.025
54125W        W25741  41.858  36.744  11.008
54126W        W25742  21.728   8.881   3.623
54127W        W25743  36.480  24.776  11.639
54128W        W25744   6.394  42.279  11.625
54129W        W25745  29.516  43.456   0.002
54130W        W25746  43.490  41.021  11.092
54131W        W25747   9.274   7.567  12.875
54132W        W25748   1.838  11.216   3.266
54133W        W25749  30.737   4.813   0.404
54134W        W25750  30.425   8.195  11.197
54135W        W25751  18.635  26.378   3.302
54136W        W25752  40.523   0.319  12.897
54137W        W25753  43.484  35.834   2.171
54138W        W25754  17.843  19.333  14.464
54139W        W25755   0.272  20.742   2.697
54140W        W25756  43.080  35.205  10.971
54141W        W25757  21.881  21.273  11.943
54142W        W25758  31.856  12.758  14.158
54143W        W25759  12.179   3.361  14.840
54144W        W25760  32.883  26.643   0.967
54145W        W25761  39.061  32.005   4.547
54146W        W25762   9.273   0.214  12.807
54147W        W25763  22.363  38.345  13.673
54148W        W25764  40.362  39.546  13.310
54149W        W25765  10.517   5.803  14.632
54150W        W25766  13.707  35.305   0.529
54151W        W25767  43.748  28.117   4.420
54152W        W25768  16.461  29.740  11.156
54153W        W25769  22.017  31.158  12.437
54154W        W25770  18.094   8.261  14.803
54155W        W25771   8.096  39.394  11.116
54156W        W25772  23.696  39.927   2.327
54157W        W25773  34.030   0.564   0.430
54158W        W25774  42.814  21.647   1.856
54159W        W25775  24.857   0.265  12.053
54160W        W25776   2.613   6.912   3.318
54161W        W25777  31.833   2.862  12.457
54162W        W25778  13.331   6.355   4.669
54163W        W25779  30.902   2.149   1.231
54164W        W25780   7.486   8.322  11.966
54165W        W25781  28.923  38.451  12.523
54166W        W25782  25.691  25.989   2.354
54167W        W25783  43.893  16.743   4.246
54168W        W25784  12.863  11.731  13.012
54169W        W25785  22.362   0.969  13.861
54170W        W25786   8.461   7.747   2.790
54171W        W25787  20.550  26.605  11.858
54172W        W25788  30.504  17.909  11.759
54173W        W25789   0.483  18.758  13.460
54174W        W25790  21.728   8.343   2.267
54175W        W25791  15.099  21.568  12.492
54176W        W25792  14.404  18.030   0.870
54177W        W25793  11.654   2.304   2.179
54178W        W25794   1.202   8.236   2.902
54179W        W25795   5.481  15.767  11.092
54180W        W25796  33.124  39.754  13.542
54181W        W25797   5.695  17.491  11.855
54182W        W25798  41.974  37.309  13.258
54183W        W25799  22.502  27.043   0.876
54184W        W25800   0.594   6.238  11.030
54185W        W25801  23.980  38.110   0.518
54186W        W25802  33.179  12.784  13.606
54187W        W25803   3.959   1.023   1.469
54188W        W25804  38.704   1.678  13.143
54189W        W25805  21.252  33.537   1.280
54190W        W25806  10.447  37.028  13.309
54191W        W25807  22.730  15.734   1.514
54192W        W25808   9.667  30.724  11.422
54193W        W25809  44.585  26.938  14.747
54194W        W25810  37.071  24.705   4.106
54195W        W25811   6.416  23.756  13.057
54196W        W25812  37.724  20.599   0.365
54197W        W25813  24.937  35.546   1.900
54198W        W25814  24.634  39.185   4.234
54199W        W25815  19.995  25.631   4.099
54200W        W25816  24.959  43.449   0.964
54201W        W25817  22.050   4.299   3.934
54202W        W25818  37.464  34.886  13.754
54203W        W25819  16.264  23.991  13.876
54204W        W25820  36.564  31.169   3.330
54205W        W25821  42.364  32.296   3.202
54206W        W25822  34.162  33.355  12.877
54207W        W25823  28.744  32.627   0.154
54208W        W25824  12.074   8.584  12.503
54209W        W25825  27.417   1.784  14.946
54210W        W25826   2.302  36.091  11.676
54211W        W25827  14.410  23.120   1.942
54212W        W25828  12.947  17.270   0.252
54213W        W25829  30.172   8.270   3.627
54214W        W25830  26.664  17.635  12.127
54215W        W25831  25.189  31.876   4.047
54216W        W25832  31.407  29.634   1.851
54217W        W25833   2.570  19.600  14.974
54218W        W25834  26.592   7.609   3.319
54219W        W25835  31.546  24.251   1.626
54220W        W25836   4.700  32.290   4.066
54221W        W25837  28.969  39.343   2.845
54222W        W25838  27.444   0.936  14.588
54223W        W25839   9.268   2.209   2.307
54224W        W25840  34.097  38.940  11.575
54225W        W25841  19.192  26.486   1.719
54226W        W25842  24.576  10.440  12.059
54227W        W25843  19.991   9.194   1.142
54228W        W25844  39.561   2.440   0.479
54229W        W25845   0.909  12.795   3.309
54230W        W25846  40.360  23.123  13.500
54231W        W25847  25.895  27.191   1.835
54232W        W25848  12.839   9.593  11.197
54233W        W25849   2.976   7.662   3.679
54234W        W25850  37.416   5.914   2.815
54235W        W25851  12.308  15.124   0.816
54236W        W25852  44.325  17.461  11.705
54237W        W25853   2.750  28.432   3.689
54238W        W25854  18.784  42.165   5.003
54239W        W25855  18.143  37.297  14.003
54240W        W25856  40.439  33.821   0.340
54241W        W25857  44.812   2.733  10.514
54242W        W25858  34.817  44.785   5.451
54243W        W25859  14.162  17.543  14.492
54244W        W25860   3.887  41.288   5.278
54245W        W25861  25.642   3.201   2.879
54246W        W25862   0.830  18.954   2.350
54247W        W25863  42.786  26.593  11.400
54248W        W25864  16.394  29.619   4.305
54249W        W25865  40.252  31.099  10.711
54250W        W25866  42.963  16.692  11.431
54251W        W25867   6.507  24.257   5.110
54252W        W25868  13.380  31.828   4.600
54253W        W25869  18.298  34.929   2.362
54254W        W25870  34.061  36.640   3.111
54255W        W25871  31.109  12.541  13.601
54256W        W25872   8.477  23.513   4.120
54257W        W25873  15.513  10.148  12.425
54258W        W25874  20.462  26.012  13.650
54259W        W25875   8.779  43.997  13.761
54260W        W25876  13.287  15.053  13.240
54261W        W25877  18.680  34.688   4.147
54262W        W25878  35.820  20.654  11.107
54263W        W25879  29.585  25.673  14.444
54264W        W25880  44.952  17.230   4.629
54265W        W25881  31.881  30.621   1.416
54266W        W25882  28.657  16.395   4.599
54267W        W25883  37.470  13.200   1.562
54268W        W25884  25.712  19.028  10.639
54269W        W25885  28.619  37.964  11.357
54270W        W25886  23.651   7.242  10.870
54271W        W25887   5.059  25.443  12.798
54272W        W25888  13.686  12.078   3.794
54273W        W25889  23.494  43.446   3.365
54274W        W25890  29.589  37.059  11.090
54275W        W25891  43.920  40.557   3.256
54276W        W25892  40.941   8.851  11.214
54277W        W25893  12.622  29.832   1.390
54278W        W25894  38.270  33.048   2.253
54279W        W25895  20.095  41.402  14.026
54280W        W25896  26.292  10.135   3.323
54281W        W25897  22.624   6.804   3.702
54282W        W25898   2.389  18.704   2.659
54283W        W25899   8.382  32.296   5.104
54284W        W25900   3.890  17.644   1.309
54285W        W25901  25.356  25.497   1.242
54286W        W25902  43.705  24.834   4.810
54287W        W25903  13.118  10.202  11.550
54288W        W25904   6.410  20.086   4.262
54289W        W25905   2.684  42.729  12.543
54290W        W25906   7.213  26.245  14.804
54291W        W25907  28.201  17.411   4.257
54292W        W25908  21.563   6.603   0.681
54293W        W25909  13.200  11.948   3.085
54294W        W25910  19.899  19.563   3.880
54295W        W25911   9.949  27.625   2.339
54296W        W25912  19.773   0.359   0.343
54297W        W25913  25.145  22.507   0.895
54298W        W25914  10.637  15.689  11.545
54299W        W25915  11.273  28.597  14.382
54300W        W25916  28.128   8.981  11.134
54301W        W25917  41.505  24.120   0.846
54302W        W25918  36.758   3.443   5.110
54303W        W25919  14.205  20.085   1.926
54304W        W25920  33.575  29.738   2.810
54305W        W25921  27.071   6.109   2.397
54306W        W25922  38.007  10.279  14.911
54307W        W25923   1.989   8.739   0.758
54308W        W25924  44.772  37.376   0.172
54309W        W25925  27.593  42.240  13.335
54310W        W25926  13.205  11.853  12.484
54311W        W25927  35.890  26.915  14.048
54312W        W25928  39.725   1.819   1.221
54313W        W25929  24.077  23.683   2.778
54314W        W25930   0.396  11.405  11.889
54315W        W25931   4.128   6.834  13.881
54316W        W25932  33.031  31.229  12.504
54317W        W25933  18.671  18.898   1.196
54318W        W25934  16.734  35.141  13.523
54319W        W25935   6.075  30.210   4.529
54320W        W25936   0.941  21.978   4.482
54321W        W25937  38.853  18.163   4.837
54322W        W25938   6.346   0.355  10.703
54323W        W25939  34.026  21.978  14.590
54324W        W25940  38.995  32.441   1.330
54325W        W25941  42.008  37.990  10.282
54326W        W25942  33.820  41.826  10.788
54327W        W25943  19.242  14.516  12.498
54328W        W25944   8.162   7.435   1.732
54329W        W25945  36.858   3.818   3.613
54330W        W25946  11.138  34.559   1.205
54331W        W25947  35.510  36.648   4.162
54332W        W25948   6.097  27.081   1.633
54333W        W25949  15.070  15.917   3.710
54334W        W25950  14.504  25.884   2.262
54335W        W25951  41.297   0.813   3.156
54336W        W25952  24.780  15.536  11.990
54337W        W25953  35.428  25.217  12.403
54338W        W25954  42.347  38.384  11.543
54339W        W25955  24.353  16.295  13.006
54340W        W25956   3.273   1.054   3.635
54341W        W25957  38.115   9.918   9.963
54342W        W25958  44.926   8.112  13.515
54343W        W25959   1.342  14.931   2.265
54344W        W25960  27.129  14.644  14.821
54345W        W25961  36.242  10.954   9.715
54346W        W25962  38.572  42.939  14.138
54347W        W25963  16.113  16.819   4.214
54348W        W25964  20.328   9.446  11.961
54349W        W25965  33.640   9.536  11.262
54350W        W25966  33.258   3.280   0.604
54351W        W25967  36.010  44.520   4.878
54352W        W25968   6.274   1.647  14.311
54353W        W25969  23.884   3.528   4.960
54354W        W25970  22.701   4.882  12.469
54355W        W25971  29.303  26.322   4.534
54356W        W25972  39.423   7.374  11.149
54357W        W25973  34.277  31.424  12.060
54358W        W25974  17.084  21.159   3.213
54359W        W25975  32.610   5.180   3.217
54360W        W25976  13.443   4.374  12.523
54361W        W25977  25.680   1.979   0.999
54362W        W25978  23.039  21.924  13.154
54363W        W25979   7.578   0.383  10.616
54364W        W25980  22.618  11.742  11.692
54365W        W25981  18.633   9.663  12.058
54366W        W25982  33.030  35.085   1.225
54367W        W25983  40.688   0.159   0.908
54368W        W25984   3.711  21.052   3.142
54369W        W25985  13.620   3.985  12.223
54370W        W25986  24.066  10.844  13.271
54371W        W25987  39.865  43.392   0.804
54372W        W25988  35.281  14.139   0.264
54373W        W25989   2.349  37.052   3.956
54374W        W25990  41.853  13.884   1.795
54375W        W25991   5.276  39.977  12.357
54376W        W25992  34.649  27.562   1.709
54377W        W25993  16.353  22.630  13.192
54378W        W25994  28.408  33.083  13.424
54379W        W25995   4.286  19.597   0.072
54380W        W25996  35.487  42.563   0.801
54381W        W25997  12.870   5.536  10.673
54382W        W25998   3.026  27.131  14.859
54383W        W25999  36.021   9.646   3.163
54384W        W26000   0.252  41.778  12.565
54385W        W26001  33.119  29.267  11.510
54386W        W26002   9.907   0.197   1.867
54387W        W26003  37.129  14.387  14.329
54388W        W26004  28.131  35.682  13.916
54389W        W26005  23.037  41.166   2.290
54390W        W26006  15.839  25.922  12.632
54391W        W26007  17.067  18.086  14.863
54392W        W26008   1.929   0.519   1.434
54393W        W26009  36.596  11.390   5.556
54394W        W26010  24.650  15.864  12.343
54395W        W26011  31.450   9.546  13.429
54396W        W26012  25.140  31.714  11.979
54397W        W26013   9.184  32.915   4.156
54398W        W26014  22.111  22.916   2.811
54399W        W26015   8.141  12.663  11.594
54400W        W26016  13.184  28.986  12.047
54401W        W26017  32.423   6.364  11.321
54402W        W26018  40.868  26.177   1.271
54403W        W26019  23.062  39.625   4.478
54404W        W26020  19.636  42.785   1.207
54405W        W26021  37.309  10.127  14.423
54406W        W26022  44.937  33.101  13.488
54407W        W26023  19.840  22.545  13.058
54408W        W26024  17.767  31.924  12.007
54409W        W26025  28.118   9.382  11.918
54410W        W26026  25.593  31.877   4.825
54411W        W26027   1.480  38.266   1.376
54412W        W26028   5.937  38.610   4.551
54413W        W26029  12.303   8.082   3.273
54414W        W26030  22.118  34.462  13.595
54415W        W26031  25.627  15.530   3.737
54416W        W26032  23.172  13.794   1.814
54417W        W26033  10.651  30.483   4.784
54418W        W26034  35.803  30.856  14.701
54419W        W26035   1.910  13.906  10.579
54420W        W26036   7.439  30.250   0.067
54421W        W26037   3.921  16.524  12.415
54422W        W26038  36.058  29.602  13.820
54423W        W26039  20.347   4.263   2.792
54424W        W26040  41.655  36.007   2.052
54425W        W26041  39.357  35.452  10.639
54426W        W26042  17.815   1.332   3.269
54427W        W26043  36.343  14.988  14.041
54428W        W26044   2.985   5.401  13.403
54429W        W26045  12.577   5.744   0.904
54430W        W26046  28.516   6.371  13.500
54431W        W26047  13.309   2.540   5.120
54432W        W26048  38.573  14.769   3.507
54433W        W26049  32.687  44.019   1.395
54434W        W26050  44.931  23.967  11.873
54435W        W26051  22.683  22.932  12.497
54436W        W26052  30.730   0.556  14.414
54437W        W26053  31.577   8.401   2.923
54438W        W26054  43.324  40.338   0.782
54439W        W26055   9.378  33.042   2.740
54440W        W26056   3.287  19.364  12.611
54441W        W26057  36.204  16.809  12.989
54442W        W26058  27.589  37.765   2.751
54443W        W26059  12.616  16.244   2.223
54444W        W26060  12.848  38.461   3.199
54445W        W26061   6.918   3.717  14.696
54446W        W26062  19.169   5.257   1.961
54447W        W26063  14.565  43.058   4.069
54448W        W26064  37.164  37.049   4.360
54449W        W26065  14.172   4.628   2.883
54450W        W26066  18.749  11.262   4.478
54451W        W26067   3.792  19.607  12.079
54452W        W26068  34.664  42.233   1.311
54453W        W26069  20.092   3.477  13.327
54454W        W26070  26.541  15.888  10.551
54455W        W26071  31.181  23.099  12.928
54456W        W26072   6.918  40.465  12.392
54457W        W26073  39.261  19.559   1.769
54458W        W26074  23.055  27.943  14.815
54459W        W26075  28.568  33.028   4.510
54460W        W26076  30.360  40.420   4.207
54461W        W26077  37.915  19.377  14.315
54462W        W26078  32.988  29.901  12.051
54463W        W26079  10.046  28.099   2.166
54464W        W26080  34.608   3.853  12.089
54465W        W26081  17.150   5.677  11.828
54466W        W26082  16.082  29.232   2.725
54467W        W26083   8.110  28.670   4.259
54468W        W26084  44.917  11.213  11.928
54469W        W26085   0.587  38.537  12.943
54470W        W26086  38.012   5.199   1.211
54471W        W26087   8.376  19.153  14.823
54472W        W26088  31.281  35.104   1.617
54473W        W26089  13.786  14.258   2.356
54474W        W26090  18.620  41.425  10.650
54475W        W26091  19.280  15.796  14.335
54476W        W26092  39.905  41.928  14.884
54477W        W26093  28.660   1.745   4.724
54478W        W26094  20.356  44.002   0.305
54479W        W26095  35.302  13.414   2.299
54480W        W26096   3.040  36.370   1.755
54481W        W26097  17.795  30.674  11.588
54482W        W26098  37.032   9.361  10.620
54483W        W26099  43.848   4.934   1.739
54484W        W26100  29.836  13.364   4.547
54485W        W26101   9.643  25.301  13.759
54486W        W26102  44.817  35.870  11.982
54487W        W26103  35.810  29.021  14.181
54488W        W26104  12.666  22.511   4.352
54489W        W26105  20.033  14.243   0.698
54490W        W26106   8.923  29.758  11.276
54491W        W26107  34.028  11.873  11.258
54492W        W26108  26.324   3.101  12.440
54493W        W26109  20.167   7.603  14.947
54494W        W26110   0.948  31.473   3.206
54495W        W26111  21.061  43.760  11.536
54496W        W26112  19.760   0.928  13.892
54497W        W26113  22.121  31.183   2.346
54498W        W26114   2.190   2.702   0.862
54499W        W26115   1.305  20.703   1.898
54500W        W26116  32.590  13.650   2.440
54501W        W26117  17.582  41.754   3.959
54502W        W26118  16.774  34.602  11.617
54503W        W26119  33.064  41.037  14.956
54504W        W26120  34.007   1.638  10.605
54505W        W26121  31.343  20.572  13.513
54506W        W26122  14.379  20.462  11.107
54507W        W26123  21.308  25.730  12.169
54508W        W26124   0.315  14.357  12.224
54509W        W26125  16.128  33.450  13.992
54510W        W26126  34.603   1.648   4.965
54511W        W26127  11.021   4.021   2.788
54512W        W26128  14.781   7.664   1.882
54513W        W26129  37.858  11.254  12.888
54514W        W26130  41.577  27.442   0.712
54515W        W26131   4.055  36.047  14.272
54516W        W26132  19.104  41.993   2.223
54517W        W26133   4.776   1.736   0.898
54518W        W26134   4.947  23.565  12.161
54519W        W26135  34.641  19.374   4.599
54520W        W26136  28.508  21.175  12.924
54521W        W26137  40.934  11.937   3.710
54522W        W26138  28.867  34.484   3.768
54523W        W26139  28.210  35.511  12.123
54524W        W26140  32.188  35.458  14.526
54525W        W26141  41.939   3.184  14.729
54526W        W26142  18.032  15.103   2.356
54527W        W26143   3.372  17.830   0.930
54528W        W26144  14.603  16.508   0.653
54529W        W26145  26.130   2.006   0.273
54530W        W26146  22.139   3.539  11.511
54531W        W26147   4.601   8.929  12.209
54532W        W26148   1.497  10.147  12.157
54533W        W26149  12.495  25.095  14.189
54534W        W26150  27.304  28.933   3.371
54535W        W26151  28.861  18.516   1.734
54536W        W26152  13.154  11.333  14.710
54537W        W26153  10.883   4.178  13.121
54538W        W26154  13.196  39.592   2.766
54539W        W26155  11.064  36.609   2.733
54540W        W26156  20.045  30.291  14.784
54541W        W26157  12.620  35.343  14.094
54542W        W26158   5.050  33.947  11.185
54543W        W26159  32.392   7.890  11.369
54544W        W26160  20.744   9.317   0.766
54545W        W26161  22.023  28.720  11.114
54546W        W26162   3.480  12.232  14.032
54547W        W26163  29.543  40.011  13.432
54548W        W26164  14.779  37.055   4.144
54549W        W26165   1.228  12.322  12.129
54550W        W26166  41.658   6.037   4.354
54551W        W26167  15.025  21.827  12.038
54552W        W26168  31.978  13.026   0.384
54553W        W26169  32.527   3.808   3.267
54554W        W26170  44.806  34.358   1.352
54555W        W26171  20.551  18.707  10.485
54556W        W26172  18.070  25.957  11.962
54557W        W26173  15.607  24.591   1.211
54558W        W26174   8.802  22.647   0.452
54559W        W26175  13.732  14.866   1.880
54560W        W26176   6.662  14.491   0.032
54561W        W26177  41.960  25.703  13.822
54562W        W26178  25.491  35.956   4.615
54563W        W26179  37.948  21.857  14.514
54564W        W26180  38.762  12.357   4.811
54565W        W26181  11.419   3.950  13.850
54566W        W26182  15.222   8.813  14.504
54567W        W26183  28.138   8.401   4.989
54568W        W26184  33.737   7.801   4.276
54569W        W26185  25.710  32.981   3.284
54570W        W26186  10.427  26.066  14.384
54571W        W26187  39.053  21.470   1.450
54572W        W26188   0.155  15.917   2.664
54573W        W26189  23.078  13.095   0.904
54574W        W26190  17.659  16.026  13.929
54575W        W26191   5.720  13.610   2.697
54576W        W26192  14.225  31.804  14.354
54577W        W26193   9.768   5.459  10.374
54578W        W26194  23.703   3.202  14.593
54579W        W26195   6.213  24.642   1.664
54580W        W26196  40.079  10.833  13.028
54581W        W26197  11.588  42.504   1.800
54582W        W26198  11.680  12.638   3.126
54583W        W26199  13.111   9.942  14.066
54584W        W26200   1.168  24.641  11.127
54585W        W26201  15.705  10.816   4.555
54586W        W26202  38.955   7.298  11.387
54587W        W26203  19.569   5.010   3.922
54588W        W26204  27.074  27.687   4.348
54589W        W26205  30.558  21.000   3.367
54590W        W26206  28.579  27.969   3.259
54591W        W26207  42.279  34.603   2.870
54592W        W26208  43.557  24.783  10.751
54593W        W26209   3.446  37.074   2.220
54594W        W26210  29.201  39.474  11.233
54595W        W26211   3.513  35.019  11.112
54596W        W26212  36.890  15.745   0.011
54597W        W26213   2.833  18.048  12.366
54598W        W26214  25.152  42.598  13.600
54599W        W26215   9.954  34.267  12.138
54600W        W26216  22.456   6.826  13.531
54601W        W26217  11.584  13.061  14.536
54602W        W26218  34.443  11.998   0.026
54603W        W26219   0.195   7.946   0.505
54604W        W26220  33.703   2.883  11.884
54605W        W26221   6.870  28.058   3.022
54606W        W26222  14.507  39.875  12.466
54607W        W26223   6.914  36.018   1.344
54608W        W26224  15.774  19.684  10.563
54609W        W26225  30.394  36.014  10.485
54610W        W26226   3.183  39.312  12.902
54611W        W26227  40.013  11.644  12.571
54612W        W26228  16.729  31.791   5.265
54613W        W26229   3.705  25.006  11.434
54614W        W26230  23.759  26.058   1.972
54615W        W26231   6.088   6.577  13.035
54616W        W26232  38.023  38.100   0.368
54617W        W26233  10.616  35.309   3.243
54618W        W26234  44.856   3.742   3.178
54619W        W26235  40.921   2.029   4.205
54620W        W26236   9.578  42.634   0.078
54621W        W26237  24.921  29.156  12.186
54622W        W26238  11.620  23.819  13.521
54623W        W26239   1.344  10.218   3.445
54624W        W26240  38.202  39.034  11.709
54625W        W26241  32.842  35.597  10.582
54626W        W26242  22.439   9.581   0.902
54627W        W26243  25.113  18.705   1.763
54628W        W26244  34.836  25.722  11.990
54629W        W26245  24.779  31.061   3.985
54630W        W26246   8.136  11.698   3.723
54631W        W26247  18.699  15.807   0.471
54632W        W26248   6.941   2.421  14.789
54633W        W26249  35.076  34.509  12.591
54634W        W26250   6.837  36.184  14.414
54635W        W26251   1.137   1.878   0.545
54636W        W26252  16.598  30.611   2.421
54637W        W26253  26.108   1.332   3.850
54638W        W26254   5.024  23.208  14.000
54639W        W26255  24.204  30.414   2.832
54640W        W26256   1.391  36.513  11.712
54641W        W26257   8.910  33.476   0.840
54642W        W26258  16.981   7.389  13.531
54643W        W26259   6.711   4.311  11.142
54644W        W26260  31.187  37.396   5.220
54645W        W26261  39.437   9.423   4.092
54646W        W26262  43.064  17.614  12.612
54647W        W26263   2.399  30.104  10.920
54648W        W26264  44.785  43.793   3.358
54649W        W26265  28.750  41.554  12.002
54650W        W26266  12.296  24.105   3.624
54651W        W26267  20.671   2.021  12.489
54652W        W26268   6.930  44.373  12.541
54653W        W26269  40.457  38.036   2.199
54654W        W26270  24.912   7.847  11.044
54655W        W26271   8.827  44.748   2.745
54656W        W26272  21.907  37.118   3.696
54657W        W26273  44.530  23.242  10.733
54658W        W26274  38.300   7.716  13.160
54659W        W26275   9.709  44.229  10.815
54660W        W26276  38.684  16.620   3.723
54661W        W26277  42.543  38.566  12.062
54662W        W26278   0.256  12.848   4.076
54663W        W26279  28.511  28.546  10.635
54664W        W26280  36.280  31.678  14.944
54665W        W26281   1.853  44.066   9.874
54666W        W26282  34.943  39.167  12.397
54667W        W26283  44.829  14.020   3.584
54668W        W26284  24.004  26.712   3.197
54669W        W26285   5.945  24.218  12.160
54670W        W26286  35.452  22.608   4.635
54671W        W26287  42.459  20.248   3.745
54672W        W26288  38.665   1.908   0.324
54673W        W26289  41.921  34.835  13.449
54674W        W26290   1.295   7.323   2.614
54675W        W26291  24.581  27.296   1.410
54676W        W26292  38.260  26.598  13.783
54677W        W26293  25.039  41.167  13.554
54678W        W26294  12.119  41.700  14.250
54679W        W26295  27.747   1.922  10.726
54680W        W26296  43.433  34.595  10.207
54681W        W26297  26.206   1.313   1.099
54682W        W26298  28.042   6.926  12.554
54683W        W26299  14.853   5.272   1.511
54684W        W26300  40.868  32.785   4.668
54685W        W26301  28.950   3.780   0.258
54686W        W26302  42.021  42.535  13.526
54687W        W26303  36.051  11.943  14.410
54688W        W26304  22.172  31.762  11.781
54689W        W26305  38.950  37.139   0.208
54690W        W26306  30.409  41.300  14.457
54691W        W26307  21.609  44.517   2.444
54692W        W26308  12.175  31.304  14.243
54693W        W26309  34.333  26.018   1.742
54694W        W26310  19.489  25.437  11.130
54695W        W26311  35.974   6.431  11.900
54696W        W26312  11.624  10.718  14.329
54697W        W26313  38.006  44.474  13.024
54698W        W26314  35.053  24.693   5.107
54699W        W26315   9.816  12.381  14.820
54700W        W26316  33.622  36.836   4.641
54701W        W26317   2.733  37.400   3.177
54702W        W26318   5.669  23.255  13.379
54703W        W26319  43.930  18.007   1.193
54704W        W26320  19.581   8.690   0.817
54705W        W26321  10.083  39.143  12.999
54706W        W26322   6.780  39.078  12.403
54707W        W26323  33.596  37.332   1.059
54708W        W26324  18.799   0.849  11.194
54709W        W26325  39.984  17.701  14.714
54710W        W26326   6.884  14.583  14.406
54711W        W26327  39.742   4.811  12.958
54712W        W26328   6.266  36.266   4.647
54713W        W26329  20.132  20.066  13.887
54714W        W26330  18.641  44.194  12.423
54715W        W26331   3.792   7.169  11.636
54716W        W26332  36.442  19.133   2.960
54717W        W26333  27.341  15.834   0.108
54718W        W26334  19.141  38.948  12.986
54719W        W26335  38.799  15.987   2.380
54720W        W26336  35.481  24.247  14.536
54721W        W26337  23.490  24.956  11.587
54722W        W26338   8.587  40.135   1.383
54723W        W26339   2.707  44.387  13.073
54724W        W26340  31.427  43.139   2.597
54725W        W26341  43.081  27.154  14.840
54726W        W26342  23.160  24.072   1.849
54727W        W26343  17.234   6.643  11.982
54728W        W26344  17.040  41.334   2.748
54729W        W26345  24.603  20.113  11.177
54730W        W26346   5.311  21.194  12.482
54731W        W26347  37.397  27.226  14.031
54732W        W26348  39.993  26.259  12.798
54733W        W26349  20.017   7.111  10.969
54734W        W26350  29.442  35.803   2.767
54735W        W26351   7.954  42.786   3.233
54736W        W26352   5.436  33.110  11.669
54737W        W26353  38.959  13.685   5.382
54738W        W26354  27.692  36.010   2.385
54739W        W26355  35.995  15.539   3.402
54740W        W26356   7.477  28.847   4.909
54741W        W26357   3.332  26.652  13.156
54742W        W26358   7.171  37.962   4.875
54743W        W26359  26.818  11.208   2.149
54744W        W26360  31.528  39.899  14.820
54745W        W26361  17.701  13.716   4.374
54746W        W26362  17.098  24.237  11.009
54747W        W26363  25.485  28.988   3.243
54748W        W26364  22.823  33.893  12.848
54749W        W26365  24.483  32.842   3.611
54750W        W26366  17.229  22.992  14.546
54751W        W26367  42.335  41.902  13.582
54752W        W26368  10.099   2.765  14.904
54753W        W26369   6.746  13.889   3.447
54754W        W26370  22.874  19.516   4.461
54755W        W26371  38.944   9.180   3.232
54756W        W26372  39.867  44.217  13.245
54757W        W26373   1.416  39.519  10.669
54758W        W26374  33.684  29.480   4.149
54759W        W26375   5.626  26.735   0.486
54760W        W26376  27.182  31.196  14.035
54761W        W26377  26.193  31.819   3.289
54762W        W26378  21.821  13.606  14.858
54763W        W26379  26.551  23.394  14.476
54764W        W26380  31.626  19.123  10.644
54765W        W26381  21.223   3.773   4.426
54766W        W26382  42.929  44.837   4.540
54767W        W26383  28.680  27.583  10.626
54768W        W26384  41.811  12.829  11.653
54769W        W26385  22.066  25.452  13.439
54770W        W26386  28.998  31.196   2.898
54771W        W26387  33.881  44.274   0.888
54772W        W26388   9.868  36.943  13.108
54773W        W26389  15.868  23.825   0.135
54774W        W26390  35.942  36.074  10.953
54775W        W26391  26.001  34.021  12.539
54776W        W26392  13.564  23.252  12.886
54777W        W26393  19.887  39.124  14.420
54778W        W26394  12.754   7.448   0.010
54779W        W26395  33.933  38.912  13.803
54780W        W26396  31.068   3.367  12.529
54781W        W26397   7.222  10.224   0.679
54782W        W26398  27.048   1.287  13.789
54783W        W26399  18.254  29.217   3.823
54784W        W26400  42.490  28.920   1.175
54785W        W26401  18.658  34.208   3.942
54786W        W26402  23.157  34.904   0.997
54787W        W26403  20.728  39.220  11.971
54788W        W26404   0.905  33.583   3.633
54789W        W26405   2.768  22.826   2.363
54790W        W26406  25.553  34.996   1.228
54791W        W26407  31.786   3.464   4.282
54792W        W26408  28.197  44.969   5.068
54793W        W26409   2.567  12.149  13.629
54794W        W26410  20.047  27.286  12.024
54795W        W26411  16.674  13.141   0.072
54796W        W26412  31.095  16.782  11.193
54797W        W26413   7.157  12.684  13.820
54798W        W26414   6.801   3.651  12.113
54799W        W26415  15.377  27.999   2.342
54800W        W26416  41.017  29.376   4.210
54801W        W26417  39.484  13.302  11.929
54802W        W26418   0.714  20.153  10.715
54803W        W26419  21.047  15.118   3.178
54804W        W26420  25.575   4.881  11.765
54805W        W26421  36.298  44.839  13.473
54806W        W26422   9.426  23.207   3.189
54807W        W26423  35.897  26.945   3.118
54808W        W26424  42.889  18.347   3.270
54809W        W26425   0.967  32.054   4.656
54810W        W26426   7.847   1.823   0.760
54811W        W26427  42.344  34.867  10.879
54812W        W26428  34.223  42.986  13.045
54813W        W26429   0.724  14.800  14.049
54814W        W26430  22.717   8.895   3.661
54815W        W26431  34.683  42.499   4.031
54816W        W26432  16.861  31.121   1.174
54817W        W26433  26.375   1.379   2.158
54818W        W26434   4.415   2.822  14.911
54819W        W26435  41.960   4.256  11.024
54820W        W26436  35.400  22.263   1.021
54821W        W26437  16.607  26.138  13.371
54822W        W26438  28.093  15.860   4.195
54823W        W26439  44.652  19.061  14.259
54824W        W26440  16.623  26.141   4.302
54825W        W26441  29.426  39.125   2.864
54826W        W26442   9.166   9.427   1.462
54827W        W26443   8.503  37.149   0.369
54828W        W26444  10.853   2.415  13.345
54829W        W26445  20.055   5.235   1.915
54830W        W26446  27.685   3.761   1.558
54831W        W26447  22.889  15.858   3.399
54832W        W26448   8.530   1.913  11.181
54833W        W26449  22.519  39.964   1.393
54834W        W26450   9.856  29.418  13.986
54835W        W26451  14.953  19.350   5.435
54836W        W26452  34.226  22.326  11.729
54837W        W26453  20.836  11.895  11.957
54838W        W26454   9.610  24.062   2.828
54839W        W26455  31.047  24.243  10.696
54840W        W26456   1.800   7.901  11.078
54841W        W26457  40.906  26.687   1.436
54842W        W26458  25.100  31.446   1.930
54843W        W26459  34.554  10.906  11.903
54844W        W26460  24.994  23.289  14.875
54845W        W26461   3.859   6.607   3.569
54846W        W26462   5.788  33.682   3.298
54847W        W26463   0.388  14.586  13.732
54848W        W26464   3.366  22.843   2.774
54849W        W26465  12.864  40.428   1.731
54850W        W26466  43.903   6.726   2.278
54851W        W26467  37.881  27.643  14.840
54852W        W26468   6.174  32.109  12.801
54853W        W26469   7.630  19.622   4.570
54854W        W26470  31.699  11.704  11.483
54855W        W26471  38.124  11.846   1.444
54856W        W26472  32.491  33.420  12.042
54857W        W26473  24.654  11.564   4.324
54858W        W26474  31.971  39.326   4.590
54859W        W26475  18.774  12.843  14.264
54860W        W26476  27.201   8.285  13.154
54861W        W26477  40.712  36.749  14.933
54862W        W26478  44.493   2.388   3.448
54863W        W26479   8.746  11.125  10.701
54864W        W26480  18.081  40.095   3.679
54865W        W26481  35.965  24.074   0.909
54866W        W26482  41.607  24.241   4.232
54867W        W26483  29.517  28.653   4.219
54868W        W26484   6.443  44.669   4.152
54869W        W26485   3.779  13.291   4.592
54870W        W26486  25.314  31.578   1.462
54871W        W26487  29.687  38.867   1.875
54872W        W26488   6.644  23.433   2.797
54873W        W26489   0.320  14.817  10.295
54874W        W26490  14.073  31.902  12.055
54875W        W26491  43.382  41.289   4.467
54876W        W26492  10.462  32.438  11.664
54877W        W26493  15.632  11.176  14.372
54878W        W26494  29.170   4.833   2.673
54879W        W26495  20.583  27.103  13.968
54880W        W26496  17.120   3.336  13.862
54881W        W26497  22.015  12.193   4.557
54882W        W26498  22.424  36.431  12.824
54883W        W26499  44.451  43.828  14.914
54884W        W26500  17.301  31.502  13.251
54885W        W26501   3.442  18.547  11.984
54886W        W26502  33.624  23.016  11.458
54887W        W26503  11.224  40.221   3.884
54888W        W26504  10.921  33.975  11.146
54889W        W26505  44.658  16.470   3.731
54890W        W26506  40.057  32.382  12.982
54891W        W26507   9.454   3.838  14.985
54892W        W26508  30.232  31.083   2.336
54893W        W26509  23.058  16.550  10.754
54894W        W26510  14.406  42.528  10.816
54895W        W26511  38.074  29.157   2.717
54896W        W26512  16.151   8.337   2.636
54897W        W26513  21.082  24.923   1.383
54898W        W26514   3.708  12.180   0.315
54899W        W26515  35.982   6.314  12.395
54900W        W26516   8.636  37.612  12.035
54901W        W26517  21.196  27.985  13.415
54902W        W26518   4.898  29.880   0.427
54903W        W26519  39.354  40.353  12.409
54904W        W26520   1.304  35.312   0.258
54905W        W26521   8.670  20.255  11.430
54906W        W26522   5.682  28.015  13.736
54907W        W26523  16.045  35.622  14.255
54908W        W26524   2.368  24.763  10.262
54909W        W26525  36.380  39.017  12.426
54910W        W26526   1.752  14.548  12.549
54911W        W26527  25.456   4.852   2.278
54912W        W26528  15.011   6.271  12.313
54913W        W26529   7.775   4.426  13.134
54914W        W26530  43.580  38.800  13.262
54915W        W26531  43.257  39.899   4.050
54916W        W26532  33.033  25.186   1.455
54917W        W26533  38.555  32.210  14.847
54918W        W26534  42.057  23.089  11.799
54919W        W26535  40.519  25.231  12.934
54920W        W26536  34.666  37.521   4.007
54921W        W26537  23.638   3.321   2.900
54922W        W26538  17.429  21.843   1.956
54923W        W26539  25.035   1.450   4.613
54924W        W26540  23.521  16.664   4.057
54925W        W26541  22.222  17.306  12.998
54926W        W26542  29.700  19.592  10.664
54927W        W26543  19.929   2.730  13.938
54928W        W26544   3.022  21.259  11.716
54929W        W26545  33.998  24.101   4.505
54930W        W26546  11.720  43.229  13.463
54931W        W26547   0.796   2.536   2.700
54932W        W26548   8.906   9.126   1.798
54933W        W26549  19.144  17.325  13.471
54934W        W26550  44.239  35.283  11.695
54935W        W26551  21.739   0.437  13.713
54936W        W26552  16.698   7.782   3.620
54937W        W26553   0.005  24.238   5.589
54938W        W26554  15.453   9.090   3.295
54939W        W26555  35.095   9.914   0.787
54940W        W26556  40.310   8.221   2.215
54941W        W26557  28.679   1.581  14.356
54942W        W26558  44.991   5.704   4.116
54943W        W26559   8.386  16.674  12.803
54944W        W26560   5.876  11.048   2.656
54945W        W26561  14.132  20.151   3.846
54946W        W26562  24.864  17.579   3.336
54947W        W26563   3.877  13.459  12.695
54948W        W26564  28.084   9.134  12.915
54949W        W26565  38.765  38.538  11.598
54950W        W26566  29.921  24.989  10.884
54951W        W26567  23.223  29.471   0.731
54952W        W26568  11.130  15.343  10.853
54953W        W26569  19.728   5.620  13.016
54954W        W26570  30.002  28.800   4.113
54955W        W26571  43.871  42.304   0.258
54956W        W26572  29.013  18.615   2.215
54957W        W26573  13.336   9.703  10.638
54958W        W26574  37.563  37.638  12.182
54959W        W26575   7.975  13.515  11.100
54960W        W26576  42.454  20.681  10.567
54961W        W26577  32.542  20.602  13.168
54962W        W26578  22.217  13.843   3.748
54963W        W26579   8.112   4.806  13.947
54964W        W26580  35.400  10.310  14.777
54965W        W26581  17.969  40.598   3.741
54966W        W26582  38.495  14.293  11.113
54967W        W26583   8.605  40.720   3.642
54968W        W26584  44.421  39.723  12.502
54969W        W26585  26.922  17.384   0.399
54970W        W26586  41.331   9.387   3.440
54971W        W26587   4.197  15.083  12.943
54972W        W26588  25.382  26.152  13.562
54973W        W26589   9.180  30.400  11.460
54974W        W26590  39.445  43.870  12.768
54975W        W26591  30.932  15.984   1.531
54976W        W26592  11.266  24.030  10.510
54977W        W26593  37.263  22.468   3.632
54978W        W26594  11.551  38.401  11.615
54979W        W26595  36.363  27.054   3.644
54980W        W26596   9.717  22.944   4.540
54981W        W26597   3.178   1.525   2.688
54982W        W26598  18.053  43.847   0.479
54983W        W26599  24.695  36.951  14.375
54984W        W26600   4.433  41.587  12.453
54985W        W26601  18.559  39.867   1.874
54986W        W26602   2.031  28.357   4.224
54987W        W26603  13.655  19.552   3.222
54988W        W26604  19.190  19.724   3.280
54989W        W26605  30.203  32.596  14.451
54990W        W26606   7.941  29.591   0.002
54991W        W26607  22.905  16.559  11.665
54992W        W26608  24.390  33.190   1.804
54993W        W26609   6.832  24.468  12.652
54994W        W26610   6.133  38.784   0.956
54995W        W26611  43.317  26.078  11.044
54996W        W26612  18.239  36.827  12.035
54997W        W26613   1.394  18.820  13.423
54998W        W26614   9.808  13.113  13.816
54999W        W26615  21.754  34.044   2.395
55000W        W26616  36.865  32.706  11.196
55001W        W26617  10.091  35.038  13.439
55002W        W26618  17.510  43.708  12.467
55003W        W26619  42.623  39.201   2.525
55004W        W26620  26.723  12.748   4.614
55005W        W26621  29.822  22.915   0.717
55006W        W26622   9.268   0.811   4.635
55007W        W26623  34.855   7.444   3.751
55008W        W26624   8.323  23.799  13.064
55009W        W26625   8.376  36.760   0.745
55010W        W26626  38.339   3.144  11.174
55011W        W26627   2.565  30.013  14.018
55012W        W26628   6.967  25.575   3.832
55013W        W26629  31.717  32.858   1.417
55014W        W26630  26.677  30.072   2.696
55015W        W26631  25.560   5.694   1.620
55016W        W26632   3.323   0.548   3.675
55017W        W26633   2.236  40.899   2.231
55018W        W26634   8.337   3.304   2.104
55019W        W26635  10.163   5.461   3.074
55020W        W26636  22.592  37.637   1.823
55021W        W26637  36.233  28.751   4.158
55022W        W26638   9.110   3.397   2.777
55023W        W26639  22.299  43.501   2.825
55024W        W26640  35.952  43.298   1.616
55025W        W26641  11.717  27.180   3.460
55026W        W26642  40.052  32.779   2.719
55027W        W26643  37.908  32.430   0.064
55028W        W26644  22.921   3.926  14.778
55029W        W26645  20.938  11.504   0.317
55030W        W26646  24.907   3.888  10.778
55031W        W26647  31.434   1.031   5.110
55032W        W26648  37.376  14.328  14.819
55033W        W26649  23.209  22.161  11.587
55034W        W26650  37.126  14.043   3.280
55035W        W26651  31.483  16.337   3.990
55036W        W26652  43.910  38.194   9.800
55037W        W26653  38.033  27.324   2.875
55038W        W26654   4.895  32.138  11.678
55039W        W26655   8.977  28.270   2.123
55040W        W26656   7.153  34.463   1.457
55041W        W26657   8.413  40.819  14.347
55042W        W26658  39.422   3.800   3.595
55043W        W26659  40.788   4.330  10.977
55044W        W26660  22.883  10.300  12.538
55045W        W26661  12.678   7.069  10.464
55046W        W26662  37.340  42.464   2.835
55047W        W26663   9.725   9.593  11.367
55048W        W26664  26.985  16.071  10.269
55049W        W26665   7.890   9.262  11.903
55050W        W26666  44.317  31.506   3.844
55051W        W26667  39.934   4.145  11.573
55052W        W26668   1.329   7.281  11.626
55053W        W26669  26.702  19.180   3.270
55054W        W26670  19.531   7.320  10.737
55055W        W26671  21.948  34.881  12.556
55056W        W26672  42.513  34.486  12.341
55057W        W26673  23.295  16.709   2.768
55058W        W26674  27.452   7.839  11.068
55059W        W26675  39.855  43.100   2.635
55060W        W26676  40.928  21.243  14.955
55061W        W26677   9.897  13.776   0.937
55062W        W26678  29.073  13.857   0.594
55063W        W26679  27.134  43.026  10.979
55064W        W26680  23.698   4.414   3.678
55065W        W26681  20.195  44.404  12.394
55066W        W26682  41.813  19.763  11.216
55067W        W26683  28.048  29.928   2.344
55068W        W26684  43.437  30.876  14.210
55069W        W26685   3.082  20.502   3.141
55070W        W26686  18.621  42.171  12.367
55071W        W26687   9.587  11.627   3.702
55072W        W26688  29.591  15.513  10.039
55073W        W26689  12.067  22.143  14.588
55074W        W26690   9.861   1.622   1.735
55075W        W26691  33.506  31.418   3.087
55076W        W26692   3.360  20.690   1.203
55077W        W26693  18.278   0.088   5.158
55078W        W26694   7.975  29.354  11.122
55079W        W26695  12.038  29.951  13.444
55080W        W26696  33.035  39.632   1.761
55081W        W26697  35.017  26.673   3.259
55082W        W26698   0.457  38.329  12.470
55083W        W26699  41.465  44.675   2.785
55084W        W26700   8.403   9.939   4.587
55085W        W26701  14.094  41.982   2.857
55086W        W26702   0.403  20.545   2.203
55087W        W26703  26.831   3.481  13.556
55088W        W26704  30.547  25.590   5.010
55089W        W26705  10.614   2.323   4.763
55090W        W26706  39.354  24.583   1.830
55091W        W26707  44.198  17.565   0.873
55092W        W26708  21.001  21.069   2.297
55093W        W26709  12.125   4.897   1.229
55094W        W26710  24.225  14.354  11.481
55095W        W26711   1.345  37.638  13.907
55096W        W26712   4.741  41.287  13.441
55097W        W26713  25.568   9.399   1.436
55098W        W26714  33.959  35.081   4.816
55099W        W26715  15.008  24.726  11.206
55100W        W26716  23.643  30.997  13.940
55101W        W26717  32.592  28.202  14.993
55102W        W26718  27.223  27.072  12.388
55103W        W26719  25.194  26.964  14.395
55104W        W26720   9.844  30.317   0.970
55105W        W26721  30.519   9.326  13.786
55106W        W26722  40.462  38.444  11.950
55107W        W26723  31.283   8.713   2.651
55108W        W26724   2.397   3.232   0.801
55109W        W26725  16.355  38.430  12.513
55110W        W26726  22.824  20.526   3.287
55111W        W26727  36.163  40.396  11.103
55112W        W26728  31.326  18.282  12.079
55113W        W26729  17.073   8.865   4.635
55114W        W26730  22.854  13.219  10.302
55115W        W26731  23.761  24.717   2.296
55116W        W26732  14.582   9.861   4.566
55117W        W26733  27.863   6.240   3.385
55118W        W26734  16.310  16.515  11.216
55119W        W26735  29.019  22.528  13.867
55120W        W26736   3.213  38.374  13.949
55121W        W26737   5.547  23.690   3.327
55122W        W26738  18.563  20.645   2.519
55123W        W26739  20.646  15.498  11.571
55124W        W26740  41.141  26.026  11.303
55125W        W26741  11.425   1.790   0.418
55126W        W26742  31.917  26.092  12.033
55127W        W26743  35.520  13.580  10.614
55128W        W26744  39.816  12.214   1.936
55129W        W26745  43.037  28.039  13.016
55130W        W26746  15.490  26.685  12.518
55131W        W26747   5.943  13.804  13.797
55132W        W26748   9.411  20.328   1.891
55133W        W26749   3.175  29.675  11.078
55134W        W26750   7.281  20.257  11.994
55135W        W26751  42.505  17.035  13.642
55136W        W26752  12.371  10.375  12.040
55137W        W26753  30.093  13.954   0.224
55138W        W26754  41.767  10.589  11.664
55139W        W26755   3.166   2.500   2.783
55140W        W26756  31.449  25.731   1.927
55141W        W26757  28.174   2.288   1.913
55142W        W26758   9.848  27.963  11.027
55143W        W26759   1.701  21.114   4.558
55144W        W26760  11.808  34.840   3.709
55145W        W26761   3.775  22.280   1.164
55146W        W26762  15.746  25.041   0.918
55147W        W26763  29.916  17.306  12.386
55148W        W26764   4.516  30.348   3.233
55149W        W26765  38.911  21.196   3.047
55150W        W26766  33.374  12.810   3.293
55151W        W26767  19.054  34.074   3.574
55152W        W26768  11.885  15.728   4.145
55153W        W26769  24.424  38.693   0.935
55154W        W26770  17.604  38.435   2.236
55155W        W26771  35.479  28.123   3.753
55156W        W26772  20.816  42.221  12.913
55157W        W26773  31.084   0.875  11.510
55158W        W26774  16.710  35.914  10.911
55159W        W26775   0.893  19.176   0.162
55160W        W26776  14.760  28.496  14.992
55161W        W26777  32.089  32.150  11.588
55162W        W26778   6.655   2.122   4.099
55163W        W26779  25.482  42.322  13.334
55164W        W26780  14.053  10.119   1.188
55165W        W26781   7.173  22.110  12.331
55166W        W26782  21.873  36.133   1.483
55167W        W26783   6.893  16.767  12.054
55168W        W26784  41.450  23.519  13.741
55169W        W26785  38.025  35.528  11.527
55170W        W26786  29.301  44.358  11.546
55171W        W26787  34.422  41.508   1.812
55172W        W26788   3.681  35.410  12.570
55173W        W26789   3.891  19.994  14.248
55174W        W26790  33.483  29.718   4.569
55175W        W26791  21.155   9.448  12.411
55176W        W26792  25.726  21.268  11.933
55177W        W26793  23.738  40.220   3.216
55178W        W26794  19.603  44.366   0.164
55179W        W26795  44.486  11.946   5.020
55180W        W26796  28.939   4.273   3.180
55181W        W26797  25.896  11.154  13.835
55182W        W26798  29.546  16.811   3.702
55183W        W26799  16.704  37.928   1.329
55184W        W26800  42.274   1.425  12.136
55185W        W26801  19.281  27.744   3.646
55186W        W26802  35.956  23.895   5.147
55187W        W26803  32.039   8.464  10.715
55188W        W26804   5.081   8.801  12.164
55189W        W26805  44.518   6.764  10.624
55190W        W26806  39.484  43.288   0.477
55191W        W26807  12.099  35.499  13.280
55192W        W26808  14.081  40.321   3.357
55193W        W26809  44.722  22.737   3.410
55194W        W26810  34.122  41.950   2.682
55195W        W26811  26.731   4.232  11.082
55196W        W26812  12.181   1.652   1.417
55197W        W26813  11.626  30.118   0.412
55198W        W26814  13.245  18.816   4.751
55199W        W26815  37.556  22.499   2.417
55200W        W26816  39.613   1.887  14.455
55201W        W26817  39.521  25.008  12.921
55202W        W26818   4.977  10.953  12.068
55203W        W26819  13.025  28.033   3.224
55204W        W26820  26.487  32.632   2.893
55205W        W26821   1.563  41.017  14.010
55206W        W26822   8.798  35.860   3.415
55207W        W26823  32.136  38.094   1.779
55208W        W26824  26.915  16.121   0.173
55209W        W26825   7.280  11.247  12.945
55210W        W26826   0.870   6.321   4.578
55211W        W26827  21.481   5.065  13.550
55212W        W26828  30.558  14.367   2.822
55213W        W26829  37.538   9.954  11.440
55214W        W26830   0.429  40.125   1.656
55215W        W26831  32.706  34.427   2.402
55216W        W26832  39.077   4.601  12.534
55217W        W26833  26.521  28.660   3.801
55218W        W26834   1.697  36.053  12.473
55219W        W26835  34.391  17.102   0.971
55220W        W26836   1.775  44.927   5.281
55221W        W26837  27.461  26.208   3.632
55222W        W26838  10.728  34.833  11.216
55223W        W26839   4.841  20.975  12.681
55224W        W26840  20.293  28.126  10.340
55225W        W26841  21.766  10.638  11.152
55226W        W26842   8.946  26.288  11.651
55227W        W26843  42.009  13.334  12.642
55228W        W26844  15.325  32.829  14.952
55229W        W26845  11.264   1.022  12.745
55230W        W26846  33.224   5.995  12.400
55231W        W26847   0.038  11.672  14.871
55232W        W26848  42.992  10.395  10.645
55233W        W26849  24.478   2.611  11.161
55234W        W26850  44.302  29.968  10.614
55235W        W26851  36.283   8.869  11.518
55236W        W26852  11.799  41.177   1.870
55237W        W26853   4.322  10.687   3.572
55238W        W26854  22.751  22.164   4.567
55239W        W26855  21.171  41.892   0.300
55240W        W26856  22.621  24.158   4.740
55241W        W26857  35.531  35.970  12.851
55242W        W26858  26.572  25.651  11.763
55243W        W26859   1.440  39.454   0.805
55244W        W26860  17.290  17.027  14.812
55245W        W26861   0.324  23.774  13.954
55246W        W26862   2.513  24.078   3.792
55247W        W26863  41.554  16.204  13.475
55248W        W26864   1.178  26.157   3.128
55249W        W26865   6.837  37.974   3.092
55250W        W26866  28.830  10.489  14.358
55251W        W26867  25.432  42.711   0.348
55252W        W26868   8.711  11.400  11.549
55253W        W26869  35.509   1.541   1.365
55254W        W26870  21.967  18.683   0.795
55255W        W26871   8.899  31.454   1.177
55256W        W26872  12.947   2.784   0.439
55257W        W26873  10.239  11.209   4.589
55258W        W26874  27.616  12.845  10.327
55259W        W26875  30.643   7.936  12.093
55260W        W26876   5.281   3.276  14.297
55261W        W26877  41.192  32.711  12.674
55262W        W26878  16.792  35.387  13.042
55263W        W26879  37.085  17.656  13.992
55264W        W26880  36.163   8.293  11.485
55265W        W26881  23.588  35.553   0.424
55266W        W26882   2.492  16.695   0.782
55267W        W26883  16.648  34.424  11.163
55268W        W26884  27.587   1.351  13.597
55269W        W26885   9.637  34.381   4.399
55270W        W26886  28.004  39.734  10.786
55271W        W26887  38.254  28.571  14.945
55272W        W26888  21.483  29.994   4.375
55273W        W26889  28.678  37.517   2.841
55274W        W26890   9.255  10.816   3.229
55275W        W26891  38.352  38.137  12.213
55276W        W26892  42.008   1.497   1.444
55277W        W26893  11.864  26.126   4.604
55278W        W26894  20.625  25.772  14.412
55279W        W26895  40.741   4.777   1.090
55280W        W26896   3.335  43.728   5.146
55281W        W26897   9.081  27.485   1.803
55282W        W26898   0.881  35.948   5.171
55283W        W26899  32.445   3.736   3.790
55284W        W26900  13.703  20.607   3.128
55285W        W26901  10.684  17.896  12.922
55286W        W26902   2.010  18.972   1.921
55287W        W26903  28.567  20.339  11.086
55288W        W26904  29.449  34.395  14.270
55289W        W26905   1.844  13.069  14.260
55290W        W26906  22.959  29.957  10.986
55291W        W26907   3.735   4.763  11.611
55292W        W26908  21.286  28.971   1.314
55293W        W26909  43.212  41.189   2.168
55294W        W26910  12.804  40.911   4.579
55295W        W26911   0.793  15.080   2.232
55296W        W26912  14.864  14.597  14.663
55297W        W26913  17.231  43.972  13.206
55298W        W26914   4.035   8.922   2.703
55299W        W26915  44.581  23.059   5.045
55300W        W26916  12.254  18.305   4.590
55301W        W26917   5.171   7.728   2.928
55302W        W26918  39.672  42.053  11.626
55303W        W26919  44.408   4.741  10.799
55304W        W26920  23.976  34.806  12.310
55305W        W26921  42.441   4.893   1.148
55306W        W26922  41.517  22.263  12.228
55307W        W26923   9.303  23.460  11.783
55308W        W26924  30.637  41.342   3.755
55309W        W26925   1.379  12.279  14.110
55310W        W26926   2.217  21.554  11.158
55311W        W26927   0.260  43.500  14.345
55312W        W26928  18.199  37.554  11.565
55313W        W26929  37.610  26.712  14.662
55314W        W26930  11.382  26.176   2.582
55315W        W26931  33.309  28.797  12.518
55316W        W26932   8.765  38.815  11.521
55317W        W26933   0.544  24.442   0.197
55318W        W26934  40.434  19.652  11.167
55319W        W26935  29.821   5.443   4.141
55320W        W26936  31.387   7.556   3.708
55321W        W26937  43.420  19.994  13.717
55322W        W26938  33.474  32.720  12.100
55323W        W26939  25.798  36.023  10.776
55324W        W26940  39.293  13.317  10.866
55325W        W26941  35.589  39.289   0.380
55326W        W26942  10.155  10.443   3.871
55327W        W26943  26.961  27.409   3.934
55328W        W26944  44.657  38.610   4.981
55329W        W26945  17.255   1.080   1.107
55330W        W26946  28.045  29.167  11.082
55331W        W26947  42.739  35.728  14.509
55332W        W26948  10.861   9.205   2.622
55333W        W26949  32.434  36.533   1.150
55334W        W26950  42.778  32.277   3.613
55335W        W26951  28.647  38.416   4.189
55336W        W26952  17.213  12.839  12.574
55337W        W26953  23.082  25.008   1.881
55338W        W26954  39.235  40.827   2.634
55339W        W26955  30.613   8.661   2.366
55340W        W26956  22.754  22.395   3.276
55341W        W26957  31.248  29.433   2.305
55342W        W26958  13.251  44.059   0.138
55343W        W26959  20.994   9.232   3.488
55344W        W26960  34.273   0.828   2.262
55345W        W26961  38.250  41.237   3.998
55346W        W26962  29.617  27.898   1.817
55347W        W26963  18.725   1.615  13.692
55348W        W26964  19.341  22.883   1.413
55349W        W26965  31.017  35.974   3.663
55350W        W26966  20.707  37.404   1.701
55351W        W26967  12.310   9.890   5.067
55352W        W26968  26.130  25.126   0.990
55353W        W26969  34.062  31.740   2.393
55354W        W26970  32.076  13.540   0.341
55355W        W26971  30.246  27.235   4.914
55356W        W26972  22.453  29.257  12.953
55357W        W26973  21.795  11.668   2.695
55358W        W26974  44.325  33.260  10.609
55359W        W26975  17.095  40.931  12.506
55360W        W26976  29.227  33.939  11.676
55361W        W26977  27.226  35.364   0.386
55362W        W26978   0.169  15.063   0.962
55363W        W26979   9.747  24.615  12.952
55364W        W26980  27.755  10.705   3.896
55365W        W26981  17.370  44.429   1.938
55366W        W26982  20.621  23.185   3.074
55367W        W26983  43.337   7.257   2.705
55368W        W26984  19.609  26.474   5.030
55369W        W26985   0.936  38.347  11.598
55370W        W26986   5.813  21.131   3.221
55371W        W26987   8.820  19.218  13.434
55372W        W26988  36.284   1.144  11.036
55373W        W26989  32.918  13.105  11.093
55374W        W26990  41.649  26.212  14.280
55375W        W26991  40.587   5.151   3.769
55376W        W26992  23.050  37.285   1.024
55377W        W26993  35.237  13.068  11.608
55378W        W26994  30.940   8.478   1.426
55379W        W26995  37.671   3.336  12.563
55380W        W26996   3.983   5.502   2.853
55381W        W26997  23.760  36.706   4.617
55382W        W26998  11.305   1.995  11.449
55383W        W26999  13.289  37.602   1.287
55384W        W27000  37.900  37.852  14.898
55385W        W27001  35.886  23.241  11.874
55386W        W27002   9.739  15.257   2.888
55387W        W27003  18.425  33.386  12.812
55388W        W27004  39.702  21.175   2.631
55389W        W27005  14.038   0.386   0.812
55390W        W27006  15.345  43.395   1.976
55391W        W27007  41.580  42.351   0.009
55392W        W27008  27.293  43.801  10.546
55393W        W27009  19.052   9.880   0.716
55394W        W27010  34.528  20.987   4.828
55395W        W27011  29.867  27.486   4.655
55396W        W27012  11.665  29.659  12.890
55397W        W27013  28.953  11.868  10.764
55398W        W27014  30.158  19.043  13.140
55399W        W27015  38.376  42.403   0.345
55400W        W27016  15.558  42.328  12.846
55401W        W27017  28.870  41.489  13.445
55402W        W27018  27.623  22.684   4.612
55403W        W27019  29.721  31.457   3.996
55404W        W27020  24.563   5.625  11.020
55405W        W27021  44.179  20.549   4.362
55406W        W27022  42.980  16.320  14.568
55407W        W27023  18.736  10.344   0.365
55408W        W27024   6.773  22.764  11.512
55409W        W27025   7.968  27.241   1.862
55410W        W27026   5.667  25.729  13.366
55411W        W27027  16.760  37.132   0.701
55412W        W27028  19.496   4.569  10.171
55413W        W27029  39.800  42.531   0.546
55414W        W27030  27.214   4.541   2.156
55415W        W27031  38.252   9.312   0.440
55416W        W27032   1.956  20.533  13.855
55417W        W27033  12.429  42.969   2.477
55418W        W27034  13.610  22.225   2.008
55419W        W27035  27.162  37.335  14.425
55420W        W27036  38.329  39.083   0.309
55421W        W27037   8.711  21.550   1.181
55422W        W27038   2.947  36.273   0.498
55423W        W27039  37.731   4.337   4.703
55424W        W27040   4.649  27.790   4.093
55425W        W27041  28.027  29.097  12.103
55426W        W27042  31.479  17.057  12.570
55427W        W27043  13.569  31.453   1.126
55428W        W27044  24.963  35.405  14.346
55429W        W27045  39.409  38.432   3.664
55430W        W27046  39.803  35.539  14.278
55431W        W27047  18.837   8.679   0.391
55432W        W27048  11.100  21.705  13.924
55433W        W27049   1.258  23.557  12.635
55434W        W27050  15.770  33.071  10.084
55435W        W27051  24.775  11.798   4.793
55436W        W27052  25.379  35.123  12.766
55437W        W27053  30.501  32.461   1.328
55438W        W27054  10.195   0.354   2.640
55439W        W27055   3.992  10.859   0.396
55440W        W27056  36.637  15.288   0.010
55441W        W27057  29.838  30.096  11.857
55442W        W27058  38.707  16.025   4.138
55443W        W27059  24.622  44.004  11.085
55444W        W27060  42.109  41.542   4.164
55445W        W27061  38.357  44.412  12.441
55446W        W27062  32.591  20.294   0.738
55447W        W27063  12.629  10.666  14.245
55448W        W27064  40.783  28.048   3.192
55449W        W27065  25.804  42.302  10.441
55450W        W27066  34.904  30.000  12.495
55451W        W27067  28.158  23.511  11.080
55452W        W27068  33.913  36.880   2.660
55453W        W27069  24.204   6.411  12.487
55454W        W27070  12.239   1.473   2.528
55455W        W27071  31.057  20.568   0.822
55456W        W27072  29.846   2.852  10.725
55457W        W27073   7.365  26.243   1.259
55458W        W27074   0.817   7.644  13.833
55459W        W27075  31.482   7.742   0.902
55460W        W27076  28.662  39.524  14.284
55461W        W27077  18.385  41.393   4.427
55462W        W27078  25.862  11.091  12.903
55463W        W27079  14.947  41.972  13.645
55464W        W27080  31.491   4.587  14.676
55465W        W27081  38.633  39.143  13.380
55466W        W27082  32.047  14.411   2.704
55467W        W27083  25.509  27.625   3.648
55468W        W27084  41.994  40.065  10.732
55469W        W27085   1.487  18.762  11.573
55470W        W27086  41.685  40.489   2.243
55471W        W27087  12.775  33.435   1.258
55472W        W27088  33.319  16.139   1.152
55473W        W27089  29.459   3.677  10.693
55474W        W27090  12.673  26.443   4.301
55475W        W27091  27.025  34.858   4.111
55476W        W27092  10.433  42.471   3.130
55477W        W27093   7.160  21.542  12.529
55478W        W27094  39.530  17.494   3.336
55479W        W27095  44.687  26.704   3.849
55480W        W27096   3.024   7.667  11.463
55481W        W27097  11.725  23.256  10.657
55482W        W27098  43.034  41.902  10.576
55483W        W27099   4.747  33.597  14.422
55484W        W27100  39.973  20.275  12.187
55485W        W27101  37.039  29.962   3.717
55486W        W27102  37.187   0.527  11.060
55487W        W27103  21.935  21.722  14.834
55488W        W27104   3.411   5.426   4.887
55489W        W27105  25.769  35.571  14.010
55490W        W27106  14.803   2.713  12.929
55491W        W27107  42.559  34.665   0.551
55492W        W27108   1.986  24.543   2.763
55493W        W27109  38.353  14.124  14.865
55494W        W27110  23.605  19.320  11.551
55495W        W27111  23.591  28.535   0.905
55496W        W27112   3.831  12.355   3.391
55497W        W27113  38.096  25.159   0.491
55498W        W27114  22.075  11.490  12.380
55499W        W27115  39.599  25.613  14.866
55500W        W27116  37.963  36.507  14.567
55501W        W27117  33.778  11.220  13.921
55502W        W27118   2.024  21.529   3.898
55503W        W27119  31.444  40.777   3.709
55504W        W27120  31.898   0.737   4.979
55505W        W27121  21.992  36.393  13.095
55506W        W27122  13.867  24.045  10.840
55507W        W27123  39.874  11.293  12.910
55508W        W27124  44.360  42.983   3.411
55509W        W27125  19.100  21.443   2.643
55510W        W27126   7.304  29.921   3.233
55511W        W27127  44.875  16.007   2.232
55512W        W27128   1.304  21.010  11.226
55513W        W27129   1.155  20.551  11.074
55514W        W27130  27.409  42.215   4.000
55515W        W27131  39.363  26.151   3.647
55516W        W27132  24.282   4.894  12.542
55517W        W27133  44.629   6.271  10.839
55518W        W27134  21.269   7.243   1.434
55519W        W27135  39.770  18.703   4.177
55520W        W27136  39.965  26.755  12.663
55521W        W27137   6.161  22.610  12.110
55522W        W27138   5.367  17.045   0.710
55523W        W27139  37.746   1.952   4.109
55524W        W27140  37.536  11.675   4.278
55525W        W27141  18.308  44.970  14.767
55526W        W27142  21.782  38.858  13.435
55527W        W27143  33.384  13.629   9.966
55528W        W27144  37.420  44.305   2.339
55529W        W27145  41.942  23.891   0.676
55530W        W27146  39.083  41.282  12.335
55531W        W27147  15.257  36.932  10.693
55532W        W27148  32.538   6.457  14.004
55533W        W27149  34.171  32.496   1.741
55534W        W27150  15.411  40.548   2.782
55535W        W27151   3.376  37.849  11.102
55536W        W27152  24.766  40.039   4.518
55537W        W27153  26.123   0.785   4.640
55538W        W27154  20.621  33.941   4.609
55539W        W27155  19.842  30.353  11.087
55540W        W27156  25.674  18.281   2.691
55541W        W27157  15.505   8.768   3.745
55542W        W27158  40.197  44.863   0.389
55543W        W27159  35.889   0.522   4.562
55544W        W27160  18.775  20.219  12.677
55545W        W27161  41.343  18.013  11.178
55546W        W27162  43.406  25.123   0.902
55547W        W27163  23.507  24.030  11.414
55548W        W27164  37.820  39.898  14.022
55549W        W27165   9.873   8.737   2.223
55550W        W27166  29.371  20.293   1.273
55551W        W27167  33.692   6.348   0.256
55552W        W27168  22.483   8.140   3.209
55553W        W27169   7.166  19.634  14.828
55554W        W27170  38.322   8.348   3.137
55555W        W27171  34.614  35.023  10.600
55556W        W27172  40.781  28.221   1.342
55557W        W27173  40.085  37.777  13.541
55558W        W27174  28.074  34.530  14.533
55559W        W27175  28.994   1.402   0.686
55560W        W27176  12.244  25.797   0.669
55561W        W27177  28.132  33.881  13.165
55562W        W27178  41.312  19.775  13.414
55563W        W27179  31.606  36.927   0.093
55564W        W27180   9.090  38.925  12.868
55565W        W27181  20.976  44.093  10.049
55566W        W27182  29.711  42.803   9.596
55567W        W27183  37.122  39.947  11.396
55568W        W27184  34.298  40.383   0.475
55569W        W27185  25.027  16.061   2.398
55570W        W27186  37.354   6.490   0.880
55571W        W27187   5.294   3.458   3.275
55572W        W27188  35.500  17.499  10.706
55573W        W27189  17.212  22.227   4.428
55574W        W27190  35.574  13.034  10.631
55575W        W27191  33.541  39.369   4.604
55576W        W27192  36.444  18.542   0.238
55577W        W27193  39.331   9.441  14.051
55578W        W27194  29.923  36.083  14.976
55579W        W27195   6.624   2.944   0.486
55580W        W27196  40.558  42.851   5.009
55581W        W27197  23.312  38.528  12.552
55582W        W27198  23.581  22.055  13.958
55583W        W27199  18.260  15.692   0.717
55584W        W27200  22.898  35.985   0.481
55585W        W27201   8.152   5.661  14.823
55586W        W27202  25.017  24.565  13.012
55587W        W27203  20.002  27.916  11.263
55588W        W27204   0.369  20.547  14.537
55589W        W27205  19.691  33.936  13.117
55590W        W27206  18.095   7.077  11.961
55591W        W27207  17.095  14.253  12.219
55592W        W27208  23.317  28.892  13.355
55593W        W27209  44.389  14.110  10.587
55594W        W27210   1.548  44.509   2.935
55595W        W27211  44.187   9.196   3.145
55596W        W27212   5.016  10.619  13.894
55597W        W27213   7.948  29.162   2.181
55598W        W27214  19.424   4.752  12.134
55599W        W27215   9.208  30.918  12.162
55600W        W27216   2.970  14.065   3.361
55601W        W27217   5.640  41.532   3.973
55602W        W27218   9.361  20.257   4.147
55603W        W27219  27.996  20.791  12.423
55604W        W27220   3.834  26.215  12.972
55605W        W27221  22.689  42.583   3.318
55606W        W27222  44.780  42.759   0.470
55607W        W27223  34.468  36.500  12.408
55608W        W27224  41.337  29.620  11.515
55609W        W27225  22.047  13.648   0.316
55610W        W27226  42.448   0.887   2.737
55611W        W27227  36.438  33.461   1.438
55612W        W27228   5.342  22.753   1.836
55613W        W27229  18.211   5.193   0.680
55614W        W27230  38.209  14.692   4.399
55615W        W27231  16.744  33.680  14.306
55616W        W27232  40.355  13.212  11.495
55617W        W27233  38.130  28.461   0.440
55618W        W27234   4.982  40.379  13.574
55619W        W27235   1.970   7.715  10.633
55620W        W27236  25.261  25.028   2.833
55621W        W27237  21.561   0.943  10.598
55622W        W27238   1.465  35.483   3.594
55623W        W27239   1.347  41.025   3.232
55624W        W27240  17.093  28.174  12.992
55625W        W27241  33.046  18.003  12.819
55626W        W27242  34.607  10.681  14.008
55627W        W27243  14.269  26.000  12.918
55628W        W27244   4.712  31.466  13.095
55629W        W27245  10.748  23.451  14.965
55630W        W27246   6.261   0.844  10.539
55631W        W27247  21.298  38.463   4.101
55632W        W27248   6.695   6.007   4.130
55633W        W27249  10.366  30.398  12.573
55634W        W27250  33.950  17.257  13.943
55635W        W27251   4.707  10.866   3.153
55636W        W27252  42.745  38.594   2.198
55637W        W27253  38.148  29.444   0.769
55638W        W27254  42.601   4.597  11.530
55639W        W27255  20.333  41.456   4.980
55640W        W27256  20.250  16.327  14.783
55641W        W27257  35.779  44.440  12.927
55642W        W27258  20.995  32.533   0.813
55643W        W27259  21.798  21.934   4.140
55644W        W27260  44.214  44.411  10.709
55645W        W27261  30.307  33.650   0.353
55646W        W27262  17.277  38.184   4.514
55647W        W27263  17.775  22.947   1.224
55648W        W27264  32.789  20.573  12.660
55649W        W27265  20.409   5.451  13.478
55650W        W27266  34.987  27.715   0.375
55651W        W27267  20.087   9.178   3.405
55652W        W27268  10.731  14.130   2.557
55653W        W27269  13.709  31.354   0.158
55654W        W27270  26.530  33.435   2.292
55655W        W27271   4.837  25.140   4.542
55656W        W27272  44.550  16.241  12.838
55657W        W27273  14.772   4.416  13.145
55658W        W27274  22.776  22.496   1.426
55659W        W27275  28.592  27.365  12.420
55660W        W27276  33.146  38.125   4.540
55661W        W27277  37.554   6.746   3.697
55662W        W27278  39.630  11.396   4.986
55663W        W27279  26.615  24.503  11.206
55664W        W27280  33.395  26.205  14.018
55665W        W27281  14.142   0.082  10.995
55666W        W27282   1.263  35.097   0.713
55667W        W27283  42.402   2.919  14.732
55668W        W27284  23.021  32.707   4.094
55669W        W27285  21.580   1.292   2.915
55670W        W27286  41.004   6.256   2.760
55671W        W27287  44.116  34.447  13.900
55672W        W27288  11.750   3.397   3.983
55673W        W27289   0.901  35.477  12.630
55674W        W27290  37.839  30.335  11.576
55675W        W27291   0.348   8.899   0.902
55676W        W27292  36.164  33.276   2.498
55677W        W27293  36.075  17.321   0.735
55678W        W27294  31.209  23.436   4.261
55679W        W27295  43.272  28.544  13.785
55680W        W27296   2.524  11.659  10.756
55681W        W27297  22.312  35.669  12.000
55682W        W27298   8.201  14.511   3.691
55683W        W27299  42.346  11.451   4.624
55684W        W27300  31.421   7.215   0.797
55685W        W27301  35.476   9.848  13.001
55686W        W27302  37.100  39.905   9.937
55687W        W27303  12.785  37.846  13.902
55688W        W27304   6.361  42.715   5.056
55689W        W27305  42.818  16.321  13.117
55690W        W27306  38.541   4.287   4.054
55691W        W27307   4.632  17.268   0.244
55692W        W27308  25.163  36.909   4.270
55693W        W27309  26.128  33.591  14.004
55694W        W27310  30.722   3.448   5.059
55695W        W27311   3.257  35.577  13.298
55696W        W27312  40.562  32.424  12.113
55697W        W27313  31.834   1.262  14.329
55698W        W27314  32.645   8.088  12.484
55699W        W27315   1.859   1.082   2.842
55700W        W27316   4.261  20.720   0.531
55701W        W27317  31.559  43.004  13.931
55702W        W27318  25.269  22.727   2.197
55703W        W27319   5.789  22.288  14.362
55704W        W27320  35.366  43.728   1.896
55705W        W27321  34.346  41.313   4.407
55706W        W27322  42.560  28.715   4.089
55707W        W27323  16.739  25.916   0.892
55708W        W27324  18.511  37.003  13.794
55709W        W27325  35.106   3.751  10.981
55710W        W27326  32.030  41.389   2.383
55711W        W27327  13.746   2.449  14.472
55712W        W27328  20.624   7.182   0.284
55713W        W27329  16.643   7.727  13.309
55714W        W27330  36.569  33.804   0.778
55715W        W27331  34.054  43.287   0.757
55716W        W27332   2.435  25.277  10.203
55717W        W27333  23.152   3.860  14.327
55718W        W27334  39.876  23.432  11.685
55719W        W27335  33.373  35.662  11.380
55720W        W27336  37.080  44.010  11.541
55721W        W27337  11.224  18.235   0.283
55722W        W27338  26.672  22.247   3.159
55723W        W27339   1.463   0.882  11.546
55724W        W27340   8.844  13.695  13.090
55725W        W27341  35.460  18.317  11.856
55726W        W27342  40.477  26.566  14.808
55727W        W27343  25.596  26.710   4.131
55728W        W27344   8.861  26.284   3.794
55729W        W27345  27.757  15.263  14.821
55730W        W27346   3.850  31.768  10.732
55731W        W27347  30.914  32.816  11.074
55732W        W27348  40.522   8.231  14.429
55733W        W27349  34.024  35.079   0.780
55734W        W27350  12.164  30.139  13.925
55735W        W27351   9.933  32.381   2.994
55736W        W27352  21.983  17.341   0.852
55737W        W27353  19.582   3.396  14.503
55738W        W27354  37.115  13.372  12.564
55739W        W27355   1.547  35.031  13.018
55740W        W27356  28.047   6.734  10.519
55741W        W27357  23.722  44.098   3.382
55742W        W27358   0.766  10.301   4.187
55743W        W27359   2.453  39.266   1.345
55744W        W27360   6.170  27.655  12.532
55745W        W27361  16.484   2.225  12.265
55746W        W27362  39.223  19.654  12.643
55747W        W27363  24.183  21.659   4.142
55748W        W27364  38.920  21.991   1.305
55749W        W27365  16.165  39.927   3.137
55750W        W27366  24.894  30.865   5.002
55751W        W27367  38.415  24.002   4.836
55752W        W27368  32.570   0.456  11.229
55753W        W27369  32.652  19.735   1.778
55754W        W27370  33.779  44.786   5.278
55755W        W27371  19.710  43.825  11.354
55756W        W27372  26.039  31.937   2.835
55757W        W27373  25.212  25.916  14.446
55758W        W27374  19.921  23.096   4.323
55759W        W27375  16.592  15.696   3.988
55760W        W27376  19.059  39.217   4.685
55761W        W27377  15.065  25.625  12.890
55762W        W27378  41.037  37.676   0.896
55763W        W27379   2.186  13.354   0.431
55764W        W27380  44.256  13.252  13.828
55765W        W27381   7.778  11.888   3.377
55766W        W27382   6.231   9.623  14.029
55767W        W27383  16.387  36.519   4.186
55768W        W27384   7.337  24.002  11.995
55769W        W27385  40.056  18.594   2.281
55770W        W27386  21.785  36.924   1.260
55771W        W27387  24.251   1.871   4.260
55772W        W27388  12.263  43.330   1.187
55773W        W27389  12.166  14.990  13.118
55774W        W27390  18.655  40.018   4.808
55775W        W27391   4.814  29.491  13.137
55776W        W27392  11.396  40.467  12.173
55777W        W27393  41.579   5.630   0.510
55778W        W27394   5.422   3.722  14.841
55779W        W27395  31.448  11.343   2.733
55780W        W27396  23.952  31.202  11.842
55781W        W27397  24.556  17.982   4.723
55782W        W27398  24.582  11.988   0.424
55783W        W27399  23.092  24.462  14.005
55784W        W27400   6.476  26.353  14.503
55785W        W27401   8.230  41.814   2.634
55786W        W27402  29.163  40.765   2.121
55787W        W27403   2.957  22.851  10.208
55788W        W27404  26.416  29.563   2.385
55789W        W27405  14.739   2.859  13.888
55790W        W27406  18.643  13.225  13.578
55791W        W27407   0.901  25.314   0.776
55792W        W27408  39.551  35.508  11.967
55793W        W27409  11.098  43.808   1.006
55794W        W27410   6.814  16.091  10.755
55795W        W27411  25.496  18.065   3.697
55796W        W27412   2.475  32.574  11.470
55797W        W27413  33.520  30.057  11.165
55798W        W27414  31.618  25.082  12.900
55799W        W27415  41.246  17.754   0.198
55800W        W27416  44.754   0.317   0.638
55801W        W27417   8.348  36.308   4.356
55802W        W27418   9.718  10.197   3.758
55803W        W27419   5.747  28.249  10.507
55804W        W27420  38.798  15.807   0.759
55805W        W27421   5.939  18.843   1.387
55806W        W27422  29.285  43.549  11.105
55807W        W27423  12.061  33.026  14.955
55808W        W27424  10.961   8.847   4.702
55809W        W27425  40.872  11.041   4.876
55810W        W27426  37.362  12.705  13.856
55811W        W27427   6.941  15.107  13.172
55812W        W27428  28.889   1.415   2.274
55813W        W27429  39.930  14.722   2.733
55814W        W27430  10.128   9.756  13.499
55815W        W27431  41.069  12.687   1.677
55816W        W27432  10.269  28.957  11.610
55817W        W27433  40.549  26.532   2.734
55818W        W27434  33.538  28.547  10.344
55819W        W27435   9.764  42.392  13.638
55820W        W27436  35.488  31.067  11.102
55821W        W27437  19.753  26.423  12.147
55822W        W27438   2.855  43.162  11.611
55823W        W27439  26.590  11.764  14.938
55824W        W27440  21.106   7.800   3.246
55825W        W27441  13.157  43.299  12.481
55826W        W27442   2.440  38.318  11.253
55827W        W27443  19.341  41.053  11.181
55828W        W27444  22.462  20.034   3.251
55829W        W27445  20.623  42.489   1.264
55830W        W27446  27.817  10.718  14.201
55831W        W27447  30.557  28.070  10.438
55832W        W27448  33.179  12.491   0.412
55833W        W27449  43.693   6.337   3.172
55834W        W27450  15.167  43.931   4.871
55835W        W27451  30.432  32.475  12.843
55836W        W27452  19.371  41.597   4.633
55837W        W27453  44.256  37.820   2.800
55838W        W27454  20.517   0.073   0.014
55839W        W27455  10.272   4.338   0.036
55840W        W27456   3.983  18.674  14.189
55841W        W27457  21.880  23.563  10.449
55842W        W27458  20.792  15.367   1.231
55843W        W27459  19.237  24.876  12.444
55844W        W27460  40.437   6.842  10.728
55845W        W27461  29.131  29.707   2.718
55846W        W27462  34.840  11.019  12.477
55847W        W27463  27.443  15.087  13.338
55848W        W27464   3.722  13.887   4.593
55849W        W27465   0.348  20.524   0.492
55850W        W27466  35.166  37.416  13.867
55851W        W27467  10.856  32.011  12.282
55852W        W27468  41.277  22.098  12.672
55853W        W27469  24.230   3.509  14.261
55854W        W27470   2.702  10.767  11.930
55855W        W27471  37.361  40.844  13.128
55856W        W27472  21.153  10.810  13.511
55857W        W27473  22.973   5.618  13.889
55858W        W27474  17.925  20.619   3.287
55859W        W27475   8.981  25.259  11.503
55860W        W27476  36.943   6.882  13.858
55861W        W27477   3.211   0.385   0.849
55862W        W27478   4.197   0.416  11.881
55863W        W27479  30.591  25.338   4.566
55864W        W27480  32.644  12.060  11.085
55865W        W27481  20.661  14.214  10.505
55866W        W27482  42.038  16.320  13.345
55867W        W27483  41.585  31.629   1.436
55868W        W27484  15.778  11.620   5.025
55869W        W27485   9.437  12.246  10.454
55870W        W27486  43.857  43.704   3.247
55871W        W27487  27.958  11.576   4.516
55872W        W27488  39.042   2.055   4.736
55873W        W27489  18.629   8.883  10.292
55874W        W27490  12.345  16.867  14.804
55875W        W27491   7.872  27.098   2.774
55876W        W27492   2.229  44.406  11.513
55877W        W27493   7.371  26.630   4.623
55878W        W27494   6.466  28.468   2.892
55879W        W27495  31.767   8.472   3.904
55880W        W27496  29.539  13.880  11.624
55881W        W27497  32.429  37.040   3.151
55882W        W27498  22.452  26.682   3.161
55883W        W27499  12.316   8.673   0.526
55884W        W27500   5.204  27.219   1.841
55885W        W27501  41.011  23.559   3.657
55886W        W27502  40.395   7.045  12.051
55887W        W27503   4.741   2.944  14.474
55888W        W27504   6.815  33.968  12.888
55889W        W27505  37.995  43.963  13.093
55890W        W27506  13.762   8.699   1.613
55891W        W27507  26.313  42.826  14.474
55892W        W27508  32.987   4.625   2.822
55893W        W27509  16.640  15.815  10.123
55894W        W27510  35.511  35.816   4.387
55895W        W27511  19.305  42.816   2.837
55896W        W27512  22.151   9.660   1.457
55897W        W27513  43.471  43.246   0.751
55898W        W27514  34.423  40.595   1.855
55899W        W27515  24.600  13.007  11.947
55900W        W27516  34.458   4.603  14.728
55901W        W27517   0.304  19.651   2.312
55902W        W27518  19.327   4.984   3.476
55903W        W27519  27.475   9.272   0.859
55904W        W27520   0.858  42.900   1.838
55905W        W27521  27.410  31.740   5.005
55906W        W27522  28.813  33.829   4.499
55907W        W27523   3.980   2.546  12.625
55908W        W27524   5.739   9.045  11.032
55909W        W27525   7.757  11.126   0.301
55910W        W27526  33.545  34.369  12.652
55911W        W27527   7.891   8.213   3.780
55912W        W27528  22.657  43.757   1.191
55913W        W27529  28.443  13.768   5.459
55914W        W27530  41.703  38.084   4.613
55915W        W27531  38.212  19.672  11.215
55916W        W27532  37.488  34.353  12.424
55917W        W27533   4.008  38.303  12.502
55918W        W27534   9.900  33.849   4.187
55919W        W27535  42.400  18.594   0.418
55920W        W27536  41.876  37.957   0.504
55921W        W27537  25.777  20.060  14.866
55922W        W27538   8.706  40.649  10.697
55923W        W27539   3.918  42.435  13.819
55924W        W27540  20.530   6.875  14.548
55925W        W27541  20.118  36.577  13.114
55926W        W27542  21.560  20.566   0.366
55927W        W27543   9.444  15.737   3.480
55928W        W27544  37.502  21.852   0.746
55929W        W27545  37.949  11.773   3.984
55930W        W27546  30.395  32.002  10.009
55931W        W27547  44.544  36.919   1.878
55932W        W27548  23.422  20.066   1.473
55933W        W27549   9.173   7.408  10.766
55934W        W27550  32.486   6.100   0.001
55935W        W27551  24.034  33.082   3.732
55936W        W27552  31.640  16.443   1.254
55937W        W27553   4.255  18.135  10.670
55938W        W27554  24.398  44.308   0.842
55939W        W27555  18.817  41.692  11.046
55940W        W27556  17.738  44.128   5.386
55941W        W27557  24.751  35.430   1.151
55942W        W27558  11.147  40.919  12.063
55943W        W27559  19.649  11.387   0.351
55944W        W27560  10.911  43.728  13.048
55945W        W27561  20.772  24.443   4.258
55946W        W27562   3.492  38.322   0.412
55947W        W27563  21.772   6.176   0.471
55948W        W27564  30.621  25.799  11.425
55949W        W27565  18.717   7.905  11.169
55950W        W27566  11.161  33.867  13.345
55951W        W27567  26.116   1.858  14.345
55952W        W27568  44.210  40.344  11.131
55953W        W27569  35.144  25.437  14.655
55954W        W27570  29.131  27.064  14.355
55955W        W27571  41.482  23.549  12.796
55956W        W27572   8.895  42.459  13.609
55957W        W27573  28.208   0.822  13.870
55958W        W27574   5.193  23.543   2.903
55959W        W27575  24.974  32.312  13.884
55960W        W27576  22.935  19.077   2.150
55961W        W27577   4.326   9.419  13.088
55962W        W27578  15.725   4.569   9.775
55963W        W27579  44.481  44.960  10.647
55964W        W27580  37.569  38.377   0.253
55965W        W27581  35.988  36.505   4.338
55966W        W27582  25.611   2.202  13.013
55967W        W27583  29.110  18.722  12.934
55968W        W27584  24.721  41.262  13.958
55969W        W27585  19.823  19.645  13.562
55970W        W27586  34.514  31.233  10.787
55971W        W27587  16.396  17.172  10.660
55972W        W27588  19.613  44.176   5.181
55973W        W27589  10.641   4.554   3.791
55974W        W27590  36.054  37.513   4.206
55975W        W27591   7.855  16.546  11.091
55976W        W27592  30.554  20.526   3.101
55977W        W27593  27.752  13.753  12.914
55978W        W27594  30.161   6.483  10.995
55979W        W27595  13.886   8.797  12.078
55980W        W27596   4.387   9.836   1.976
55981W        W27597   4.923  26.722  11.947
55982W        W27598  13.113   3.716  14.669
55983W        W27599  33.089  39.538  11.037
55984W        W27600  39.539   1.961  11.364
55985W        W27601  11.845   2.551   0.344
55986W        W27602  10.572  22.495  10.740
55987W        W27603  41.479  30.709   0.438
55988W        W27604  34.742  19.459  12.153
55989W        W27605   1.271   9.627  10.853
55990W        W27606   8.207  29.447   3.147
55991W        W27607  21.972  23.288   3.645
55992W        W27608  15.108  32.555  13.341
55993W        W27609  14.094  19.134   1.245
55994W        W27610  13.122  44.541   0.348
55995W        W27611  38.883  20.031   0.285
55996W        W27612  14.322  14.604   1.408
55997W        W27613  19.264  20.996   1.903
55998W        W27614  42.582  20.518  14.915
55999W        W27615  39.134   2.902   1.091
56000W        W27616  34.378  37.000   2.884
56001W        W27617  10.796  17.997   3.158
56002W        W27618  17.785  10.145   2.648
56003W        W27619  14.014  30.577  13.918
56004W        W27620  39.974   9.507  11.276
56005W        W27621  35.199   5.135   1.858
56006W        W27622  20.038  17.331   1.721
56007W        W27623   4.748  34.412  12.052
56008W        W27624  26.480  16.298   0.407
56009W        W27625   7.669   7.165   3.692
56010W        W27626  14.601  31.064   0.563
56011W        W27627  33.681  28.591  11.929
56012W        W27628  14.720  33.455  12.366
56013W        W27629   6.593  27.085   3.500
56014W        W27630   5.699  32.057   4.195
56015W        W27631   2.672  30.705   2.665
56016W        W27632  33.223  24.993  11.464
56017W        W27633  19.668  28.506  13.817
56018W        W27634  37.899  29.639   3.197
56019W        W27635   6.754   8.175   1.972
56020W        W27636  18.497  11.319   1.824
56021W        W27637  18.555  20.646  14.992
56022W        W27638  25.483  37.770  13.274
56023W        W27639  38.532  31.870   3.651
56024W        W27640   7.562  33.612   1.529
56025W        W27641  31.832  30.676   2.324
56026W        W27642  31.677  42.877   1.406
56027W        W27643  36.880  21.525  10.931
56028W        W27644  11.109  18.142   1.408
56029W        W27645   3.584   7.265  14.389
56030W        W27646   1.528  33.862   1.887
56031W        W27647  38.874  26.068  12.372
56032W        W27648  27.440  24.947  12.403
56033W        W27649  21.751  44.418   4.585
56034W        W27650  41.529  42.091   3.631
56035W        W27651  36.006  13.637  12.008
56036W        W27652  36.005  43.881  11.456
56037W        W27653  12.329   9.847   0.687
56038W        W27654   0.879   2.929  14.274
56039W        W27655  15.822  25.383  11.605
56040W        W27656  28.675  40.723   2.317
56041W        W27657  36.799  13.794   0.666
56042W        W27658   4.497  28.196   0.135
56043W        W27659  33.892  14.911   2.189
56044W        W27660  37.562  21.008  13.008
56045W        W27661  10.447  39.374   5.101
56046W        W27662  20.795  23.754  14.271
56047W        W27663   2.388  36.992  10.619
56048W        W27664  26.556  37.274   0.870
56049W        W27665  20.362  18.336   0.953
56050W        W27666  27.664  12.831  13.454
56051W        W27667  40.731  43.865   4.715
56052W        W27668  24.189   1.485   0.201
56053W        W27669  19.513  41.622   0.390
56054W        W27670   0.008  17.341  12.949
56055W        W27671   3.938  19.134  13.922
56056W        W27672   4.176  14.095  13.497
56057W        W27673  18.312   1.662   0.780
56058W        W27674  16.274  20.566   4.121
56059W        W27675  37.349  11.881   3.285
56060W        W27676  21.163   2.050   1.926
56061W        W27677  40.440  36.082  13.407
56062W        W27678  43.287  10.618  11.025
56063W        W27679  21.194  42.252   1.771
56064W        W27680   7.367  22.685   0.435
56065W        W27681  29.150  13.300   1.813
56066W        W27682  32.974  25.258   4.682
56067W        W27683  24.065  24.891   5.108
56068W        W27684   8.473  25.234  11.519
56069W        W27685  36.439  16.732   3.429
56070W        W27686  39.343  21.698   3.742
56071W        W27687  39.612   9.406   2.758
56072W        W27688  21.550  33.879   2.858
56073W        W27689  14.136  30.518  11.048
56074W        W27690  33.966  43.764   0.899
56075W        W27691  43.049  42.011   4.942
56076W        W27692  31.225  33.968   2.102
56077W        W27693  41.662  15.727  14.053
56078W        W27694  21.999   6.458   2.865
56079W        W27695  30.349  24.782  12.947
56080W        W27696  44.923   7.638   2.721
56081W        W27697  24.505  33.491   2.203
56082W        W27698  19.373  42.772   1.936
56083W        W27699  36.853  36.381  13.452
56084W        W27700  26.729  16.107   3.727
56085W        W27701  22.925  42.952   3.982
56086W        W27702  38.604   6.927  10.649
56087W        W27703  43.423  31.594  10.355
56088W        W27704  16.778   8.305   4.880
56089W        W27705  16.110   9.624  11.107
56090W        W27706  31.939  29.779   5.136
56091W        W27707   8.653   6.359   2.175
56092W        W27708  19.764  15.187   0.382
56093W        W27709  41.289  37.540  13.991
56094W        W27710  35.132   5.437  14.340
56095W        W27711  31.621  15.353   0.778
56096W        W27712   4.264  15.623  13.011
56097W        W27713  23.213  42.206   1.700
56098W        W27714  32.415  19.039  12.235
56099W        W27715   7.910  19.748   2.732
56100W        W27716   3.218  32.715   5.149
56101W        W27717  14.192  21.794  12.545
56102W        W27718  15.702   7.168   0.447
56103W        W27719  14.320  40.050   0.281
56104W        W27720  37.947   0.289   5.283
56105W        W27721  27.095   8.291  12.630
56106W        W27722  33.124  31.469   2.404
56107W        W27723  39.661  18.215  13.846
56108W        W27724  37.148  21.178   4.109
56109W        W27725  25.524  10.622  11.108
56110W        W27726  22.647  33.893  13.752
56111W        W27727   8.221  44.882  12.370
56112W        W27728  21.318   2.744   0.933
56113W        W27729  12.320  41.660  13.346
56114W        W27730   4.229  44.378   0.805
56115W        W27731  11.638  29.947  12.404
56116W        W27732  22.688  21.918   0.195
56117W        W27733   3.287  12.263   3.631
56118W        W27734   8.648  41.197   1.747
56119W        W27735  13.661  36.600   2.399
56120W        W27736  25.099  30.440  11.080
56121W        W27737  23.591  31.640   3.697
56122W        W27738  32.694   9.218   3.426
56123W        W27739  26.247  29.205   4.465
56124W        W27740  44.227  44.357   1.432
56125W        W27741  16.913  17.106  11.676
56126W        W27742  19.226  32.908   0.280
56127W        W27743  33.932  13.831  12.982
56128W        W27744  20.926  27.029  10.492
56129W        W27745  35.943  38.343  10.539
56130W        W27746  19.922  25.728   3.237
56131W        W27747   8.353   3.270  10.788
56132W        W27748  42.780  13.911  13.140
56133W        W27749  37.947  39.503   3.274
56134W        W27750   1.317   4.378  13.454
56135W        W27751  12.167   7.606   2.169
56136W        W27752  34.297  15.244   3.939
56137W        W27753  43.598  29.603   4.168
56138W        W27754  16.782  37.939  10.489
56139W        W27755  11.383   7.681   3.236
56140W        W27756  26.608  39.898  10.655
56141W        W27757  18.189  24.207  13.417
56142W        W27758   0.420  21.150  11.878
56143W        W27759  10.157   5.141  12.025
56144W        W27760  19.613  26.102  12.529
56145W        W27761   1.756  18.561   5.050
56146W        W27762  16.906  20.032  12.586
56147W        W27763  32.436  32.542   4.841
56148W        W27764  19.035  28.640   3.595
56149W        W27765  43.954   1.735   3.176
56150W        W27766  22.955  42.347  13.352
56151W        W27767  17.087   7.812   4.796
56152W        W27768   5.126  25.734  10.665
56153W        W27769  28.492   1.034  12.232
56154W        W27770  35.863  15.589  13.531
56155W        W27771  44.440  17.338   2.353
56156W        W27772  15.747  38.303   2.770
56157W        W27773  29.852  40.436  14.477
56158W        W27774  31.182  19.222  10.909
56159W        W27775   8.980  24.264  13.813
56160W        W27776  44.782   2.318   4.596
56161W        W27777  38.653  34.942   2.781
56162W        W27778   1.284   4.685   0.363
56163W        W27779   1.196  27.211  14.584
56164W        W27780  28.885  19.475   1.840
56165W        W27781  44.376  28.046  10.581
56166W        W27782  38.473  35.885  12.802
56167W        W27783  40.737  10.768  11.068
56168W        W27784   2.195  36.140  13.804
56169W        W27785   4.374   5.844  14.978
56170W        W27786  24.318  31.536   1.407
56171W        W27787  27.234  32.579  14.442
56172W        W27788   4.703  41.454   3.651
56173W        W27789   8.754  27.444   0.367
56174W        W27790  42.968   2.141   0.776
56175W        W27791   1.044  31.084  12.310
56176W        W27792  41.835  27.118   4.844
56177W        W27793  24.714   1.240  11.561
56178W        W27794  32.543  31.099  14.354
56179W        W27795  44.017   7.608   2.782
56180W        W27796   1.748  26.137  12.864
56181W        W27797   5.694  44.564   2.040
56182W        W27798  32.035  34.024   4.281
56183W        W27799  28.005  14.271  14.465
56184W        W27800  44.974  15.538  14.327
56185W        W27801  31.185  23.655  13.358
56186W        W27802   9.108  13.225   0.401
56187W        W27803  38.315  27.036   0.051
56188W        W27804  44.364   0.216   0.324
56189W        W27805  25.065  38.035  11.059
56190W        W27806   7.913  12.273  14.982
56191W        W27807  12.575  44.030   4.579
56192W        W27808  39.182  40.129  14.775
56193W        W27809  17.900   3.818  13.914
56194W        W27810  18.495   6.609   3.345
56195W        W27811  39.033  11.108   2.346
56196W        W27812  33.859  41.983   2.254
56197W        W27813  13.047  11.198  12.403
56198W        W27814  33.628  14.557  11.627
56199W        W27815  19.255   3.013  12.748
56200W        W27816  43.265  21.789   1.665
56201W        W27817   1.733  27.701   2.498
56202W        W27818  42.800  41.211  11.274
56203W        W27819  40.342  41.923  12.368
56204W        W27820  30.216  21.536  14.302
56205W        W27821  22.105  29.913  13.985
56206W        W27822  18.614   8.314   2.718
56207W        W27823  42.245  33.587   2.715
56208W        W27824  21.983  23.212  14.560
56209W        W27825  25.510  29.655  12.305
56210W        W27826  42.917  11.493  13.981
56211W        W27827   9.285   4.114  11.210
56212W        W27828  36.863  19.981  12.307
56213W        W27829  24.774   2.857   2.784
56214W        W27830  15.229   4.268  13.411
56215W        W27831  25.523  31.486  11.692
56216W        W27832  17.698   9.920  12.975
56217W        W27833   5.432  43.499   1.395
56218W        W27834  43.760  31.251  12.347
56219W        W27835  30.120  38.507  12.938
56220W        W27836   0.518  42.489  10.977
56221W        W27837  19.105   1.839   2.886
56222W        W27838   2.046  25.251   9.732
56223W        W27839  41.373  17.137  11.162
56224W        W27840  10.684  19.793   2.323
56225W        W27841  12.813  30.379   2.680
56226W        W27842  18.506  15.576  13.018
56227W        W27843   2.315  20.603  12.924
56228W        W27844  30.423   6.649   4.758
56229W        W27845  42.954   5.534  13.766
56230W        W27846  37.106  29.652  14.305
56231W        W27847  17.654   3.979   2.695
56232W        W27848  24.502  25.248   2.161
56233W        W27849  11.852  30.928  13.412
56234W        W27850   7.503  22.459  12.588
56235W        W27851  25.067  27.177  10.575
56236W        W27852  21.986  23.036  11.651
56237W        W27853   8.240   0.764  14.394
56238W        W27854  10.620  18.976   0.344
56239W        W27855  14.190  17.347   2.290
56240W        W27856   3.451  37.064  14.487
56241W        W27857  21.091  31.675   3.724
56242W        W27858  14.578  27.067   1.637
56243W        W27859  24.645  25.676   2.457
56244W        W27860  35.116  19.269   3.852
56245W        W27861  20.208   4.806   4.490
56246W        W27862  23.265   9.957  14.293
56247W        W27863  36.946  29.631   2.444
56248W        W27864  44.780   0.341  11.967
56249W        W27865  10.387  12.905   5.069
56250W        W27866  34.046   1.371  14.974
56251W        W27867  39.422  37.887   4.121
56252W        W27868   3.173  22.949   0.165
56253W        W27869  30.161  23.836  11.896
56254W        W27870  37.064  16.300   0.707
56255W        W27871  31.603  15.732   3.728
56256W        W27872  25.569  36.308  11.985
56257W        W27873  18.242  28.036   1.205
56258W        W27874  13.267   9.353  11.035
56259W        W27875  39.379   0.838  10.439
56260W        W27876  18.358  44.717   1.923
56261W        W27877  40.316   7.341   3.757
56262W        W27878  30.243  29.381  11.631
56263W        W27879   8.495  35.402   3.734
56264W        W27880  23.984  39.313  12.064
56265W        W27881  41.899  10.289  12.103
56266W        W27882  26.032  32.539   2.642
56267W        W27883  35.297   8.022  12.080
56268W        W27884   5.161  43.794   9.505
56269W        W27885  14.526  43.864  14.374
56270W        W27886   6.857   3.213  12.953
56271W        W27887   1.473   9.708   3.638
56272W        W27888   2.919  20.488   2.633
56273W        W27889   1.777  13.577   0.748
56274W        W27890  30.623  43.328  14.481
56275W        W27891  18.354  40.871   1.800
56276W        W27892  14.226  11.551   1.374
56277W        W27893  27.053  18.552   2.756
56278W        W27894  21.725  41.313   1.846
56279W        W27895   2.795  23.249  11.532
56280W        W27896  22.813  31.160  10.775
56281W        W27897  30.136  33.688  12.452
56282W        W27898  27.635  42.964  13.913
56283W        W27899  12.806   8.708  13.711
56284W        W27900  21.359  10.428  14.790
56285W        W27901   4.685  10.296  11.939
56286W        W27902  22.092  25.454   3.942
56287W        W27903  16.116   8.793  14.722
56288W        W27904  32.589  43.572  11.129
56289W        W27905  21.491  29.980   1.741
56290W        W27906  11.868  40.670   1.809
56291W        W27907   8.899  39.056  11.968
56292W        W27908  38.729  33.071   3.925
56293W        W27909   5.652   9.698   0.800
56294W        W27910  36.378   9.374  11.467
56295W        W27911  26.423   6.880   4.009
56296W        W27912  35.371  22.645  12.418
56297W        W27913  13.801  29.023  11.238
56298W        W27914  12.669  38.838   4.491
56299W        W27915  12.410  31.517  11.503
56300W        W27916  27.109  11.663   2.227
56301W        W27917  28.518  39.400   2.617
56302W        W27918  38.338  17.128  14.803
56303W        W27919  12.275  33.815   2.625
56304W        W27920  31.115  36.308  12.386
56305W        W27921  17.298  30.609  11.615
56306W        W27922  25.162  27.702  12.129
56307W        W27923   1.518  21.451   3.821
56308W        W27924  22.274   6.416  12.930
56309W        W27925  10.286  24.404  14.917
56310W        W27926  39.503  35.917   3.331
56311W        W27927   4.384   5.185   2.857
56312W        W27928  34.878  19.168   2.243
56313W        W27929  27.927  32.085  14.346
56314W        W27930  38.646  27.198   0.445
56315W        W27931  32.623  13.628  13.398
56316W        W27932  37.510  42.566   1.921
56317W        W27933  19.053  21.978   2.692
56318W        W27934  19.017  30.910   0.909
56319W        W27935   8.602   6.204   0.409
56320W        W27936   4.878  17.732   4.041
56321W        W27937  24.631  35.498  12.149
56322W        W27938   9.300  33.413   4.154
56323W        W27939   9.845  20.004  11.268
56324W        W27940   5.351  27.218  13.472
56325W        W27941   3.294  21.546  12.919
56326W        W27942  12.740   2.236  14.303
56327W        W27943   3.218  26.183  11.122
56328W        W27944  23.565  41.542   4.819
56329W        W27945  27.171  35.632  11.509
56330W        W27946  24.770  39.995   0.792
56331W        W27947  10.936   5.660  11.157
56332W        W27948  22.160  30.670  13.324
56333W        W27949  34.246  44.299  14.270
56334W        W27950  37.848   1.457  14.421
56335W        W27951  38.857  26.261  11.595
56336W        W27952  21.349  10.154  11.060
56337W        W27953  44.344  20.944   4.635
56338W        W27954  24.494  22.474   1.857
56339W        W27955  33.306   5.408  10.747
56340W        W27956   8.698  27.727  10.852
56341W        W27957  22.059   1.793  10.766
56342W        W27958  35.924  29.336  11.136
56343W        W27959   5.028  29.385   0.383
56344W        W27960   6.066  36.125  11.511
56345W        W27961  18.212  43.933  10.618
56346W        W27962  34.469  24.400   4.949
56347W        W27963  26.104   2.913   0.272
56348W        W27964   8.025   7.897   2.518
56349W        W27965  23.504  44.949  13.655
56350W        W27966   1.673  33.023   2.786
56351W        W27967  14.103  27.525   5.051
56352W        W27968  27.004   7.853  12.911
56353W        W27969  25.740  44.524  12.554
56354W        W27970  30.505  30.025  10.516
56355W        W27971  38.271  16.776  11.281
56356W        W27972  11.403  10.121  12.241
56357W        W27973  44.470  30.419   4.594
56358W        W27974   8.797  29.194  13.783
56359W        W27975  40.078  41.668   3.640
56360W        W27976  21.793  40.772   4.095
56361W        W27977  19.204  15.352  14.580
56362W        W27978  27.308  21.579  11.630
56363W        W27979   0.154  13.409  11.959
56364W        W27980  40.592   9.286  11.923
56365W        W27981   5.019  34.078   3.252
56366W        W27982  33.870  28.912   1.751
56367W        W27983  31.352  27.713  13.290
56368W        W27984  18.354  39.431  13.586
56369W        W27985  26.038   5.879   1.447
56370W        W27986   0.976  13.129  13.491
56371W        W27987  35.527  17.217  14.899
56372W        W27988  33.360  28.792  11.609
56373W        W27989   7.252   3.297   0.023
56374W        W27990  42.182  27.691   2.819
56375W        W27991  44.012  36.474   4.487
56376W        W27992  31.125   7.833   2.185
56377W        W27993  32.894   7.114  11.399
56378W        W27994  21.173  33.993  10.734
56379W        W27995   5.283  16.573   0.446
56380W        W27996  24.210   4.495  11.689
56381W        W27997  13.084  19.080   2.721
56382W        W27998  43.681  22.573   2.939
56383W        W27999  40.919   0.167   4.543
56384W        W28000  43.448  18.740   1.696
56385W        W28001  16.198  44.366   2.119
56386W        W28002  23.524  13.808   0.226
56387W        W28003  26.992  24.021  12.430
56388W        W28004  24.726  16.601   1.740
56389W        W28005   9.148  40.816  12.091
56390W        W28006  44.005  23.152  10.811
56391W        W28007  35.371  39.148  11.174
56392W        W28008  44.324  24.716   3.706
56393W        W28009  27.021  24.661  10.625
56394W        W28010  24.101  14.098  10.608
56395W        W28011  13.748  16.380  12.954
56396W        W28012  41.747  18.584   4.201
56397W        W28013  14.157  26.262   2.110
56398W        W28014  30.274  26.217  13.061
56399W        W28015   0.375  22.026  12.133
56400W        W28016  11.304   1.706  11.878
56401W        W28017  42.772  33.090  12.732
56402W        W28018  41.809  18.228  11.210
56403W        W28019  34.568  40.988   4.060
56404W        W28020  42.341  17.939  14.758
56405W        W28021  32.195  37.432  12.666
56406W        W28022   3.395  40.254  13.097
56407W        W28023   3.888  18.827   3.780
56408W        W28024  15.423  25.749  14.226
56409W        W28025  40.568  13.234   4.689
56410W        W28026   0.271  25.579   4.157
56411W        W28027  37.959  10.352  11.008
56412W        W28028  12.923  42.819  12.497
56413W        W28029   1.296  27.637   3.610
56414W        W28030  38.925  16.611   0.055
56415W        W28031  17.030  16.750   5.038
56416W        W28032  43.276  39.117  12.911
56417W        W28033  41.294  32.769  14.014
56418W        W28034  27.616   1.239   4.129
56419W        W28035   0.316  39.802  12.517
56420W        W28036  42.037   3.377   0.200
56421W        W28037  42.253   4.201   1.740
56422W        W28038  16.384  34.145   1.222
56423W        W28039  20.144  44.996  10.606
56424W        W28040   4.780  15.763  12.988
56425W        W28041   1.193  43.677  12.567
56426W        W28042   9.329  34.529  13.817
56427W        W28043   3.040  29.546   0.126
56428W        W28044  39.780  29.397  10.646
56429W        W28045  41.914  25.698  12.903
56430W        W28046   8.795  11.401   0.736
56431W        W28047   6.307  16.703   4.639
56432W        W28048  15.192   5.221  12.830
56433W        W28049  28.590   5.174  11.071
56434W        W28050   3.801  29.484  12.871
56435W        W28051  37.553  18.846  13.375
56436W        W28052  22.038   8.347   2.879
56437W        W28053   1.299  12.863   2.983
56438W        W28054  35.325  43.266  12.136
56439W        W28055   2.327  36.882  11.117
56440W        W28056   5.757  11.359  14.547
56441W        W28057  25.150  40.810  12.709
56442W        W28058   6.284  37.512   2.762
56443W        W28059  28.903  41.583   1.169
56444W        W28060  22.130  12.632   4.311
56445W        W28061   8.389  23.041   1.903
56446W        W28062  40.805  12.915  11.522
56447W        W28063  31.591   0.810  14.153
56448W        W28064  10.379  16.242  12.443
56449W        W28065  12.703  32.540  13.802
56450W        W28066  26.500  38.016  14.450
56451W        W28067  39.102  34.488   3.365
56452W        W28068  28.008  28.906  11.581
56453W        W28069  14.226  29.644  14.782
56454W        W28070  41.521   3.937  14.887
56455W        W28071  14.517  38.033   2.051
56456W        W28072   9.706  15.710  12.551
56457W        W28073  24.928  30.525  13.765
56458W        W28074   6.434  40.803   4.823
56459W        W28075   0.974  34.406  11.983
56460W        W28076  14.232  20.481   4.405
56461W        W28077   2.203  37.403  14.421
56462W        W28078  38.871  15.757  11.690
56463W        W28079   0.250  10.948   1.718
56464W        W28080  13.831  27.346  12.904
56465W        W28081  37.861   8.441  11.025
56466W        W28082  25.275  42.786  11.872
56467W        W28083  17.188  32.843   1.941
56468W        W28084  30.233  25.173   1.226
56469W        W28085  39.454   8.697   4.847
56470W        W28086  11.944  36.001   2.396
56471W        W28087   6.757  27.195  10.822
56472W        W28088   0.425  28.562   3.786
56473W        W28089  42.340   2.472  12.531
56474W        W28090  19.976   9.054  10.232
56475W        W28091  32.560  16.999   3.584
56476W        W28092  40.546  40.343  13.857
56477W        W28093  12.519  15.090   1.355
56478W        W28094  17.645  26.194   1.815
56479W        W28095   0.311  35.602  13.911
56480W        W28096   9.389  33.765   3.787
56481W        W28097  10.164  22.022   0.488
56482W        W28098   8.928  26.787   1.228
56483W        W28099  40.348  37.027  14.415
56484W        W28100  41.938  19.435   1.218
56485W        W28101  29.619   2.898  13.241
56486W        W28102  40.854  26.785   4.719
56487W        W28103   1.911  25.073   2.077
56488W        W28104  34.160  17.347  13.475
56489W        W28105  25.032  25.445   3.766
56490W        W28106  13.012  16.746  10.568
56491W        W28107  26.468  18.133  14.312
56492W        W28108  13.225   1.450   1.727
56493W        W28109  36.379  36.191   0.864
56494W        W28110  21.909  31.389  12.003
56495W        W28111   8.801  12.653   4.715
56496W        W28112  20.559   4.971  13.383
56497W        W28113   0.677  17.824  11.640
56498W        W28114  21.039  19.445  13.034
56499W        W28115  44.653   4.633   3.700
56500W        W28116   7.140  41.956   2.318
56501W        W28117  10.176  13.428   3.690
56502W        W28118  33.734   6.740  13.378
56503W        W28119  38.649  17.539  14.859
56504W        W28120  42.021  22.889   0.490
56505W        W28121  41.042  44.307  12.809
56506W        W28122  11.343  17.281   4.212
56507W        W28123  16.266   8.521  13.403
56508W        W28124   6.446  24.429   2.751
56509W        W28125  29.968  32.030   0.326
56510W        W28126   8.349  36.960   4.648
56511W        W28127  17.177  20.008  13.402
56512W        W28128  38.494  36.867   4.223
56513W        W28129  35.573   4.408  14.799
56514W        W28130  42.064  11.373  13.478
56515W        W28131   7.839  32.159   0.880
56516W        W28132   1.422  24.493  11.929
56517W        W28133   1.267  27.084   2.798
56518W        W28134   2.383  18.047   2.945
56519W        W28135  13.588  23.911   2.883
56520W        W28136  13.446  30.085  11.124
56521W        W28137  43.809  34.146  11.089
56522W        W28138  24.661   4.458   2.629
56523W        W28139  28.919  38.846  11.223
56524W        W28140  26.710  22.156   1.755
56525W        W28141  40.618  13.389   3.319
56526W        W28142  30.762  32.225   0.937
56527W        W28143  41.889  43.829  10.962
56528W        W28144  31.391  44.519   2.823
56529W        W28145  26.334  17.799   3.532
56530W        W28146   5.280  44.544  13.487
56531W        W28147  43.439  37.576   1.829
56532W        W28148  11.820   8.235   3.678
56533W        W28149  28.704  16.563  11.622
56534W        W28150   9.747  44.770  10.744
56535W        W28151  40.702  16.661  12.882
56536W        W28152  26.576  33.735   0.471
56537W        W28153   3.238  18.012   2.793
56538W        W28154  16.523  13.680  10.699
56539W        W28155  44.868  17.655  12.217
56540W        W28156  13.819  24.715   1.482
56541W        W28157  17.776  11.251   1.167
56542W        W28158  11.208   4.238  14.772
56543W        W28159  38.928   8.680  10.304
56544W        W28160  28.114   9.814  11.111
56545W        W28161  18.311   9.217   4.519
56546W        W28162  14.874  10.159  12.117
56547W        W28163  18.018  10.004  11.816
56548W        W28164  17.245  37.539   4.121
56549W        W28165   6.087   9.968   0.782
56550W        W28166   8.209  27.423   1.442
56551W        W28167  20.388  42.271   0.847
56552W        W28168  26.947  19.680   4.271
56553W        W28169  36.824  27.866   2.802
56554W        W28170  35.381  43.554   2.862
56555W        W28171   8.140  24.114   4.297
56556W        W28172  10.635   2.477   4.282
56557W        W28173  36.063  29.600  11.589
56558W        W28174  41.061   9.319  12.158
56559W        W28175  36.923  19.480   4.627
56560W        W28176  27.990  43.368  13.946
56561W        W28177  44.413  43.070  12.332
56562W        W28178  16.846   1.924  13.078
56563W        W28179  34.068  23.665   2.671
56564W        W28180  19.560   1.888  12.386
56565W        W28181   5.271  28.590   4.839
56566W        W28182   7.438  31.420   4.541
56567W        W28183  19.384  13.100   3.239
56568W        W28184  16.071  28.054  11.164
56569W        W28185  30.793   1.202   0.778
56570W        W28186  38.450  15.590   4.357
56571W        W28187   6.185  20.169   0.285
56572W        W28188  34.560  19.707  13.124
56573W        W28189  44.885  39.463  12.516
56574W        W28190  39.815  40.594   0.103
56575W        W28191  40.789  24.531  11.936
56576W        W28192  43.905  22.517   4.454
56577W        W28193  26.161  43.093   1.656
56578W        W28194   7.219  14.344   0.375
56579W        W28195  23.647  12.743  11.157
56580W        W28196   9.402  24.796  10.692
56581W        W28197  36.450   6.880   2.285
56582W        W28198  36.600  15.698   4.075
56583W        W28199  23.597  21.791  11.601
56584W        W28200  16.634   5.726   0.826
56585W        W28201  32.450  10.325   3.626
56586W        W28202  24.522  39.749   3.001
56587W        W28203  25.910   9.663   4.146
56588W        W28204  19.847   3.239  14.095
56589W        W28205  31.996  42.996   4.711
56590W        W28206  43.322  40.290   4.371
56591W        W28207  42.984   0.059   2.244
56592W        W28208  22.974  44.325   0.720
56593W        W28209  38.351  42.213  11.117
56594W        W28210  24.115  32.836   0.920
56595W        W28211  36.020  34.480   4.055
56596W        W28212  24.165   4.312   2.310
56597W        W28213   8.465  28.134   3.837
56598W        W28214  40.864  36.254   0.025
56599W        W28215  19.782   9.158  11.125
56600W        W28216   3.140  20.674   1.683
56601W        W28217  18.131  32.965   2.351
56602W        W28218  14.742  38.275   0.292
56603W        W28219  11.177  34.958   4.331
56604W        W28220   2.780  29.534  13.906
56605W        W28221  16.804  12.857  12.906
56606W        W28222  38.458  33.438   1.022
56607W        W28223  19.764  19.063   3.728
56608W        W28224   9.315  20.575  13.813
56609W        W28225  34.690  19.206   1.744
56610W        W28226  28.550  30.732   4.720
56611W        W28227  44.418  41.961   3.887
56612W        W28228   9.407  31.453   3.077
56613W        W28229  34.431  20.806  12.156
56614W        W28230  16.664  35.213   3.816
56615W        W28231  21.102  11.724   1.193
56616W        W28232  25.113  24.348  13.953
56617W        W28233   8.157  22.144  11.920
56618W        W28234  28.636  27.491  13.985
56619W        W28235   1.061  29.372  11.568
56620W        W28236  17.835  12.560   1.279
56621W        W28237  34.867  21.137  12.080
56622W        W28238   4.758  24.613   3.686
56623W        W28239  13.349   5.658   4.155
56624W        W28240   5.238   0.505   1.188
56625W        W28241  43.690  41.363   0.348
56626W        W28242  22.651  15.766   0.060
56627W        W28243  30.959  35.753  13.531
56628W        W28244  19.767   4.317   1.217
56629W        W28245  19.886  44.159   1.768
56630W        W28246   0.679  24.534   1.775
56631W        W28247  42.242  32.151   1.708
56632W        W28248   0.482   9.197   0.464
56633W        W28249  23.230  20.448   0.438
56634W        W28250  13.299  10.337  13.781
56635W        W28251  14.704  42.070  10.566
56636W        W28252  37.321  41.791   2.256
56637W        W28253   3.321  30.597  13.940
56638W        W28254  35.993  23.173   4.198
56639W        W28255  14.393   3.768   2.806
56640W        W28256  31.116  43.005  12.852
56641W        W28257  38.459  36.434   0.031
56642W        W28258  38.733  15.678   0.249
56643W        W28259  35.090  20.732  10.632
56644W        W28260  39.468   0.340   1.932
56645W        W28261  42.597  10.320  13.375
56646W        W28262   7.965  18.793  11.629
56647W        W28263  34.361  32.366   1.226
56648W        W28264   5.553  13.212  13.308
56649W        W28265  25.167   1.061   2.373
56650W        W28266   0.012  18.496  13.479
56651W        W28267   7.111  24.051  12.731
56652W        W28268  22.862  15.445  12.231
56653W        W28269   7.735  28.402   0.755
56654W        W28270  17.219  20.325   4.505
56655W        W28271  41.301  30.499  11.247
56656W        W28272  34.958  19.775  13.949
56657W        W28273  18.995  25.632  14.549
56658W        W28274   2.021  11.813  10.696
56659W        W28275  15.057  10.197   2.746
56660W        W28276   3.329  35.805   3.881
56661W        W28277  21.015   8.097  13.852
56662W        W28278  28.645   8.258   2.820
56663W        W28279  11.103  20.675   2.285
56664W        W28280   9.683  18.254  10.717
56665W        W28281  44.270   9.484   5.002
56666W        W28282  39.245  44.227  11.141
56667W        W28283  33.098   0.072  13.059
56668W        W28284  41.508  36.830  12.067
56669W        W28285  43.909  15.581   3.479
56670W        W28286  32.504  33.345  10.401
56671W        W28287  19.029  21.647   3.119
56672W        W28288   6.494  17.048   2.227
56673W        W28289   5.535   2.906   1.375
56674W        W28290   2.468  23.013  13.664
56675W        W28291  23.630  33.387  13.897
56676W        W28292  40.073  34.850  12.479
56677W        W28293  12.332  12.576   1.434
56678W        W28294  12.045  10.282   3.855
56679W        W28295  20.158  12.375  10.765
56680W        W28296  11.858  40.418  13.518
56681W        W28297  24.932  38.760   4.217
56682W        W28298  14.287  39.454   4.592
56683W        W28299  19.297   3.312   3.208
56684W        W28300   6.753  29.703  14.996
56685W        W28301  31.839  36.368   3.720
56686W        W28302  19.313  37.836   3.245
56687W        W28303  44.382  19.862   0.227
56688W        W28304  33.590  12.796   0.248
56689W        W28305  21.209   0.709   0.288
56690W        W28306  10.449  31.359  11.037
56691W        W28307  14.118  15.059  14.861
56692W        W28308   9.410   2.868   1.491
56693W        W28309   6.943  42.743  11.215
56694W        W28310   8.356  35.893   2.817
56695W        W28311  17.814  20.297   4.542
56696W        W28312   0.053  29.670   3.703
56697W        W28313   2.199  19.589  14.571
56698W        W28314  28.868   0.701   3.767
56699W        W28315  13.260  18.144  11.692
56700W        W28316  32.178  15.859  14.972
56701W        W28317   2.929   8.653   1.321
56702W        W28318   4.227  13.091  10.500
56703W        W28319  14.328  37.312   0.767
56704W        W28320  21.997  20.673   3.620
56705W        W28321  28.465  18.647   3.899
56706W        W28322  10.311  24.763   1.996
56707W        W28323  44.587  21.702   2.405
56708W        W28324  13.964  21.507   1.581
56709W        W28325  37.777  41.308   3.647
56710W        W28326  28.050  44.573  11.231
56711W        W28327   5.356  43.636   0.913
56712W        W28328  42.857  23.542   2.848
56713W        W28329  23.682  31.881  13.903
56714W        W28330  13.885  37.971   2.787
56715W        W28331  26.634  37.263   1.768
56716W        W28332  44.962  32.070   3.717
56717W        W28333  42.589   6.900   0.359
56718W        W28334  33.686  14.429   2.072
56719W        W28335  43.107   9.640   2.988
56720W        W28336   9.755  28.375   3.019
56721W        W28337  25.514   9.580   0.328
56722W        W28338  26.411  13.522   4.111
56723W        W28339  35.984  25.389   3.209
56724W        W28340   4.693   2.257  10.159
56725W        W28341  28.518   2.225   4.137
56726W        W28342  17.181  23.902   3.875
56727W        W28343  24.154  19.507  12.423
56728W        W28344  20.057   3.347  11.289
56729W        W28345   5.808  11.526  13.121
56730W        W28346  29.749  26.799  13.528
56731W        W28347   1.561   8.751  14.355
56732W        W28348   6.102  31.223  12.500
56733W        W28349   2.214  22.684  14.598
56734W        W28350  16.106  19.766  12.074
56735W        W28351  40.270   7.407   0.857
56736W        W28352  26.096  24.752   2.984
56737W        W28353  29.173  17.333   3.207
56738W        W28354  13.284   3.224  14.755
56739W        W28355  39.450  41.858   1.209
56740W        W28356   2.745  17.180  11.171
56741W        W28357   3.978  32.645  11.403
56742W        W28358  26.901   8.691  13.335
56743W        W28359  21.963  18.594  12.505
56744W        W28360  31.648   6.384   2.402
56745W        W28361  22.112  26.107   0.239
56746W        W28362   1.738  37.944   3.468
56747W        W28363  25.233   0.558   2.372
56748W        W28364  33.867  42.859   3.865
56749W        W28365   4.960  10.363  13.431
56750W        W28366   1.796  28.429   3.774
56751W        W28367  28.277   3.998  12.974
56752W        W28368  18.673  14.808  12.617
56753W        W28369  43.813   3.943   4.505
56754W        W28370  40.011  16.108  10.606
56755W        W28371  44.155  35.664   2.083
56756W        W28372  32.281  23.244  13.879
56757W        W28373  41.259  10.094  11.176
56758W        W28374  22.134  32.211  12.043
56759W        W28375  40.383  18.107  12.649
56760W        W28376  14.784  24.493   3.125
56761W        W28377   2.979   0.763  11.591
56762W        W28378  44.408  26.932   3.034
56763W        W28379  25.306  39.410   2.778
56764W        W28380  35.368   8.277  14.557
56765W        W28381  19.420  25.691   4.118
56766W        W28382   1.986  39.075  11.982
56767W        W28383  11.130  28.872  13.967
56768W        W28384  19.315  13.158   0.781
56769W        W28385  43.341  35.565   2.593
56770W        W28386  39.405  17.012   0.778
56771W        W28387  33.462  38.423  13.156
56772W        W28388  35.941  22.285   4.853
56773W        W28389   7.486  17.510   1.421
56774W        W28390  30.555  39.515   4.611
56775W        W28391  11.443  21.167   1.457
56776W        W28392  38.840  24.176  13.492
56777W        W28393  10.817  30.628  11.390
56778W        W28394   8.425  14.851   4.057
56779W        W28395  44.361  12.695  12.940
56780W        W28396  21.221  16.188  11.969
56781W        W28397  33.408  29.749  13.926
56782W        W28398  40.708  35.528  10.704
56783W        W28399  19.648   3.155   1.396
56784W        W28400  10.742  41.739   3.823
56785W        W28401  18.655  40.848  13.877
56786W        W28402   0.787   9.813   2.618
56787W        W28403   7.296   7.405  13.403
56788W        W28404  43.428  39.969   1.706
56789W        W28405  26.150  19.300  10.767
56790W        W28406  42.975  41.927  11.881
56791W        W28407  25.044   7.775  13.809
56792W        W28408  36.557  18.280  11.722
56793W        W28409  37.612  24.535  14.998
56794W        W28410   2.151  16.138  11.427
56795W        W28411   6.449  36.260   1.327
56796W        W28412  34.172  16.443   3.333
56797W        W28413   1.871  43.030  13.517
56798W        W28414  28.978  16.634   2.339
56799W        W28415  42.899  19.600  11.854
56800W        W28416  10.401   2.918   2.449
56801W        W28417  12.116  32.930   2.188
56802W        W28418  22.169  39.361   3.295
56803W        W28419  15.728   9.925  13.008
56804W        W28420  44.058  41.980   4.688
56805W        W28421   6.645  33.776   3.804
56806W        W28422  41.917  14.708   2.996
56807W        W28423  30.365  16.107   0.826
56808W        W28424  20.500  11.652   4.236
56809W        W28425   4.753  42.839  14.400
56810W        W28426   2.718  38.569   0.263
56811W        W28427  12.594  24.057  14.172
56812W        W28428  13.752   6.243   4.392
56813W        W28429  28.477  27.259  13.540
56814W        W28430  24.778  21.962  14.328
56815W        W28431  19.050  22.218   4.559
56816W        W28432  27.999  40.299  13.473
56817W        W28433   7.601  19.807  13.494
56818W        W28434  40.442  21.223  13.223
56819W        W28435  38.647  22.205   4.057
56820W        W28436   9.605  10.189  14.046
56821W        W28437  32.396  16.314  11.195
56822W        W28438  28.171  12.107   1.774
56823W        W28439  34.403  27.093  10.658
56824W        W28440  26.620  31.017   3.303
56825W        W28441  35.383   7.405  13.646
56826W        W28442   2.181   5.935   0.798
56827W        W28443   1.242  22.556  13.398
56828W        W28444  43.218   3.772   1.751
56829W        W28445  32.254  25.181   1.563
56830W        W28446  14.314  19.060  14.890
56831W        W28447  18.559  36.949  11.628
56832W        W28448  15.082  17.738   3.202
56833W        W28449  29.955   6.821   4.620
56834W        W28450  40.297  44.700   4.113
56835W        W28451  25.108   9.079  10.678
56836W        W28452  29.535  38.400   3.361
56837W        W28453   1.361  36.860   1.610
56838W        W28454  19.056  42.220   3.765
56839W        W28455  44.305  15.601   3.132
56840W        W28456  14.969  39.240   1.169
56841W        W28457  21.105  33.482  10.708
56842W        W28458  15.528  39.590   4.127
56843W        W28459  22.655  43.942  14.242
56844W        W28460  16.435  31.743  10.646
56845W        W28461  36.519  30.402  12.481
56846W        W28462  28.805  33.614   3.706
56847W        W28463  24.006  44.886   1.444
56848W        W28464   6.027  13.336   0.786
56849W        W28465  22.026  12.791  13.825
56850W        W28466   6.675  30.381  13.408
56851W        W28467  39.918  34.418   2.546
56852W        W28468  17.600  40.378  11.366
56853W        W28469  12.807  25.822  11.560
56854W        W28470  44.535  30.510   0.914
56855W        W28471  27.905  31.646   2.905
56856W        W28472  20.805  17.220  12.041
56857W        W28473   2.459  42.758   0.439
56858W        W28474  15.654   9.418  11.221
56859W        W28475  34.445   6.810  11.135
56860W        W28476   1.142   5.639   1.534
56861W        W28477  24.668  13.607   2.941
56862W        W28478  26.925  13.661   1.218
56863W        W28479  19.423  20.371   2.387
56864W        W28480  16.421  25.707   1.283
56865W        W28481  13.065   0.454   4.227
56866W        W28482  33.184  23.746   4.631
56867W        W28483   1.981  10.986  14.166
56868W        W28484  14.757   3.343   5.002
56869W        W28485  22.574  37.500  14.203
56870W        W28486  44.872  14.647  11.055
56871W        W28487   2.767  41.912  13.028
56872W        W28488   5.400   5.908   1.801
56873W        W28489  20.352  43.375  14.211
56874W        W28490   8.377  29.976  12.448
56875W        W28491  24.791   0.269   2.019
56876W        W28492  18.450  34.568  11.315
56877W        W28493  14.641  12.366  12.482
56878W        W28494  38.409  19.996  13.304
56879W        W28495  22.680  40.775   3.730
56880W        W28496  29.248  42.698  10.240
56881W        W28497  22.636   1.296   1.919
56882W        W28498  11.764  10.950   2.380
56883W        W28499   1.377  28.444  11.152
56884W        W28500   4.822   7.201  10.633
56885W        W28501  20.537  22.624   3.129
56886W        W28502  30.927   2.943  13.947
56887W        W28503  35.290  32.668  12.799
56888W        W28504  14.260  20.627   1.948
56889W        W28505   2.530  12.201  11.578
56890W        W28506  11.337  33.337  11.864
56891W        W28507  37.132  28.710  11.142
56892W        W28508  36.550  28.950   3.575
56893W        W28509  38.427  32.052  11.862
56894W        W28510   3.644  16.200   3.419
56895W        W28511  11.791  33.539  14.835
56896W        W28512  35.303  21.573   3.725
56897W        W28513  33.545  11.696   4.288
56898W        W28514  36.974  25.789   4.607
56899W        W28515  24.060  20.750   3.614
56900W        W28516   0.915   1.728  10.315
56901W        W28517  24.167   3.278   1.456
56902W        W28518  21.501  15.012  13.264
56903W        W28519  40.352   6.294   2.258
56904W        W28520  24.504  43.440   0.718
56905W        W28521   2.812  10.461   0.330
56906W        W28522  44.392  30.569   4.028
56907W        W28523  29.238  28.133   0.391
56908W        W28524  32.945   7.296   3.688
56909W        W28525   4.636   6.676  12.642
56910W        W28526   8.429  37.024   3.239
56911W        W28527  40.967  14.515   4.184
56912W        W28528  26.715  21.264   1.739
56913W        W28529  29.017  22.729  11.951
56914W        W28530   6.652  25.552  11.557
56915W        W28531  32.970  17.174  14.606
56916W        W28532  27.272  28.449   1.825
56917W        W28533  11.868   8.115  12.599
56918W        W28534  28.956  41.076   1.136
56919W        W28535  30.918  37.832   2.891
56920W        W28536  25.043  44.398   3.029
56921W        W28537  21.970  11.059   0.039
56922W        W28538  43.056   6.144  13.611
56923W        W28539  38.354   2.328  13.649
56924W        W28540  30.478   8.897   2.808
56925W        W28541  14.198  19.308   0.358
56926W        W28542  36.515   8.191  13.109
56927W        W28543  35.901   4.840  13.597
56928W        W28544  20.158  41.305  12.795
56929W        W28545   9.912  43.454   0.660
56930W        W28546  22.502  10.973  13.870
56931W        W28547   5.494   4.390   3.510
56932W        W28548   8.746   3.731   4.617
56933W        W28549  23.830  34.358   4.061
56934W        W28550  14.400   1.076   0.297
56935W        W28551  32.416  35.455  13.484
56936W        W28552  37.047  19.307   4.122
56937W        W28553  19.235   6.432  12.091
56938W        W28554  18.093   2.618   3.448
56939W        W28555  13.708   2.143  13.340
56940W        W28556  15.758  26.612   3.208
56941W        W28557  14.863   4.895   4.618
56942W        W28558  11.452  11.934   2.294
56943W        W28559  26.219  31.585   1.490
56944W        W28560  44.967   4.889   2.766
56945W        W28561   9.530  29.341   2.546
56946W        W28562   1.305  14.317   3.730
56947W        W28563  26.139  24.485  13.926
56948W        W28564  14.566  30.113   5.004
56949W        W28565   6.452  14.340  12.116
56950W        W28566  38.563  15.601  13.946
56951W        W28567  26.487  17.090   4.734
56952W        W28568  20.142   6.742   0.331
56953W        W28569  18.172   3.468   0.229
56954W        W28570  11.235  43.059  12.044
56955W        W28571  16.283   7.978   4.132
56956W        W28572  38.645  11.355  12.341
56957W        W28573  11.878   1.385  14.176
56958W        W28574  18.939  20.470   2.192
56959W        W28575  13.761  24.111   3.677
56960W        W28576   1.992   5.713   3.267
56961W        W28577   5.349  39.070  13.316
56962W        W28578   3.420  40.075  10.733
56963W        W28579  18.120  35.645   0.843
56964W        W28580   4.244  12.089   3.231
56965W        W28581  14.281  28.098  12.948
56966W        W28582   7.946   2.202  12.939
56967W        W28583  39.899  14.410  14.994
56968W        W28584  44.622  33.331  11.563
56969W        W28585  24.168  23.331   1.371
56970W        W28586  39.033  10.715   0.496
56971W        W28587  34.869  20.143  13.122
56972W        W28588  43.480  11.172  14.712
56973W        W28589  11.386  23.870  13.999
56974W        W28590  15.069  30.439  13.427
56975W        W28591  10.617   3.745  13.453
56976W        W28592  39.831   2.202  11.756
56977W        W28593  10.130  33.135  12.055
56978W        W28594  18.619  34.323  12.566
56979W        W28595  42.944   6.189   4.496
56980W        W28596  42.287  39.558  12.883
56981W        W28597   3.009   3.656   2.916
56982W        W28598  40.464  36.925   3.645
56983W        W28599  18.185   8.075   4.719
56984W        W28600   4.707  30.702  10.700
56985W        W28601  36.281  44.582   0.744
56986W        W28602  13.807  41.337  14.769
56987W        W28603  27.585  40.691  14.349
56988W        W28604  23.049  36.829   4.160
56989W        W28605  22.271  31.456   3.325
56990W        W28606  41.960  25.148   2.854
56991W        W28607  25.793   1.149  10.865
56992W        W28608  27.124   6.522   2.751
56993W        W28609  43.814   6.198  12.454
56994W        W28610  30.057   3.394   0.822
56995W        W28611  24.627  38.524   4.567
56996W        W28612  32.697  44.386  13.018
56997W        W28613  39.794  36.278   1.073
56998W        W28614  42.927   3.477  14.960
56999W        W28615  35.089  28.579  14.994
57000W        W28616  15.088  36.375  11.268
57001W        W28617  26.131  24.612  12.571
57002W        W28618   5.714  33.972  10.497
57003W        W28619  10.589   8.266  13.945
57004W        W28620  30.643  29.742  11.660
57005W        W28621  33.066  26.955   0.190
57006W        W28622   1.669   2.348  14.754
57007W        W28623  21.781   0.994   2.294
57008W        W28624  21.994  25.321   0.276
57009W        W28625  19.688   4.721   0.759
57010W        W28626  23.909   8.432  11.852
57011W        W28627   2.852  14.380  11.035
57012W        W28628  24.776  16.633  13.376
57013W        W28629  44.295  41.036  13.274
57014W        W28630  41.437  39.287   4.596
57015W        W28631  23.176  30.410   4.709
57016W        W28632   2.984  41.870   4.257
57017W        W28633  23.054   6.970  11.561
57018W        W28634   5.822  36.032   2.676
57019W        W28635   9.722   3.426   1.938
57020W        W28636  15.620  35.573   0.406
57021W        W28637  12.677  41.234   3.246
57022W        W28638  41.522   5.209   1.154
57023W        W28639  16.850  18.531   0.703
57024W        W28640   6.827  26.026   0.073
57025W        W28641   9.261  38.456   0.827
57026W        W28642  24.779  43.693  11.473
57027W        W28643  18.506  29.998  12.066
57028W        W28644   1.348  28.152   3.725
57029W        W28645  17.105  41.257  12.936
57030W        W28646  28.518  36.939  13.892
57031W        W28647  23.752  35.108  13.549
57032W        W28648  14.890  22.998   1.784
57033W        W28649  16.790  38.042  11.956
57034W        W28650  31.892  24.981  13.352
57035W        W28651  14.108   0.505  11.678
57036W        W28652  11.403  39.906   3.518
57037W        W28653  10.158   0.913  13.063
57038W        W28654  22.698  39.591   2.312
57039W        W28655  34.219  43.373  10.853
57040W        W28656  11.397  43.394   0.858
57041W        W28657  34.468   9.657  11.055
57042W        W28658  44.953  41.989   2.710
57043W        W28659  39.443  26.475   1.381
57044W        W28660  17.657  25.909   0.928
57045W        W28661  39.571  37.914   0.388
57046W        W28662  23.130   1.041   4.478
57047W        W28663  23.105   7.414  11.309
57048W        W28664  11.654  22.757  14.722
57049W        W28665  14.113  27.780  13.431
57050W        W28666   4.346  29.345   3.141
57051W        W28667  20.062  30.051  13.413
57052W        W28668  38.779  26.862   1.866
57053W        W28669   8.416  42.775  12.045
57054W        W28670  18.694  28.972  10.545
57055W        W28671  36.137  37.105   0.343
57056W        W28672  34.493  30.931   0.908
57057W        W28673  33.001  28.327   2.418
57058W        W28674  22.510  20.826  10.546
57059W        W28675   1.808  28.145   0.974
57060W        W28676  40.523  34.206  11.589
57061W        W28677  41.269  22.481   2.849
57062W        W28678  13.397  18.227  10.495
57063W        W28679  15.243  19.142  14.353
57064W        W28680  29.550  44.362   0.345
57065W        W28681  42.732  15.085   2.782
57066W        W28682   6.832  17.636  12.834
57067W        W28683  34.589  22.576   3.385
57068W        W28684   6.917  30.389   0.846
57069W        W28685  31.633  31.350  11.554
57070W        W28686  26.725  33.643  11.099
57071W        W28687  14.019  44.443  14.912
57072W        W28688   1.326  34.616   4.673
57073W        W28689   9.670  19.027   0.104
57074W        W28690  17.640  36.846  11.459
57075W        W28691  42.471  35.514   9.785
57076W        W28692  16.759   0.367   4.291
57077W        W28693  26.666  33.766   4.612
57078W        W28694  10.369  42.001  11.592
57079W        W28695   8.472  25.085   4.498
57080W        W28696   8.503   7.846  13.377
57081W        W28697  29.501  37.025   4.141
57082W        W28698  17.284  13.140  10.997
57083W        W28699  15.771  24.089   2.876
57084W        W28700  10.753  44.896  11.251
57085W        W28701   3.237   4.398   1.204
57086W        W28702  15.162  30.491   4.555
57087W        W28703  20.766   3.822   4.041
57088W        W28704   5.960  20.074   1.724
57089W        W28705  21.464  10.295   2.340
57090W        W28706  10.692   6.320   1.796
57091W        W28707   2.026   0.501   3.620
57092W        W28708  18.605  15.593  12.150
57093W        W28709  35.520  40.815   2.341
57094W        W28710  10.639  15.106  13.732
57095W        W28711  41.313  38.515  14.389
57096W        W28712  40.837  22.058  14.299
57097W        W28713   1.239  14.248  12.624
57098W        W28714  32.928  13.299  12.190
57099W        W28715  18.039   4.574   3.839
57100W        W28716  19.672  11.281  10.630
57101W        W28717   0.415  21.004  10.082
57102W        W28718  40.274  23.536   3.235
57103W        W28719  30.552  30.354  14.988
57104W        W28720   8.299  25.202  14.499
57105W        W28721  29.155  32.582   1.845
57106W        W28722  28.970   2.922   0.298
57107W        W28723  42.074  16.761   2.741
57108W        W28724  25.302  36.890   0.353
57109W        W28725  10.425   9.204   2.320
57110W        W28726   1.511  30.134  12.585
57111W        W28727   6.906  32.700   2.939
57112W        W28728  28.373  36.583   4.539
57113W        W28729  12.283  28.593   1.130
57114W        W28730  17.559  26.746   1.138
57115W        W28731   4.648  29.092   4.037
57116W        W28732  31.851  36.851   0.975
57117W        W28733  17.928  18.743  11.034
57118W        W28734   0.337  43.907  12.090
57119W        W28735  27.686   3.710   4.667
57120W        W28736  35.994   2.384  12.067
57121W        W28737   6.423   3.037  13.866
57122W        W28738   7.863   1.509  14.431
57123W        W28739  23.836  30.427  12.129
57124W        W28740  17.069  34.321   3.119
57125W        W28741   4.704  23.569   0.964
57126W        W28742  20.229  19.253  11.635
57127W        W28743  17.526  30.339   3.781
57128W        W28744  42.276  30.775  13.898
57129W        W28745  34.322   3.432  10.677
57130W        W28746  27.647  29.324  14.778
57131W        W28747  11.431  25.947   4.162
57132W        W28748  25.431  44.040   5.061
57133W        W28749  35.657   0.614  10.641
57134W        W28750  18.315  40.335  14.529
57135W        W28751  30.474  15.071  11.980
57136W        W28752  35.417  21.479  10.548
57137W        W28753  27.713  35.116  13.428
57138W        W28754  39.305  20.235   0.539
57139W        W28755  22.619   4.948   0.255
57140W        W28756  15.634  33.317   1.809
57141W        W28757  21.019  33.150  13.608
57142W        W28758  24.300  20.620   2.357
57143W        W28759  33.245  40.486   4.045
57144W        W28760  37.613   2.745   3.150
57145W        W28761   6.818  10.520   0.791
57146W        W28762  35.032   2.802   1.407
57147W        W28763  20.314  24.409   4.849
57148W        W28764  16.110  28.401  14.870
57149W        W28765  25.579  24.126   0.081
57150W        W28766  25.928  37.454   3.131
57151W        W28767  15.525  16.654   0.325
57152W        W28768  43.947  44.261   3.671
57153W        W28769  37.885  37.602   3.168
57154W        W28770   6.835  41.933   4.074
57155W        W28771   3.270  40.324   0.425
57156W        W28772   8.750  34.048   1.746
57157W        W28773  10.247   2.457   2.210
57158W        W28774  38.033  24.706   4.717
57159W        W28775   4.926  32.604  10.571
57160W        W28776  17.630  23.626   0.033
57161W        W28777  22.033  35.157   4.814
57162W        W28778  16.032  25.559  13.802
57163W        W28779  27.026  17.102   4.679
57164W        W28780  44.978  22.391   4.675
57165W        W28781  16.208  35.858  13.833
57166W        W28782  18.815  33.897  11.558
57167W        W28783  23.566   7.005   0.280
57168W        W28784   5.956  39.359  12.242
57169W        W28785  37.024  30.583   4.947
57170W        W28786  18.687   0.509   2.208
57171W        W28787  26.535  29.593   2.877
57172W        W28788   9.728  23.474  12.427
57173W        W28789  22.813  41.520  11.584
57174W        W28790  23.000  35.333   1.248
57175W        W28791  23.629  28.493  13.335
57176W        W28792  20.117  24.122   4.120
57177W        W28793  32.050  19.180   1.804
57178W        W28794  38.784  13.514   4.167
57179W        W28795  11.088  42.170   3.761
57180W        W28796  41.394  21.017   9.939
57181W        W28797   4.649   9.771  11.209
57182W        W28798  44.845  31.374  12.930
57183W        W28799  27.553  25.618   2.942
57184W        W28800  40.185   0.485   4.510
57185W        W28801  22.688  44.249   1.434
57186W        W28802  18.856  16.226   4.005
57187W        W28803  17.669  27.894   0.840
57188W        W28804   7.539  27.255  14.691
57189W        W28805  13.735   0.826  13.931
57190W        W28806  25.814  34.199  10.770
57191W        W28807  26.602  22.847   2.297
57192W        W28808  16.075   3.259   3.899
57193W        W28809  36.064   1.953  10.534
57194W        W28810  16.232   4.836  12.899
57195W        W28811  26.718  36.753   4.963
57196W        W28812   9.530   9.174   0.715
57197W        W28813   0.631  28.183   4.092
57198W        W28814  21.095   2.195   0.449
57199W        W28815   4.976   0.454   4.241
57200W        W28816   9.658  11.857  14.882
57201W        W28817  42.922  37.482   4.352
57202W        W28818   2.391  43.486  11.566
57203W        W28819  29.308  38.592  14.330
57204W        W28820  27.386  27.022  11.598
57205W        W28821  35.413  37.452  12.124
57206W        W28822  16.491  38.876   2.716
57207W        W28823   5.239  30.082  14.819
57208W        W28824  40.490  43.376   4.821
57209W        W28825  25.180  30.698   2.957
57210W        W28826   4.457   0.234   3.379
57211W        W28827  37.533   2.874  14.727
57212W        W28828   4.805  44.802  13.565
57213W        W28829   5.405   4.640  10.905
57214W        W28830  25.125  40.109  13.486
57215W        W28831  26.654  18.028  11.743
57216W        W28832   4.620  38.703   5.171
57217W        W28833  38.497  10.825  10.616
57218W        W28834  24.436   3.685   1.263
57219W        W28835  37.045  20.990  13.070
57220W        W28836  27.571  26.038  12.883
57221W        W28837   9.327  28.689   1.363
57222W        W28838  42.554  24.251  14.342
57223W        W28839   4.674   6.771  13.149
57224W        W28840   7.427  35.345   1.497
57225W        W28841  27.051  44.579  12.077
57226W        W28842  39.940   7.430  13.408
57227W        W28843   4.354   2.957   2.276
57228W        W28844  15.169   9.658   1.546
57229W        W28845  29.393  12.565   0.799
57230W        W28846  17.460  24.138   2.376
57231W        W28847   2.188  26.936   4.188
57232W        W28848  35.763  13.048  14.763
57233W        W28849   5.664  12.566  11.126
57234W        W28850  43.376  37.897  13.582
57235W        W28851  34.520  23.488   1.789
57236W        W28852  32.321  27.271  14.884
57237W        W28853   9.632  16.444   4.711
57238W        W28854   5.778  21.436   1.149
57239W        W28855  36.569  40.466   1.403
57240W        W28856  14.248   2.355  14.334
57241W        W28857  35.836   5.033  11.402
57242W        W28858  19.136   1.671   0.400
57243W        W28859  39.678  34.108   0.783
57244W        W28860  11.988   7.182   3.246
57245W        W28861  16.985   0.784   0.760
57246W        W28862  42.844  11.343   3.314
57247W        W28863  37.933  42.974  10.973
57248W        W28864   1.935  35.929   3.338
57249W        W28865  15.179  12.221  14.754
57250W        W28866  20.978  22.393   4.933
57251W        W28867   6.866  12.876  13.350
57252W        W28868  15.776  38.262   3.646
57253W        W28869  23.584  36.530  14.262
57254W        W28870   6.268  23.370   4.097
57255W        W28871  31.550  14.094  12.043
57256W        W28872  18.830  34.045   0.717
57257W        W28873  43.372  26.515   3.185
57258W        W28874  18.830  35.989   0.860
57259W        W28875  32.419  21.686   1.388
57260W        W28876  32.786   9.751   0.375
57261W        W28877  39.442  24.744  14.996
57262W        W28878  31.249  29.455  12.248
57263W        W28879  38.354  40.488  12.461
57264W        W28880  23.722  34.395  12.012
57265W        W28881  22.813  42.216  13.906
57266W        W28882   7.663  44.863   3.678
57267W        W28883  40.426  25.425  11.777
57268W        W28884   0.751  11.301  12.241
57269W        W28885  42.795  20.027   0.015
57270W        W28886  37.005   8.419   1.705
57271W        W28887  19.085  40.399   2.836
57272W        W28888  11.919  13.789  13.867
57273W        W28889  16.248   3.370  14.389
57274W        W28890  22.626   2.437   4.421
57275W        W28891  24.829  12.669  14.521
57276W        W28892  18.757  27.615   4.134
57277W        W28893  25.191  13.355   0.529
57278W        W28894   9.314  15.622  14.006
57279W        W28895  35.645   3.803   0.945
57280W        W28896  39.894  44.402  10.671
57281W        W28897  23.811   7.437   3.495
57282W        W28898  21.807  26.384  12.866
57283W        W28899   3.946   9.268  13.820
57284W        W28900   9.414   3.861   0.845
57285W        W28901  29.745  38.925  14.571
57286W        W28902  25.287   2.813   2.852
57287W        W28903  30.013  32.823  13.811
57288W        W28904  42.324  21.509   1.785
57289W        W28905  34.246   9.434  12.048
57290W        W28906  21.898  40.556  11.379
57291W        W28907  28.979  23.231  11.161
57292W        W28908  36.940  28.052  13.314
57293W        W28909   7.803   7.654   0.534
57294W        W28910  37.465  31.646   2.141
57295W        W28911  17.684  17.844  10.045
57296W        W28912   2.608  13.490  11.180
57297W        W28913   3.503  22.486  10.270
57298W        W28914  40.027  44.915  14.903
57299W        W28915  29.382  30.322   5.492
57300W        W28916  40.170   5.020   1.817
57301W        W28917  41.631  10.903   0.424
57302W        W28918  43.108  42.470  14.847
57303W        W28919  21.639  10.460  13.907
57304W        W28920   3.718  16.718   3.641
57305W        W28921   7.315  13.091  13.567
57306W        W28922  43.341  43.741  12.981
57307W        W28923  27.699  34.768  11.477
57308W        W28924  44.417  36.738  11.497
57309W        W28925  33.830  39.463  14.669
57310W        W28926   4.530  12.276  11.970
57311W        W28927   6.803  15.843  13.786
57312W        W28928  21.181  27.644   2.257
57313W        W28929  36.050  13.303   1.737
57314W        W28930  35.120   2.332   4.613
57315W        W28931   2.340  23.016   4.564
57316W        W28932  12.140  30.423   4.255
57317W        W28933  14.271   0.002   3.164
57318W        W28934  23.054  35.317  12.363
57319W        W28935  39.141  41.499   3.680
57320W        W28936  39.084   3.087   4.338
57321W        W28937   6.587   6.837   2.651
57322W        W28938  20.642  34.122   3.126
57323W        W28939  20.262  20.652   3.374
57324W        W28940  15.643  33.523  12.468
57325W        W28941  28.135  42.848  13.927
57326W        W28942  19.162   5.301  11.134
57327W        W28943   6.129  35.765  12.889
57328W        W28944   6.515   5.271   2.987
57329W        W28945  24.988  19.815   3.669
57330W        W28946  22.886  35.637   2.319
57331W        W28947  23.955  11.036   2.217
57332W        W28948  18.160  41.030   4.101
57333W        W28949   7.070  29.317   1.271
57334W        W28950  16.207  26.177   0.527
57335W        W28951  37.568  43.992  10.791
57336W        W28952  33.966  32.232   0.374
57337W        W28953  43.544   8.118  12.485
57338W        W28954  21.926   7.145   1.774
57339W        W28955  37.971  16.605  13.658
57340W        W28956   7.827  44.346  13.868
57341W        W28957  23.985  13.846  14.301
57342W        W28958  18.596  33.453   2.815
57343W        W28959  35.485  16.222   4.379
57344W        W28960  25.482  38.207   3.673
57345W        W28961   1.516  20.460   3.707
57346W        W28962  33.529   1.697   5.535
57347W        W28963   0.569  38.167   1.853
57348W        W28964  16.732  21.442  11.778
57349W        W28965  10.882  27.128  11.225
57350W        W28966  43.965  12.107  11.990
57351W        W28967  11.233   8.328  13.145
57352W        W28968  41.806  22.022  12.572
57353W        W28969  22.119  20.951   0.817
57354W        W28970   7.321  30.168   1.683
57355W        W28971  42.888  36.542  11.531
57356W        W28972  13.952  30.015  11.054
57357W        W28973   5.871   0.722  13.135
57358W        W28974  22.776  11.349   1.742
57359W        W28975  28.934   3.555  12.562
57360W        W28976  14.259  41.877   1.382
57361W        W28977  23.292  33.017  11.019
57362W        W28978   7.351  36.249   1.620
57363W        W28979  19.116  22.746  13.470
57364W        W28980  31.930  17.543  13.356
57365W        W28981  10.795   5.576   1.191
57366W        W28982  29.890  37.464  13.608
57367W        W28983  13.298  17.592  14.328
57368W        W28984  41.845  25.369   0.290
57369W        W28985  12.615   8.841   2.376
57370W        W28986  27.572  17.841  14.786
57371W        W28987   1.027   8.903   0.236
57372W        W28988  15.579  38.456  10.501
57373W        W28989  38.095  17.370  13.693
57374W        W28990   3.706  34.973   3.257
57375W        W28991  42.545   6.257   1.453
57376W        W28992  13.219   0.611   1.147
57377W        W28993  21.577  17.126  13.409
57378W        W28994  17.032  20.033   4.131
57379W        W28995  13.353  34.420   1.916
57380W        W28996  36.564  26.060   4.750
57381W        W28997  30.425  13.673  13.274
57382W        W28998  39.069  27.468  10.165
57383W        W28999  29.132  38.393   4.825
57384W        W29000   6.732  35.327  13.389
57385W        W29001  28.907  27.071   1.826
57386W        W29002  14.011  38.907  13.368
57387W        W29003  43.890  34.708  13.076
57388W        W29004   5.102  37.332   3.219
57389W        W29005  23.377  36.133  13.957
57390W        W29006  36.927  42.773  13.667
57391W        W29007  42.313  27.122   1.904
57392W        W29008  13.316   9.210  11.535
57393W        W29009  11.180  13.228   0.357
57394W        W29010  27.432  14.813   4.806
57395W        W29011  16.676  32.266   0.337
57396W        W29012  16.892  30.010  12.083
57397W        W29013  41.070  35.892  12.478
57398W        W29014  18.283  42.986  12.555
57399W        W29015  37.036  16.827  10.679
57400W        W29016  23.436  34.610  14.837
57401W        W29017  12.930  42.013   0.261
57402W        W29018  23.886  18.160  13.674
57403W        W29019   6.214  14.123  12.521
57404W        W29020   7.403  30.049   2.197
57405W        W29021  34.847  14.183   2.710
57406W        W29022  26.173  43.056  14.941
57407W        W29023  35.314   9.036   2.670
57408W        W29024  13.094  14.705  12.893
57409W        W29025  43.917  11.729   1.208
57410W        W29026  13.285  44.467  13.096
57411W        W29027  29.767  25.121   0.331
57412W        W29028  19.852  26.415   0.749
57413W        W29029  41.303  26.016   3.835
57414W        W29030  25.261  23.023  10.570
57415W        W29031  27.864  36.399  12.422
57416W        W29032   6.981  30.160  11.103
57417W        W29033   6.060  19.317  12.148
57418W        W29034   9.656  25.550   0.289
57419W        W29035  42.024   7.746   4.023
57420W        W29036  40.415   9.386   4.202
57421W        W29037  17.099  25.644   0.220
57422W        W29038  39.335  41.550  13.655
57423W        W29039  25.763  28.880   2.785
57424W        W29040   0.826   7.218  11.559
57425W        W29041   6.338  25.205   3.408
57426W        W29042  17.669  19.493  11.793
57427W        W29043  27.026  39.384   1.609
57428W        W29044  40.031  36.593   1.432
57429W        W29045  13.430   2.739  12.938
57430W        W29046  21.200  36.969  13.081
57431W        W29047  35.028  26.739   1.685
57432W        W29048  41.817  19.701  14.321
57433W        W29049  12.349  33.756   2.128
57434W        W29050   1.930  31.587   3.367
57435W        W29051  40.957   6.896   0.913
57436W        W29052  32.586  36.571   3.279
57437W        W29053  17.907  15.007  13.507
57438W        W29054  39.888  40.326  11.718
57439W        W29055   1.388   4.340  11.605
57440W        W29056  38.012   1.821   2.730
57441W        W29057  28.023  25.661   4.705
57442W        W29058  43.587  37.695  11.947
57443W        W29059   3.797   1.212  11.540
57444W        W29060  14.776  36.187   4.714
57445W        W29061   1.426  36.680  14.010
57446W        W29062  33.463   6.008   2.863
57447W        W29063   2.423  27.886  12.864
57448W        W29064  21.701  31.575   1.273
57449W        W29065  29.934  24.240  13.502
57450W        W29066   3.433  11.774   1.884
57451W        W29067  20.692   3.450   3.309
57452W        W29068  34.383  44.563   2.640
57453W        W29069  21.767   5.328  11.836
57454W        W29070  36.489  37.087   3.135
57455W        W29071  12.223   1.941   0.799
57456W        W29072  25.552  26.029   1.341
57457W        W29073  16.118   7.233   1.424
57458W        W29074  16.854  43.407  13.744
57459W        W29075  12.067  27.929  14.319
57460W        W29076  25.439  24.089   1.484
57461W        W29077   7.853  38.823  13.570
57462W        W29078   3.331  44.529   2.831
57463W        W29079  34.079   6.433  10.275
57464W        W29080  20.622  27.416   4.651
57465W        W29081   0.576  17.463   4.896
57466W        W29082   1.938   6.144   2.382
57467W        W29083  15.550  17.492  12.909
57468W        W29084  24.158  31.878   2.798
57469W        W29085  35.894  40.318  10.678
57470W        W29086   3.480  14.514  14.769
57471W        W29087  27.502  19.010   0.950
57472W        W29088  16.097  35.492   4.123
57473W        W29089  40.548  43.697  10.679
57474W        W29090  21.676   1.548   4.351
57475W        W29091  28.300  13.718  10.565
57476W        W29092  35.844  23.013  13.603
57477W        W29093   6.379  39.508   4.347
57478W        W29094  41.490  17.662  13.760
57479W        W29095  10.211  23.624   3.927
57480W        W29096  41.963  18.498   3.724
57481W        W29097  17.879  25.061  12.444
57482W        W29098   9.304  44.977   2.721
57483W        W29099   9.377  16.361   4.239
57484W        W29100  23.059  15.795  13.193
57485W        W29101  23.751  43.050   0.882
57486W        W29102  11.589  18.873   4.264
57487W        W29103  11.779  25.758  12.454
57488W        W29104  24.204  20.045  14.575
57489W        W29105   2.894  11.110   3.253
57490W        W29106  16.082  32.007  14.064
57491W        W29107  42.918  43.802  11.561
57492W        W29108   2.662   5.787   0.695
57493W        W29109  20.075   2.933   0.077
57494W        W29110  39.530  29.887   2.752
57495W        W29111  20.149  12.894  10.715
57496W        W29112  12.564   5.933  14.947
57497W        W29113  38.387  16.509  12.687
57498W        W29114  23.477  44.369  12.856
57499W        W29115  43.300  27.157   4.435
57500W        W29116  18.048  38.416  10.882
57501W        W29117  37.474  24.098   3.355
57502W        W29118  30.574  10.241  12.260
57503W        W29119   5.821  37.364  10.534
57504W        W29120  27.510  26.562  10.746
57505W        W29121  36.923  40.166   2.784
57506W        W29122   8.138   4.250  11.164
57507W        W29123  18.123   2.390  14.001
57508W        W29124  41.276  26.575  14.248
57509W        W29125  28.108  10.371   1.312
57510W        W29126  42.182  14.256   2.652
57511W        W29127  33.413  14.818   3.776
57512W        W29128  34.416  41.922  10.836
57513W        W29129  11.078  41.617  12.892
57514W        W29130  16.548   2.212   0.775
57515W        W29131  30.377  17.086   0.796
57516W        W29132  36.885  21.991   3.478
57517W        W29133  15.039   9.972   1.169
57518W        W29134  36.843  28.155  11.653
57519W        W29135  18.003  44.534  10.233
57520W        W29136   9.746   2.088   1.378
57521W        W29137  10.265  28.728   2.375
57522W        W29138  44.880  23.242   0.725
57523W        W29139  18.046  10.750   4.491
57524W        W29140  40.123  23.061  14.740
57525W        W29141  18.109  17.775   2.205
57526W        W29142  23.503  36.876   3.325
57527W        W29143  38.514  23.610   3.350
57528W        W29144   3.514  29.663  14.282
57529W        W29145  15.601   7.226   1.424
57530W        W29146   8.146  14.588  13.605
57531W        W29147   7.396  33.545   3.386
57532W        W29148  14.381  38.191   4.615
57533W        W29149   3.243   7.357   2.541
57534W        W29150  11.354  41.018   4.217
57535W        W29151  26.013  15.266   2.203
57536W        W29152  40.433  30.040   1.905
57537W        W29153   3.338   6.838   3.834
57538W        W29154  12.220  18.774   2.768
57539W        W29155   7.161  24.621  13.826
57540W        W29156  13.755  16.685   2.896
57541W        W29157  15.015  37.438  14.402
57542W        W29158  20.404  40.027  11.638
57543W        W29159   0.485  40.409  12.898
57544W        W29160  36.688  32.430  10.778
57545W        W29161  42.959  11.643  11.959
57546W        W29162  34.985  41.859   1.892
57547W        W29163  33.963  29.617   3.187
57548W        W29164  26.931  13.181  12.930
57549W        W29165  38.817  41.483  10.499
57550W        W29166  28.001   8.792   2.961
57551W        W29167  42.066  18.297  13.554
57552W        W29168  21.772   2.468   3.378
57553W        W29169  17.694  20.799   1.829
57554W        W29170  14.212   4.942  11.552
57555W        W29171  19.661  16.550  13.939
57556W        W29172  30.581  37.347  12.965
57557W        W29173  40.586  27.360  11.612
57558W        W29174  26.504  35.525  10.862
57559W        W29175  14.459  21.012  13.047
57560W        W29176  36.903  20.084   2.886
57561W        W29177   8.869   1.223   2.805
57562W        W29178  15.251   1.320  11.540
57563W        W29179  33.431   0.074  11.577
57564W        W29180  42.778  26.816   4.565
57565W        W29181  21.229  15.331   0.936
57566W        W29182  26.687  26.782   1.460
57567W        W29183  39.785  44.061   4.640
57568W        W29184  42.862   7.031  11.901
57569W        W29185  24.058   5.939   2.773
57570W        W29186  35.896   4.453   4.634
57571W        W29187  12.103  38.789  14.719
57572W        W29188  14.631   6.382   4.380
57573W        W29189  30.929  43.342   3.130
57574W        W29190  12.665  20.712   3.106
57575W        W29191  28.472  16.854  13.487
57576W        W29192  15.329  34.402  11.475
57577W        W29193  35.525  17.981   1.908
57578W        W29194   8.744  36.413   4.680
57579W        W29195  43.526  34.473   2.199
57580W        W29196  27.534  28.431   1.389
57581W        W29197  15.682   8.759  12.470
57582W        W29198  41.817  32.147   3.200
57583W        W29199   1.250  30.097  14.428
57584W        W29200   9.879  40.481  13.382
57585W        W29201   5.302  38.254   0.518
57586W        W29202  39.182  18.815   9.494
57587W        W29203   4.427  25.451   0.690
57588W        W29204   6.699  28.603   2.438
57589W        W29205   4.409  34.343  14.993
57590W        W29206  15.821  44.132  10.238
57591W        W29207   9.092   0.515   1.574
57592W        W29208  14.780  28.074  11.717
57593W        W29209  13.054  22.498   5.064
57594W        W29210  37.819  40.413  13.804
57595W        W29211   7.476   7.360   2.734
57596W        W29212  12.223  40.342   3.383
57597W        W29213  37.072  44.928   0.404
57598W        W29214  10.765  37.551  10.738
57599W        W29215  43.394   5.422   0.739
57600W        W29216   8.864  42.424  12.004
57601W        W29217  42.475  26.907   3.290
57602W        W29218  25.647  38.975   3.322
57603W        W29219   5.994  26.328  10.689
57604W        W29220  26.118  43.095  11.383
57605W        W29221  25.239  30.859  14.799
57606W        W29222  12.690  27.664   0.994
57607W        W29223   4.690  18.114  10.950
57608W        W29224   2.323  21.099   3.894
57609W        W29225  25.688  31.053   4.196
57610W        W29226  12.379  34.102   1.743
57611W        W29227  37.320  23.059  11.149
57612W        W29228   0.171   1.448  10.598
57613W        W29229  19.903   0.322  12.589
57614W        W29230  16.651  12.718  13.438
57615W        W29231  28.750  11.345   1.796
57616W        W29232  24.225   1.422  11.531
57617W        W29233  41.777  28.670  12.218
57618W        W29234  22.403  16.267  10.961
57619W        W29235   6.378  32.293  11.612
57620W        W29236  28.454   6.405  10.535
57621W        W29237   5.266  14.330   0.479
57622W        W29238   0.233  35.868  10.605
57623W        W29239  36.283  21.585  13.159
57624W        W29240  29.452  29.912  11.439
57625W        W29241  21.099  27.993   1.263
57626W        W29242  13.915  29.106   1.287
57627W        W29243  16.706  42.067  13.933
57628W        W29244  17.091  28.866   4.067
57629W        W29245  25.552  26.124  12.298
57630W        W29246  29.091  41.923  10.795
57631W        W29247  11.130  10.917  13.459
57632W        W29248  11.403   8.484   1.417
57633W        W29249  37.777  30.398   2.194
57634W        W29250  18.318  36.417   1.349
57635W        W29251  37.656  37.264   4.065
57636W        W29252  13.352   5.176   1.846
57637W        W29253  28.676  38.002  11.892
57638W        W29254  25.162  11.804  14.535
57639W        W29255  41.574  33.557   1.130
57640W        W29256   8.746   2.719  14.017
57641W        W29257  34.413  11.588  11.062
57642W        W29258  29.462   7.065  14.585
57643W        W29259  31.718  17.520  14.865
57644W        W29260   6.810  26.639  10.951
57645W        W29261  44.434  15.039  10.431
57646W        W29262  16.524   8.337   1.361
57647W        W29263  42.714  18.274   1.905
57648W        W29264  30.182  23.851  13.227
57649W        W29265  26.298  23.186  14.035
57650W        W29266  20.734  36.652   4.369
57651W        W29267  34.894  23.241  11.999
57652W        W29268   6.690  28.604   0.672
57653W        W29269  33.359   2.867   3.861
57654W        W29270  30.695  17.723   1.574
57655W        W29271  20.272  35.937   1.409
57656W        W29272  13.606   0.299  13.026
57657W        W29273  44.001  22.301   2.171
57658W        W29274   2.703  27.486   3.695
57659W        W29275   3.009  29.606   4.533
57660W        W29276  20.502   4.318  10.662
57661W        W29277   4.888   6.020   0.503
57662W        W29278  13.458  35.826  13.175
57663W        W29279  32.223   3.332   4.002
57664W        W29280  24.198  43.933   3.244
57665W        W29281  36.480  29.498   4.562
57666W        W29282   3.191  41.489   2.642
57667W        W29283  38.002  18.803   0.977
57668W        W29284  39.025  41.976  10.602
57669W        W29285   6.796   9.345   4.074
57670W        W29286  16.788  15.324  10.549
57671W        W29287  35.168   1.020  11.631
57672W        W29288  26.611  33.162  13.369
57673W        W29289  21.710   2.018   5.088
57674W        W29290  41.968  38.113   2.365
57675W        W29291  14.433  13.214  14.619
57676W        W29292  30.550  40.008  13.459
57677W        W29293   4.211   0.820  12.705
57678W        W29294  20.043  43.070  12.233
57679W        W29295  18.014  39.557   4.532
57680W        W29296  31.509  40.383   2.749
57681W        W29297  43.836  39.672  13.472
57682W        W29298   9.799  35.096   3.566
57683W        W29299   6.533  13.145  11.107
57684W        W29300   4.260  15.858  11.009
57685W        W29301  24.022   7.930  12.584
57686W        W29302  16.000   4.998  11.552
57687W        W29303   4.129   0.096   0.385
57688W        W29304  34.001  35.627   3.124
57689W        W29305  25.116   2.550   0.907
57690W        W29306  17.527  25.544   4.457
57691W        W29307   4.272  31.343   1.308
57692W        W29308  22.847  20.742  14.337
57693W        W29309  23.059  38.390   1.766
57694W        W29310  41.447  37.029  11.163
57695W        W29311  18.486  20.909   3.266
57696W        W29312  19.573  36.604   2.842
57697W        W29313  29.550   6.658  14.900
57698W        W29314   9.250  35.107   4.833
57699W        W29315  12.855  21.522  14.913
57700W        W29316  37.392  29.448  14.737
57701W        W29317  37.128  23.387   4.598
57702W        W29318   9.128  22.773   4.953
57703W        W29319  37.815   9.782   5.031
57704W        W29320  13.283  36.794   2.137
57705W        W29321  11.622  13.861   0.257
57706W        W29322  24.080   1.924  12.247
57707W        W29323   3.292  27.140   1.734
57708W        W29324  19.587  31.124   2.704
57709W        W29325  17.680  43.737   3.318
57710W        W29326  41.453  33.974  14.634
57711W        W29327  16.554  25.620  14.464
57712W        W29328  16.379  39.100   2.257
57713W        W29329  33.360  13.110  10.115
57714W        W29330  28.416   9.422  13.848
57715W        W29331  33.122  26.650  12.995
57716W        W29332  19.795  25.197   1.087
57717W        W29333  27.208   7.690   2.098
57718W        W29334   7.397  38.491   4.658
57719W        W29335  21.517   4.693  14.475
57720W        W29336  26.494   8.565   0.318
57721W        W29337   0.955  35.260   4.036
57722W        W29338  20.667  18.953  11.549
57723W        W29339  10.574  21.826  10.158
57724W        W29340  16.619  43.806   4.655
57725W        W29341  17.229  11.131   2.368
57726W        W29342  14.245  28.954   3.293
57727W        W29343  37.155  28.810  13.950
57728W        W29344  31.946   7.123  12.843
57729W        W29345  42.990   0.724   1.386
57730W        W29346  14.855  33.453   1.337
57731W        W29347  38.473  20.508   2.259
57732W        W29348  16.989  43.664  12.459
57733W        W29349  24.472   8.883   2.354
57734W        W29350   5.273   9.829  10.593
57735W        W29351  42.770  18.203  12.141
57736W        W29352  34.153  16.142  11.932
57737W        W29353  39.329  18.500   1.838
57738W        W29354  17.165  25.116  11.297
57739W        W29355  29.259   9.236   4.834
57740W        W29356   4.708  26.603  13.066
57741W        W29357  37.491   1.340   2.611
57742W        W29358  21.733  39.439   3.042
57743W        W29359   8.184  31.323   1.781
57744W        W29360  30.162  23.169  11.176
57745W        W29361  41.676  21.795  12.058
57746W        W29362  12.677  37.120  10.904
57747W        W29363  37.004   4.328   1.913
57748W        W29364  13.046   0.859   2.806
57749W        W29365   5.394  39.928   1.247
57750W        W29366  16.604  17.079   4.132
57751W        W29367  25.384  34.526  14.779
57752W        W29368  28.043   2.297  14.017
57753W        W29369  36.045  29.564  14.885
57754W        W29370  33.986   8.382  11.618
57755W        W29371   8.804  38.931   0.377
57756W        W29372   0.126  22.591   1.000
57757W        W29373   9.560  31.501  14.660
57758W        W29374  28.904   6.687  14.387
57759W        W29375  25.702  35.017   0.365
57760W        W29376  11.790  24.178  12.246
57761W        W29377  33.502   2.716   4.848
57762W        W29378  40.548   9.437  12.427
57763W        W29379  38.904   1.557   4.767
57764W        W29380  26.683  42.723   0.852
57765W        W29381  17.159  35.039  14.344
57766W        W29382  30.071   9.109  12.927
57767W        W29383  37.436   8.979  10.573
57768W        W29384  12.857  20.265   3.299
57769W        W29385  17.613   8.715   2.690
57770W        W29386  25.218  44.733   3.911
57771W        W29387   5.985  40.813   1.123
57772W        W29388  38.041  26.028   1.254
57773W        W29389  20.009  10.911  10.605
57774W        W29390  21.701   4.860   0.434
57775W        W29391  28.397  32.921   0.734
57776W        W29392  16.756   2.664   0.964
57777W        W29393  26.245  34.492   0.899
57778W        W29394  22.681  30.513   4.608
57779W        W29395   8.218  21.324  14.055
57780W        W29396  26.445  24.016  11.112
57781W        W29397  43.137   8.143  11.153
57782W        W29398  34.172  27.359  11.098
57783W        W29399  25.139  37.907   2.349
57784W        W29400   6.132  41.804   1.202
57785W        W29401  27.163   0.789   2.238
57786W        W29402  28.222  14.840  11.896
57787W        W29403   0.332  26.777   4.184
57788W        W29404  19.231  36.629  13.892
57789W        W29405  29.934  25.533  13.999
57790W        W29406  42.034   0.539   2.722
57791W        W29407   9.275  35.103   4.327
57792W        W29408  35.068  27.036   1.230
57793W        W29409   8.956  25.317  13.748
57794W        W29410  28.039  33.538   1.470
57795W        W29411  11.037  23.937   3.721
57796W        W29412  27.460  44.790   0.415
57797W        W29413  39.161  11.976   0.744
57798W        W29414  42.576   3.792  14.481
57799W        W29415  34.389  11.731   4.626
57800W        W29416  42.422  24.088  12.598
57801W        W29417  27.858  22.534   4.163
57802W        W29418  38.038   3.742   0.925
57803W        W29419   6.377  41.916   4.345
57804W        W29420   1.816  34.419  13.140
57805W        W29421  13.801  29.888   2.779
57806W        W29422  19.858   0.686  11.005
57807W        W29423  36.587  14.057  10.012
57808W        W29424   0.312   6.671  10.926
57809W        W29425   9.860  20.089   4.131
57810W        W29426  22.510  17.604   1.732
57811W        W29427   2.511  12.605   1.251
57812W        W29428  33.107  24.453   4.130
57813W        W29429  26.058  44.124  13.825
57814W        W29430   4.859  39.844  11.638
57815W        W29431  36.583  13.033  13.326
57816W        W29432   8.363  26.152  14.515
57817W        W29433  37.378  27.537  10.684
57818W        W29434  40.409  41.399  10.446
57819W        W29435  32.328  28.467  13.652
57820W        W29436   0.805  42.322  11.480
57821W        W29437  34.501   5.804  11.159
57822W        W29438  36.590   2.444  10.998
57823W        W29439   7.846  15.794  13.990
57824W        W29440  19.405  31.088  10.695
57825W        W29441  37.658  25.623  12.230
57826W        W29442  36.928  25.159  12.649
57827W        W29443  38.817  21.265   4.040
57828W        W29444  32.198  18.249   2.969
57829W        W29445  41.342  24.183  13.431
57830W        W29446  25.237  30.796   4.254
57831W        W29447  44.269  33.924   0.108
57832W        W29448  30.038  39.129  14.970
57833W        W29449  26.824  40.511  12.459
57834W        W29450  25.912  41.617  10.987
57835W        W29451   5.368  16.658  13.742
57836W        W29452  24.771   4.260  13.907
57837W        W29453  22.275  19.092   0.616
57838W        W29454  13.522   9.388   3.366
57839W        W29455  32.316  29.896  11.589
57840W        W29456  30.679  20.798   1.201
57841W        W29457  10.669  33.915  12.518
57842W        W29458  34.143  35.860   3.549
57843W        W29459  33.556  25.163   3.635
57844W        W29460   7.647  25.120   2.341
57845W        W29461  30.495  17.356   2.692
57846W        W29462  38.460   9.690  12.408
57847W        W29463   7.115  36.090   3.275
57848W        W29464  15.351  31.864   2.156
57849W        W29465  19.197  43.284   3.307
57850W        W29466  18.821  23.099  11.076
57851W        W29467  16.720  40.700   4.657
57852W        W29468  15.823  14.754  11.074
57853W        W29469   3.134  28.318  14.138
57854W        W29470  10.165  33.698   3.732
57855W        W29471  26.649  29.987   2.179
57856W        W29472  11.122   4.121  10.583
57857W        W29473  11.898   7.047  12.583
57858W        W29474  35.624  17.605   0.948
57859W        W29475  28.470  24.725  14.001
57860W        W29476  24.312  18.413  13.942
57861W        W29477  20.855   6.824  10.470
57862W        W29478  11.155  40.262   3.204
57863W        W29479   5.372   8.707   3.204
57864W        W29480   3.009  33.724   0.928
57865W        W29481  23.000  19.674  14.779
57866W        W29482  21.457   6.436   2.851
57867W        W29483  16.274  33.823   3.758
57868W        W29484  16.129  34.612   3.294
57869W        W29485  34.791  32.375  10.988
57870W        W29486  22.000  44.263  13.807
57871W        W29487  36.525  17.758  12.438
57872W        W29488  33.146   7.720   0.461
57873W        W29489  29.704  27.260  11.558
57874W        W29490   4.249   5.319  12.674
57875W        W29491  10.744  41.998  10.576
57876W        W29492  13.635  25.869  11.408
57877W        W29493  38.936  29.017  12.543
57878W        W29494  25.602   0.549   5.180
57879W        W29495  34.757  43.262  12.052
57880W        W29496  11.717   7.760   3.897
57881W        W29497  15.047  17.748   4.544
57882W        W29498  33.071  42.360   3.488
57883W        W29499  41.850   5.732  12.381
57884W        W29500  33.572   3.575   0.258
57885W        W29501  13.267  20.227  14.714
57886W        W29502  10.092  26.242   0.911
57887W        W29503  15.269  11.179   3.404
57888W        W29504  38.161  24.722  13.395
57889W        W29505  44.052   3.217   4.118
57890W        W29506  33.935   8.820  10.391
57891W        W29507  25.268  10.423  14.874
57892W        W29508  28.953  17.128  11.878
57893W        W29509  11.765  18.909  12.361
57894W        W29510  28.726  19.188  11.362
57895W        W29511  10.672   9.923   4.179
57896W        W29512  33.007  14.358  14.333
57897W        W29513   5.662  23.752   2.811
57898W        W29514  15.177   9.165   3.730
57899W        W29515  31.010   7.929   0.796
57900W        W29516   6.302  33.116   2.897
57901W        W29517  42.858  10.981   2.874
57902W        W29518   4.443  27.710  10.621
57903W        W29519  25.064  26.065   0.362
57904W        W29520  14.123  12.174  13.150
57905W        W29521   9.213  16.117   4.680
57906W        W29522  36.607  25.787  12.493
57907W        W29523  17.232  12.343   3.689
57908W        W29524  17.336  38.811   3.356
57909W        W29525  42.363  23.585  12.464
57910W        W29526  36.455  14.123   5.223
57911W        W29527   2.337  22.532   2.317
57912W        W29528  10.289  27.623   1.405
57913W        W29529  39.480  35.078  11.185
57914W        W29530  11.601   4.868   3.135
57915W        W29531  40.510  15.465   2.276
57916W        W29532  21.485  12.834   1.792
57917W        W29533   5.535   4.647  11.455
57918W        W29534   9.150   3.789  11.580
57919W        W29535   9.171   5.838  13.498
57920W        W29536  28.893  24.063  11.881
57921W        W29537  43.403  41.959  13.497
57922W        W29538   1.227  23.121  13.176
57923W        W29539   2.566  17.617  13.625
57924W        W29540   5.194  41.237   1.811
57925W        W29541  20.691  20.559   1.725
57926W        W29542  34.514  43.288   4.315
57927W        W29543   7.404  33.688  14.396
57928W        W29544   0.998  27.667   4.548
57929W        W29545  25.654  35.083  14.858
57930W        W29546  42.828   8.250   0.479
57931W        W29547  37.972  41.063   1.366
57932W        W29548  33.205   6.209  10.643
57933W        W29549  21.632  40.950  12.647
57934W        W29550  27.507  28.920  13.809
57935W        W29551  40.593  10.732   0.194
57936W        W29552  15.857  34.113   1.286
57937W        W29553   2.743  15.398   1.298
57938W        W29554   6.419  42.462   1.968
57939W        W29555  19.940  15.627   1.089
57940W        W29556  32.260  26.255   1.361
57941W        W29557  30.737   2.960  10.481
57942W        W29558   5.934   8.782  11.704
57943W        W29559  43.411  20.250  10.618
57944W        W29560  14.367  26.102  12.013
57945W        W29561  11.551  24.003  11.328
57946W        W29562  40.385  38.404  10.894
57947W        W29563   7.360  27.594   2.317
57948W        W29564  18.754  33.855  12.398
57949W        W29565  12.648   2.572  12.572
57950W        W29566  15.946  21.721  12.214
57951W        W29567   3.396   5.862   4.513
57952W        W29568  11.067  25.733   4.485
57953W        W29569   6.339  22.123  12.006
57954W        W29570   4.814  30.573   1.799
57955W        W29571   0.531  24.191   5.441
57956W        W29572  28.601  13.366  14.495
57957W        W29573  19.322  37.501  12.536
57958W        W29574   2.413  31.462   3.232
57959W        W29575  43.299  10.855   0.675
57960W        W29576  34.203   2.255  13.692
57961W        W29577  21.217   5.970  10.996
57962W        W29578  25.344   7.461   2.692
57963W        W29579  40.529  14.686   4.387
57964W        W29580  30.541   7.452   4.228
57965W        W29581   5.341  37.184   2.710
57966W        W29582  42.675   2.058  14.822
57967W        W29583   2.941  20.182   1.703
57968W        W29584  41.875  29.064  11.925
57969W        W29585  22.955  31.687  13.949
57970W        W29586   7.621   8.692  12.602
57971W        W29587  25.108   8.173   1.284
57972W        W29588  29.198  19.660  12.498
57973W        W29589  30.468  23.276   1.378
57974W        W29590  26.145  36.295  14.484
57975W        W29591  25.667  20.699   4.273
57976W        W29592   8.336  20.927   3.781
57977W        W29593  29.432   5.878  12.159
57978W        W29594   4.953  26.399   4.953
57979W        W29595  21.080   8.648   2.629
57980W        W29596   6.782  36.374   0.901
57981W        W29597  42.499  33.955   0.810
57982W        W29598  22.081   8.189  12.402
57983W        W29599  33.496   1.342   4.254
57984W        W29600  38.494  17.624  10.749
57985W        W29601  22.478   8.635  10.769
57986W        W29602  26.790  27.462  10.662
57987W        W29603   9.206  28.062   2.524
57988W        W29604  12.237  44.946  11.779
57989W        W29605  37.328  26.910   0.049
57990W        W29606  10.547   4.331  14.603
57991W        W29607   4.001  17.841   1.783
57992W        W29608  23.978  17.580  10.616
57993W        W29609  20.707  35.484   1.857
57994W        W29610  10.652  33.527  11.064
57995W        W29611  38.573  40.186  13.442
57996W        W29612  20.996  37.120   5.078
57997W        W29613  22.745  19.268  10.691
57998W        W29614  30.407  15.351   1.253
57999W        W29615   4.354   8.532   4.568
58000W        W29616   5.956  44.897   4.180
58001W        W29617  42.845  19.984  14.499
58002W        W29618  19.244  41.205   4.933
58003W        W29619  27.879  16.706  14.266
58004W        W29620  10.267  10.325  12.868
58005W        W29621  13.833   1.743   3.405
58006W        W29622  41.467  35.079  13.423
58007W        W29623  30.935  23.427  11.632
58008W        W29624  38.415  16.647  10.799
58009W        W29625  27.926  32.588   2.910
58010W        W29626   5.905   2.686  11.715
58011W        W29627  18.698  17.285   2.686
58012W        W29628  17.978  26.009  14.906
58013W        W29629  35.842   9.229  14.905
58014W        W29630  12.287  14.139   3.801
58015W        W29631  28.458  34.858   1.383
58016W        W29632  13.907  40.900   4.994
58017W        W29633  25.738  13.261  13.596
58018W        W29634  14.978   1.555  11.169
58019W        W29635   7.403  41.478  12.419
58020W        W29636  35.896  39.180   1.368
58021W        W29637  43.912  14.256  10.414
58022W        W29638  30.372   3.257  14.363
58023W        W29639  43.547  15.712  13.944
58024W        W29640  21.141   8.981   0.724
58025W        W29641  37.963   1.733  13.599
58026W        W29642  19.500  38.630   3.611
58027W        W29643   2.766  22.833  14.469
58028W        W29644   4.447  39.411   1.733
58029W        W29645   6.703  24.651   1.865
58030W        W29646  37.564  22.729   0.520
58031W        W29647  44.420  32.345  14.677
58032W        W29648  30.343  17.176  11.217
58033W        W29649  35.741  35.599   2.762
58034W        W29650   3.789  32.341  12.373
58035W        W29651  15.577  20.853  11.286
58036W        W29652  21.930   9.422   3.274
58037W        W29653  11.119   9.681  13.120
58038W        W29654  21.807  38.348  13.528
58039W        W29655  39.005  14.831   2.677
58040W        W29656  34.588   6.126   1.381
58041W        W29657  12.620   7.780  12.396
58042W        W29658  14.171  25.515  14.104
58043W        W29659  10.898  13.341   3.175
58044W        W29660  32.965  29.104  10.481
58045W        W29661  16.435  31.006   0.220
58046W        W29662   3.797  19.946  12.471
58047W        W29663  33.511  37.050  13.396
58048W        W29664  28.177  27.430  14.207
58049W        W29665  27.087  41.133  14.792
58050W        W29666   4.215   9.629  11.506
58051W        W29667  43.819  34.293  11.826
58052W        W29668  44.808  24.759   0.834
58053W        W29669   4.946  21.300  14.574
58054W        W29670   5.754  38.845  14.338
58055W        W29671   2.928  20.375   0.712
58056W        W29672  31.183  43.514   4.050
58057W        W29673  33.557  14.742  14.789
58058W        W29674  12.664   7.723   1.485
58059W        W29675  18.646  29.966  12.577
58060W        W29676  31.995   4.681  12.429
58061W        W29677   2.140  15.324   1.172
58062W        W29678  30.921   1.268  10.714
58063W        W29679  14.569  18.781  11.472
58064W        W29680  29.085  26.641  12.621
58065W        W29681  42.256  14.156   3.651
58066W        W29682  32.610  39.098  12.405
58067W        W29683  21.530   2.477   0.505
58068W        W29684  44.983  33.997  14.938
58069W        W29685  44.446   5.241  13.077
58070W        W29686  16.460  18.672   0.302
58071W        W29687  38.544   5.411   3.618
58072W        W29688  34.851  15.376  11.138
58073W        W29689  18.635  37.165  12.112
58074W        W29690  30.538  30.699   0.714
58075W        W29691   7.096  39.981   3.901
58076W        W29692  39.412  18.024   3.757
58077W        W29693  23.431  44.027   4.699
58078W        W29694   9.207   0.490  14.232
58079W        W29695  36.149   5.803   3.551
58080W        W29696  25.231  16.256   4.675
58081W        W29697   0.453  22.608  11.912
58082W        W29698  30.088   2.607  12.927
58083W        W29699  14.673  22.072   1.324
58084W        W29700  32.739  16.807  14.284
58085W        W29701   6.582   0.635   1.771
58086W        W29702  36.944  39.947  11.861
58087W        W29703   5.906  43.516   3.618
58088W        W29704  18.964  34.924   3.009
58089W        W29705  28.562  40.229   2.073
58090W        W29706  23.631   6.966   2.412
58091W        W29707  44.843  17.711   0.192
58092W        W29708   3.677  32.398   1.798
58093W        W29709   6.295  12.731  13.539
58094W        W29710  35.342  16.197   2.558
58095W        W29711  12.059  44.549   4.178
58096W        W29712  36.092  23.581   3.872
58097W        W29713  27.854   1.777  13.972
58098W        W29714   9.126  23.110   2.772
58099W        W29715  43.341  23.030   0.857
58100W        W29716   9.381  18.186   4.243
58101W        W29717   6.657  13.233   1.803
58102W        W29718   8.782  36.214   3.036
58103W        W29719   2.138   1.714  11.981
58104W        W29720  25.130  24.901   1.370
58105W        W29721  15.229  40.299   1.872
58106W        W29722  22.090  38.586  11.826
58107W        W29723  10.644  28.037   2.719
58108W        W29724  25.203  16.029  10.809
58109W        W29725  10.165  33.574  14.483
58110W        W29726  41.655  41.265   1.283
58111W        W29727  20.087  31.969  11.689
58112W        W29728   6.379  39.198  14.973
58113W        W29729   7.794  18.760   1.473
58114W        W29730  21.516  27.997   0.609
58115W        W29731  42.688  24.943   1.481
58116W        W29732  18.063   8.308  10.742
58117W        W29733   2.830   2.692  13.407
58118W        W29734  18.794   4.422   0.828
58119W        W29735  27.600  29.893   4.453
58120W        W29736  30.658  23.054  10.868
58121W        W29737  34.376  10.688  13.530
58122W        W29738  19.789  19.513   1.884
58123W        W29739  24.624  17.673  14.190
58124W        W29740  18.570  29.982   1.384
58125W        W29741  34.806   6.842   3.138
58126W        W29742  20.774  27.257   3.718
58127W        W29743   3.240  19.616   3.159
58128W        W29744   5.999  37.886   0.906
58129W        W29745  10.337  21.725  10.637
58130W        W29746  32.043  32.371   3.673
58131W        W29747   4.749   4.412   4.082
58132W        W29748  34.128  26.381  14.568
58133W        W29749  16.879  16.205  12.572
58134W        W29750   7.936  43.001  12.048
58135W        W29751  22.516   3.241   2.173
58136W        W29752  22.270  28.597  10.683
58137W        W29753  39.919   1.724   4.250
58138W        W29754   1.313  32.987   2.416
58139W        W29755  23.701  35.802  11.167
58140W        W29756  22.514  34.064  12.469
58141W        W29757   7.286   5.037   4.215
58142W        W29758  30.209  31.587  11.203
58143W        W29759  29.256  25.130   5.015
58144W        W29760   8.768  28.633  10.856
58145W        W29761  26.634  20.295   2.127
58146W        W29762  40.750  20.876  13.528
58147W        W29763  36.886  16.265  13.804
58148W        W29764  31.441  27.852  11.718
58149W        W29765  44.770  12.776  14.356
58150W        W29766  14.318  43.967   3.095
58151W        W29767  13.642   4.199   0.847
58152W        W29768  26.781   9.410  12.115
58153W        W29769  41.931  42.898  14.843
58154W        W29770   9.311  34.945  12.050
58155W        W29771  12.831  34.451   2.263
58156W        W29772  12.527   1.885   0.345
58157W        W29773  21.357   1.480   0.679
58158W        W29774   3.727  15.746   4.157
58159W        W29775  17.749  26.554  13.858
58160W        W29776  20.515   2.014   2.384
58161W        W29777  19.593  26.252  14.097
58162W        W29778  28.644  10.603   2.337
58163W        W29779  41.013  38.920   3.329
58164W        W29780  16.113  19.634   0.071
58165W        W29781  29.392  38.611   2.913
58166W        W29782  26.237  14.304  12.203
58167W        W29783   5.833  10.362   4.853
58168W        W29784  12.115  39.393  11.211
58169W        W29785   5.628  43.947   3.686
58170W        W29786  44.456  27.407   4.600
58171W        W29787   9.231  32.355  10.692
58172W        W29788  24.681  26.429   1.281
58173W        W29789  35.875  29.831  12.022
58174W        W29790   9.309   9.182  12.021
58175W        W29791  29.777  28.384   1.155
58176W        W29792  15.451   7.299   4.917
58177W        W29793  41.080   6.323   4.786
58178W        W29794   1.475   4.039   4.165
58179W        W29795  15.757  25.438   1.290
58180W        W29796  31.211  42.440  14.457
58181W        W29797  36.913  16.224   0.217
58182W        W29798  39.316  31.531   4.632
58183W        W29799   5.875  23.719   4.223
58184W        W29800  22.679  33.658  14.212
58185W        W29801  20.255  24.119  11.906
58186W        W29802  42.775  16.660  13.950
58187W        W29803  20.764  34.246   2.616
58188W        W29804  31.196  22.239   3.022
58189W        W29805   9.761  31.882  11.278
58190W        W29806   0.161  29.112   2.660
58191W        W29807  42.571  42.226  12.031
58192W        W29808   6.549  13.656  10.988
58193W        W29809  12.284  13.116   3.147
58194W        W29810  29.279  31.855  11.611
58195W        W29811   7.278  24.038   3.351
58196W        W29812  30.783  16.823  13.461
58197W        W29813  15.747  13.598   1.835
58198W        W29814  43.248  20.159  13.242
58199W        W29815  31.913   7.369  11.547
58200W        W29816  14.335   6.720   1.359
58201W        W29817  10.337   4.741  13.004
58202W        W29818   2.731  37.045   1.123
58203W        W29819  42.570  44.818   0.268
58204W        W29820  43.276  15.666  10.700
58205W        W29821  33.343  17.670  13.424
58206W        W29822  43.112  25.335  10.566
58207W        W29823  26.535   2.815   4.949
58208W        W29824  25.316   8.268   4.557
58209W        W29825  12.602  21.962  14.767
58210W        W29826   5.905  41.875   1.733
58211W        W29827  27.220  20.777  14.293
58212W        W29828  24.713  16.125   1.035
58213W        W29829   9.838  11.348  14.910
58214W        W29830  28.889  30.492   2.191
58215W        W29831  37.071  37.668   0.281
58216W        W29832   9.180  15.642   4.480
58217W        W29833  33.641  16.570  14.572
58218W        W29834  11.647   5.920  14.300
58219W        W29835  38.650  11.354   4.636
58220W        W29836  17.569  38.972  13.351
58221W        W29837  38.978   3.112  10.623
58222W        W29838   0.684  13.821  14.907
58223W        W29839   7.216  20.748   1.252
58224W        W29840  17.552  12.605   3.190
58225W        W29841  14.785   0.880  10.663
58226W        W29842  19.135   5.198  12.163
58227W        W29843   5.480  12.673   3.327
58228W        W29844  42.302   8.246   3.250
58229W        W29845  41.218  38.032  12.852
58230W        W29846  24.595  13.960   0.867
58231W        W29847   4.304   1.628  10.499
58232W        W29848  40.529   0.495   0.078
58233W        W29849  10.862  31.164  14.084
58234W        W29850  25.740   1.452   0.961
58235W        W29851  11.107  16.019  11.954
58236W        W29852   8.916   3.448  12.377
58237W        W29853  18.736   0.515  12.146
58238W        W29854  25.242  38.957  14.211
58239W        W29855  23.450   1.712   3.758
58240W        W29856   9.846  20.283  13.919
58241W        W29857  37.569  25.276  10.535
58242W        W29858  29.388  34.709   1.919
58243W        W29859  24.577  24.581   1.342
58244W        W29860  37.419   3.315  14.474
58245W        W29861  12.639  21.281  13.969
58246W        W29862  43.571  11.695  14.741
58247W        W29863  28.420  36.665   2.810
58248W        W29864  13.188   7.304  14.801
58249W        W29865  35.866  34.859   2.174
58250W        W29866  33.035   7.328  12.348
58251W        W29867  36.969   1.313   1.206
58252W        W29868  42.628  35.062  10.000
58253W        W29869  10.284  43.044  11.942
58254W        W29870  31.667  36.910  14.079
58255W        W29871  12.237  28.399  14.469
58256W        W29872  35.834  13.794  13.960
58257W        W29873  29.629  24.574  14.927
58258W        W29874  18.670  13.301  13.073
58259W        W29875  26.549  36.441   1.784
58260W        W29876  29.893  41.252  12.488
58261W        W29877  32.985  32.644  11.950
58262W        W29878  28.756  25.676  11.611
58263W        W29879  31.901  10.877  14.372
58264W        W29880  39.787  13.338  12.822
58265W        W29881  10.835  25.739   1.175
58266W        W29882  39.422  19.529   4.534
58267W        W29883   8.937  44.736  14.950
58268W        W29884  27.248  36.848  14.300
58269W        W29885   1.077  44.791   1.472
58270W        W29886   4.271  12.787   1.986
58271W        W29887   5.499   2.979  11.575
58272W        W29888   4.213  20.016   2.816
58273W        W29889  41.477  42.852  10.355
58274W        W29890  27.667   0.274   2.820
58275W        W29891  22.577  38.064   0.533
58276W        W29892  18.939  30.622  13.820
58277W        W29893   8.592  39.611   1.454
58278W        W29894  31.015  37.389   3.146
58279W        W29895   5.928  26.503   1.954
58280W        W29896  10.281   7.306  14.593
58281W        W29897  16.990  29.654  14.443
58282W        W29898  11.425   8.672  11.795
58283W        W29899  39.586  25.522  12.484
58284W        W29900  26.678  14.050  12.301
58285W        W29901  28.975  41.992  13.520
58286W        W29902  35.519  44.720   4.850
58287W        W29903  33.589  43.363   4.851
58288W        W29904  16.725  38.985  13.895
58289W        W29905  22.037  14.228  11.422
58290W        W29906  41.482  29.550   2.701
58291W        W29907   2.780  39.200  14.016
58292W        W29908  42.515  11.264  14.993
58293W        W29909   6.345  21.701   0.446
58294W        W29910  22.908  31.892  10.483
58295W        W29911  10.042  24.705  13.507
58296W        W29912  14.770  35.107   3.624
58297W        W29913  28.711   5.819  11.686
58298W        W29914  20.952  34.502   3.321
58299W        W29915  30.619  38.367   3.518
58300W        W29916  24.067  35.430   0.539
58301W        W29917  33.574  37.639   1.899
58302W        W29918  22.898  17.993  11.984
58303W        W29919  27.910  40.316   4.546
58304W        W29920  42.919   6.766   3.754
58305W        W29921  19.362  18.691   3.797
58306W        W29922  15.525  22.142   3.155
58307W        W29923  38.001  10.860  10.769
58308W        W29924  44.967  31.936   0.379
58309W        W29925  29.141  31.045  12.538
58310W        W29926  34.203  20.733  14.626
58311W        W29927  26.645   3.195   3.756
58312W        W29928   6.180  11.147   1.775
58313W        W29929  32.211   0.442   4.657
58314W        W29930   8.311  22.662   1.546
58315W        W29931  13.138  27.691  14.100
58316W        W29932  28.645  20.165  12.875
58317W        W29933  42.755  39.132   1.243
58318W        W29934  18.743  25.172  14.682
58319W        W29935  44.856  35.869   0.223
58320W        W29936  25.353  29.650  13.876
58321W        W29937   1.007  37.881   1.804
58322W        W29938  31.225  26.070   1.246
58323W        W29939  34.454   2.166   3.207
58324W        W29940  21.381  42.316  11.562
58325W        W29941  41.226  44.852   3.643
58326W        W29942  20.711  28.396  10.505
58327W        W29943  20.130  43.513   0.429
58328W        W29944  14.255  38.018  12.187
58329W        W29945  32.436   8.808  11.732
58330W        W29946   6.487  14.759   4.137
58331W        W29947  13.397  24.122  13.034
58332W        W29948   9.041   7.305   4.365
58333W        W29949  24.412  11.787  11.737
58334W        W29950   5.158   0.807   5.077
58335W        W29951  36.349  33.603   1.972
58336W        W29952   3.077  27.478   2.706
58337W        W29953  28.962   4.863  10.547
58338W        W29954  33.009  28.070  14.668
58339W        W29955   7.389  29.130   4.122
58340W        W29956  38.903  41.856  14.916
58341W        W29957  22.522  12.108   3.328
58342W        W29958  27.984  16.972   9.760
58343W        W29959  36.953  34.011   2.811
58344W        W29960  24.006  32.246   5.275
58345W        W29961  24.975  37.853  14.522
58346W        W29962  11.183   4.727  11.110
58347W        W29963  15.808  37.366  14.826
58348W        W29964  44.472  13.783   2.732
58349W        W29965  27.439  14.415   4.252
58350W        W29966  26.569  33.975   5.075
58351W        W29967  22.828  29.365   3.212
58352W        W29968  39.955  11.925  11.921
58353W        W29969   9.350  22.444   0.367
58354W        W29970  31.615  19.795   1.957
58355W        W29971  14.880  33.010  10.619
58356W        W29972  44.730  32.037  10.635
58357W        W29973  37.529  15.546   2.927
58358W        W29974  13.798  38.772   3.813
58359W        W29975  21.714   0.503   2.325
58360W        W29976  17.973  25.428   4.129
58361W        W29977   2.181  15.570   1.976
58362W        W29978  36.528  43.947   1.403
58363W        W29979   1.319  20.500  12.899
58364W        W29980   8.301   9.721  11.375
58365W        W29981  37.033  23.536   1.329
58366W        W29982  30.319  10.683  12.956
58367W        W29983  16.408  23.601   3.783
58368W        W29984  13.620  12.140   0.025
58369W        W29985   2.128  43.365   4.161
58370W        W29986  15.711  24.105   0.934
58371W        W29987  36.491  27.359   0.086
58372W        W29988  27.731  11.176   3.639
58373W        W29989  21.993   4.893   3.584
58374W        W29990  40.966  40.056  10.718
58375W        W29991   5.109  30.971   4.723
58376W        W29992  25.720  21.425   1.263
58377W        W29993  13.699  10.697  12.034
58378W        W29994  44.459   7.878   3.726
58379W        W29995  39.444  11.439   1.330
58380W        W29996  35.067  41.903   0.474
58381W        W29997  34.916  15.809  12.532
58382W        W29998   4.957  36.204  13.452
58383W        W29999   7.013  28.661  13.909
58384W        W30000  11.447  26.808   1.982
58385W        W30001   4.349   5.162   1.462
58386W        W30002  16.185   4.273   4.597
58387W        W30003  30.368  24.436   2.369
58388W        W30004  23.650   7.426  12.891
58389W        W30005  14.384  12.793  11.637
58390W        W30006   3.453  35.081   4.548
58391W        W30007  18.255   9.049  14.343
58392W        W30008   0.146  29.971   4.144
58393W        W30009  12.064  31.060   4.572
58394W        W30010  31.935  40.315   0.810
58395W        W30011  39.847  43.719   3.660
58396W        W30012   8.250  21.370  12.527
58397W        W30013  42.748  34.997   5.095
58398W        W30014  39.050  32.907  13.813
58399W        W30015  44.807  10.138  13.011
58400W        W30016  44.100  41.357   1.151
58401W        W30017   1.401   5.626  12.366
58402W        W30018  36.709  10.442  12.851
58403W        W30019  40.376  28.467   2.389
58404W        W30020   0.650  36.044   9.885
58405W        W30021   6.115   9.446  12.448
58406W        W30022  16.764  40.888  14.378
58407W        W30023  33.124  15.628  13.933
58408W        W30024  18.608  30.939   4.589
58409W        W30025  36.363  23.662   2.574
58410W        W30026  41.030  39.856   3.656
58411W        W30027  16.628  29.236  10.964
58412W        W30028  28.603  32.953   2.440
58413W        W30029  12.660   4.158  13.381
58414W        W30030  27.233   0.556  14.892
58415W        W30031  17.469  10.675   2.384
58416W        W30032   1.961   3.218  13.559
58417W        W30033  15.954  42.372   9.741
58418W        W30034  18.615  30.868  13.482
58419W        W30035  26.436  40.309  13.777
58420W        W30036  34.864   7.239   0.349
58421W        W30037  38.307   7.710  14.994
58422W        W30038  28.464  33.109   1.920
58423W        W30039  12.250   7.933   3.753
58424W        W30040   5.754  16.908  11.138
58425W        W30041  36.852  23.673  12.281
58426W        W30042  18.288  21.611   4.107
58427W        W30043  42.850  20.198  11.722
58428W        W30044  11.180  32.599   0.481
58429W        W30045   4.269   3.543   4.446
58430W        W30046  18.692   8.737  14.388
58431W        W30047  29.201   3.355   0.495
58432W        W30048  38.629  36.397  12.957
58433W        W30049  29.995  22.032  14.249
58434W        W30050  23.284  40.469  13.479
58435W        W30051  31.581   3.272   1.158
58436W        W30052  32.094  23.637   2.839
58437W        W30053  20.089  32.183   2.336
58438W        W30054   2.273   2.115   2.440
58439W        W30055  38.180  40.899  11.789
58440W        W30056   6.278  16.650   1.960
58441W        W30057   2.181  17.788  10.759
58442W        W30058  13.568  27.426   3.687
58443W        W30059  35.321  42.109  11.089
58444W        W30060  14.539   6.029  11.045
58445W        W30061  32.091  42.435   3.466
58446W        W30062   0.155  14.888  13.377
58447W        W30063  14.907  28.825   1.415
58448W        W30064  44.443  39.604   0.299
58449W        W30065  15.064  23.498   4.908
58450W        W30066   6.387  28.542  12.041
58451W        W30067  43.311  20.628  12.489
58452W        W30068  41.524  12.655  13.809
58453W        W30069  21.206  32.712  11.288
58454W        W30070  31.574  21.499  13.199
58455W        W30071  31.073   0.764  14.040
58456W        W30072  18.535  41.252   2.164
58457W        W30073  43.210  26.616   1.727
58458W        W30074  11.537  21.684   0.419
58459W        W30075  41.282  12.881   1.238
58460W        W30076  13.346  34.354   0.988
58461W        W30077   8.332  26.615  13.393
58462W        W30078  31.740  32.901  13.583
58463W        W30079  19.638  43.801   0.867
58464W        W30080  33.474  39.366  14.264
58465W        W30081  24.917  11.763   1.886
58466W        W30082  37.448  42.347   4.668
58467W        W30083  21.148  30.869  10.482
58468W        W30084   5.996  14.470   2.157
58469W        W30085  39.412  42.021  12.370
58470W        W30086  43.923  37.669   2.102
58471W        W30087  29.488  20.705  11.348
58472W        W30088  39.903  36.462   0.593
58473W        W30089  21.172   8.414  12.452
58474W        W30090   8.405  28.541  11.196
58475W        W30091  25.623   0.723  13.816
58476W        W30092  20.178  36.372   2.062
58477W        W30093   7.853  26.116  13.126
58478W        W30094  12.215  14.888   4.641
58479W        W30095  12.382  21.863  14.312
58480W        W30096  24.552  14.799   4.653
58481W        W30097  24.149  44.344   0.310
58482W        W30098  19.202  15.040   0.016
58483W        W30099   7.157  29.468   2.277
58484W        W30100  13.378   9.516   1.355
58485W        W30101   4.644   8.563  12.942
58486W        W30102  32.004  28.324   2.960
58487W        W30103  27.108  43.783  14.937
58488W        W30104  31.133  28.526   2.758
58489W        W30105  19.064  20.644  14.860
58490W        W30106  29.447  40.920   1.282
58491W        W30107  31.536  13.545  11.982
58492W        W30108  10.417  11.708   3.309
58493W        W30109  22.247  17.687  12.516
58494W        W30110   8.419  33.977  11.951
58495W        W30111   1.713  39.514   0.354
58496W        W30112  26.428  35.154   2.345
58497W        W30113   0.355  33.692  10.373
58498W        W30114  16.038  11.616   3.210
58499W        W30115  16.780  36.654   3.580
58500W        W30116  24.056   6.985   3.614
58501W        W30117   8.313  11.184   3.843
58502W        W30118  22.550   9.295   1.361
58503W        W30119   2.412  38.888   5.129
58504W        W30120  42.535  22.496   3.187
58505W        W30121   0.475  28.931   0.397
58506W        W30122  14.260  34.956   2.835
58507W        W30123  12.172  19.259  14.515
58508W        W30124   4.960  29.179  10.612
58509W        W30125  38.574  20.068  11.136
58510W        W30126  27.495  41.039   3.245
58511W        W30127   9.742  44.439   3.645
58512W        W30128  24.647  15.050  13.950
58513W        W30129  22.510  33.357  11.207
58514W        W30130   4.693   9.146  14.804
58515W        W30131  18.745  36.099   1.380
58516W        W30132  38.036  14.845  13.580
58517W        W30133  32.119   3.018   0.338
58518W        W30134  18.369  39.893  11.535
58519W        W30135  11.633  37.869  13.852
58520W        W30136   7.237  23.505   1.823
58521W        W30137  39.849   5.280   0.730
58522W        W30138  38.223   6.310  13.906
58523W        W30139  13.417  14.297  10.128
58524W        W30140  19.211  43.942  11.511
58525W        W30141  23.607  41.989  14.469
58526W        W30142  25.698  26.692  10.960
58527W        W30143   9.321  26.935   0.908
58528W        W30144   2.135  21.069  13.959
58529W        W30145  29.072  28.572  14.491
58530W        W30146  20.714  28.647   4.152
58531W        W30147  23.738  40.201  13.512
58532W        W30148  34.933   2.351   3.211
58533W        W30149  33.446  18.743  11.294
58534W        W30150  36.209  38.035   0.712
58535W        W30151  35.061  38.811  12.904
58536W        W30152   4.856  30.875   0.856
58537W        W30153  27.936  26.097   3.438
58538W        W30154  36.607  32.906  11.614
58539W        W30155  37.941  10.152   3.239
58540W        W30156  42.427   2.787  11.255
58541W        W30157   9.283   9.368  14.088
58542W        W30158  22.705  19.281   0.424
58543W        W30159  20.098  43.579   3.356
58544W        W30160  24.130  37.332  11.586
58545W        W30161  27.364  21.608   3.799
58546W        W30162  20.729  27.242   2.903
58547W        W30163  16.691  26.048  13.918
58548W        W30164  28.062  34.331   1.917
58549W        W30165  13.656  42.220   1.210
58550W        W30166  18.267  10.632   0.322
58551W        W30167  21.503  40.424   0.862
58552W        W30168   8.710  29.823  12.080
58553W        W30169  23.218   3.472   2.623
58554W        W30170  41.709  28.484   4.634
58555W        W30171  39.346   4.670   1.450
58556W        W30172   0.807  23.562  13.785
58557W        W30173  12.125   2.787   0.717
58558W        W30174   6.192   4.967   2.751
58559W        W30175  26.844  10.697   3.728
58560W        W30176   1.179  11.222  14.392
58561W        W30177  42.863   5.956  14.053
58562W        W30178   0.933  25.626  10.757
58563W        W30179  28.421  10.677   4.516
58564W        W30180  17.651  19.682   3.273
58565W        W30181   6.888   1.185  14.376
58566W        W30182  17.600  29.473   2.794
58567W        W30183  31.297  14.213  12.477
58568W        W30184  40.557  44.234  12.027
58569W        W30185   6.774  19.134  14.059
58570W        W30186   3.878  23.053  11.604
58571W        W30187  22.421  23.444  13.241
58572W        W30188   4.331  33.320  13.448
58573W        W30189  10.072  13.819  12.330
58574W        W30190  29.680  41.373   1.475
58575W        W30191   6.736  19.316   3.690
58576W        W30192   1.309  10.848  12.071
58577W        W30193  17.885   2.455   3.902
58578W        W30194  17.837  26.676   4.127
58579W        W30195  40.328  11.262   1.716
58580W        W30196  10.277  31.638  12.913
58581W        W30197   8.390  30.447   3.348
58582W        W30198  43.876   2.235  13.326
58583W        W30199  28.969  32.930  10.496
58584W        W30200  33.900  38.108   2.288
58585W        W30201  22.646   1.991  14.923
58586W        W30202   1.339   8.648   3.698
58587W        W30203   3.832  22.076   4.472
58588W        W30204  38.998  13.525  14.710
58589W        W30205  21.247  23.642  14.516
58590W        W30206  26.300  24.389  12.015
58591W        W30207  20.182   3.037  13.640
58592W        W30208  26.049  15.728  12.464
58593W        W30209   0.710  16.244   4.594
58594W        W30210  31.685   5.355   4.577
58595W        W30211  39.567  35.812   1.191
58596W        W30212  43.321  15.705   1.729
58597W        W30213  27.191   2.219  11.713
58598W        W30214  43.557   9.249  12.107
58599W        W30215  18.605   2.240  14.147
58600W        W30216  16.710   4.921  12.778
58601W        W30217  36.703  17.837   2.267
58602W        W30218  15.982  21.615   3.756
58603W        W30219  19.895  25.215   0.521
58604W        W30220  11.374  42.766  11.287
58605W        W30221  16.207  28.199  14.018
58606W        W30222  11.671  41.475  12.605
58607W        W30223  16.493  24.644  14.441
58608W        W30224  25.037  43.424  14.465
58609W        W30225  12.620  31.880  12.144
58610W        W30226  41.763   5.484   2.996
58611W        W30227  29.573  12.742  14.666
58612W        W30228  10.091  18.102   1.513
58613W        W30229   2.981  41.770  12.542
58614W        W30230  14.064  20.163  11.897
58615W        W30231   3.553  21.520  13.381
58616W        W30232  24.673  30.357  11.412
58617W        W30233  38.722  43.614  14.906
58618W        W30234  28.632  18.821  13.126
58619W        W30235  26.880   5.736   2.075
58620W        W30236  17.174  11.889   2.789
58621W        W30237  29.221   3.321   2.510
58622W        W30238  18.760  11.406   0.368
58623W        W30239   0.527   0.339  12.269
58624W        W30240  38.485  40.549  13.872
58625W        W30241  28.663  23.901   0.300
58626W        W30242  36.016  37.063   4.435
58627W        W30243   2.858  22.672  10.702
58628W        W30244   7.904  16.283   3.984
58629W        W30245  25.573  39.178  10.274
58630W        W30246  38.885  29.911   4.229
58631W        W30247  13.911  31.638   2.133
58632W        W30248  15.326  40.664   4.701
58633W        W30249  35.831  41.340   1.704
58634W        W30250  42.263  18.677  12.407
58635W        W30251  39.445   2.977  12.206
58636W        W30252  20.217  32.834   4.507
58637W        W30253  28.578  43.763  14.776
58638W        W30254   5.793   6.755   2.177
58639W        W30255  17.480  34.811  13.983
58640W        W30256  37.164  12.825  14.343
58641W        W30257  24.245  30.513  14.800
58642W        W30258  28.332   9.561   3.699
58643W        W30259  12.337  29.396  11.090
58644W        W30260  29.714  38.325   4.080
58645W        W30261   7.279  36.600  13.343
58646W        W30262   0.656  16.511  13.455
58647W        W30263  40.123  36.858   2.770
58648W        W30264   7.253  36.590   0.136
58649W        W30265  23.620  39.750  14.879
58650W        W30266  40.724  34.347  12.055
58651W        W30267  22.989  41.562  14.961
58652W        W30268  30.962  37.535  14.751
58653W        W30269   1.209  25.408   4.694
58654W        W30270   8.980  43.040   4.012
58655W        W30271  27.167   8.621  12.021
58656W        W30272  21.090   3.367   4.067
58657W        W30273   3.946  24.467   5.080
58658W        W30274  30.651  32.879  14.573
58659W        W30275  28.544  23.205  10.879
58660W        W30276  38.893  14.804   3.897
58661W        W30277  26.640   7.403   2.800
58662W        W30278  35.841  21.499  12.013
58663W        W30279  22.481  40.552  11.570
58664W        W30280  12.874   6.432   9.731
58665W        W30281  17.106  40.696   1.390
58666W        W30282  16.059  10.738  12.632
58667W        W30283  20.237  28.469  10.716
58668W        W30284  42.957  24.761   2.870
58669W        W30285   6.248   4.524  13.984
58670W        W30286  38.189  32.296  12.664
58671W        W30287  32.390  13.709   4.618
58672W        W30288  33.372  21.038   3.126
58673W        W30289  19.182  39.763  13.490
58674W        W30290  41.486  31.578  14.433
58675W        W30291  41.399  41.181   0.821
58676W        W30292  43.706  20.126   2.117
58677W        W30293  20.269   6.743  11.237
58678W        W30294  26.375  35.076  12.969
58679W        W30295   3.311  18.532   2.826
58680W        W30296  36.837  39.027  14.285
58681W        W30297  19.187   0.047  11.092
58682W        W30298  27.441   7.897   1.678
58683W        W30299  36.055  10.870  13.894
58684W        W30300   8.933  19.723  13.580
58685W        W30301  23.702   0.865  14.290
58686W        W30302  10.347  20.516   4.499
58687W        W30303  39.993  13.182  13.247
58688W        W30304  13.820   1.997  14.733
58689W        W30305  11.285   5.552  10.768
58690W        W30306  18.906  29.402  12.655
58691W        W30307  33.345   9.165   2.800
58692W        W30308   6.919  29.149   4.339
58693W        W30309   3.230   7.613  12.975
58694W        W30310   3.733  44.018  13.466
58695W        W30311   5.231  30.052  10.692
58696W        W30312  30.733  23.683   2.169
58697W        W30313  22.474  17.565   5.043
58698W        W30314  31.008  40.586   3.937
58699W        W30315   2.971  18.178   1.029
58700W        W30316  40.447  23.797   1.377
58701W        W30317  18.478   6.711  11.909
58702W        W30318   3.485  33.031   2.199
58703W        W30319   3.595  37.572   2.901
58704W        W30320  23.112  26.241   2.291
58705W        W30321   0.442   3.378  11.454
58706W        W30322   4.761  21.705   2.101
58707W        W30323  31.925  44.928  13.852
58708W        W30324   2.960  44.352   0.090
58709W        W30325   9.132  37.526  12.750
58710W        W30326  26.131  40.427   4.296
58711W        W30327  18.384  28.369  13.290
58712W        W30328  14.052  17.052  14.305
58713W        W30329   4.383   1.832  11.102
58714W        W30330  20.630  16.689   4.065
58715W        W30331  32.352  31.895   2.698
58716W        W30332  20.958  34.111  14.345
58717W        W30333  19.331  44.707   1.389
58718W        W30334  17.383  19.134  14.554
58719W        W30335  30.175   5.603  12.861
58720W        W30336  21.411   4.003  11.994
58721W        W30337  14.364   7.115  12.499
58722W        W30338  36.582  25.028   4.622
58723W        W30339   8.691  22.281  13.409
58724W        W30340  27.727  32.700   3.769
58725W        W30341  28.944   8.171  11.073
58726W        W30342  16.077  36.898   3.992
58727W        W30343  39.219  29.725   4.634
58728W        W30344  43.543   9.645  12.964
58729W        W30345  15.629   2.403   1.929
58730W        W30346  25.714  34.364   0.869
58731W        W30347  30.617  40.376  10.788
58732W        W30348  40.361  25.102  10.841
58733W        W30349  29.344  10.973  12.842
58734W        W30350  44.405   7.598  10.744
58735W        W30351  43.190  38.513   1.946
58736W        W30352  39.523  30.985  12.006
58737W        W30353  18.048  32.850  14.537
58738W        W30354  26.655  39.989  10.105
58739W        W30355  33.286  28.213  13.755
58740W        W30356  15.266  24.241  13.954
58741W        W30357  44.713  41.925  11.114
58742W        W30358   3.395  20.631   2.725
58743W        W30359  38.011  22.338  11.248
58744W        W30360   1.741  17.055   2.606
58745W        W30361  33.444  25.315   2.700
58746W        W30362   0.931  26.711  12.362
58747W        W30363  31.684  28.655   4.686
58748W        W30364  25.719  43.009  11.047
58749W        W30365  38.960  10.620  13.526
58750W        W30366   4.610   8.750   9.892
58751W        W30367   9.431  40.384  12.105
58752W        W30368  42.240   8.651  12.561
58753W        W30369   4.466   1.831   2.702
58754W        W30370   2.459  22.160   5.152
58755W        W30371  30.967   5.319   0.175
58756W        W30372  26.772  13.702  14.020
58757W        W30373  21.079  15.749  11.720
58758W        W30374  31.328  33.139  11.211
58759W        W30375  21.080   5.837  13.462
58760W        W30376   5.203  20.235  13.459
58761W        W30377  16.142  35.335  11.122
58762W        W30378  41.997  20.703   0.098
58763W        W30379  28.234  41.549  12.016
58764W        W30380  36.880  36.617   4.251
58765W        W30381  13.046  25.576  12.990
58766W        W30382  32.352  41.239  14.223
58767W        W30383  33.326  34.610   1.170
58768W        W30384  13.763  36.550  13.594
58769W        W30385   8.571  37.603  11.133
58770W        W30386  29.031   8.424  13.976
58771W        W30387  12.321  22.201  12.783
58772W        W30388  14.273  23.565   0.229
58773W        W30389  43.750  17.224  12.437
58774W        W30390   8.387  35.810  13.468
58775W        W30391  27.067  33.356   9.838
58776W        W30392   9.765  22.020   1.676
58777W        W30393  14.728  27.834  12.920
58778W        W30394  40.114  14.273  12.637
58779W        W30395  32.409  44.437  11.635
58780W        W30396  36.507  34.877   4.189
58781W        W30397   6.825   6.662  11.776
58782W        W30398  38.872  43.043  12.878
58783W        W30399  24.061  23.978  11.467
58784W        W30400  25.608  35.517  10.801
58785W        W30401  25.090  34.558   1.931
58786W        W30402  22.071  39.844  10.716
58787W        W30403  36.619  20.307   2.091
58788W        W30404   6.603  36.617  11.275
58789W        W30405  18.087   1.732  11.189
58790W        W30406  29.976   8.140   0.368
58791W        W30407  26.118  32.614  12.896
58792W        W30408  15.054   3.785  13.625
58793W        W30409  22.404   1.643   2.243
58794W        W30410   7.829  12.401   3.242
58795W        W30411  34.620  10.086   3.178
58796W        W30412   9.748  10.790  10.709
58797W        W30413   8.652  28.162   3.359
58798W        W30414  19.816  43.730   2.784
58799W        W30415  44.233  44.791   1.758
58800W        W30416   4.056  36.803  11.538
58801W        W30417  29.409  36.102  11.954
58802W        W30418  31.470  37.299  12.981
58803W        W30419  10.674  10.587   1.269
58804W        W30420  11.321  21.636   0.897
58805W        W30421  12.323   4.413  14.798
58806W        W30422  33.030   1.739  12.505
58807W        W30423  44.020  13.521  14.294
58808W        W30424  24.514  12.365   2.401
58809W        W30425  11.590   9.702  14.443
58810W        W30426  21.413  15.676  10.307
58811W        W30427   6.644  17.208  12.381
58812W        W30428  12.511  22.687  12.747
58813W        W30429  30.486  14.885   0.328
58814W        W30430  27.484  15.184  13.844
58815W        W30431  39.777  34.886  13.427
58816W        W30432  20.176  21.676   4.374
58817W        W30433   4.171  16.861   3.289
58818W        W30434  40.190  21.244   1.454
58819W        W30435   0.594  34.992   0.083
58820W        W30436  32.084  23.093  14.760
58821W        W30437   9.610  10.453   0.601
58822W        W30438  16.942   9.928  12.614
58823W        W30439   2.841  13.390   4.904
58824W        W30440  32.609  23.704   2.808
58825W        W30441   1.166  33.569  10.785
58826W        W30442  31.399  22.489   1.760
58827W        W30443  13.572  18.734   4.374
58828W        W30444  32.641   8.735  11.269
58829W        W30445  37.309  25.149   1.889
58830W        W30446   8.892   0.498   2.177
58831W        W30447  37.467  33.984  12.041
58832W        W30448  16.256  24.775   0.994
58833W        W30449  10.053  26.500   0.323
58834W        W30450  22.010  25.613   3.438
58835W        W30451  29.607   4.897   2.391
58836W        W30452   3.371  27.406  12.020
58837W        W30453  12.686  44.097  12.980
58838W        W30454  12.127   7.930   4.973
58839W        W30455  35.950   7.458  11.633
58840W        W30456  41.368  20.042   4.196
58841W        W30457  42.390  11.191  10.798
58842W        W30458  21.979  18.386   4.612
58843W        W30459  24.756  10.086  12.931
58844W        W30460   3.955  41.126  12.990
58845W        W30461  32.108  18.726  10.582
58846W        W30462  16.723   2.139  11.016
58847W        W30463  28.980  34.428   1.606
58848W        W30464  10.810  22.686  13.794
58849W        W30465  31.697   2.046   1.875
58850W        W30466   1.677  39.573  11.989
58851W        W30467  44.551  29.532   0.905
58852W        W30468  36.637   8.995  11.875
58853W        W30469  43.356  40.159  12.201
58854W        W30470  14.227  36.246   4.125
58855W        W30471   5.499  39.420   2.736
58856W        W30472   0.802  33.984  11.671
58857W        W30473  35.341   5.591   4.146
58858W        W30474   7.391  16.149   3.870
58859W        W30475   7.928  43.005  14.316
58860W        W30476   0.349   8.321  13.746
58861W        W30477  44.081  17.790   2.825
58862W        W30478  41.927  16.886   1.329
58863W        W30479  16.296  25.683  11.574
58864W        W30480  14.108  25.545   0.055
58865W        W30481   9.330  33.656   2.233
58866W        W30482  34.501  19.766  14.459
58867W        W30483  38.137   0.300  11.462
58868W        W30484   7.886  21.528  12.882
58869W        W30485  37.590  39.266   2.275
58870W        W30486  17.524   1.341   1.970
58871W        W30487  18.852   9.338   2.859
58872W        W30488   4.816  25.927  14.491
58873W        W30489   8.368   5.275   1.897
58874W        W30490  37.438   4.271   2.228
58875W        W30491  14.989  12.455  10.384
58876W        W30492   3.820   0.996   2.505
58877W        W30493  32.460  31.481   1.789
58878W        W30494  14.580  30.164   0.259
58879W        W30495  21.281  27.958  11.218
58880W        W30496  42.612  11.656  11.578
58881W        W30497  44.511  36.382   4.299
58882W        W30498   2.910  27.940  12.569
58883W        W30499   1.379  37.935  11.175
58884W        W30500  22.315  11.758   2.586
58885W        W30501  42.201  12.655   0.135
58886W        W30502  10.882  25.058  13.411
58887W        W30503  35.311  33.528  14.979
58888W        W30504  29.467  30.268   1.325
58889W        W30505  25.183   4.341  11.121
58890W        W30506  39.937   4.119   2.099
58891W        W30507  11.735  34.886   3.061
58892W        W30508  24.740   0.252  10.702
58893W        W30509  16.337  20.236  14.488
58894W        W30510  31.450   9.258  12.488
58895W        W30511  15.342  29.055  14.762
58896W        W30512   6.783  30.492  10.759
58897W        W30513  11.223  28.703  11.651
58898W        W30514  27.484  16.545   1.317
58899W        W30515  21.137  37.778  10.384
58900W        W30516  23.479  17.218  11.691
58901W        W30517  39.978  13.580  11.393
58902W        W30518  30.512  39.148  12.434
58903W        W30519  36.574  17.797  11.103
58904W        W30520   3.180  22.035   9.477
58905W        W30521  24.476  21.533  13.813
58906W        W30522  41.403  26.105  13.301
58907W        W30523  23.082  37.452   3.680
58908W        W30524  23.395  12.706  11.854
58909W        W30525  14.830  25.073   0.467
58910W        W30526  42.763  14.595   3.207
58911W        W30527  34.113  22.966  11.611
58912W        W30528  30.512  43.514   2.831
58913W        W30529  34.491  19.542  11.715
58914W        W30530  15.749  30.202  10.655
58915W        W30531  11.746  30.488  12.451
58916W        W30532  12.251  11.946  14.934
58917W        W30533  29.114  21.245   2.253
58918W        W30534  38.591  31.603  10.627
58919W        W30535  25.999  30.495   1.591
58920W        W30536  37.518  12.413  12.427
58921W        W30537  40.511  40.023  11.225
58922W        W30538  11.446  24.904   5.041
58923W        W30539  30.686  32.649  12.436
58924W        W30540  13.942  24.148   2.171
58925W        W30541  10.358  14.286  13.500
58926W        W30542   9.684  11.703   1.993
58927W        W30543  32.202   7.838  12.393
58928W        W30544  18.851  43.954   2.632
58929W        W30545   7.151  25.556  13.296
58930W        W30546  40.289  44.969  13.754
58931W        W30547  16.811  44.891   1.149
58932W        W30548  24.884  37.270   3.187
58933W        W30549  35.680  43.039   3.585
58934W        W30550  24.296  32.569  13.117
58935W        W30551  18.657  31.758   2.322
58936W        W30552  42.014  40.617   4.846
58937W        W30553   6.397   8.719   2.877
58938W        W30554  40.356  24.739  13.938
58939W        W30555  37.506  33.562   2.291
58940W        W30556   7.302   3.713   4.458
58941W        W30557   9.755  36.150   0.921
58942W        W30558  34.619  32.910  14.006
58943W        W30559  18.581  31.552  13.848
58944W        W30560  16.555  41.137  13.926
58945W        W30561  39.114   1.311  11.092
58946W        W30562  39.327   8.422   2.671
58947W        W30563  16.723  32.000  12.848
58948W        W30564   8.215  24.721  14.600
58949W        W30565  11.185  20.041  12.353
58950W        W30566  21.041  15.636   3.218
58951W        W30567  11.848  21.449   4.149
58952W        W30568  20.083  33.489   1.132
58953W        W30569  42.349  11.978   4.511
58954W        W30570   4.717  14.326   0.711
58955W        W30571  17.040  18.782   4.702
58956W        W30572  33.152  39.971   3.347
58957W        W30573   1.165  39.500  12.029
58958W        W30574  13.359   8.880   2.706
58959W        W30575  37.843  43.561  10.993
58960W        W30576  36.307  38.842   1.376
58961W        W30577  37.417  19.120  12.935
58962W        W30578  41.912  15.075   1.165
58963W        W30579   0.791  32.063  12.144
58964W        W30580   2.720  36.513   0.933
58965W        W30581  17.798   7.836  10.759
58966W        W30582  25.071  28.016  12.533
58967W        W30583  41.405   6.175  13.006
58968W        W30584  13.860  11.427  13.999
58969W        W30585  25.045  30.167  10.618
58970W        W30586  29.907  36.421  11.621
58971W        W30587   0.434   4.656   1.897
58972W        W30588  20.764  28.024  14.774
58973W        W30589   6.925  29.040  10.716
58974W        W30590  44.310  38.127  13.372
58975W        W30591  31.090  41.347  14.993
58976W        W30592  19.960  22.006   3.381
58977W        W30593  40.076  25.428  14.785
58978W        W30594  18.431  33.974   2.125
58979W        W30595   2.045  43.323   2.212
58980W        W30596   3.012  42.428  14.759
58981W        W30597  29.794   8.795  11.621
58982W        W30598   4.181   4.455   3.275
58983W        W30599  17.222  36.338   3.773
58984W        W30600  37.455  42.240  11.042
58985W        W30601   2.152   2.327  14.316
58986W        W30602  11.273  21.708  14.816
58987W        W30603   3.424  22.557   0.440
58988W        W30604   5.351   0.153  10.622
58989W        W30605  20.153  38.896   0.344
58990W        W30606  13.930  14.395   2.829
58991W        W30607   0.947  31.721  14.574
58992W        W30608  15.690  35.622   2.042
58993W        W30609   4.218   8.247  13.740
58994W        W30610   0.176  17.772  13.688
58995W        W30611  12.387  34.082  11.988
58996W        W30612  15.825  37.183  11.911
58997W        W30613  10.176   9.197   0.522
58998W        W30614  41.262   8.301  14.885
58999W        W30615  31.205   6.405  12.698
59000W        W30616  14.248  30.536   1.069
59001W        W30617   4.739   0.235   4.632
59002W        W30618  30.654  32.230  11.577
59003W        W30619  30.566  39.622   0.485
59004W        W30620  39.396   5.649   3.820
59005W        W30621  20.154  11.805  13.865
59006W        W30622  21.620  31.003  12.158
59007W        W30623   1.826  29.953   0.304
59008W        W30624  44.717  28.844   2.564
59009W        W30625  24.631  25.011   0.672
59010W        W30626  41.434  42.087  13.020
59011W        W30627  15.043  16.373  13.314
59012W        W30628  15.603  16.688   1.768
59013W        W30629  10.746  13.089   3.827
59014W        W30630  33.698  24.762  11.513
59015W        W30631  15.502  16.997  12.980
59016W        W30632  23.699  11.793  11.200
59017W        W30633  15.823  15.267  11.247
59018W        W30634  18.833  41.282  13.540
59019W        W30635  22.219  31.989   1.726
59020W        W30636  10.441   6.657   0.580
59021W        W30637  37.422  41.857  12.469
59022W        W30638   7.872   5.492   2.689
59023W        W30639  42.347  32.649   0.446
59024W        W30640  25.542  35.574  13.547
59025W        W30641   1.066  22.693   1.129
59026W        W30642   2.465   9.360  13.928
59027W        W30643  23.310  19.727  12.089
59028W        W30644  36.987  33.436   4.052
59029W        W30645   0.775  12.308  12.501
59030W        W30646   1.319  10.150  14.815
59031W        W30647  13.349  35.143   1.314
59032W        W30648  14.314  30.160  13.936
59033W        W30649  18.835   8.614   4.199
59034W        W30650   7.051  14.737  11.215
59035W        W30651  37.861  12.894   3.309
59036W        W30652  12.142  42.339   2.914
59037W        W30653  11.099  25.606   0.288
59038W        W30654  36.539  42.794  10.201
59039W        W30655  23.318  29.108   2.426
59040W        W30656  10.594   4.275   1.853
59041W        W30657   5.425  44.908   0.670
59042W        W30658  32.490  36.481  10.667
59043W        W30659  31.115  11.745   3.898
59044W        W30660  26.171   2.749  13.334
59045W        W30661   7.072  28.578  13.050
59046W        W30662  11.434  11.709   0.258
59047W        W30663  34.529  38.576   4.077
59048W        W30664  27.413   1.530  14.053
59049W        W30665  39.463  12.667  14.857
59050W        W30666  38.539  20.903   3.756
59051W        W30667  24.631  35.048  14.542
59052W        W30668  14.694  23.267  14.799
59053W        W30669  22.131   5.665  13.403
59054W        W30670   0.317  40.868  12.080
59055W        W30671  10.709  29.630  11.428
59056W        W30672   2.818  13.162   2.874
59057W        W30673   9.277   9.332   0.234
59058W        W30674   0.502  13.256  13.354
59059W        W30675  22.502  14.641   1.693
59060W        W30676  37.617   3.219   2.221
59061W        W30677   4.471   5.107   0.327
59062W        W30678  20.628  41.773   3.729
59063W        W30679   1.150   2.434   4.200
59064W        W30680  25.985  14.786   2.012
59065W        W30681  21.706  27.997   3.694
59066W        W30682  40.742  10.797  14.697
59067W        W30683  24.727  41.106  12.634
59068W        W30684   7.399  19.798   3.614
59069W        W30685  29.100  21.730  14.859
59070W        W30686  24.504  24.975   0.153
59071W        W30687   8.966   4.153  10.749
59072W        W30688  37.534  27.496   2.931
59073W        W30689  34.568   1.035   3.765
59074W        W30690  39.589  30.929   1.863
59075W        W30691  26.890  10.893   2.716
59076W        W30692   0.123  10.100  11.853
59077W        W30693  24.049  20.274   2.666
59078W        W30694  33.941  25.101   2.126
59079W        W30695   8.516  10.172   1.391
59080W        W30696  23.510  33.139  13.364
59081W        W30697  37.537   2.225   2.244
59082W        W30698  32.263  33.143   4.118
59083W        W30699  18.193  13.119  13.853
59084W        W30700  10.086   8.445   1.040
59085W        W30701  31.203  35.752  12.430
59086W        W30702  18.239  39.609   3.555
59087W        W30703   6.048   7.956   1.683
59088W        W30704  33.162  12.343  13.866
59089W        W30705  20.315  39.761  12.086
59090W        W30706  39.927  11.601  10.750
59091W        W30707  14.769  23.136   2.330
59092W        W30708  36.138   3.903   1.032
59093W        W30709  24.661   2.761   1.453
59094W        W30710   0.746  43.419   3.139
59095W        W30711  26.492  20.512  13.589
59096W        W30712   7.495   3.809  12.620
59097W        W30713  33.054  42.352  11.875
59098W        W30714  25.465  23.777  10.928
59099W        W30715  16.061  16.234  13.532
59100W        W30716  33.502  31.824  11.130
59101W        W30717  30.456  10.858  14.006
59102W        W30718  40.504   9.874  14.674
59103W        W30719   9.431  17.886   1.257
59104W        W30720  22.683  17.414  14.258
59105W        W30721  26.229  33.420  11.126
59106W        W30722  44.767   9.076   0.038
59107W        W30723  32.051  18.555   2.219
59108W        W30724  40.115  27.420  14.375
59109W        W30725  23.222  36.319  12.533
59110W        W30726  39.960  38.878   2.569
59111W        W30727  12.100  42.291  12.114
59112W        W30728   6.698  26.832   4.427
59113W        W30729  34.119   0.967  12.330
59114W        W30730  40.217  31.581   2.945
59115W        W30731  30.333   8.300  12.301
59116W        W30732  41.792  33.550   0.679
59117W        W30733  30.936  14.534   3.371
59118W        W30734  15.188  24.396   1.661
59119W        W30735  35.794  35.665  12.469
59120W        W30736   5.013  44.897   0.353
59121W        W30737  20.579  25.065  13.545
59122W        W30738   9.797  27.947  12.209
59123W        W30739  23.526  27.464   4.928
59124W        W30740   5.964   8.747   1.853
59125W        W30741   1.924  24.634  12.611
59126W        W30742  29.770  39.717   4.109
59127W        W30743  32.957  17.278  14.117
59128W        W30744  20.005   9.638  13.651
59129W        W30745  32.457  20.396   3.826
59130W        W30746  18.960   7.310   3.643
59131W        W30747  35.012  22.013  11.308
59132W        W30748   2.254   6.230  13.961
59133W        W30749  18.125  40.292  13.591
59134W        W30750  33.120  16.599   1.312
59135W        W30751  20.006  11.709  11.584
59136W        W30752   6.865   7.129  13.257
59137W        W30753  36.964  14.774   4.900
59138W        W30754   3.551  37.207   5.078
59139W        W30755  14.551  10.641   0.867
59140W        W30756  14.265   4.276  14.408
59141W        W30757  22.647  11.233   4.412
59142W        W30758  32.674  27.590   4.078
59143W        W30759  19.331  44.926   1.858
59144W        W30760   3.575  15.020  11.097
59145W        W30761  31.137  27.975   3.808
59146W        W30762  37.639   1.382  13.952
59147W        W30763  28.531  12.087  12.976
59148W        W30764  21.280   6.364  14.077
59149W        W30765  40.228  16.228  14.925
59150W        W30766  27.120  38.938   1.920
59151W        W30767  33.536  24.213  14.927
59152W        W30768  36.081   2.757   0.192
59153W        W30769  37.320  40.033  12.802
59154W        W30770   0.030   5.690   3.236
59155W        W30771   8.695   8.422  11.880
59156W        W30772   6.665  30.062  11.509
59157W        W30773  39.893  19.759   1.292
59158W        W30774  14.240   2.639  13.901
59159W        W30775  18.028  35.101   4.576
59160W        W30776   3.453  43.262   4.198
59161W        W30777  13.166  26.281  13.999
59162W        W30778   9.757  36.065   3.365
59163W        W30779   3.390   9.743   0.416
59164W        W30780  10.868   3.851  12.080
59165W        W30781  42.294  37.014  11.136
59166W        W30782  38.613  43.468   0.480
59167W        W30783  20.002  24.807   0.234
59168W        W30784  35.895  21.884  11.674
59169W        W30785  13.109  21.013  14.129
59170W        W30786  34.024  20.129   0.295
59171W        W30787  15.716  21.585   0.476
59172W        W30788  34.820  41.972   3.163
59173W        W30789  18.190  16.662  11.482
59174W        W30790  33.180  44.808  11.184
59175W        W30791  17.368  13.419   4.667
59176W        W30792  12.816  20.763   4.792
59177W        W30793  39.912  16.172   3.148
59178W        W30794   4.761  20.702   0.356
59179W        W30795  35.852   4.409  10.721
59180W        W30796  17.186   6.793   1.896
59181W        W30797   3.681  30.045   3.682
59182W        W30798   9.473  13.988  11.588
59183W        W30799  32.718  10.236   3.202
59184W        W30800  31.972  32.039  11.040
59185W        W30801  43.484  13.836  12.036
59186W        W30802  24.695  41.266  14.842
59187W        W30803  16.853  31.953   2.385
59188W        W30804  27.561  34.577  12.853
59189W        W30805  23.675   8.372   1.424
59190W        W30806  10.708  34.532  13.851
59191W        W30807   6.714  29.172  14.901
59192W        W30808   3.839   5.102  12.468
59193W        W30809   7.130  41.746  11.120
59194W        W30810  19.574  41.888  14.609
59195W        W30811   6.600   7.254   1.990
59196W        W30812  18.266  43.762   9.833
59197W        W30813  37.854  29.486   4.006
59198W        W30814  20.479  40.896   0.285
59199W        W30815  19.709  40.788   0.651
59200W        W30816  27.917  36.814   2.751
59201W        W30817   4.785  43.067   0.739
59202W        W30818  41.339  22.744  14.263
59203W        W30819  21.560  43.977   2.397
59204W        W30820  10.892  13.814  11.717
59205W        W30821   0.685   5.847  13.333
59206W        W30822  27.710  30.635  14.508
59207W        W30823   8.198  26.887   4.421
59208W        W30824   1.329  35.521  13.042
59209W        W30825  29.669  37.422   2.854
59210W        W30826  21.283  34.306   4.149
59211W        W30827  41.078  19.523  12.098
59212W        W30828  30.616  43.395  11.778
59213W        W30829  25.179  11.858  12.072
59214W        W30830  43.846  37.731  10.717
59215W        W30831  23.886  18.549  10.468
59216W        W30832   8.733  21.157  11.836
59217W        W30833  15.536  21.992   1.866
59218W        W30834  30.587  23.236   3.133
59219W        W30835   7.169   5.168  13.435
59220W        W30836  28.543  17.531  10.201
59221W        W30837  38.087  26.719  11.498
59222W        W30838  44.073   9.061  12.096
59223W        W30839  16.234  41.228  12.616
59224W        W30840  32.724   0.243   3.197
59225W        W30841  10.551  13.327   2.788
59226W        W30842  29.035  21.078   1.270
59227W        W30843   2.994  23.915   3.644
59228W        W30844  10.100  16.454  11.168
59229W        W30845  30.439  25.927   0.515
59230W        W30846  26.174  11.121  10.776
59231W        W30847  10.062  19.633  14.529
59232W        W30848  36.477  37.946   1.634
59233W        W30849  35.458   1.122  10.684
59234W        W30850   3.381   2.336   3.212
59235W        W30851  19.126  11.382  14.853
59236W        W30852  38.885  22.625   1.923
59237W        W30853  31.964  15.615  12.343
59238W        W30854  27.662  30.189   3.629
59239W        W30855  43.726   6.855   4.465
59240W        W30856   0.196  32.188   2.341
59241W        W30857  38.299  37.377  10.587
59242W        W30858  10.208  24.758  14.260
59243W        W30859  15.666   7.490  13.113
59244W        W30860  24.563  24.313  13.118
59245W        W30861  29.587  41.230  10.394
59246W        W30862   4.141   5.938   3.995
59247W        W30863  19.710  18.496  11.022
59248W        W30864  18.712  14.105   0.408
59249W        W30865   5.714  14.669   1.232
59250W        W30866  24.242   8.758   1.321
59251W        W30867   8.894  23.197   4.289
59252W        W30868  16.659  33.960  13.153
59253W        W30869  32.601  39.365   1.732
59254W        W30870  32.974  25.770   4.526
59255W        W30871   7.618   7.129  10.926
59256W        W30872   7.543  22.714  10.767
59257W        W30873  42.298  13.332  11.892
59258W        W30874  33.858  35.555   4.595
59259W        W30875  14.132   1.261   1.852
59260W        W30876  40.748  15.963  14.030
59261W        W30877  35.939  41.284  11.529
59262W        W30878  21.016  12.393  10.574
59263W        W30879  16.285  30.675  11.636
59264W        W30880  35.812  31.082  10.705
59265W        W30881  13.760  38.850  12.101
59266W        W30882  18.488  22.323   0.842
59267W        W30883  35.602   9.042   4.765
59268W        W30884  34.411  29.121   3.986
59269W        W30885   8.277  30.194  14.403
59270W        W30886  14.231  29.325   1.677
59271W        W30887   9.918  18.155  11.176
59272W        W30888  43.347  23.853   3.983
59273W        W30889  16.670  10.762  12.538
59274W        W30890  30.606   9.199   2.380
59275W        W30891  29.782   1.734   0.981
59276W        W30892   0.484  32.916   1.483
59277W        W30893  16.671  35.799   0.995
59278W        W30894   6.602  17.114  14.213
59279W        W30895  11.860  22.976  13.924
59280W        W30896  35.937  40.823  14.977
59281W        W30897  17.367   4.776  13.841
59282W        W30898   1.688  17.568   4.186
59283W        W30899  16.587  43.750   3.697
59284W        W30900  30.365  35.066   0.827
59285W        W30901  16.040  21.156   0.946
59286W        W30902   1.239  14.682  14.924
59287W        W30903  30.223  22.855  12.107
59288W        W30904  18.046   9.351   2.266
59289W        W30905  36.390  40.506   2.878
59290W        W30906  27.233   9.956   0.285
59291W        W30907   1.892  44.018   5.178
59292W        W30908   0.076  41.434   0.045
59293W        W30909   8.644  18.084   4.986
59294W        W30910  16.501   9.023  10.781
59295W        W30911  15.664   8.258   2.408
59296W        W30912  11.167  23.795  13.264
59297W        W30913  26.443   7.509   0.144
59298W        W30914  29.401  30.522  12.583
59299W        W30915  38.371  38.592  11.973
59300W        W30916  35.532   6.739   4.219
59301W        W30917   5.826  43.829   1.338
59302W        W30918  33.966  44.302   1.761
59303W        W30919  25.631   1.225   0.489
59304W        W30920  16.646  31.601   1.999
59305W        W30921  44.863  32.039   0.886
59306W        W30922  44.905  38.349  12.563
59307W        W30923  25.422  37.297   1.766
59308W        W30924  11.154  11.823  13.370
59309W        W30925  25.599  14.504   2.752
59310W        W30926  36.471  37.111   2.246
59311W        W30927  25.930  35.006   2.356
59312W        W30928  31.783  15.714   3.243
59313W        W30929   9.343  37.424   2.162
59314W        W30930  21.219  28.632   3.251
59315W        W30931  27.479  35.918  12.827
59316W        W30932  31.329  30.893   9.860
59317W        W30933  44.353  20.680  10.759
59318W        W30934  30.646   1.695  14.903
59319W        W30935  36.849  34.423  13.382
59320W        W30936  16.194   3.588  10.984
59321W        W30937   7.655   5.953   4.324
59322W        W30938   9.389  41.990   2.027
59323W        W30939   5.141  17.271  12.491
59324W        W30940   9.599  18.251  12.464
59325W        W30941  29.964  12.745  13.038
59326W        W30942  30.477  15.106   0.797
59327W        W30943   9.671  31.009  10.996
59328W        W30944  22.192  30.466  14.831
59329W        W30945  29.954  23.677   2.308
59330W        W30946   3.057   6.222  14.252
59331W        W30947  12.350  32.135  14.469
59332W        W30948  44.301   2.883   3.621
59333W        W30949  11.830  19.301   0.906
59334W        W30950  20.563   1.709   3.166
59335W        W30951  29.464  11.204   1.413
59336W        W30952  35.806  40.042  11.160
59337W        W30953  15.784  24.586   2.145
59338W        W30954   6.022  15.364   4.049
59339W        W30955  32.370  41.344   4.078
59340W        W30956  20.159  16.294  12.931
59341W        W30957  34.991  15.890   3.234
59342W        W30958  22.797  38.006   1.521
59343W        W30959  39.269   8.996   0.450
59344W        W30960   0.772   4.404  11.163
59345W        W30961  42.085  14.334   1.810
59346W        W30962   5.950   1.322  11.653
59347W        W30963  23.471   9.889   2.300
59348W        W30964  36.953  32.608   4.670
59349W        W30965   3.330  36.264  12.938
59350W        W30966  36.919  20.751   2.157
59351W        W30967  36.255  28.795   1.726
59352W        W30968  19.768  40.436  10.740
59353W        W30969  25.920   5.421  13.772
59354W        W30970  30.886  44.375   0.167
59355W        W30971  27.640  18.217   3.339
59356W        W30972  37.852   7.257   1.516
59357W        W30973  19.592  32.069   0.415
59358W        W30974  30.954  10.786  10.655
59359W        W30975   4.432  31.180   0.835
59360W        W30976  38.496  29.026  14.889
59361W        W30977   4.834  28.763  13.493
59362W        W30978  24.753  41.367   3.613
59363W        W30979  21.941  17.512  12.099
59364W        W30980  40.543  40.041   3.745
59365W        W30981   4.401   4.147  11.179
59366W        W30982  27.945  25.355   5.113
59367W        W30983  25.274  12.187  13.879
59368W        W30984   1.462  15.713   4.602
59369W        W30985   6.802  10.588   3.610
59370W        W30986  38.574  38.824   3.328
59371W        W30987  42.251  28.619  13.581
59372W        W30988  42.213  39.309  13.361
59373W        W30989  13.473  15.199   4.719
59374W        W30990  34.943  19.132  14.453
59375W        W30991  17.544  42.838   3.321
59376W        W30992  43.007  11.153  14.935
59377W        W30993  14.703   0.854   1.260
59378W        W30994  26.658  43.525  11.649
59379W        W30995  24.208   3.791   4.043
59380W        W30996  27.378  44.234  11.547
59381W        W30997  22.634  43.436  14.479
59382W        W30998   9.699  28.148   2.569
59383W        W30999  30.709   1.400   1.901
59384W        W31000  40.810  44.484   0.551
59385W        W31001  10.828   1.699  13.832
59386W        W31002  11.532  37.009  11.111
59387W        W31003  44.359   2.435  14.474
59388W        W31004  14.537  42.370  12.867
59389W        W31005  29.996  24.158   0.288
59390W        W31006  34.478   1.656   3.133
59391W        W31007  15.860   9.309  11.680
59392W        W31008  11.917  33.414   2.251
59393W        W31009  15.277  35.905   3.451
59394W        W31010  40.648  13.681   4.138
59395W        W31011   4.217  38.564  13.398
59396W        W31012   2.306  25.673   3.689
59397W        W31013   3.234  37.143  12.573
59398W        W31014   9.670  17.044  13.909
59399W        W31015  10.717   3.784   1.245
59400W        W31016  42.534  34.820  14.518
59401W        W31017  36.116  29.090   4.569
59402W        W31018  20.519  21.970  11.066
59403W        W31019  34.429  35.717  13.873
59404W        W31020   5.561  22.196   4.108
59405W        W31021   5.279  38.307   0.010
59406W        W31022  41.702   7.364   4.095
59407W        W31023  41.884  17.423  12.499
59408W        W31024   3.370  27.098   4.028
59409W        W31025  22.388   1.774   9.932
59410W        W31026  43.943   8.215   1.482
59411W        W31027   0.380  44.506  13.405
59412W        W31028  38.411  35.008  13.359
59413W        W31029  21.818  34.003  13.043
59414W        W31030   2.248  38.402   0.371
59415W        W31031  28.700  27.726  13.486
59416W        W31032  22.565  26.228  12.808
59417W        W31033   0.550  40.836   0.538
59418W        W31034  36.412   5.888   2.445
59419W        W31035  15.113  36.575   2.174
59420W        W31036  12.756  23.981   3.844
59421W        W31037  23.310  37.226  12.044
59422W        W31038  15.244  20.625  11.652
59423W        W31039  12.269  44.639   3.271
59424W        W31040  42.799  21.273  11.181
59425W        W31041  17.152  19.746  12.939
59426W        W31042  24.069  28.189   4.627
59427W        W31043  37.350  29.417   4.524
59428W        W31044  19.651  22.973   2.108
59429W        W31045   1.858  13.617   3.844
59430W        W31046  19.742  22.903  14.903
59431W        W31047  23.044   2.678   2.370
59432W        W31048  32.580  18.669  13.666
59433W        W31049  10.663  29.947   4.045
59434W        W31050  21.782  17.086  12.924
59435W        W31051  24.476  11.722   0.921
59436W        W31052  23.367  33.914  11.138
59437W        W31053  19.413  23.894   4.162
59438W        W31054  30.530  27.330   5.381
59439W        W31055   8.275  32.363  12.565
59440W        W31056   3.453  27.197   2.243
59441W        W31057  14.073  37.969   4.222
59442W        W31058   6.058  34.478  12.991
59443W        W31059  32.678   1.312  11.143
59444W        W31060   6.718   0.029  10.436
59445W        W31061  19.345   0.981  14.272
59446W        W31062  22.161   1.286  11.417
59447W        W31063  31.579  15.203   3.693
59448W        W31064   1.510  16.026   4.206
59449W        W31065  20.708  19.124   1.185
59450W        W31066  31.919  30.641  12.573
59451W        W31067  15.803  26.721  10.590
59452W        W31068  23.472  17.712  11.521
59453W        W31069  15.319  41.298   0.795
59454W        W31070  26.086   4.301   3.227
59455W        W31071   8.908  18.547   5.027
59456W        W31072  28.130  27.030   0.323
59457W        W31073   9.773  10.542   4.215
59458W        W31074  30.507  21.378   0.085
59459W        W31075  10.395  24.629   2.871
59460W        W31076  27.963  24.739  13.927
59461W        W31077  24.962  10.965   2.335
59462W        W31078   1.182  12.705  12.469
59463W        W31079  10.320  41.135   4.963
59464W        W31080  32.937  37.218   2.466
59465W        W31081   1.680  35.430   1.563
59466W        W31082  43.708  18.193   2.910
59467W        W31083  30.336  15.237  12.835
59468W        W31084  11.767  40.064  14.393
59469W        W31085  30.050   8.842  13.935
59470W        W31086  27.143  39.508  12.707
59471W        W31087   5.654  37.854  14.398
59472W        W31088  31.928  15.115  12.509
59473W        W31089  29.603  17.048   3.181
59474W        W31090   3.764  25.166   1.698
59475W        W31091  17.868  44.313  14.280
59476W        W31092   8.671  10.261  10.271
59477W        W31093   2.526  14.677  14.308
59478W        W31094   7.445  43.173   4.553
59479W        W31095  21.457   4.034   1.213
59480W        W31096   8.344  21.841  12.670
59481W        W31097  23.763   7.418   1.073
59482W        W31098  17.254  19.255   0.457
59483W        W31099  38.054  13.601   4.671
59484W        W31100  18.005  28.056  14.745
59485W        W31101   5.527  34.140   3.300
59486W        W31102  39.128   5.094   3.817
59487W        W31103  26.868  43.919   2.616
59488W        W31104  11.792  39.351  13.441
59489W        W31105  12.832   3.523  12.587
59490W        W31106  16.283  23.718  14.307
59491W        W31107  29.381  17.843  11.187
59492W        W31108  22.629  22.209  10.167
59493W        W31109  41.882  10.798  10.473
59494W        W31110  12.740   6.202  12.366
59495W        W31111  43.882   1.225  13.356
59496W        W31112  22.095   0.799  13.433
59497W        W31113  44.436  41.744  12.049
59498W        W31114   2.460   1.698   0.842
59499W        W31115  10.392  21.648   0.878
59500W        W31116   7.276  25.345  11.113
59501W        W31117  17.573  18.549   1.742
59502W        W31118  15.256  14.184   2.325
59503W        W31119  39.027   2.578  10.725
59504W        W31120  27.933  27.977  12.913
59505W        W31121   3.966  12.325  14.845
59506W        W31122  14.046  28.087  14.401
59507W        W31123   6.608  19.906  11.564
59508W        W31124  11.660  39.815  12.026
59509W        W31125  16.679  42.054  12.105
59510W        W31126  18.553   6.578   5.037
59511W        W31127  44.005   0.724  10.797
59512W        W31128  33.504   7.371   1.209
59513W        W31129  21.139  21.842  14.304
59514W        W31130   8.325  20.204  14.825
59515W        W31131  16.272  38.023   3.589
59516W        W31132  18.685  27.028  11.570
59517W        W31133  24.050   1.564  14.330
59518W        W31134   3.189  11.729   4.661
59519W        W31135   9.343  11.758  12.645
59520W        W31136   4.656  33.935  14.797
59521W        W31137  20.868  29.946   5.105
59522W        W31138   3.686  11.788   0.638
59523W        W31139  44.434   1.172  12.567
59524W        W31140  11.609   8.865  13.179
59525W        W31141  31.487   1.078   2.889
59526W        W31142   9.419   8.220  11.174
59527W        W31143  32.650  20.175   3.375
59528W        W31144   3.373   9.978  11.611
59529W        W31145  42.076   9.630   3.056
59530W        W31146   9.193  37.638   3.587
59531W        W31147  25.440  43.247   1.792
59532W        W31148   3.375  23.890   2.865
59533W        W31149  16.007  19.817  11.183
59534W        W31150  37.106  20.380  12.500
59535W        W31151  35.521  42.416  13.611
59536W        W31152   0.092   2.825   2.426
59537W        W31153  37.021  11.084   4.875
59538W        W31154   1.215  13.774  14.840
59539W        W31155  24.019  40.462  12.591
59540W        W31156  26.300  15.562   5.193
59541W        W31157  21.206  29.380  14.079
59542W        W31158  38.062  17.476  14.194
59543W        W31159  26.442  41.951   4.219
59544W        W31160   3.842   9.453   4.611
59545W        W31161  11.883  39.902   0.764
59546W        W31162   1.682  11.832  11.502
59547W        W31163   9.880  12.849   1.137
59548W        W31164  21.079  35.074  10.993
59549W        W31165   7.783  15.096   4.674
59550W        W31166  41.492  35.906   3.257
59551W        W31167  10.268  42.472  12.335
59552W        W31168  25.598   6.178   4.602
59553W        W31169  41.610   0.739   3.576
59554W        W31170   7.303   1.509  13.965
59555W        W31171  41.482   8.743  12.039
59556W        W31172  36.619  33.635  12.042
59557W        W31173  10.864  29.517   2.378
59558W        W31174  21.200   7.884   4.167
59559W        W31175  37.261  25.636  11.071
59560W        W31176  13.529   5.826   3.681
59561W        W31177  44.299  33.042  11.294
59562W        W31178  28.859  37.121  10.918
59563W        W31179  36.705  23.669   4.560
59564W        W31180  27.430  26.071  14.679
59565W        W31181  19.011   2.821  11.092
59566W        W31182  42.269  34.568   3.410
59567W        W31183   7.100  36.452   2.884
59568W        W31184   9.410  10.385   1.705
59569W        W31185  12.353  20.735  11.623
59570W        W31186  25.706  31.138  14.868
59571W        W31187  12.535  18.620   4.273
59572W        W31188   0.932  29.725  11.209
59573W        W31189  32.990  10.191   4.704
59574W        W31190  35.650  39.236   0.906
59575W        W31191   9.001  21.592  11.997
59576W        W31192   6.846  21.722   4.475
59577W        W31193   6.104  11.259   0.826
59578W        W31194  38.625   2.904   1.268
59579W        W31195  17.510  19.562  11.311
59580W        W31196   0.859  26.665   0.374
59581W        W31197  12.725  31.371   0.835
59582W        W31198  14.689  38.117  10.687
59583W        W31199  16.896   9.383  10.731
59584W        W31200  11.767  20.232  14.081
59585W        W31201  10.307   0.922  12.573
59586W        W31202  21.824  10.884  12.941
59587W        W31203   5.724   2.248   1.269
59588W        W31204  21.600  40.632   1.331
59589W        W31205  34.510   2.866   4.708
59590W        W31206  30.573  23.419  12.420
59591W        W31207   4.820  14.874  14.113
59592W        W31208  28.318  18.693  14.421
59593W        W31209  31.138  43.987  12.927
59594W        W31210  18.738  43.399  14.899
59595W        W31211  36.402   3.333  12.104
59596W        W31212  11.325  42.989   3.728
59597W        W31213   1.961  44.042  12.824
59598W        W31214  24.536  19.278  10.694
59599W        W31215  38.546   3.857   4.380
59600W        W31216  33.812   6.081   4.156
59601W        W31217  32.481   8.780   4.145
59602W        W31218   3.752  12.640   0.569
59603W        W31219  25.264  39.994   4.660
59604W        W31220  24.973  12.882  13.489
59605W        W31221  38.854  16.909   3.328
59606W        W31222  21.090  36.748   4.746
59607W        W31223   0.203  33.977  14.329
59608W        W31224  27.183  34.863   0.648
59609W        W31225  11.766  12.355  12.424
59610W        W31226  36.340  10.804   4.897
59611W        W31227  35.422  16.525  10.676
59612W        W31228  18.051  44.956  13.290
59613W        W31229  29.663  28.958   5.107
59614W        W31230  10.837  18.798   2.225
59615W        W31231  13.148  22.850   4.058
59616W        W31232  28.051   3.172   1.828
59617W        W31233  32.865  33.639   1.331
59618W        W31234  11.441  18.725  13.463
59619W        W31235  33.517  22.285   2.634
59620W        W31236   0.522   7.396  14.192
59621W        W31237   9.222  38.042  13.549
59622W        W31238  11.234  27.061  12.922
59623W        W31239  42.474  30.894   1.702
59624W        W31240  37.865  44.454  14.067
59625W        W31241  27.289  40.214  11.587
59626W        W31242   0.882  27.243  13.861
59627W        W31243  38.998  41.377   4.961
59628W        W31244   2.214  38.927   1.003
59629W        W31245  15.104  37.950   5.071
59630W        W31246  25.522  32.384   2.302
59631W        W31247  18.094  23.371   1.820
59632W        W31248   9.920  11.206   3.815
59633W        W31249  12.418  36.862   2.823
59634W        W31250  17.020   9.335   2.408
59635W        W31251   4.698   7.175  11.492
59636W        W31252   0.334  29.082   3.171
59637W        W31253  14.079  10.906  10.551
59638W        W31254  36.474   1.296   4.146
59639W        W31255  41.938  23.913  12.501
59640W        W31256  41.508  11.346  13.456
59641W        W31257  25.597  37.466  14.265
59642W        W31258   8.838  43.046  12.913
59643W        W31259  15.111  14.301   1.852
59644W        W31260   4.443   2.881  14.033
59645W        W31261  44.879  43.451   4.204
59646W        W31262  32.987   5.775  12.790
59647W        W31263  29.740  24.564  11.126
59648W        W31264   3.209  29.029  10.861
59649W        W31265  14.078  19.545  13.080
59650W        W31266  10.632  32.589   4.028
59651W        W31267   0.722  41.224  14.400
59652W        W31268  13.401  37.213  11.393
59653W        W31269  27.045  40.854   2.998
59654W        W31270   5.218  26.422   3.248
59655W        W31271  11.476   6.762  13.380
59656W        W31272  16.828  30.992   2.746
59657W        W31273  14.552   0.338   0.094
59658W        W31274   3.783  27.951  12.649
59659W        W31275  18.394   8.110  13.398
59660W        W31276  32.508   6.710   1.310
59661W        W31277  40.435  24.964   4.525
59662W        W31278  32.269  15.141  13.394
59663W        W31279  23.552  28.457   0.336
59664W        W31280  14.426  16.327   3.256
59665W        W31281   4.537  34.507   4.188
59666W        W31282  29.010   5.104  13.864
59667W        W31283  24.615  32.907   1.415
59668W        W31284  33.004  18.166  13.928
59669W        W31285  24.815   2.477  11.936
59670W        W31286  18.597  30.906   3.101
59671W        W31287  20.294  31.936  10.427
59672W        W31288  15.451  37.418   3.179
59673W        W31289  43.564  17.129   2.112
59674W        W31290  23.001  36.328   1.843
59675W        W31291  12.091  29.502   2.784
59676W        W31292  15.682  41.186  14.989
59677W        W31293  34.768  13.707   0.841
59678W        W31294  43.807  26.646  14.807
59679W        W31295  33.841   2.881   4.037
59680W        W31296   0.719  19.776  12.035
59681W        W31297  38.544  16.679   2.801
59682W        W31298  40.818  10.646   3.357
59683W        W31299  28.942   3.711   0.773
59684W        W31300   6.407  29.239  14.451
59685W        W31301  44.364  27.473   2.206
59686W        W31302  15.501  30.391   4.113
59687W        W31303  27.715   9.150   1.300
59688W        W31304   4.542  34.443  10.657
59689W        W31305  31.113  37.390   1.814
59690W        W31306   2.404  32.082   1.778
59691W        W31307   0.921  18.206  13.795
59692W        W31308  16.586  21.269  11.089
59693W        W31309   7.354   1.716  14.491
59694W        W31310  23.712  29.440   2.634
59695W        W31311  31.491  31.868   0.370
59696W        W31312   5.264   9.605  14.269
59697W        W31313  13.640  27.721  14.820
59698W        W31314  11.564  39.542  10.611
59699W        W31315  11.777  39.620   3.253
59700W        W31316   2.357  15.221  13.879
59701W        W31317   2.288  17.176   0.922
59702W        W31318   4.000  36.766   4.224
59703W        W31319  14.760  41.490   2.213
59704W        W31320  29.031  23.688  12.462
59705W        W31321  33.516  16.113  10.713
59706W        W31322  35.302   9.553   2.632
59707W        W31323  28.380   6.252   4.120
59708W        W31324  28.007  38.093   3.431
59709W        W31325  38.235  30.638   1.456
59710W        W31326   8.771  16.145  13.072
59711W        W31327  14.579  27.602   4.856
59712W        W31328  39.279  33.105   2.374
59713W        W31329   2.238  13.098   2.114
59714W        W31330   7.675  21.328  12.468
59715W        W31331  34.985   8.588  12.997
59716W        W31332  22.161  38.581  13.215
59717W        W31333   3.299  39.390   4.424
59718W        W31334  28.662   0.806  12.657
59719W        W31335   9.444   1.442  13.532
59720W        W31336  35.709  39.503  13.489
59721W        W31337  15.063  11.274   1.265
59722W        W31338  35.055   9.453  10.488
59723W        W31339   1.250  13.412   2.005
59724W        W31340  43.354   0.020  13.608
59725W        W31341  24.931  15.751  13.418
59726W        W31342   9.125  39.902   3.818
59727W        W31343  38.894  11.126  13.689
59728W        W31344  15.493  27.620   3.259
59729W        W31345  11.421  29.489  14.176
59730W        W31346  16.206   5.046   5.048
59731W        W31347   6.181  43.295   3.227
59732W        W31348   7.413  27.773  14.043
59733W        W31349   3.333   7.830   4.562
59734W        W31350  31.197  42.783   5.342
59735W        W31351  20.479   3.272   2.867
59736W        W31352  26.175  38.477   1.266
59737W        W31353  24.090  39.382   1.691
59738W        W31354  27.683  31.413   3.319
59739W        W31355   6.921   8.906   2.148
59740W        W31356   1.893  39.513  14.872
59741W        W31357  41.322  24.078   3.456
59742W        W31358  22.047  35.101  10.558
59743W        W31359  37.961  35.693  13.694
59744W        W31360  43.006  24.608  13.003
59745W        W31361  25.437  12.261   2.198
59746W        W31362  30.116  44.401  14.512
59747W        W31363  20.518  23.657  12.782
59748W        W31364  38.479   7.348   3.238
59749W        W31365   9.872  39.598   3.636
59750W        W31366  28.125  25.657   0.791
59751W        W31367   3.559  38.091  12.502
59752W        W31368  21.546   4.263   4.055
59753W        W31369   8.246   3.723   3.289
59754W        W31370  18.336  22.744  12.085
59755W        W31371  41.751  29.185   2.978
59756W        W31372  20.790  31.613   4.876
59757W        W31373  19.939  38.844   4.345
59758W        W31374  38.782  42.270  13.890
59759W        W31375  24.192  32.742  11.651
59760W        W31376  16.303  24.718   4.402
59761W        W31377  16.308  30.944  14.693
59762W        W31378  33.132  30.082  11.542
59763W        W31379   5.533  41.632   3.375
59764W        W31380  24.258   9.187  13.066
59765W        W31381   3.421  16.758  11.633
59766W        W31382  32.370  28.593  12.429
59767W        W31383  18.025   0.692   0.875
59768W        W31384  13.310  24.913  13.456
59769W        W31385  23.068  33.313  13.139
59770W        W31386   5.157  22.667  11.800
59771W        W31387  20.186  15.285  11.525
59772W        W31388   9.705  30.509   2.105
59773W        W31389   9.261  16.299   0.337
59774W        W31390  17.935  21.691   1.865
59775W        W31391  17.591  15.847   4.902
59776W        W31392  15.436  38.005   4.583
59777W        W31393   7.734  20.497   2.367
59778W        W31394  35.237  33.017   0.820
59779W        W31395   1.181  12.535   3.813
59780W        W31396  30.264   2.818   2.230
59781W        W31397   6.784  21.225  11.958
59782W        W31398  24.282  26.732  12.069
59783W        W31399  14.321  35.482   4.530
59784W        W31400  39.505  24.750   1.364
59785W        W31401  33.583  21.342   5.106
59786W        W31402  27.871  40.661   1.061
59787W        W31403  35.992  27.891   0.919
59788W        W31404   1.391   3.883   3.317
59789W        W31405   3.239  24.934   0.387
59790W        W31406  10.322  26.966   2.425
59791W        W31407  26.482   2.376  13.174
59792W        W31408  27.229   8.442  11.252
59793W        W31409  41.189  29.480   3.727
59794W        W31410  22.152  14.117  13.625
59795W        W31411  32.955  16.634   3.657
59796W        W31412  36.854  37.896   3.659
59797W        W31413   8.385  24.744  11.619
59798W        W31414  28.624  14.609   3.810
59799W        W31415  20.637   6.197  13.994
59800W        W31416  12.169  15.172  13.981
59801W        W31417  27.169  40.192  10.752
59802W        W31418  30.338   7.149  12.119
59803W        W31419   6.586  25.026   4.077
59804W        W31420   6.228  26.746  11.514
59805W        W31421  17.134  44.788  14.351
59806W        W31422  17.869   5.780   3.173
59807W        W31423  38.881  18.324  10.777
59808W        W31424  33.583   2.421   1.350
59809W        W31425  37.859  18.996  11.631
59810W        W31426  11.582  40.459   2.195
59811W        W31427  36.479  43.790  14.528
59812W        W31428  42.253  26.007  12.047
59813W        W31429  20.899   9.348  13.850
59814W        W31430  27.770  31.028  14.827
59815W        W31431  43.003   4.665   2.242
59816W        W31432   7.280  37.124   4.236
59817W        W31433  42.298  40.361  11.925
59818W        W31434   9.155  39.690   4.520
59819W        W31435   3.894  16.168   1.554
59820W        W31436  18.488  24.978   0.536
59821W        W31437   5.755  17.205   3.041
59822W        W31438  17.158  25.158   1.006
59823W        W31439   6.191  43.339  14.235
59824W        W31440   8.143   0.470   0.863
59825W        W31441   8.242   6.305  13.901
59826W        W31442  43.769  20.208   3.489
59827W        W31443   1.045   4.472  13.889
59828W        W31444  18.527  43.488  12.985
59829W        W31445  25.186  35.081  11.105
59830W        W31446  29.372  29.530   3.170
59831W        W31447   0.674   4.203  12.051
59832W        W31448  17.589  37.717   0.236
59833W        W31449  40.503  24.720  13.042
59834W        W31450  33.031  44.970  14.403
59835W        W31451  21.980  18.105  12.666
59836W        W31452   0.899  26.147   2.214
59837W        W31453   9.224  30.649   3.615
59838W        W31454  37.424  11.131  14.744
59839W        W31455   8.377   5.278  14.025
59840W        W31456  16.829  27.772   1.392
59841W        W31457   5.667   4.447  14.809
59842W        W31458   2.642  35.113   1.357
59843W        W31459  26.074  35.385   0.016
59844W        W31460  24.399  24.918   1.716
59845W        W31461  36.676  33.118   3.753
59846W        W31462  16.806  37.089   1.817
59847W        W31463   8.702  42.022  11.233
59848W        W31464  32.908  41.422  14.358
59849W        W31465  12.225   5.431  11.900
59850W        W31466  24.431  12.655   1.452
59851W        W31467  13.671   2.581  12.517
59852W        W31468  30.089  34.928   3.854
59853W        W31469   1.362  12.781  11.083
59854W        W31470  30.630  23.990  12.903
59855W        W31471   8.264  21.028   2.358
59856W        W31472  19.422  25.413   0.793
59857W        W31473   8.282  42.231  14.520
59858W        W31474   5.752  20.973  11.069
59859W        W31475   3.213  40.770  13.292
59860W        W31476  10.839  23.599   1.794
59861W        W31477  26.882   7.286   2.200
59862W        W31478  16.920   7.415  12.145
59863W        W31479  13.017   7.489   4.259
59864W        W31480  22.478  33.873  11.167
59865W        W31481  34.589  25.017  10.699
59866W        W31482  27.174  43.813   2.189
59867W        W31483  29.526  38.258  13.959
59868W        W31484  32.572  16.599   1.717
59869W        W31485  43.552  29.225   0.497
59870W        W31486  38.431   0.122  14.902
59871W        W31487  14.635  24.575  10.790
59872W        W31488  40.839  42.108  12.441
59873W        W31489  37.208  29.881  12.078
59874W        W31490  31.685  11.258   4.358
59875W        W31491  27.948  19.922   3.664
59876W        W31492   0.065  32.832  10.900
59877W        W31493  31.710   6.032   2.823
59878W        W31494  20.654  33.096   4.650
59879W        W31495  21.091  33.786   2.613
59880W        W31496  14.266   8.243   3.731
59881W        W31497  16.739  31.902   0.726
59882W        W31498  26.940   0.429   4.419
59883W        W31499  30.839  24.204   2.298
59884W        W31500   7.738  17.340  13.469
59885W        W31501  25.478  21.630   0.797
59886W        W31502  41.326  24.937   1.205
59887W        W31503  12.639  28.361  13.576
59888W        W31504  31.575  43.770  13.387
59889W        W31505  21.508  17.099   0.805
59890W        W31506   7.708  20.945   0.508
59891W        W31507  42.804   6.331  12.547
59892W        W31508  33.093  20.269   2.866
59893W        W31509  44.863  35.321  13.909
59894W        W31510  24.564   0.869   4.674
59895W        W31511  40.448  19.079  11.412
59896W        W31512  25.444  24.095   2.937
59897W        W31513  38.449  11.834  14.290
59898W        W31514  33.161   2.186  13.961
59899W        W31515  29.189  15.552  11.050
59900W        W31516  40.888  15.046   1.790
59901W        W31517   3.873   7.655  10.636
59902W        W31518  40.581  34.954  11.162
59903W        W31519  27.162  23.656  13.259
59904W        W31520  27.960  40.995   0.091
59905W        W31521   5.358  34.482   2.351
59906W        W31522  19.152  12.631   4.426
59907W        W31523  29.075  36.282  10.626
59908W        W31524  21.338  11.568   3.707
59909W        W31525   5.921  11.781   1.913
59910W        W31526  13.543  16.788   4.951
59911W        W31527  38.218  15.282  12.022
59912W        W31528   1.007  41.216   4.640
59913W        W31529  44.970  37.863   0.160
59914W        W31530  22.587   9.883   0.335
59915W        W31531  13.755   3.487  12.051
59916W        W31532  17.533  37.040  12.490
59917W        W31533  39.794   2.719  12.489
59918W        W31534   9.374  39.334   1.245
59919W        W31535  17.621  20.031  12.052
59920W        W31536   8.883  14.842  14.501
59921W        W31537  43.891  15.262   4.187
59922W        W31538  19.010   0.142   1.437
59923W        W31539  39.095  42.174   4.461
59924W        W31540  43.537   3.120   4.208
59925W        W31541   7.476   5.416  12.836
59926W        W31542  14.712  29.750  11.285
59927W        W31543  40.818  41.550  10.720
59928W        W31544  32.490  41.557   3.588
59929W        W31545  10.397   7.093   4.344
59930W        W31546   9.990   6.684  11.500
59931W        W31547  21.229  34.080  12.065
59932W        W31548  40.300  31.243  13.375
59933W        W31549  37.456  27.909  14.830
59934W        W31550   0.398   3.099   4.707
59935W        W31551   8.126  17.637   0.338
59936W        W31552  34.458  19.079   0.922
59937W        W31553  20.578   2.317  11.583
59938W        W31554  30.667  36.953   0.282
59939W        W31555  33.917  40.691   1.390
59940W        W31556  37.434   4.733   0.386
59941W        W31557  40.052  25.606   0.797
59942W        W31558   8.171  32.611  14.283
59943W        W31559   0.650   2.638   1.297
59944W        W31560  12.427  22.571   2.780
59945W        W31561   3.512   2.886   2.676
59946W        W31562   8.303  30.526  10.952
59947W        W31563   2.264  21.266   2.313
59948W        W31564   7.663   5.414  14.959
59949W        W31565   9.345   9.399   1.959
59950W        W31566  23.624  35.349   4.149
59951W        W31567  41.044  33.083   2.341
59952W        W31568  22.706  32.416  13.527
59953W        W31569  39.336  15.028   4.857
59954W        W31570  28.715  19.655  11.636
59955W        W31571   2.984  21.081  12.188
59956W        W31572  22.283   4.823   2.057
59957W        W31573  11.337  32.133   3.601
59958W        W31574  27.023  20.030   2.859
59959W        W31575  16.609   5.772  14.984
59960W        W31576  12.626  34.730   4.136
59961W        W31577  20.432  34.479  12.913
59962W        W31578  19.712  15.561  14.453
59963W        W31579   9.810   8.296  10.834
59964W        W31580  27.221  37.070  11.183
59965W        W31581   3.532  11.409  10.550
59966W        W31582   5.112   3.201   4.181
59967W        W31583  17.076  42.326   1.293
59968W        W31584  22.210  40.977   3.850
59969W        W31585   7.407  16.522  14.319
59970W        W31586  26.626  28.633   2.419
59971W        W31587  20.181  20.805   0.532
59972W        W31588  21.319  42.382   0.509
59973W        W31589  36.127  24.949  13.538
59974W        W31590  21.540  31.951   2.422
59975W        W31591  30.490  14.789   4.213
59976W        W31592  10.860  18.283   2.161
59977W        W31593  22.447  38.969   0.478
59978W        W31594  32.244  27.449   5.133
59979W        W31595  14.359  26.647   1.858
59980W        W31596  33.251  35.826  13.429
59981W        W31597  13.764   0.261  14.967
59982W        W31598  44.188  31.608  13.498
59983W        W31599  36.030  12.618   0.572
59984W        W31600  33.539  44.296   4.760
59985W        W31601  18.559  34.055   3.453
59986W        W31602   7.929   4.489  11.609
59987W        W31603  26.784  24.716   2.339
59988W        W31604   5.606  36.064   4.211
59989W        W31605  23.718  10.207  11.124
59990W        W31606  18.848  43.891  14.250
59991W        W31607  41.723  21.195   0.355
59992W        W31608  22.647   4.260   1.323
59993W        W31609  30.186  37.927  13.458
59994W        W31610  42.257  39.196   2.900
59995W        W31611   9.399  32.171  13.931
59996W        W31612   6.022  16.871   3.338
59997W        W31613  42.773  31.956  11.883
59998W        W31614  36.953  12.387   2.886
59999W        W31615  41.299  30.460  13.019
60000W        W31616  39.043  10.215  11.313
60001W        W31617  21.239  29.354  10.941
60002W        W31618  25.832  15.005  14.870
60003W        W31619  37.245  25.398   0.379
60004W        W31620  37.120  27.475   2.600
60005W        W31621  15.277  29.269  14.297
60006W        W31622  22.512  36.015   3.264
60007W        W31623  18.103  26.674  11.615
60008W        W31624  32.429  38.526   3.200
60009W        W31625  35.901  28.596  14.463
60010W        W31626  44.235  12.670  13.467
60011W        W31627  35.593   9.259  12.531
60012W        W31628   5.958  21.814  12.765
60013W        W31629   1.465  25.251   1.521
60014W        W31630   2.893  40.996   1.012
60015W        W31631   6.670  38.656   3.231
60016W        W31632  42.023  19.518   0.695
60017W        W31633  30.499  17.834   3.744
60018W        W31634  17.050   0.388  14.799
60019W        W31635  22.980  26.521  14.865
60020W        W31636  33.428  20.697  14.310
60021W        W31637  21.730   8.081  10.717
60022W        W31638  29.459   0.999  13.396
60023W        W31639   8.948   0.339   0.687
60024W        W31640   8.422  19.003  11.440
60025W        W31641   9.231  21.106   0.391
60026W        W31642  29.989  16.176   4.113
60027W        W31643  26.959  23.049   4.106
60028W        W31644  25.322  13.801  12.932
60029W        W31645  15.165  41.062  13.575
60030W        W31646  19.148  44.433  14.555
60031W        W31647  39.901  16.376   4.108
60032W        W31648  41.518  15.470  14.489
60033W        W31649  42.829   9.417  11.657
60034W        W31650  26.686   1.240   0.946
60035W        W31651   5.191  13.946  13.418
60036W        W31652  19.900  19.887  11.145
60037W        W31653  30.488  26.362   4.157
60038W        W31654   0.121  34.570   3.748
60039W        W31655  39.352   7.941  11.997
60040W        W31656  22.821  44.284   3.566
60041W        W31657  32.885   7.189  10.879
60042W        W31658   7.432  42.830   4.142
60043W        W31659   0.757  13.885   0.760
60044W        W31660  31.172   2.324   3.880
60045W        W31661  23.501  31.418  12.091
60046W        W31662  35.368  31.120   2.274
60047W        W31663  15.325  18.776   9.907
60048W        W31664  19.773  27.036  13.497
60049W        W31665  11.136   9.141  13.781
60050W        W31666  20.252   8.258  13.798
60051W        W31667   9.606  13.648   4.350
60052W        W31668  39.479  17.605   2.829
60053W        W31669  21.657   7.324  11.957
60054W        W31670  43.276  10.130  12.934
60055W        W31671  22.304  13.264   1.785
60056W        W31672   0.718  13.620  12.430
60057W        W31673  27.578   1.858  11.930
60058W        W31674   1.401   6.414  10.767
60059W        W31675  22.222  44.347  13.347
60060W        W31676   4.890  29.033  12.888
60061W        W31677  20.342  36.006   2.422
60062W        W31678  10.193  19.589  14.017
60063W        W31679   7.114  13.912   2.384
60064W        W31680   4.726  22.196  12.423
60065W        W31681   6.174  38.449   1.928
60066W        W31682  41.336  14.918  13.364
60067W        W31683  12.018   9.039   3.257
60068W        W31684  26.169   0.222   0.970
60069W        W31685   8.795  37.996  13.257
60070W        W31686  33.073  24.255  10.690
60071W        W31687  38.674  40.049  14.909
60072W        W31688  33.367  19.485   4.227
60073W        W31689  24.542  12.693  13.659
60074W        W31690   2.276  38.821   0.006
60075W        W31691   1.462  11.743   1.174
60076W        W31692  36.443  40.570  10.673
60077W        W31693   6.311  20.325   0.789
60078W        W31694  14.804  36.394   2.632
60079W        W31695  36.608  16.527   0.771
60080W        W31696  40.415  25.186  10.342
60081W        W31697  44.323  19.579   1.123
60082W        W31698  22.258   5.524   2.765
60083W        W31699  43.746  10.393  11.152
60084W        W31700   7.410  15.187  14.743
60085W        W31701  19.403   7.830   4.276
60086W        W31702   3.420  41.483  12.549
60087W        W31703   8.514  24.672   0.023
60088W        W31704  32.501  44.081  11.256
60089W        W31705  19.264  44.787   9.821
60090W        W31706  21.481  28.532   2.352
60091W        W31707  13.793  17.903  13.900
60092W        W31708  17.660  14.287  11.043
60093W        W31709  37.314  32.424   3.782
60094W        W31710  39.007  31.008  13.860
60095W        W31711  29.505  23.475   0.947
60096W        W31712  21.564  30.461  10.920
60097W        W31713  37.745   4.441  10.526
60098W        W31714  20.472  10.747  13.994
60099W        W31715  43.393  13.195   4.091
60100W        W31716   8.293  24.689  13.058
60101W        W31717  24.787  10.812   3.792
60102W        W31718  12.224  31.023  13.811
60103W        W31719  23.514   9.116  13.451
60104W        W31720  11.393  44.000  12.989
60105W        W31721   7.852  38.424   2.895
60106W        W31722  40.429  14.666  10.816
60107W        W31723  13.291  37.357  11.891
60108W        W31724   5.474  24.756  10.677
60109W        W31725  38.787  27.492   3.759
60110W        W31726   9.662  10.221  10.687
60111W        W31727   5.362   1.523  11.076
60112W        W31728   9.765  32.957   1.686
60113W        W31729  43.538  30.118   2.223
60114W        W31730  33.986  23.449   3.889
60115W        W31731  16.811   9.921  11.665
60116W        W31732  34.350  32.990   3.025
60117W        W31733  15.228   9.679   3.543
60118W        W31734  31.902  41.030  12.452
60119W        W31735  44.650  20.475   0.759
60120W        W31736  25.689  19.829   3.091
60121W        W31737  32.638   6.027  13.629
60122W        W31738  35.664  18.690  11.518
60123W        W31739   5.888  28.758  10.415
60124W        W31740  16.561   0.282  14.982
60125W        W31741  33.154  10.791   1.881
60126W        W31742  17.766  11.644   2.206
60127W        W31743  32.314  35.440   3.864
60128W        W31744  22.290   1.324  14.550
60129W        W31745  30.881  40.193   4.218
60130W        W31746  28.858  20.376  13.294
60131W        W31747  20.194  20.015   2.709
60132W        W31748  38.643  13.070  14.942
60133W        W31749   7.314  32.952  10.668
60134W        W31750  43.463  40.741   2.185
60135W        W31751  42.519  36.830   2.825
60136W        W31752  34.119  10.400   4.139
60137W        W31753  37.400  17.313  10.912
60138W        W31754  38.548  25.540   0.783
60139W        W31755  20.318  10.176   1.810
60140W        W31756  20.796  13.705  10.416
60141W        W31757  29.349   8.205   1.713
60142W        W31758  14.656  26.023   4.360
60143W        W31759  42.228  29.762  13.626
60144W        W31760  13.904  34.884  10.745
60145W        W31761  18.688  41.350   3.112
60146W        W31762  27.660  23.963   1.295
60147W        W31763   8.472  14.538  14.408
60148W        W31764   5.792  16.305  14.299
60149W        W31765  11.786  37.486  13.096
60150W        W31766  34.610  28.502  13.317
60151W        W31767  24.913  14.690  10.445
60152W        W31768  33.077  23.083  14.886
60153W        W31769  22.182  36.978  10.818
60154W        W31770  40.827  39.278  10.960
60155W        W31771  38.087   0.347  10.433
60156W        W31772  35.818  18.874  13.797
60157W        W31773   4.126   3.864   1.088
60158W        W31774  26.173  20.458   3.082
60159W        W31775  13.088  22.722   4.554
60160W        W31776  13.808  16.159   0.625
60161W        W31777  15.063  39.408  11.952
60162W        W31778   0.236   9.517   3.781
60163W        W31779  25.731  32.380   0.764
60164W        W31780  17.268  40.070  10.467
60165W        W31781   2.300  31.089  11.091
60166W        W31782  31.564  20.985  11.535
60167W        W31783   7.385   8.857  14.010
60168W        W31784  10.874  19.516  10.751
60169W        W31785  36.023  33.822   0.942
60170W        W31786  21.290   3.021   2.603
60171W        W31787  21.267  27.592   0.868
60172W        W31788  42.668  25.963   3.551
60173W        W31789  17.348  20.729  11.701
60174W        W31790  22.741  28.789   4.088
60175W        W31791  22.166  34.190   3.167
60176W        W31792  10.399   8.643  11.637
60177W        W31793   9.369   1.822  14.436
60178W        W31794   3.122  35.874  12.027
60179W        W31795  18.795  15.242  13.984
60180W        W31796   9.693   0.276  14.505
60181W        W31797  29.211  11.818  14.750
60182W        W31798  35.956   0.433   4.032
60183W        W31799  21.235  28.626   4.135
60184W        W31800  11.792  18.422  12.205
60185W        W31801  28.197  36.165   2.319
60186W        W31802  34.549   6.914  11.644
60187W        W31803   9.764  36.571  13.935
60188W        W31804   3.417  18.230  10.219
60189W        W31805  42.368  23.637   2.653
60190W        W31806  14.475  13.538  13.349
60191W        W31807  30.505   2.501  11.780
60192W        W31808  31.615  31.870  11.524
60193W        W31809  29.775  30.160   3.788
60194W        W31810  22.677  17.149   4.063
60195W        W31811  29.064  31.003   2.010
60196W        W31812   1.265  18.306  11.520
60197W        W31813  10.602   0.344  11.025
60198W        W31814  41.111  22.737  11.552
60199W        W31815   1.257   3.331   1.257
60200W        W31816  28.532  34.394   2.292
60201W        W31817  39.227   2.617   4.480
60202W        W31818  36.940  13.741   4.050
60203W        W31819  44.354  41.558  12.657
60204W        W31820   2.931  24.569  14.392
60205W        W31821  21.545  14.249  10.462
60206W        W31822  22.444  39.741  11.184
60207W        W31823  41.557   7.705   3.723
60208W        W31824  43.501  38.506   0.959
60209W        W31825  12.200  39.754  14.374
60210W        W31826   2.350  16.687   3.266
60211W        W31827   3.414  13.839  10.503
60212W        W31828  16.471  34.402   0.767
60213W        W31829  42.319  22.074   0.901
60214W        W31830  37.389   1.638   1.283
60215W        W31831   5.890   8.711   4.702
60216W        W31832  30.134   4.891   2.745
60217W        W31833   0.793  18.253  14.417
60218W        W31834  11.304  35.862   3.261
60219W        W31835   1.720  29.787   3.095
60220W        W31836  41.427  32.234   0.293
60221W        W31837   7.671  35.177  11.255
60222W        W31838  25.511  44.454   3.325
60223W        W31839  14.095  38.845  10.609
60224W        W31840  43.459  38.303   3.272
60225W        W31841  41.969  27.212   4.352
60226W        W31842   9.385  13.383  13.415
60227W        W31843   4.086  18.821   3.305
60228W        W31844   5.247  28.651  11.216
60229W        W31845  24.754  20.612   4.032
60230W        W31846  12.648   5.106   5.031
60231W        W31847  18.216  31.415   1.420
60232W        W31848  29.191   1.982  14.879
60233W        W31849   4.776  27.520  12.495
60234W        W31850   9.154   3.331  11.871
60235W        W31851  44.377  31.402  11.955
60236W        W31852  21.094   3.189   3.061
60237W        W31853  24.317  18.739   4.176
60238W        W31854   7.732  29.506  11.965
60239W        W31855  44.793  37.136  13.679
60240W        W31856  19.342  26.987   4.904
60241W        W31857  36.468  37.500   1.906
60242W        W31858  29.361  16.289  13.770
60243W        W31859  25.084  33.310  11.580
60244W        W31860  35.138  44.041  14.345
60245W        W31861  17.299  20.550   2.429
60246W        W31862  22.068  38.698  13.903
60247W        W31863   0.525  10.213  14.360
60248W        W31864  15.936   7.166   4.963
60249W        W31865  24.685  17.096   1.573
60250W        W31866  21.491  41.518  11.905
60251W        W31867  21.715   4.668  13.296
60252W        W31868  22.137   5.363  13.834
60253W        W31869  19.783  37.516  13.759
60254W        W31870  42.751  11.282  11.151
60255W        W31871  14.350   0.915  13.026
60256W        W31872  11.453  12.333   1.293
60257W        W31873   6.896  42.418  10.776
60258W        W31874  24.855  14.450   1.784
60259W        W31875  20.651  35.799  13.568
60260W        W31876  44.317  19.791  13.788
60261W        W31877  36.424  33.936   4.130
60262W        W31878  41.458   8.207  12.098
60263W        W31879   4.841  17.055  14.805
60264W        W31880  35.604  35.291  14.161
60265W        W31881  35.469  17.684  12.029
60266W        W31882  26.604  18.850   2.866
60267W        W31883  44.959   1.204   2.595
60268W        W31884  16.709   2.462  11.869
60269W        W31885  27.610  34.514  10.660
60270W        W31886  26.315  19.754   0.312
60271W        W31887   7.767  16.331   0.791
60272W        W31888  31.211   9.104  13.291
60273W        W31889  44.889   5.845  10.654
60274W        W31890  14.588  22.258  13.877
60275W        W31891  17.210  25.755  11.441
60276W        W31892  32.790   5.913  10.652
60277W        W31893  38.166  41.906  13.063
60278W        W31894  16.322  27.001   3.813
60279W        W31895  10.329  40.973   4.441
60280W        W31896  25.485  24.492  13.255
60281W        W31897  42.738  14.657  13.432
60282W        W31898  37.785  10.773  11.224
60283W        W31899  16.492  20.316  12.623
60284W        W31900  21.114  37.078   4.343
60285W        W31901  44.424  11.643  14.288
60286W        W31902  25.562   8.882   0.673
60287W        W31903  38.586  14.035  11.600
60288W        W31904  19.968  29.570   3.582
60289W        W31905  24.228   3.823   1.728
60290W        W31906  31.560  11.599  10.447
60291W        W31907   2.572   8.119  12.117
60292W        W31908  41.191  37.411   3.257
60293W        W31909  39.002   4.962  14.504
60294W        W31910   7.871  24.738  10.437
60295W        W31911  19.207  12.798  14.525
60296W        W31912  21.585  26.822   2.343
60297W        W31913  20.162  35.363  10.613
60298W        W31914  26.409   1.846  11.239
60299W        W31915  14.212  25.549  13.595
60300W        W31916  12.450  34.336  14.745
60301W        W31917   4.702  17.525  10.414
60302W        W31918   8.523   4.749  12.645
60303W        W31919  23.046   6.411   2.892
60304W        W31920  25.528  43.337  12.926
60305W        W31921   2.438  17.688   1.721
60306W        W31922  27.324  41.746  13.049
60307W        W31923  36.883  34.665  14.929
60308W        W31924  18.338  20.258   2.226
60309W        W31925  25.524   7.898   4.874
60310W        W31926  30.927  43.378  14.071
60311W        W31927  29.634  39.320   4.825
60312W        W31928   4.716  32.906   1.060
60313W        W31929  40.886   6.071   3.260
60314W        W31930  38.594  44.974   1.597
60315W        W31931  39.326  31.778   4.174
60316W        W31932   6.459  39.369  12.127
60317W        W31933  16.270  11.219  10.916
60318W        W31934  33.368   0.364   3.896
60319W        W31935   6.730  42.548   2.834
60320W        W31936  42.372  22.179  11.470
60321W        W31937  40.726  18.753   0.456
60322W        W31938   8.755  30.961   0.983
60323W        W31939  34.145  40.534  10.353
60324W        W31940   9.269  41.602  13.208
60325W        W31941  15.302  30.951   2.454
60326W        W31942  16.345   4.124   4.140
60327W        W31943   5.772  28.288   2.809
60328W        W31944   6.856  27.025   0.037
60329W        W31945   4.625  12.860  10.245
60330W        W31946  13.013   2.993  11.486
60331W        W31947  27.438   5.273   0.408
60332W        W31948  14.732  38.857   2.325
60333W        W31949  11.589  22.244  10.691
60334W        W31950   2.643   5.209   3.756
60335W        W31951  27.612  22.811  13.986
60336W        W31952  34.526   6.458   2.753
60337W        W31953   4.667  11.818   4.512
60338W        W31954  41.860  43.008   1.869
60339W        W31955  25.764  17.600   2.379
60340W        W31956   6.290  34.196  13.802
60341W        W31957  20.814  37.510  10.707
60342W        W31958  22.393  39.468   0.704
60343W        W31959  10.664  44.053   0.323
60344W        W31960  41.711  32.172   5.287
60345W        W31961  12.715  13.575  12.703
60346W        W31962  43.952   2.427   0.821
60347W        W31963  41.350  39.345   1.471
60348W        W31964  17.092   7.617  10.537
60349W        W31965  25.017  23.851   1.295
60350W        W31966  15.451   9.196  12.607
60351W        W31967  36.991  38.231  12.571
60352W        W31968  22.465  16.389  11.470
60353W        W31969  37.359  22.674  12.478
60354W        W31970  17.913   2.010   0.900
60355W        W31971  25.423  27.520  11.734
60356W        W31972  25.787  25.201   4.325
60357W        W31973  43.925  17.969   5.081
60358W        W31974  37.675  22.021  12.904
60359W        W31975  24.990  13.069   0.905
60360W        W31976  15.021  32.532  11.470
60361W        W31977  15.126  12.799  11.199
60362W        W31978   9.121  18.555  12.971
60363W        W31979  33.179   9.002   2.331
60364W        W31980  43.671  30.989  10.949
60365W        W31981  20.687  16.639   1.627
60366W        W31982  28.485   0.289  12.786
60367W        W31983   0.874  42.414   3.716
60368W        W31984  19.212  23.277   0.566
60369W        W31985  13.141  25.277  11.089
60370W        W31986  31.984   4.398  14.449
60371W        W31987  34.441  24.026   2.650
60372W        W31988  43.840  23.602  14.430
60373W        W31989  22.406   8.748  12.926
60374W        W31990  21.645  12.354  14.608
60375W        W31991  35.825  15.758   2.958
60376W        W31992  20.214  11.674  14.374
60377W        W31993  28.507  29.012  13.356
60378W        W31994  35.121  27.064   4.396
60379W        W31995  35.033  37.934  13.372
60380W        W31996  32.380  16.272  12.865
60381W        W31997  42.229   3.658   4.175
60382W        W31998  26.674  43.264   3.750
60383W        W31999  37.932   1.842   0.020
60384W        W32000   3.813  40.971   1.945
60385W        W32001  19.191  27.090   1.234
60386W        W32002   9.251   3.354   1.733
60387W        W32003  22.474  33.948   0.842
60388W        W32004  10.701   9.338  10.660
60389W        W32005  12.679  28.189   4.087
60390W        W32006  28.994  23.562   0.828
60391W        W32007   9.577   6.009   0.006
60392W        W32008  19.992   8.662   3.241
60393W        W32009   2.918  43.298   0.926
60394W        W32010   3.836  17.579   0.774
60395W        W32011   6.712  18.473   2.959
60396W        W32012   2.369  38.379   4.105
60397W        W32013  17.992   4.879   4.621
60398W        W32014  42.792   5.411   2.839
60399W        W32015  12.774  35.147  11.956
60400W        W32016  38.594  27.334   4.237
60401W        W32017  38.122  20.762   4.035
60402W        W32018  38.328  36.539  12.520
60403W        W32019   4.942  10.160   5.044
60404W        W32020  19.627  18.249  13.833
60405W        W32021  25.528  33.278  12.765
60406W        W32022  42.106  10.693   2.273
60407W        W32023  15.798  19.179   5.087
60408W        W32024  43.844  39.046  12.282
60409W        W32025  23.790   2.094   0.939
60410W        W32026   5.768  32.853  14.842
60411W        W32027   4.763  18.077  10.447
60412W        W32028  43.268  16.622  10.970
60413W        W32029  12.157  33.877   4.612
60414W        W32030   7.115  27.993   2.525
60415W        W32031  13.258  44.947  14.823
60416W        W32032  13.268  18.766  10.492
60417W        W32033  42.956  13.979   0.446
60418W        W32034  29.157  29.039   9.827
60419W        W32035  18.268  35.034  11.552
60420W        W32036  27.530   8.615  11.642
60421W        W32037  22.807  40.887   2.810
60422W        W32038   8.856  39.131  14.314
60423W        W32039  41.724  32.454   2.405
60424W        W32040  18.200  32.892   0.940
60425W        W32041  34.750  16.123   1.318
60426W        W32042  18.197  34.690   1.732
60427W        W32043  27.159  24.996   5.250
60428W        W32044  17.151   9.560  10.291
60429W        W32045  38.437  24.300   4.343
60430W        W32046   9.903   5.721   4.708
60431W        W32047  17.138  44.897  12.120
60432W        W32048   7.936  16.067   2.586
60433W        W32049   1.803  44.056   1.252
60434W        W32050   4.795  33.160  11.582
60435W        W32051   7.415  30.328  11.357
60436W        W32052  44.539  37.562   1.308
60437W        W32053   0.989  25.163   3.807
60438W        W32054  42.249   6.524   0.236
60439W        W32055  36.589  35.382   4.452
60440W        W32056  25.106  16.115   0.290
60441W        W32057   4.277  24.326  12.987
60442W        W32058  23.169   1.931   2.901
60443W        W32059  38.104  29.172  13.547
60444W        W32060  44.398  15.175  14.845
60445W        W32061  40.895  42.254  14.533
60446W        W32062  40.356  10.145  11.482
60447W        W32063  11.058   2.314   3.078
60448W        W32064   7.672  42.333   3.293
60449W        W32065  16.687   4.364  14.694
60450W        W32066  14.774  44.184   3.292
60451W        W32067   8.843  22.185  11.172
60452W        W32068  24.993   3.398  12.076
60453W        W32069  30.388  11.807  13.032
60454W        W32070   7.726  14.223  12.480
60455W        W32071  19.637  20.452  12.539
60456W        W32072  38.027  20.217   3.231
60457W        W32073   6.656  21.305   2.347
60458W        W32074  23.303  39.038   4.537
60459W        W32075   6.436   5.647  10.078
60460W        W32076   4.159  11.363  13.736
60461W        W32077  22.528  30.202  11.655
60462W        W32078   2.370  19.481   2.010
60463W        W32079  32.450  25.345  14.866
60464W        W32080  29.143   1.830  14.349
60465W        W32081  16.932   9.242   3.256
60466W        W32082  14.175   1.431  13.018
60467W        W32083   5.410  29.864   3.218
60468W        W32084  25.972  21.715   0.927
60469W        W32085  43.006  19.587   2.802
60470W        W32086   0.203  20.680  13.393
60471W        W32087   1.902  19.466   1.771
60472W        W32088  26.763  35.117  14.882
60473W        W32089   1.287   1.883  14.488
60474W        W32090  30.495   6.028   3.782
60475W        W32091  33.933  10.943  13.510
60476W        W32092   1.378  20.001  12.782
60477W        W32093  38.716  38.090  10.543
60478W        W32094  23.721   1.903   4.179
60479W        W32095  11.079  25.847  12.269
60480W        W32096  40.320  25.208  11.332
60481W        W32097  34.692   0.258  11.950
60482W        W32098   0.977  34.840  14.351
60483W        W32099   3.785   3.843   0.062
60484W        W32100  25.685  39.027  11.644
60485W        W32101  20.204  12.639  13.063
60486W        W32102  26.658  35.618  12.204
60487W        W32103   3.127  13.547  11.065
60488W        W32104  21.165   2.540   2.789
60489W        W32105  13.371  26.283   0.359
60490W        W32106  32.419  40.399   3.225
60491W        W32107  11.238   0.572  13.885
60492W        W32108   3.202  38.911   2.799
60493W        W32109  12.398   3.477  13.512
60494W        W32110  41.867  36.840  14.187
60495W        W32111  36.800  10.578  11.432
60496W        W32112  28.276   6.373  13.982
60497W        W32113  21.646  11.172  12.504
60498W        W32114  11.629  39.293  11.071
60499W        W32115  12.946  30.657   2.277
60500W        W32116  31.509  15.027  12.852
60501W        W32117  34.621  28.455   0.959
60502W        W32118  38.578   7.216  10.151
60503W        W32119  12.186   3.788   2.374
60504W        W32120  22.303  38.326   1.075
60505W        W32121  38.840   6.856  13.011
60506W        W32122  39.450  21.721  11.561
60507W        W32123  19.200  13.233   4.671
60508W        W32124   9.157  11.150  11.488
60509W        W32125   1.311  35.147  12.577
60510W        W32126  23.673  34.660  14.337
60511W        W32127  27.727  40.836   2.825
60512W        W32128  43.783  31.379  14.994
60513W        W32129  38.666   7.161   2.789
60514W        W32130  12.625  23.184   0.370
60515W        W32131   8.276  38.614   4.287
60516W        W32132  22.161   4.418   3.449
60517W        W32133  42.511  33.446  11.154
60518W        W32134  13.876  33.257  12.778
60519W        W32135  31.926  22.741  14.417
60520W        W32136  15.688  33.574  14.838
60521W        W32137  14.110   7.290  12.946
60522W        W32138  20.087   4.873  13.128
60523W        W32139  42.394  31.283  13.957
60524W        W32140  42.519  19.699   1.903
60525W        W32141  18.170   8.547  14.334
60526W        W32142  36.553  44.401  13.597
60527W        W32143  12.987   4.173   5.349
60528W        W32144  11.098  16.479   3.208
60529W        W32145  41.490  17.174   0.397
60530W        W32146   8.376   1.855  12.933
60531W        W32147  28.389  10.803  10.894
60532W        W32148  21.688   2.458   2.779
60533W        W32149  42.475  11.903  12.022
60534W        W32150   2.435  36.676   4.918
60535W        W32151  21.041  10.296   4.166
60536W        W32152  13.350  18.733  12.291
60537W        W32153  24.038  12.133   4.682
60538W        W32154  26.512  23.162   4.911
60539W        W32155   8.363   9.702  13.538
60540W        W32156  42.407   6.111   3.810
60541W        W32157   3.652  36.803   0.923
60542W        W32158   2.932  44.909   4.120
60543W        W32159   5.275  10.228   4.181
60544W        W32160   1.426  43.891  14.686
60545W        W32161  21.130   8.302   3.386
60546W        W32162   1.582  30.499  14.229
60547W        W32163  32.195   7.273  13.285
60548W        W32164  30.340  15.136   3.837
60549W        W32165  18.131  13.287  12.329
60550W        W32166   1.921  16.525  14.032
60551W        W32167  17.762  40.515  12.402
60552W        W32168  34.867  42.890   3.174
60553W        W32169  16.120  27.662  11.986
60554W        W32170  11.854  32.756   9.884
60555W        W32171  29.986  30.074  10.706
60556W        W32172  44.884  27.124   3.189
60557W        W32173  16.255  22.186  12.431
60558W        W32174  38.862   4.003  14.798
60559W        W32175  21.260  29.093   2.155
60560W        W32176   9.086   7.871  12.477
60561W        W32177  41.505  43.439   1.637
60562W        W32178  37.422  13.793  14.806
60563W        W32179  28.496   9.406  11.170
60564W        W32180  21.845  19.806   3.052
60565W        W32181  38.274  26.025   0.042
60566W        W32182  14.212  34.178   2.292
60567W        W32183   2.747   8.884   0.101
60568W        W32184  28.669   4.323  12.130
60569W        W32185  18.637  22.014   2.376
60570W        W32186  31.495  15.563  14.382
60571W        W32187  29.987  40.523   3.831
60572W        W32188   0.311   1.272   1.466
60573W        W32189  43.952  40.562  12.414
60574W        W32190  11.318  40.324  11.243
60575W        W32191  15.752  42.407  10.527
60576W        W32192  27.706  12.352   1.872
60577W        W32193  15.291  25.268   4.228
60578W        W32194  19.698   6.625   2.762
60579W        W32195  14.856  14.057  10.730
60580W        W32196  19.215  33.801   0.977
60581W        W32197  35.344  33.561  10.595
60582W        W32198  19.039  39.437   2.290
60583W        W32199  17.091  44.712  13.431
60584W        W32200  16.596  23.568  11.092
60585W        W32201  43.047  37.142   1.728
60586W        W32202  18.352  32.326  11.087
60587W        W32203  35.506  29.674  11.216
60588W        W32204  40.633  17.168  10.626
60589W        W32205   6.623  11.396   0.929
60590W        W32206  36.413  19.506  13.668
60591W        W32207  29.114  41.455  11.112
60592W        W32208  14.280  42.989   2.660
60593W        W32209  25.588  19.056  12.614
60594W        W32210  42.788   4.677  11.995
60595W        W32211   8.054   0.817  12.060
60596W        W32212   3.574  14.287  14.323
60597W        W32213  23.121   2.474   4.254
60598W        W32214  27.477  22.965   2.355
60599W        W32215  41.273  12.146   2.868
60600W        W32216   6.869  37.073  14.379
60601W        W32217  28.520  34.391   0.296
60602W        W32218  43.854   9.925  12.563
60603W        W32219  21.087   7.735  14.342
60604W        W32220  10.353  30.178   0.931
60605W        W32221  22.576  20.008  13.868
60606W        W32222  26.584  33.085   0.096
60607W        W32223  23.849  28.576  14.878
60608W        W32224  36.397  20.580  11.908
60609W        W32225  25.414  12.253  12.511
60610W        W32226   8.113  43.514   0.907
60611W        W32227   5.684  27.403   1.803
60612W        W32228  44.433  15.524  14.330
60613W        W32229  40.850  13.769  12.923
60614W        W32230  26.529  25.240   0.311
60615W        W32231  30.114  23.514   2.784
60616W        W32232  13.730  26.994   4.641
60617W        W32233   0.434  13.498  12.887
60618W        W32234  22.042  24.669   0.880
60619W        W32235  22.238   0.833  12.567
60620W        W32236  29.061  19.164   4.839
60621W        W32237  16.348   4.072  14.957
60622W        W32238   5.489  35.572  10.676
60623W        W32239  42.394   5.239   0.745
60624W        W32240  15.637  37.266   3.917
60625W        W32241  22.376  21.720   1.181
60626W        W32242  34.982  29.142  12.908
60627W        W32243  29.930  21.271   1.991
60628W        W32244  38.662  24.989  13.041
60629W        W32245  42.937  16.809  10.575
60630W        W32246  20.154   3.941  10.663
60631W        W32247   0.890  27.331   3.586
60632W        W32248  35.060  17.607   4.628
60633W        W32249  35.060   6.379   1.317
60634W        W32250  38.315  40.537   3.083
60635W        W32251  30.616   9.679   1.983
60636W        W32252   8.818  42.206  10.236
60637W        W32253  37.688  12.677   0.152
60638W        W32254   4.342  20.734   2.673
60639W        W32255  13.684   3.480   1.397
60640W        W32256  25.153  14.205   2.647
60641W        W32257   6.246  32.186  13.907
60642W        W32258  18.654  32.232  14.390
60643W        W32259  34.872  37.038  13.092
60644W        W32260  22.988  35.281  10.525
60645W        W32261   8.844   7.884   3.125
60646W        W32262   8.416  32.557  13.401
60647W        W32263  41.990  19.787   4.984
60648W        W32264  18.021  11.852   4.505
60649W        W32265   0.039  37.366   3.809
60650W        W32266  20.166  44.293   2.220
60651W        W32267  25.189  29.061  14.825
60652W        W32268  36.533  31.358   2.487
60653W        W32269  31.559  22.147  11.956
60654W        W32270  16.696   5.373  11.185
60655W        W32271  44.430  20.994   3.139
60656W        W32272  14.549  12.458   1.291
60657W        W32273  10.579  31.015   2.355
60658W        W32274   7.661  28.999  12.044
60659W        W32275   0.970  11.212   4.411
60660W        W32276  42.776  24.291   0.835
60661W        W32277  20.107  44.193   4.987
60662W        W32278  19.775  20.120   5.047
60663W        W32279  36.615  18.109   0.508
60664W        W32280  25.017  20.917  12.937
60665W        W32281  44.050   9.900   0.942
60666W        W32282  26.277   9.891  14.271
60667W        W32283  44.830  40.448   3.732
60668W        W32284  29.383  34.529   3.753
60669W        W32285  32.690  29.025  11.520
60670W        W32286  44.266  35.970   1.712
60671W        W32287  14.554   6.257   0.364
60672W        W32288  26.134  22.170   0.709
60673W        W32289  26.399   0.890   1.910
60674W        W32290  33.056  30.856  11.959
60675W        W32291  27.640  22.766  13.090
60676W        W32292  33.357  25.093   5.028
60677W        W32293  26.645  18.505   4.222
60678W        W32294  39.230  35.979  12.310
60679W        W32295   1.912  33.701   2.355
60680W        W32296  34.816   1.350   3.409
60681W        W32297  37.933  15.691  11.933
60682W        W32298  13.744  29.999  12.344
60683W        W32299  29.675  31.890  14.719
60684W        W32300  31.879   2.716   3.783
60685W        W32301  40.937  44.387   2.291
60686W        W32302  14.837  39.859  13.416
60687W        W32303  16.539  42.726   4.697
60688W        W32304  44.143   3.111   1.709
60689W        W32305  43.683  34.040  12.898
60690W        W32306   7.269  15.690  14.809
60691W        W32307  27.955  20.463  12.813
60692W        W32308  12.101  15.698   3.599
60693W        W32309   1.556  30.619  12.789
60694W        W32310  32.584   6.741  11.625
60695W        W32311  32.544  19.238   1.630
60696W        W32312   7.680  40.618  12.947
60697W        W32313  15.210  11.696   3.601
60698W        W32314  15.470  35.343  14.875
60699W        W32315  11.285  38.077   4.680
60700W        W32316  28.516   9.573   1.426
60701W        W32317   7.612  38.319   3.349
60702W        W32318   8.574   7.273  14.085
60703W        W32319  20.740   4.918   3.227
60704W        W32320   8.178  15.698  11.609
60705W        W32321  25.281   1.901  14.812
60706W        W32322  25.819   8.025  13.200
60707W        W32323   4.950  24.656   0.874
60708W        W32324  43.264  21.359  10.758
60709W        W32325   7.952   7.079  11.293
60710W        W32326  34.883  13.152  14.474
60711W        W32327  37.717  27.682  11.513
60712W        W32328   9.295  16.713  13.764
60713W        W32329   7.158  32.597  12.126
60714W        W32330  27.425  13.748   3.667
60715W        W32331  33.442  21.133  10.250
60716W        W32332  15.286  16.038  13.816
60717W        W32333   6.666  39.937   4.205
60718W        W32334  20.265  28.528   1.011
60719W        W32335  26.901  19.296  12.166
60720W        W32336  34.910  28.675  10.049
60721W        W32337  40.998  34.831  12.559
60722W        W32338  42.361  19.550  11.292
60723W        W32339  20.614  38.788   2.739
60724W        W32340  13.785  13.642  11.623
60725W        W32341  30.486  33.559   0.870
60726W        W32342  44.990  14.178  11.281
60727W        W32343  37.884   6.848  14.390
60728W        W32344  23.655  16.348  11.631
60729W        W32345  28.452  11.361  14.789
60730W        W32346   1.493  42.959  14.405
60731W        W32347  34.994  33.935  14.738
60732W        W32348  28.442  32.258   1.356
60733W        W32349   3.457  15.897  12.007
60734W        W32350   5.238  36.811   2.327
60735W        W32351  41.291  18.554   2.767
60736W        W32352   3.953  41.667  12.098
60737W        W32353  17.219  33.920  14.262
60738W        W32354   1.485  16.048  14.823
60739W        W32355  31.147   8.890  11.334
60740W        W32356  18.350  30.429  13.540
60741W        W32357   0.868  40.375   3.740
60742W        W32358   1.282  24.677   1.199
60743W        W32359  40.454   9.882   4.057
60744W        W32360  15.351  36.358   4.095
60745W        W32361   8.358   7.381  12.531
60746W        W32362   6.708  12.499   2.834
60747W        W32363  44.429  14.108   4.124
60748W        W32364  10.824  32.874   0.962
60749W        W32365  40.493  26.670  11.481
60750W        W32366   8.181  29.618   2.303
60751W        W32367  26.146  19.809  10.721
60752W        W32368  20.947  34.245   0.772
60753W        W32369  27.788   4.226   4.696
60754W        W32370  43.377  22.302   4.317
60755W        W32371  13.914  18.315   2.382
60756W        W32372  37.143  25.498   1.322
60757W        W32373   0.776  19.534   4.612
60758W        W32374  26.641  23.097  11.081
60759W        W32375   4.441  21.116   1.852
60760W        W32376   9.444  21.493   0.654
60761W        W32377  22.582   4.401   3.776
60762W        W32378   1.079  21.773  12.865
60763W        W32379  15.177   2.453   4.848
60764W        W32380  29.071  40.692  13.092
60765W        W32381  23.789  37.042   0.501
60766W        W32382  42.007   5.674   4.396
60767W        W32383  34.829  18.569   1.472
60768W        W32384  40.399  35.462   4.351
60769W        W32385   1.956  39.292   0.729
60770W        W32386  18.203  25.676  11.504
60771W        W32387  35.384  40.316  11.515
60772W        W32388   6.954   9.222   1.300
60773W        W32389  24.214  25.035   3.743
60774W        W32390  21.196  18.618   4.312
60775W        W32391  28.531  28.696   0.390
60776W        W32392   2.696   0.754  14.747
60777W        W32393  24.683   4.581  11.149
60778W        W32394  31.132  40.289   4.668
60779W        W32395  19.864  27.637   2.798
60780W        W32396  16.582  29.051   2.801
60781W        W32397  15.798  33.829   3.126
60782W        W32398  27.235  12.194  13.372
60783W        W32399  14.920  43.571   0.121
60784W        W32400  39.080  14.741  10.667
60785W        W32401  35.584   4.420  14.245
60786W        W32402   3.231  43.051   9.966
60787W        W32403  37.079  11.579   0.678
60788W        W32404  17.082  25.006  12.554
60789W        W32405   5.906  33.562   4.081
60790W        W32406  17.888  14.749  14.407
60791W        W32407  12.222   9.194   0.408
60792W        W32408   7.161  27.527  10.713
60793W        W32409   7.146  32.417  14.985
60794W        W32410  27.843  10.661   1.875
60795W        W32411  28.961   9.447   4.436
60796W        W32412  21.596   8.165   1.791
60797W        W32413  37.439   2.225   4.592
60798W        W32414  24.262  16.625  12.597
60799W        W32415  30.943  20.352   1.294
60800W        W32416  27.144  19.589   2.444
60801W        W32417  34.310  23.206  12.114
60802W        W32418  14.737   1.213  12.852
60803W        W32419   2.007  32.023   3.650
60804W        W32420  35.416  36.483  10.709
60805W        W32421  19.593  23.516  13.731
60806W        W32422  42.352  28.085   1.744
60807W        W32423  37.609   6.648   3.202
60808W        W32424  35.072  13.638  14.392
60809W        W32425   7.047  34.445   2.480
60810W        W32426  21.566  42.870  11.974
60811W        W32427  25.751  20.530  14.005
60812W        W32428  18.319   7.438   2.153
60813W        W32429  14.644   1.372   1.817
60814W        W32430  24.221   3.011  13.376
60815W        W32431   1.931  12.527   4.844
60816W        W32432   4.761  41.418  11.635
60817W        W32433  22.741  38.068  13.437
60818W        W32434   4.797  19.648   0.198
60819W        W32435   6.557  31.414   2.735
60820W        W32436  41.798   8.874  11.658
60821W        W32437  22.768  22.183   1.862
60822W        W32438  29.206   6.919  13.829
60823W        W32439  35.753  38.409  11.408
60824W        W32440  11.307  10.910   1.776
60825W        W32441   9.819  43.535   1.146
60826W        W32442   9.186  30.620   2.174
60827W        W32443  38.571  28.493   0.737
60828W        W32444  17.318  11.365  12.364
60829W        W32445  12.165  18.055  14.044
60830W        W32446  30.420  15.846   4.145
60831W        W32447   6.123  30.880   0.443
60832W        W32448  40.573   4.224   1.482
60833W        W32449   1.069  36.980   4.639
60834W        W32450   2.219  15.622  10.698
60835W        W32451  22.672  22.198  11.957
60836W        W32452  13.931  34.519   2.810
60837W        W32453  12.570  24.940  12.938
60838W        W32454  31.443  33.093   1.782
60839W        W32455   5.841  23.994   1.428
60840W        W32456  23.183  31.141   1.641
60841W        W32457  25.891   8.921  10.155
60842W        W32458  17.900  43.331  10.724
60843W        W32459   0.867  37.604  13.112
60844W        W32460   8.418   1.820  12.079
60845W        W32461  32.279  15.599   3.236
60846W        W32462   5.660  32.049  10.593
60847W        W32463  17.715   2.731   1.352
60848W        W32464  15.061  14.664  11.546
60849W        W32465  31.198  15.704   0.739
60850W        W32466   0.946  34.539  13.891
60851W        W32467   1.862  23.761  11.604
60852W        W32468   0.918  26.872   1.950
60853W        W32469  43.145  32.767  14.360
60854W        W32470  16.912  17.202   1.996
60855W        W32471   5.519  10.650  13.838
60856W        W32472  34.893   5.578   3.889
60857W        W32473  19.515  22.536   0.228
60858W        W32474  43.845   6.607  10.673
60859W        W32475  41.832  28.149   2.297
60860W        W32476  43.780  20.039   0.216
60861W        W32477  34.419  20.689  14.153
60862W        W32478  26.226  30.876   3.642
60863W        W32479  22.083   6.857  11.826
60864W        W32480  23.857  26.822  13.391
60865W        W32481  19.182  10.664   1.910
60866W        W32482   5.489  16.308  11.011
60867W        W32483  14.305  26.566  11.597
60868W        W32484   1.174  19.173  11.551
60869W        W32485   5.606   7.858  12.969
60870W        W32486  10.185  15.333   5.136
60871W        W32487  41.138  22.174  13.243
60872W        W32488  25.650  26.120  12.815
60873W        W32489  22.023  26.375  11.336
60874W        W32490  35.094  28.667  13.119
60875W        W32491   2.503  39.788   2.421
60876W        W32492  42.860  22.910   3.173
60877W        W32493   7.870  31.471   1.372
60878W        W32494  37.319  16.835  11.121
60879W        W32495   1.983  44.213  11.958
60880W        W32496  34.998  17.811   1.847
60881W        W32497  36.964  17.086  14.979
60882W        W32498  25.719  15.932  10.548
60883W        W32499  21.576   0.341   3.688
60884W        W32500  35.591  31.520  12.371
60885W        W32501  13.288  32.627   3.649
60886W        W32502  15.468  34.621   2.676
60887W        W32503  17.827   6.167   2.694
60888W        W32504  29.558  30.620   4.541
60889W        W32505  34.900  17.929  14.543
60890W        W32506  25.065  18.304  13.462
60891W        W32507  18.288  32.051  10.367
60892W        W32508  27.790  32.109  11.143
60893W        W32509  21.287  17.059  11.995
60894W        W32510   8.424  33.746  12.399
60895W        W32511  17.657  32.872   2.181
60896W        W32512  35.553  29.168   4.668
60897W        W32513  26.493  27.842  12.979
60898W        W32514  39.013  27.600  12.448
60899W        W32515  15.413  25.661   0.464
60900W        W32516  33.727   7.751  14.005
60901W        W32517  23.030  40.218  14.467
60902W        W32518   0.420   2.852   2.847
60903W        W32519  30.489  35.028  12.519
60904W        W32520  33.094  11.629   4.029
60905W        W32521  25.611  37.144  13.363
60906W        W32522  30.978  41.977  14.385
60907W        W32523  41.373  11.761   4.685
60908W        W32524   5.676  18.985  12.063
60909W        W32525  20.524  18.625   2.995
60910W        W32526  21.026  32.232   0.388
60911W        W32527  16.309   1.853  10.904
60912W        W32528  35.873   7.158  12.053
60913W        W32529  39.472  15.179   0.264
60914W        W32530  42.727   9.143  14.468
60915W        W32531  37.931  22.903   1.476
60916W        W32532  36.918   1.974  11.150
60917W        W32533  12.141  39.900   4.186
60918W        W32534  22.631  35.458   2.970
60919W        W32535  12.771  10.360  10.723
60920W        W32536  28.317  29.508   2.156
60921W        W32537  33.454  26.405   2.223
60922W        W32538  16.225  16.558   1.075
60923W        W32539   1.765  20.569   1.709
60924W        W32540  25.963   8.677   3.875
60925W        W32541   1.231  15.557  11.649
60926W        W32542  16.580  36.478   3.132
60927W        W32543   5.447  13.674  13.063
60928W        W32544  35.494  43.736  12.012
60929W        W32545  32.602  30.961  13.467
60930W        W32546   3.811   4.890   0.878
60931W        W32547  19.704  23.463   2.229
60932W        W32548   5.309   7.307  13.409
60933W        W32549  35.056  30.287  11.539
60934W        W32550   2.388  10.151   0.208
60935W        W32551   5.948  20.569   1.096
60936W        W32552  32.980  32.681   1.648
60937W        W32553  44.746   1.055   3.557
60938W        W32554  44.790  34.027  10.727
60939W        W32555  43.437   8.285   1.630
60940W        W32556   2.298  32.399  12.145
60941W        W32557   9.651  38.867   0.938
60942W        W32558  38.852   7.632  11.009
60943W        W32559  22.132   9.740   4.916
60944W        W32560  31.703  16.564  12.625
60945W        W32561  31.436  15.097   4.587
60946W        W32562  43.784   6.334  11.120
60947W        W32563  39.404  39.890   2.296
60948W        W32564  17.295  30.693  14.336
60949W        W32565   2.488  43.104  14.617
60950W        W32566  40.977  20.224  11.616
60951W        W32567  19.452  24.008  13.691
60952W        W32568  22.989  41.817   2.005
60953W        W32569  19.599  27.985  13.664
60954W        W32570  15.931  11.623   2.690
60955W        W32571  27.617   8.368   1.285
60956W        W32572  26.696  40.503   3.328
60957W        W32573  10.575   9.888   1.932
60958W        W32574  23.251  28.933  11.184
60959W        W32575   8.691  13.614   3.771
60960W        W32576  33.878  42.928  11.676
60961W        W32577  32.054   3.483  10.332
60962W        W32578  26.857  23.507   2.816
60963W        W32579  23.121  28.485   0.667
60964W        W32580  30.030  38.179   0.893
60965W        W32581  14.815   5.778   0.319
60966W        W32582   1.706  21.703  11.150
60967W        W32583  21.526   9.746  11.406
60968W        W32584  38.894  41.856  13.568
60969W        W32585   0.992  41.221   2.132
60970W        W32586   8.488  41.586  11.043
60971W        W32587  19.305  30.485  13.494
60972W        W32588  26.949  31.839   0.051
60973W        W32589  15.686  23.102   3.339
60974W        W32590  28.803   7.882  14.805
60975W        W32591   1.004  10.068   1.149
60976W        W32592  15.518  23.584   1.100
60977W        W32593  35.074   1.189  12.115
60978W        W32594  34.484   4.858  10.896
60979W        W32595  15.229   8.453   2.232
60980W        W32596  33.286   9.296  14.289
60981W        W32597  37.375  19.515  11.884
60982W        W32598  21.146  14.069   4.013
60983W        W32599  17.577  11.768   0.654
60984W        W32600   6.726  16.530   2.205
60985W        W32601   9.239  15.890  12.419
60986W        W32602  29.815   8.231  12.542
60987W        W32603  40.746  21.036   0.452
60988W        W32604  30.824  38.268  14.392
60989W        W32605   9.862  27.790  11.517
60990W        W32606  25.724  26.602   0.486
60991W        W32607  40.702  33.362   2.653
60992W        W32608  36.388  27.694   2.522
60993W        W32609   0.206  22.503  13.390
60994W        W32610  33.327  20.957  12.037
60995W        W32611   9.081  34.075   2.129
60996W        W32612  34.334  16.825   3.026
60997W        W32613   1.347  43.554   4.444
60998W        W32614  33.086   7.414  13.543
60999W        W32615  12.824  34.794   0.458
61000W        W32616   1.347  18.553  14.861
61001W        W32617  35.225  41.383  12.039
61002W        W32618  44.775  10.627   3.806
61003W        W32619  19.307  42.346  12.049
61004W        W32620   9.726   8.916   3.279
61005W        W32621  14.064   0.774  13.500
61006W        W32622  35.907  29.115  11.599
61007W        W32623  44.846  23.556   2.777
61008W        W32624  19.064  25.968   0.881
61009W        W32625  34.011  10.196   3.672
61010W        W32626  21.206  35.742   4.858
61011W        W32627   7.153   0.486  11.952
61012W        W32628  40.518  24.425   0.915
61013W        W32629   9.130  23.427   0.519
61014W        W32630   2.838   5.144   2.453
61015W        W32631  41.001  29.932   1.969
61016W        W32632  30.689  26.045   2.862
61017W        W32633  17.050  26.527   0.271
61018W        W32634  12.264  10.940   4.837
61019W        W32635  34.121  17.416  14.850
61020W        W32636  16.635  13.722  13.272
61021W        W32637  19.684  18.323   4.431
61022W        W32638   7.493  18.533  12.275
61023W        W32639   6.208  43.756   0.322
61024W        W32640   4.190  12.713   3.370
61025W        W32641  15.322  11.734   1.237
61026W        W32642  24.519   5.851  11.656
61027W        W32643  21.171  33.459   2.171
61028W        W32644  16.205  40.895   3.146
61029W        W32645  29.295  12.347  14.466
61030W        W32646  35.651  32.447  14.896
61031W        W32647  20.070   5.003   4.044
61032W        W32648  32.619  30.825   1.207
61033W        W32649  27.193  36.753   2.217
61034W        W32650  35.525  35.438  14.655
61035W        W32651  15.561  31.417   4.868
61036W        W32652  40.835  34.641   0.662
61037W        W32653   4.153  41.337   4.325
61038W        W32654  33.477  29.310  12.552
61039W        W32655  42.083  21.211  13.412
61040W        W32656  25.176  17.631  14.445
61041W        W32657  32.022   1.184   1.863
61042W        W32658  34.151  22.654  14.348
61043W        W32659   5.397  20.081  12.981
61044W        W32660  18.538  28.927  13.373
61045W        W32661  43.377  43.238  13.021
61046W        W32662  40.798  23.030   4.534
61047W        W32663  39.279  34.839  10.196
61048W        W32664  25.902  37.561  13.064
61049W        W32665  20.777   7.412   3.152
61050W        W32666  27.078  21.741  14.007
61051W        W32667  44.157   3.676   2.835
61052W        W32668  41.050  12.110  11.791
61053W        W32669   1.467  24.811   3.483
61054W        W32670   0.169  44.320  10.716
61055W        W32671   5.297  14.868  10.611
61056W        W32672  19.251  39.965   2.595
61057W        W32673   8.715  33.143  10.645
61058W        W32674  36.923  19.510  13.550
61059W        W32675   3.958  33.112  13.102
61060W        W32676  20.329  13.888  14.779
61061W        W32677  27.747  36.682  14.181
61062W        W32678  28.234  36.060  11.445
61063W        W32679   2.897   0.719   1.435
61064W        W32680  17.211  17.482  11.235
61065W        W32681  35.443  15.732   1.860
61066W        W32682  12.232  42.472  12.584
61067W        W32683  43.704  10.901  11.086
61068W        W32684  18.481  19.936   2.951
61069W        W32685   5.209  22.612  12.324
61070W        W32686   1.311  20.720   3.301
61071W        W32687   2.813  12.257   3.391
61072W        W32688   1.488  32.037   3.694
61073W        W32689   5.693  14.149  12.596
61074W        W32690   5.918  32.082  11.465
61075W        W32691  37.713  14.034  12.935
61076W        W32692   2.539   2.464  11.583
61077W        W32693  37.275   7.780  13.922
61078W        W32694   1.244  39.960   3.658
61079W        W32695  32.921  11.761  13.984
61080W        W32696  25.444  22.699   1.688
61081W        W32697  27.044  12.334   3.766
61082W        W32698   6.231   3.779  13.381
61083W        W32699   1.776  27.591  14.092
61084W        W32700   9.466   4.288  10.781
61085W        W32701   1.831  12.989   3.193
61086W        W32702  37.478  38.704  11.200
61087W        W32703  40.814  44.443   1.248
61088W        W32704  44.464  26.853  13.250
61089W        W32705  41.311   8.430   3.150
61090W        W32706   8.738  15.685   1.137
61091W        W32707  24.177  18.047  11.368
61092W        W32708  31.736  34.528   0.664
61093W        W32709  30.547   9.530   4.951
61094W        W32710  28.988  36.284   0.538
61095W        W32711  12.581  40.560  14.771
61096W        W32712  12.572  28.521   4.885
61097W        W32713  27.668  21.271  12.044
61098W        W32714  39.192  34.160  11.559
61099W        W32715  18.192  35.456  11.956
61100W        W32716  10.667  26.156  12.169
61101W        W32717  28.531  35.847   0.251
61102W        W32718  14.204   6.401   4.639
61103W        W32719   8.762  42.097  13.238
61104W        W32720  17.327  31.471   3.214
61105W        W32721  18.086  13.309   4.271
61106W        W32722   4.851   0.452   1.548
61107W        W32723  18.236  12.604  11.558
61108W        W32724  21.654  10.652  13.399
61109W        W32725  18.197  36.526  11.563
61110W        W32726  18.099  43.365   2.736
61111W        W32727   7.562   1.751   2.031
61112W        W32728  29.838  16.733   1.378
61113W        W32729  34.036  40.529  11.208
61114W        W32730  17.850  44.320   1.149
61115W        W32731  25.872  25.548   1.232
61116W        W32732   2.314  40.339   4.244
61117W        W32733  30.610  15.727   2.724
61118W        W32734  25.230  35.458   4.559
61119W        W32735   7.109   8.133   3.158
61120W        W32736  22.881  24.527   1.915
61121W        W32737  44.246   5.213   0.478
61122W        W32738  10.558   6.301   4.431
61123W        W32739   5.480  30.467  11.024
61124W        W32740  43.488  34.521  11.249
61125W        W32741  11.079  23.058  12.036
61126W        W32742   2.765   2.440   0.434
61127W        W32743  27.049  29.492  10.970
61128W        W32744  36.848  37.247   2.600
61129W        W32745   6.850   1.757  11.176
61130W        W32746  25.477  38.274   1.652
61131W        W32747  13.990   3.415   0.931
61132W        W32748  19.467  37.238   3.797
61133W        W32749   2.734  36.693  12.022
61134W        W32750  26.011  26.491  12.928
61135W        W32751   3.674   1.878   2.380
61136W        W32752  26.201  20.709  11.665
61137W        W32753  33.620  38.670  11.733
61138W        W32754   0.705  43.860   3.833
61139W        W32755  23.148  28.199  10.231
61140W        W32756  13.006  19.042  12.581
61141W        W32757  24.181  16.633   3.627
61142W        W32758  14.807  41.062  12.945
61143W        W32759  32.350  11.891   3.268
61144W        W32760  37.891  24.217   0.916
61145W        W32761  10.662  17.064  13.878
61146W        W32762  34.824  39.651  12.536
61147W        W32763  24.523  15.718   1.879
61148W        W32764  39.406  17.359   2.205
61149W        W32765  34.716   6.671  12.087
61150W        W32766  28.093  17.105  11.175
61151W        W32767  13.015  19.471  12.902
61152W        W32768  14.259   3.564   4.284
61153W        W32769  28.115  43.891  13.926
61154W        W32770  24.477  33.373   3.586
61155W        W32771  24.485  42.080  12.557
61156W        W32772   5.153  21.261  13.445
61157W        W32773  26.136   3.355   0.952
61158W        W32774  14.634  12.107   1.657
61159W        W32775  27.420  23.000   1.296
61160W        W32776  19.859  36.684   0.316
61161W        W32777  38.342  17.584   1.871
61162W        W32778  30.049  25.163  11.831
61163W        W32779   1.727  15.278   2.136
61164W        W32780  21.700   1.765  12.579
61165W        W32781  20.818  18.216   0.701
61166W        W32782  21.552  18.691   4.683
61167W        W32783  19.744  27.919   1.398
61168W        W32784  15.138  14.489  10.645
61169W        W32785   2.944   4.785   3.723
61170W        W32786  26.958  30.968  12.226
61171W        W32787  39.276  33.129   0.694
61172W        W32788  42.817  25.968  14.891
61173W        W32789  23.392  24.552   0.595
61174W        W32790  13.817  32.541   0.849
61175W        W32791   7.844  15.395  10.745
61176W        W32792   3.377  40.499   5.029
61177W        W32793  35.833   7.729   0.803
61178W        W32794  27.069  34.642  13.038
61179W        W32795  38.717  40.959  10.484
61180W        W32796  32.026  41.045   3.767
61181W        W32797  37.654  39.910  14.898
61182W        W32798  35.964  25.472   4.058
61183W        W32799  40.448  18.150  13.169
61184W        W32800  23.838   2.242  13.037
61185W        W32801   0.394   6.918  14.053
61186W        W32802  42.847  15.736   4.107
61187W        W32803  31.932  36.779  11.425
61188W        W32804  42.342   2.760   3.159
61189W        W32805  35.617  10.336  11.121
61190W        W32806  30.974   3.676   1.894
61191W        W32807   5.799  11.522   2.851
61192W        W32808  34.370  15.745  13.066
61193W        W32809  31.159  27.777   3.336
61194W        W32810  24.036  25.190  13.997
61195W        W32811  13.058  39.302  12.017
61196W        W32812  41.481   0.301   3.894
61197W        W32813   8.899   8.886   0.811
61198W        W32814   0.909  19.169  11.108
61199W        W32815  12.852  19.889   1.060
61200W        W32816  31.159  15.996   3.771
61201W        W32817   4.950   3.293   1.722
61202W        W32818  32.600  34.098   1.715
61203W        W32819   6.745  11.317   2.945
61204W        W32820  12.711  21.702  10.658
61205W        W32821  29.986  31.825  13.809
61206W        W32822  32.944   9.238   4.696
61207W        W32823   6.161  21.460   5.167
61208W        W32824  15.836  39.402  12.456
61209W        W32825  20.144  24.137   3.597
61210W        W32826  43.902  16.269  14.760
61211W        W32827  17.343  21.487  11.655
61212W        W32828  22.936  25.272   3.225
61213W        W32829  14.297  26.702   1.331
61214W        W32830  41.911  38.811   2.875
61215W        W32831  33.860  29.174  10.973
61216W        W32832  17.218  20.101   3.665
61217W        W32833  41.891  13.666   0.886
61218W        W32834  37.057  38.074  11.626
61219W        W32835   4.675  25.955   4.132
61220W        W32836  32.705  27.628  12.251
61221W        W32837  14.857  12.539  14.981
61222W        W32838  24.800  25.918   3.811
61223W        W32839  27.713  42.385   0.495
61224W        W32840  41.634  11.602  11.562
61225W        W32841  30.381  37.257   2.347
61226W        W32842  40.502  18.423  14.032
61227W        W32843  19.241   3.414  12.427
61228W        W32844   1.031  26.237  14.258
61229W        W32845  37.479  36.297   1.301
61230W        W32846   1.259  43.751   0.582
61231W        W32847  35.367  27.552   4.443
61232W        W32848  26.992  41.320  10.666
61233W        W32849  37.818   7.863  13.287
61234W        W32850  13.536   7.653   3.848
61235W        W32851  41.901  29.002   1.977
61236W        W32852  43.077   4.846  11.561
61237W        W32853  19.208  11.127   0.327
61238W        W32854  31.439  41.564  14.386
61239W        W32855  36.395  24.870   2.793
61240W        W32856  37.294  11.422  12.475
61241W        W32857  11.228  19.028  12.531
61242W        W32858  27.242   3.130  11.729
61243W        W32859  35.912  19.353  13.042
61244W        W32860  33.942   5.841  13.256
61245W        W32861  15.121  18.496  12.500
61246W        W32862  23.036  18.111   0.567
61247W        W32863   5.725  26.707   1.515
61248W        W32864  40.445  15.156  10.645
61249W        W32865  41.176  35.365  10.511
61250W        W32866  34.200  44.529  13.397
61251W        W32867  16.472  41.305   4.077
61252W        W32868  24.942  39.901   0.042
61253W        W32869  15.122   2.763  13.516
61254W        W32870  14.684  32.502  12.432
61255W        W32871   0.233  29.426  14.485
61256W        W32872  15.558  19.446   2.628
61257W        W32873  12.554  27.128  11.062
61258W        W32874  13.363   7.856   4.306
61259W        W32875  16.120  17.915  10.102
61260W        W32876  24.421  25.265  13.175
61261W        W32877   3.961  30.396  14.674
61262W        W32878  20.483   2.580   0.967
61263W        W32879   3.673  18.930  14.917
61264W        W32880  14.397   8.122   0.259
61265W        W32881  21.952  31.676  13.325
61266W        W32882   4.427  33.733  12.633
61267W        W32883   5.980  18.722   1.890
61268W        W32884   2.967  27.442   4.162
61269W        W32885  33.583  34.911   3.634
61270W        W32886  31.156  37.044   0.492
61271W        W32887   0.079   9.809   0.069
61272W        W32888   6.083  38.253  14.865
61273W        W32889  38.395  37.841  13.550
61274W        W32890  22.009  28.072   0.437
61275W        W32891  18.724  24.854  12.333
61276W        W32892  20.566  14.022  10.028
61277W        W32893   6.383  26.839  12.826
61278W        W32894  12.893   7.326   1.713
61279W        W32895  12.860  18.008   4.963
61280W        W32896  35.616   9.377   3.381
61281W        W32897  13.335  39.117  11.081
61282W        W32898   5.786   2.276   1.767
61283W        W32899  25.927  24.003  11.873
61284W        W32900  12.759  28.717   1.964
61285W        W32901  28.085  11.099  14.454
61286W        W32902  14.317  37.528   4.107
61287W        W32903  25.369  13.801   0.778
61288W        W32904   9.734   5.698  11.166
61289W        W32905  42.446  44.834   3.595
61290W        W32906  14.183  34.717   2.374
61291W        W32907  13.807  36.384  11.492
61292W        W32908  22.618  25.928   1.406
61293W        W32909  17.076  17.445   2.897
61294W        W32910  22.491  35.601  14.918
61295W        W32911  19.015  19.120   0.796
61296W        W32912  17.256  19.249   2.801
61297W        W32913  40.881  16.548  12.008
61298W        W32914  32.001  10.860  10.655
61299W        W32915  23.728  25.680   4.176
61300W        W32916   7.118  25.519   0.806
61301W        W32917  41.018  43.362  14.770
61302W        W32918   3.742  17.215   2.704
61303W        W32919  35.450   6.780  11.391
61304W        W32920  18.294  33.517   2.357
61305W        W32921  26.323  29.939  12.051
61306W        W32922   2.254  25.680   0.870
61307W        W32923  28.428  11.754  11.547
61308W        W32924  29.543  23.588  12.452
61309W        W32925  32.270  16.583  14.674
61310W        W32926  24.583  25.901   0.495
61311W        W32927  31.507  35.728   4.459
61312W        W32928   4.432  28.588  10.655
61313W        W32929  21.014  28.485  12.618
61314W        W32930  42.491  33.398  13.033
61315W        W32931  26.818  40.338   2.836
61316W        W32932  14.986   6.673  11.969
61317W        W32933  26.708  37.251  10.292
61318W        W32934  19.216  42.424  13.425
61319W        W32935   6.284  33.078   1.821
61320W        W32936  21.571  39.950   1.790
61321W        W32937  15.807  25.431  12.413
61322W        W32938  44.518  35.518   0.854
61323W        W32939   6.944  29.036   3.821
61324W        W32940  13.472   9.106  12.431
61325W        W32941  44.813  18.357   3.775
61326W        W32942  38.581  35.963   0.856
61327W        W32943   1.349   0.741  12.509
61328W        W32944  22.768   6.634   3.250
61329W        W32945  35.038  34.018   1.752
61330W        W32946   6.958  12.738  11.868
61331W        W32947   2.491  29.618   4.674
61332W        W32948  15.742   3.218   2.366
61333W        W32949  11.441  27.552   2.306
61334W        W32950  15.868   5.492   1.653
61335W        W32951  24.449  37.981  14.471
61336W        W32952  21.480  18.270  11.554
61337W        W32953  34.111   5.894   1.369
61338W        W32954  19.156  16.177  11.313
61339W        W32955  12.189   7.882  13.869
61340W        W32956  35.360  28.111   0.192
61341W        W32957  32.583  18.562   0.424
61342W        W32958   5.660   4.849  11.950
61343W        W32959  28.054  19.758   0.946
61344W        W32960  21.043   7.136   2.238
61345W        W32961  13.669  28.595  11.995
61346W        W32962  14.038  35.391   3.122
61347W        W32963  26.402  27.163   1.758
61348W        W32964  32.684  33.156  13.365
61349W        W32965  15.626   2.351  12.868
61350W        W32966  35.011   4.424   3.187
61351W        W32967  37.375  24.392  12.884
61352W        W32968  28.044  33.609  11.171
61353W        W32969  32.198  27.955   4.554
61354W        W32970  12.950  15.731  13.086
61355W        W32971  10.652  39.893  12.306
61356W        W32972  11.931  43.855   2.971
61357W        W32973  32.692  30.190   0.392
61358W        W32974  44.637  25.276  14.721
61359W        W32975  26.750   9.030   0.369
61360W        W32976  15.336  43.630  12.899
61361W        W32977  37.981  18.788   2.007
61362W        W32978  29.112  44.798   2.698
61363W        W32979  29.548  13.802   4.582
61364W        W32980  32.064  12.340  13.948
61365W        W32981   7.539  33.902   0.335
61366W        W32982  32.689  12.610  14.563
61367W        W32983   0.507  31.403  12.161
61368W        W32984  19.351  11.625   1.741
61369W        W32985  32.884  34.728   4.227
61370W        W32986  26.210  36.510   4.098
61371W        W32987  18.532   1.460   4.340
61372W        W32988  15.157  30.026  14.968
61373W        W32989  15.923  31.130   1.666
61374W        W32990  33.551  12.598   2.250
61375W        W32991  44.990  37.011  10.584
61376W        W32992  40.100  42.973  11.430
61377W        W32993   7.692   8.325   2.324
61378W        W32994  36.273   4.190   4.366
61379W        W32995   5.895   0.087   0.510
61380W        W32996  15.680   5.979   0.788
61381W        W32997  33.261   4.926  12.790
61382W        W32998  19.056  34.509  14.969
61383W        W32999  14.319   9.692   3.644
61384W        W33000   2.735  19.098   4.175
61385W        W33001   9.579  32.316  13.308
61386W        W33002  11.809  10.404   2.357
61387W        W33003  39.089  31.176   3.625
61388W        W33004  21.329  17.529   1.037
61389W        W33005  40.958  44.791   1.675
61390W        W33006  39.687  24.413  11.221
61391W        W33007   6.380  32.192   4.725
61392W        W33008   9.779  20.194   2.226
61393W        W33009  18.906  37.559   0.049
61394W        W33010  36.285  24.464   4.105
61395W        W33011   0.530   3.086   4.199
61396W        W33012   3.490   5.815   0.117
61397W        W33013   6.880  21.597   1.719
61398W        W33014   5.412  44.479  14.829
61399W        W33015  14.402   6.263  11.477
61400W        W33016  37.198  12.630  14.980
61401W        W33017  29.722   6.672   2.334
61402W        W33018  30.060  37.622   3.254
61403W        W33019  28.524  24.542   2.610
61404W        W33020   2.974  16.316  11.230
61405W        W33021  31.050  40.488   0.471
61406W        W33022  21.738  32.216  10.748
61407W        W33023  16.159   0.320  12.175
61408W        W33024  39.097  31.923   1.308
61409W        W33025  26.470  22.097  11.144
61410W        W33026  36.039  11.734  13.020
61411W        W33027   6.175  33.737   4.515
61412W        W33028  15.585   9.026  10.863
61413W        W33029  18.863  30.482  10.884
61414W        W33030  15.449  10.316   3.198
61415W        W33031  31.178  41.234   1.828
61416W        W33032  32.363   4.914  14.020
61417W        W33033  30.715  39.650  11.068
61418W        W33034  26.188  12.276   2.710
61419W        W33035   6.211  36.347  11.043
61420W        W33036   3.788  32.677  13.968
61421W        W33037   6.281  31.034  14.945
61422W        W33038  17.916  23.243  10.948
61423W        W33039  19.559  17.476   1.843
61424W        W33040  39.773  34.477  13.785
61425W        W33041  36.004  23.407   2.882
61426W        W33042  42.086  11.450   1.863
61427W        W33043  36.201  17.137  13.485
61428W        W33044  11.124   6.995   1.253
61429W        W33045   1.862  26.003   3.039
61430W        W33046  40.467   3.965  12.577
61431W        W33047  36.567  29.861  11.384
61432W        W33048  34.595  38.836  12.636
61433W        W33049  34.686  42.799  13.165
61434W        W33050  15.843  36.041   0.625
61435W        W33051  27.696  34.327   4.045
61436W        W33052  41.006  31.088  11.143
61437W        W33053  41.773  38.353   1.942
61438W        W33054  41.381  20.722   2.174
61439W        W33055  24.519   1.813  11.467
61440W        W33056  35.481   5.213   4.478
61441W        W33057  32.394  44.139   9.893
61442W        W33058  28.070  18.232  14.424
61443W        W33059  11.943  36.070  10.634
61444W        W33060  30.665  22.198   2.928
61445W        W33061  26.586  39.529  11.512
61446W        W33062  16.641  30.967   0.707
61447W        W33063   3.032   5.179   2.925
61448W        W33064  41.867  40.963  13.294
61449W        W33065  10.806  15.589  13.864
61450W        W33066  10.879  13.627  13.834
61451W        W33067  27.144  35.125   3.665
61452W        W33068   3.322  22.022  10.493
61453W        W33069  24.743  31.426  13.337
61454W        W33070  27.099  14.788   4.383
61455W        W33071  27.163  24.473  13.845
61456W        W33072  14.786  39.400  12.394
61457W        W33073  43.032  24.031  14.359
61458W        W33074  39.472  31.540   3.698
61459W        W33075  13.657  26.417   2.247
61460W        W33076   9.157  26.059  14.803
61461W        W33077  12.756   4.395   2.534
61462W        W33078  33.559   3.356   4.096
61463W        W33079  42.467  35.587   3.587
61464W        W33080  29.041   8.337  14.878
61465W        W33081  33.748  28.142   2.889
61466W        W33082   0.739  28.915  14.862
61467W        W33083  41.130  36.218  11.657
61468W        W33084  10.248   7.074   4.843
61469W        W33085  20.047  10.251  11.347
61470W        W33086   4.275  17.552   3.602
61471W        W33087   6.827  37.177  12.526
61472W        W33088  28.557   8.146  13.980
61473W        W33089  39.067  25.782   3.042
61474W        W33090  14.638  24.778  13.522
61475W        W33091  31.361   0.349  13.951
61476W        W33092   9.709  27.670   2.784
61477W        W33093  27.565  30.310  14.884
61478W        W33094  41.558  38.838  10.326
61479W        W33095  20.406  20.139   3.195
61480W        W33096  18.379  33.545   4.456
61481W        W33097   0.228  26.387   2.182
61482W        W33098  28.813  30.193  12.026
61483W        W33099  35.492  44.876   3.799
61484W        W33100  10.896  22.024   0.014
61485W        W33101   4.638  31.449   2.367
61486W        W33102  13.263  34.174   1.478
61487W        W33103  23.452  34.610   1.886
61488W        W33104   1.957  30.542  11.378
61489W        W33105  25.527   3.541   4.187
61490W        W33106  23.219  28.468   1.680
61491W        W33107  30.066  18.260   0.408
61492W        W33108  21.950  21.161  12.442
61493W        W33109   7.855  33.202   2.337
61494W        W33110  44.508   9.375  14.067
61495W        W33111   5.961  17.460  13.218
61496W        W33112  31.950   0.135  14.735
61497W        W33113  44.545  17.653  12.615
61498W        W33114  22.634  33.861   0.046
61499W        W33115  23.998  17.723   2.681
61500W        W33116  43.401  10.877   3.746
61501W        W33117  16.274  17.532   3.118
61502W        W33118  34.092  18.691  13.633
61503W        W33119   5.464  34.142   1.943
61504W        W33120  38.365  39.818   1.881
61505W        W33121  28.373  28.011   2.779
61506W        W33122   3.168  11.014   1.264
61507W        W33123  43.342  10.844  12.595
61508W        W33124  25.609  12.123  12.041
61509W        W33125  38.951  34.884   0.019
61510W        W33126   9.463  42.388   2.835
61511W        W33127  33.355  16.681   2.696
61512W        W33128   0.422  23.266  13.985
61513W        W33129  21.488   0.774   1.908
61514W        W33130  29.611  36.289  10.628
61515W        W33131  31.873  26.986  12.131
61516W        W33132  31.072  26.050  11.529
61517W        W33133  20.756  37.576   4.209
61518W        W33134  15.100  33.667   0.520
61519W        W33135   6.853  17.589   2.771
61520W        W33136   4.888  44.463   4.050
61521W        W33137   1.764  17.322   0.158
61522W        W33138   7.939   1.511   3.674
61523W        W33139  21.160  44.942   3.317
61524W        W33140  29.072  15.348   3.321
61525W        W33141  21.728   8.184  13.601
61526W        W33142  11.065   8.348  14.137
61527W        W33143  25.946  41.810   4.130
61528W        W33144  36.801   7.386  13.777
61529W        W33145   7.819   7.226   0.248
61530W        W33146  19.651   9.700  11.849
61531W        W33147  19.589  25.659   0.320
61532W        W33148  36.408  30.329   2.132
61533W        W33149  39.387  17.812  11.948
61534W        W33150  42.699   5.662  10.681
61535W        W33151  15.234  39.017   3.727
61536W        W33152  10.015   4.675  13.403
61537W        W33153  35.514  26.562  12.171
61538W        W33154  34.999  36.329   3.292
61539W        W33155   2.291   3.368  14.437
61540W        W33156  19.466  16.900   3.247
61541W        W33157  33.752  11.716   3.626
61542W        W33158  25.960   9.857   3.645
61543W        W33159   2.030  42.402   3.004
61544W        W33160  13.174  36.379  14.927
61545W        W33161   9.904  11.229  12.527
61546W        W33162  25.635   0.826  12.923
61547W        W33163   0.885  36.911  10.894
61548W        W33164   4.030  31.775   4.121
61549W        W33165  30.556   8.978   4.156
61550W        W33166  35.951  20.109  14.954
61551W        W33167  37.433   0.782  11.876
61552W        W33168  39.493   7.794   2.140
61553W        W33169  34.692   2.174   4.848
61554W        W33170  14.958  30.991   3.680
61555W        W33171  22.985   7.455   0.708
61556W        W33172  38.382  31.389  14.522
61557W        W33173  17.070  21.753  12.024
61558W        W33174  26.944  25.484  13.957
61559W        W33175   6.887  19.317   2.359
61560W        W33176  22.338  32.781   1.336
61561W        W33177  24.397  16.054  11.258
61562W        W33178  42.960  33.784   0.530
61563W        W33179  31.447   7.442   1.347
61564W        W33180  29.065  29.720  14.583
61565W        W33181  23.600  23.264  14.759
61566W        W33182  40.439   3.255   2.841
61567W        W33183  38.080  26.795   2.930
61568W        W33184   7.893  26.618   2.152
61569W        W33185  16.167  35.880   2.689
61570W        W33186  16.663   5.880  14.256
61571W        W33187  34.320   3.494   1.226
61572W        W33188  37.153  29.491   3.567
61573W        W33189  18.557  21.405   3.170
61574W        W33190  13.295   1.177  13.337
61575W        W33191  22.907  40.644   2.349
61576W        W33192   2.801  44.774   1.608
61577W        W33193  24.593  21.585   2.467
61578W        W33194  30.030   2.830   1.759
61579W        W33195  14.350  40.918   1.668
61580W        W33196  16.477  13.540  14.806
61581W        W33197  10.806  44.410   2.360
61582W        W33198  31.291  43.171   4.460
61583W        W33199   9.609   0.475   1.484
61584W        W33200  24.924  23.999  12.169
61585W        W33201   9.617  29.899  13.969
61586W        W33202  41.228  12.210  14.419
61587W        W33203  12.209  34.984  12.630
61588W        W33204  42.141  10.895  13.969
61589W        W33205  40.328  24.959  12.540
61590W        W33206  41.046  17.153  11.558
61591W        W33207  30.138  11.857  12.373
61592W        W33208  29.933  41.500  14.386
61593W        W33209   3.167  42.470  10.412
61594W        W33210  36.498  12.381   3.146
61595W        W33211  21.719   0.987   4.516
61596W        W33212  15.132  44.064   2.428
61597W        W33213  29.557  18.105  13.984
61598W        W33214  25.216  10.912   2.832
61599W        W33215  20.606  21.613  13.368
61600W        W33216  44.480  22.554   5.167
61601W        W33217   2.716  24.837   2.171
61602W        W33218  12.964  11.533  13.896
61603W        W33219  34.043  36.080  10.382
61604W        W33220  39.913  25.877   3.211
61605W        W33221   3.647  13.642  14.512
61606W        W33222  25.024   3.411   4.099
61607W        W33223  30.687  33.916   1.202
61608W        W33224   7.442  44.114   2.399
61609W        W33225  31.473  18.232  10.423
61610W        W33226   5.772  34.859  10.495
61611W        W33227   4.009  35.589  14.982
61612W        W33228  11.301  40.018  13.084
61613W        W33229   9.071  14.273   4.551
61614W        W33230  25.916   4.451   3.710
61615W        W33231  27.805  39.031  12.986
61616W        W33232   5.864   0.253  14.248
61617W        W33233  41.639  31.485  12.001
61618W        W33234  20.447  28.075   0.808
61619W        W33235   4.314  26.952  12.939
61620W        W33236   6.562  22.233   3.321
61621W        W33237  12.229   6.685  12.382
61622W        W33238   8.035  26.882   3.921
61623W        W33239  37.339  24.281   4.265
61624W        W33240   9.885  22.735  13.894
61625W        W33241  27.124   7.105  10.669
61626W        W33242   5.321  15.634  12.840
61627W        W33243  41.306  31.503  11.583
61628W        W33244  15.562   2.406  13.921
61629W        W33245  25.009  29.606   2.489
61630W        W33246  14.821  34.796  14.742
61631W        W33247  22.800  34.635   0.738
61632W        W33248  28.101  13.079  13.557
61633W        W33249  38.953   6.777   1.226
61634W        W33250  17.485  20.529   1.422
61635W        W33251  27.922  44.725   1.805
61636W        W33252  32.890  40.021  12.445
61637W        W33253   0.045  12.251   1.462
61638W        W33254  27.367  43.811   2.683
61639W        W33255  12.082  34.915  11.639
61640W        W33256  32.130  42.032  14.698
61641W        W33257   8.404  26.607   2.153
61642W        W33258  24.190  28.529   2.036
61643W        W33259  34.552  34.224   0.446
61644W        W33260  18.728  23.475   4.267
61645W        W33261   1.283  32.677   2.871
61646W        W33262  15.252  44.333  11.868
61647W        W33263   0.971   7.433  12.015
61648W        W33264  15.759  21.528   1.981
61649W        W33265  31.598  26.979   2.723
61650W        W33266  25.596  36.872   3.608
61651W        W33267  36.299   0.402  12.945
61652W        W33268   3.437  36.471   3.134
61653W        W33269  43.323  33.071   3.772
61654W        W33270  23.965   3.829  13.940
61655W        W33271   0.061  31.498   5.061
61656W        W33272  23.007  35.810   1.844
61657W        W33273  44.403   5.997  13.967
61658W        W33274   2.911  16.009  12.613
61659W        W33275  39.484  21.239  14.786
61660W        W33276  13.129  23.649  12.031
61661W        W33277  19.118   6.874   0.978
61662W        W33278  43.367  18.420   0.418
61663W        W33279   6.288  10.715  13.302
61664W        W33280   6.150  25.026   1.320
61665W        W33281  35.601  40.978   3.359
61666W        W33282  42.372   3.545  13.424
61667W        W33283  25.838  43.276  13.351
61668W        W33284   0.320  20.766   0.012
61669W        W33285  39.885  22.882   1.863
61670W        W33286  18.069  40.455   4.627
61671W        W33287   9.683  26.504  14.873
61672W        W33288  44.012  27.689  11.749
61673W        W33289  42.285   4.743   3.068
61674W        W33290   2.791  19.339  12.015
61675W        W33291  35.741  34.001  14.253
61676W        W33292  26.189  41.961  13.189
61677W        W33293   7.499  17.609  11.140
61678W        W33294  20.155  36.043   4.280
61679W        W33295  21.331  19.010  10.580
61680W        W33296  28.477  41.380   0.968
61681W        W33297  42.574  21.680  12.285
61682W        W33298  13.859  17.396   3.655
61683W        W33299  28.953  29.003  11.637
61684W        W33300  28.136  31.467  11.632
61685W        W33301  14.133   2.489  10.937
61686W        W33302  14.619  27.985  14.839
61687W        W33303  41.474  44.741   1.395
61688W        W33304   4.076  36.444   3.835
61689W        W33305  20.129  18.115   1.349
61690W        W33306   5.255  35.622   1.938
61691W        W33307  17.878  28.433   3.680
61692W        W33308  32.135  43.061  13.856
61693W        W33309  36.690  22.667   0.524
61694W        W33310  33.979  11.259   4.508
61695W        W33311  23.080  21.886  11.128
61696W        W33312   8.602   8.769  12.243
61697W        W33313  23.584  39.592  10.643
61698W        W33314  38.692  13.568   0.666
61699W        W33315   8.760  18.177   3.667
61700W        W33316  43.377  22.490   3.792
61701W        W33317  26.435   0.285  12.912
61702W        W33318   1.041  24.712   3.155
61703W        W33319  42.801   8.956  14.958
61704W        W33320  11.592  21.744  11.985
61705W        W33321  16.736  21.836   3.040
61706W        W33322  20.007  22.076   2.395
61707W        W33323  27.168  29.972   2.213
61708W        W33324   2.175  12.559   2.708
61709W        W33325  25.520   4.929  11.229
61710W        W33326  40.055  36.470  13.989
61711W        W33327  19.179  22.234  13.593
61712W        W33328  42.263  11.782  12.997
61713W        W33329  36.520  26.267  13.486
61714W        W33330  31.679  26.652   0.319
61715W        W33331  20.354  38.282  10.935
61716W        W33332  37.898  19.727   0.988
61717W        W33333  18.842   1.509   3.928
61718W        W33334  17.653  43.974  12.904
61719W        W33335  40.434  18.417   3.683
61720W        W33336  23.528  12.798   1.896
61721W        W33337  10.123  43.543   2.002
61722W        W33338   0.757  31.382  12.608
61723W        W33339   2.871  34.572  14.715
61724W        W33340  29.953   4.833   0.687
61725W        W33341  39.867  14.838   4.162
61726W        W33342   4.411  27.681   1.382
61727W        W33343  18.303   6.950   1.416
61728W        W33344  24.313  44.430  14.675
61729W        W33345  26.942   8.344  11.674
61730W        W33346  20.334  22.504   2.145
61731W        W33347   6.267  35.894  14.419
61732W        W33348  25.975  12.145  10.762
61733W        W33349  24.140  17.244   5.161
61734W        W33350  17.757  43.421  12.103
61735W        W33351  26.225  26.518  11.968
61736W        W33352  17.829  24.427  13.138
61737W        W33353  13.186  17.252  11.429
61738W        W33354  22.712  13.204  14.054
61739W        W33355   1.201  20.095  11.679
61740W        W33356   6.353  29.730   2.803
61741W        W33357  24.718   5.617  12.667
61742W        W33358  14.360  32.010   4.342
61743W        W33359  36.116  28.565  14.932
61744W        W33360  33.623  28.261  11.541
61745W        W33361  39.483  26.517   2.753
61746W        W33362  21.640  29.930   0.374
61747W        W33363   0.242  17.376   1.910
61748W        W33364  29.472  21.258   3.629
61749W        W33365  19.702  39.389   1.417
61750W        W33366  39.356   1.421   1.905
61751W        W33367  23.669  36.463  14.771
61752W        W33368   7.789  40.875   4.317
61753W        W33369  24.077  28.542   2.540
61754W        W33370  29.903  22.072   0.198
61755W        W33371  36.654  34.786   4.676
61756W        W33372  34.302   2.330   1.833
61757W        W33373  29.432  37.915   3.572
61758W        W33374  12.355  44.122   4.124
61759W        W33375  26.256   2.423   2.876
61760W        W33376   2.328  35.765  14.983
61761W        W33377  40.932  20.014   1.819
61762W        W33378  44.842  12.610  11.887
61763W        W33379   8.971  20.537   1.719
61764W        W33380   3.401  32.313  12.812
61765W        W33381  21.133  14.094   1.497
61766W        W33382   7.741  27.536  12.775
61767W        W33383  16.332  33.163   3.225
61768W        W33384  43.926  28.190   1.141
61769W        W33385  26.694  38.446   1.354
61770W        W33386   0.089  20.137   2.356
61771W        W33387  27.662   4.281   2.275
61772W        W33388  10.108   5.835  11.595
61773W        W33389  32.988  41.305  11.666
61774W        W33390  30.484  30.638  12.921
61775W        W33391  20.988  40.808   0.213
61776W        W33392  29.125   6.493   0.181
61777W        W33393   7.818  43.487  11.853
61778W        W33394  23.634   2.671  10.760
61779W        W33395  10.922  33.996   4.059
61780W        W33396  30.246  18.298   2.735
61781W        W33397   6.405   9.496   3.141
61782W        W33398   8.985  43.940  11.988
61783W        W33399  34.573  22.950  14.031
61784W        W33400   9.677  34.857   4.615
61785W        W33401   6.824  36.337   0.279
61786W        W33402   3.112  34.465   3.838
61787W        W33403  12.615  24.846  13.730
61788W        W33404  24.150  39.078   4.919
61789W        W33405   3.227   7.361   2.023
61790W        W33406  18.357  23.690   2.761
61791W        W33407   5.661  12.821  13.613
61792W        W33408  39.232   7.625  14.304
61793W        W33409  22.997  26.782  13.306
61794W        W33410  27.246  33.882  13.745
61795W        W33411  17.977  32.461  12.857
61796W        W33412  21.728   8.130   0.920
61797W        W33413  33.598  17.427   1.709
61798W        W33414  26.503   0.832   5.011
61799W        W33415  38.744  32.379   4.672
61800W        W33416  32.835  17.286  12.336
61801W        W33417  40.183  30.511   2.663
61802W        W33418  21.876  12.265  10.810
61803W        W33419  13.148  24.744  11.099
61804W        W33420  37.139  26.127   3.856
61805W        W33421  18.469  23.732   1.795
61806W        W33422   8.674  43.017  11.622
61807W        W33423  31.432  13.092  10.675
61808W        W33424  10.862  23.692  10.452
61809W        W33425  23.551  18.041  12.666
61810W        W33426  38.903  16.232  13.830
61811W        W33427  14.833  29.679   3.265
61812W        W33428  34.014   3.004  10.756
61813W        W33429  39.787  26.043   0.919
61814W        W33430  37.647  14.556   0.281
61815W        W33431  34.201  13.384  12.888
61816W        W33432  37.064  13.350   4.354
61817W        W33433   0.835   4.427   2.758
61818W        W33434   6.445  21.650  14.837
61819W        W33435  38.881  14.494   2.256
61820W        W33436  26.704   7.851  14.838
61821W        W33437   4.476   4.727  13.029
61822W        W33438  33.981  40.306   1.799
61823W        W33439  39.801  17.685   4.635
61824W        W33440   2.649  10.857   1.257
61825W        W33441  21.040   5.292  12.272
61826W        W33442  33.012  33.742   4.175
61827W        W33443  17.778  32.449   4.147
61828W        W33444  34.174  41.018  11.123
61829W        W33445  23.557  14.986   2.358
61830W        W33446   6.108  17.849  11.752
61831W        W33447   7.235  43.087  13.434
61832W        W33448  37.592  37.853  13.056
61833W        W33449  26.198  15.830  13.865
61834W        W33450  18.991  38.281   2.415
61835W        W33451   7.379   1.604   0.703
61836W        W33452  14.999  34.349   2.688
61837W        W33453  36.904  35.383   3.472
61838W        W33454  30.456  29.571  11.210
61839W        W33455  17.533  29.171  12.320
61840W        W33456   4.952  18.220   1.834
61841W        W33457  29.629   6.370  12.069
61842W        W33458  43.111  25.674  12.329
61843W        W33459   3.887  29.418   2.937
61844W        W33460  41.880  29.424   0.356
61845W        W33461   3.110  15.765  13.386
61846W        W33462  10.754  26.761   2.232
61847W        W33463  27.059  40.851   3.507
61848W        W33464  17.606  43.683  14.351
61849W        W33465  16.585  16.696   1.963
61850W        W33466   3.209  38.584  12.244
61851W        W33467   5.894   1.809  12.967
61852W        W33468  27.915  33.204  13.459
61853W        W33469  25.753  26.898  13.143
61854W        W33470  27.026  33.097  11.492
61855W        W33471   0.965  28.078   0.046
61856W        W33472  15.678  26.227  10.642
61857W        W33473  27.561   3.826  14.796
61858W        W33474  29.108  34.053   3.601
61859W        W33475  12.722   2.919   3.001
61860W        W33476  32.121   5.296  10.562
61861W        W33477  32.319  36.132   5.008
61862W        W33478   5.285  18.655  11.981
61863W        W33479  14.743  31.032  13.016
61864W        W33480  35.285  34.034  12.867
61865W        W33481  18.133  23.698  13.397
61866W        W33482  29.176  34.403   3.234
61867W        W33483  10.717  20.302   2.299
61868W        W33484  37.054   0.226  14.765
61869W        W33485  40.215  31.994  10.658
61870W        W33486   1.576  36.560  10.760
61871W        W33487  40.146  42.751   1.370
61872W        W33488  44.364   3.706  12.446
61873W        W33489  33.501  42.869   5.025
61874W        W33490  42.578  39.686  13.776
61875W        W33491  41.333  26.437   1.235
61876W        W33492  21.272  20.536  12.016
61877W        W33493  23.969  41.767   1.505
61878W        W33494  39.110  38.951   3.179
61879W        W33495  23.301  28.059  14.376
61880W        W33496  18.724   0.404   4.472
61881W        W33497   6.682  11.866   0.719
61882W        W33498  39.906   6.606  12.158
61883W        W33499  21.132  44.365   1.068
61884W        W33500  39.378  11.776  14.751
61885W        W33501  27.200  15.236   4.622
61886W        W33502   3.949   3.368   1.799
61887W        W33503  31.430  39.761   0.841
61888W        W33504  28.040  41.104   3.218
61889W        W33505  34.794  13.324  14.956
61890W        W33506  32.632  31.525  14.043
61891W        W33507  31.059  26.059  10.516
61892W        W33508   2.135  29.117  10.597
61893W        W33509  42.939  44.553  14.897
61894W        W33510  15.689  36.420   1.913
61895W        W33511  36.245  22.699   5.019
61896W        W33512  43.082  32.459   1.013
61897W        W33513   8.312  25.966   3.396
61898W        W33514  40.088  42.896   0.865
61899W        W33515  33.810  27.105   2.010
61900W        W33516  20.387  31.183  11.909
61901W        W33517   4.913   6.964   0.731
61902W        W33518   4.868  43.963   4.167
61903W        W33519  34.524  12.083  11.197
61904W        W33520  26.684  11.736   4.011
61905W        W33521   4.639  32.816   1.700
61906W        W33522  42.629   8.156   0.962
61907W        W33523   9.212   4.517   0.653
61908W        W33524  42.507  11.138  13.640
61909W        W33525  26.580   5.162   1.122
61910W        W33526  21.791  18.926  14.320
61911W        W33527  20.274  43.867  14.410
61912W        W33528  43.475  39.779   3.059
61913W        W33529   5.164  33.498  13.804
61914W        W33530  21.186  27.342  10.151
61915W        W33531  20.221  42.764  11.865
61916W        W33532  13.232  11.122   2.281
61917W        W33533   1.188  32.173  10.698
61918W        W33534  20.732  17.908   0.290
61919W        W33535   2.784  26.119   1.749
61920W        W33536  22.614  23.896  10.453
61921W        W33537  29.870   0.379   0.830
61922W        W33538  19.538  38.901  11.123
61923W        W33539  23.416  10.262   1.193
61924W        W33540  18.054  19.736   2.225
61925W        W33541  26.732  44.860  12.902
61926W        W33542  42.882  43.674  13.478
61927W        W33543  13.905  12.696  14.232
61928W        W33544  16.422  35.117   1.454
61929W        W33545  16.270  27.015   4.731
61930W        W33546  28.942  11.659  14.347
61931W        W33547  42.966   9.901  11.571
61932W        W33548  33.426  27.242   3.572
61933W        W33549  29.897  37.590  11.127
61934W        W33550   2.851   1.324   3.346
61935W        W33551  31.521  32.778  14.221
61936W        W33552  14.798   0.839   3.895
61937W        W33553   3.768   3.291  14.368
61938W        W33554  19.442  37.987   4.191
61939W        W33555  19.704  25.075  14.528
61940W        W33556  35.088  21.702   3.268
61941W        W33557  41.392  16.847  10.384
61942W        W33558  15.024  18.780  13.499
61943W        W33559   2.165  35.968   1.359
61944W        W33560  31.988  40.877   2.212
61945W        W33561   8.911   6.747  12.954
61946W        W33562  16.100  16.405   3.857
61947W        W33563   5.353  36.942  11.927
61948W        W33564  21.963  39.095   1.275
61949W        W33565  31.466   1.042  11.137
61950W        W33566  13.321   1.952   1.780
61951W        W33567   1.485  31.044  13.530
61952W        W33568  12.305  29.676   3.658
61953W        W33569  42.315  11.148  12.590
61954W        W33570  36.511  41.870  12.398
61955W        W33571  10.192   8.973   0.036
61956W        W33572  35.937  18.619   0.215
61957W        W33573  34.332  39.799   3.567
61958W        W33574  11.639   4.486  11.130
61959W        W33575  18.305  43.452   0.799
61960W        W33576  42.257  25.073   0.389
61961W        W33577  17.742  29.326   4.759
61962W        W33578   5.025  42.106   1.961
61963W        W33579  27.186   5.226  13.361
61964W        W33580  13.838  14.077  10.900
61965W        W33581  11.460   3.287  11.906
61966W        W33582   0.634   0.712   3.227
61967W        W33583  28.135   5.963   0.670
61968W        W33584  15.168  11.461   0.803
61969W        W33585   7.670  40.765   3.300
61970W        W33586  36.992  37.016  12.775
61971W        W33587   0.792  36.386   2.327
61972W        W33588  27.586   2.255  14.798
61973W        W33589   9.420   6.640   1.836
61974W        W33590  26.017  24.211  11.417
61975W        W33591   2.346  14.253  11.243
61976W        W33592  40.021  37.873  13.020
61977W        W33593  42.941  15.856  13.356
61978W        W33594  33.739   7.018   0.891
61979W        W33595   8.977   2.502   4.092
61980W        W33596  42.406  27.521  14.476
61981W        W33597   5.236   3.832   0.467
61982W        W33598  10.293  12.382  12.615
61983W        W33599  23.104  39.451   1.925
61984W        W33600  28.245  22.824  10.133
61985W        W33601  18.381   6.167  14.247
61986W        W33602  30.218  27.676  10.641
61987W        W33603  33.104  24.200  11.209
61988W        W33604  27.530   9.038   2.913
61989W        W33605  11.720  13.751  13.374
61990W        W33606  43.939  34.940   3.042
61991W        W33607  14.776  14.279  13.803
61992W        W33608  42.243  16.714   4.775
61993W        W33609  17.186  32.393   1.213
61994W        W33610   4.917  43.504  11.488
61995W        W33611   3.052  12.116  11.628
61996W        W33612  36.943  33.498  13.382
61997W        W33613  14.548  19.475   2.791
61998W        W33614   5.041  18.634  13.272
61999W        W33615  12.766   5.701  13.617
62000W        W33616  26.233  44.790  13.029
62001W        W33617   5.949   6.939   0.443
62002W        W33618  25.718   6.434  10.748
62003W        W33619  34.026  41.171  12.456
62004W        W33620  16.658   3.930  13.015
62005W        W33621  36.391  22.763  12.410
62006W        W33622  24.232  34.278  14.270
62007W        W33623  35.386   1.163  14.403
62008W        W33624   8.075  26.494   5.031
62009W        W33625  15.115  44.405   4.558
62010W        W33626  16.112   5.774  13.280
62011W        W33627   4.854  27.524   4.831
62012W        W33628  34.626  34.632   3.786
62013W        W33629  40.812  22.078   4.493
62014W        W33630  40.730  43.314  12.745
62015W        W33631  19.698  37.293   1.344
62016W        W33632  20.366   9.630   4.676
62017W        W33633  10.459  34.122   2.760
62018W        W33634   8.503  21.199   2.805
62019W        W33635  40.538  31.694   3.317
62020W        W33636  26.093  15.317   3.639
62021W        W33637   9.617  24.230   1.476
62022W        W33638  25.046  15.822   0.717
62023W        W33639   4.322   4.389  12.113
62024W        W33640  24.377  14.353  13.158
62025W        W33641  24.758  23.997  13.828
62026W        W33642   7.739  25.729   1.663
62027W        W33643  44.263  13.000  11.591
62028W        W33644  30.324  25.700  11.012
62029W        W33645  43.324  35.602   1.636
62030W        W33646  31.054  28.864  12.038
62031W        W33647  41.011  15.736   3.363
62032W        W33648  15.747  42.589  11.882
62033W        W33649   8.070  13.545   0.237
62034W        W33650  37.614   8.841  14.257
62035W        W33651  29.933  29.911   3.219
62036W        W33652  25.244  31.381   3.178
62037W        W33653  33.120  44.449   0.473
62038W        W33654  22.593  26.665   2.645
62039W        W33655  33.061  16.985   3.314
62040W        W33656  10.004  29.183   2.336
62041W        W33657  21.809  41.527   1.232
62042W        W33658  15.548  33.957   4.493
62043W        W33659  19.261  16.051   4.298
62044W        W33660  31.745  39.994   4.092
62045W        W33661  35.918  30.915   5.133
62046W        W33662  36.372  44.848   1.188
62047W        W33663  42.993  30.967   2.232
62048W        W33664  33.089  38.325  13.475
62049W        W33665  19.358  15.350  13.543
62050W        W33666  28.586   0.049  11.720
62051W        W33667  37.945  24.217  13.040
62052W        W33668  44.534  39.087  13.419
62053W        W33669  24.474  42.380  12.982
62054W        W33670   2.375  20.979  14.981
62055W        W33671  26.876   6.355   4.416
62056W        W33672  31.083  10.274  14.428
62057W        W33673  17.025  18.465  12.603
62058W        W33674  42.289  35.030  10.404
62059W        W33675  24.787  24.826   2.126
62060W        W33676  15.281  18.582   1.738
62061W        W33677   4.876  42.902   5.047
62062W        W33678  29.021   2.170   0.399
62063W        W33679  26.508  30.877  14.206
62064W        W33680   7.434  44.151   4.600
62065W        W33681  11.773  30.380   1.190
62066W        W33682  23.829   8.755  13.619
62067W        W33683  43.343  15.781   9.916
62068W        W33684  35.341  28.837  13.925
62069W        W33685   2.569  38.427   2.396
62070W        W33686  41.391  34.906  10.342
62071W        W33687  35.654   7.408  11.176
62072W        W33688  26.985  43.704  12.528
62073W        W33689  43.448  43.517  12.480
62074W        W33690   0.904  19.539  13.367
62075W        W33691  16.208  19.800   2.276
62076W        W33692  14.924  20.309  10.779
62077W        W33693  37.859  42.035   3.129
62078W        W33694  13.647  17.775  11.968
62079W        W33695  22.515  19.452  14.525
62080W        W33696  37.931   9.597  12.465
62081W        W33697  25.152  17.784  13.389
62082W        W33698  38.995  33.137   1.949
62083W        W33699  38.969  44.681   2.833
62084W        W33700  30.596  12.392   2.734
62085W        W33701  34.868  26.959  11.511
62086W        W33702   2.248  25.631  11.956
62087W        W33703  21.025  11.498   4.942
62088W        W33704  40.774   3.979   0.095
62089W        W33705  11.859  27.171   1.992
62090W        W33706   2.344  30.060   4.459
62091W        W33707  19.664  10.858   0.364
62092W        W33708  37.797  22.760   2.810
62093W        W33709   7.362  33.608  13.513
62094W        W33710  30.461  30.173   0.476
62095W        W33711   6.795  41.361   2.774
62096W        W33712  11.908  34.485   2.176
62097W        W33713  24.016  42.216   4.384
62098W        W33714  14.817  35.613   3.705
62099W        W33715   5.523   2.899  12.117
62100W        W33716  44.530  20.497   1.669
62101W        W33717  36.421  12.730   0.252
62102W        W33718  11.885  18.488  14.114
62103W        W33719  32.634   7.788   2.330
62104W        W33720  10.653  17.486  14.856
62105W        W33721  12.153  20.518   4.847
62106W        W33722  33.371  36.774  12.902
62107W        W33723  38.365  12.775  12.601
62108W        W33724  24.625   4.984   4.558
62109W        W33725  10.940  13.612   4.491
62110W        W33726  14.696  20.160  13.088
62111W        W33727  14.535  10.927   3.623
62112W        W33728  26.614  21.084  10.394
62113W        W33729  37.417  17.066  13.171
62114W        W33730   4.508  36.302  12.068
62115W        W33731  27.264   1.430  14.585
62116W        W33732  10.463   3.000  13.659
62117W        W33733  42.121  10.101  14.414
62118W        W33734  29.486  43.440   3.354
62119W        W33735  18.264  36.942   3.457
62120W        W33736  36.983  21.065  14.403
62121W        W33737  12.255  41.401   1.711
62122W        W33738   4.315  13.062  11.980
62123W        W33739   7.214  35.096  13.446
62124W        W33740  43.332  19.541  14.406
62125W        W33741  17.811  15.487   3.626
62126W        W33742   1.413  37.477  10.870
62127W        W33743   1.608  34.888   0.372
62128W        W33744  29.687  15.140  12.200
62129W        W33745  43.321  44.568  10.522
62130W        W33746  28.985  29.347   1.750
62131W        W33747  44.611  38.610   1.017
62132W        W33748  29.173   4.942  12.552
62133W        W33749  13.477   6.231   0.233
62134W        W33750  10.267  17.328  14.505
62135W        W33751  24.601  18.311   4.294
62136W        W33752  15.866  37.899  13.044
62137W        W33753  35.958   0.954  14.386
62138W        W33754  18.301  21.646   2.263
62139W        W33755  34.059  12.919   4.145
62140W        W33756  12.586   0.397   0.282
62141W        W33757  23.216   7.173  12.987
62142W        W33758  15.703  21.339   2.448
62143W        W33759  38.017  16.343   3.301
62144W        W33760  11.704   3.137  13.012
62145W        W33761  20.504  31.521   0.277
62146W        W33762  21.255  28.401   2.797
62147W        W33763  38.479  26.478   4.550
62148W        W33764   2.165  32.106   2.641
62149W        W33765  19.578   9.239   4.148
62150W        W33766  41.475  31.980  11.976
62151W        W33767   2.732   1.215  11.535
62152W        W33768  41.306   2.892   4.668
62153W        W33769  30.163  35.158  11.193
62154W        W33770  32.071  30.978   2.665
62155W        W33771  11.878   9.286  13.134
62156W        W33772  28.417   4.127   1.822
62157W        W33773  25.695  16.526   3.774
62158W        W33774  22.934  18.993  12.142
62159W        W33775  18.599  43.853   1.702
62160W        W33776  21.799  35.802   4.259
62161W        W33777  38.889  30.575  14.374
62162W        W33778  21.145  39.991   2.082
62163W        W33779  15.094   6.930  14.992
62164W        W33780  13.381  18.135   3.184
62165W        W33781  36.288  43.302   4.272
62166W        W33782  22.080  23.685   3.290
62167W        W33783  35.216   1.000   3.326
62168W        W33784  26.921  17.512  11.252
62169W        W33785  19.566  22.439  14.731
62170W        W33786  24.541  37.081  14.877
62171W        W33787  33.651  40.859  11.203
62172W        W33788  28.224  38.131   1.256
62173W        W33789  10.000  14.646   3.328
62174W        W33790  36.112  41.416  13.754
62175W        W33791   1.907   9.347  14.967
62176W        W33792  19.036  27.178   2.781
62177W        W33793   5.010  14.711   2.011
62178W        W33794  22.028  30.541   1.861
62179W        W33795   4.200  19.483   1.050
62180W        W33796  10.235   3.215  11.012
62181W        W33797  21.730  41.967   0.928
62182W        W33798  11.724   4.288  14.905
62183W        W33799  13.414   4.495   1.208
62184W        W33800  24.734  37.957   3.244
62185W        W33801   3.285   3.802  14.933
62186W        W33802  28.928  32.342   4.190
62187W        W33803  12.885  25.225   2.169
62188W        W33804  24.035   4.794   4.727
62189W        W33805  15.089   3.338   3.691
62190W        W33806   2.753  28.704  12.979
62191W        W33807  16.674  12.648   1.804
62192W        W33808  25.560  12.901  10.841
62193W        W33809  10.631  39.135  10.003
62194W        W33810  36.828  11.017   1.684
62195W        W33811  41.386  43.776   2.589
62196W        W33812  20.520  31.947   4.564
62197W        W33813  37.144  44.289   2.774
62198W        W33814  12.750  33.403   0.735
62199W        W33815  35.975   7.105   1.340
62200W        W33816  25.655  32.750   0.396
62201W        W33817  10.706   5.463   3.836
62202W        W33818  42.241  17.611   2.293
62203W        W33819   3.186  40.180  10.278
62204W        W33820  29.103  30.562  11.831
62205W        W33821  40.008  31.678   1.454
62206W        W33822   0.087  37.883   3.815
62207W        W33823  24.954  16.554   3.195
62208W        W33824  26.451  19.911  11.669
62209W        W33825  26.949   0.914  11.530
62210W        W33826   7.692  35.467   4.355
62211W        W33827  10.648  13.931  14.958
62212W        W33828  18.732  15.827   3.332
62213W        W33829  38.741  37.318  14.746
62214W        W33830   9.231   7.934  13.837
62215W        W33831  15.751  17.772  10.682
62216W        W33832   8.250   6.003  13.325
62217W        W33833  40.387   9.185  13.371
62218W        W33834  33.096  19.698  12.859
62219W        W33835  36.124  15.499   4.212
62220W        W33836  23.835  32.344   4.726
62221W        W33837  14.111  34.391  10.781
62222W        W33838  33.075  29.388  12.069
62223W        W33839   3.790  32.160  13.981
62224W        W33840  36.449  36.227  14.465
62225W        W33841  21.885  27.767   2.328
62226W        W33842  13.690  17.779   9.734
62227W        W33843  12.313  32.369  10.703
62228W        W33844  41.869  23.649   2.409
62229W        W33845  13.256  14.795  11.462
62230W        W33846   4.653  18.188  12.453
62231W        W33847  13.165  13.141  13.898
62232W        W33848  20.220   4.798  12.510
62233W        W33849  43.904  36.335  14.874
62234W        W33850  12.672  30.349   1.388
62235W        W33851  34.831  22.584   2.923
62236W        W33852  39.931  25.140   0.595
62237W        W33853  44.479  34.946   4.404
62238W        W33854  29.735  11.867  14.713
62239W        W33855  28.104   8.178   3.678
62240W        W33856  38.868   2.487  12.875
62241W        W33857  26.083   1.141  11.611
62242W        W33858  39.692  28.625   1.757
62243W        W33859  15.601  36.473   0.401
62244W        W33860   2.387  43.874  10.701
62245W        W33861   0.219  32.580   4.643
62246W        W33862   2.486   5.519   4.681
62247W        W33863  35.028   2.986  11.505
62248W        W33864  29.392  14.586  14.434
62249W        W33865  13.605  22.260  14.912
62250W        W33866  33.619  19.168  14.416
62251W        W33867  13.601  20.268  14.040
62252W        W33868  32.067  42.301   4.339
62253W        W33869  27.616  33.876  11.070
62254W        W33870  37.118   7.582   3.351
62255W        W33871  17.016  34.787  13.788
62256W        W33872  27.992  43.682   3.316
62257W        W33873  39.930  24.103   0.537
62258W        W33874  34.622   8.786  12.655
62259W        W33875  31.842  44.904   0.614
62260W        W33876  26.064   9.685   3.149
62261W        W33877  41.919   8.854   0.476
62262W        W33878   3.827  37.910  14.013
62263W        W33879  28.018   2.843   3.747
62264W        W33880  20.273  33.569   2.128
62265W        W33881  18.111  30.202   4.494
62266W        W33882  29.611  23.587   2.697
62267W        W33883  35.527  17.958   4.302
62268W        W33884  16.597  35.565   4.262
62269W        W33885  30.765  20.151   0.774
62270W        W33886  40.521  31.181   3.235
62271W        W33887  10.899  19.672   2.798
62272W        W33888  31.330   8.911  14.844
62273W        W33889  24.566   9.885  12.018
62274W        W33890  17.201  41.925  14.066
62275W        W33891  30.119   7.330   4.497
62276W        W33892  14.475  33.865   0.301
62277W        W33893   2.088   4.720   4.330
62278W        W33894  14.887   7.955  11.574
62279W        W33895  13.775  12.629  12.117
62280W        W33896   9.764   0.290   0.905
62281W        W33897  19.630  27.459  12.923
62282W        W33898   8.054  44.950   0.803
62283W        W33899   6.291   7.311  14.422
62284W        W33900  43.007   0.153  11.563
62285W        W33901  10.311  27.220   0.620
62286W        W33902  29.172   0.339   4.633
62287W        W33903   4.180   7.382   1.717
62288W        W33904   2.907  32.487  13.977
62289W        W33905  44.860   1.012  11.260
62290W        W33906  21.645  37.058  10.737
62291W        W33907  35.390  39.005   2.678
62292W        W33908   1.191  40.302   0.800
62293W        W33909  11.438  14.496  10.916
62294W        W33910   3.403  12.112  11.210
62295W        W33911  14.444  39.327   1.228
62296W        W33912  13.362  23.186  12.041
62297W        W33913   8.578   0.888  12.001
62298W        W33914  30.971   0.945   2.967
62299W        W33915  27.512  25.585   4.876
62300W        W33916  28.144  40.976  13.501
62301W        W33917  13.798  16.351  14.712
62302W        W33918  40.033  26.875   0.994
62303W        W33919  24.534  34.038  11.543
62304W        W33920  20.183  41.275  11.792
62305W        W33921  34.380  29.065   1.811
62306W        W33922  31.456  22.966  14.909
62307W        W33923  41.867  37.239  10.955
62308W        W33924  28.026  10.707  11.974
62309W        W33925   5.073  13.086  11.102
62310W        W33926  22.151  11.173   4.140
62311W        W33927  18.491  21.678  13.986
62312W        W33928  27.031  40.784  12.907
62313W        W33929  36.472  24.277  11.183
62314W        W33930  11.843  28.012   0.923
62315W        W33931  41.941  22.604   2.403
62316W        W33932   1.943  36.641   4.500
62317W        W33933  33.462   0.025   4.930
62318W        W33934   2.501   6.488   4.904
62319W        W33935  40.733  14.554  11.240
62320W        W33936  30.600  28.630  11.148
62321W        W33937  39.394   1.320   2.880
62322W        W33938  10.695   2.840   4.699
62323W        W33939  31.406  18.991  14.535
62324W        W33940   8.312  39.073   4.798
62325W        W33941  23.436  39.993  10.980
62326W        W33942  21.432  13.660  13.928
62327W        W33943  25.500  26.454   3.241
62328W        W33944  20.747  43.089   0.001
62329W        W33945  40.522  31.657   3.821
62330W        W33946  36.717  34.410   2.120
62331W        W33947  10.677  34.851   2.423
62332W        W33948  38.667   6.371   1.383
62333W        W33949  21.309  40.293  12.919
62334W        W33950  39.897  39.251   3.788
62335W        W33951  23.783  16.807  12.528
62336W        W33952  33.297  16.888  14.339
62337W        W33953  32.656  39.311   0.937
62338W        W33954   0.433  19.146  10.925
62339W        W33955   0.167  19.095  14.334
62340W        W33956  17.692  27.037  11.651
62341W        W33957  30.565  34.753   2.591
62342W        W33958  25.770   2.941  13.590
62343W        W33959   3.482  35.699  14.930
62344W        W33960  18.570  26.603   4.728
62345W        W33961  17.301  43.440   3.151
62346W        W33962  27.134   9.972  14.387
62347W        W33963  29.531  39.501  13.453
62348W        W33964  38.671  30.952  12.140
62349W        W33965  40.575  22.680   4.872
62350W        W33966  31.496   4.439   4.194
62351W        W33967  30.892   4.527  12.034
62352W        W33968  22.494  14.694   0.271
62353W        W33969  33.930   3.656   2.797
62354W        W33970  33.148  12.862  14.537
62355W        W33971   7.378  34.058   1.742
62356W        W33972  38.720  43.074  14.623
62357W        W33973  18.762  32.341   3.233
62358W        W33974  14.066  16.524  11.586
62359W        W33975  19.415   9.302  14.823
62360W        W33976  10.755   4.927   2.739
62361W        W33977  21.453  41.797   1.908
62362W        W33978   4.405   4.136  13.127
62363W        W33979  28.970  23.024  14.696
62364W        W33980   5.660  31.537  12.631
62365W        W33981  32.395  21.651  13.461
62366W        W33982  36.553   2.878   0.383
62367W        W33983  14.849  43.496   4.009
62368W        W33984  40.399  34.542   2.430
62369W        W33985   2.277  24.019   1.429
62370W        W33986  10.790   2.264   0.860
62371W        W33987  21.233  42.248  14.089
62372W        W33988   7.348   3.693   1.861
62373W        W33989  22.761   8.906   2.869
62374W        W33990  31.342  37.583   4.175
62375W        W33991  41.429  41.927   1.342
62376W        W33992   3.287  23.245  12.371
62377W        W33993  11.265   3.875   0.954
62378W        W33994   9.336  35.611  13.829
62379W        W33995  44.367   8.277  12.723
62380W        W33996  10.866  39.408   2.340
62381W        W33997  21.201  19.595  12.380
62382W        W33998  36.429  32.666   0.378
62383W        W33999  40.555   7.236   0.470
62384W        W34000  44.464  29.923  12.465
62385W        W34001  30.864  43.748  11.493
62386W        W34002  11.571  44.203  13.453
62387W        W34003  40.303  33.686  13.984
62388W        W34004  20.027  42.394   2.669
62389W        W34005   9.702  43.694  12.556
62390W        W34006  27.093   8.359   3.258
62391W        W34007  44.414  12.872  12.055
62392W        W34008  18.594   2.219   0.298
62393W        W34009  32.024  11.859  14.345
62394W        W34010  41.241  33.871   2.325
62395W        W34011  17.283   6.712   3.367
62396W        W34012  36.932   3.004   0.009
62397W        W34013  12.655  38.636  12.671
62398W        W34014   5.283  13.335  11.512
62399W        W34015  28.299   6.889  13.985
62400W        W34016  34.717  41.060   3.174
62401W        W34017  37.266  33.093   2.372
62402W        W34018  27.173  38.480  14.751
62403W        W34019   0.221  28.575   3.284
62404W        W34020  34.416   2.947  13.137
62405W        W34021  34.124  25.055  10.979
62406W        W34022  15.469  27.248  14.467
62407W        W34023  41.955  41.546   1.827
62408W        W34024  21.767   8.608  13.299
62409W        W34025   6.176   1.257   4.119
62410W        W34026   7.367   0.860   3.347
62411W        W34027   8.560  28.061  12.183
62412W        W34028  38.635   3.860  14.296
62413W        W34029   9.858   9.694   2.409
62414W        W34030  39.580  42.078   4.714
62415W        W34031  25.290  22.119  10.521
62416W        W34032  29.224  43.952   2.263
62417W        W34033  39.104  15.396  14.988
62418W        W34034  20.230   8.415   2.262
62419W        W34035  30.653  21.759  13.044
62420W        W34036  43.068  30.383   3.363
62421W        W34037  33.084  24.650   2.221
62422W        W34038  20.091  18.830  11.216
62423W        W34039  44.324  24.481   0.940
62424W        W34040  28.054   7.704   0.402
62425W        W34041  43.302  32.579  11.790
62426W        W34042  37.542   9.911   2.254
62427W        W34043  21.414  36.081   4.070
62428W        W34044   9.420   0.649  11.586
62429W        W34045  38.863  25.208   1.077
62430W        W34046  35.208  44.724  10.846
62431W        W34047  42.254  13.089  11.446
62432W        W34048  39.590  10.161   3.108
62433W        W34049   0.479  37.153  12.095
62434W        W34050  18.674  40.084   0.848
62435W        W34051  26.089  10.278   4.144
62436W        W34052   3.719  42.233   4.219
62437W        W34053   9.286  12.409   1.814
62438W        W34054  34.225  32.427  14.942
62439W        W34055  38.863  11.282   1.904
62440W        W34056   7.743  25.221  12.471
62441W        W34057  40.543  36.402  13.800
62442W        W34058  26.617  43.947   4.327
62443W        W34059  43.060  32.264  14.411
62444W        W34060  23.709  20.614   1.368
62445W        W34061  34.463  12.626   4.401
62446W        W34062  14.380   0.008   4.013
62447W        W34063  18.651  23.214  14.345
62448W        W34064  17.762   6.143   4.796
62449W        W34065   8.205  42.389   3.456
62450W        W34066  23.788  19.130  12.318
62451W        W34067  18.935  39.535   1.729
62452W        W34068  27.640  12.417  11.665
62453W        W34069  26.563  41.534   2.387
62454W        W34070   3.095  41.500  12.976
62455W        W34071  23.749  42.997   3.255
62456W        W34072  35.154  16.574  12.978
62457W        W34073  35.998  19.380  10.655
62458W        W34074  33.012   1.053   1.544
62459W        W34075  34.574  22.497   0.209
62460W        W34076   1.151  31.718   0.854
62461W        W34077   3.339   0.476  10.753
62462W        W34078   0.343  22.814   1.818
62463W        W34079  17.314  29.121   1.217
62464W        W34080  25.183  28.263   0.777
62465W        W34081  38.820  28.089   5.060
62466W        W34082  11.674   4.550  12.016
62467W        W34083  22.095  28.874  14.975
62468W        W34084   6.545  20.779  11.010
62469W        W34085  12.244  44.560  11.012
62470W        W34086   7.068  17.508   0.428
62471W        W34087  22.193   1.531   3.604
62472W        W34088   7.345  38.507   1.366
62473W        W34089  39.497  40.997  13.267
62474W        W34090  11.855   3.210   0.833
62475W        W34091  41.112  42.442  12.045
62476W        W34092  26.966   4.279  10.644
62477W        W34093   2.177  25.074  12.528
62478W        W34094  12.105  31.698  14.582
62479W        W34095  19.010   0.482  13.917
62480W        W34096  39.969  38.273   3.365
62481W        W34097  14.605   9.852  14.877
62482W        W34098  16.140   3.289  12.975
62483W        W34099   7.898  22.797   1.846
62484W        W34100   7.155  22.488   2.701
62485W        W34101  28.468  31.066   3.139
62486W        W34102  33.481  15.335   0.487
62487W        W34103  38.917  40.825   0.853
62488W        W34104  25.475  18.189  11.103
62489W        W34105  31.937  43.741   2.772
62490W        W34106  25.251  23.219   2.027
62491W        W34107  40.757   5.257   0.673
62492W        W34108  30.768  38.157  12.412
62493W        W34109  15.116  37.032   1.232
62494W        W34110  40.152   4.886  13.863
62495W        W34111  44.491  12.800  13.921
62496W        W34112   8.864  33.809   5.050
62497W        W34113  26.630  42.218   0.633
62498W        W34114  39.693  22.473  11.921
62499W        W34115  28.417  25.039   4.360
62500W        W34116  42.787  35.326  13.794
62501W        W34117  27.030  31.812   2.536
62502W        W34118  18.602  12.238  14.030
62503W        W34119  23.440   6.238  12.017
62504W        W34120  43.546  32.421  14.295
62505W        W34121  11.787  20.952   4.259
62506W        W34122  29.937  41.914   1.140
62507W        W34123  43.048  19.088  11.643
62508W        W34124   2.208   5.176  14.750
62509W        W34125  10.696  31.353   3.570
62510W        W34126  40.610   1.325   4.186
62511W        W34127  39.465   6.506  12.536
62512W        W34128  39.000  38.006  13.388
62513W        W34129  18.058  27.146   4.247
62514W        W34130   9.584  37.987   1.021
62515W        W34131  39.798  40.298  14.602
62516W        W34132  28.068  18.129  11.154
62517W        W34133   2.913  12.222  14.986
62518W        W34134  34.468  37.406   4.961
62519W        W34135  24.601  22.953   4.908
62520W        W34136  19.190  24.098   3.587
62521W        W34137  27.743  21.737  12.784
62522W        W34138  20.117   6.083   1.347
62523W        W34139  32.369  16.350   2.911
62524W        W34140   8.132  44.769  11.529
62525W        W34141   6.306  21.765   3.307
62526W        W34142  40.392   4.820  11.451
62527W        W34143  10.313  11.028   5.114
62528W        W34144   9.212   8.933   1.311
62529W        W34145   0.793  43.586  13.898
62530W        W34146  13.945  28.631  14.947
62531W        W34147   1.945  41.991  14.385
62532W        W34148  33.613  37.349   4.705
62533W        W34149   1.492   8.694   2.819
62534W        W34150  35.999  33.160   2.982
62535W        W34151  33.136  19.710   4.653
62536W        W34152  41.871  37.247  11.948
62537W        W34153   7.738  44.059   0.201
62538W        W34154  14.545  30.138   3.284
62539W        W34155  27.980  13.130   0.816
62540W        W34156  28.129   2.696   1.605
62541W        W34157  20.084  35.492  11.635
62542W        W34158  36.889  10.585  13.516
62543W        W34159  40.005   9.372  14.970
62544W        W34160  31.221  28.066   4.624
62545W        W34161  18.008  43.915  13.977
62546W        W34162   1.453  22.521  12.899
62547W        W34163   6.589   0.795   0.234
62548W        W34164  12.882  10.243  13.469
62549W        W34165  32.644   2.266  14.332
62550W        W34166  19.142   8.409   0.774
62551W        W34167  26.774  29.297   2.133
62552W        W34168  40.132  22.049   1.743
62553W        W34169  38.379  13.613   2.894
62554W        W34170  41.038  24.310   4.171
62555W        W34171   0.013   5.380   4.542
62556W        W34172  24.502  12.852   0.956
62557W        W34173  17.070  17.357  13.885
62558W        W34174  11.831  15.774  14.887
62559W        W34175  33.973   4.163   1.888
62560W        W34176   4.590   0.375  11.046
62561W        W34177  16.778  27.419  14.834
62562W        W34178  23.249  36.613   4.601
62563W        W34179  36.766  28.943   0.831
62564W        W34180  27.719  16.080   4.524
62565W        W34181  29.047  43.246  14.871
62566W        W34182   1.541  44.357   1.763
62567W        W34183  35.334  16.208   3.887
62568W        W34184  13.883   4.408  13.578
62569W        W34185  29.476   7.767  13.500
62570W        W34186  28.903  18.748   3.585
62571W        W34187  24.141  18.279   4.020
62572W        W34188  21.463  23.574  13.312
62573W        W34189  31.143   4.859   0.022
62574W        W34190  32.648  15.741   4.480
62575W        W34191  31.699  16.642   0.021
62576W        W34192   9.423   3.600   3.783
62577W        W34193  26.743  12.578  12.556
62578W        W34194  10.121  16.088  14.945
62579W        W34195  16.140  21.785   4.266
62580W        W34196   0.948  41.100  13.956
62581W        W34197  38.355  25.006  11.622
62582W        W34198  37.145  17.168  11.888
62583W        W34199  24.255   1.886   1.102
62584W        W34200  23.643  38.390   2.222
62585W        W34201  21.996  14.827  14.300
62586W        W34202  22.496   2.143   2.317
62587W        W34203  22.503   4.338  13.488
62588W        W34204  13.313  43.023   3.273
62589W        W34205  13.053  24.624  12.872
62590W        W34206  14.771  29.080   3.271
62591W        W34207  38.583  19.451   5.049
62592W        W34208  27.234  25.180  11.981
62593W        W34209  37.584   0.310  10.276
62594W        W34210   5.151   7.096  12.957
62595W        W34211  32.518  40.325  11.999
62596W        W34212  35.516  18.685   3.790
62597W        W34213   3.399   6.645   0.202
62598W        W34214   0.258  35.629   0.467
62599W        W34215  32.905  14.865  14.348
62600W        W34216   7.814  44.775  13.585
62601W        W34217   0.128  32.560  14.457
62602W        W34218   0.656   3.018   2.411
62603W        W34219  29.452  14.120  12.875
62604W        W34220  10.078  41.929   4.597
62605W        W34221   3.473   7.854   4.064
62606W        W34222   4.687  43.644   2.895
62607W        W34223  19.502   9.778   4.254
62608W        W34224  34.902  31.232   2.665
62609W        W34225  17.265  41.129  10.647
62610W        W34226  35.029  39.824   2.385
62611W        W34227  28.194  31.662  10.111
62612W        W34228  34.781  32.502  11.965
62613W        W34229  38.421  35.723  14.222
62614W        W34230  27.156   2.460   1.013
62615W        W34231  24.581  39.339   3.330
62616W        W34232  23.928  15.823  13.925
62617W        W34233  27.465  18.200  10.676
62618W        W34234  37.742  25.496   3.568
62619W        W34235  37.290  22.650   2.832
62620W        W34236   6.352  42.440  14.964
62621W        W34237  27.488   4.230  10.633
62622W        W34238  15.887  31.773   2.941
62623W        W34239  16.668  39.661   4.716
62624W        W34240  31.355   0.009   0.504
62625W        W34241  39.342   7.144   3.519
62626W        W34242   4.464  32.066   4.966
62627W        W34243   3.849  13.142   3.271
62628W        W34244   8.696   7.369   4.984
62629W        W34245  14.080   7.632   3.201
62630W        W34246  32.223  11.742   3.807
62631W        W34247  29.693  43.707  12.314
62632W        W34248   6.375  28.682  10.231
62633W        W34249  23.197  30.478  14.913
62634W        W34250  30.580   5.336  11.871
62635W        W34251  26.796  38.994   0.847
62636W        W34252  18.227  44.483  12.446
62637W        W34253  19.613   5.784   0.955
62638W        W34254   0.314  21.276   2.750
62639W        W34255  31.467   7.680  10.658
62640W        W34256  38.506  27.997   1.655
62641W        W34257   5.765  31.379  12.130
62642W        W34258  44.836  33.521   1.751
62643W        W34259   0.749  16.247  12.099
62644W        W34260  17.440  22.146  10.235
62645W        W34261  31.697  32.376   0.359
62646W        W34262   4.646   5.138   3.305
62647W        W34263  26.162   6.842   0.130
62648W        W34264   9.798  40.353  12.476
62649W        W34265   6.565  24.041   0.948
62650W        W34266  20.354  29.895   0.866
62651W        W34267   2.515  32.034  13.423
62652W        W34268  20.081  14.722   0.407
62653W        W34269  18.873  22.483   4.134
62654W        W34270  15.348  36.092  14.309
62655W        W34271  28.707  35.429  12.119
62656W        W34272   8.977  33.383   2.643
62657W        W34273  35.163  32.458  13.304
62658W        W34274  20.207  37.812   0.074
62659W        W34275  34.411  41.753  11.336
62660W        W34276  24.012  43.306  12.099
62661W        W34277   5.457   4.301   0.617
62662W        W34278  36.008  37.905  14.251
62663W        W34279  31.957  20.788  14.374
62664W        W34280  33.824  26.381  10.414
62665W        W34281  11.601  29.696  10.713
62666W        W34282  14.109  26.732  12.474
62667W        W34283  41.320  42.236   0.911
62668W        W34284  17.147  40.332   0.047
62669W        W34285  29.420  24.001   3.409
62670W        W34286  21.991  40.896   3.276
62671W        W34287   7.722  14.736   3.720
62672W        W34288  43.262  19.633   3.257
62673W        W34289  13.722  21.291   0.417
62674W        W34290  13.748  21.138  13.530
62675W        W34291   4.274   6.168  11.012
62676W        W34292  12.679  26.032  10.409
62677W        W34293  35.085  12.998  11.103
62678W        W34294  21.497  26.632  11.461
62679W        W34295  38.923  13.229  12.012
62680W        W34296   4.587  12.589   4.206
62681W        W34297  36.383   9.116  13.750
62682W        W34298   3.928  44.854  13.203
62683W        W34299  36.383  16.510   2.396
62684W        W34300  22.244  37.688  11.544
62685W        W34301  34.291  33.546   4.682
62686W        W34302  31.907  24.675  13.819
62687W        W34303  38.985  22.327  10.875
62688W        W34304  30.589  37.330   1.805
62689W        W34305  35.279  44.306  11.139
62690W        W34306  22.300   5.712   4.175
62691W        W34307  33.404   0.907   3.972
62692W        W34308  24.419  43.015  13.418
62693W        W34309  31.531  12.837  11.132
62694W        W34310  36.412  26.066  11.059
62695W        W34311  30.685  16.075   3.629
62696W        W34312  13.816  42.741   3.363
62697W        W34313  38.570   3.260  12.410
62698W        W34314  43.502   7.375  11.970
62699W        W34315  30.942  16.551   4.664
62700W        W34316  35.242  23.613   0.329
62701W        W34317  36.657  28.598  10.930
62702W        W34318  14.598  39.360   2.585
62703W        W34319  13.172   4.137   2.423
62704W        W34320   8.880  44.887   0.431
62705W        W34321  28.191  43.025  10.244
62706W        W34322  26.714  39.589   0.230
62707W        W34323  10.453  20.454  14.444
62708W        W34324   8.744  16.671  12.393
62709W        W34325   0.757  44.229   0.618
62710W        W34326  40.421   9.642  12.931
62711W        W34327  21.040  26.513  14.282
62712W        W34328  44.883  23.753   0.786
62713W        W34329  39.273  14.621  11.513
62714W        W34330  10.911  19.190  12.942
62715W        W34331  22.178  38.386   0.553
62716W        W34332  29.428  13.138   4.251
62717W        W34333  26.993  23.178   2.394
62718W        W34334  44.030  22.226   3.107
62719W        W34335  36.785  18.642   1.264
62720W        W34336  18.030  25.498   2.815
62721W        W34337  23.694  24.583   0.197
62722W        W34338  42.424  29.996   2.778
62723W        W34339  44.464   1.939   3.111
62724W        W34340  13.143   5.969   9.913
62725W        W34341  22.040  35.609  10.623
62726W        W34342  39.289  20.774   0.907
62727W        W34343  36.819  14.326  10.584
62728W        W34344  22.332  29.785   4.536
62729W        W34345  23.124  28.594  12.953
62730W        W34346  29.220  35.370  10.541
62731W        W34347   0.352  21.829  14.977
62732W        W34348  41.310  29.967  13.980
62733W        W34349  12.359   4.797   3.685
62734W        W34350  25.703  10.066  11.993
62735W        W34351  13.842   2.882   0.246
62736W        W34352  43.387  11.569  12.191
62737W        W34353  41.450  43.778  13.955
62738W        W34354   9.116   5.391  12.504
62739W        W34355  19.735  18.789  14.026
62740W        W34356   1.591   6.332   1.959
62741W        W34357   1.744   0.937   3.909
62742W        W34358  31.066   5.825   4.278
62743W        W34359  11.791   3.430   9.955
62744W        W34360  43.031   8.294   4.579
62745W        W34361  10.255  24.616  13.019
62746W        W34362  19.060   4.312  14.443
62747W        W34363  30.576   9.405   2.860
62748W        W34364  26.786  36.409  10.726
62749W        W34365  34.466   3.720  11.535
62750W        W34366  37.001   7.820   4.809
62751W        W34367   4.686  40.109  11.250
62752W        W34368  11.868  16.707   2.197
62753W        W34369  20.269  41.104   1.325
62754W        W34370  32.851   3.401  13.056
62755W        W34371   3.272  26.631   4.267
62756W        W34372  17.716  10.733  14.702
62757W        W34373  37.054  20.858  12.073
62758W        W34374  11.129  17.951   4.984
62759W        W34375   4.391  23.040   3.288
62760W        W34376  24.093  10.186   1.895
62761W        W34377  33.670  40.803   0.727
62762W        W34378  26.112  44.443   4.811
62763W        W34379  34.334  26.351   2.183
62764W        W34380  23.682  30.785   4.767
62765W        W34381  29.088   1.200   2.889
62766W        W34382  17.081   2.709  13.496
62767W        W34383  15.377  35.830   0.788
62768W        W34384   1.436   9.785  14.456
62769W        W34385  18.520  11.252  13.709
62770W        W34386   5.912  35.870  10.721
62771W        W34387  36.804  33.379  10.682
62772W        W34388  22.197   2.414   2.638
62773W        W34389  43.305  18.824  12.024
62774W        W34390  20.302  36.136   3.791
62775W        W34391  21.030  38.938  12.529
62776W        W34392   5.771  31.562  10.711
62777W        W34393  19.564  26.128  13.594
62778W        W34394   1.675  11.588  12.334
62779W        W34395  17.293  34.705   2.858
62780W        W34396  31.080   8.350   2.333
62781W        W34397  40.576   3.901  11.125
62782W        W34398  16.671   1.171  11.369
62783W        W34399   3.016  23.529   0.292
62784W        W34400  10.947  40.221   1.353
62785W        W34401  14.002  10.157   2.247
62786W        W34402  43.950  40.047   3.320
62787W        W34403  37.401  34.346   2.839
62788W        W34404  11.881  13.669  12.867
62789W        W34405  23.342  31.623   1.504
62790W        W34406  14.007  12.012   2.666
62791W        W34407  13.355   9.686  12.064
62792W        W34408  25.775  18.113  13.858
62793W        W34409   5.104   3.858   1.419
62794W        W34410  14.732  44.417   0.393
62795W        W34411  43.537  14.364  10.786
62796W        W34412  23.454  41.430  13.046
62797W        W34413  12.456  19.047  12.582
62798W        W34414  10.738  20.796   0.230
62799W        W34415  26.997  17.084   2.877
62800W        W34416   4.325   7.150   1.245
62801W        W34417  18.065  38.852  13.104
62802W        W34418   1.845  13.196  12.777
62803W        W34419  38.567  18.612   4.618
62804W        W34420  28.626  28.936  14.916
62805W        W34421   7.174  16.204   1.266
62806W        W34422  20.225  36.072  13.493
62807W        W34423  23.860  28.074   3.219
62808W        W34424   6.267  24.207   3.177
62809W        W34425  23.911  33.696   4.402
62810W        W34426   9.306  31.673  11.484
62811W        W34427   7.803  32.502  12.442
62812W        W34428  29.915  22.311   3.295
62813W        W34429  43.194  24.888   2.410
62814W        W34430   0.898  33.755  10.342
62815W        W34431  29.527  41.367  14.051
62816W        W34432  20.442  30.201   3.245
62817W        W34433   5.223  10.413  14.784
62818W        W34434  28.611  17.392   3.231
62819W        W34435  36.922  13.296  14.312
62820W        W34436   4.418  28.030   3.283
62821W        W34437   1.580  22.622  13.791
62822W        W34438  29.607   0.166   3.806
62823W        W34439  23.106  10.681  13.275
62824W        W34440  15.159  12.166   3.322
62825W        W34441  14.093  23.225  11.179
62826W        W34442  17.155  41.920   0.061
62827W        W34443  37.318  15.767  12.618
62828W        W34444  33.227  30.492   0.710
62829W        W34445   6.400  21.695   4.756
62830W        W34446  21.558  43.778   3.784
62831W        W34447  34.956  44.319  10.670
62832W        W34448  39.541  10.087   2.192
62833W        W34449  44.320  16.903   0.269
62834W        W34450   7.713   6.651   4.806
62835W        W34451  30.732   3.547  11.657
62836W        W34452   7.261  34.463  14.839
62837W        W34453  22.317  32.130   1.122
62838W        W34454  17.669  20.851   1.017
62839W        W34455  26.953  18.114   4.526
62840W        W34456  18.163  23.496  13.869
62841W        W34457   7.146  14.301   1.297
62842W        W34458   4.254  40.013  12.539
62843W        W34459  12.527  41.383  12.943
62844W        W34460   2.272   0.640   9.860
62845W        W34461  13.492  27.039   0.290
62846W        W34462  25.977  39.544  12.025
62847W        W34463  18.555  22.100   4.246
62848W        W34464  27.203  35.013   2.765
62849W        W34465  25.893  14.723  10.848
62850W        W34466   4.856  44.976   3.183
62851W        W34467   3.835   7.977  12.039
62852W        W34468  12.514  16.265   0.426
62853W        W34469  42.865  44.254  12.600
62854W        W34470   4.828   9.944  12.709
62855W        W34471  31.762  26.143   1.280
62856W        W34472  43.307  42.553   2.604
62857W        W34473   3.420  44.777   4.204
62858W        W34474  22.240  19.811  12.024
62859W        W34475  43.246  10.698  14.822
62860W        W34476  40.793  25.771   4.727
62861W        W34477  35.585  15.987   0.806
62862W        W34478  34.054   8.733   0.860
62863W        W34479   3.196  40.694   3.100
62864W        W34480  35.957  39.763  10.744
62865W        W34481   1.731  19.235   2.316
62866W        W34482  37.750   7.142   0.304
62867W        W34483  43.789  14.315   0.945
62868W        W34484  39.109   8.230  11.619
62869W        W34485  22.008  10.343   9.851
62870W        W34486  14.284  23.624   2.875
62871W        W34487  22.472  23.410  12.531
62872W        W34488  11.262  15.366   2.834
62873W        W34489  41.974  19.235  12.065
62874W        W34490  21.058  36.160  14.238
62875W        W34491  11.385  22.565  12.347
62876W        W34492  21.639  39.066  10.583
62877W        W34493  13.932   1.811  11.555
62878W        W34494  15.307  31.568  11.502
62879W        W34495  19.143  27.430   3.247
62880W        W34496  10.543  43.172  11.039
62881W        W34497  23.167  14.757  11.220
62882W        W34498  37.893   1.473   4.651
62883W        W34499  21.031  35.920   0.238
62884W        W34500  34.960  37.928   4.127
62885W        W34501  39.791  27.650   2.351
62886W        W34502  42.432  12.917   4.892
62887W        W34503   8.975  43.969   4.153
62888W        W34504   6.079   7.096  12.892
62889W        W34505  41.880  15.248  14.188
62890W        W34506  28.542  43.034  12.085
62891W        W34507  28.265   9.144   1.282
62892W        W34508   7.333  11.635  13.359
62893W        W34509  24.162   5.818  11.261
62894W        W34510  33.233  43.942  10.357
62895W        W34511   4.169  21.215   2.858
62896W        W34512  16.193  17.600  10.506
62897W        W34513  24.567  21.524   1.944
62898W        W34514  23.775  39.703  13.344
62899W        W34515   9.677  15.660  11.649
62900W        W34516  32.318  16.983   1.452
62901W        W34517  34.626  26.196   2.592
62902W        W34518  39.850  28.907   0.791
62903W        W34519   5.815   6.132   2.261
62904W        W34520  16.693  14.233  10.960
62905W        W34521  36.405   7.574   4.564
62906W        W34522  23.576  24.491  13.794
62907W        W34523  27.221  29.636  12.946
62908W        W34524  26.374  38.383  11.605
62909W        W34525  18.549  38.985  11.440
62910W        W34526  22.920  41.541  12.897
62911W        W34527  41.842  31.666  12.897
62912W        W34528   2.813  25.241  11.937
62913W        W34529  35.742  34.640  11.923
62914W        W34530   1.612   3.481   5.000
62915W        W34531  30.600  20.323  12.053
62916W        W34532  27.753  42.143   0.949
62917W        W34533  40.094  35.765   2.402
62918W        W34534  31.847  15.049   1.430
62919W        W34535  20.989  22.337  14.257
62920W        W34536  31.401  10.822  12.987
62921W        W34537  28.024  40.878   3.731
62922W        W34538   6.857  15.670   3.279
62923W        W34539  42.406  19.835   4.084
62924W        W34540  43.906  44.316  11.094
62925W        W34541  21.856  22.285   1.429
62926W        W34542   9.787  37.886   4.390
62927W        W34543  26.141  16.064  10.277
62928W        W34544  38.606  44.377  14.424
62929W        W34545  27.501  16.977   3.955
62930W        W34546  29.468  35.357  14.075
62931W        W34547  22.520  39.567   4.578
62932W        W34548  24.208  10.156  13.812
62933W        W34549  35.907  44.993   4.624
62934W        W34550  15.086  13.282  12.883
62935W        W34551   2.678  14.015   2.933
62936W        W34552  36.198  24.819  12.100
62937W        W34553  20.726  39.423  14.291
62938W        W34554   3.257  43.393  10.733
62939W        W34555   6.220  22.008  14.490
62940W        W34556  35.107   5.127   4.087
62941W        W34557  10.364  25.742  13.864
62942W        W34558   5.422  29.117  12.935
62943W        W34559   3.631   9.186   1.229
62944W        W34560  23.339  23.558  14.416
62945W        W34561  21.519  22.662  10.610
62946W        W34562  38.905  31.254  10.896
62947W        W34563  29.638  30.372   2.550
62948W        W34564  33.681   7.910  14.505
62949W        W34565   7.007   3.582  10.823
62950W        W34566   4.151  35.087  11.979
62951W        W34567  22.268  15.120   1.818
62952W        W34568  14.615   1.290  10.942
62953W        W34569   7.961  44.394  12.461
62954W        W34570  40.823  43.816  12.824
62955W        W34571  18.371   1.967  13.798
62956W        W34572  37.308  15.555  13.535
62957W        W34573  40.749  12.087  12.564
62958W        W34574  10.231   0.167   3.120
62959W        W34575  40.585  19.393  13.735
62960W        W34576  26.710  28.658  13.440
62961W        W34577  24.037  13.607   4.060
62962W        W34578  11.441  12.266   2.744
62963W        W34579   9.657  31.016   3.185
62964W        W34580   7.839   7.378   2.317
62965W        W34581  12.137  35.807  11.053
62966W        W34582  26.297  12.144   4.154
62967W        W34583  24.515  21.607  11.654
62968W        W34584  37.058  22.606   1.473
62969W        W34585  19.757  18.528  11.519
62970W        W34586  34.451  26.601  13.601
62971W        W34587  40.316  25.594   3.336
62972W        W34588   8.902  34.779  13.990
62973W        W34589  33.806   2.481  10.091
62974W        W34590  27.471  19.674   2.831
62975W        W34591  12.265  31.885   3.839
62976W        W34592  44.552  17.119  12.058
62977W        W34593  25.542   5.594   0.178
62978W        W34594  26.143  33.612   3.608
62979W        W34595  24.951  26.506   4.526
62980W        W34596  27.206   9.139  12.035
62981W        W34597  29.829  22.174   4.671
62982W        W34598  21.177  29.113   3.558
62983W        W34599   5.033  23.432   4.644
62984W        W34600  23.933  40.832  11.961
62985W        W34601  34.139  43.392  14.726
62986W        W34602   3.835   9.669   1.264
62987W        W34603   1.217   0.428   0.973
62988W        W34604   7.723  11.209  13.895
62989W        W34605  25.151  27.652  14.907
62990W        W34606  23.265  24.004   3.592
62991W        W34607  23.210   6.646   4.492
62992W        W34608  17.593   5.833  12.575
62993W        W34609  23.125  29.341  12.371
62994W        W34610  17.737  14.712  12.757
62995W        W34611  10.015   0.166  13.476
62996W        W34612  27.164  40.702  10.680
62997W        W34613   4.360  23.114  10.997
62998W        W34614   5.616  20.209   4.688
62999W        W34615  41.382  39.565  11.998
63000W        W34616  22.227  27.730  14.060
63001W        W34617   3.320   1.442  13.273
63002W        W34618  16.778  14.594   4.649
63003W        W34619  38.784  30.659   4.834
63004W        W34620  22.896   5.426  11.174
63005W        W34621  18.847  15.314  13.477
63006W        W34622  40.627  34.077  13.888
63007W        W34623  41.476  18.779  10.560
63008W        W34624   6.356  10.666   1.885
63009W        W34625  33.554  18.077   2.711
63010W        W34626  13.269   5.713  12.829
63011W        W34627  14.071  26.050   0.800
63012W        W34628  23.607  31.498   0.849
63013W        W34629  10.185   5.923  11.093
63014W        W34630  40.509  20.313   1.777
63015W        W34631  25.375   8.188  14.788
63016W        W34632  13.740  39.376  13.446
63017W        W34633  21.775  42.495   0.274
63018W        W34634  37.262  24.762   2.735
63019W        W34635  24.684  34.976   1.451
63020W        W34636  19.023  33.890  13.763
63021W        W34637  29.396  16.007  11.102
63022W        W34638  43.138  23.022  13.100
63023W        W34639  12.893  18.184   0.625
63024W        W34640   0.902  10.176  10.700
63025W        W34641  21.582   0.911  14.501
63026W        W34642  13.709   6.338   0.724
63027W        W34643  31.332  23.074   3.824
63028W        W34644  28.363  38.369  11.626
63029W        W34645  16.654  25.517   0.466
63030W        W34646  35.522   8.926   3.156
63031W        W34647  12.851  30.535  14.405
63032W        W34648  18.950  10.820  11.727
63033W        W34649  11.344  17.686   1.306
63034W        W34650   7.269   9.190   4.222
63035W        W34651  11.300  27.466  13.621
63036W        W34652  37.373  27.403  14.843
63037W        W34653  24.975   7.849  12.976
63038W        W34654  28.649   5.767  10.840
63039W        W34655   8.417  23.437  11.643
63040W        W34656  15.987  32.890   0.820
63041W        W34657  40.987  29.882   4.311
63042W        W34658  31.673  37.123   0.571
63043W        W34659  21.297  12.677  11.439
63044W        W34660  15.053  41.842   1.839
63045W        W34661  21.657  41.307   3.370
63046W        W34662  20.660   1.923   1.821
63047W        W34663  40.412  13.732  12.083
63048W        W34664  21.724  15.421   0.458
63049W        W34665  25.196  22.155   0.514
63050W        W34666   5.157  10.272   2.647
63051W        W34667  37.080   4.176  13.847
63052W        W34668   2.146  26.035   4.027
63053W        W34669  35.100  11.317   4.558
63054W        W34670  13.295  32.548   0.800
63055W        W34671  29.744  27.433  10.571
63056W        W34672  12.232  10.611  14.981
63057W        W34673   4.945   0.988   1.486
63058W        W34674  13.300  37.711  11.426
63059W        W34675   5.449   7.401  14.954
63060W        W34676   3.876  27.484  12.902
63061W        W34677   5.216   7.405   0.794
63062W        W34678  23.232   4.828  12.457
63063W        W34679  35.063   2.263   1.491
63064W        W34680   4.225  26.950  11.827
63065W        W34681  44.341  17.305  11.188
63066W        W34682   8.244   4.247   3.362
63067W        W34683   8.361  42.858   4.595
63068W        W34684   3.228  38.831   4.550
63069W        W34685  28.510  21.979   3.628
63070W        W34686   8.487  42.886  11.142
63071W        W34687   7.185  18.759  14.908
63072W        W34688  38.010  35.303  12.013
63073W        W34689  15.574  42.187  10.087
63074W        W34690   8.856  15.081  11.216
63075W        W34691  23.701  20.770  12.537
63076W        W34692  37.140  44.212  14.775
63077W        W34693  39.619  11.116   9.557
63078W        W34694  30.872  17.453   3.712
63079W        W34695   2.893  42.793   0.834
63080W        W34696   0.349   6.834   4.207
63081W        W34697  10.670  29.547   1.882
63082W        W34698  34.896   4.009  11.379
63083W        W34699  20.666  26.014  10.702
63084W        W34700  13.251  30.631   3.909
63085W        W34701  34.416   3.390  11.933
63086W        W34702  36.020  12.302   4.946
63087W        W34703  30.881   6.290  12.224
63088W        W34704  14.209   2.340  13.434
63089W        W34705   5.271  40.893   2.437
63090W        W34706  22.286   6.328   3.711
63091W        W34707  23.878  26.499  10.742
63092W        W34708  32.656  20.121  12.881
63093W        W34709   0.136   3.099   3.573
63094W        W34710  14.931  29.666  14.309
63095W        W34711  43.527   0.537  10.719
63096W        W34712  20.985  38.899   4.032
63097W        W34713  23.229   7.738   1.951
63098W        W34714  41.996  15.772   2.725
63099W        W34715  32.016  26.977   1.635
63100W        W34716  15.222  40.783  12.055
63101W        W34717  39.762  33.201  13.058
63102W        W34718  18.102  44.725   2.785
63103W        W34719  25.956   7.160  11.163
63104W        W34720  24.993  32.921   0.720
63105W        W34721   0.547  27.678   1.608
63106W        W34722  37.088  25.597  12.399
63107W        W34723  20.675  18.954  14.373
63108W        W34724   6.756  22.747  13.008
63109W        W34725  34.363  20.076  11.627
63110W        W34726  10.343  39.136  11.097
63111W        W34727  36.508  31.174  13.567
63112W        W34728  21.018  12.431  12.640
63113W        W34729   4.250  18.251   0.692
63114W        W34730   1.052  31.670  10.707
63115W        W34731   2.977   1.145   2.362
63116W        W34732  30.098  26.500  13.909
63117W        W34733  42.709   4.457   3.762
63118W        W34734   6.292  25.063   0.769
63119W        W34735   8.205  19.089   2.166
63120W        W34736  26.124  44.780  13.536
63121W        W34737   4.341   1.351  13.905
63122W        W34738  43.719  30.639   1.352
63123W        W34739  34.008  34.934  14.410
63124W        W34740   4.611  20.292   3.769
63125W        W34741  42.775  14.746   2.317
63126W        W34742  34.463  44.396  10.543
63127W        W34743  30.503  30.870  14.909
63128W        W34744  13.834  40.926   1.513
63129W        W34745   5.168  37.824   3.343
63130W        W34746  24.546  16.547  13.845
63131W        W34747  31.605   7.751   0.339
63132W        W34748  20.564  40.773   0.774
63133W        W34749  13.595   0.226   2.332
63134W        W34750  30.205  26.888   3.733
63135W        W34751   3.875  29.256   0.493
63136W        W34752  15.854  18.521  11.925
63137W        W34753   2.949  29.409   1.358
63138W        W34754  31.550  29.443   3.709
63139W        W34755  28.542  15.115   1.720
63140W        W34756   8.056  19.709   0.254
63141W        W34757  15.219   6.412   2.224
63142W        W34758  30.115   9.233   2.707
63143W        W34759  36.108  33.674  12.088
63144W        W34760  11.165  43.940  14.508
63145W        W34761  11.951   0.175   2.775
63146W        W34762  32.458   3.249   1.287
63147W        W34763  19.162   6.965   1.993
63148W        W34764   7.655  12.867  12.520
63149W        W34765   9.945  38.827   0.485
63150W        W34766  41.849  20.287  12.941
63151W        W34767  23.094  25.694  14.529
63152W        W34768  32.612   2.441  12.164
63153W        W34769  28.435  27.843  12.343
63154W        W34770   1.836  32.927  14.045
63155W        W34771   0.299  21.077  14.444
63156W        W34772  21.592   0.428   4.554
63157W        W34773  44.789  27.188   2.155
63158W        W34774  38.494  18.983   1.421
63159W        W34775  37.352   0.213   2.803
63160W        W34776   0.310  26.602  11.571
63161W        W34777  29.299  36.498   4.268
63162W        W34778   7.143  26.340  11.208
63163W        W34779  44.611   8.010  11.031
63164W        W34780   8.812  11.079   4.476
63165W        W34781  40.767  41.084   1.314
63166W        W34782  13.160  35.968  14.027
63167W        W34783  19.013  22.350   2.278
63168W        W34784  44.467  26.455  12.869
63169W        W34785  41.530  40.867  11.595
63170W        W34786  26.036  15.225  10.091
63171W        W34787  41.332  42.495   0.445
63172W        W34788  24.834  32.114  12.175
63173W        W34789  18.285  39.545  12.532
63174W        W34790  42.807  42.875   1.031
63175W        W34791  34.069  33.064   3.533
63176W        W34792  24.118  25.062   4.610
63177W        W34793  21.172  15.177   4.552
63178W        W34794   4.881  31.459   0.877
63179W        W34795  10.254  14.706   4.148
63180W        W34796  10.265  35.216   2.291
63181W        W34797  38.335  37.858  12.634
63182W        W34798  33.874  25.964  12.078
63183W        W34799  42.761  31.820  11.411
63184W        W34800  19.085  41.733   5.040
63185W        W34801  39.973  30.604   1.745
63186W        W34802  32.370  22.951   3.257
63187W        W34803  25.853   0.596  14.847
63188W        W34804  23.511  33.912  12.117
63189W        W34805  38.556  11.182   3.631
63190W        W34806  18.833   4.819  10.997
63191W        W34807  31.120  24.023  13.005
63192W        W34808  12.605  29.182   3.632
63193W        W34809  23.116   5.856  14.728
63194W        W34810   2.677  21.098   4.262
63195W        W34811  28.213  17.865  13.529
63196W        W34812  39.762  12.581   1.362
63197W        W34813  22.394  37.845   1.256
63198W        W34814  18.523  23.205   3.849
63199W        W34815  13.069  44.880  12.890
63200W        W34816  28.697  12.088   1.276
63201W        W34817  30.883  29.139  13.901
63202W        W34818  10.722  20.108  12.139
63203W        W34819  35.164  24.426  11.620
63204W        W34820  42.966  19.567  12.397
63205W        W34821   1.770  22.236   1.684
63206W        W34822  14.699  43.097   1.056
63207W        W34823  10.662  39.811  14.976
63208W        W34824  21.648   8.152   4.111
63209W        W34825  38.974  30.531  10.033
63210W        W34826  32.638  33.825   3.604
63211W        W34827  20.334   5.509   0.712
63212W        W34828   9.448   6.264  13.462
63213W        W34829  23.179  43.556   2.368
63214W        W34830   9.186  13.713   4.045
63215W        W34831  37.386  26.864  11.680
63216W        W34832  14.891  30.252  13.958
63217W        W34833   2.378   1.751   3.838
63218W        W34834  27.538  34.121   1.758
63219W        W34835  44.608  18.616   4.186
63220W        W34836  10.173  18.698   0.436
63221W        W34837  35.419  23.351  13.545
63222W        W34838  30.404  44.436   2.664
63223W        W34839   6.330  39.814   2.248
63224W        W34840  13.737  25.219  14.852
63225W        W34841   2.346  28.918  11.987
63226W        W34842   8.682  30.709   5.035
63227W        W34843  42.038  21.696  12.959
63228W        W34844   6.512  40.075   2.667
63229W        W34845  18.513   2.521  11.069
63230W        W34846   0.367  19.761  13.094
63231W        W34847   2.944   2.669   1.332
63232W        W34848   5.452  22.034  13.019
63233W        W34849  16.334  18.598   4.178
63234W        W34850  16.577  41.103  14.855
63235W        W34851  44.467  32.011   3.861
63236W        W34852  42.934  34.455  12.690
63237W        W34853  22.800   3.505  14.218
63238W        W34854   6.262  23.586   3.618
63239W        W34855  42.779   4.758   5.022
63240W        W34856  26.743  34.449  11.627
63241W        W34857   7.836  41.564   3.836
63242W        W34858   3.074  37.588   2.834
63243W        W34859  41.037  17.202   1.316
63244W        W34860  17.645  29.021  10.512
63245W        W34861  20.312  20.126  11.980
63246W        W34862  29.593  39.521  12.113
63247W        W34863  22.489  16.595  14.506
63248W        W34864   2.253  41.588   1.784
63249W        W34865   9.658  25.275   2.406
63250W        W34866  10.513  29.180   2.217
63251W        W34867   0.278  44.252  12.492
63252W        W34868  15.539   5.222   0.409
63253W        W34869  16.363  40.939  11.381
63254W        W34870   7.585   3.664  11.504
63255W        W34871  32.161  30.413  14.849
63256W        W34872  24.822  12.644   4.476
63257W        W34873  23.126   2.793   3.827
63258W        W34874  16.948   1.795   4.878
63259W        W34875  28.896  37.865   4.304
63260W        W34876   4.229  18.232  14.346
63261W        W34877  32.375  20.713  11.835
63262W        W34878  31.722  22.059   1.600
63263W        W34879   4.046  36.442  12.250
63264W        W34880  14.596  10.595  12.069
63265W        W34881  23.677  25.193  14.809
63266W        W34882   7.932  33.445   3.707
63267W        W34883  28.557  44.662  10.889
63268W        W34884  16.077  28.227  13.398
63269W        W34885   1.000  44.790   3.580
63270W        W34886  31.497  21.513   0.971
63271W        W34887  28.378  42.777  13.468
63272W        W34888  24.431  10.456  13.096
63273W        W34889  33.797  40.192   1.254
63274W        W34890  31.514   0.270   1.339
63275W        W34891  34.473   1.496   1.698
63276W        W34892  29.015  21.177   4.199
63277W        W34893  29.498  42.582  13.070
63278W        W34894  28.714   3.861   1.505
63279W        W34895  42.473   6.249  14.820
63280W        W34896  18.533  34.525  10.785
63281W        W34897  35.275  36.003   0.487
63282W        W34898  24.698  21.457   3.409
63283W        W34899  18.206  16.936  13.751
63284W        W34900  36.791  33.885   2.231
63285W        W34901  43.605  33.692   9.948
63286W        W34902  15.777  30.723  11.717
63287W        W34903   6.273  38.397  11.425
63288W        W34904   1.203   6.076   2.854
63289W        W34905  31.144  43.980  11.118
63290W        W34906   9.370  16.621  10.666
63291W        W34907  20.551  17.404  11.646
63292W        W34908  37.907  23.745  14.619
63293W        W34909  39.417  38.184  13.630
63294W        W34910  13.756  21.110  12.420
63295W        W34911  22.642  16.909  14.126
63296W        W34912  30.937  15.276  14.811
63297W        W34913  25.034  23.364   1.148
63298W        W34914  19.330  25.664  13.626
63299W        W34915  10.828  38.835  10.403
63300W        W34916   2.848  31.835   1.726
63301W        W34917  21.249   8.295  13.436
63302W        W34918  36.680  21.195   5.103
63303W        W34919  20.546  32.377   2.386
63304W        W34920  22.188  10.726   3.368
63305W        W34921  44.258   2.920   2.182
63306W        W34922   7.396  43.604   3.815
63307W        W34923  15.015  24.211   0.455
63308W        W34924  26.916   2.329   1.452
63309W        W34925  37.241   6.329   4.295
63310W        W34926  22.666   4.995   1.744
63311W        W34927  17.267  20.740  11.188
63312W        W34928  39.029  19.111   0.909
63313W        W34929  23.738  27.222   1.426
63314W        W34930   4.539  36.242   3.766
63315W        W34931  34.519  42.222  12.065
63316W        W34932  20.567   5.308   1.901
63317W        W34933   9.181  13.571   1.258
63318W        W34934  38.011  30.259  10.781
63319W        W34935  42.489  34.204   0.341
63320W        W34936  41.239  12.588  11.586
63321W        W34937  31.774   9.812  14.560
63322W        W34938  13.512   1.162  12.548
63323W        W34939  22.924  19.544  10.271
63324W        W34940  26.974  44.773   2.404
63325W        W34941   7.368  31.454   3.576
63326W        W34942  38.057  42.073  14.366
63327W        W34943   5.908  11.940  10.654
63328W        W34944  42.236  29.086   2.683
63329W        W34945  41.656  15.651  13.524
63330W        W34946  10.072  16.078  13.940
63331W        W34947  19.722  38.376  13.401
63332W        W34948  37.321  18.091  14.938
63333W        W34949  43.456  27.155  11.844
63334W        W34950   2.460   6.245   3.957
63335W        W34951  39.940  30.446  10.671
63336W        W34952  19.721  35.539  14.431
63337W        W34953   1.320  14.296   4.730
63338W        W34954  15.305  35.800   1.786
63339W        W34955   1.148   4.343   3.194
63340W        W34956   6.435  31.701  13.846
63341W        W34957   8.358  30.819   1.775
63342W        W34958  14.918  25.120   0.969
63343W        W34959   6.115  10.238   0.317
63344W        W34960  25.267  22.211   2.258
63345W        W34961  39.887  34.744  14.729
63346W        W34962   0.909  26.099  14.788
63347W        W34963  24.035  12.613   0.816
63348W        W34964  32.644  37.899  11.063
63349W        W34965  14.286  22.983  13.488
63350W        W34966   0.120  33.708   4.206
63351W        W34967  32.512  36.125  11.350
63352W        W34968  27.080   6.356  10.275
63353W        W34969  31.612  34.322  10.678
63354W        W34970   9.664  42.176  11.219
63355W        W34971  28.225   8.891  12.039
63356W        W34972  41.911   2.518  13.829
63357W        W34973  24.568  34.669  13.835
63358W        W34974  14.847  41.429  12.592
63359W        W34975  29.546  11.553  11.094
63360W        W34976  37.380  43.734   0.380
63361W        W34977  31.056  38.564  12.170
63362W        W34978   7.732   6.356   2.225
63363W        W34979  43.356  42.766  10.760
63364W        W34980  11.653  34.982   0.870
63365W        W34981  34.577  33.126   3.750
63366W        W34982  20.748  28.806   1.291
63367W        W34983  22.757  24.430   3.369
63368W        W34984  38.011  38.626   0.379
63369W        W34985  36.303   3.075  12.564
63370W        W34986  40.492   8.433  12.316
63371W        W34987   7.639  30.571   4.260
63372W        W34988  24.440   6.142   3.120
63373W        W34989   8.534  30.455   4.590
63374W        W34990  41.120  33.602  12.770
63375W        W34991  30.578   7.528  12.414
63376W        W34992  36.376  28.691   1.223
63377W        W34993  13.715  42.928   2.004
63378W        W34994  17.083  25.695  14.676
63379W        W34995  38.972  36.825   0.670
63380W        W34996  30.635  44.872  11.094
63381W        W34997  10.695  43.852  12.220
63382W        W34998   9.808  43.431  13.031
63383W        W34999   0.685  13.253   3.428
63384W        W35000   5.237  34.184   3.724
63385W        W35001  44.920  23.143   1.659
63386W        W35002  18.633  18.175  14.909
63387W        W35003   8.221   9.206   4.021
63388W        W35004  37.973  15.532   2.165
63389W        W35005  14.034   6.301   0.328
63390W        W35006  33.151   6.705   4.200
63391W        W35007  16.921  30.193  13.979
63392W        W35008   7.299  23.189   3.141
63393W        W35009  12.168  43.838   0.901
63394W        W35010  36.912  36.971  13.306
63395W        W35011   2.868  38.510  11.017
63396W        W35012  36.058  31.935  13.505
63397W        W35013   0.304  13.532   0.867
63398W        W35014  42.132   6.606  11.483
63399W        W35015  31.401  33.616  13.005
63400W        W35016   5.082  11.897   3.633
63401W        W35017  33.543  26.974  14.359
63402W        W35018  19.795  38.127   2.758
63403W        W35019   0.670  26.496   3.911
63404W        W35020   9.240  27.546   4.487
63405W        W35021   0.240  12.023  14.017
63406W        W35022  33.996  31.976  14.883
63407W        W35023  11.349  33.909   4.342
63408W        W35024   3.389  43.425   2.105
63409W        W35025  17.025  32.321  13.707
63410W        W35026   9.304  29.968   4.773
63411W        W35027  30.186  20.259  11.059
63412W        W35028   8.624  32.131   1.237
63413W        W35029  12.700  37.322   5.003
63414W        W35030  15.968  35.115   4.942
63415W        W35031  34.522  28.135  14.232
63416W        W35032   0.309  23.658  14.487
63417W        W35033   4.786  18.789  12.024
63418W        W35034  19.177   0.497  12.416
63419W        W35035  24.464   6.609  11.217
63420W        W35036  14.572  23.066  11.357
63421W        W35037  34.398   4.416   3.650
63422W        W35038  41.665  31.140   5.150
63423W        W35039  41.310  10.160   4.959
63424W        W35040  40.718  27.060  14.056
63425W        W35041  38.293  17.779   4.361
63426W        W35042  16.303  37.864  13.374
63427W        W35043  19.186  33.556  12.415
63428W        W35044  26.028  14.588   1.541
63429W        W35045   8.460  22.012   3.706
63430W        W35046  17.169  40.262   2.854
63431W        W35047  15.448  29.508   4.126
63432W        W35048  16.076   6.919   0.774
63433W        W35049  24.943  23.620   0.275
63434W        W35050  16.656  21.451   3.362
63435W        W35051  28.620  36.648  11.969
63436W        W35052  37.849   7.192   3.781
63437W        W35053  21.145  21.565  13.862
63438W        W35054  11.371  12.853   0.656
63439W        W35055  36.639  23.667   4.055
63440W        W35056  20.950  37.415  14.662
63441W        W35057  12.630  36.862   4.808
63442W        W35058   4.024  13.075  13.986
63443W        W35059  30.556  16.408  11.643
63444W        W35060  37.631   6.144   0.584
63445W        W35061  20.715  34.034  12.041
63446W        W35062  23.506  17.316   1.015
63447W        W35063  29.338  11.570  10.445
63448W        W35064  24.571  40.765   3.361
63449W        W35065  21.727  21.819  12.800
63450W        W35066   9.235   5.602  11.101
63451W        W35067  12.469  13.886   4.936
63452W        W35068  43.864  43.224  12.436
63453W        W35069   2.779  17.552   1.346
63454W        W35070  26.998  32.992   0.411
63455W        W35071  44.905  16.936  14.435
63456W        W35072  24.541  18.622  12.287
63457W        W35073  26.558   6.166   2.103
63458W        W35074  36.287  35.424   1.165
63459W        W35075  40.478   2.480   1.969
63460W        W35076  28.897   7.659   1.482
63461W        W35077   2.265  10.564  14.896
63462W        W35078   7.230  21.997  10.480
63463W        W35079   5.045  24.673  11.622
63464W        W35080  29.092  10.397   2.191
63465W        W35081  40.022  13.321   4.689
63466W        W35082  16.350  31.867   0.272
63467W        W35083  33.632  14.285  12.087
63468W        W35084  19.246  27.165  11.213
63469W        W35085  32.506   1.206   1.675
63470W        W35086   7.433   9.170  12.078
63471W        W35087  24.558  22.792  12.858
63472W        W35088   9.305  15.201   4.187
63473W        W35089  21.500  13.211  14.865
63474W        W35090  28.066  36.488  11.133
63475W        W35091  23.760  41.308  12.606
63476W        W35092  19.377  25.064   4.667
63477W        W35093  23.977  44.047   0.729
63478W        W35094  37.481  10.283   1.909
63479W        W35095  10.104  39.374   2.583
63480W        W35096  18.391  26.060   3.668
63481W        W35097  27.611  29.136  12.413
63482W        W35098  17.497  42.450  12.107
63483W        W35099  38.350  12.673   3.203
63484W        W35100  27.164  43.905  14.354
63485W        W35101  10.702  17.987   0.001
63486W        W35102  13.814  11.860  14.318
63487W        W35103  18.236  22.452   0.394
63488W        W35104  27.107  40.852   2.108
63489W        W35105  23.244   9.692  12.276
63490W        W35106  33.114  37.353  14.461
63491W        W35107  14.133  22.219  11.189
63492W        W35108   5.769  34.434  13.467
63493W        W35109   7.434  32.229  13.258
63494W        W35110  24.448   1.282  12.467
63495W        W35111  34.685  36.971  12.142
63496W        W35112  37.443   1.515  11.037
63497W        W35113  21.097  41.242   2.271
63498W        W35114  10.840  29.970   0.863
63499W        W35115   1.315   8.254  11.680
63500W        W35116  43.811  20.127   1.598
63501W        W35117  41.556  27.437   4.092
63502W        W35118   9.655  17.869   1.717
63503W        W35119  27.572  36.071  13.324
63504W        W35120  23.912  13.767   1.202
63505W        W35121  41.082  13.555  12.528
63506W        W35122  38.005  29.005   4.704
63507W        W35123   2.423   4.766  13.850
63508W        W35124  10.189  39.847   4.553
63509W        W35125  12.709   8.128  10.872
63510W        W35126  40.163  44.731  14.440
63511W        W35127   4.450  39.026  13.529
63512W        W35128  30.172   5.721   0.342
63513W        W35129  11.105  27.543   1.920
63514W        W35130  41.701  21.507   2.776
63515W        W35131   1.293  38.637  13.891
63516W        W35132   4.576  19.995   4.570
63517W        W35133  26.093  24.237   0.323
63518W        W35134  11.207  33.607   1.266
63519W        W35135  36.619  35.385   0.403
63520W        W35136  37.193  23.093  11.659
63521W        W35137  24.995   9.606   0.407
63522W        W35138  10.470  20.970   3.330
63523W        W35139   1.501  24.336  12.867
63524W        W35140  17.217  25.007   2.020
63525W        W35141   7.135   8.229   1.069
63526W        W35142   4.663  28.501  12.596
63527W        W35143  32.373   9.428  13.952
63528W        W35144  30.881  37.622  12.069
63529W        W35145  18.082  20.996   0.198
63530W        W35146  35.151   7.567  11.864
63531W        W35147   7.298   6.307   4.172
63532W        W35148  19.644  36.136  11.932
63533W        W35149  14.664  12.280   3.635
63534W        W35150  42.645  16.913   1.738
63535W        W35151  33.955  25.482   3.796
63536W        W35152  12.475  37.210   0.394
63537W        W35153   5.727   6.426   2.696
63538W        W35154  28.544  28.706   2.261
63539W        W35155  30.639  14.732  14.010
63540W        W35156   6.962  36.950  10.868
63541W        W35157  40.275  44.839   2.236
63542W        W35158  35.999   3.168  14.805
63543W        W35159  23.930  38.344  13.789
63544W        W35160  26.621  12.630   3.691
63545W        W35161  27.414  23.455   2.205
63546W        W35162  24.712  11.127  12.190
63547W        W35163  21.768  30.708  14.993
63548W        W35164   2.107  22.448  13.864
63549W        W35165  27.581  10.424  10.726
63550W        W35166  39.570  11.980  13.754
63551W        W35167  34.091  43.486   0.256
63552W        W35168  27.785   6.794  14.015
63553W        W35169  25.851   5.785   2.383
63554W        W35170  28.627  35.308  11.272
63555W        W35171  17.104  23.616  10.862
63556W        W35172   8.182  28.710   0.952
63557W        W35173  20.344  24.759  13.908
63558W        W35174  40.108   9.680  12.480
63559W        W35175  23.702  42.401  11.144
63560W        W35176  16.831  13.211   4.613
63561W        W35177  11.039  43.383   1.843
63562W        W35178   2.775   1.711  11.484
63563W        W35179   9.494  29.183   0.384
63564W        W35180   2.264  10.640  13.887
63565W        W35181  35.800  44.293  11.203
63566W        W35182  21.492  27.115   0.775
63567W        W35183   6.287  33.170  11.923
63568W        W35184  19.003  18.634  14.943
63569W        W35185   3.470   0.875   1.704
63570W        W35186  18.007  41.853   3.126
63571W        W35187  26.543   1.493  12.085
63572W        W35188  12.315  33.046   3.737
63573W        W35189   6.424  16.627   1.469
63574W        W35190  40.301  42.004  13.278
63575W        W35191  21.174  38.292  10.410
63576W        W35192  20.152   9.163   4.772
63577W        W35193   1.211  38.850  10.973
63578W        W35194   9.687   7.255  10.725
63579W        W35195  23.722   7.786  13.674
63580W        W35196   6.865  12.823   2.040
63581W        W35197  32.621  18.891   2.394
63582W        W35198  19.002  25.579   0.544
63583W        W35199  14.568   2.023   0.941
63584W        W35200   1.027  18.625  11.173
63585W        W35201   3.359  20.039   3.961
63586W        W35202  28.620   0.563  12.008
63587W        W35203  28.033  40.224  11.673
63588W        W35204   1.018  36.355   4.859
63589W        W35205   6.729  36.467   3.254
63590W        W35206  38.885  42.741   1.798
63591W        W35207   5.917  43.193  13.825
63592W        W35208  11.690  15.021   3.811
63593W        W35209  40.795  13.974   2.792
63594W        W35210  37.828  17.795   3.225
63595W        W35211  35.640  14.101   0.712
63596W        W35212  18.968   9.848   3.628
63597W        W35213  32.041  29.883   4.583
63598W        W35214  22.975  41.879  13.521
63599W        W35215  23.412  23.675  13.449
63600W        W35216  42.305  28.965  12.873
63601W        W35217  30.961  40.964  13.869
63602W        W35218   7.448  42.443  10.694
63603W        W35219   2.787  24.524   4.117
63604W        W35220  24.420  27.646  11.558
63605W        W35221  18.148  34.647  14.983
63606W        W35222  26.864  27.707   2.914
63607W        W35223  29.194   5.564  11.559
63608W        W35224  42.384  41.940   1.256
63609W        W35225  43.023   9.678  12.885
63610W        W35226  23.133   7.199   2.246
63611W        W35227  19.839  31.610   4.990
63612W        W35228  31.694   3.280   4.753
63613W        W35229   9.538  39.263   4.452
63614W        W35230  34.470  17.857  11.373
63615W        W35231  18.272  18.282  11.599
63616W        W35232  23.686  37.853   3.310
63617W        W35233  27.383  14.972  14.533
63618W        W35234  16.841  38.151   0.880
63619W        W35235  31.930  18.506   4.708
63620W        W35236  30.838  39.607   2.306
63621W        W35237   4.770  35.862   1.704
63622W        W35238  30.247  19.173   3.806
63623W        W35239   9.642   3.715   4.242
63624W        W35240  20.249  31.398   3.670
63625W        W35241  14.398  27.374   0.295
63626W        W35242   0.740  37.859  10.008
63627W        W35243  29.912  20.920  14.041
63628W        W35244  41.906  12.937  13.495
63629W        W35245   9.165  35.481  11.038
63630W        W35246  40.459  11.150  10.922
63631W        W35247  33.376  11.802   4.808
63632W        W35248  32.160  18.271  14.394
63633W        W35249   5.172  16.199   1.348
63634W        W35250  16.692  37.044  14.171
63635W        W35251  23.567  26.045  10.685
63636W        W35252   8.807  33.170   3.369
63637W        W35253   0.843  14.576  12.587
63638W        W35254   0.391  30.175   0.883
63639W        W35255  11.575  13.367   3.700
63640W        W35256  32.873   9.607  13.873
63641W        W35257  10.373  18.753  11.650
63642W        W35258  12.225   8.474   4.473
63643W        W35259  16.860  34.954  12.545
63644W        W35260  27.489  34.123   2.783
63645W        W35261  33.905  11.695   2.337
63646W        W35262  17.455   5.863  10.566
63647W        W35263   4.839  38.736   2.399
63648W        W35264  29.017  20.561  11.700
63649W        W35265  13.769  34.476  12.023
63650W        W35266  13.820   2.250  10.606
63651W        W35267   1.802  10.363  14.797
63652W        W35268  34.902  21.988  13.384
63653W        W35269   4.872  28.499   0.887
63654W        W35270   7.203  13.724  14.671
63655W        W35271  19.867  24.207   4.680
63656W        W35272  39.957  13.047   3.601
63657W        W35273  28.098   2.286  10.673
63658W        W35274  20.715  19.467  11.491
63659W        W35275  39.245  42.770  11.982
63660W        W35276  25.420  12.932  12.784
63661W        W35277  17.504  35.024   3.666
63662W        W35278  24.445   9.761  10.679
63663W        W35279  44.169  40.327   2.885
63664W        W35280  11.324  33.911   3.108
63665W        W35281  44.324  33.781  10.580
63666W        W35282  23.689  24.164   3.861
63667W        W35283  10.140  21.483   0.450
63668W        W35284  24.990   0.552  14.480
63669W        W35285  20.495  33.182   0.409
63670W        W35286   9.246  20.270  10.575
63671W        W35287  36.073   4.338   3.628
63672W        W35288  22.047  15.575   1.141
63673W        W35289  31.051  35.315  11.233
63674W        W35290  25.182  22.358   1.390
63675W        W35291  13.218  31.174   0.840
63676W        W35292   5.287  21.959  14.532
63677W        W35293   4.870  36.107   3.138
63678W        W35294  10.418  16.167  13.449
63679W        W35295  36.892  17.385   2.489
63680W        W35296  43.922  11.159  11.937
63681W        W35297  17.669  34.762  12.949
63682W        W35298  31.896   7.642  12.947
63683W        W35299  18.213   9.819  12.838
63684W        W35300  25.422  32.646  14.905
63685W        W35301   8.651  12.805   2.825
63686W        W35302  38.407  29.664   1.170
63687W        W35303  32.890   5.732   1.672
63688W        W35304  40.966  16.258   3.152
63689W        W35305  39.919  21.432  11.065
63690W        W35306  34.440  43.765   4.559
63691W        W35307  16.032  32.001  12.479
63692W        W35308  38.281   0.417  11.954
63693W        W35309  42.862   9.936  12.465
63694W        W35310  27.224  32.990   4.143
63695W        W35311   0.387  22.026   3.379
63696W        W35312  20.856  13.575  11.315
63697W        W35313  31.557   5.606   1.893
63698W        W35314   7.003  21.686  12.057
63699W        W35315   9.745   9.425   3.261
63700W        W35316  17.846  34.448   1.439
63701W        W35317  14.331   4.319  12.857
63702W        W35318  37.477  34.412   3.746
63703W        W35319  30.234  14.910  12.454
63704W        W35320  37.246  22.566   4.531
63705W        W35321  24.164   0.947   5.054
63706W        W35322  23.308   6.708   2.108
63707W        W35323  17.777  20.317  14.596
63708W        W35324   6.793   3.972   2.852
63709W        W35325  30.634  33.656   2.480
63710W        W35326   2.313  33.080  11.455
63711W        W35327   7.972  15.552   4.047
63712W        W35328  21.447  24.243   0.146
63713W        W35329  41.446   4.156   3.163
63714W        W35330  21.882  31.043   0.420
63715W        W35331  23.359  39.397  13.399
63716W        W35332  13.044   1.882   0.446
63717W        W35333  29.412   1.815   1.979
63718W        W35334  34.676  40.910  10.955
63719W        W35335  30.213  23.745   4.032
63720W        W35336  35.072   5.793   0.202
63721W        W35337  19.109  37.383  12.058
63722W        W35338  34.056  34.051  12.674
63723W        W35339  26.277  28.182   0.237
63724W        W35340  36.139  41.560   4.834
63725W        W35341  24.455  31.877   4.461
63726W        W35342  21.179  11.228  14.536
63727W        W35343  24.555   0.246  14.431
63728W        W35344  35.102  26.479   0.424
63729W        W35345   6.256  20.491  14.596
63730W        W35346   8.894  13.336  14.601
63731W        W35347   5.199  34.075   0.500
63732W        W35348  14.860  23.080   3.745
63733W        W35349  19.318   0.437  14.360
63734W        W35350  42.344  30.513  12.948
63735W        W35351  34.906   3.846  14.406
63736W        W35352  28.925  28.080  13.059
63737W        W35353  14.702  25.406  11.185
63738W        W35354  24.697   8.875   1.076
63739W        W35355   7.192  42.715   4.585
63740W        W35356  30.099  15.196   3.200
63741W        W35357  36.305   1.782  14.941
63742W        W35358  40.411  34.972   4.202
63743W        W35359  12.946  28.066   0.769
63744W        W35360   1.381  27.256   4.905
63745W        W35361   9.959  18.700   1.280
63746W        W35362   2.996  15.719   4.644
63747W        W35363  32.499  15.243   4.416
63748W        W35364  17.798  33.049   4.824
63749W        W35365   8.556   1.396  10.537
63750W        W35366  20.734  12.679  11.505
63751W        W35367   5.459  25.997   2.672
63752W        W35368  31.029  21.079  12.613
63753W        W35369  41.082   8.916   2.223
63754W        W35370  14.022  40.408   4.234
63755W        W35371  30.880   3.852  12.671
63756W        W35372   9.197   0.269   0.219
63757W        W35373  10.375   3.499   5.205
63758W        W35374  41.312  36.582  13.455
63759W        W35375  35.608  12.384   3.767
63760W        W35376  14.109  12.567   1.017
63761W        W35377  17.348  39.212   2.552
63762W        W35378   4.978   5.151   4.620
63763W        W35379  28.130  18.243  12.154
63764W        W35380  35.146  24.229  13.153
63765W        W35381   5.949  44.478  13.558
63766W        W35382   6.244  39.706  12.605
63767W        W35383  36.821  15.651   3.096
63768W        W35384  10.589  33.971   2.281
63769W        W35385  16.629  43.216   3.598
63770W        W35386  41.286  21.317   0.669
63771W        W35387  43.375  12.026   2.465
63772W        W35388  19.705  16.165  12.695
63773W        W35389  26.648  14.915  13.340
63774W        W35390  24.535  23.734   3.049
63775W        W35391   8.662  14.203   3.124
63776W        W35392  39.790  28.577  12.416
63777W        W35393  40.416   6.920   0.891
63778W        W35394  14.757  11.888  13.957
63779W        W35395  10.743   8.096  14.456
63780W        W35396   3.708  14.313   0.394
63781W        W35397  30.017  37.974   1.370
63782W        W35398  34.800  41.682   0.934
63783W        W35399   4.757  29.639  14.018
63784W        W35400   7.756   1.174  13.069
63785W        W35401  32.687  15.137  11.835
63786W        W35402  33.069   4.570   1.719
63787W        W35403  23.677  23.678   3.606
63788W        W35404   4.682   1.935  10.659
63789W        W35405  39.849  12.278  12.838
63790W        W35406  16.086  39.471  11.995
63791W        W35407  23.935  27.582   3.720
63792W        W35408  32.327   4.864   1.880
63793W        W35409  40.042  44.288   4.262
63794W        W35410   2.484  44.743   0.728
63795W        W35411  11.002  44.462  14.418
63796W        W35412  22.304  38.987  13.524
63797W        W35413  33.928  31.824  11.909
63798W        W35414  30.355  16.668  10.571
63799W        W35415  40.786  17.064   0.841
63800W        W35416  12.121   5.502  11.370
63801W        W35417   3.398  37.627  12.427
63802W        W35418  43.846  35.961  11.192
63803W        W35419  14.838   3.696  11.946
63804W        W35420  21.976   3.426   4.598
63805W        W35421  24.729  29.630   2.939
63806W        W35422   2.546  13.811   1.722
63807W        W35423  16.266  13.767   4.598
63808W        W35424  31.580  38.013  11.018
63809W        W35425  23.717  10.496  12.059
63810W        W35426   5.816   0.468  12.193
63811W        W35427  18.718  17.072  14.617
63812W        W35428   2.414  24.422  13.332
63813W        W35429  41.556  28.027   4.834
63814W        W35430   6.874  38.609  13.926
63815W        W35431  29.531  19.669  12.885
63816W        W35432  23.073  33.451   3.387
63817W        W35433  11.010   0.215  11.832
63818W        W35434  14.017  11.651   2.269
63819W        W35435  29.691   0.836  10.225
63820W        W35436   4.746  34.329   0.733
63821W        W35437   2.142  21.585   9.845
63822W        W35438  41.729  35.024  12.665
63823W        W35439   9.170  23.548   3.577
63824W        W35440  28.749  38.690   0.323
63825W        W35441   7.847  38.997   0.439
63826W        W35442  32.957  40.370  14.382
63827W        W35443  21.291  35.650   4.332
63828W        W35444  25.629   3.063  12.184
63829W        W35445  24.834   7.604   2.756
63830W        W35446  36.759  43.504   4.197
63831W        W35447   1.458  30.053  13.953
63832W        W35448  11.232  31.688  13.561
63833W        W35449  19.597  44.898   3.809
63834W        W35450  42.758   2.799  10.846
63835W        W35451  10.641  24.568   4.838
63836W        W35452  38.613  20.802   2.714
63837W        W35453  33.977  11.905  13.430
63838W        W35454   3.991   3.765  13.133
63839W        W35455  14.081   2.841  13.457
63840W        W35456   7.178  18.276   3.177
63841W        W35457   7.410  25.542   3.589
63842W        W35458  24.023  18.776   0.915
63843W        W35459  34.439  11.751   2.325
63844W        W35460   3.009  23.057   1.949
63845W        W35461  16.395   6.287   2.839
63846W        W35462  44.268   1.353   1.341
63847W        W35463  36.150   0.669  10.254
63848W        W35464   7.597  31.694   0.731
63849W        W35465  18.593  40.392  14.963
63850W        W35466  21.875   3.397  10.203
63851W        W35467  17.028  37.257  12.883
63852W        W35468  38.326  35.017   3.187
63853W        W35469  44.694  26.759  13.736
63854W        W35470  42.394  27.133   4.740
63855W        W35471  22.292  14.405  11.016
63856W        W35472   7.839  22.843  13.337
63857W        W35473  33.550  16.546   0.828
63858W        W35474   7.421  23.725  12.477
63859W        W35475  35.939  17.829   4.644
63860W        W35476   0.827  10.202   2.149
63861W        W35477  32.927  27.857   2.205
63862W        W35478  11.835   8.820   0.361
63863W        W35479  21.769  32.900   3.176
63864W        W35480  26.416  19.772  14.486
63865W        W35481  31.027   2.134  13.063
63866W        W35482  32.936  10.136  13.924
63867W        W35483  20.986  18.728  11.216
63868W        W35484  27.460  43.265   2.607
63869W        W35485  35.400  18.290   2.309
63870W        W35486   4.893  41.455  13.916
63871W        W35487  24.584  38.365   3.587
63872W        W35488  40.598  39.580   0.494
63873W        W35489  37.081  37.344   4.799
63874W        W35490  39.825  28.643  14.990
63875W        W35491  16.516  32.348   2.939
63876W        W35492  34.344  25.367   2.327
63877W        W35493  44.362  21.212  14.421
63878W        W35494  10.569  33.084   3.212
63879W        W35495  36.463  23.926   1.886
63880W        W35496  15.629   0.211  12.934
63881W        W35497   6.229  30.568  14.703
63882W        W35498  43.933  10.763  11.559
63883W        W35499   0.312   3.032   1.477
63884W        W35500  44.747  21.484  14.643
63885W        W35501  10.344  43.441   0.974
63886W        W35502  25.602  16.732  12.689
63887W        W35503   2.821  31.063  12.978
63888W        W35504   6.815  11.736   4.498
63889W        W35505  19.613  34.877  11.078
63890W        W35506   0.741  24.313   3.343
63891W        W35507   6.659  24.466  14.028
63892W        W35508  36.675  40.309  14.040
63893W        W35509  35.611  15.315   0.141
63894W        W35510  12.874  31.139   4.691
63895W        W35511  15.877  36.400   4.207
63896W        W35512  20.155   8.279  13.272
63897W        W35513   1.309   5.746   4.814
63898W        W35514  12.073  14.283  11.175
63899W        W35515  20.719   0.892   0.397
63900W        W35516   5.479   3.209  10.673
63901W        W35517   2.715  25.030   0.349
63902W        W35518  14.114  44.371   2.777
63903W        W35519  36.918  40.890  11.833
63904W        W35520  26.940   5.564  10.631
63905W        W35521  16.606  19.688   4.780
63906W        W35522   6.505   4.850   2.361
63907W        W35523  31.469   5.868   1.446
63908W        W35524  13.236  17.475  11.879
63909W        W35525  26.624  29.046   4.127
63910W        W35526  16.977  22.134  11.178
63911W        W35527  22.154  21.548   0.261
63912W        W35528  13.798  34.986   4.641
63913W        W35529  11.543  27.039  14.311
63914W        W35530   3.441  14.256  12.382
63915W        W35531   7.194  11.635   2.956
63916W        W35532  26.839   3.505   0.457
63917W        W35533  28.319   0.212  13.271
63918W        W35534  36.815  38.963  13.277
63919W        W35535  38.523   1.928  12.714
63920W        W35536  13.115  14.184  14.853
63921W        W35537  12.464  34.616   0.947
63922W        W35538  20.276  44.324   1.276
63923W        W35539  34.792  44.172  11.142
63924W        W35540  26.911  16.315   3.295
63925W        W35541  28.730  14.738  11.116
63926W        W35542   4.277  13.586  11.495
63927W        W35543  33.397   8.357   3.187
63928W        W35544  13.711  37.994  10.668
63929W        W35545   2.464  42.994   4.209
63930W        W35546  34.237   2.970   0.421
63931W        W35547  21.170  36.058  12.808
63932W        W35548  26.981  22.658  14.392
63933W        W35549  24.717  12.861   0.458
63934W        W35550  37.537  14.165   2.967
63935W        W35551   7.338  41.529   1.643
63936W        W35552  13.749  43.808  13.959
63937W        W35553   3.710  34.756  13.988
63938W        W35554  40.333  40.329   4.134
63939W        W35555   3.342  36.033   0.817
63940W        W35556  34.816   1.123   0.887
63941W        W35557  17.018   0.596   2.491
63942W        W35558  25.668  10.102  12.806
63943W        W35559  39.167   4.110  12.417
63944W        W35560   2.239  28.970  14.280
63945W        W35561  26.401  18.507  14.997
63946W        W35562  19.758  35.013   0.181
63947W        W35563  38.607  28.618  10.543
63948W        W35564  19.023   2.779   4.756
63949W        W35565  15.542  44.284   4.235
63950W        W35566  39.574   4.976   1.083
63951W        W35567  15.201  33.035  13.182
63952W        W35568   2.901  24.496  13.501
63953W        W35569  27.187  37.344   2.394
63954W        W35570  12.382  24.317   4.088
63955W        W35571  22.074  35.792   1.805
63956W        W35572  39.406   9.610  12.992
63957W        W35573  37.466  17.569  10.464
63958W        W35574  36.506  40.391   1.946
63959W        W35575   9.654  42.564   4.205
63960W        W35576   6.142  13.553  12.389
63961W        W35577  32.842  13.697   3.458
63962W        W35578  12.535   0.861  13.585
63963W        W35579  29.465  25.689   1.166
63964W        W35580  13.563  18.475   1.675
63965W        W35581  13.768   4.907   1.678
63966W        W35582   9.174  30.044  12.065
63967W        W35583  11.863  17.717   1.361
63968W        W35584  17.064  39.431  12.006
63969W        W35585   0.839  20.135   4.730
63970W        W35586  20.094  16.614   4.356
63971W        W35587   8.863  44.785  10.738
63972W        W35588  42.437  24.156   4.576
63973W        W35589  12.086   4.959   2.259
63974W        W35590   0.919   7.765   2.798
63975W        W35591  32.288  18.824   1.407
63976W        W35592  30.866  29.223   3.293
63977W        W35593  24.797   4.023   1.134
63978W        W35594   3.010  10.738   2.686
63979W        W35595  12.931  26.164  13.565
63980W        W35596  36.941  27.440  13.897
63981W        W35597  28.024  41.934  14.589
63982W        W35598  23.032  40.120   1.299
63983W        W35599  32.369  35.057  11.430
63984W        W35600  22.070  21.629  14.351
63985W        W35601  15.016  40.072  14.491
63986W        W35602  35.376  15.717   0.388
63987W        W35603  36.963  37.525  14.410
63988W        W35604  14.165  21.150   0.779
63989W        W35605  36.073  34.090  10.739
63990W        W35606  43.980  25.454   2.738
63991W        W35607  37.575  14.757  12.206
63992W        W35608  44.503   1.607   0.821
63993W        W35609  43.659   0.930   4.848
63994W        W35610   9.475  20.514  14.785
63995W        W35611   3.727  41.885  12.635
63996W        W35612  16.516  34.668  13.823
63997W        W35613   3.230  34.521   3.323
63998W        W35614   2.412   7.884   0.491
63999W        W35615  19.718  40.997  10.704
64000W        W35616  14.731  37.872  14.036
64001W        W35617  44.291  26.600  14.000
64002W        W35618  27.647  33.564   2.728
64003W        W35619  16.954  26.579  13.373
64004W        W35620  39.979  15.963   3.614
64005W        W35621  21.698   3.248  14.483
64006W        W35622  25.712  26.664   1.356
64007W        W35623  39.847  24.729   3.076
64008W        W35624  25.669  33.487  11.469
64009W        W35625  22.972  35.033  11.540
64010W        W35626   1.930   1.776  12.461
64011W        W35627   4.190  31.911   0.423
64012W        W35628  13.356   4.927   4.587
64013W        W35629  18.777   3.699  12.806
64014W        W35630   0.081  21.339   1.666
64015W        W35631  29.375  18.059  11.656
64016W        W35632   3.584   6.829  14.010
64017W        W35633  16.381  42.426   3.825
64018W        W35634  39.817  39.688   1.876
64019W        W35635  40.603  23.604   0.353
64020W        W35636  20.218  15.210  14.047
64021W        W35637  24.572  35.079  10.644
64022W        W35638  23.097   7.745  14.969
64023W        W35639   6.766  31.570  10.756
64024W        W35640  29.160  39.421  14.181
64025W        W35641  11.147  35.473   0.344
64026W        W35642  35.826  18.870  12.837
64027W        W35643  35.987  27.961  13.886
64028W        W35644  19.022   7.918   4.610
64029W        W35645  35.087  19.227   4.914
64030W        W35646  23.798  22.546  14.913
64031W        W35647  44.985  36.361  11.948
64032W        W35648  16.540  22.612  12.332
64033W        W35649  43.349  31.840   2.566
64034W        W35650  11.478   0.493  10.646
64035W        W35651  31.578  30.167   3.134
64036W        W35652  23.440  37.739  12.010
64037W        W35653  27.672  24.730  12.002
64038W        W35654   3.368  37.902  13.756
64039W        W35655  41.767   2.950   3.003
64040W        W35656  36.920  20.863  12.595
64041W        W35657  32.077  17.895  14.759
64042W        W35658  21.608  27.954   3.160
64043W        W35659  16.109  14.326   1.830
64044W        W35660  27.080  19.052   1.734
64045W        W35661  28.942  36.879   1.166
64046W        W35662  19.054   6.333   2.228
64047W        W35663  35.926  31.937   0.470
64048W        W35664  37.306  12.752   2.808
64049W        W35665  36.404  30.943  12.639
64050W        W35666  42.827  15.854  14.818
64051W        W35667  26.031  29.991  13.414
64052W        W35668  40.003  32.588   0.022
64053W        W35669  30.462   9.955  14.473
64054W        W35670  11.711  22.756   1.503
64055W        W35671   8.638  20.536  12.577
64056W        W35672  20.283  10.793   4.104
64057W        W35673  37.290  28.598  12.862
64058W        W35674  35.964  10.025   5.056
64059W        W35675  20.122  12.475   0.005
64060W        W35676  40.993  12.682   3.220
64061W        W35677  42.823  23.641  11.584
64062W        W35678  42.593  26.418   2.242
64063W        W35679  39.485  24.146  14.251
64064W        W35680  12.165  31.045   2.322
64065W        W35681  12.263  32.591  11.173
64066W        W35682  23.754  30.095   4.062
64067W        W35683   1.108  32.148   1.994
64068W        W35684  20.634  20.908   4.854
64069W        W35685   3.826   3.047   2.256
64070W        W35686  10.334  37.895  10.672
64071W        W35687  29.718  14.198   2.922
64072W        W35688  40.969  37.404  14.407
64073W        W35689  18.250  27.715  13.788
64074W        W35690  12.266  23.322  11.783
64075W        W35691   1.598  29.195  10.566
64076W        W35692  19.809  37.052  12.008
64077W        W35693  28.064  35.394   1.834
64078W        W35694   8.222  18.785  13.961
64079W        W35695  24.489  29.525   3.869
64080W        W35696   2.237  32.889   4.566
64081W        W35697  29.063   5.712   3.038
64082W        W35698  41.088  28.015  12.011
64083W        W35699   9.328   1.403  12.950
64084W        W35700  22.934  14.174   2.168
64085W        W35701  23.663   8.402   3.779
64086W        W35702  34.242  23.050   1.817
64087W        W35703   7.801   1.943  14.700
64088W        W35704  27.442  18.789   4.441
64089W        W35705  32.103  44.670  10.520
64090W        W35706  31.937   5.845  14.297
64091W        W35707  44.492  17.278  13.956
64092W        W35708  30.996  17.976  12.316
64093W        W35709  41.970  42.465   4.381
64094W        W35710  11.678  12.736  10.771
64095W        W35711  11.223   9.344  10.662
64096W        W35712   2.900  33.751  14.327
64097W        W35713  42.825  30.002   3.113
64098W        W35714  15.200  35.931  13.798
64099W        W35715  41.608  22.930  11.586
64100W        W35716   1.158  21.615  12.143
64101W        W35717   9.879  21.987   2.187
64102W        W35718  11.219  11.280  10.782
64103W        W35719  16.638  10.297   4.644
64104W        W35720  27.884  42.498  11.066
64105W        W35721  24.603  20.081   2.327
64106W        W35722   7.362  20.625   0.768
64107W        W35723  44.579  37.329   4.505
64108W        W35724  32.354   8.798   5.138
64109W        W35725  20.064   1.373   1.394
64110W        W35726   4.292  37.569  11.532
64111W        W35727  17.527  19.113   3.974
64112W        W35728  20.972  28.941  13.465
64113W        W35729  28.986   9.525   1.636
64114W        W35730  40.295   1.034  10.628
64115W        W35731  18.298   4.656  10.816
64116W        W35732  35.977  44.993  11.596
64117W        W35733  31.050  14.536   2.846
64118W        W35734  44.101  43.923   0.281
64119W        W35735  42.989  21.073  14.415
64120W        W35736   9.165  17.108  14.057
64121W        W35737  42.334  41.197  10.329
64122W        W35738  12.765  29.117   3.151
64123W        W35739   8.470  28.324   0.453
64124W        W35740   8.095   0.410  10.651
64125W        W35741  21.170  10.076   4.706
64126W        W35742  24.735  24.520   0.421
64127W        W35743  24.208  11.962  10.336
64128W        W35744  34.638  19.291   3.635
64129W        W35745   9.247  22.813  10.724
64130W        W35746  30.172  35.394  14.648
64131W        W35747  30.001  17.354   2.928
64132W        W35748  14.322   6.733   0.458
64133W        W35749  11.149  11.814  10.683
64134W        W35750   4.649  37.552   2.971
64135W        W35751  24.512  27.149  14.379
64136W        W35752   7.929  10.575  11.128
64137W        W35753   0.219  30.969  10.623
64138W        W35754  27.109  25.069   1.149
64139W        W35755  25.224  31.017  13.917
64140W        W35756  29.461  29.150   4.520
64141W        W35757  15.069   6.235   0.388
64142W        W35758  21.737  13.659  13.506
64143W        W35759  14.622   8.169  13.015
64144W        W35760  33.358  21.519  12.939
64145W        W35761  24.699  21.046   4.586
64146W        W35762  41.271  20.462  11.998
64147W        W35763   0.780  15.853  10.578
64148W        W35764   4.901  36.133  10.575
64149W        W35765  28.093  11.807   2.215
64150W        W35766  20.646  33.809   1.292
64151W        W35767  29.260  35.364   0.579
64152W        W35768  14.744   1.847   3.904
64153W        W35769  44.540  20.264   2.423
64154W        W35770   8.273  22.538   4.488
64155W        W35771  10.113  28.961  14.035
64156W        W35772  38.470   8.179   0.268
64157W        W35773   7.698  27.655   4.310
64158W        W35774  21.993  18.891   1.811
64159W        W35775  32.132  31.883  13.320
64160W        W35776  16.687   9.121   2.783
64161W        W35777  44.382  30.444  14.311
64162W        W35778   6.135  15.751  11.516
64163W        W35779  34.393  26.177  13.911
64164W        W35780  33.545   2.847   2.445
64165W        W35781   8.414  44.955   1.368
64166W        W35782   4.177  24.029   0.218
64167W        W35783  22.726  39.299  11.113
64168W        W35784  37.363  15.538   0.823
64169W        W35785  35.877   8.414   2.547
64170W        W35786   4.381  13.684   0.294
64171W        W35787  26.619  36.871  14.936
64172W        W35788   2.317   5.616   3.805
64173W        W35789  30.242   7.758   1.271
64174W        W35790   1.546  30.993  14.417
64175W        W35791  38.491  42.575  13.596
64176W        W35792  40.939  28.685  14.886
64177W        W35793  39.358  13.761   4.992
64178W        W35794   0.627  37.364  10.188
64179W        W35795  34.367  34.392  14.955
64180W        W35796  23.148   0.523   4.507
64181W        W35797  31.874  19.155   0.345
64182W        W35798   1.270  39.992  11.406
64183W        W35799  30.551  15.337  10.968
64184W        W35800   3.521  40.733   1.355
64185W        W35801  25.900   1.909  12.077
64186W        W35802  27.210   2.943   4.212
64187W        W35803  11.248   8.182  10.583
64188W        W35804  42.437  44.408  13.975
64189W        W35805  36.564  40.018  11.501
64190W        W35806  36.976  10.646   4.619
64191W        W35807  18.959  40.005  13.867
64192W        W35808   3.205  41.014  10.410
64193W        W35809  15.994  30.340   0.465
64194W        W35810   2.546  11.286  12.624
64195W        W35811   1.510  33.523   3.905
64196W        W35812  35.552  35.303  11.586
64197W        W35813  22.333  25.866   2.636
64198W        W35814  17.405  19.968  12.519
64199W        W35815   5.025  13.741  14.417
64200W        W35816   3.088  30.532   3.241
64201W        W35817  17.171  17.899   0.353
64202W        W35818  26.081  29.909  12.567
64203W        W35819  31.449  32.006  14.068
64204W        W35820  23.489   1.462  10.586
64205W        W35821   6.936  15.037   1.807
64206W        W35822   7.637  25.942  12.005
64207W        W35823   0.234   8.397   3.203
64208W        W35824  31.133  27.361  12.943
64209W        W35825  34.316  32.636  11.695
64210W        W35826  43.264   3.447  11.260
64211W        W35827   2.449  22.321  14.301
64212W        W35828  35.913  32.835  11.905
64213W        W35829  36.121  31.444  13.270
64214W        W35830  38.948  16.315  13.326
64215W        W35831  38.977  10.600   2.196
64216W        W35832  24.291  42.878  12.091
64217W        W35833  44.697  39.476  12.026
64218W        W35834  11.100  26.087   0.786
64219W        W35835  44.794  24.242  12.281
64220W        W35836  43.678   1.963  13.774
64221W        W35837   6.323   9.346  13.417
64222W        W35838  31.609  20.122  14.844
64223W        W35839  40.789  30.460  11.336
64224W        W35840  38.710  17.771  13.010
64225W        W35841  34.884  28.895   1.842
64226W        W35842   8.264  41.586   1.742
64227W        W35843  42.760  36.657  10.441
64228W        W35844  12.340  13.752   1.332
64229W        W35845   9.128   7.388  14.803
64230W        W35846   0.937  44.277   4.178
64231W        W35847  16.167  16.235  13.014
64232W        W35848  38.589  21.553  11.152
64233W        W35849  16.217   1.019   2.819
64234W        W35850  37.633  41.549  12.120
64235W        W35851  35.890  25.704   3.614
64236W        W35852  40.088  21.793   0.840
64237W        W35853  32.316  11.940  14.776
64238W        W35854  37.425   7.916   4.511
64239W        W35855  42.871  33.784  11.090
64240W        W35856   4.274  33.627   3.194
64241W        W35857  43.989  27.115   1.654
64242W        W35858   3.164  34.863   4.170
64243W        W35859   3.248  11.182   2.872
64244W        W35860  25.008  31.525  10.854
64245W        W35861  28.066  22.006   3.353
64246W        W35862  28.255  13.491   4.632
64247W        W35863   4.416  25.119   0.258
64248W        W35864   3.492  25.199   2.573
64249W        W35865  10.109  14.262   0.823
64250W        W35866  22.740   1.893  12.523
64251W        W35867  23.176  42.647  14.688
64252W        W35868   9.347  40.095   1.671
64253W        W35869  35.337  19.247   1.187
64254W        W35870  15.004  37.597  12.401
64255W        W35871  33.636   1.305   4.781
64256W        W35872  17.078  25.922  11.898
64257W        W35873  43.950  35.757   0.767
64258W        W35874  12.239  17.152   2.017
64259W        W35875  21.602  29.049  12.772
64260W        W35876  26.888  26.373   4.228
64261W        W35877  14.073  41.068  12.457
64262W        W35878  35.945   4.420   2.195
64263W        W35879  12.126   2.876  14.287
64264W        W35880  14.232   5.394  13.345
64265W        W35881  14.772   5.069  11.995
64266W        W35882  44.637  34.838   3.149
64267W        W35883  17.770  32.024  14.289
64268W        W35884  41.279   1.873   0.836
64269W        W35885  27.383  38.799  11.152
64270W        W35886  29.423  26.604  12.112
64271W        W35887  20.068   5.691   1.692
64272W        W35888   5.977  27.591  13.948
64273W        W35889  34.827  35.641  14.220
64274W        W35890  36.005  11.146   2.010
64275W        W35891  15.135  36.786   1.691
64276W        W35892  38.488  31.048  11.646
64277W        W35893   3.376  43.517  12.629
64278W        W35894  24.487  22.964   4.316
64279W        W35895  17.881  34.295  12.968
64280W        W35896   9.628  30.317   4.989
64281W        W35897  35.098  21.853  11.813
64282W        W35898  41.433  10.480  12.794
64283W        W35899  30.676  28.498   1.084
64284W        W35900  29.526  31.615   4.431
64285W        W35901   3.249  40.203   4.595
64286W        W35902  23.975  32.543  13.519
64287W        W35903  40.841   3.221  11.472
64288W        W35904  35.463  22.981  13.204
64289W        W35905   7.983  39.911  11.014
64290W        W35906   5.590  41.216  11.095
64291W        W35907  18.643  32.443  10.284
64292W        W35908  19.787  25.600  10.692
64293W        W35909  26.585   5.776  12.003
64294W        W35910   1.718  44.104  11.179
64295W        W35911  42.796  10.439  12.486
64296W        W35912   4.963   8.604  14.013
64297W        W35913   5.945  34.088   4.186
64298W        W35914   4.623  21.168   0.558
64299W        W35915  24.517  28.628  12.901
64300W        W35916   4.267  36.037  14.994
64301W        W35917  13.306   2.489  10.607
64302W        W35918  40.212   8.733  10.110
64303W        W35919  36.953  25.013  13.630
64304W        W35920  28.365  10.588  13.044
64305W        W35921  24.933  10.096   3.634
64306W        W35922  40.656  32.143   4.046
64307W        W35923   8.240  13.538   0.961
64308W        W35924  36.436   0.460  11.074
64309W        W35925   9.185  27.229   1.350
64310W        W35926   4.506  23.108  13.926
64311W        W35927  21.486  43.872  13.492
64312W        W35928  37.346  34.204   4.221
64313W        W35929  36.092  14.094   3.179
64314W        W35930  43.741  23.504  12.471
64315W        W35931  11.211  39.388  13.962
64316W        W35932  11.813   9.027   2.777
64317W        W35933  37.963  23.738   3.158
64318W        W35934  13.118   1.896  14.074
64319W        W35935  36.185   1.103  13.433
64320W        W35936   1.793  31.568   4.362
64321W        W35937  43.448  26.126   1.876
64322W        W35938  37.364  18.646   2.779
64323W        W35939  28.643  44.803  13.162
64324W        W35940  21.328  28.187  14.279
64325W        W35941  28.901  19.551  14.568
64326W        W35942  27.154   8.010  14.640
64327W        W35943  40.748  28.555  11.232
64328W        W35944  35.034  16.259  13.412
64329W        W35945  32.939   1.722   2.350
64330W        W35946   0.513  35.091  11.028
64331W        W35947   4.757  35.818  14.843
64332W        W35948  28.850  15.396  10.562
64333W        W35949  27.028  42.269  12.461
64334W        W35950  31.969  36.893   1.819
64335W        W35951  16.382  12.488  12.856
64336W        W35952  39.037  44.756  13.370
64337W        W35953  41.586  38.911   2.306
64338W        W35954  18.309  19.511  14.360
64339W        W35955  43.984  29.447   2.640
64340W        W35956  21.243   0.819   2.359
64341W        W35957   4.800  33.614   4.742
64342W        W35958  40.011  28.530   0.471
64343W        W35959   0.611  14.882  12.938
64344W        W35960  14.733  40.549  12.898
64345W        W35961  17.568  13.786  12.868
64346W        W35962  29.924   1.686   2.822
64347W        W35963   6.159  24.243  13.925
64348W        W35964   4.404  21.104  10.089
64349W        W35965  18.022  18.575   3.229
64350W        W35966  18.549  15.319   4.102
64351W        W35967  36.904   4.374   2.426
64352W        W35968  37.786  19.525   3.752
64353W        W35969   4.703  33.076  10.443
64354W        W35970  33.897  24.237   0.814
64355W        W35971  10.669  40.781  13.790
64356W        W35972  25.925  19.871  11.665
64357W        W35973   6.314  20.947  14.287
64358W        W35974  18.472  25.380   3.255
64359W        W35975  11.129  17.777   3.635
64360W        W35976   8.311  38.430  14.357
64361W        W35977   3.770  23.514  10.281
64362W        W35978   6.352  32.783  10.664
64363W        W35979  18.296   8.230  11.194
64364W        W35980   4.899  34.145   4.112
64365W        W35981  15.295   0.739   2.821
64366W        W35982  25.492  16.101  13.906
64367W        W35983   7.286  36.220  12.036
64368W        W35984   4.536  18.755  13.376
64369W        W35985  30.628  40.064   4.641
64370W        W35986   2.870  39.852   4.572
64371W        W35987  33.711  32.537  14.997
64372W        W35988  41.151  24.908  11.863
64373W        W35989   4.625  43.385  14.343
64374W        W35990  10.599   5.218  14.511
64375W        W35991   5.773  13.149  12.385
64376W        W35992  41.479  40.243   1.806
64377W        W35993   2.318  19.731   1.544
64378W        W35994  19.623  10.634  12.842
64379W        W35995  14.580  15.343  12.825
64380W        W35996  19.272  34.924  11.443
64381W        W35997  30.624   1.721  10.693
64382W        W35998  33.128  21.687   0.405
64383W        W35999  29.464  11.227  12.422
64384W        W36000   8.347  36.136   2.348
64385W        W36001  15.737  42.058   3.234
64386W        W36002   0.682   8.684  13.972
64387W        W36003  20.608  35.094  10.734
64388W        W36004  44.159  17.636  13.013
64389W        W36005  38.049  40.239  13.380
64390W        W36006  40.871  28.895   2.963
64391W        W36007  19.622  11.147   0.801
64392W        W36008  44.763   5.383   0.499
64393W        W36009  22.497   3.651   3.289
64394W        W36010  26.267   1.192   0.590
64395W        W36011  42.296  12.155   1.312
64396W        W36012  22.433  40.317   3.618
64397W        W36013   2.937  23.170  10.641
64398W        W36014   4.290  20.279   1.452
64399W        W36015  24.915  38.590   0.893
64400W        W36016  35.514  38.325  10.830
64401W        W36017  36.465  20.646   1.742
64402W        W36018  13.569  19.105   1.212
64403W        W36019  38.867  24.560   4.275
64404W        W36020   1.728  44.887  13.341
64405W        W36021  19.718  29.011   0.007
64406W        W36022   6.406   1.500   0.488
64407W        W36023  25.416  37.450   3.191
64408W        W36024  16.324   3.650  13.303
64409W        W36025   3.745   7.939   0.478
64410W        W36026  39.645   0.397  12.497
64411W        W36027   5.345  25.004   3.106
64412W        W36028   6.194  42.029  13.475
64413W        W36029  23.251   8.959   0.367
64414W        W36030  18.025  23.099  12.904
64415W        W36031  41.369  24.082   0.350
64416W        W36032  27.292  10.925   3.742
64417W        W36033  37.438   9.184   2.892
64418W        W36034   7.781  34.490  14.819
64419W        W36035  14.726   5.168  13.362
64420W        W36036  10.804  27.441  11.707
64421W        W36037   6.770  12.889  12.422
64422W        W36038  19.423  25.064   2.893
64423W        W36039  38.977   0.823  12.637
64424W        W36040  40.071   3.654  12.499
64425W        W36041  16.147  43.349   3.662
64426W        W36042  21.272  29.483  10.428
64427W        W36043  33.206  16.657   4.099
64428W        W36044   6.707  31.450   4.186
64429W        W36045   2.447  29.947  13.498
64430W        W36046  42.634  40.404   2.464
64431W        W36047  25.132  29.913  12.599
64432W        W36048  20.237   7.353  12.997
64433W        W36049   2.994  24.724   5.086
64434W        W36050  40.466  21.399   3.332
64435W        W36051  44.042   3.605  14.511
64436W        W36052   3.717  40.927  13.414
64437W        W36053   0.295  18.149   3.815
64438W        W36054  13.657  22.243  11.355
64439W        W36055  32.110  13.631   4.185
64440W        W36056  12.089   7.701  12.410
64441W        W36057  40.877  11.138  12.731
64442W        W36058  44.679  38.639  13.964
64443W        W36059  21.273   0.351   2.601
64444W        W36060   3.753  11.328   1.772
64445W        W36061  37.272  21.250  12.658
64446W        W36062  30.518   2.936   0.314
64447W        W36063  34.968  36.984  10.736
64448W        W36064   0.047  42.269  10.905
64449W        W36065  28.445  37.308  11.165
64450W        W36066  22.274  33.290   1.378
64451W        W36067  28.280  14.193   0.372
64452W        W36068  26.637  39.297   1.930
64453W        W36069  34.363   6.001  11.630
64454W        W36070  10.181  28.274   4.873
64455W        W36071  41.206  29.545   2.258
64456W        W36072   8.684  23.528   0.761
64457W        W36073  10.715  21.765  13.582
64458W        W36074  30.391   9.641   1.498
64459W        W36075   0.859  29.291   4.977
64460W        W36076  37.185  24.524  14.192
64461W        W36077   5.604   5.145  14.001
64462W        W36078  41.042   5.680   1.426
64463W        W36079  34.445  29.108   0.435
64464W        W36080  37.710   3.179  13.045
64465W        W36081  28.606   5.993  13.056
64466W        W36082   9.712  11.442  13.411
64467W        W36083  40.074  40.283  11.246
64468W        W36084  31.024  11.788  12.082
64469W        W36085  25.663  34.815  14.417
64470W        W36086   5.791  28.732   2.319
64471W        W36087  25.671  20.318  13.507
64472W        W36088   9.390  29.932  14.995
64473W        W36089   7.860  24.453   0.840
64474W        W36090  30.549  12.764   4.519
64475W        W36091   4.231  24.145  12.491
64476W        W36092  25.040  19.472  10.704
64477W        W36093  35.403   0.359   1.823
64478W        W36094  17.479  27.201  13.165
64479W        W36095  14.360  11.711  13.133
64480W        W36096  40.914  15.157  14.192
64481W        W36097  25.988  12.898  12.018
64482W        W36098  17.465  23.869  11.173
64483W        W36099   7.761  17.705  12.415
64484W        W36100  30.095  11.509  14.658
64485W        W36101  26.944   0.391   4.940
64486W        W36102  37.829   5.149  12.948
64487W        W36103  39.803  13.339   4.179
64488W        W36104  41.850  42.573   4.903
64489W        W36105  22.761  20.171   3.675
64490W        W36106   8.642  31.426   0.738
64491W        W36107  15.805  12.381  10.823
64492W        W36108   0.075  14.078  13.926
64493W        W36109  14.978  10.298   2.240
64494W        W36110  18.758   9.206   4.241
64495W        W36111  26.827   0.677  13.368
64496W        W36112  42.634  41.107  10.800
64497W        W36113   2.945  29.930   2.164
64498W        W36114  37.869  23.010  10.586
64499W        W36115  39.513   2.478   3.105
64500W        W36116  27.676  25.071  13.060
64501W        W36117  26.151  35.540  12.099
64502W        W36118   9.813  36.515   3.699
64503W        W36119   4.361  23.262   3.754
64504W        W36120  25.108  37.299  14.409
64505W        W36121  18.185  23.183  13.396
64506W        W36122  31.439  42.008  14.100
64507W        W36123  12.408   6.198   2.293
64508W        W36124  41.513  24.601  11.647
64509W        W36125  33.012  36.412  14.812
64510W        W36126  15.750  33.648   4.886
64511W        W36127  16.784  37.623   0.876
64512W        W36128  12.875  41.582   2.432
64513W        W36129   6.448  41.601  14.857
64514W        W36130   5.338  39.083   1.673
64515W        W36131  29.200  38.499   1.305
64516W        W36132  21.447  17.207   5.157
64517W        W36133   2.754  23.947  12.056
64518W        W36134  35.404  28.519   4.603
64519W        W36135  31.586  36.539   3.286
64520W        W36136  37.587  22.462  14.013
64521W        W36137  36.301   0.247   4.392
64522W        W36138  21.517  16.686   4.602
64523W        W36139  19.352  20.771   0.274
64524W        W36140  17.807  36.609   2.633
64525W        W36141  38.098  27.575  14.397
64526W        W36142   8.119  25.056   1.423
64527W        W36143  20.814  31.189  11.570
64528W        W36144  18.991  24.614   3.635
64529W        W36145  39.203  24.984  14.256
64530W        W36146  31.554  19.279   1.941
64531W        W36147  18.006  40.000   0.265
64532W        W36148  40.329  40.340   3.367
64533W        W36149  40.594  12.154  14.976
64534W        W36150  20.137  27.363   3.646
64535W        W36151  32.160  43.363   0.164
64536W        W36152  29.966  27.527  12.813
64537W        W36153  15.787  16.773  13.919
64538W        W36154  41.633  20.829   3.878
64539W        W36155  41.037  26.994   3.321
64540W        W36156   5.994  32.947   1.295
64541W        W36157  34.547  28.181   3.615
64542W        W36158  37.350  23.860   1.548
64543W        W36159  23.786  28.079   2.427
64544W        W36160  36.305  33.395  10.781
64545W        W36161  38.409  36.419   3.563
64546W        W36162  25.051  18.218   1.893
64547W        W36163  15.600   9.405   0.640
64548W        W36164  11.464   3.879  11.672
64549W        W36165  37.531   3.724   4.625
64550W        W36166  31.410  19.557  14.498
64551W        W36167  36.072   1.789   4.838
64552W        W36168  31.158  32.104  11.566
64553W        W36169  26.114  32.419  11.140
64554W        W36170  44.235  26.790   4.130
64555W        W36171   9.336  26.068   1.449
64556W        W36172   8.088  11.016   3.372
64557W        W36173   8.188  17.595  13.279
64558W        W36174  22.527   4.530  12.927
64559W        W36175  41.095  15.644  14.270
64560W        W36176  25.726  24.471   3.191
64561W        W36177   7.881  23.753  13.807
64562W        W36178  16.975  25.679  14.161
64563W        W36179   5.340  17.676   3.830
64564W        W36180   8.023  33.939  12.696
64565W        W36181   3.359  22.963  10.941
64566W        W36182   7.577   8.915  14.822
64567W        W36183  28.117  34.823   2.731
64568W        W36184  34.072  38.905  11.036
64569W        W36185   4.747  16.021   5.187
64570W        W36186  31.596  16.843  14.038
64571W        W36187  23.140  28.981   3.393
64572W        W36188  17.093   3.910   4.651
64573W        W36189  12.946   1.833   4.378
64574W        W36190  19.568  40.369  14.790
64575W        W36191  15.769  32.319  13.101
64576W        W36192  41.820  39.805  12.909
64577W        W36193   6.509   3.511  10.887
64578W        W36194  26.293  39.591   2.803
64579W        W36195  41.366  16.587  11.841
64580W        W36196  22.918  21.691   3.753
64581W        W36197  14.336  33.747  12.125
64582W        W36198  38.394  40.616   2.579
64583W        W36199  35.358   9.765   0.349
64584W        W36200  14.861   4.609   3.693
64585W        W36201  38.775  28.420   3.525
64586W        W36202  26.004  40.300   3.284
64587W        W36203  16.717  11.959   0.726
64588W        W36204  34.733  21.648  12.087
64589W        W36205   8.647  17.554  14.552
64590W        W36206  28.524  40.458   4.636
64591W        W36207  38.570  43.808  10.694
64592W        W36208  15.586  29.663   1.791
64593W        W36209  20.303  10.730   3.378
64594W        W36210  40.333  11.683   0.234
64595W        W36211  19.984  24.745   1.738
64596W        W36212  30.369  34.471   2.189
64597W        W36213   3.039  43.195   2.419
64598W        W36214  12.867  21.064   1.240
64599W        W36215  26.113  31.958   4.099
64600W        W36216  23.906  11.578  14.946
64601W        W36217   4.438  37.594   4.139
64602W        W36218  32.179   2.756  12.058
64603W        W36219  11.855   7.182  14.956
64604W        W36220  15.857  27.427  14.781
64605W        W36221  32.418  36.957   4.614
64606W        W36222  14.071  32.949   3.291
64607W        W36223  41.345  34.348  11.201
64608W        W36224  21.085  11.051   2.234
64609W        W36225  32.937  36.888   1.682
64610W        W36226  17.730  36.911  14.356
64611W        W36227  10.121  17.718   1.848
64612W        W36228   6.448   4.193   3.171
64613W        W36229   1.441  28.874  13.035
64614W        W36230  12.333  24.894   0.839
64615W        W36231  37.680  31.579   1.174
64616W        W36232  28.261   4.986   2.756
64617W        W36233  11.087  35.310   3.547
64618W        W36234   5.622  40.272   0.297
64619W        W36235  27.440  12.211   0.947
64620W        W36236  31.632  30.405   3.765
64621W        W36237  35.372  21.013  10.311
64622W        W36238   4.260  23.319   1.857
64623W        W36239  26.620   0.034  11.507
64624W        W36240  43.789  12.233   1.270
64625W        W36241  14.486  26.464  12.840
64626W        W36242  41.281   6.677   0.386
64627W        W36243  30.531  44.802  13.940
64628W        W36244  40.811  44.492  10.669
64629W        W36245  34.126  25.588   1.445
64630W        W36246  18.675   9.304  13.104
64631W        W36247   2.155  12.761   4.000
64632W        W36248  21.471  28.113   1.633
64633W        W36249  35.601   5.357  13.072
64634W        W36250  24.007  39.390  14.844
64635W        W36251   5.920   1.414  13.333
64636W        W36252  13.057  17.145   2.892
64637W        W36253  40.384  24.130  13.286
64638W        W36254   1.570   8.474   3.261
64639W        W36255  34.611  11.141   0.320
64640W        W36256  32.787  43.344   1.173
64641W        W36257  13.001  40.344  14.556
64642W        W36258   2.338  39.515  10.684
64643W        W36259   2.432  19.281  12.435
64644W        W36260  43.728   8.147   0.209
64645W        W36261  13.611  26.079   3.388
64646W        W36262  21.515  18.175  13.967
64647W        W36263   3.210  10.502   4.182
64648W        W36264  42.298   5.759  14.873
64649W        W36265   0.717  31.466   0.760
64650W        W36266  16.238   9.027  11.479
64651W        W36267  11.358  37.127   1.259
64652W        W36268  34.456   4.828  10.384
64653W        W36269  38.261  31.057   3.832
64654W        W36270  12.181   9.363  14.004
64655W        W36271  33.939  10.743   2.376
64656W        W36272  33.862   8.233   1.792
64657W        W36273  17.121  32.984  14.980
64658W        W36274  24.107  31.098   3.225
64659W        W36275  44.353  29.404  10.683
64660W        W36276   5.279  11.223  14.406
64661W        W36277  40.156  14.414   4.133
64662W        W36278  22.567   0.103   0.990
64663W        W36279  37.229   7.061   0.342
64664W        W36280  39.759  40.764  12.908
64665W        W36281  41.190  44.481  13.600
64666W        W36282   2.487  16.718   4.365
64667W        W36283  25.432  11.377   1.178
64668W        W36284  20.583  26.776  11.379
64669W        W36285   8.770  42.885  10.698
64670W        W36286   8.102   6.167  10.762
64671W        W36287  22.292   7.574   1.831
64672W        W36288  22.737   5.953  11.171
64673W        W36289  14.277  41.002   3.664
64674W        W36290  20.646  13.098   2.620
64675W        W36291  11.606  38.430  12.141
64676W        W36292  25.404   0.570   0.694
64677W        W36293  36.093  11.899  13.893
64678W        W36294   1.375   3.820  11.548
64679W        W36295  29.060  23.182   1.215
64680W        W36296  30.538  28.189  11.433
64681W        W36297  28.394  33.534   4.627
64682W        W36298   9.232  24.005   3.820
64683W        W36299  15.742   0.933   2.656
64684W        W36300  11.320  10.958  11.661
64685W        W36301  28.502   4.936  13.910
64686W        W36302  41.706  22.362  14.805
64687W        W36303  18.003  33.011   1.417
64688W        W36304   5.777  41.752  10.423
64689W        W36305  33.436  31.425  14.386
64690W        W36306  20.602  19.280  13.969
64691W        W36307  43.390  40.910   2.706
64692W        W36308  28.709  43.803  10.768
64693W        W36309  24.066   3.801   2.242
64694W        W36310   4.882  11.346   4.517
64695W        W36311   0.645  42.954  11.143
64696W        W36312  11.249  32.558   2.916
64697W        W36313  26.087  10.042  11.575
64698W        W36314  34.156  40.999  13.364
64699W        W36315   6.913  30.948   4.070
64700W        W36316  29.664   2.205  14.862
64701W        W36317  22.841  30.979  14.232
64702W        W36318  38.413  36.880  10.562
64703W        W36319  22.512  20.664   3.673
64704W        W36320   7.252  26.492   1.684
64705W        W36321  10.204   0.886   0.979
64706W        W36322  39.358   8.468   0.523
64707W        W36323  32.337  10.385   0.833
64708W        W36324  15.285   4.409   2.459
64709W        W36325  14.687  16.842   3.327
64710W        W36326  22.927  23.138  11.648
64711W        W36327  25.171   2.031   0.768
64712W        W36328   1.476  25.690   1.866
64713W        W36329  34.587  43.198  11.144
64714W        W36330  33.807  30.931  12.438
64715W        W36331  27.678  39.415  10.992
64716W        W36332  34.383   7.002   0.400
64717W        W36333  24.277  16.223   0.257
64718W        W36334  10.370   9.662  12.472
64719W        W36335  17.724  24.595  12.648
64720W        W36336  17.307  15.413   3.616
64721W        W36337  21.061  44.550   2.864
64722W        W36338  40.107   6.452   3.546
64723W        W36339  20.423  25.559   3.161
64724W        W36340  29.922  36.032  12.039
64725W        W36341  11.191  34.931   1.865
64726W        W36342  41.619  31.992   0.728
64727W        W36343  39.064  28.604   0.330
64728W        W36344  19.145  41.503  11.403
64729W        W36345  15.738  21.457  14.954
64730W        W36346  26.112   3.898  11.285
64731W        W36347   3.552   8.633   4.101
64732W        W36348   6.013   2.479   2.183
64733W        W36349  31.168  29.442   1.423
64734W        W36350  31.515  22.662  12.032
64735W        W36351   8.975  44.445  11.556
64736W        W36352  19.495  27.787   0.969
64737W        W36353  36.552   8.622  13.908
64738W        W36354  20.808   9.723   3.448
64739W        W36355  38.972  34.848   1.366
64740W        W36356   6.651  34.534   1.485
64741W        W36357  32.043  34.865  11.038
64742W        W36358  24.488  28.707   2.888
64743W        W36359  23.544  15.422  11.166
64744W        W36360  37.007  25.625  11.516
64745W        W36361   4.816  21.759  11.217
64746W        W36362  18.283   7.784  10.637
64747W        W36363  16.421  37.012   3.631
64748W        W36364  25.608  26.204   4.253
64749W        W36365  29.295  34.933  13.407
64750W        W36366   9.118  19.828  14.338
64751W        W36367  30.676  22.611  12.049
64752W        W36368  27.070  26.677  14.691
64753W        W36369  34.054  21.482  14.396
64754W        W36370  22.983  35.773   3.220
64755W        W36371   1.277   5.401  11.883
64756W        W36372  39.992  26.442  10.748
64757W        W36373  14.796  41.436  13.606
64758W        W36374  41.634  39.799  14.909
64759W        W36375  21.300  13.687  14.825
64760W        W36376  42.893   7.789   4.126
64761W        W36377  29.628   9.080   2.044
64762W        W36378  33.394  34.670   1.745
64763W        W36379  20.123  19.030  13.029
64764W        W36380  21.190  11.408  12.443
64765W        W36381  28.214  32.004   2.586
64766W        W36382  26.935  31.887  14.550
64767W        W36383  34.910  23.196  10.994
64768W        W36384  41.518  16.735   3.798
64769W        W36385   1.771   4.821   2.395
64770W        W36386  21.221  32.993   2.600
64771W        W36387  40.821  29.747  10.732
64772W        W36388  33.727  43.545   2.205
64773W        W36389  18.520   9.280  11.757
64774W        W36390   8.599  38.334   0.272
64775W        W36391  15.307   8.288   3.736
64776W        W36392  27.583  43.502   3.050
64777W        W36393  13.040  39.072  10.222
64778W        W36394  23.983  11.378   3.213
64779W        W36395  44.861   9.667  10.445
64780W        W36396  18.075   4.219  14.192
64781W        W36397   4.397   5.038  14.100
64782W        W36398  44.936  42.268  11.419
64783W        W36399  31.676  34.135   4.647
64784W        W36400  34.099  24.062  12.414
64785W        W36401  28.999  14.244   0.934
64786W        W36402  20.196  37.840   0.866
64787W        W36403   4.322   4.382   4.978
64788W        W36404  27.947  43.577   4.284
64789W        W36405  36.104  28.123  14.556
64790W        W36406   9.582  19.722   3.287
64791W        W36407  19.152  15.856   2.357
64792W        W36408   1.391   1.289   4.070
64793W        W36409   4.332  40.232  12.067
64794W        W36410  29.188   5.788  10.813
64795W        W36411  15.300  16.765   0.779
64796W        W36412  24.710   9.928  13.772
64797W        W36413  24.971   4.142   3.830
64798W        W36414  14.190  21.100   3.764
64799W        W36415  40.923  20.030  12.092
64800W        W36416  28.607  13.681  11.639
64801W        W36417  18.044  30.428   2.222
64802W        W36418  19.535  44.456   3.584
64803W        W36419  42.727  32.591  13.452
64804W        W36420  16.629  43.058  10.709
64805W        W36421  38.400  37.361   4.462
64806W        W36422   3.203  21.644  12.009
64807W        W36423  19.116  11.691  12.388
64808W        W36424  41.560  12.675   0.813
64809W        W36425  32.410  12.255   3.652
64810W        W36426  20.102  25.635   0.337
64811W        W36427   1.773  24.753  14.095
64812W        W36428  10.727  23.032   4.653
64813W        W36429  29.418  23.282  11.447
64814W        W36430  40.940  34.652  11.418
64815W        W36431  42.480   8.532  13.335
64816W        W36432  15.093  16.664  11.486
64817W        W36433   7.534  16.100   4.896
64818W        W36434  12.733  40.688   4.112
64819W        W36435   3.842   6.196   4.410
64820W        W36436   1.893   6.665   2.257
64821W        W36437  32.119  24.211   5.002
64822W        W36438  28.532  20.754   0.344
64823W        W36439  18.222  10.900  12.100
64824W        W36440  22.936  26.259  13.391
64825W        W36441  16.799  28.715   2.369
64826W        W36442  10.242   0.825   2.391
64827W        W36443  44.527  23.574  11.424
64828W        W36444  39.566  21.514  12.046
64829W        W36445   8.766   4.928   5.274
64830W        W36446  24.046  37.366  13.029
64831W        W36447  34.233  27.045  12.912
64832W        W36448  41.960  25.631  11.165
64833W        W36449   8.071  31.035  13.427
64834W        W36450  30.125   7.147  14.058
64835W        W36451  39.789   2.098   3.306
64836W        W36452  30.357  28.273   3.592
64837W        W36453   7.306   5.381   3.662
64838W        W36454  17.207  33.396   3.322
64839W        W36455  19.591  27.468  14.771
64840W        W36456  38.549  37.468  13.898
64841W        W36457  11.706  38.261   4.413
64842W        W36458  26.008  34.651  10.917
64843W        W36459  14.854  44.454   1.471
64844W        W36460  43.983  13.363  10.952
64845W        W36461  25.920   8.917  12.276
64846W        W36462  13.828  13.753   4.913
64847W        W36463  30.475  29.613  14.630
64848W        W36464  12.695   8.393   0.784
64849W        W36465  14.008  18.788   4.634
64850W        W36466  27.940  11.331   9.753
64851W        W36467   8.276  14.394  14.897
64852W        W36468   2.738  21.568  11.133
64853W        W36469  23.137  17.190   2.738
64854W        W36470  44.278  29.497   0.015
64855W        W36471  29.671  41.010   3.843
64856W        W36472  18.706  14.641   1.306
64857W        W36473   1.077  14.193   3.286
64858W        W36474  15.303  43.365  10.882
64859W        W36475  40.770  17.090   2.804
64860W        W36476  41.880  27.408   1.865
64861W        W36477  40.602  37.354  11.119
64862W        W36478  14.649   3.026   4.627
64863W        W36479  35.081  27.910   4.684
64864W        W36480  28.439  14.381  11.955
64865W        W36481  40.544  23.330  14.512
64866W        W36482   3.472   1.032   5.204
64867W        W36483  43.992  39.404  13.909
64868W        W36484   2.353  36.635  11.630
64869W        W36485  43.316  35.894  10.498
64870W        W36486   1.940  16.656   2.902
64871W        W36487  35.933  22.604  13.258
64872W        W36488   5.471  39.410   4.382
64873W        W36489  42.944  21.086   1.607
64874W        W36490  21.621  24.892  14.481
64875W        W36491  39.495  19.554  12.213
64876W        W36492   4.906  20.356   2.398
64877W        W36493  14.789  19.953   2.722
64878W        W36494  28.724  28.429   2.728
64879W        W36495  17.023  22.186  12.854
64880W        W36496   2.838   1.149  13.308
64881W        W36497  30.187  19.997  12.107
64882W        W36498  28.437  40.652   1.837
64883W        W36499  28.136   2.562  12.087
64884W        W36500  17.712  35.077  13.380
64885W        W36501   4.865  34.176  12.530
64886W        W36502  31.675  14.960   4.134
64887W        W36503  41.988   0.660  12.482
64888W        W36504  31.654  20.966  13.331
64889W        W36505  22.234  20.058  13.453
64890W        W36506  30.605   2.254   3.300
64891W        W36507  37.388  22.182  13.313
64892W        W36508  44.695   7.327  14.690
64893W        W36509  38.562  25.625  14.894
64894W        W36510  43.352   8.253  12.951
64895W        W36511  18.503   3.786  13.950
64896W        W36512  20.998  14.114  14.497
64897W        W36513   7.774  12.361  14.493
64898W        W36514   1.118  24.368   9.725
64899W        W36515  36.322  38.235   4.159
64900W        W36516   3.837  37.376   2.456
64901W        W36517  19.704  18.742  13.070
64902W        W36518  44.808  29.717  11.761
64903W        W36519  19.732  42.330   1.490
64904W        W36520  27.848  12.861   4.933
64905W        W36521  15.181   3.969   5.478
64906W        W36522   2.328   0.026   1.697
64907W        W36523  21.470  13.306  10.690
64908W        W36524  29.206  24.627  11.094
64909W        W36525  39.753   5.617  12.513
64910W        W36526  36.888   7.949   1.925
64911W        W36527  43.795  35.455   2.368
64912W        W36528  16.798  12.381   3.995
64913W        W36529  36.870  12.740   5.481
64914W        W36530   3.361  32.011   2.354
64915W        W36531  30.310  16.818   1.233
64916W        W36532   2.396  17.218   2.365
64917W        W36533  29.111  39.868   2.118
64918W        W36534  20.876  24.721  13.318
64919W        W36535   9.435   6.364   0.376
64920W        W36536  24.588  37.441   4.740
64921W        W36537  41.824  15.329  12.005
64922W        W36538  21.188  16.250   4.631
64923W        W36539  29.910   6.393  12.542
64924W        W36540  10.886  34.049  12.954
64925W        W36541   9.592  27.999  13.631
64926W        W36542  22.063  12.763   0.455
64927W        W36543  16.038   7.257   3.333
64928W        W36544  29.122  27.509  13.798
64929W        W36545   7.413  18.301  14.832
64930W        W36546  20.162  37.870  10.596
64931W        W36547   8.430  28.612   3.567
64932W        W36548  18.690  29.523  12.214
64933W        W36549  26.162  18.285  11.622
64934W        W36550  20.276  24.096  13.082
64935W        W36551  26.652   0.743   0.219
64936W        W36552  21.187  44.821   2.394
64937W        W36553  28.610  29.204  12.868
64938W        W36554  33.006  37.913   1.755
64939W        W36555   8.932  44.487   2.314
64940W        W36556  30.560  11.825   3.258
64941W        W36557  39.377   1.711   4.524
64942W        W36558  34.404   4.505  11.316
64943W        W36559  17.258  42.451  10.383
64944W        W36560  30.588   1.189  14.886
64945W        W36561  31.213  23.610   3.768
64946W        W36562  30.698   5.226  12.395
64947W        W36563  28.190  21.353  11.603
64948W        W36564   6.598  40.502   1.277
64949W        W36565  37.837  23.734  11.733
64950W        W36566  20.466  43.995   1.646
64951W        W36567  17.675  24.449   1.405
64952W        W36568  24.698   2.836  10.722
64953W        W36569  38.566  11.699   1.838
64954W        W36570  26.553  18.907  12.066
64955W        W36571   0.705  27.145   4.306
64956W        W36572  38.874  42.317  13.332
64957W        W36573  30.954   0.704  12.053
64958W        W36574   0.427  11.981   2.299
64959W        W36575  36.335   6.189   1.823
64960W        W36576   2.183   0.945  14.810
64961W        W36577  17.164  15.669  12.901
64962W        W36578  11.631  39.068   3.228
64963W        W36579  10.949  40.021  14.305
64964W        W36580  29.985  17.242   0.427
64965W        W36581  17.031  36.746   0.910
64966W        W36582  36.938  34.331   4.624
64967W        W36583  29.971  42.302   1.517
64968W        W36584  42.323  36.347  13.374
64969W        W36585  28.683  11.371   2.722
64970W        W36586  15.698  37.452  13.910
64971W        W36587  25.790  27.960   0.238
64972W        W36588  23.721  14.844   4.555
64973W        W36589  37.564  41.137   0.902
64974W        W36590  13.827  44.058  11.531
64975W        W36591   0.541  27.223   1.852
64976W        W36592  20.038  36.514   4.048
64977W        W36593  28.876   5.265   4.233
64978W        W36594  39.295   8.839   0.966
64979W        W36595  33.838  35.608  14.589
64980W        W36596  40.580   4.665  14.098
64981W        W36597  35.023  30.556  12.132
64982W        W36598  13.210  33.411  13.464
64983W        W36599  31.245   9.679  11.588
64984W        W36600   0.245  36.958  14.946
64985W        W36601  30.439  27.664  14.435
64986W        W36602  28.564   8.760   2.142
64987W        W36603  11.735   2.284  11.613
64988W        W36604  35.133  40.934  13.270
64989W        W36605  44.296   6.825   4.487
64990W        W36606   3.539  36.509   1.643
64991W        W36607   1.866  36.704  11.196
64992W        W36608  32.185   6.503   3.158
64993W        W36609  17.099   4.286   2.877
64994W        W36610  41.096  28.956   1.698
64995W        W36611  28.344  13.218  10.746
64996W        W36612  32.075  16.887  14.326
64997W        W36613  30.616  10.898  11.647
64998W        W36614  39.226  21.961  12.483
64999W        W36615  39.531  11.762   1.718
65000W        W36616   0.021  26.048   0.942
65001W        W36617  29.590  39.557  14.412
65002W        W36618   5.426  27.157   2.853
65003W        W36619  37.053  20.974   0.742
65004W        W36620  41.086  31.447   1.732
65005W        W36621   9.619  22.476  11.535
65006W        W36622  15.010  38.927   4.781
65007W        W36623  32.396  44.793  14.062
65008W        W36624  31.573   6.052  12.594
65009W        W36625   0.167  25.045   4.076
65010W        W36626  16.833  43.552   1.894
65011W        W36627  44.626  42.697   2.188
65012W        W36628  31.894  10.655   2.329
65013W        W36629  31.425  43.515  11.082
65014W        W36630  21.741   6.000   2.860
65015W        W36631  36.440  24.061   4.369
65016W        W36632  40.491  18.918   2.265
65017W        W36633   9.438  26.221  11.486
65018W        W36634  39.465  33.174  12.641
65019W        W36635  44.374  29.907   2.312
65020W        W36636  42.590  32.468  12.553
65021W        W36637  35.486  40.119  13.922
65022W        W36638  39.357  31.427  11.117
65023W        W36639  14.458   9.649   0.345
65024W        W36640   8.046   7.270   0.869
65025W        W36641  10.226   2.301   3.575
65026W        W36642  15.060  34.528   4.251
65027W        W36643  28.420  19.701   1.863
65028W        W36644  28.517  43.428   2.438
65029W        W36645  32.471  14.514   4.799
65030W        W36646  13.138  24.018   1.498
65031W        W36647   1.965   8.885  14.702
65032W        W36648   1.951  23.054  14.321
65033W        W36649  32.284  22.052   0.652
65034W        W36650  44.376  11.160   3.269
65035W        W36651  36.489  42.607  10.689
65036W        W36652  11.270   6.235  14.497
65037W        W36653  23.597   9.826  12.632
65038W        W36654  40.157   0.398  12.506
65039W        W36655   9.568  21.536   4.254
65040W        W36656  27.820  21.235   0.901
65041W        W36657  35.772  21.553  13.300
65042W        W36658  29.576  31.897   2.044
65043W        W36659   1.744  38.489   1.796
65044W        W36660  21.128  12.117  11.157
65045W        W36661  25.605  30.709   0.274
65046W        W36662  43.831  20.418  14.284
65047W        W36663  14.737   1.897   5.354
65048W        W36664  18.311  18.281   2.309
65049W        W36665  11.070   9.200   3.089
65050W        W36666  25.033  28.114   1.808
65051W        W36667  38.782  29.167  14.466
65052W        W36668  25.263  10.579  14.345
65053W        W36669  32.585  44.080   4.696
65054W        W36670  15.657  34.830   3.145
65055W        W36671  25.601  23.599  14.304
65056W        W36672  24.207   5.559   3.810
65057W        W36673  37.807  25.019   0.081
65058W        W36674   0.057  18.600   1.089
65059W        W36675   2.752  25.756  11.975
65060W        W36676   8.937  25.788   2.219
65061W        W36677  18.343   4.235  13.711
65062W        W36678   6.452   3.825  12.455
65063W        W36679   3.085  15.179   4.250
65064W        W36680  32.565  35.098   0.898
65065W        W36681  23.183  42.548   1.272
65066W        W36682   7.765  37.208  14.690
65067W        W36683  11.741  18.616  14.574
65068W        W36684  43.391  27.317  12.353
65069W        W36685  40.617  16.397   1.525
65070W        W36686   8.936  34.113   4.222
65071W        W36687   8.136  21.248  14.573
65072W        W36688   3.397   8.381  10.694
65073W        W36689  19.061   4.782   3.863
65074W        W36690  12.223   9.409   4.911
65075W        W36691  22.241   2.480   3.138
65076W        W36692  26.345  17.990   0.505
65077W        W36693  30.554   1.339   1.425
65078W        W36694  26.849   6.414  12.839
65079W        W36695  43.437  11.614  10.650
65080W        W36696   5.769   0.053   1.875
65081W        W36697  32.213  19.360   0.004
65082W        W36698  41.440   3.882  12.354
65083W        W36699  36.503  19.231  11.437
65084W        W36700   1.570  31.611  10.623
65085W        W36701  44.526  28.965  12.136
65086W        W36702  24.751  31.416   2.333
65087W        W36703   6.009  28.018  13.318
65088W        W36704  23.003  37.840   4.944
65089W        W36705   1.887  43.789  10.685
65090W        W36706  21.160  38.023   0.044
65091W        W36707  29.016  23.684   1.343
65092W        W36708  31.865  20.796   0.376
65093W        W36709  38.832  43.910  14.482
65094W        W36710  21.490   8.393  14.582
65095W        W36711  18.218  24.658  12.429
65096W        W36712  11.116  26.465   2.928
65097W        W36713  37.546  41.218  10.777
65098W        W36714  40.910   7.866   1.028
65099W        W36715  12.289  18.686   0.892
65100W        W36716  17.045  27.018   4.339
65101W        W36717   2.709  20.677  11.047
65102W        W36718  41.480  38.956  14.673
65103W        W36719   5.335  28.106   1.387
65104W        W36720   3.794   0.233  10.645
65105W        W36721  26.512  28.103   1.662
65106W        W36722  15.022  29.008  12.130
65107W        W36723  36.406  43.326  13.061
65108W        W36724  13.181   4.733   3.269
65109W        W36725  27.728  11.309   0.412
65110W        W36726  42.824  31.732   3.692
65111W        W36727  18.130  43.980   1.471
65112W        W36728  21.499  13.216  12.455
65113W        W36729  25.731  35.586   1.310
65114W        W36730   3.548  19.223   2.841
65115W        W36731  10.110  40.905  11.110
65116W        W36732  16.160  19.507  12.949
65117W        W36733  40.141  12.017   5.100
65118W        W36734   8.247  25.044   3.598
65119W        W36735   8.101  37.056   1.343
65120W        W36736  23.591  18.604  11.655
65121W        W36737  24.613  14.041  14.001
65122W        W36738  22.323  27.074  11.043
65123W        W36739  14.867  37.846   3.778
65124W        W36740  19.417  42.979   0.279
65125W        W36741  42.779  24.085  12.988
65126W        W36742   1.458   5.019   3.743
65127W        W36743  14.114  12.151  10.576
65128W        W36744  18.021  42.475   2.690
65129W        W36745  42.890   1.495  12.847
65130W        W36746  39.158  32.295   4.105
65131W        W36747  36.043  11.792  11.588
65132W        W36748   0.209  26.010   3.307
65133W        W36749  20.050   1.786   3.264
65134W        W36750  13.378  15.274   2.820
65135W        W36751  27.044  33.459   2.384
65136W        W36752  34.899  31.665  14.856
65137W        W36753  21.589  12.250  12.344
65138W        W36754  27.706   8.751  14.699
65139W        W36755  10.328  13.251  10.722
65140W        W36756  34.105  34.435   3.598
65141W        W36757  19.046  24.575  14.863
65142W        W36758   6.700  25.921   4.618
65143W        W36759  24.479  10.074   3.319
65144W        W36760  34.355  11.082   4.045
65145W        W36761  35.628   6.248   2.418
65146W        W36762   6.763  33.888  12.000
65147W        W36763  17.894  23.475   2.696
65148W        W36764  15.388   9.697  12.706
65149W        W36765   5.723  31.548   4.402
65150W        W36766  18.877  25.328  12.451
65151W        W36767  15.394  13.351   2.441
65152W        W36768  14.323   7.221  11.574
65153W        W36769  24.382  35.932  12.136
65154W        W36770  29.501  32.182  14.308
65155W        W36771  38.333  19.453   3.807
65156W        W36772  26.924  16.653   2.216
65157W        W36773  22.742  35.922  10.240
65158W        W36774  38.253  39.773  12.262
65159W        W36775  30.275  30.169  12.812
65160W        W36776  31.417   4.750   1.240
65161W        W36777   3.309  16.440   3.768
65162W        W36778  31.010   7.586  11.890
65163W        W36779   5.146  27.676   0.307
65164W        W36780  14.566  26.392   2.419
65165W        W36781  24.619  24.572   2.806
65166W        W36782   3.079  11.280  12.708
65167W        W36783   6.933  39.802   4.613
65168W        W36784  37.253  26.256   0.875
65169W        W36785  22.869   0.346   2.298
65170W        W36786  44.876  28.156   2.174
65171W        W36787  40.270   5.773  12.445
65172W        W36788  11.160  24.437   1.890
65173W        W36789   2.048  20.103  12.098
65174W        W36790  11.860   2.328   0.809
65175W        W36791   5.352  22.181   2.724
65176W        W36792  31.422  29.761  14.951
65177W        W36793  29.949  29.977   2.489
65178W        W36794  21.206   8.337   3.917
65179W        W36795  35.547  38.877  11.615
65180W        W36796  43.994  11.880   0.678
65181W        W36797  44.709  38.811  12.573
65182W        W36798  43.899   2.747   4.305
65183W        W36799  18.328  36.135   0.919
65184W        W36800  29.025  26.792  13.104
65185W        W36801  37.683  20.577   4.297
65186W        W36802  41.388   9.039  12.459
65187W        W36803  26.082  10.920   2.815
65188W        W36804  39.843  37.187   4.667
65189W        W36805   3.778  34.895  10.690
65190W        W36806  14.020  16.217  13.393
65191W        W36807  42.457  16.016  13.487
65192W        W36808   2.364  30.902   4.337
65193W        W36809  41.401   8.333  12.983
65194W        W36810  29.491  14.744   1.306
65195W        W36811   8.200  37.447  14.892
65196W        W36812  35.165  20.202  11.224
65197W        W36813  39.388  26.000  12.304
65198W        W36814  40.353  42.812   1.865
65199W        W36815  32.655  13.253   4.602
65200W        W36816  28.968  31.082  14.542
65201W        W36817  34.532  19.552   3.152
65202W        W36818  10.669  30.872  10.971
65203W        W36819  31.822  37.470   1.142
65204W        W36820   0.288  24.015   0.585
65205W        W36821   4.374   9.714  12.576
65206W        W36822  22.964  29.003  14.769
65207W        W36823  10.782  23.574   4.033
65208W        W36824  35.020  30.107   3.268
65209W        W36825   2.699  23.415  12.013
65210W        W36826  27.796  41.463   4.542
65211W        W36827  12.863  18.157   3.354
65212W        W36828  28.864  22.611  13.387
65213W        W36829  41.951  18.988   3.878
65214W        W36830   6.898  40.484   0.164
65215W        W36831  22.167  34.108   4.634
65216W        W36832  18.752  11.612   4.078
65217W        W36833   4.812  32.390  12.106
65218W        W36834  29.500  43.981  11.869
65219W        W36835   0.458  41.302  13.791
65220W        W36836   0.409  17.090  13.132
65221W        W36837  38.392  32.160   0.814
65222W        W36838  31.675  28.886   2.211
65223W        W36839  11.662  15.630   4.612
65224W        W36840  11.206  43.458   3.923
65225W        W36841  38.683   8.893  10.714
65226W        W36842  29.645   4.713   3.387
65227W        W36843  11.407   6.357   1.336
65228W        W36844  29.702   0.708  11.092
65229W        W36845  44.753   3.792   1.148
65230W        W36846  10.239  20.015   2.312
65231W        W36847  32.011  27.187  11.677
65232W        W36848  10.279  34.892   3.393
65233W        W36849   0.256  26.255   1.402
65234W        W36850  43.273  14.870   2.220
65235W        W36851  10.685  24.099  10.773
65236W        W36852   9.340  25.913  14.344
65237W        W36853  13.129   2.130   2.241
65238W        W36854   0.816  25.755   0.471
65239W        W36855  39.988  16.278  11.494
65240W        W36856  25.538  17.656  11.413
65241W        W36857  31.043  28.885  11.166
65242W        W36858  34.563  30.205  11.582
65243W        W36859  23.728  17.715   2.242
65244W        W36860   4.944  18.785  10.314
65245W        W36861  30.999  43.809  11.989
65246W        W36862  26.552  27.436   3.203
65247W        W36863  44.131  24.656   4.193
65248W        W36864  41.546  17.003  12.567
65249W        W36865  16.086  17.050  10.277
65250W        W36866  16.322   9.524  11.568
65251W        W36867  16.179  21.690   0.203
65252W        W36868  27.297  17.431   5.050
65253W        W36869   3.292   0.576  12.007
65254W        W36870  37.890  35.925  10.724
65255W        W36871  38.272   4.162   3.581
65256W        W36872  10.635  12.780  12.595
65257W        W36873  20.464  23.077  14.430
65258W        W36874  24.931  17.911   4.298
65259W        W36875  23.542   3.441   2.193
65260W        W36876  33.138   0.267  12.110
65261W        W36877  42.341  11.897   0.789
65262W        W36878  43.036   2.600   1.032
65263W        W36879  13.678  30.912   2.660
65264W        W36880  24.043   1.453   4.998
65265W        W36881  40.493  16.000   1.228
65266W        W36882   9.658   6.801   0.195
65267W        W36883  21.730   0.308   2.825
65268W        W36884  34.375  15.441   0.228
65269W        W36885  44.818   6.443   1.924
65270W        W36886  11.920  27.273   0.693
65271W        W36887  11.882   3.485  14.411
65272W        W36888  36.927  41.263  14.053
65273W        W36889   0.867  30.999  14.767
65274W        W36890   3.455  29.472  12.003
65275W        W36891  23.806  18.066   1.399
65276W        W36892  31.537  23.480  12.406
65277W        W36893  17.805  19.677  14.042
65278W        W36894  27.487  33.308  11.855
65279W        W36895   8.653   6.688  11.508
65280W        W36896  34.054  39.668  13.065
65281W        W36897  12.449   1.477  11.501
65282W        W36898   3.941  10.835   2.740
65283W        W36899   3.917  35.039   3.705
65284W        W36900  17.677  19.570  12.287
65285W        W36901  39.015  22.674  13.914
65286W        W36902  23.640  20.027   1.929
65287W        W36903  36.000  43.786  11.960
65288W        W36904  12.652  18.503   1.830
65289W        W36905  10.921   1.749   0.435
65290W        W36906   1.345  32.213   0.901
65291W        W36907   4.747  37.379  12.976
65292W        W36908  20.860  43.319  14.306
65293W        W36909  33.687  24.008   1.267
65294W        W36910  42.878  35.374   1.415
65295W        W36911  25.951  41.314  12.432
65296W        W36912  31.365  41.474  10.497
65297W        W36913  39.242  40.834  11.215
65298W        W36914  24.215  14.089  14.742
65299W        W36915   4.702  28.638   3.800
65300W        W36916  43.841  35.018   1.262
65301W        W36917  35.995  15.435   0.458
65302W        W36918  35.656  25.621   1.341
65303W        W36919  19.235  25.094  14.839
65304W        W36920   2.909   6.147   1.284
65305W        W36921  13.570   6.351  11.084
65306W        W36922  22.107  15.269  12.625
65307W        W36923  15.239  43.023   2.304
65308W        W36924  37.632  29.371  13.442
65309W        W36925  26.518  15.125   1.345
65310W        W36926  42.026  25.178  10.602
65311W        W36927   3.779  25.276  14.004
65312W        W36928  11.012   6.564  13.455
65313W        W36929  25.502  13.754   4.175
65314W        W36930  38.067  34.939  12.944
65315W        W36931   5.817  39.535   0.826
65316W        W36932   4.282  17.023  12.376
65317W        W36933  32.231  41.351   4.612
65318W        W36934  43.754   6.290   2.635
65319W        W36935  43.752  18.519   2.120
65320W        W36936  35.287   2.181   1.939
65321W        W36937   9.618   0.055   2.305
65322W        W36938  44.898  21.199  10.108
65323W        W36939  37.600  29.735   3.618
65324W        W36940  38.627  14.949  11.430
65325W        W36941  14.594  13.202  13.761
65326W        W36942  20.678  23.560   0.767
65327W        W36943  31.148  23.591  11.200
65328W        W36944  44.354  36.368   4.872
65329W        W36945  35.315   0.293  14.429
65330W        W36946  27.220  22.117   1.690
65331W        W36947  34.556  42.422  10.733
65332W        W36948   4.759  35.064   3.195
65333W        W36949  12.774   6.057  10.668
65334W        W36950   0.318   4.312   4.664
65335W        W36951  17.263  32.082   4.549
65336W        W36952  38.883  44.247  13.523
65337W        W36953  12.832  39.207  13.974
65338W        W36954  25.931   8.689   1.467
65339W        W36955  34.484  25.863  13.278
65340W        W36956   1.324  22.964  11.579
65341W        W36957  26.900  13.229   2.951
65342W        W36958  26.701  30.684   3.735
65343W        W36959  12.810   7.472   0.515
65344W        W36960  36.612  36.122   5.111
65345W        W36961  35.811  43.925  14.757
65346W        W36962  11.206  20.007   4.629
65347W        W36963  10.278   7.237  13.148
65348W        W36964  40.485   4.470  12.722
65349W        W36965  39.365  30.614   2.925
65350W        W36966  17.327  44.987  12.580
65351W        W36967  33.967  28.176  12.031
65352W        W36968  44.681  28.584   0.181
65353W        W36969   6.997  23.471  13.815
65354W        W36970  35.633  29.908  14.734
65355W        W36971  27.089  25.562   3.697
65356W        W36972  36.855   0.440  12.963
65357W        W36973   2.940  40.878   1.507
65358W        W36974  20.021  15.741   4.638
65359W        W36975  10.280   4.138  11.965
65360W        W36976  26.608  18.368   1.855
65361W        W36977  28.048  26.773   1.345
65362W        W36978  38.832  17.280   0.681
65363W        W36979  43.500   0.961   2.944
65364W        W36980  28.689   3.728   1.997
65365W        W36981  16.844   0.823  10.128
65366W        W36982  27.464  39.404  13.100
65367W        W36983  31.440  28.505  12.497
65368W        W36984  36.252   0.424  11.557
65369W        W36985  37.319   7.208   3.817
65370W        W36986  33.156   0.982   0.734
65371W        W36987  25.157  27.562  10.242
65372W        W36988  27.832  38.489   0.279
65373W        W36989   8.415   1.937   1.485
65374W        W36990  44.618  38.232   5.399
65375W        W36991  18.314  30.157   1.819
65376W        W36992   9.427  12.113  11.422
65377W        W36993  43.856   0.707   1.671
65378W        W36994  33.442  43.699  12.068
65379W        W36995  28.278  16.310   3.762
65380W        W36996  42.916  17.765  11.536
65381W        W36997  39.219  30.441  11.203
65382W        W36998   7.716  43.221   0.857
65383W        W36999   7.426  34.777  13.083
65384W        W37000  14.310  12.884   1.475
65385W        W37001  22.485  20.801   0.189
65386W        W37002  16.273  33.047  10.907
65387W        W37003   7.804  28.501   4.657
65388W        W37004  36.591  11.715  13.997
65389W        W37005  29.058  17.892   1.559
65390W        W37006  19.644  13.078  14.554
65391W        W37007  23.578  24.627  12.908
65392W        W37008  35.575  42.874   2.404
65393W        W37009  44.785  27.547  14.372
65394W        W37010  23.395  29.088  11.989
65395W        W37011  40.415  33.595  12.167
65396W        W37012  30.584  31.457  12.814
65397W        W37013  35.129  42.072   2.360
65398W        W37014  17.609  40.016   2.939
65399W        W37015  14.271   9.196  13.852
65400W        W37016  33.975  31.185   2.334
65401W        W37017  41.426  13.738  10.541
65402W        W37018  38.894   1.793   4.286
65403W        W37019  37.093  31.002  11.395
65404W        W37020  20.201  16.954  13.490
65405W        W37021  17.387  34.641  13.440
65406W        W37022  18.149  16.353   2.784
65407W        W37023  42.480  42.417   3.126
65408W        W37024  29.080  37.814   2.745
65409W        W37025  30.266  13.289   3.194
65410W        W37026  44.813  11.106   1.958
65411W        W37027  31.814  30.156   0.681
65412W        W37028  19.011  22.184   3.183
65413W        W37029  35.475  29.177  11.318
65414W        W37030  28.698  20.069   3.670
65415W        W37031  11.605  43.232   2.683
65416W        W37032   6.326  31.672   1.707
65417W        W37033  23.664  11.357  13.255
65418W        W37034   8.617  19.628   3.385
65419W        W37035  17.553  17.784   2.289
65420W        W37036  33.628   7.885  11.651
65421W        W37037  24.169  44.836  14.397
65422W        W37038  13.122  18.151   2.730
65423W        W37039   1.936  21.469   0.350
65424W        W37040  20.028  30.448   4.743
65425W        W37041  13.339  31.203  12.665
65426W        W37042  11.877  34.316   3.819
65427W        W37043  41.903  39.039  10.660
65428W        W37044  16.419   5.285  11.613
65429W        W37045  21.330  10.807  13.028
65430W        W37046   9.243  33.390  12.890
65431W        W37047   4.472  22.278  13.536
65432W        W37048   9.427  26.712   1.411
65433W        W37049  32.719   8.193  10.674
65434W        W37050  44.267  17.254   1.802
65435W        W37051  35.869  34.985   4.103
65436W        W37052  23.971   1.711  13.256
65437W        W37053  40.879  23.744   1.086
65438W        W37054  35.362  20.657  14.446
65439W        W37055   2.726   3.387   2.589
65440W        W37056  29.599  34.856  14.859
65441W        W37057  11.892  15.128  13.553
65442W        W37058   0.675  15.302   4.523
65443W        W37059  27.676  17.270  13.957
65444W        W37060   4.337  43.754   0.408
65445W        W37061   9.144  26.663   4.000
65446W        W37062   4.369  11.629   1.372
65447W        W37063  38.829  32.981  12.220
65448W        W37064  34.811  12.100   1.789
65449W        W37065  23.424  41.875   2.268
65450W        W37066  28.646  31.928   0.989
65451W        W37067  36.409  13.881   1.322
65452W        W37068  44.000   4.260   3.271
65453W        W37069   6.677  17.053  10.913
65454W        W37070   5.211  25.474  13.317
65455W        W37071  10.369   3.377   1.235
65456W        W37072  16.598  17.724   4.959
65457W        W37073  40.236  37.111   2.308
65458W        W37074   1.491  32.431   0.040
65459W        W37075  27.969   1.845   0.404
65460W        W37076  26.761  11.068  11.118
65461W        W37077  37.830  42.001   2.266
65462W        W37078   7.842  24.571  14.936
65463W        W37079  37.315  37.712  11.251
65464W        W37080  34.268  35.419  14.321
65465W        W37081  18.154  27.508  14.769
65466W        W37082  17.612   2.745  11.543
65467W        W37083  14.037  16.736   5.086
65468W        W37084  23.031   7.339   2.802
65469W        W37085  29.785   6.249   1.781
65470W        W37086   7.687  14.098   4.605
65471W        W37087   0.209  44.919  13.146
65472W        W37088   2.526  15.148  14.684
65473W        W37089  18.328  18.578  12.722
65474W        W37090  11.731  28.814  10.277
65475W        W37091  14.199  32.471  10.094
65476W        W37092  32.557  21.769  14.921
65477W        W37093   6.185  22.958  10.385
65478W        W37094  19.564  29.212  13.069
65479W        W37095  24.107  26.533   4.968
65480W        W37096   8.457  21.021   0.980
65481W        W37097  39.550  33.470   4.372
65482W        W37098  21.896  44.882  11.540
65483W        W37099  11.571  27.952   2.642
65484W        W37100   0.527  27.429  12.027
65485W        W37101   4.703  36.294  12.995
65486W        W37102  19.055   9.489  13.495
65487W        W37103   0.425  33.408  12.041
65488W        W37104  15.744  40.846  12.011
65489W        W37105  15.518  35.856  14.785
65490W        W37106  17.638  17.179   4.199
65491W        W37107  27.482  44.603   4.566
65492W        W37108   4.763  37.019   2.323
65493W        W37109  13.675  13.083  10.635
65494W        W37110   0.993  13.772   0.313
65495W        W37111  16.157  22.560   3.872
65496W        W37112  13.170   5.020  14.303
65497W        W37113  20.663  12.810   4.557
65498W        W37114   9.907  25.681  11.650
65499W        W37115  38.807  30.558   0.721
65500W        W37116   2.320  34.321  14.911
65501W        W37117  32.420  24.996  13.841
65502W        W37118  39.885  15.051  13.854
65503W        W37119  15.256   8.406   0.751
65504W        W37120   0.316  24.056   2.468
65505W        W37121  12.554  17.063   2.888
65506W        W37122  26.958   2.057   2.365
65507W        W37123   2.447  22.507   1.421
65508W        W37124  27.963  15.183  12.220
65509W        W37125  29.577  24.722   1.613
65510W        W37126  17.686  16.272   4.588
65511W        W37127  17.728  34.938   2.206
65512W        W37128  42.312  12.637   3.968
65513W        W37129  42.979  27.037  12.901
65514W        W37130  43.977  10.414  12.671
65515W        W37131   0.958   7.262   2.222
65516W        W37132  33.521  33.952   3.965
65517W        W37133  44.559   6.111  10.327
65518W        W37134  38.227  24.574  11.104
65519W        W37135  15.788   9.665   2.686
65520W        W37136  33.917  32.460  14.518
65521W        W37137   7.184   6.749   1.395
65522W        W37138  44.310  35.695   1.290
65523W        W37139  33.737   2.462  10.648
65524W        W37140  26.098  11.504   1.434
65525W        W37141   2.787  41.799   0.879
65526W        W37142  27.554  39.926  11.025
65527W        W37143  25.628  22.513  12.414
65528W        W37144  43.907   1.479  13.810
65529W        W37145  43.327   2.437  11.943
65530W        W37146  20.664  44.498   4.181
65531W        W37147   2.763  42.860  14.994
65532W        W37148   4.595  21.319   4.765
65533W        W37149  16.647  15.763   2.930
65534W        W37150   5.213  27.193   4.584
65535W        W37151  41.617  43.787   0.226
65536W        W37152  12.677   7.790   4.019
65537W        W37153  42.838  19.136  12.084
65538W        W37154  30.924  31.205   0.019
65539W        W37155   0.843   6.650  14.092
65540W        W37156  24.793  41.113   2.779
65541W        W37157  34.661  33.204  13.016
65542W        W37158  33.772  34.499   3.203
65543W        W37159  17.579  34.399  11.559
65544W        W37160  11.047  30.659   3.196
65545W        W37161   8.472  43.901  11.961
65546W        W37162   0.770   0.956   4.616
65547W        W37163  34.535  13.764   0.009
65548W        W37164  25.020  18.176   3.435
65549W        W37165  25.292  19.688  11.103
65550W        W37166  14.966  43.030  12.542
65551W        W37167  27.612  38.819  12.521
65552W        W37168  39.963  37.121   3.653
65553W        W37169   5.378  19.164   3.827
65554W        W37170  23.981  15.233   0.418
65555W        W37171  40.567  42.767   1.018
65556W        W37172   2.586  37.526  13.002
65557W        W37173  41.623  25.242   1.849
65558W        W37174   7.357  33.931  10.897
65559W        W37175   3.784  40.330  14.312
65560W        W37176  30.429  44.795   0.237
65561W        W37177   8.337  26.174   0.474
65562W        W37178  21.037   1.876   9.891
65563W        W37179  12.079  19.460   2.115
65564W        W37180  38.998  39.291  12.939
65565W        W37181   7.893   6.161   1.256
65566W        W37182  26.102   9.604  13.883
65567W        W37183  18.127  35.613   1.728
65568W        W37184  21.767  19.827  13.436
65569W        W37185  16.866  11.972  14.407
65570W        W37186  15.656  26.565  13.912
65571W        W37187  20.758   6.859   2.929
65572W        W37188  16.176  34.446  10.628
65573W        W37189  19.145   0.612   3.575
65574W        W37190  29.725   8.226  13.422
65575W        W37191  20.275   2.657   4.292
65576W        W37192  20.616  39.419   0.290
65577W        W37193   1.217  39.471   4.964
65578W        W37194  37.050  14.852  13.437
65579W        W37195   2.168  40.619   4.663
65580W        W37196  43.337   6.594  11.009
65581W        W37197  28.825   2.157  14.572
65582W        W37198   2.884  44.830   2.673
65583W        W37199  36.989  15.181   3.285
65584W        W37200   6.318   5.040  11.272
65585W        W37201  10.660  29.495  13.620
65586W        W37202  12.085   0.744  13.336
65587W        W37203  21.290  38.535   0.060
65588W        W37204   1.202  25.715   2.311
65589W        W37205  21.501  40.795  12.182
65590W        W37206  35.956  32.453   0.322
65591W        W37207  12.378  11.190   1.673
65592W        W37208  29.166  36.363   2.419
65593W        W37209  21.843  37.585  10.606
65594W        W37210   6.882  30.220   1.356
65595W        W37211  15.324   7.643  12.003
65596W        W37212  21.757  36.828  14.416
65597W        W37213   0.293   6.733  12.176
65598W        W37214   2.987  23.929  14.384
65599W        W37215  44.273  37.990  10.524
65600W        W37216   2.039  37.874  14.348
65601W        W37217  42.054  14.241  13.570
65602W        W37218   6.155   7.874  14.451
65603W        W37219  29.172  36.406  13.712
65604W        W37220   2.008  15.127   3.107
65605W        W37221  33.048  29.404   2.470
65606W        W37222  14.809  11.791  13.447
65607W        W37223  30.777   8.569  12.468
65608W        W37224  17.969  44.329   3.725
65609W        W37225  30.014  44.511  10.515
65610W        W37226  18.747  44.428  14.228
65611W        W37227  39.495  40.967   3.690
65612W        W37228  19.831  23.648   2.687
65613W        W37229  26.362  14.475  10.913
65614W        W37230   3.241  20.076   3.433
65615W        W37231   7.448  15.453   3.367
65616W        W37232  20.803  19.089  10.736
65617W        W37233  28.444  43.185   3.358
65618W        W37234  27.104  28.972   1.905
65619W        W37235   0.097  19.470   3.098
65620W        W37236   4.846  18.964  10.802
65621W        W37237   7.150  16.522  11.605
65622W        W37238  37.831  40.749  10.937
65623W        W37239  12.437   9.157  14.398
65624W        W37240   4.544  19.248  13.233
65625W        W37241  35.790  29.577  12.969
65626W        W37242  22.042   2.400   0.423
65627W        W37243  17.532  18.692  13.381
65628W        W37244   3.999  44.602  11.446
65629W        W37245  39.791  18.869  14.485
65630W        W37246  14.562  18.073   4.087
65631W        W37247  41.467  30.849  14.232
65632W        W37248  23.539  21.311  13.483
65633W        W37249   9.372  44.476  14.743
65634W        W37250  16.085   6.542  14.466
65635W        W37251  44.437  22.967   1.855
65636W        W37252  26.505   6.102   1.587
65637W        W37253   0.289   5.121  12.826
65638W        W37254  30.873  18.784  14.297
65639W        W37255  18.985  10.131   4.978
65640W        W37256  22.056   3.443   3.034
65641W        W37257  26.618  33.682   1.852
65642W        W37258  10.898  44.194  13.955
65643W        W37259  12.743   5.788  10.227
65644W        W37260   9.007  20.966  13.063
65645W        W37261  35.881  40.023   0.755
65646W        W37262   4.521  35.413  13.679
65647W        W37263  32.323   9.298   1.219
65648W        W37264  22.503  31.658   0.293
65649W        W37265  19.649  39.455  12.844
65650W        W37266  37.979  23.700  12.708
65651W        W37267  32.121  35.891  14.814
65652W        W37268  18.117  15.912  11.009
65653W        W37269  13.681   1.801  13.782
65654W        W37270  17.566  40.307   3.856
65655W        W37271   7.935   2.209   3.164
65656W        W37272   6.770  26.635  11.985
65657W        W37273   2.694   7.377  11.199
65658W        W37274  36.656  35.299   2.657
65659W        W37275   0.137  43.045   0.026
65660W        W37276   1.811  13.856   2.379
65661W        W37277  25.556   7.042   4.313
65662W        W37278  14.774  27.090   0.625
65663W        W37279  23.075  43.182  14.567
65664W        W37280  27.044  43.054   0.670
65665W        W37281   5.137  12.574  11.079
65666W        W37282  42.413  23.621   3.685
65667W        W37283  26.577   8.029   0.301
65668W        W37284  29.267  22.315   1.705
65669W        W37285   4.503  10.644  13.934
65670W        W37286  27.470   4.634  12.897
65671W        W37287  16.370  10.311   1.492
65672W        W37288  21.831  36.878  11.202
65673W        W37289   9.884  12.871   2.271
65674W        W37290  35.455  34.099  13.829
65675W        W37291   4.724  14.245  10.573
65676W        W37292  21.192  11.170   3.131
65677W        W37293  36.460  20.576   4.431
65678W        W37294  25.020  10.245   5.014
65679W        W37295  22.232  42.580  11.998
65680W        W37296  24.179   4.272   0.469
65681W        W37297  35.592  33.470   0.890
65682W        W37298   1.398  21.479   2.328
65683W        W37299  28.180  25.502  10.719
65684W        W37300  29.640  27.436   0.892
65685W        W37301  39.754  41.073   1.374
65686W        W37302  21.132  11.660   3.241
65687W        W37303  39.949  34.782  10.644
65688W        W37304   1.790  29.474   0.484
65689W        W37305  22.182  34.414  12.614
65690W        W37306  28.619  11.118   2.253
65691W        W37307   6.693  31.140   1.257
65692W        W37308  29.056   8.248   3.126
65693W        W37309  31.606  24.658  14.286
65694W        W37310   9.219   7.179  14.299
65695W        W37311  17.848  22.885   1.791
65696W        W37312  44.608  42.269   0.229
65697W        W37313  35.102  32.968  13.234
65698W        W37314  34.672  37.296   2.584
65699W        W37315  24.200  35.448   5.009
65700W        W37316  14.403  33.421   4.159
65701W        W37317  37.640   8.210  11.479
65702W        W37318   4.998  20.089   1.967
65703W        W37319   2.701  21.687   9.737
65704W        W37320  15.650  11.735   0.696
65705W        W37321  25.600  22.697  11.141
65706W        W37322  34.919  10.276  11.513
65707W        W37323  32.750  18.076   0.329
65708W        W37324  23.498  14.795   1.887
65709W        W37325  32.423  38.784  11.958
65710W        W37326  29.114  28.953   0.798
65711W        W37327  14.566  43.265   1.616
65712W        W37328   0.670  22.261   4.177
65713W        W37329  12.662   6.939  13.756
65714W        W37330  18.833  40.566   0.931
65715W        W37331  14.253  15.536   1.362
65716W        W37332  27.654  26.543   0.874
65717W        W37333  38.103  27.684   1.510
65718W        W37334  27.867   6.189   4.109
65719W        W37335  36.583   9.320   4.626
65720W        W37336  20.169   6.914   2.769
65721W        W37337  14.067   3.806  14.573
65722W        W37338  18.634  21.333  14.361
65723W        W37339  21.060  12.601  13.928
65724W        W37340   1.381   4.137   0.574
65725W        W37341  27.172  37.508  10.469
65726W        W37342  42.799  39.417   4.601
65727W        W37343  34.278  35.470   3.876
65728W        W37344  18.041   1.943   3.824
65729W        W37345  20.189  35.028  11.415
65730W        W37346  43.122  28.603   3.341
65731W        W37347  11.713   3.052  14.012
65732W        W37348  12.742  30.560   0.393
65733W        W37349   2.737  25.969  14.339
65734W        W37350  35.758  14.260   4.460
65735W        W37351  17.956  25.761   3.240
65736W        W37352  34.585  17.626  14.981
65737W        W37353  37.603  26.382   3.787
65738W        W37354  24.140   0.399   1.364
65739W        W37355  28.921  35.086   1.303
65740W        W37356  27.922  24.182   1.718
65741W        W37357  17.109  25.303  10.292
65742W        W37358   1.947   3.729  13.503
65743W        W37359  13.306  15.497   1.428
65744W        W37360  14.150  29.209   2.840
65745W        W37361  26.727  10.746  13.952
65746W        W37362  13.789   0.539  14.414
65747W        W37363  10.012  21.159  12.762
65748W        W37364  13.403  33.792  12.720
65749W        W37365  17.152  18.304  13.977
65750W        W37366  31.900  18.686   1.728
65751W        W37367  37.906  14.363   4.154
65752W        W37368  20.234  37.120  12.962
65753W        W37369  21.110  24.221  14.730
65754W        W37370  11.638  31.509  12.327
65755W        W37371  23.009  29.076  10.729
65756W        W37372  43.533   2.437   1.717
65757W        W37373  15.864  15.161   2.930
65758W        W37374  31.687  35.337  14.441
65759W        W37375   5.148  42.836  10.468
65760W        W37376  40.367   4.286   0.250
65761W        W37377  17.677  12.176  12.149
65762W        W37378  15.877  18.548   2.466
65763W        W37379   9.270  18.625   3.125
65764W        W37380  29.994  10.456  10.059
65765W        W37381  36.033  20.178  12.059
65766W        W37382   2.482  43.070  11.217
65767W        W37383  29.903  26.212  14.820
65768W        W37384   5.837  16.567  13.406
65769W        W37385  36.017  28.735   2.904
65770W        W37386  10.592  16.086  11.978
65771W        W37387  26.467   9.235  12.600
65772W        W37388  13.179  32.361  13.919
65773W        W37389  28.589  15.810   0.982
65774W        W37390   2.313  41.576  10.731
65775W        W37391  23.870  38.526  11.384
65776W        W37392  38.438  10.829  14.498
65777W        W37393  29.509  19.471  11.952
65778W        W37394  41.071  30.948   0.247
65779W        W37395  43.812  31.549   0.482
65780W        W37396  16.195  32.358  13.371
65781W        W37397  41.773  39.971   4.265
65782W        W37398  11.598  11.386  11.738
65783W        W37399  20.847  44.729   1.859
65784W        W37400   6.414   4.973   3.604
65785W        W37401  13.785  19.706   4.616
65786W        W37402  41.036  34.200  14.856
65787W        W37403  41.324  23.717  11.464
65788W        W37404  15.378  17.321   4.534
65789W        W37405  14.906  12.619   4.562
65790W        W37406  10.805  44.698  13.926
65791W        W37407  33.348  30.228   4.525
65792W        W37408  30.816  11.312   3.588
65793W        W37409  41.930   8.340   0.455
65794W        W37410   3.820   1.412  10.621
65795W        W37411  17.021  23.275  12.840
65796W        W37412  43.914  29.192   3.112
65797W        W37413   2.460  20.737  10.610
65798W        W37414  18.245  18.059  12.576
65799W        W37415  42.844  43.412   2.227
65800W        W37416  35.958  25.106  11.194
65801W        W37417   1.228  17.933   1.326
65802W        W37418   7.184  18.794   0.825
65803W        W37419  14.421  21.138  14.407
65804W        W37420  16.288   1.871  11.437
65805W        W37421  22.034   1.735   1.819
65806W        W37422  23.441  32.515   1.284
65807W        W37423  41.781  27.737  13.775
65808W        W37424  20.102  42.474  10.172
65809W        W37425  23.546  43.781   3.759
65810W        W37426  15.048  35.702  12.567
65811W        W37427  27.032  36.627   3.128
65812W        W37428  12.496  31.393   1.302
65813W        W37429  26.643  20.106   4.172
65814W        W37430  25.903  33.471   4.185
65815W        W37431  21.301  42.022  12.787
65816W        W37432  18.132  24.176   3.741
65817W        W37433  17.625  40.914   0.691
65818W        W37434  14.269  32.410  13.777
65819W        W37435  41.114  14.753  12.381
65820W        W37436  30.149  29.990  14.122
65821W        W37437  33.693  34.306  10.784
65822W        W37438   8.784   7.781   3.615
65823W        W37439   1.913  40.010   1.913
65824W        W37440  14.153  16.763  14.717
65825W        W37441  41.761  24.168   3.171
65826W        W37442  44.497  25.040  12.332
65827W        W37443   6.498  35.393   2.976
65828W        W37444  33.048   4.004   4.536
65829W        W37445   5.596  25.126  11.132
65830W        W37446   8.666  41.076   1.000
65831W        W37447  15.845   9.768  12.454
65832W        W37448   7.316  23.252  14.187
65833W        W37449  24.698   8.924  14.830
65834W        W37450  22.968  26.249  11.592
65835W        W37451   4.688  34.448  13.007
65836W        W37452  31.114  11.318  10.934
65837W        W37453  15.584  25.117  10.376
65838W        W37454  18.128   3.034   1.335
65839W        W37455  22.208  26.785  14.068
65840W        W37456  35.643  25.071  12.841
65841W        W37457  19.157  28.129  11.217
65842W        W37458   8.744  40.891   0.115
65843W        W37459  28.959  34.412  14.069
65844W        W37460   4.283   9.610  13.568
65845W        W37461  37.826  20.011   2.807
65846W        W37462  23.226  33.650  11.573
65847W        W37463  18.144   1.409   0.268
65848W        W37464   4.989  27.544  12.980
65849W        W37465  18.711  44.950   5.585
65850W        W37466  14.863  14.593   0.971
65851W        W37467  21.243  39.302  12.003
65852W        W37468  24.628  21.979  12.462
65853W        W37469  10.803   3.695   0.739
65854W        W37470   8.679  40.516   2.779
65855W        W37471   0.768  21.092   0.228
65856W        W37472   4.449  22.702   0.420
65857W        W37473  24.726  44.208   4.648
65858W        W37474  28.106  25.565  14.826
65859W        W37475  18.050  18.573   1.931
65860W        W37476  12.269  21.207   2.579
65861W        W37477  24.283  34.498   4.268
65862W        W37478  21.489  34.142  11.118
65863W        W37479  18.627  20.115  13.663
65864W        W37480  33.240  32.891   2.243
65865W        W37481  17.705  13.500  14.209
65866W        W37482   4.112   1.861  13.106
65867W        W37483  40.286  12.390  11.148
65868W        W37484  33.194  30.361  14.979
65869W        W37485  22.115  32.962   4.478
65870W        W37486   8.929  21.178  14.939
65871W        W37487  23.584  37.548   3.714
65872W        W37488  38.336  20.175  14.849
65873W        W37489   7.134   8.161   1.598
65874W        W37490  10.027  15.912  11.055
65875W        W37491  44.050  35.866  11.644
65876W        W37492  13.749  19.974  13.057
65877W        W37493   0.432  32.624   1.037
65878W        W37494   9.163  18.806  14.324
65879W        W37495  42.908  16.864   3.610
65880W        W37496  26.237  17.225  13.622
65881W        W37497  25.983   6.645  11.994
65882W        W37498  10.664  19.556   3.264
65883W        W37499   8.007  40.078  14.438
65884W        W37500   7.295  12.394   4.054
65885W        W37501   0.111  12.741  12.532
65886W        W37502  35.223  29.071  13.454
65887W        W37503  20.826  19.515   0.839
65888W        W37504  18.649  40.405  13.592
65889W        W37505  21.187  15.072   1.421
65890W        W37506  39.651   8.559  14.479
65891W        W37507  42.732  38.349   1.734
65892W        W37508  39.400  17.519  10.637
65893W        W37509  23.160  37.803   0.838
65894W        W37510  28.511  13.597  14.036
65895W        W37511   2.747  21.272   2.727
65896W        W37512  20.753  33.627   0.427
65897W        W37513  41.996  44.219  13.793
65898W        W37514  15.560  14.804  11.504
65899W        W37515  13.261  35.856   0.894
65900W        W37516   2.687   9.851   2.406
65901W        W37517   5.742  38.299   0.272
65902W        W37518  24.970  37.886  13.248
65903W        W37519  38.349  23.524  13.862
65904W        W37520  14.738   8.772  14.359
65905W        W37521  10.135  18.801  14.284
65906W        W37522  12.876  21.537  13.413
65907W        W37523  23.090  35.826  12.443
65908W        W37524  30.111  24.224  12.264
65909W        W37525   0.398   1.497  12.731
65910W        W37526  16.670  34.651  10.715
65911W        W37527  27.123  28.108  11.231
65912W        W37528  38.529  19.068  13.401
65913W        W37529  16.041  26.977   4.262
65914W        W37530  23.687  43.463   4.706
65915W        W37531  41.381  42.729   2.768
65916W        W37532  18.106   1.784  13.404
65917W        W37533   7.025  25.892   4.218
65918W        W37534  28.402  13.094  14.939
65919W        W37535  36.460  33.088   0.074
65920W        W37536  36.627  28.121  11.197
65921W        W37537  18.426  17.435  11.067
65922W        W37538  31.156  33.911  14.440
65923W        W37539  12.858   9.748   2.737
65924W        W37540   8.277   2.943  11.741
65925W        W37541   0.356  21.066   1.323
65926W        W37542  39.106  15.137   3.105
65927W        W37543  18.623  23.927   3.126
65928W        W37544  41.003   6.014  11.585
65929W        W37545   6.212  41.570  11.128
65930W        W37546  44.126  26.041   9.949
65931W        W37547   1.803   6.836  14.569
65932W        W37548   1.455  41.957   4.985
65933W        W37549  18.616   7.241  12.111
65934W        W37550  33.465  44.840   3.943
65935W        W37551  11.042  32.552   4.411
65936W        W37552   3.218  37.622  14.576
65937W        W37553  21.693  12.942   1.326
65938W        W37554  11.472  43.802   4.218
65939W        W37555   9.042   4.176   0.253
65940W        W37556  29.655   6.257  13.510
65941W        W37557  26.946  43.091  12.785
65942W        W37558   3.389  37.137   2.722
65943W        W37559  22.115  32.481  14.727
65944W        W37560  37.743  44.721   3.617
65945W        W37561  18.175   6.187  12.460
65946W        W37562  22.703  35.753   1.421
65947W        W37563  17.054  32.131  12.479
65948W        W37564  22.564  31.414   2.266
65949W        W37565  23.141  37.583  12.815
65950W        W37566  39.942  11.087  10.772
65951W        W37567  22.094   0.384  10.492
65952W        W37568  23.697  30.661   1.363
65953W        W37569  21.078   0.352   4.649
65954W        W37570  14.104  21.007   4.285
65955W        W37571   7.914   0.310  12.378
65956W        W37572   8.270  18.759   0.256
65957W        W37573  17.043  37.433   9.972
65958W        W37574   4.281  35.255  11.473
65959W        W37575   7.349  42.028  12.448
65960W        W37576  26.250  18.497  12.073
65961W        W37577  34.029  43.029  14.336
65962W        W37578  17.579  15.082  12.120
65963W        W37579   5.195  22.816   3.151
65964W        W37580   4.176  18.360  12.515
65965W        W37581  27.184  44.805  13.903
65966W        W37582  14.791  20.649  12.899
65967W        W37583  27.412  44.587  14.745
65968W        W37584   4.926   9.267  11.984
65969W        W37585   8.763  39.572  14.588
65970W        W37586  21.630   6.306   1.909
65971W        W37587  24.775   9.770  14.258
65972W        W37588  41.539   3.443   0.073
65973W        W37589  37.294  31.241  12.411
65974W        W37590  44.359  11.861  12.244
65975W        W37591  38.036  14.367  13.270
65976W        W37592  31.426   7.361  14.428
65977W        W37593  24.248  39.525  12.466
65978W        W37594  23.679  26.244  13.951
65979W        W37595  28.410   2.939   0.426
65980W        W37596  23.697  44.990   3.218
65981W        W37597  25.960  27.411   1.366
65982W        W37598   7.955  25.133  14.113
65983W        W37599  14.831  39.480  11.479
65984W        W37600  41.198  40.294   0.389
65985W        W37601  36.997  43.025   2.295
65986W        W37602  42.092   8.173  12.388
65987W        W37603  35.837  37.081  11.197
65988W        W37604  16.778   7.869  11.919
65989W        W37605  29.111   8.369  12.600
65990W        W37606   7.703  24.190   4.536
65991W        W37607  36.344  29.980  14.089
65992W        W37608   6.508   1.239   2.349
65993W        W37609   7.670  10.436  14.541
65994W        W37610  20.573  37.080  12.500
65995W        W37611   4.456   3.297   1.881
65996W        W37612  37.114  15.206   1.790
65997W        W37613   8.698  13.348   1.289
65998W        W37614   2.000  17.181  13.382
65999W        W37615  17.624   3.490  11.031
66000W        W37616  11.684  39.090  14.609
66001W        W37617  37.453  27.958  13.456
66002W        W37618  28.074  15.181   1.926
66003W        W37619  41.825  34.627  12.980
66004W        W37620  42.420  15.963  14.405
66005W        W37621  28.436  15.274  12.043
66006W        W37622  36.319   4.301   4.862
66007W        W37623  17.636  37.593  13.361
66008W        W37624  35.882   3.393   4.058
66009W        W37625  24.624  26.938   4.561
66010W        W37626  36.538  22.459  11.924
66011W        W37627  32.381  43.412  10.686
66012W        W37628  39.649  35.960  14.522
66013W        W37629  26.583  41.501  13.792
66014W        W37630  19.234  14.698  11.740
66015W        W37631  12.330  31.388   0.395
66016W        W37632  43.869  14.312   2.426
66017W        W37633  13.412  24.040   2.393
66018W        W37634   3.790  24.359  14.271
66019W        W37635  27.677  27.371  12.461
66020W        W37636  32.862  12.358  11.517
66021W        W37637   3.792  18.122   5.037
66022W        W37638  33.571  31.844   5.001
66023W        W37639  26.618  37.521   1.326
66024W        W37640  41.685  26.032  11.012
66025W        W37641  32.489  30.436  10.301
66026W        W37642  15.125  37.518  11.913
66027W        W37643  31.382   7.697  13.681
66028W        W37644  16.592   1.236  14.954
66029W        W37645  25.514  28.422   2.739
66030W        W37646  30.051   5.704   0.832
66031W        W37647  35.575  27.876  12.572
66032W        W37648   1.779   1.384  13.143
66033W        W37649   7.627   6.678  11.383
66034W        W37650  32.132  36.092   1.253
66035W        W37651  36.760  29.419   1.808
66036W        W37652   5.149  29.159  13.367
66037W        W37653   4.636   3.035   4.320
66038W        W37654  15.614  11.281  13.862
66039W        W37655  40.994  41.893  13.809
66040W        W37656  26.758   5.734   4.619
66041W        W37657  13.677  35.995  12.269
66042W        W37658  24.512  14.365  12.651
66043W        W37659  24.460   4.907  13.958
66044W        W37660  24.707  30.894   2.348
66045W        W37661  31.542  16.210   3.494
66046W        W37662  36.906   7.376   1.199
66047W        W37663  25.860  16.758  10.870
66048W        W37664   9.643  18.177   4.682
66049W        W37665  23.586  23.165  11.077
66050W        W37666  33.714   4.487  12.419
66051W        W37667  19.614  14.113   1.825
66052W        W37668  22.759  10.216  11.247
66053W        W37669   5.510   5.868   2.658
66054W        W37670   8.931  25.445   4.039
66055W        W37671  12.424  31.876  11.114
66056W        W37672  14.437  36.045  12.025
66057W        W37673  27.719  24.121  10.611
66058W        W37674  15.600  31.126   0.666
66059W        W37675  13.946  32.476   4.623
66060W        W37676   0.846  22.084   2.713
66061W        W37677  20.816  42.972   1.293
66062W        W37678   8.864   2.338  13.385
66063W        W37679  17.283  20.049   3.161
66064W        W37680   4.766  28.682   3.298
66065W        W37681  17.662   9.870  14.340
66066W        W37682   5.652   7.095  11.764
66067W        W37683  32.842   3.289  14.898
66068W        W37684  32.683  28.094   4.615
66069W        W37685  34.523   3.425   3.858
66070W        W37686  32.963  36.595   0.298
66071W        W37687  21.671  27.523   0.483
66072W        W37688  21.437   7.263   1.923
66073W        W37689  21.159  42.409  13.602
66074W        W37690  43.526  29.961   4.760
66075W        W37691  15.255  42.915  12.976
66076W        W37692  30.990   0.874   4.865
66077W        W37693  25.975  17.599  12.895
66078W        W37694  22.050  15.081   1.317
66079W        W37695  15.311  27.931  10.821
66080W        W37696   6.077  38.012  13.103
66081W        W37697  43.202  20.728   4.183
66082W        W37698  36.092  39.996  14.391
66083W        W37699   0.881  10.267   3.690
66084W        W37700  21.105  20.799  13.310
66085W        W37701  39.887  37.840   3.053
66086W        W37702  18.054   8.444  11.598
66087W        W37703  35.155  27.605  14.874
66088W        W37704  28.040   7.129  10.849
66089W        W37705  17.312   0.918   0.345
66090W        W37706  34.836  12.871   1.137
66091W        W37707   4.522  18.395   5.067
66092W        W37708  10.982   7.680   3.558
66093W        W37709   1.161   0.943  11.153
66094W        W37710  13.626  33.539   4.629
66095W        W37711  13.536   2.302  11.037
66096W        W37712  15.236  34.454   2.214
66097W        W37713  27.037  34.441  14.368
66098W        W37714  30.457  44.377  10.740
66099W        W37715  10.651   1.307  11.026
66100W        W37716  10.836  40.473   0.452
66101W        W37717  15.694   9.557  10.731
66102W        W37718  22.978   8.947   2.018
66103W        W37719  10.932  16.872  13.042
66104W        W37720   8.256  12.823  13.765
66105W        W37721  26.769  35.161   0.577
66106W        W37722  19.232  44.487   0.538
66107W        W37723   9.123  24.988   3.862
66108W        W37724  31.915  36.965   4.787
66109W        W37725  19.589  34.443  13.370
66110W        W37726  38.328   0.490  13.333
66111W        W37727  13.691  31.158  11.015
66112W        W37728   1.981  18.017   1.814
66113W        W37729  28.585  42.139   0.469
66114W        W37730  42.095  17.103  10.479
66115W        W37731  37.879   3.867   0.454
66116W        W37732   1.334  26.058  13.826
66117W        W37733  20.093  28.093   0.415
66118W        W37734  18.542  20.995   5.031
66119W        W37735  23.242  41.247  11.698
66120W        W37736  23.007  17.254  12.577
66121W        W37737  41.831  30.407   4.529
66122W        W37738  28.165   8.962  13.891
66123W        W37739  19.509   3.546   2.621
66124W        W37740  41.972  37.456   1.841
66125W        W37741  24.612  42.392   2.229
66126W        W37742   3.206  31.623  14.915
66127W        W37743  10.261   8.358  14.327
66128W        W37744  37.813  35.584  12.393
66129W        W37745   7.174  40.815  12.907
66130W        W37746  28.395  22.605   0.917
66131W        W37747  23.101  33.501   3.893
66132W        W37748  42.393  26.079   0.782
66133W        W37749   1.196  29.453  12.065
66134W        W37750  21.138  44.392  10.851
66135W        W37751   5.782   3.772   0.501
66136W        W37752   6.384  26.474   2.227
66137W        W37753   3.117  20.334   4.300
66138W        W37754  34.804  23.114   4.060
66139W        W37755   4.792  33.855  13.880
66140W        W37756  27.942  41.553   4.060
66141W        W37757  28.500  38.082   4.566
66142W        W37758   8.020  22.507  10.861
66143W        W37759  33.405  35.816   4.736
66144W        W37760   0.794  27.482  14.358
66145W        W37761  15.297  12.829  14.856
66146W        W37762  21.618  20.743   4.603
66147W        W37763   2.995  22.161   5.090
66148W        W37764  10.527  13.030   1.248
66149W        W37765   9.736   7.402   3.228
66150W        W37766   2.716  10.221  13.801
66151W        W37767  34.400  15.847   2.709
66152W        W37768  10.344   6.267  13.054
66153W        W37769   6.833  14.435  12.547
66154W        W37770  20.767   7.868  12.089
66155W        W37771  18.856  25.190   0.207
66156W        W37772  38.428  14.798  10.977
66157W        W37773  25.093  22.644   3.203
66158W        W37774  12.924   6.256   2.341
66159W        W37775  44.575  42.426  11.021
66160W        W37776  37.867  37.058   3.160
66161W        W37777  25.603  29.017   1.901
66162W        W37778   2.565   4.217  12.881
66163W        W37779   4.278   7.303  11.754
66164W        W37780  17.250   3.927   1.794
66165W        W37781   4.049  19.992   4.631
66166W        W37782   1.361  18.826   2.296
66167W        W37783  10.005   1.829  11.199
66168W        W37784   0.820   4.328   4.539
66169W        W37785  42.147  30.020   3.768
66170W        W37786  28.479  20.130  12.379
66171W        W37787  23.035  27.610   2.081
66172W        W37788  29.648  23.059  11.009
66173W        W37789  21.003  41.784   1.640
66174W        W37790   1.868  28.635   4.613
66175W        W37791  15.094  30.127   1.498
66176W        W37792  19.630   7.392  11.241
66177W        W37793  13.834   9.680   3.826
66178W        W37794  28.461  25.637  12.046
66179W        W37795   7.457  43.723   3.299
66180W        W37796  16.205  27.706   3.071
66181W        W37797   2.673  12.603  14.712
66182W        W37798  23.206  30.928   0.212
66183W        W37799  28.037  29.594   4.438
66184W        W37800  34.661  18.524   4.872
66185W        W37801  37.536  16.610  13.995
66186W        W37802   3.065  35.297   0.422
66187W        W37803  40.927  29.228  14.338
66188W        W37804  43.463   5.011  12.013
66189W        W37805  21.152  21.018   4.888
66190W        W37806  41.275  24.152  14.841
66191W        W37807  31.595  11.710  12.046
66192W        W37808  33.248  29.669   3.667
66193W        W37809   4.236  20.987   0.068
66194W        W37810  40.445  30.090  12.978
66195W        W37811  12.846   0.516   3.749
66196W        W37812  31.627  27.561   1.327
66197W        W37813  10.622  16.010  14.797
66198W        W37814  17.926   0.912  13.977
66199W        W37815  11.144   0.489   4.021
66200W        W37816   3.756  33.450  12.746
66201W        W37817  31.036  15.210  13.922
66202W        W37818  26.965  18.746   2.264
66203W        W37819  29.920  19.085   2.240
66204W        W37820   3.856  15.761   3.663
66205W        W37821   8.380  36.528  12.983
66206W        W37822  40.376  41.804   0.026
66207W        W37823  42.736   7.003  14.813
66208W        W37824  36.582  43.014   3.658
66209W        W37825   9.923   6.058   2.543
66210W        W37826  21.592   1.008   0.509
66211W        W37827   6.808  32.530  11.750
66212W        W37828  44.446   8.921   2.780
66213W        W37829  34.469  32.746  10.699
66214W        W37830  15.790  36.474   2.896
66215W        W37831   4.299   6.257  13.799
66216W        W37832   4.257  23.278  10.219
66217W        W37833  10.559  17.380   4.016
66218W        W37834  40.417  42.895   3.294
66219W        W37835  28.955   1.450   1.252
66220W        W37836  36.454   1.770   0.963
66221W        W37837  29.245  33.148  12.800
66222W        W37838  43.012  37.426   2.516
66223W        W37839  21.479  17.840   2.625
66224W        W37840  39.125  17.758  11.499
66225W        W37841  34.332  34.907  14.824
66226W        W37842  15.353  34.647  12.506
66227W        W37843  30.678   3.534   1.317
66228W        W37844  44.729  12.772   4.058
66229W        W37845  26.536   1.026  11.846
66230W        W37846   6.669  27.880  12.475
66231W        W37847  20.563  41.790  13.101
66232W        W37848  14.262  43.981  14.851
66233W        W37849  39.088   3.334   1.440
66234W        W37850  28.347  32.605   4.742
66235W        W37851  29.441  21.185  10.602
66236W        W37852  13.759  16.727   4.486
66237W        W37853   4.418  22.955   2.207
66238W        W37854  13.750  33.633  10.964
66239W        W37855  27.546  12.627   1.291
66240W        W37856  21.924  27.651  14.534
66241W        W37857  14.356  34.525   1.934
66242W        W37858   7.972  12.739   2.219
66243W        W37859  36.612  28.991   4.447
66244W        W37860  44.293  42.491   2.524
66245W        W37861   0.474  39.841   0.310
66246W        W37862  31.462   4.607   0.736
66247W        W37863  43.239  44.047   1.571
66248W        W37864   2.646  37.918   3.229
66249W        W37865  33.687  15.869   1.418
66250W        W37866  14.334   1.972  14.820
66251W        W37867  31.885  41.976  12.001
66252W        W37868   8.688  42.005  13.758
66253W        W37869  42.935  21.692   3.428
66254W        W37870  37.735  37.388  11.205
66255W        W37871  37.814   4.206   0.888
66256W        W37872   1.260  36.475   4.027
66257W        W37873  17.806  35.959   4.112
66258W        W37874   5.357  24.172   1.234
66259W        W37875   1.773  34.049  11.956
66260W        W37876   0.474  36.909  12.560
66261W        W37877  17.145  14.343   2.101
66262W        W37878  27.939  22.738   3.685
66263W        W37879  12.940  25.561   4.209
66264W        W37880  16.045  21.080  12.960
66265W        W37881  12.243  26.893   0.845
66266W        W37882  28.712  15.736  12.000
66267W        W37883  27.670  38.812  14.894
66268W        W37884  37.365  32.812  14.877
66269W        W37885  22.205  40.199  12.850
66270W        W37886   9.193  28.277  11.506
66271W        W37887   6.925   9.845   0.398
66272W        W37888  44.333  33.539   0.429
66273W        W37889   3.234   8.679   1.975
66274W        W37890   3.954  38.784   3.406
66275W        W37891  18.168  10.906   1.903
66276W        W37892   3.481  27.644   1.760
66277W        W37893  43.913  11.839  10.702
66278W        W37894  17.207  14.384  13.917
66279W        W37895  44.408  39.628  11.613
66280W        W37896  43.725  34.786   4.975
66281W        W37897  36.584  10.338   4.539
66282W        W37898  25.724  42.507  12.037
66283W        W37899   5.693  35.853   2.182
66284W        W37900   5.455  13.245   4.918
66285W        W37901   8.405  43.183   1.985
66286W        W37902  37.506  40.628   0.809
66287W        W37903   2.954  10.707   0.859
66288W        W37904  27.625  23.756  13.052
66289W        W37905  12.455  16.782  13.003
66290W        W37906  39.494  21.736  11.038
66291W        W37907   8.722   6.934   4.687
66292W        W37908  37.425  33.619  13.053
66293W        W37909  44.266  12.119  11.280
66294W        W37910  27.397  29.214   0.260
66295W        W37911  37.923  31.927  11.894
66296W        W37912  17.059  36.683   4.575
66297W        W37913  11.782  10.207   1.664
66298W        W37914  29.182  11.200  14.274
66299W        W37915  23.102  13.850  13.252
66300W        W37916  17.147  44.006   1.704
66301W        W37917  30.935  17.668  13.179
66302W        W37918  42.960  35.565  10.001
66303W        W37919  29.152  10.285  10.658
66304W        W37920   2.578  43.341   5.011
66305W        W37921  35.807  35.386   0.948
66306W        W37922  36.031  41.809   1.745
66307W        W37923  40.272  39.938   1.922
66308W        W37924   3.324  41.498  10.725
66309W        W37925  15.234  22.852  12.044
66310W        W37926  30.438  15.567  14.473
66311W        W37927  18.867  14.881   0.837
66312W        W37928  29.854   1.661   9.854
66313W        W37929  29.372  13.427   2.627
66314W        W37930  35.864  37.864  14.752
66315W        W37931  30.493  18.702   3.603
66316W        W37932  43.771   4.035  14.840
66317W        W37933  17.446  12.949   5.043
66318W        W37934  40.628  11.807   1.713
66319W        W37935  19.820  17.743  10.559
66320W        W37936  42.477  24.607  11.965
66321W        W37937  35.816  33.544  10.797
66322W        W37938  22.576   5.361  11.598
66323W        W37939  43.731   3.437   2.691
66324W        W37940  33.512  17.302   4.640
66325W        W37941  13.140  40.380  10.693
66326W        W37942  28.528  26.937   1.462
66327W        W37943  23.758  37.197   4.449
66328W        W37944   8.901  33.909   1.249
66329W        W37945   0.769  15.631  12.154
66330W        W37946   3.886   6.993   1.878
66331W        W37947  28.894  32.496   1.376
66332W        W37948  43.219  43.688   1.993
66333W        W37949  37.638  31.023   0.551
66334W        W37950  17.492  29.852   3.642
66335W        W37951   9.273  27.744   1.382
66336W        W37952  24.969  11.536   1.009
66337W        W37953  42.732  34.261  10.948
66338W        W37954  17.550  16.048  13.058
66339W        W37955  44.877  13.042  12.184
66340W        W37956  41.503   2.955  11.632
66341W        W37957  32.379  21.154  10.250
66342W        W37958   0.080  31.475  14.377
66343W        W37959  18.686  30.407   2.931
66344W        W37960  27.011   5.904   4.196
66345W        W37961  43.932  17.746   1.684
66346W        W37962   4.786  22.139   4.746
66347W        W37963  22.456  11.170  12.520
66348W        W37964  28.190  16.556  12.939
66349W        W37965  24.007  17.296   3.665
66350W        W37966  32.356  12.083  10.577
66351W        W37967   7.128  26.445  13.160
66352W        W37968  11.200  36.868  12.497
66353W        W37969  27.944  37.984   0.355
66354W        W37970  36.606  23.576   1.066
66355W        W37971  23.723   9.227  13.912
66356W        W37972  41.278  25.222  10.847
66357W        W37973   1.907  39.399  12.396
66358W        W37974  34.539  26.361  13.139
66359W        W37975  28.773   3.261   9.963
66360W        W37976  15.804  12.853   4.641
66361W        W37977  12.128  34.423  11.452
66362W        W37978  16.793  38.023   3.786
66363W        W37979  44.802   8.502  12.559
66364W        W37980  29.675  33.392  11.560
66365W        W37981   3.293   6.767  11.120
66366W        W37982  35.587  40.433   4.100
66367W        W37983   7.331  33.453  10.732
66368W        W37984  25.526  40.391   3.048
66369W        W37985  37.928  16.882   0.051
66370W        W37986   0.722   1.287  13.097
66371W        W37987  31.536  38.802   1.130
66372W        W37988  41.463  37.954   2.361
66373W        W37989  30.075  35.532   2.736
66374W        W37990  14.629  20.747   1.621
66375W        W37991  39.371  17.119  14.457
66376W        W37992   6.776  24.578   2.382
66377W        W37993  38.776   7.881  14.972
66378W        W37994  19.059  27.045   1.808
66379W        W37995  26.455  15.810   1.812
66380W        W37996  36.299   8.219  14.908
66381W        W37997  15.289  11.604  10.694
66382W        W37998  11.426  24.254  14.881
66383W        W37999  34.949  13.735   2.125
66384W        W38000  27.093  38.713   2.783
66385W        W38001  35.738  36.526  11.111
66386W        W38002   3.413   9.968  14.025
66387W        W38003  25.640  17.676  11.922
66388W        W38004  44.757  16.388  11.985
66389W        W38005  40.035   7.746  14.831
66390W        W38006   1.358   8.732  12.422
66391W        W38007  31.051  35.034   0.335
66392W        W38008  43.006  25.270   2.736
66393W        W38009  29.517  37.739  14.048
66394W        W38010  13.353  26.083   4.432
66395W        W38011  39.356  39.416  10.421
66396W        W38012  43.238  30.043  13.909
66397W        W38013  27.628  43.894   0.448
66398W        W38014   7.371  34.632   3.247
66399W        W38015  12.704  27.419   1.884
66400W        W38016  22.679  43.579  10.633
66401W        W38017  24.494   6.882  13.840
66402W        W38018  27.689  41.375   2.866
66403W        W38019  30.140  32.189  12.501
66404W        W38020  36.912  30.663   2.741
66405W        W38021  36.029  18.608  13.399
66406W        W38022  30.267  29.961   0.958
66407W        W38023  21.529   6.449  13.505
66408W        W38024  39.527  11.370   2.770
66409W        W38025   5.329  32.393  12.437
66410W        W38026  22.940  26.691   3.033
66411W        W38027  17.879  15.525  12.230
66412W        W38028  27.331  40.875  11.519
66413W        W38029  11.610  35.346  13.384
66414W        W38030  42.276  40.121  13.702
66415W        W38031   9.917  33.487   5.001
66416W        W38032  20.261  19.295  13.454
66417W        W38033   3.893  17.790  11.992
66418W        W38034  39.949  20.915  14.784
66419W        W38035  24.043  19.623  14.865
66420W        W38036   3.982  31.905   5.077
66421W        W38037  14.834   8.863   3.217
66422W        W38038  30.862  16.547  12.099
66423W        W38039  13.576  15.746   0.851
66424W        W38040   4.346  19.265  14.221
66425W        W38041  11.278   4.187  12.029
66426W        W38042  10.868  17.039  12.023
66427W        W38043  24.701   8.298   2.379
66428W        W38044   9.024  23.671   1.670
66429W        W38045  44.192   5.554   5.012
66430W        W38046   8.679  36.832   3.765
66431W        W38047  33.532  20.554   2.335
66432W        W38048  11.166  20.538   0.358
66433W        W38049  14.686   3.699  11.452
66434W        W38050   1.461  36.205   2.705
66435W        W38051   6.571  14.593  11.160
66436W        W38052   2.520   9.040  13.094
66437W        W38053   5.332  23.044   0.299
66438W        W38054  40.207  36.907  14.905
66439W        W38055   9.965  12.914   3.205
66440W        W38056  29.206  13.730  10.402
66441W        W38057  24.627  15.588   0.900
66442W        W38058  10.606  42.807  13.259
66443W        W38059  32.921  42.434   0.391
66444W        W38060  17.602  13.001   2.046
66445W        W38061  16.580  15.627  14.072
66446W        W38062  13.253  16.286  12.469
66447W        W38063  32.486  39.543   2.216
66448W        W38064  35.548   3.712   2.364
66449W        W38065  37.619  10.997  12.530
66450W        W38066  20.608   9.456  14.307
66451W        W38067  43.792   7.781   1.231
66452W        W38068  36.682   8.311   0.298
66453W        W38069  39.850  30.512   0.370
66454W        W38070  31.549  25.838   0.015
66455W        W38071  34.833  25.050  13.372
66456W        W38072  39.448  43.860   3.350
66457W        W38073  10.131  17.119   4.204
66458W        W38074  21.096  44.429   3.401
66459W        W38075  39.526  24.112  13.732
66460W        W38076  27.364   8.516   2.804
66461W        W38077  36.373  27.630  13.115
66462W        W38078  24.799  24.345  11.138
66463W        W38079  33.340  27.438   0.814
66464W        W38080  13.463  32.322  11.415
66465W        W38081  13.560  29.877  14.217
66466W        W38082  43.954  33.250  10.986
66467W        W38083  37.860  36.025   0.484
66468W        W38084   7.656  19.654   3.188
66469W        W38085   0.549   8.537  11.163
66470W        W38086  20.060  39.307   0.046
66471W        W38087   0.645  20.523  11.071
66472W        W38088  35.564  29.135   2.394
66473W        W38089  18.263  21.651  13.488
66474W        W38090  38.298  19.637  11.980
66475W        W38091  13.341   6.654   1.429
66476W        W38092  44.391  31.672   4.809
66477W        W38093  15.663  17.626  14.548
66478W        W38094  27.672   6.052   0.907
66479W        W38095  42.014   7.683   3.107
66480W        W38096  44.006  17.658   2.248
66481W        W38097   3.312  33.438  14.367
66482W        W38098   1.928  42.241   2.176
66483W        W38099  21.812  40.987  14.067
66484W        W38100  21.443  27.044  12.384
66485W        W38101  43.340  35.397  13.608
66486W        W38102  20.197  28.863  14.791
66487W        W38103  31.048  26.759   1.481
66488W        W38104  21.341  30.929  11.343
66489W        W38105  33.311  33.428  12.609
66490W        W38106  19.074  22.224  13.088
66491W        W38107  33.427  40.321   4.517
66492W        W38108  17.873   3.705  11.455
66493W        W38109  36.461  27.552  14.627
66494W        W38110  40.072  20.257   4.719
66495W        W38111  20.080  25.863  12.387
66496W        W38112  27.265   2.188  12.229
66497W        W38113  33.182   5.257   0.460
66498W        W38114   3.682  25.895  12.584
66499W        W38115   1.330   5.208  11.382
66500W        W38116  28.134   9.806  14.039
66501W        W38117  44.905  22.904   4.680
66502W        W38118  31.058  26.108  12.544
66503W        W38119   9.344  14.682   3.374
66504W        W38120  11.291  42.552   4.082
66505W        W38121  31.680   8.666   0.633
66506W        W38122  22.283   2.972   2.766
66507W        W38123  44.975  34.410  14.527
66508W        W38124   7.883  23.161  10.799
66509W        W38125  10.662  23.312  11.896
66510W        W38126  36.051   6.977   4.096
66511W        W38127  16.125  15.850   3.809
66512W        W38128  14.115  38.140  12.712
66513W        W38129   6.235  26.542  13.209
66514W        W38130  25.963  16.085  13.477
66515W        W38131   9.415  39.032   2.403
66516W        W38132  31.271  13.730   1.871
66517W        W38133   3.907  41.387   3.195
66518W        W38134  38.129  41.809   0.812
66519W        W38135   7.756  15.831   3.167
66520W        W38136   7.240   3.310  11.624
66521W        W38137  31.003  32.059  14.347
66522W        W38138   5.247   9.405   1.928
66523W        W38139  44.348  37.088   1.435
66524W        W38140  20.328  23.352  14.011
66525W        W38141  42.690  23.740   0.199
66526W        W38142  21.578  24.658  11.587
66527W        W38143  14.805  28.014  10.808
66528W        W38144  26.612  11.335   2.621
66529W        W38145   3.776  11.348   1.027
66530W        W38146  43.585  32.593   1.891
66531W        W38147  13.845  17.371  10.652
66532W        W38148   3.944  29.191  10.710
66533W        W38149  18.283  22.670  13.049
66534W        W38150  21.452  21.712  11.405
66535W        W38151  39.498  25.104   1.751
66536W        W38152  11.117  33.021   4.070
66537W        W38153  15.537  23.876  13.460
66538W        W38154  28.742   7.173  13.834
66539W        W38155  15.526  40.378  11.887
66540W        W38156  26.128   4.305  12.615
66541W        W38157  14.586  10.167   1.041
66542W        W38158  40.087  11.759   1.775
66543W        W38159  17.283  39.372  11.071
66544W        W38160  29.931  26.861   5.070
66545W        W38161  31.382  19.230  12.054
66546W        W38162  34.079   4.961   2.405
66547W        W38163  10.066  32.038   1.396
66548W        W38164  29.628  29.100   0.837
66549W        W38165   5.536  22.099   2.257
66550W        W38166  34.549  35.991   3.843
66551W        W38167  29.787  18.837   0.962
66552W        W38168  16.292  36.066  13.378
66553W        W38169  26.003  39.677   3.713
66554W        W38170  39.840  35.510   3.761
66555W        W38171  29.167  11.638  12.500
66556W        W38172  41.001   5.745   2.872
66557W        W38173  31.196  43.807   3.303
66558W        W38174  10.177  32.917   4.133
66559W        W38175  14.014   5.203  13.923
66560W        W38176  15.680  16.702  14.827
66561W        W38177  33.056  29.007   4.847
66562W        W38178  24.020  44.749  12.881
66563W        W38179  10.059  40.035  13.065
66564W        W38180  17.386  43.907  10.864
66565W        W38181  38.975   0.505   1.161
66566W        W38182   1.080  27.287  11.629
66567W        W38183  33.314  43.508   1.886
66568W        W38184  21.579   5.942  12.689
66569W        W38185  14.845  44.569   2.457
66570W        W38186  44.011  38.089   0.685
66571W        W38187  31.138  36.383   3.080
66572W        W38188  25.231  16.996   3.210
66573W        W38189  13.031  22.642  13.334
66574W        W38190  35.382  38.506   2.344
66575W        W38191  10.033  43.131  10.997
66576W        W38192  41.134  22.600   0.632
66577W        W38193  17.258  37.515  13.839
66578W        W38194  32.126   8.520   3.538
66579W        W38195  30.676  31.445  13.326
66580W        W38196  20.113  13.662  12.982
66581W        W38197  40.966  27.601  14.771
66582W        W38198  22.068   9.266   1.128
66583W        W38199  23.969  41.232  14.309
66584W        W38200  33.222  34.381   3.320
66585W        W38201  16.463   5.729  12.872
66586W        W38202  26.085  36.452   0.917
66587W        W38203  21.495  35.764  12.547
66588W        W38204   1.473  40.521   3.077
66589W        W38205   3.680   7.763  14.550
66590W        W38206  29.959  27.818  14.328
66591W        W38207  24.468  43.505  11.105
66592W        W38208  29.987  23.512  11.542
66593W        W38209  23.651   3.330   1.396
66594W        W38210  23.927   7.041   0.715
66595W        W38211  41.566   5.718  12.798
66596W        W38212   9.219  23.538  12.296
66597W        W38213  21.453   7.796  13.410
66598W        W38214  19.572  34.005   3.769
66599W        W38215  32.599  41.011   4.921
66600W        W38216  11.987  40.330   4.807
66601W        W38217  32.185  11.126   3.306
66602W        W38218   5.604   8.458   3.695
66603W        W38219  35.738  26.465   4.011
66604W        W38220  44.011  23.715   0.740
66605W        W38221  44.601  12.353  10.983
66606W        W38222   7.211  12.625  12.377
66607W        W38223   5.083   3.517   3.775
66608W        W38224  32.477  17.547   2.911
66609W        W38225  41.581  14.311   1.783
66610W        W38226   7.463  33.601   0.939
66611W        W38227  13.217  42.348  12.460
66612W        W38228  15.787  18.680   5.025
66613W        W38229   8.447   5.328  13.098
66614W        W38230  30.105  40.857  13.594
66615W        W38231   2.968  23.008  12.998
66616W        W38232  32.164  13.313  12.899
66617W        W38233  23.825   7.830   2.779
66618W        W38234  12.176   5.270  14.411
66619W        W38235   5.122  36.505   1.663
66620W        W38236   8.129  31.024   3.971
66621W        W38237  36.976   6.174   3.065
66622W        W38238   8.300  42.387  11.134
66623W        W38239   6.572   3.149  13.377
66624W        W38240  34.626  25.682   1.357
66625W        W38241  38.786   0.907  13.909
66626W        W38242  26.750  18.378  12.137
66627W        W38243  33.875  26.917  10.627
66628W        W38244   0.169  44.728  14.112
66629W        W38245  19.097   7.455  10.983
66630W        W38246  36.903  13.042  12.047
66631W        W38247  44.491   3.398   2.564
66632W        W38248  19.858   6.894   3.652
66633W        W38249  36.316  30.745  10.355
66634W        W38250   4.643  13.852   1.402
66635W        W38251  14.565   6.623  12.282
66636W        W38252   6.853  11.422  10.544
66637W        W38253  41.406  39.008   0.638
66638W        W38254  29.657   3.542   4.230
66639W        W38255  42.559  40.310  14.873
66640W        W38256  32.008  39.338   2.314
66641W        W38257   1.241  40.506  13.342
66642W        W38258   1.965  13.125   0.005
66643W        W38259   7.157  22.169  14.306
66644W        W38260  41.987  20.100  13.406
66645W        W38261  18.352  35.915  10.286
66646W        W38262   9.909  10.446   1.942
66647W        W38263  14.751  41.983  14.598
66648W        W38264   3.255  36.049  13.807
66649W        W38265   9.726  37.901   3.412
66650W        W38266  17.767  34.327   0.338
66651W        W38267  28.235   0.463  11.066
66652W        W38268  17.652  34.529  14.838
66653W        W38269  43.338   7.447  10.678
66654W        W38270  13.049   2.423   2.739
66655W        W38271  36.813  13.880   1.647
66656W        W38272  10.631  11.841  13.377
66657W        W38273  10.356  36.021   4.698
66658W        W38274  33.650  16.923  10.014
66659W        W38275   2.764  19.541  13.352
66660W        W38276  29.014  43.788   1.807
66661W        W38277  19.188  22.631  10.760
66662W        W38278   5.464  38.664   1.295
66663W        W38279  32.510   1.802  11.132
66664W        W38280   7.873  30.693   0.779
66665W        W38281  28.956  22.101   0.217
66666W        W38282  37.812   2.387  14.331
66667W        W38283   5.875  10.696   1.687
66668W        W38284  29.128  10.374  13.360
66669W        W38285  24.253  43.035   0.911
66670W        W38286  33.965  24.642   2.377
66671W        W38287  19.114  40.778  12.669
66672W        W38288  25.520   7.141  11.964
66673W        W38289  11.492   3.773  11.184
66674W        W38290   2.978   4.201  12.499
66675W        W38291  43.211   6.345   2.611
66676W        W38292  41.826  24.963  11.510
66677W        W38293  37.321  29.872  11.174
66678W        W38294  42.515  31.167   1.241
66679W        W38295   3.620  35.956   1.258
66680W        W38296  17.684   2.884   3.277
66681W        W38297  43.737  11.133   4.461
66682W        W38298   8.259  43.007   0.210
66683W        W38299   8.954  43.348  13.307
66684W        W38300  21.052  12.768   0.759
66685W        W38301  28.001  36.955  10.793
66686W        W38302  44.847  19.009   0.300
66687W        W38303  42.542   9.231  10.459
66688W        W38304  26.710  32.930   1.389
66689W        W38305   1.454  16.222  13.312
66690W        W38306   2.299   2.992  11.680
66691W        W38307  40.992  33.937   1.864
66692W        W38308  26.386  35.019   0.923
66693W        W38309  35.609  29.451  13.991
66694W        W38310  44.531  42.208   2.877
66695W        W38311  14.898  27.731  14.458
66696W        W38312  27.734  10.749  14.724
66697W        W38313   0.721  30.983  10.870
66698W        W38314   4.819   1.838   3.161
66699W        W38315  15.368  36.029   0.281
66700W        W38316   6.430  44.323  12.575
66701W        W38317   6.185  25.183   2.237
66702W        W38318   7.458   9.760  14.477
66703W        W38319  10.786   5.858   4.660
66704W        W38320   3.771  14.218  11.981
66705W        W38321   2.481  27.005   0.755
66706W        W38322  30.872  40.432  13.404
66707W        W38323  12.687  26.439  12.883
66708W        W38324  22.005  15.801  13.313
66709W        W38325  44.804  12.880  13.094
66710W        W38326  37.397  33.460  14.059
66711W        W38327   1.385  28.203   1.331
66712W        W38328   3.871  39.770   2.301
66713W        W38329  43.262  12.743   3.836
66714W        W38330   0.450  28.503  13.445
66715W        W38331   5.758   4.900   0.377
66716W        W38332  40.304   8.241   1.351
66717W        W38333  32.807  28.948  13.559
66718W        W38334  26.998   9.608  14.053
66719W        W38335  31.621  17.743   1.803
66720W        W38336  14.041  37.528  13.401
66721W        W38337  39.871  11.257   0.290
66722W        W38338  23.112   8.363  11.229
66723W        W38339  19.839  22.656  13.932
66724W        W38340  10.515   0.001  13.563
66725W        W38341  13.890  17.749  11.057
66726W        W38342  23.032  29.052  13.765
66727W        W38343  28.890   1.172   0.214
66728W        W38344  39.554  40.300   1.188
66729W        W38345  28.695  21.870  11.972
66730W        W38346   8.706  43.309   0.071
66731W        W38347  40.606  29.095   1.676
66732W        W38348  16.203  32.507  13.866
66733W        W38349   5.925  18.259   2.748
66734W        W38350  21.148  31.977  12.621
66735W        W38351  27.264  30.857  14.839
66736W        W38352   2.171  39.713  11.227
66737W        W38353  40.417  44.323   2.212
66738W        W38354  22.460   5.873  10.748
66739W        W38355   3.207  31.119   3.627
66740W        W38356  34.083   5.635   0.387
66741W        W38357  38.754  16.681  14.056
66742W        W38358   3.679  12.126  13.009
66743W        W38359  11.210  26.703  14.512
66744W        W38360  41.969   0.426  14.509
66745W        W38361  13.810  20.694  13.805
66746W        W38362   5.775  27.914   1.859
66747W        W38363   1.837  30.536   1.172
66748W        W38364   0.972  27.028  11.197
66749W        W38365  38.503  34.026  12.132
66750W        W38366  44.830  13.851  13.267
66751W        W38367  28.520  31.710   0.141
66752W        W38368  34.085  23.252  13.527
66753W        W38369  36.646  37.276  12.459
66754W        W38370  37.995  44.004   0.986
66755W        W38371  30.733  32.957   1.369
66756W        W38372  36.619  26.743   4.158
66757W        W38373  36.280  25.683  12.083
66758W        W38374  16.043  14.892   0.366
66759W        W38375   3.730   2.412   2.851
66760W        W38376  24.541  25.378  14.104
66761W        W38377  13.227  36.472  14.281
66762W        W38378  17.351   1.962  12.964
66763W        W38379  36.542  13.763   4.401
66764W        W38380  42.362  41.390   4.599
66765W        W38381  14.753  23.521  13.681
66766W        W38382  12.207  27.300  10.640
66767W        W38383  34.865  25.469  10.723
66768W        W38384  40.780  19.344   2.216
66769W        W38385   6.105  11.184  13.376
66770W        W38386  26.373  12.252  12.421
66771W        W38387  26.497  41.510  10.655
66772W        W38388  29.941  15.532   4.158
66773W        W38389  36.682  41.790   0.725
66774W        W38390  44.528  29.592   3.788
66775W        W38391   4.813  23.734   1.795
66776W        W38392  20.880   1.770   1.345
66777W        W38393   0.817   3.583  10.825
66778W        W38394  17.128  16.017   4.648
66779W        W38395  33.817  26.896  11.633
66780W        W38396  27.601  18.632   4.990
66781W        W38397  42.512  29.913   4.651
66782W        W38398   5.908  14.212  12.122
66783W        W38399  13.138   7.032   4.082
66784W        W38400  35.558  12.738   0.741
66785W        W38401  29.792  34.735   1.535
66786W        W38402   2.740   1.303  10.607
66787W        W38403  41.672   6.832  11.428
66788W        W38404  26.979   1.941   1.130
66789W        W38405  29.318  32.444   4.537
66790W        W38406  14.825  35.941   5.273
66791W        W38407  25.878  18.701   3.361
66792W        W38408  13.489  35.844  11.677
66793W        W38409  35.412   8.921   0.162
66794W        W38410  34.939   5.054  11.563
66795W        W38411  34.968  43.528   0.314
66796W        W38412   5.267   7.645   1.275
66797W        W38413  26.995  26.656  10.758
66798W        W38414  21.981  42.604   4.462
66799W        W38415   0.995  38.416   0.869
66800W        W38416  36.141  18.553   3.200
66801W        W38417  34.640  29.655  13.828
66802W        W38418   3.375  35.073  13.297
66803W        W38419  30.109  22.778   4.394
66804W        W38420  34.283   7.486  12.878
66805W        W38421  30.622   4.005   2.766
66806W        W38422  11.409  16.974  11.994
66807W        W38423  40.038  30.964  12.001
66808W        W38424  26.109  36.127   1.355
66809W        W38425   2.674  31.189  12.494
66810W        W38426  11.393  27.522  14.124
66811W        W38427  33.000   8.401  13.337
66812W        W38428  15.113  20.620  12.492
66813W        W38429  22.215  31.043   1.844
66814W        W38430   9.207  15.865   1.277
66815W        W38431  41.771  19.200   2.198
66816W        W38432  28.613  19.122  14.419
66817W        W38433  19.553   2.413  12.682
66818W        W38434  23.014  33.540   1.905
66819W        W38435  14.290   1.984  10.724
66820W        W38436   1.780  14.616   4.065
66821W        W38437  26.579  15.742   2.708
66822W        W38438  22.815  24.991   1.101
66823W        W38439  22.235  44.330  12.429
66824W        W38440  11.108  39.126  12.250
66825W        W38441   4.030  23.959   5.072
66826W        W38442   2.323  16.269  13.777
66827W        W38443  17.839   7.494   3.071
66828W        W38444  38.967  23.527   0.976
66829W        W38445   3.703  39.000  10.671
66830W        W38446  40.344  28.596  11.574
66831W        W38447  37.468  41.572   0.484
66832W        W38448   0.971  32.379  11.624
66833W        W38449  41.840  30.608   3.250
66834W        W38450  29.522  18.143   1.746
66835W        W38451   5.143   8.719   4.168
66836W        W38452  31.544  25.680   1.422
66837W        W38453  34.464  18.876   4.530
66838W        W38454  11.744  36.137  12.153
66839W        W38455  35.503  34.968   1.021
66840W        W38456  30.061  40.347   0.919
66841W        W38457  28.662  12.781  11.629
66842W        W38458  40.815  18.865  13.587
66843W        W38459  15.664  19.286  13.428
66844W        W38460  30.849  37.443   2.253
66845W        W38461  24.697  37.067   2.724
66846W        W38462  24.584  28.596  14.397
66847W        W38463  18.762  12.677   4.098
66848W        W38464   8.953   9.223   4.598
66849W        W38465  24.912  20.206   0.205
66850W        W38466   3.461  29.350   1.456
66851W        W38467  37.360   0.621  12.854
66852W        W38468  32.415  24.419   2.563
66853W        W38469   7.220  44.563   0.788
66854W        W38470   3.330  40.043  12.585
66855W        W38471   3.682  27.998  13.143
66856W        W38472  17.234  36.930  14.573
66857W        W38473   1.513  18.411   0.767
66858W        W38474  36.859  34.830  11.617
66859W        W38475  29.737  36.368   3.311
66860W        W38476  11.348  14.249   0.424
66861W        W38477  39.223   0.053   3.691
66862W        W38478  40.993  10.171  12.311
66863W        W38479  26.167  26.133   0.206
66864W        W38480  31.681  11.381  13.318
66865W        W38481  18.012  41.437   4.795
66866W        W38482  39.081  25.284  12.943
66867W        W38483  37.483   2.847  12.725
66868W        W38484  13.165   8.347  10.696
66869W        W38485  15.764  13.160   0.923
66870W        W38486  36.444  37.633  13.325
66871W        W38487   8.005   1.166  11.653
66872W        W38488  37.589  12.748  12.042
66873W        W38489  33.562  27.359  12.397
66874W        W38490  14.528  30.897   1.975
66875W        W38491  19.295  34.981  14.815
66876W        W38492  29.572  37.445  14.496
66877W        W38493  27.497  11.437  10.605
66878W        W38494  15.793  40.834   1.982
66879W        W38495  32.578  31.199   3.175
66880W        W38496  43.651   7.286  10.250
66881W        W38497  20.303  26.514  13.852
66882W        W38498   4.340   9.822  14.573
66883W        W38499  41.770  43.212   0.258
66884W        W38500  20.445  26.916   4.623
66885W        W38501   3.847   1.463   3.188
66886W        W38502  35.407  13.947   2.207
66887W        W38503  25.905   8.328   4.627
66888W        W38504  30.693  23.802  14.200
66889W        W38505  37.806  32.227   0.548
66890W        W38506  25.480   6.417  11.190
66891W        W38507  38.053  32.086   3.727
66892W        W38508   5.778   8.678   0.878
66893W        W38509  21.587  27.398  12.025
66894W        W38510   0.765  34.984  11.623
66895W        W38511  34.634  10.386  11.918
66896W        W38512  22.263  14.836   3.713
66897W        W38513  33.644  18.639   0.876
66898W        W38514  26.665  20.020  11.140
66899W        W38515  27.074  17.060   1.854
66900W        W38516  43.689  42.999   0.341
66901W        W38517  36.930  30.225  14.734
66902W        W38518  37.319  35.065  12.936
66903W        W38519   3.584  38.418   3.417
66904W        W38520  25.047  43.396   1.473
66905W        W38521  22.079  18.640  10.934
66906W        W38522  42.270  26.079   2.470
66907W        W38523   8.624   4.835  14.116
66908W        W38524   6.872   2.794   4.545
66909W        W38525  35.575   2.656  13.084
66910W        W38526  40.564  10.196   3.559
66911W        W38527  22.092   9.345  12.038
66912W        W38528  16.172  15.723   2.423
66913W        W38529  39.465  19.607  11.702
66914W        W38530  24.976  23.692   4.390
66915W        W38531  13.367  25.427  12.572
66916W        W38532  40.479  34.591   2.956
66917W        W38533  40.410   0.769   3.316
66918W        W38534  36.900  20.387  11.936
66919W        W38535   9.253   7.110   1.710
66920W        W38536  25.652  11.797  13.825
66921W        W38537  26.005   1.717   4.199
66922W        W38538   6.934  13.203  12.049
66923W        W38539  40.527  44.860   1.315
66924W        W38540  33.403  21.244   4.051
66925W        W38541   7.229  22.224   0.234
66926W        W38542   6.616  25.463  12.413
66927W        W38543  15.218  23.684   2.860
66928W        W38544   4.531  35.478   1.397
66929W        W38545  25.121  37.904   1.408
66930W        W38546  31.164  26.949   9.933
66931W        W38547  11.641   7.201  11.205
66932W        W38548   7.161  15.812  12.515
66933W        W38549  32.725  35.767  13.826
66934W        W38550  37.748  22.509  13.507
66935W        W38551  11.919   0.893  10.715
66936W        W38552  40.515  28.116   4.035
66937W        W38553  41.855   8.483  10.703
66938W        W38554  43.342  20.571   3.320
66939W        W38555  17.049  38.927   2.881
66940W        W38556   0.990  18.711  11.702
66941W        W38557  22.464   2.764  13.511
66942W        W38558  12.263  33.879  10.169
66943W        W38559  32.739   0.433  13.038
66944W        W38560  23.582   3.998   2.169
66945W        W38561  36.578   9.609  10.550
66946W        W38562  39.056  37.060   1.673
66947W        W38563  43.008  39.892  10.865
66948W        W38564   0.375  41.749  14.032
66949W        W38565  38.039   3.498   2.294
66950W        W38566  16.141  35.914   3.615
66951W        W38567  15.329  40.340   0.962
66952W        W38568  24.630  27.524   0.927
66953W        W38569   3.400  25.160   1.294
66954W        W38570  37.376  37.817  14.323
66955W        W38571  25.411   5.963  13.949
66956W        W38572  23.002  32.057   3.234
66957W        W38573   2.330   9.234   1.273
66958W        W38574  27.697  37.019  13.256
66959W        W38575  23.206  22.182  10.695
66960W        W38576   0.423  16.525   1.233
66961W        W38577  39.788  40.498  14.104
66962W        W38578  20.054   0.299   2.385
66963W        W38579  22.238  32.760   2.642
66964W        W38580   6.138  31.335  14.099
66965W        W38581  34.425  23.158  14.475
66966W        W38582  38.639  34.601   3.187
66967W        W38583  38.467  39.031   0.820
66968W        W38584  26.419  33.491  12.781
66969W        W38585   7.637  33.468  14.000
66970W        W38586  39.314  36.470   4.096
66971W        W38587  39.401  34.879   0.407
66972W        W38588  13.183  19.167  12.045
66973W        W38589  31.166  13.500  11.554
66974W        W38590  33.943   9.730   3.356
66975W        W38591  27.926  21.879   2.873
66976W        W38592  24.470  22.994   1.810
66977W        W38593  33.244  39.652   5.148
66978W        W38594   0.977  39.036  14.345
66979W        W38595  30.381  21.114   1.523
66980W        W38596  16.658  11.610   4.409
66981W        W38597  34.111  24.310   3.666
66982W        W38598  25.241  13.303  10.753
66983W        W38599  20.794  30.553   3.341
66984W        W38600  41.073  33.048   0.456
66985W        W38601  33.957   1.485   4.426
66986W        W38602  38.851  38.965   4.607
66987W        W38603   2.465  13.141   4.160
66988W        W38604   3.993  41.021   0.223
66989W        W38605  28.368   3.874  14.562
66990W        W38606   1.399  14.127  11.682
66991W        W38607  25.216   5.828   4.504
66992W        W38608  19.638   4.752   4.822
66993W        W38609   6.608  28.363  12.977
66994W        W38610  40.343  37.334   1.806
66995W        W38611   7.915  28.379  10.998
66996W        W38612  34.354  20.315   4.292
66997W        W38613  21.570  29.408   0.467
66998W        W38614   4.705   3.144   3.823
66999W        W38615  38.864  26.670   3.156
67000W        W38616   5.721   1.872  13.486
67001W        W38617  33.989  16.225   1.837
67002W        W38618  26.423  24.226   1.814
67003W        W38619  35.357  22.966  11.152
67004W        W38620  38.272   9.926  13.392
67005W        W38621  42.493  28.500   2.032
67006W        W38622  18.617  40.938   4.329
67007W        W38623  42.206  15.359  12.345
67008W        W38624  21.692  37.283   0.791
67009W        W38625  37.145   1.818   0.515
67010W        W38626  10.929  12.511  12.922
67011W        W38627   6.283  37.533   1.819
67012W        W38628   5.567  16.357   2.710
67013W        W38629  17.626   2.410  13.873
67014W        W38630   9.318  37.447  11.473
67015W        W38631  35.573  15.133   0.694
67016W        W38632   4.825  29.536   4.868
67017W        W38633  21.058  26.226  10.302
67018W        W38634  38.850   9.516   0.891
67019W        W38635  19.993  12.400   2.620
67020W        W38636  32.511  23.470   4.131
67021W        W38637  10.490  39.216   1.628
67022W        W38638  31.648  42.198  11.589
67023W        W38639  13.923  15.714  13.335
67024W        W38640  39.348   1.788  14.886
67025W        W38641  15.774  23.012  14.397
67026W        W38642  25.757  44.953  13.185
67027W        W38643  24.755  31.113  12.087
67028W        W38644  22.563  14.579   2.248
67029W        W38645  14.511  28.954   3.748
67030W        W38646   0.017   4.081   2.371
67031W        W38647  17.950  33.564  12.762
67032W        W38648  39.840  16.119  13.980
67033W        W38649  27.680   5.247   3.712
67034W        W38650  28.075  41.882  11.069
67035W        W38651  15.928  20.577   4.750
67036W        W38652  25.727  34.776   2.813
67037W        W38653   1.641  22.106   5.627
67038W        W38654  22.828  11.365  13.899
67039W        W38655  41.522   1.716  12.984
67040W        W38656  11.329  40.342  13.490
67041W        W38657  19.571   9.894  13.567
67042W        W38658  29.981  11.339   3.261
67043W        W38659  42.301  31.822  13.951
67044W        W38660  26.944   9.198   0.822
67045W        W38661  39.438  16.077   3.380
67046W        W38662  28.478   4.608   2.434
67047W        W38663   9.726   5.206   2.908
67048W        W38664  26.576  28.606   1.456
67049W        W38665  12.936  22.604   2.942
67050W        W38666  19.161  43.533   5.588
67051W        W38667  24.272  38.582  11.035
67052W        W38668  26.079  33.154   1.323
67053W        W38669   7.210  41.714   0.345
67054W        W38670   7.258  21.968   1.876
67055W        W38671  38.525  20.021   3.333
67056W        W38672  23.119  18.231   1.946
67057W        W38673   5.473  21.769   4.439
67058W        W38674  20.193   3.258   1.455
67059W        W38675  24.956  31.454  13.976
67060W        W38676   2.445  27.578  11.504
67061W        W38677  25.999  40.970  11.730
67062W        W38678   3.276  22.639   1.826
67063W        W38679   9.370  29.577   3.319
67064W        W38680   2.399  39.349   4.185
67065W        W38681  18.524  41.283   1.266
67066W        W38682  30.048  22.529   3.736
67067W        W38683  31.121  41.431   1.350
67068W        W38684   7.350  19.034  10.719
67069W        W38685  40.512  15.947  10.263
67070W        W38686  44.423  27.652  11.434
67071W        W38687  40.927   6.918   1.803
67072W        W38688  37.063  15.514   4.221
67073W        W38689  39.050  19.141  11.123
67074W        W38690  14.167  14.132   0.021
67075W        W38691  22.650  21.588  11.122
67076W        W38692   3.279  44.986  11.136
67077W        W38693   0.379  31.554   2.326
67078W        W38694  38.451  21.022   3.243
67079W        W38695   7.477  16.560  12.032
67080W        W38696  31.231   0.419  13.097
67081W        W38697  36.673  10.812   2.800
67082W        W38698  17.268  12.388   2.745
67083W        W38699  30.289  17.083  14.330
67084W        W38700  22.396  43.289   4.169
67085W        W38701  12.266  44.058  10.937
67086W        W38702  31.987  25.026   2.622
67087W        W38703  15.235  24.652  14.318
67088W        W38704  12.742  42.002   3.728
67089W        W38705  24.470   2.381   0.069
67090W        W38706  24.006   4.948  11.617
67091W        W38707  29.204  37.278   2.639
67092W        W38708  39.959  13.424   0.250
67093W        W38709  20.045  14.836  12.954
67094W        W38710   8.447  10.227   4.153
67095W        W38711   3.206  39.395  14.308
67096W        W38712  24.049   4.418  13.373
67097W        W38713  25.183  42.375   2.931
67098W        W38714   9.071  43.879  13.299
67099W        W38715  28.476  22.448  14.521
67100W        W38716  17.545  11.629   4.726
67101W        W38717  16.039  23.075  12.916
67102W        W38718  14.101  24.706  11.397
67103W        W38719  27.022  17.540  13.109
67104W        W38720  38.579  24.112   0.289
67105W        W38721  17.556  37.014  10.964
67106W        W38722  13.386  20.179  12.735
67107W        W38723  21.533  37.915  14.391
67108W        W38724  24.034  30.695  11.717
67109W        W38725   9.645  38.843  13.654
67110W        W38726  30.611   8.149   2.257
67111W        W38727  41.873  44.380   5.111
67112W        W38728  32.153  36.394   1.896
67113W        W38729  27.717  13.579   0.806
67114W        W38730  17.716  20.249  10.604
67115W        W38731  37.867  19.287   2.273
67116W        W38732   7.447  22.081  13.283
67117W        W38733  39.048  11.924  10.984
67118W        W38734   9.271  29.587  12.860
67119W        W38735   5.391  13.185   4.392
67120W        W38736  14.722  43.819   2.241
67121W        W38737  36.227   6.228   0.803
67122W        W38738  20.139  20.609  13.858
67123W        W38739  36.743  20.580  14.390
67124W        W38740  24.721  32.814  12.826
67125W        W38741  22.833  20.219   0.137
67126W        W38742  22.199  42.840   0.948
67127W        W38743   4.011  43.828  14.112
67128W        W38744  26.017  43.440  14.181
67129W        W38745  39.416  22.804   1.215
67130W        W38746  23.705  35.435   0.917
67131W        W38747  26.103   5.349   2.148
67132W        W38748   9.192  22.569   0.850
67133W        W38749  21.745   7.317   1.296
67134W        W38750  35.973   1.503  11.898
67135W        W38751  38.975   6.365  12.395
67136W        W38752   5.368   9.422  11.451
67137W        W38753  28.384   7.711   1.274
67138W        W38754  33.469   3.360   2.739
67139W        W38755  25.046  34.354  10.622
67140W        W38756   8.654  16.318  12.034
67141W        W38757  10.778  16.322  14.405
67142W        W38758  17.320   0.933  12.595
67143W        W38759  27.218   4.962   4.590
67144W        W38760   4.959   8.245   5.015
67145W        W38761  10.671  38.257   1.862
67146W        W38762  18.236  29.936   2.280
67147W        W38763  13.154  44.875  11.868
67148W        W38764  31.658  22.477   1.282
67149W        W38765  16.974  28.390   2.000
67150W        W38766  29.318  21.526  11.581
67151W        W38767  21.615   7.628   3.274
67152W        W38768  28.762   5.472   2.091
67153W        W38769   1.885  39.382  10.475
67154W        W38770  36.491   1.965  10.818
67155W        W38771  19.009   1.319  11.137
67156W        W38772   7.653  34.112   4.631
67157W        W38773  36.680  34.930  12.389
67158W        W38774  18.592  26.182   4.294
67159W        W38775  14.109  10.288  12.457
67160W        W38776  25.141  40.948   4.777
67161W        W38777   4.201  10.551  10.680
67162W        W38778   1.478  18.818   4.464
67163W        W38779  25.505   5.412   0.949
67164W        W38780  16.070  17.058   2.638
67165W        W38781  16.764  43.428   4.059
67166W        W38782  12.064  28.822  10.686
67167W        W38783  44.717  31.916  13.838
67168W        W38784  34.017  17.620  10.697
67169W        W38785  42.713  20.524   4.143
67170W        W38786  15.614  19.724  11.913
67171W        W38787  35.951  15.746   9.949
67172W        W38788  31.960   3.791  13.400
67173W        W38789  33.021  23.790   2.025
67174W        W38790  13.378  41.964   3.257
67175W        W38791  23.259  20.877  14.614
67176W        W38792  33.238  35.533  14.505
67177W        W38793  16.304  34.988  10.570
67178W        W38794  29.651  15.281   0.406
67179W        W38795  30.960  22.301  10.700
67180W        W38796  13.378  24.947   1.426
67181W        W38797  11.688  42.923   0.847
67182W        W38798  15.636  42.367   5.032
67183W        W38799  26.937  17.141  12.418
67184W        W38800  31.202  36.993  11.178
67185W        W38801  42.414  15.234  12.831
67186W        W38802  34.624  13.783  12.185
67187W        W38803   4.782  30.501  10.195
67188W        W38804   4.251   5.361  13.682
67189W        W38805  15.412  13.243  11.158
67190W        W38806  17.244  34.330  13.869
67191W        W38807   8.221   0.344  11.964
67192W        W38808  22.528  42.444  13.055
67193W        W38809  21.792  20.255  14.942
67194W        W38810   5.161  34.029  12.092
67195W        W38811  21.632  43.536   3.337
67196W        W38812   4.767  39.855  12.522
67197W        W38813  42.893  29.392  12.308
67198W        W38814  18.771  21.155  14.906
67199W        W38815  44.743   8.389   4.999
67200W        W38816   8.951  44.855  12.088
67201W        W38817  42.885   3.373  14.421
67202W        W38818   9.877  43.920   4.286
67203W        W38819  38.289  43.677   4.043
67204W        W38820  27.565  18.242  11.522
67205W        W38821  38.053  12.767  14.408
67206W        W38822  31.401   6.326  12.046
67207W        W38823   4.184  29.079  11.153
67208W        W38824   9.882  44.186  13.430
67209W        W38825   0.012  37.004   0.484
67210W        W38826  24.232  34.979  13.595
67211W        W38827  29.418  27.198   4.338
67212W        W38828  25.913  17.808   1.497
67213W        W38829  10.119   2.305   4.559
67214W        W38830  10.338  25.129  10.970
67215W        W38831  40.789  19.240  11.760
67216W        W38832  16.594  44.811  14.320
67217W        W38833  22.970  11.352  10.794
67218W        W38834  36.556  22.507   2.300
67219W        W38835  30.659   5.748  11.548
67220W        W38836  32.519  10.193  14.477
67221W        W38837  42.531  20.825  14.288
67222W        W38838   4.663  13.123   2.814
67223W        W38839   0.813  13.477   4.651
67224W        W38840  32.442   9.657  10.977
67225W        W38841  22.486  31.048   3.604
67226W        W38842   1.522   9.522   1.787
67227W        W38843   5.851  24.268  11.308
67228W        W38844  38.396  35.446  13.787
67229W        W38845  40.206   3.208   4.050
67230W        W38846  15.662  27.580   1.678
67231W        W38847  31.334  24.473  11.491
67232W        W38848  33.958  44.893  12.163
67233W        W38849  12.141  36.223  13.477
67234W        W38850  10.196   0.718   4.579
67235W        W38851  26.585  40.368   0.815
67236W        W38852  28.928   0.846   4.581
67237W        W38853   0.358  16.039  11.804
67238W        W38854  15.123  44.824   0.486
67239W        W38855  11.673  36.068   4.277
67240W        W38856  25.949   6.650  11.181
67241W        W38857   2.987  19.660   0.301
67242W        W38858  20.149  22.111   1.869
67243W        W38859   0.379  24.029  13.492
67244W        W38860  40.631  44.294   2.718
67245W        W38861  28.451   7.992   0.619
67246W        W38862  20.460  21.139   0.952
67247W        W38863  25.414  33.787   0.887
67248W        W38864  35.656   4.304   0.317
67249W        W38865  24.638   0.831  14.207
67250W        W38866  33.155  40.901  14.424
67251W        W38867  32.977  35.528   4.647
67252W        W38868  20.773   9.046   3.921
67253W        W38869  18.703  41.493   2.602
67254W        W38870  24.199  23.008  13.187
67255W        W38871  24.768  10.501   3.362
67256W        W38872   4.825  42.912   3.276
67257W        W38873   2.326  34.778  14.061
67258W        W38874  10.910  25.030  11.173
67259W        W38875   4.332  32.898  10.777
67260W        W38876   1.782  29.598  10.823
67261W        W38877  13.271  13.062   0.242
67262W        W38878  19.998  18.685   2.150
67263W        W38879  40.889   7.309   2.804
67264W        W38880   8.323  28.041  11.037
67265W        W38881  40.990  39.557  11.651
67266W        W38882   8.223  11.105   0.064
67267W        W38883  19.816  26.136   0.247
67268W        W38884   2.379  19.661  12.008
67269W        W38885  25.699  43.431   3.702
67270W        W38886  28.556  27.693   2.408
67271W        W38887  15.092   8.433  11.592
67272W        W38888  11.495  21.812   1.790
67273W        W38889  43.854  18.317  13.326
67274W        W38890  21.945   1.009   3.115
67275W        W38891  15.738   0.746   4.052
67276W        W38892  40.320   5.382  13.674
67277W        W38893   5.528  25.154   2.653
67278W        W38894  39.873  12.962   3.099
67279W        W38895  20.779  40.865   4.932
67280W        W38896  28.062  15.535  13.998
67281W        W38897  36.466  41.310  14.584
67282W        W38898  13.605  12.262  13.126
67283W        W38899  40.875  28.486  10.716
67284W        W38900  34.480  36.814  10.700
67285W        W38901  24.714   6.860   3.418
67286W        W38902  35.384   9.131  10.744
67287W        W38903  29.007  21.469  10.662
67288W        W38904   0.965  27.871  10.100
67289W        W38905  16.043  24.120   0.553
67290W        W38906  13.441  28.823   9.996
67291W        W38907  39.674  14.577   3.722
67292W        W38908  39.351  32.019  13.359
67293W        W38909  27.861  39.358  10.474
67294W        W38910  34.963   4.821  10.185
67295W        W38911  32.672  25.632  14.023
67296W        W38912  21.485  24.427   3.658
67297W        W38913  36.617  35.856  11.984
67298W        W38914  38.002  43.480   3.206
67299W        W38915  25.985  23.043   0.867
67300W        W38916  14.231   7.165  13.911
67301W        W38917  44.529  38.352   4.545
67302W        W38918  18.851  39.303   1.233
67303W        W38919  17.292  30.906  11.160
67304W        W38920  39.008  12.653  14.665
67305W        W38921  14.045  21.572   4.574
67306W        W38922  31.583  38.727   3.560
67307W        W38923  42.356  22.932   2.382
67308W        W38924  15.093   5.063   0.761
67309W        W38925  24.004  26.397   9.876
67310W        W38926  43.445  29.003   3.616
67311W        W38927  22.828  19.770   2.763
67312W        W38928  39.094  43.443  14.598
67313W        W38929   3.012  28.033  14.795
67314W        W38930  40.517   5.760   1.397
67315W        W38931   8.105  26.094  14.987
67316W        W38932  15.259   1.994  12.310
67317W        W38933  19.551   2.043  11.158
67318W        W38934  15.803  31.811  13.247
67319W        W38935  43.431   1.533   1.670
67320W        W38936   4.214  11.222  12.873
67321W        W38937  28.156   4.034  11.152
67322W        W38938   8.892  10.179   2.653
67323W        W38939  21.128  35.428  10.627
67324W        W38940  11.723  31.045  14.958
67325W        W38941  12.443  11.644   2.459
67326W        W38942  10.068  41.981  13.598
67327W        W38943   3.668  39.911   4.460
67328W        W38944   2.017  19.745  10.641
67329W        W38945   0.259  11.352  12.450
67330W        W38946  33.753  12.207   4.953
67331W        W38947   0.899   6.352   2.566
67332W        W38948   5.437  29.960  13.556
67333W        W38949  35.462  29.071   2.901
67334W        W38950  34.954  22.613  14.802
67335W        W38951  35.931  26.941  14.848
67336W        W38952  41.858   4.011  12.855
67337W        W38953  17.776  28.704  12.451
67338W        W38954  10.594  41.282  13.651
67339W        W38955  25.484  27.361  13.101
67340W        W38956  25.203  41.867   2.822
67341W        W38957  44.858  41.455  12.627
67342W        W38958  19.093   3.243   2.729
67343W        W38959  24.671   8.425   1.460
67344W        W38960  29.059   7.492   3.803
67345W        W38961  37.010  19.216  12.191
67346W        W38962  15.730  24.712  10.689
67347W        W38963  36.015  30.657   4.230
67348W        W38964  35.520  12.553   4.860
67349W        W38965   7.936  14.025  14.978
67350W        W38966  15.519   6.774   5.035
67351W        W38967   6.288   7.670   1.293
67352W        W38968   2.312  21.202  12.244
67353W        W38969  44.915  12.817   0.836
67354W        W38970  44.160  42.474   4.845
67355W        W38971  26.750  36.057  14.755
67356W        W38972  12.343  18.579  13.931
67357W        W38973  37.154  30.496  13.088
67358W        W38974  36.101   1.335   4.526
67359W        W38975  26.389  25.041   2.159
67360W        W38976  16.312  22.291   4.304
67361W        W38977  31.427  29.866  11.491
67362W        W38978  15.803  22.091  13.365
67363W        W38979  26.147  33.127  14.284
67364W        W38980   4.261  15.676  12.399
67365W        W38981  38.419  43.325   2.941
67366W        W38982  27.021  24.549  12.519
67367W        W38983   0.306  30.459  14.547
67368W        W38984  28.973  23.058  13.092
67369W        W38985   5.368  12.381  14.764
67370W        W38986   9.783  28.574  14.226
67371W        W38987  17.121  44.042   2.224
67372W        W38988  37.807  26.231   3.286
67373W        W38989  37.893   8.418  14.474
67374W        W38990   3.013  40.628  14.759
67375W        W38991  34.629  13.402  10.491
67376W        W38992  39.571  34.360   0.358
67377W        W38993  34.892  36.612   1.261
67378W        W38994   4.194  22.491   0.837
67379W        W38995  40.745   6.744  11.153
67380W        W38996  30.627  19.702  10.669
67381W        W38997  14.828  33.018  11.629
67382W        W38998  33.546  35.805   3.288
67383W        W38999  27.590   9.906   2.623
67384W        W39000  31.694  13.090   3.614
67385W        W39001  10.605  18.838   4.206
67386W        W39002   9.648   8.981  13.282
67387W        W39003   5.306  13.628   3.052
67388W        W39004  44.366  32.450   1.420
67389W        W39005  12.558  38.617   1.220
67390W        W39006  28.197  22.067  13.595
67391W        W39007  44.311  22.110  12.092
67392W        W39008  10.768  33.498  14.014
67393W        W39009  24.433  21.644  13.311
67394W        W39010  31.434   2.838  12.792
67395W        W39011  32.448  42.301   0.007
67396W        W39012  38.578   4.368   0.484
67397W        W39013  21.337   7.692  13.895
67398W        W39014  40.547  27.175   3.155
67399W        W39015  40.011  11.139   4.704
67400W        W39016  10.163  35.474  14.952
67401W        W39017  44.889  22.799  11.296
67402W        W39018  20.517   1.411   1.117
67403W        W39019   1.754   2.223   1.782
67404W        W39020  31.824  18.681  14.377
67405W        W39021  44.150  16.350   4.515
67406W        W39022  41.263  11.683   0.223
67407W        W39023   8.751  20.572   4.609
67408W        W39024  43.327   0.725  14.688
67409W        W39025  27.708  10.295  12.188
67410W        W39026  23.158  34.653   2.432
67411W        W39027   1.330  18.132  10.725
67412W        W39028  25.450  33.213   0.585
67413W        W39029  37.842  29.054   0.877
67414W        W39030   5.865  17.536  14.907
67415W        W39031   0.863   9.626  13.798
67416W        W39032  37.850  28.762   1.315
67417W        W39033   0.844  21.491   4.945
67418W        W39034   5.881  15.263   4.815
67419W        W39035  25.668  44.833   2.142
67420W        W39036   1.775  10.355   4.968
67421W        W39037   9.784  28.765  11.675
67422W        W39038  15.060  40.530   1.385
67423W        W39039  24.235   1.448   2.244
67424W        W39040  26.283  29.838   4.391
67425W        W39041  43.199  41.256  12.493
67426W        W39042   1.439  13.303   3.784
67427W        W39043  23.253  43.905  11.195
67428W        W39044  22.740  17.431   4.541
67429W        W39045  30.577  24.399   4.632
67430W        W39046  18.614  22.523   4.573
67431W        W39047  30.619  37.379  14.385
67432W        W39048   1.293  36.030   4.301
67433W        W39049  14.174  39.866   3.156
67434W        W39050  22.759  19.063  11.674
67435W        W39051  27.421  29.867   3.947
67436W        W39052  39.282   5.499  12.338
67437W        W39053  19.762  41.519   4.309
67438W        W39054  32.531  32.971  14.001
67439W        W39055  13.127   6.791   0.042
67440W        W39056  22.011  24.963   4.070
67441W        W39057  37.976  31.810   0.272
67442W        W39058  16.345  19.733   1.294
67443W        W39059  44.863  20.074   3.852
67444W        W39060  15.746  11.329   1.613
67445W        W39061  31.900   5.012   0.534
67446W        W39062  31.982  37.795   3.640
67447W        W39063   3.240  43.784  13.499
67448W        W39064  34.149  38.362   1.316
67449W        W39065  31.223  39.677   1.325
67450W        W39066  42.439  26.377   3.261
67451W        W39067  31.970  39.791   0.895
67452W        W39068  18.932   2.742   1.291
67453W        W39069   2.988  24.032   4.138
67454W        W39070  31.348   4.866  10.706
67455W        W39071  19.313  26.729   2.699
67456W        W39072   4.343  39.275  11.008
67457W        W39073   5.829  25.134  10.683
67458W        W39074  27.542  37.577  11.592
67459W        W39075  27.663  25.738  13.453
67460W        W39076   5.996  40.076   2.604
67461W        W39077  16.742   7.285  14.823
67462W        W39078   9.903  18.397  13.303
67463W        W39079  35.355  40.370  13.464
67464W        W39080  29.948  31.109   4.319
67465W        W39081  44.811  21.599  13.281
67466W        W39082  20.556  39.906  14.365
67467W        W39083  21.142  42.954  11.209
67468W        W39084  30.424   0.121  11.488
67469W        W39085  21.419  20.278  14.559
67470W        W39086  20.984  12.382   4.497
67471W        W39087  32.815  14.520   2.372
67472W        W39088  16.029  22.670  12.219
67473W        W39089  43.726   0.853   0.001
67474W        W39090   8.953  11.355  12.605
67475W        W39091  17.263  30.559  10.728
67476W        W39092   2.667  30.380   2.201
67477W        W39093  35.782  27.672  10.533
67478W        W39094  43.067  40.354  12.705
67479W        W39095  18.710   8.158   1.681
67480W        W39096   2.306  12.191   3.206
67481W        W39097  34.461  30.654   0.050
67482W        W39098   2.947  12.709  12.772
67483W        W39099  10.803  31.596  11.380
67484W        W39100   7.705  18.676   2.831
67485W        W39101  11.695  19.010   3.284
67486W        W39102  25.149  10.154  14.019
67487W        W39103   4.996  41.620   0.737
67488W        W39104   8.662  14.590   4.572
67489W        W39105   2.851  18.485  13.231
67490W        W39106  25.138  42.335  12.094
67491W        W39107  15.529  18.281   3.798
67492W        W39108   5.321  13.867  10.772
67493W        W39109   9.031   9.874  10.212
67494W        W39110   6.424  10.240   3.643
67495W        W39111  42.312   1.973  13.408
67496W        W39112   2.398  44.351   3.270
67497W        W39113  41.548  25.617  12.497
67498W        W39114  11.692   5.255   0.742
67499W        W39115  19.800  41.878   3.617
67500W        W39116  25.499  27.014   4.979
67501W        W39117  36.335  28.505   3.688
67502W        W39118  26.393  37.971   2.295
67503W        W39119   9.419   6.364  11.578
67504W        W39120  34.617  15.582   4.554
67505W        W39121  23.598   1.262   3.365
67506W        W39122   9.287   0.521  10.273
67507W        W39123  40.400  43.824   2.876
67508W        W39124  29.676  42.069   3.731
67509W        W39125  43.364  11.350  11.741
67510W        W39126  25.541   1.571   4.442
67511W        W39127   3.225   8.641  13.064
67512W        W39128  42.785   1.221  11.477
67513W        W39129   0.965  25.654  12.556
67514W        W39130  34.016  12.831   3.176
67515W        W39131  20.102  18.431  14.679
67516W        W39132   0.865   3.920   3.344
67517W        W39133  34.493  14.103   4.578
67518W        W39134  31.895  10.400  11.904
67519W        W39135  32.648   7.692   0.293
67520W        W39136  16.652  11.095  14.786
67521W        W39137  18.833  18.121   3.235
67522W        W39138  41.111   2.307   0.574
67523W        W39139  25.141  18.968  12.346
67524W        W39140  43.243  36.990  11.573
67525W        W39141  20.259   7.874   1.938
67526W        W39142  22.234   1.293   0.087
67527W        W39143  29.234  13.469   0.282
67528W        W39144  43.366  42.445  14.387
67529W        W39145  44.402   3.441  13.785
67530W        W39146  44.698   1.517   2.287
67531W        W39147  15.329  17.566  10.945
67532W        W39148  43.563  19.790  11.126
67533W        W39149  40.171  44.540   2.644
67534W        W39150  34.383   0.401   9.819
67535W        W39151  35.487   3.791   0.458
67536W        W39152   1.418   2.737  11.615
67537W        W39153  19.257   1.519   4.703
67538W        W39154  28.609   6.208   4.661
67539W        W39155  42.338  14.236  11.797
67540W        W39156  34.840   6.418   4.586
67541W        W39157  27.609  31.652   2.475
67542W        W39158  13.518  40.411   4.328
67543W        W39159  22.761  37.812   2.855
67544W        W39160   2.373  38.346   1.238
67545W        W39161  14.007  15.313  11.963
67546W        W39162  42.140   7.305   5.024
67547W        W39163  36.764  13.112   5.127
67548W        W39164  27.034   2.876  11.141
67549W        W39165   7.388  15.244   4.365
67550W        W39166  26.632   4.693   1.345
67551W        W39167  34.264  10.387  13.045
67552W        W39168  33.174  42.963  14.000
67553W        W39169  17.165  10.861  13.837
67554W        W39170   8.871   4.744  13.642
67555W        W39171   2.382  26.838  10.125
67556W        W39172  39.515  14.066   0.865
67557W        W39173  41.078  12.209   4.130
67558W        W39174  19.868  38.850  14.868
67559W        W39175  23.034  38.350   0.404
67560W        W39176  28.471   7.624   3.230
67561W        W39177   2.925  39.007  11.048
67562W        W39178  42.517  35.973  14.917
67563W        W39179  30.362   8.160  11.721
67564W        W39180  42.289  17.687   0.536
67565W        W39181  13.263  23.907   3.291
67566W        W39182   6.921  22.965   2.876
67567W        W39183  17.123  28.171  10.368
67568W        W39184  13.575  18.536  11.771
67569W        W39185   3.060  15.807  14.509
67570W        W39186  15.715  13.899  10.706
67571W        W39187  22.552  31.485   4.346
67572W        W39188   0.656   3.858   4.682
67573W        W39189  13.572  37.262  14.217
67574W        W39190  22.089  39.919   1.747
67575W        W39191  11.585  26.326  11.628
67576W        W39192  27.998  44.572  12.513
67577W        W39193   4.802   0.938  11.637
67578W        W39194  13.736  24.674  13.650
67579W        W39195  12.288  11.596   1.980
67580W        W39196  39.029   9.280  10.793
67581W        W39197  15.762  25.267   4.458
67582W        W39198  12.569   8.260   4.180
67583W        W39199  34.527  44.295   0.453
67584W        W39200   8.401  24.190   1.441
67585W        W39201  44.301  33.995   0.660
67586W        W39202  30.212  30.513  10.881
67587W        W39203  29.215  10.825  14.636
67588W        W39204  39.805  18.226   3.467
67589W        W39205   6.355  15.187  14.899
67590W        W39206  36.391  14.245  12.304
67591W        W39207  34.076  30.563  13.685
67592W        W39208   7.944  25.704   4.094
67593W        W39209   0.953  44.163  14.684
67594W        W39210  23.461  44.346  11.967
67595W        W39211  21.098  19.129   4.193
67596W        W39212   5.272  27.655  14.393
67597W        W39213  19.535   7.417  12.209
67598W        W39214  17.216  22.587   0.521
67599W        W39215  41.892  40.598  10.711
67600W        W39216  27.958  28.186   1.214
67601W        W39217  21.341  44.271  13.835
67602W        W39218  33.550  33.070   4.438
67603W        W39219  11.557  34.028  14.623
67604W        W39220  20.708  21.027  14.277
67605W        W39221   2.424   1.658  13.740
67606W        W39222   6.306  20.012  11.186
67607W        W39223  24.684  23.484  13.806
67608W        W39224  27.002  19.836  13.642
67609W        W39225  37.183  36.400  12.192
67610W        W39226  10.159  38.245   2.697
67611W        W39227  22.458  30.088   2.776
67612W        W39228  17.789   7.735   0.399
67613W        W39229  34.322  14.475  14.298
67614W        W39230   3.908  31.373   0.853
67615W        W39231  36.470  11.898   2.323
67616W        W39232  18.739  17.854   1.683
67617W        W39233   9.527  41.325   4.167
67618W        W39234  35.396  34.538   4.647
67619W        W39235  39.499  41.181   3.167
67620W        W39236  38.043  41.407  12.927
67621W        W39237  20.594  36.816  10.690
67622W        W39238  37.437  12.500   0.930
67623W        W39239  31.514   1.252   9.842
67624W        W39240  28.466  25.022  12.417
67625W        W39241  19.588  32.618  12.103
67626W        W39242   3.386  33.704  13.004
67627W        W39243  19.445  43.892   1.933
67628W        W39244  19.781   3.898  14.452
67629W        W39245  41.822   8.932   4.538
67630W        W39246  17.340  17.389  11.726
67631W        W39247  43.665  39.434   2.693
67632W        W39248   8.788   9.683  11.700
67633W        W39249  11.137  14.282   0.887
67634W        W39250  34.363  20.896   3.024
67635W        W39251  18.593  16.487  11.859
67636W        W39252   7.527  24.768   1.230
67637W        W39253   3.913  35.507  11.745
67638W        W39254  23.917  17.859   4.225
67639W        W39255   4.402  42.861   9.941
67640W        W39256  23.771   5.018   5.135
67641W        W39257   2.268  29.650   0.357
67642W        W39258  14.217   1.274   2.713
67643W        W39259  39.450  42.467  14.639
67644W        W39260   6.647  25.145  14.485
67645W        W39261  14.845  18.802   3.786
67646W        W39262  42.279  41.456  13.989
67647W        W39263  26.003   0.324   4.905
67648W        W39264  28.459   8.821   1.646
67649W        W39265  40.595  31.168   1.909
67650W        W39266  23.047  40.742  14.503
67651W        W39267   3.170  43.968  12.468
67652W        W39268  19.220  24.679   3.183
67653W        W39269  17.743  12.780   4.234
67654W        W39270  19.479  35.088  13.803
67655W        W39271   3.782   3.927  11.728
67656W        W39272  23.014  20.715   4.263
67657W        W39273  29.600  16.548   1.790
67658W        W39274  33.811  37.201  13.838
67659W        W39275  35.007  42.303  13.766
67660W        W39276  13.114  40.901  10.775
67661W        W39277   0.398  32.003  11.192
67662W        W39278  14.103  30.079   2.358
67663W        W39279  21.941  22.591   1.884
67664W        W39280  23.069  34.112   4.556
67665W        W39281   1.419  27.650  11.513
67666W        W39282  43.262  11.933  13.936
67667W        W39283  31.672  16.332  12.166
67668W        W39284  44.335  18.793  14.908
67669W        W39285  35.477  15.085  13.750
67670W        W39286  14.788  38.783   0.285
67671W        W39287  40.362   1.270   3.345
67672W        W39288  38.115  17.556  11.597
67673W        W39289  14.266  31.880  11.203
67674W        W39290   5.242  22.486  13.805
67675W        W39291  44.990  23.762  13.250
67676W        W39292   8.301  43.082  14.709
67677W        W39293  23.035  15.185  10.442
67678W        W39294  32.636  13.068  14.348
67679W        W39295   4.322  11.067  10.792
67680W        W39296  23.591  23.785  14.835
67681W        W39297  24.290  10.398   4.279
67682W        W39298  29.663  27.577   5.125
67683W        W39299  28.899  36.488   4.594
67684W        W39300  16.086   5.728  14.870
67685W        W39301  40.310   8.902   1.811
67686W        W39302  44.266  33.549   3.295
67687W        W39303  40.637  33.261  10.237
67688W        W39304   7.233   0.771  10.568
67689W        W39305  13.376   0.836  12.088
67690W        W39306  34.014   0.891   3.089
67691W        W39307  21.249   1.244   4.659
67692W        W39308  34.120  18.611   3.293
67693W        W39309  32.843  24.687  13.926
67694W        W39310  10.342  42.385   0.645
67695W        W39311  11.342  38.050   1.172
67696W        W39312  23.992  42.814  10.748
67697W        W39313   5.986  41.476   3.586
67698W        W39314  37.558   6.857   1.656
67699W        W39315  37.475   0.810  10.386
67700W        W39316  33.039  37.624  12.361
67701W        W39317  18.126  26.239   3.264
67702W        W39318  20.236  24.571   2.488
67703W        W39319  18.201  37.642   1.208
67704W        W39320  33.032   7.598   1.351
67705W        W39321  18.829  33.602   2.317
67706W        W39322   8.810   8.213   3.873
67707W        W39323  11.737  19.509  14.433
67708W        W39324  29.404  20.312  14.905
67709W        W39325  29.600  37.474   3.891
67710W        W39326  20.496  14.170  12.332
67711W        W39327  36.619   3.811  11.942
67712W        W39328  24.309  22.050  10.749
67713W        W39329  22.192  38.719   2.358
67714W        W39330  33.224   7.576  11.789
67715W        W39331   5.811   0.562   1.856
67716W        W39332  29.562  37.928   1.565
67717W        W39333  32.571   7.182  12.943
67718W        W39334  38.386  21.063  11.162
67719W        W39335  34.416  24.490   4.441
67720W        W39336  38.317  27.858  12.837
67721W        W39337   4.327  37.988   3.816
67722W        W39338  22.768  30.168  12.537
67723W        W39339  35.668  43.926   3.989
67724W        W39340  15.121   2.985   4.853
67725W        W39341  19.807  17.846  13.495
67726W        W39342  14.959  28.470  11.453
67727W        W39343   1.172  33.044   1.913
67728W        W39344  12.858  25.950   4.551
67729W        W39345  13.352   0.884  14.327
67730W        W39346  44.726  22.729   0.717
67731W        W39347   4.360  28.798  14.425
67732W        W39348  37.367  23.207   0.292
67733W        W39349  37.839  39.240   4.400
67734W        W39350  18.254  38.315  14.236
67735W        W39351  11.346  33.649   0.752
67736W        W39352  20.206  15.797  11.661
67737W        W39353   3.436  19.172  14.049
67738W        W39354  14.073   8.723   3.771
67739W        W39355  26.602  28.956  13.887
67740W        W39356  41.986  34.439  12.473
67741W        W39357  31.445  12.639  12.860
67742W        W39358   5.369   2.715   2.778
67743W        W39359  34.957   0.890   5.036
67744W        W39360   4.994  27.424   4.164
67745W        W39361  39.499  33.647  14.065
67746W        W39362  34.364  34.506   2.098
67747W        W39363  32.663  19.384   3.768
67748W        W39364  35.079  41.387  14.991
67749W        W39365  16.559  37.517  10.692
67750W        W39366  21.156   3.391  14.216
67751W        W39367  37.995  30.794  12.823
67752W        W39368  36.554   3.983  11.096
67753W        W39369   7.244  36.323  12.905
67754W        W39370  31.426  23.308   3.329
67755W        W39371  18.592   4.799  14.977
67756W        W39372   2.723  32.999   1.730
67757W        W39373  15.619   6.683  13.285
67758W        W39374  35.984  20.357   4.546
67759W        W39375  33.713   2.923   1.358
67760W        W39376  23.477  38.228  14.948
67761W        W39377  29.145  19.472   2.326
67762W        W39378   7.333   0.564  11.019
67763W        W39379  43.274  38.459   1.435
67764W        W39380   8.266  31.669  14.885
67765W        W39381   7.913  35.074  14.026
67766W        W39382   7.307   5.471  13.845
67767W        W39383   7.126  23.741  11.574
67768W        W39384  19.043  23.003  11.579
67769W        W39385  33.816  10.692  13.034
67770W        W39386  18.838  22.929   2.423
67771W        W39387   6.718  41.973  11.875
67772W        W39388  29.791  21.674  12.499
67773W        W39389  13.352  28.273  12.990
67774W        W39390  38.165  31.699  12.999
67775W        W39391   2.348   1.968   5.169
67776W        W39392  36.394  34.110  12.019
67777W        W39393  19.255  19.087  13.356
67778W        W39394  37.429  32.318   2.674
67779W        W39395  16.051  24.931  14.105
67780W        W39396  25.845  12.771   1.428
67781W        W39397   7.394  25.849  11.138
67782W        W39398  34.385  33.891   3.406
67783W        W39399   4.138   3.306   0.841
67784W        W39400  34.426  11.182  11.470
67785W        W39401  42.227  40.456   1.374
67786W        W39402   3.449   9.772  13.012
67787W        W39403  15.095  10.540  12.849
67788W        W39404  39.470  44.895   2.877
67789W        W39405   7.985  22.480   4.980
67790W        W39406  23.528  38.982  11.263
67791W        W39407  12.012  39.057   4.100
67792W        W39408  17.464  28.739  10.899
67793W        W39409  31.430  29.683   5.168
67794W        W39410  22.060  29.531  14.319
67795W        W39411  34.067  20.489  12.382
67796W        W39412  44.267  30.244   2.705
67797W        W39413  17.089  13.524  11.729
67798W        W39414  13.231  33.873  13.225
67799W        W39415   2.648  14.307   0.025
67800W        W39416  23.543  38.311  12.125
67801W        W39417  19.268   5.412   3.210
67802W        W39418  25.256  40.282   4.146
67803W        W39419  40.010  25.113  13.828
67804W        W39420  37.836  10.784   4.053
67805W        W39421  42.838  20.597   1.799
67806W        W39422  16.358  19.844  11.623
67807W        W39423  20.188  41.470  13.287
67808W        W39424  32.668  27.437   2.383
67809W        W39425  28.411  39.935   0.781
67810W        W39426  11.031  15.397   4.147
67811W        W39427  39.067   2.699  12.032
67812W        W39428  31.353  33.063   0.760
67813W        W39429  35.993  40.833  10.814
67814W        W39430   3.745  26.519  13.430
67815W        W39431  24.853  28.664  14.845
67816W        W39432  42.085  42.063  12.683
67817W        W39433   9.063  31.149   2.270
67818W        W39434   8.119  27.395   4.472
67819W        W39435  36.980  13.195   2.279
67820W        W39436  27.180  22.587  11.518
67821W        W39437  15.644  16.077  12.959
67822W        W39438  34.347  44.602   3.984
67823W        W39439   7.847  36.011  11.231
67824W        W39440   8.192  29.193   0.750
67825W        W39441   9.764  14.790  14.535
67826W        W39442   1.510  18.463  11.098
67827W        W39443  19.449  15.017   0.995
67828W        W39444   5.501  12.446  13.289
67829W        W39445  29.255  34.896   4.523
67830W        W39446   9.359  24.561   2.135
67831W        W39447   3.714  28.641   3.892
67832W        W39448  21.714  44.316  14.225
67833W        W39449  35.298  41.557   0.842
67834W        W39450  32.680  26.736  12.108
67835W        W39451  28.236  39.316   2.179
67836W        W39452  43.917  15.224  10.547
67837W        W39453  38.602   7.606  13.993
67838W        W39454   0.936  37.816  11.397
67839W        W39455  34.363  18.354  12.367
67840W        W39456  12.002  18.934   0.530
67841W        W39457  20.539  12.910  11.926
67842W        W39458   1.237   4.823   4.803
67843W        W39459  43.428  25.557  10.983
67844W        W39460  36.425  41.574  10.608
67845W        W39461   5.927  38.035  11.148
67846W        W39462  14.137  24.921   4.309
67847W        W39463  25.676  17.857  13.424
67848W        W39464  18.990  43.476  11.479
67849W        W39465  32.852  34.978  11.250
67850W        W39466  24.880  43.912   0.181
67851W        W39467  44.629   3.221  11.629
67852W        W39468   1.508   8.914  13.864
67853W        W39469  43.942  30.509   3.384
67854W        W39470  10.635  41.408   1.906
67855W        W39471  22.458  19.073   2.407
67856W        W39472  44.431  40.809  11.169
67857W        W39473   1.256  35.081   2.394
67858W        W39474  19.244  33.149   4.219
67859W        W39475  26.060  22.925   4.139
67860W        W39476   5.177  43.884  12.463
67861W        W39477  39.594  38.441  12.362
67862W        W39478  18.498  35.254   4.210
67863W        W39479  30.358  17.504  14.050
67864W        W39480  18.171  22.233   4.573
67865W        W39481  11.859  28.909  13.365
67866W        W39482  27.933  17.233  10.677
67867W        W39483  28.603   2.332   0.684
67868W        W39484   1.938   9.807  11.191
67869W        W39485  24.441  33.465  14.262
67870W        W39486  17.153  40.829   0.881
67871W        W39487  30.123   7.650  14.182
67872W        W39488  31.930  35.450  12.942
67873W        W39489  18.650  34.766   5.055
67874W        W39490  22.465  43.775   0.216
67875W        W39491  24.490  43.984   1.855
67876W        W39492   0.606  19.804  10.342
67877W        W39493   4.304   9.138   2.277
67878W        W39494  21.587  44.731  13.015
67879W        W39495  16.077  31.022  12.554
67880W        W39496  30.946  21.906   4.183
67881W        W39497  40.301  13.402  13.576
67882W        W39498   3.046   0.378  12.612
67883W        W39499  33.813  18.166   4.074
67884W        W39500  14.706  37.864   1.590
67885W        W39501  31.094  44.500  10.036
67886W        W39502  26.057  16.822   1.361
67887W        W39503  41.991  26.743  14.033
67888W        W39504   6.413   1.741  12.053
67889W        W39505  35.984  32.684   2.765
67890W        W39506  35.599  28.527  14.930
67891W        W39507   1.589  10.763   2.183
67892W        W39508  33.096   5.867   4.592
67893W        W39509   7.699  15.993  14.697
67894W        W39510  32.442  10.793   4.203
67895W        W39511  12.715  41.204   4.145
67896W        W39512   1.428   6.336  13.494
67897W        W39513  16.115  20.724  14.313
67898W        W39514  28.482   9.351   4.198
67899W        W39515   0.201  14.758  14.878
67900W        W39516  35.962   6.995  13.522
67901W        W39517  33.542   1.848  12.606
67902W        W39518  23.213  24.524  11.577
67903W        W39519   3.186  23.495  11.926
67904W        W39520   9.594  28.252  14.655
67905W        W39521  26.149   5.497  14.223
67906W        W39522  25.329  18.708  11.145
67907W        W39523  41.962   6.850   0.957
67908W        W39524  29.432   6.448  11.506
67909W        W39525  33.170   7.838  14.527
67910W        W39526  13.714  20.075   3.242
67911W        W39527  16.997  28.397  12.170
67912W        W39528  31.902  37.838   3.123
67913W        W39529  31.644  13.394   1.692
67914W        W39530   8.653  39.503   2.274
67915W        W39531  16.217  23.286   3.405
67916W        W39532  19.827  41.967   1.851
67917W        W39533   7.804   5.946   0.782
67918W        W39534   0.458   6.322   3.636
67919W        W39535  43.773  17.198   1.644
67920W        W39536  12.744  28.519   2.455
67921W        W39537   1.826  19.746  12.806
67922W        W39538  29.577   2.893  11.162
67923W        W39539  31.635  15.523   1.304
67924W        W39540  29.621  10.290   4.966
67925W        W39541  43.552  25.622   0.832
67926W        W39542  15.058  16.420   3.657
67927W        W39543   2.186  22.610  11.032
67928W        W39544  28.629  33.514  11.637
67929W        W39545  19.038  16.840   3.550
67930W        W39546   3.900  11.360  10.908
67931W        W39547  35.905   3.363   1.352
67932W        W39548  19.990  21.129  12.037
67933W        W39549  32.581  23.317  14.801
67934W        W39550  36.894  20.343   4.235
67935W        W39551  13.594  42.510   3.757
67936W        W39552  32.109  20.419  12.151
67937W        W39553   4.987   3.873   3.325
67938W        W39554  10.047   7.773  12.615
67939W        W39555  39.072  11.795   1.966
67940W        W39556  31.679  23.420  14.762
67941W        W39557  23.543  15.610   3.268
67942W        W39558   5.685  41.586   0.387
67943W        W39559  25.045   5.646   4.050
67944W        W39560  10.079   0.666  13.633
67945W        W39561  31.523  16.105  14.384
67946W        W39562  16.758  43.215   2.293
67947W        W39563  34.967  18.550  11.018
67948W        W39564  31.238  39.298   0.585
67949W        W39565   5.369   8.907   4.614
67950W        W39566  17.230  21.517   2.863
67951W        W39567  29.037   0.354  10.711
67952W        W39568  28.468  25.177  14.781
67953W        W39569   0.902  10.221  11.531
67954W        W39570  40.048  16.198  12.476
67955W        W39571   5.111  44.851   3.770
67956W        W39572   8.339  16.867   4.932
67957W        W39573  15.705  28.579   0.663
67958W        W39574  25.015  31.550   0.462
67959W        W39575  41.237  20.022   2.652
67960W        W39576   5.726   9.171   2.042
67961W        W39577  42.715  40.045  13.441
67962W        W39578   3.258  33.826   1.422
67963W        W39579  20.117  21.220  13.535
67964W        W39580  39.731  24.935   3.569
67965W        W39581   5.471   0.975  12.839
67966W        W39582  19.679  39.618   0.224
67967W        W39583  20.103  42.307   3.683
67968W        W39584  17.078  15.879  13.943
67969W        W39585  11.263  22.964   1.698
67970W        W39586   3.206  16.192   0.730
67971W        W39587  29.253  36.864  10.726
67972W        W39588  19.195  18.146   2.603
67973W        W39589   6.081  38.359   0.650
67974W        W39590  36.514  41.031  13.109
67975W        W39591  31.371  13.799  13.926
67976W        W39592  41.911   5.402  13.188
67977W        W39593  42.400  35.646  14.087
67978W        W39594  33.121  38.003   0.196
67979W        W39595  37.297  22.155  12.481
67980W        W39596  20.486  11.605  13.520
67981W        W39597   4.990  11.153   4.059
67982W        W39598  32.708  14.777  11.368
67983W        W39599  30.450  20.840   0.217
67984W        W39600  18.522  32.908  12.559
67985W        W39601   3.740   0.935  12.493
67986W        W39602   4.716  23.433   2.704
67987W        W39603  26.736  18.627   1.407
67988W        W39604  32.615   1.973  11.877
67989W        W39605  38.525  24.623  14.721
67990W        W39606  12.101   6.158   5.372
67991W        W39607   6.435  25.053  11.531
67992W        W39608   8.441  28.778   2.652
67993W        W39609   2.442  43.066   0.912
67994W        W39610  12.252  15.262   0.294
67995W        W39611  40.109  29.123  13.251
67996W        W39612  42.046  33.386   2.270
67997W        W39613  15.488   7.575  10.979
67998W        W39614  30.573   2.194  14.842
67999W        W39615   0.236  21.084   0.400
68000W        W39616   9.181  19.155   1.318
68001W        W39617  38.661   9.735   4.390
68002W        W39618   9.372  37.891  14.536
68003W        W39619   6.818  13.193   2.893
68004W        W39620  32.907  18.269  12.362
68005W        W39621  29.332  13.309   4.714
68006W        W39622  31.835  17.818   3.630
68007W        W39623   9.509  20.932  12.859
68008W        W39624  32.549  26.102   4.528
68009W        W39625  39.235  18.745   1.374
68010W        W39626  33.859  34.945  11.075
68011W        W39627  43.778   8.640   4.140
68012W        W39628  18.904  26.981   4.632
68013W        W39629  27.651  35.419   1.153
68014W        W39630  16.914   3.815  14.019
68015W        W39631  23.513  34.032  14.757
68016W        W39632   7.171  18.111  12.311
68017W        W39633   7.195  13.164  12.540
68018W        W39634  35.587  29.496   0.092
68019W        W39635  12.571   3.248   3.814
68020W        W39636  28.180  17.957  14.846
68021W        W39637  35.423  36.572  14.749
68022W        W39638   5.451  11.615   0.446
68023W        W39639  27.086  43.782   3.578
68024W        W39640  32.468   6.892  12.096
68025W        W39641  44.085   7.909  14.314
68026W        W39642  42.365  14.754  13.017
68027W        W39643  14.939  31.513   3.678
68028W        W39644   6.632  20.580   4.185
68029W        W39645  43.907  34.487  12.623
68030W        W39646  35.665  38.729   0.795
68031W        W39647  36.906  32.613   3.537
68032W        W39648  11.537  27.998   5.122
68033W        W39649  23.092  11.358   4.651
68034W        W39650  29.563  28.588   0.226
68035W        W39651   7.846  41.470   1.425
68036W        W39652  31.582   9.177   0.678
68037W        W39653  40.304   6.452   4.053
68038W        W39654  32.558  28.978  14.988
68039W        W39655  23.029   2.490   4.766
68040W        W39656   6.079  42.002  14.831
68041W        W39657   6.208   3.815  10.593
68042W        W39658  17.092  33.795  12.933
68043W        W39659  32.908  27.174   3.737
68044W        W39660  27.594  39.211   4.262
68045W        W39661  15.098   4.429  13.944
68046W        W39662   3.986   0.142  11.480
68047W        W39663  40.873  41.107   0.312
68048W        W39664  13.646  18.467   4.871
68049W        W39665  44.365  20.886  13.528
68050W        W39666  12.879  17.186  12.914
68051W        W39667   8.230  34.847   4.565
68052W        W39668   7.267  42.660   0.234
68053W        W39669  14.206  39.543  13.273
68054W        W39670  19.087  38.975   0.337
68055W        W39671  16.181   1.389   4.311
68056W        W39672  14.574  40.414   2.415
68057W        W39673  32.412  42.681   4.832
68058W        W39674   6.111  40.314  10.804
68059W        W39675  17.606  42.779  14.950
68060W        W39676  25.659   1.355  12.430
68061W        W39677   5.676  15.845   4.045
68062W        W39678  43.841  39.218   9.987
68063W        W39679   9.766  33.823  13.521
68064W        W39680  29.551  10.713  13.227
68065W        W39681  12.948  34.874   1.450
68066W        W39682  10.189   2.308  10.570
68067W        W39683   3.695  40.852  10.639
68068W        W39684   5.085   5.103  13.731
68069W        W39685  43.249  35.870  14.451
68070W        W39686   5.452  16.790   4.219
68071W        W39687  13.822  28.625  10.912
68072W        W39688  38.067  40.552  14.241
68073W        W39689  42.527  15.487  11.951
68074W        W39690  31.125  43.400   0.803
68075W        W39691  32.854  26.098  12.425
68076W        W39692  12.085  34.156  13.710
68077W        W39693   9.655  18.699   1.813
68078W        W39694  32.021  32.158  10.497
68079W        W39695  18.385  22.795   1.031
68080W        W39696  17.082  22.706  14.998
68081W        W39697  29.128  39.375  12.291
68082W        W39698   4.890  37.029  12.132
68083W        W39699  18.715  26.951   0.251
68084W        W39700  36.244   3.169   4.350
68085W        W39701  33.276  16.217   4.923
68086W        W39702  40.282  26.500  14.309
68087W        W39703  40.277  15.111   2.650
68088W        W39704  25.405  31.080   1.290
68089W        W39705  15.764  35.841   5.010
68090W        W39706  21.706  37.662  13.979
68091W        W39707  22.084  11.326  12.874
68092W        W39708  19.318   1.463  14.489
68093W        W39709  27.629  30.943   4.254
68094W        W39710  34.152  12.148  14.168
68095W        W39711  32.718   2.361  12.670
68096W        W39712  34.646  11.853   3.679
68097W        W39713  42.924  13.039  13.503
68098W        W39714   9.869  29.676  14.891
68099W        W39715  28.464  39.392  12.975
68100W        W39716  22.171  22.177  12.035
68101W        W39717   8.575  14.548   0.291
68102W        W39718  34.506   4.672   4.078
68103W        W39719   9.195  38.061   2.741
68104W        W39720  35.132  41.969   1.272
68105W        W39721   5.002  31.481   1.731
68106W        W39722   2.846  14.083   0.456
68107W        W39723  12.778  34.310   0.176
68108W        W39724  43.402  34.498  13.043
68109W        W39725   5.235  37.331  13.947
68110W        W39726  21.151   2.276  11.707
68111W        W39727   2.367   7.679   2.927
68112W        W39728  39.932  31.953  12.651
68113W        W39729  16.660  36.479   0.340
68114W        W39730   0.874  25.013  13.730
68115W        W39731   2.902  24.129  13.901
68116W        W39732  13.094  16.061   3.696
68117W        W39733  12.404  18.611   1.384
68118W        W39734  32.147  24.717   4.350
68119W        W39735  35.593  15.745   2.436
68120W        W39736  28.657   6.482  13.002
68121W        W39737   6.650  38.841  14.338
68122W        W39738  28.924   9.815  10.546
68123W        W39739  20.587  32.660  12.896
68124W        W39740  17.567  29.206   0.360
68125W        W39741  40.857  11.459   3.890
68126W        W39742   9.414   2.663   3.363
68127W        W39743  15.276  13.362   1.920
68128W        W39744  40.285  12.645  10.692
68129W        W39745  43.887  11.263   3.061
68130W        W39746   7.171   0.435   0.031
68131W        W39747  15.708  36.682   4.757
68132W        W39748  28.478   1.245   1.419
68133W        W39749   8.161  37.269  11.174
68134W        W39750  44.215  27.662  12.370
68135W        W39751  20.762  34.962  13.479
68136W        W39752  43.942  29.225  14.766
68137W        W39753  24.233   3.939   0.861
68138W        W39754  39.542  19.855   0.821
68139W        W39755  17.223  37.585  11.539
68140W        W39756   7.618  26.622   2.577
68141W        W39757  23.163  35.988  12.922
68142W        W39758  41.306  38.030   3.675
68143W        W39759  22.311  19.862  14.297
68144W        W39760  22.138  34.784   3.344
68145W        W39761  23.424   8.271   4.239
68146W        W39762  17.577   9.659  10.582
68147W        W39763  43.921  36.896  11.199
68148W        W39764  36.531  39.256   0.839
68149W        W39765  36.845  17.944  11.487
68150W        W39766  24.528  19.815  10.732
68151W        W39767  39.148  36.559   1.867
68152W        W39768  32.999  41.605  12.924
68153W        W39769  17.769  32.286   0.357
68154W        W39770  10.197  16.731   3.561
68155W        W39771   6.927  31.564   4.641
68156W        W39772  40.086  35.167  14.474
68157W        W39773  17.095  24.408   3.741
68158W        W39774   6.291  12.375  14.937
68159W        W39775   5.997  29.581  13.533
68160W        W39776  39.963  41.685  13.074
68161W        W39777  23.970  40.783   4.835
68162W        W39778  22.524  44.396   3.131
68163W        W39779  27.760   2.885  13.789
68164W        W39780  18.222  29.534   1.343
68165W        W39781  40.985  31.018   3.471
68166W        W39782   6.410  32.966   3.402
68167W        W39783   0.391  10.462   3.861
68168W        W39784  35.991  22.727   0.022
68169W        W39785  19.989   2.727   2.380
68170W        W39786  38.108  11.741   3.118
68171W        W39787  41.046  42.001  10.676
68172W        W39788  28.060   2.210   0.035
68173W        W39789  16.340  33.932  10.378
68174W        W39790  19.777  25.868  14.372
68175W        W39791   6.815   2.953  11.641
68176W        W39792  37.968  39.747  13.524
68177W        W39793  15.077  10.385   0.857
68178W        W39794  38.797   0.013   0.280
68179W        W39795  10.256  44.184  11.037
68180W        W39796  26.017  30.338   0.041
68181W        W39797  16.203  11.419   4.247
68182W        W39798   5.487  25.614   1.733
68183W        W39799   9.417  37.193   3.769
68184W        W39800  42.269  27.557   0.529
68185W        W39801  10.257  31.698   0.864
68186W        W39802   4.537  11.867  10.188
68187W        W39803   0.821  24.521  10.591
68188W        W39804  19.001  17.803   0.751
68189W        W39805  42.999   8.413  11.596
68190W        W39806  41.943  31.087  14.154
68191W        W39807  18.998  25.090   0.718
68192W        W39808   0.817  21.232  14.319
68193W        W39809   6.838  39.296  12.917
68194W        W39810  43.338  31.574  13.815
68195W        W39811  40.590  41.503   4.175
68196W        W39812  24.115  36.464   1.495
68197W        W39813  33.997  40.763   2.759
68198W        W39814   9.923   6.752   0.649
68199W        W39815   9.794  34.786  12.101
68200W        W39816   0.463  17.209  10.620
68201W        W39817  20.534  41.982  14.092
68202W        W39818  29.665   9.031   2.565
68203W        W39819  33.351  42.604   2.176
68204W        W39820   5.762  33.382   4.529
68205W        W39821  31.147  13.127  14.501
68206W        W39822  37.462  42.705  14.354
68207W        W39823   7.550  16.220   2.919
68208W        W39824  27.889  41.385  11.146
68209W        W39825  22.150  15.620   1.679
68210W        W39826   0.417  37.976   2.647
68211W        W39827   2.235   6.839  13.447
68212W        W39828  38.553  16.675  11.710
68213W        W39829   0.397  24.679   3.732
68214W        W39830  33.921  19.751   2.763
68215W        W39831  10.423  23.242   4.246
68216W        W39832  33.857  39.000   3.311
68217W        W39833   2.151  36.975   1.282
68218W        W39834   7.364  36.089  13.362
68219W        W39835  10.278   2.177   0.986
68220W        W39836  38.501  24.958   3.031
68221W        W39837  17.778   0.764  13.499
68222W        W39838   0.233  28.718  13.876
68223W        W39839   3.431  15.808   1.002
68224W        W39840   3.985  34.113   3.377
68225W        W39841   0.198  28.313   0.982
68226W        W39842   3.257  26.422   3.280
68227W        W39843   3.960  38.530   2.946
68228W        W39844  14.865  32.512  13.815
68229W        W39845  35.690  30.609  12.664
68230W        W39846  14.208  11.913  11.734
68231W        W39847  19.213  12.670  12.108
68232W        W39848  31.280  15.817   3.301
68233W        W39849  26.386  23.426  10.309
68234W        W39850  36.030  13.738  10.647
68235W        W39851   7.179  42.955   1.580
68236W        W39852   6.959  18.090   2.733
68237W        W39853  10.389  22.918  14.770
68238W        W39854  14.650   6.309   4.889
68239W        W39855  12.777  30.879  12.054
68240W        W39856  34.280  24.490   2.763
68241W        W39857  20.688  36.339   1.932
68242W        W39858  20.244  30.673  11.212
68243W        W39859   9.245  44.472   2.867
68244W        W39860  39.932  14.041   4.523
68245W        W39861  37.263  20.814   0.312
68246W        W39862  42.452  39.027  10.978
68247W        W39863   0.927  29.716  14.255
68248W        W39864  26.221   4.898   2.886
68249W        W39865   9.904   1.870  11.738
68250W        W39866  43.672  39.954  13.049
68251W        W39867  19.227  12.308  10.917
68252W        W39868  22.196  22.699   3.279
68253W        W39869  17.518   1.686  14.340
68254W        W39870  29.102  33.039  10.989
68255W        W39871   6.931  14.950  12.659
68256W        W39872  21.897   2.076   3.067
68257W        W39873  15.551  21.284  12.986
68258W        W39874  23.797  23.989  12.317
68259W        W39875   5.696  21.144  10.567
68260W        W39876  15.628   4.213   1.236
68261W        W39877  13.445  33.223  10.989
68262W        W39878  24.042   9.141  11.913
68263W        W39879  12.809  28.654  12.163
68264W        W39880  13.679   8.292   3.839
68265W        W39881  44.902   5.696  13.790
68266W        W39882  18.767  41.954  14.175
68267W        W39883  30.130  26.969  14.483
68268W        W39884  10.105  29.949  11.900
68269W        W39885   5.151  44.383   2.951
68270W        W39886  36.603   1.843  14.514
68271W        W39887  34.196   1.304  11.737
68272W        W39888   2.507  42.816   1.405
68273W        W39889  11.928  11.256   4.615
68274W        W39890  26.262  25.657   3.991
68275W        W39891  12.870   1.366   0.341
68276W        W39892  17.817   7.178   1.274
68277W        W39893   9.327  42.390  13.346
68278W        W39894   5.163  28.170  10.307
68279W        W39895  36.991  29.738  14.881
68280W        W39896   2.912  16.579  14.920
68281W        W39897  19.447  34.606  11.907
68282W        W39898   0.953  41.093   2.619
68283W        W39899  10.252   6.735  11.982
68284W        W39900  21.664   2.547   4.957
68285W        W39901  12.682  36.775   0.247
68286W        W39902  18.128  26.498   1.888
68287W        W39903  20.490  20.988  12.546
68288W        W39904  21.873   6.714  12.688
68289W        W39905   1.428   3.740  12.795
68290W        W39906  12.648  17.022  10.776
68291W        W39907   3.165  37.272   1.293
68292W        W39908   2.911  10.685  14.408
68293W        W39909   9.958  19.102   0.776
68294W        W39910  37.895  30.485   2.713
68295W        W39911   3.247  44.871   1.860
68296W        W39912  13.190  19.945   2.502
68297W        W39913  23.155  28.644   2.151
68298W        W39914  30.949  14.063   2.135
68299W        W39915   5.458  26.230  13.441
68300W        W39916  10.770  24.365   1.195
68301W        W39917  13.290  34.812   4.585
68302W        W39918  37.831  21.981  11.607
68303W        W39919  15.530  17.572   0.076
68304W        W39920  10.814  25.412  12.621
68305W        W39921  23.807   0.901   3.054
68306W        W39922   7.289  28.017   0.972
68307W        W39923  34.453  27.498  13.061
68308W        W39924  31.188  26.520  12.200
68309W        W39925  17.732  21.633   2.832
68310W        W39926  18.558  34.496   2.264
68311W        W39927  43.458  13.637   1.069
68312W        W39928  42.103  38.115  13.886
68313W        W39929   6.649  41.796  10.385
68314W        W39930  17.425  17.132  12.577
68315W        W39931   7.442  17.508  10.242
68316W        W39932  28.721  41.906  13.994
68317W        W39933  44.267  12.888   3.637
68318W        W39934  41.845  40.325  11.153
68319W        W39935  26.429  26.090  14.769
68320W        W39936  17.333  33.411  12.003
68321W        W39937  24.542  30.404   4.586
68322W        W39938  30.390  42.042  11.962
68323W        W39939  12.164   4.961   0.698
68324W        W39940  19.795  33.002  11.174
68325W        W39941  30.692   8.293   3.630
68326W        W39942  21.953  41.895  14.496
68327W        W39943   3.595  30.491   2.279
68328W        W39944  15.948  16.491  14.320
68329W        W39945  30.529  33.562   4.828
68330W        W39946   7.891  27.723  12.325
68331W        W39947  12.791  39.215   2.715
68332W        W39948   2.917  41.926   0.383
68333W        W39949  39.780  44.001   1.869
68334W        W39950  18.689  20.781  10.828
68335W        W39951  13.822  22.096   0.870
68336W        W39952  23.818  27.953  14.406
68337W        W39953  39.314  28.549   4.699
68338W        W39954  28.053  32.555  11.176
68339W        W39955   2.440  41.713   0.288
68340W        W39956  10.379   9.899   4.615
68341W        W39957  22.665  33.481  14.710
68342W        W39958  11.508  13.271   2.801
68343W        W39959  35.223  18.423  11.432
68344W        W39960  39.372  13.618   3.688
68345W        W39961  19.895  36.130   1.722
68346W        W39962  37.286  42.622   4.243
68347W        W39963  22.177  12.018  13.542
68348W        W39964  22.751   6.152  13.823
68349W        W39965  11.088   2.487  12.890
68350W        W39966  19.475  21.920   0.888
68351W        W39967   2.072  41.783   3.725
68352W        W39968  21.571  11.814  14.298
68353W        W39969  11.653  17.108  12.425
68354W        W39970   5.823  20.724  14.446
68355W        W39971  39.893  16.850   2.684
68356W        W39972   1.897  42.318   3.496
68357W        W39973  21.489  25.143   4.108
68358W        W39974   8.824  43.952  11.510
68359W        W39975   6.260   7.459  12.471
68360W        W39976  16.004  11.224  12.905
68361W        W39977  40.334  18.943  12.373
68362W        W39978  23.700  13.530  12.181
68363W        W39979   5.281  32.144  11.991
68364W        W39980   8.388  31.241  14.267
68365W        W39981  11.403  32.267  14.715
68366W        W39982  19.654  36.547  14.429
68367W        W39983  19.754   9.677  14.549
68368W        W39984   3.935  34.891   0.972
68369W        W39985  15.578  35.366   4.154
68370W        W39986  12.067  17.671   1.866
68371W        W39987   5.453   0.516  10.996
68372W        W39988  37.913   8.879   0.747
68373W        W39989  15.306  44.601  14.473
68374W        W39990  11.066  38.013   2.664
68375W        W39991  32.509  34.110  14.280
68376W        W39992  43.322  37.306  13.975
68377W        W39993  27.764   9.841   0.766
68378W        W39994  39.415  23.800   4.210
68379W        W39995  20.686  43.516   2.296
68380W        W39996   5.151  31.605   0.434
68381W        W39997  21.503   1.295   1.959
68382W        W39998  13.121  13.673   2.331
68383W        W39999   5.220  23.648  11.374
68384W        W40000  41.462   9.498   2.386
68385W        W40001  17.581  30.229   2.386
68386W        W40002  32.971  25.648   3.699
68387W        W40003  36.039  40.498   2.167
68388W        W40004  36.058  36.622   0.186
68389W        W40005  35.082  11.127  13.458
68390W        W40006  44.972  11.628  11.627
68391W        W40007  28.667  32.819  14.275
68392W        W40008  15.051  27.948   1.266
68393W        W40009  37.889  29.698  12.131
68394W        W40010  13.574   4.092  14.994
68395W        W40011  25.668   0.832   3.249
68396W        W40012   6.377  20.676  10.486
68397W        W40013  40.243  43.676  12.010
68398W        W40014   8.419  34.078   4.159
68399W        W40015  30.563   3.328  12.530
68400W        W40016  39.902  22.697  10.607
68401W        W40017  23.750  11.736   3.884
68402W        W40018  32.230  14.083   1.766
68403W        W40019   9.552  42.291   0.479
68404W        W40020   9.727  41.371  11.603
68405W        W40021  36.877  20.546   4.748
68406W        W40022  14.576  32.115  14.054
68407W        W40023  22.186   6.598   4.612
68408W        W40024  24.275  36.309  13.536
68409W        W40025  13.573   6.902   1.844
68410W        W40026  18.654  24.377   4.504
68411W        W40027   7.156  35.868   0.841
68412W        W40028  15.254  20.475   1.005
68413W        W40029  36.953  17.083   3.412
68414W        W40030  25.491   3.445  11.396
68415W        W40031  30.103  41.952  12.846
68416W        W40032  36.155   3.475   2.346
68417W        W40033  34.056  37.632   4.738
68418W        W40034   1.479   5.223   0.267
68419W        W40035  11.618   5.363  14.328
68420W        W40036  10.298  34.507   2.459
68421W        W40037  40.291  14.429   1.395
68422W        W40038  41.606  16.210   4.667
68423W        W40039   6.351  26.202  11.549
68424W        W40040  37.143  37.388  12.404
68425W        W40041  14.443   1.970  11.662
68426W        W40042  40.530  18.081  10.680
68427W        W40043  27.430  11.093  13.846
68428W        W40044  10.981   4.502   2.962
68429W        W40045  10.454  42.316   4.532
68430W        W40046  37.741  36.379   0.852
68431W        W40047  44.977  43.414   4.746
68432W        W40048  13.270  15.259   4.216
68433W        W40049  17.607   5.241   2.940
68434W        W40050   1.978  17.769   3.775
68435W        W40051  35.867  29.896   1.733
68436W        W40052  20.257  31.198   4.232
68437W        W40053  31.231  28.547  13.384
68438W        W40054   1.213  13.819   1.642
68439W        W40055  31.013  28.706   3.262
68440W        W40056  27.135   8.757  12.872
68441W        W40057  23.304  30.546  12.059
68442W        W40058  35.488   0.253   2.755
68443W        W40059  17.367  26.105   3.772
68444W        W40060  18.082  27.709  11.600
68445W        W40061  38.348  36.885   2.212
68446W        W40062  11.903   0.298  13.547
68447W        W40063  14.079  23.925   1.166
68448W        W40064  33.719  25.699   2.871
68449W        W40065  33.966   6.544   3.237
68450W        W40066  30.536  21.817  11.159
68451W        W40067  30.639  44.771   3.922
68452W        W40068  27.965   3.229   2.374
68453W        W40069  28.569   0.229  14.098
68454W        W40070  20.574  24.478   0.890
68455W        W40071  43.019  42.260  13.617
68456W        W40072  43.058  18.569   2.806
68457W        W40073  31.202  34.543   3.327
68458W        W40074  21.131   8.920  12.395
68459W        W40075  15.863  27.889  13.781
68460W        W40076   2.471   4.028  12.422
68461W        W40077  12.880  15.919  12.218
68462W        W40078  37.274  30.337   2.370
68463W        W40079  19.517  33.934  13.592
68464W        W40080  20.289  29.006   4.176
68465W        W40081  18.761   5.159   1.333
68466W        W40082  28.015   3.631  13.537
68467W        W40083  26.704  34.640  12.207
68468W        W40084  24.685  43.582  14.810
68469W        W40085   5.246  40.831  11.724
68470W        W40086   0.810  42.022  11.910
68471W        W40087   5.012  10.844   2.744
68472W        W40088  30.182  31.435   1.469
68473W        W40089  13.521  38.328  12.145
68474W        W40090  20.123  36.669  14.219
68475W        W40091  22.103  44.752  14.719
68476W        W40092  10.867  42.694  11.137
68477W        W40093  15.083   2.900   3.366
68478W        W40094  13.447  40.520  13.073
68479W        W40095   1.601   3.339   0.419
68480W        W40096  30.893  14.025   4.561
68481W        W40097  43.732  13.241  13.927
68482W        W40098  30.889  22.430   1.701
68483W        W40099  38.919  15.165   1.420
68484W        W40100  18.063  22.625  14.068
68485W        W40101  19.666  20.512  14.651
68486W        W40102  22.032   5.005   2.720
68487W        W40103  35.286  34.657  11.119
68488W        W40104  11.368  25.443  11.665
68489W        W40105  31.955  32.852   2.359
68490W        W40106  26.139  26.715   1.707
68491W        W40107  12.312  34.380   4.540
68492W        W40108  18.791  13.123   2.692
68493W        W40109  35.628   7.732   1.530
68494W        W40110  32.747   7.629  11.618
68495W        W40111   5.518  14.674   2.141
68496W        W40112  16.748  30.135   2.597
68497W        W40113   3.831   2.795   3.823
68498W        W40114  37.438  17.633   1.797
68499W        W40115   5.121   2.781   4.514
68500W        W40116  11.228  42.380  12.332
68501W        W40117  44.786  20.914  14.424
68502W        W40118  16.329  42.772   0.370
68503W        W40119  22.764   7.710  13.984
68504W        W40120   8.339  38.903  11.850
68505W        W40121   4.654  12.809  11.104
68506W        W40122   2.316  18.970   0.353
68507W        W40123  25.695  27.198   3.405
68508W        W40124   5.731  15.619  12.490
68509W        W40125  28.981  11.285   0.719
68510W        W40126  31.921  21.789   1.187
68511W        W40127  18.014  23.977   4.200
68512W        W40128  36.031   7.592   4.909
68513W        W40129   5.130   2.490   0.489
68514W        W40130  14.527  11.260  12.829
68515W        W40131   6.892  38.598  12.551
68516W        W40132   2.239  25.524  14.908
68517W        W40133  36.132  21.470   3.146
68518W        W40134  42.968   2.702  11.302
68519W        W40135  22.383   7.895   3.684
68520W        W40136  34.100   8.395   3.642
68521W        W40137  23.745  20.194   3.397
68522W        W40138  16.765   8.701  14.105
68523W        W40139  31.655  28.517   1.335
68524W        W40140  20.200  34.115   2.868
68525W        W40141  24.706  35.561  11.637
68526W        W40142   8.725  19.010  14.491
68527W        W40143  35.855  37.029   3.436
68528W        W40144  36.177  34.559   1.242
68529W        W40145  17.621  26.513   2.663
68530W        W40146  16.313  12.284  13.575
68531W        W40147   5.666  30.120   3.585
68532W        W40148  25.225  28.407  11.122
68533W        W40149  36.368  21.590  11.678
68534W        W40150  23.880  35.103   3.744
68535W        W40151  23.498  14.370  11.178
68536W        W40152  37.123  17.790  14.526
68537W        W40153   5.703  40.182   3.386
68538W        W40154  12.244  25.079   1.765
68539W        W40155  37.907  36.637   2.851
68540W        W40156  18.349  28.717   3.644
68541W        W40157  23.091  34.957   0.434
68542W        W40158   5.738  40.117   2.150
68543W        W40159  15.212  18.970  10.391
68544W        W40160  16.313  24.456  12.378
68545W        W40161  26.598  39.856  14.737
68546W        W40162  17.427  37.615   3.272
68547W        W40163  29.654  30.555   1.700
68548W        W40164  42.219  30.517   3.602
68549W        W40165  41.315  35.382  12.977
68550W        W40166   3.185  30.796  10.232
68551W        W40167  28.042  17.208  14.346
68552W        W40168  39.248   4.832  12.958
68553W        W40169  19.258  40.995   1.288
68554W        W40170  12.279  37.587  13.252
68555W        W40171   7.122  15.863  11.566
68556W        W40172   0.207  27.263   4.186
68557W        W40173   7.337  14.548  12.591
68558W        W40174   6.982  15.176  10.928
68559W        W40175   6.700  40.133  11.137
68560W        W40176  32.914   5.789  14.772
68561W        W40177  10.177  44.621  13.471
68562W        W40178  35.637  38.396   0.246
68563W        W40179  25.989  29.095   3.225
68564W        W40180  22.718   6.918   2.799
68565W        W40181  41.510   6.512   4.276
68566W        W40182  23.530   1.296  11.081
68567W        W40183  34.342   7.337   3.733
68568W        W40184  33.008   3.217   1.969
68569W        W40185  10.657  11.691   3.865
68570W        W40186   3.358  33.651   5.190
68571W        W40187  11.144   2.868  13.290
68572W        W40188   0.490  21.577  14.538
68573W        W40189  27.724  37.542   3.613
68574W        W40190   5.718  16.192  11.950
68575W        W40191  37.091  15.614  12.101
68576W        W40192  20.022  32.898   3.792
68577W        W40193  43.046  22.549   1.284
68578W        W40194  21.009  14.786  12.043
68579W        W40195   5.273   2.215  12.588
68580W        W40196  26.430  31.749   3.740
68581W        W40197   1.350  38.797  14.901
68582W        W40198  32.421  39.521  13.401
68583W        W40199  11.820  21.961   4.037
68584W        W40200  25.507  27.755   1.212
68585W        W40201  25.101  38.968   2.648
68586W        W40202  15.032  23.488   0.968
68587W        W40203  26.134  30.930   3.147
68588W        W40204   7.745  12.699   4.026
68589W        W40205  37.031  21.746   4.072
68590W        W40206   2.192   7.522   4.123
68591W        W40207  22.146  11.925   2.094
68592W        W40208  38.742  29.567   4.605
68593W        W40209  24.554  31.741   0.976
68594W        W40210   0.954   7.722  11.576
68595W        W40211   3.810  21.469   4.050
68596W        W40212  23.226   4.835  13.349
68597W        W40213  40.302  10.156  12.942
68598W        W40214   2.849  25.090   4.262
68599W        W40215  26.529   3.752   2.208
68600W        W40216  20.708  40.901  14.402
68601W        W40217  13.157  37.292  12.379
68602W        W40218   9.279  13.051  10.830
68603W        W40219  39.225   5.386   4.237
68604W        W40220  36.401   8.941   4.301
68605W        W40221  25.233  16.763   3.667
68606W        W40222  42.382   4.565  13.335
68607W        W40223  17.581  23.659  13.987
68608W        W40224  44.507  23.174   2.339
68609W        W40225   6.930   8.709  14.372
68610W        W40226  36.522  10.417   3.117
68611W        W40227  31.346  14.523   2.363
68612W        W40228  26.141  13.633  10.579
68613W        W40229  10.593  43.895   0.976
68614W        W40230  35.597  39.531   4.668
68615W        W40231   4.531   5.667  12.990
68616W        W40232   5.569  34.582  13.028
68617W        W40233  40.580  16.303   2.022
68618W        W40234  23.254   2.293   2.061
68619W        W40235   4.022  32.636   1.503
68620W        W40236  23.780  18.188   2.719
68621W        W40237   8.009  29.527   3.654
68622W        W40238   2.020  34.007  12.430
68623W        W40239  20.509  33.149  10.716
68624W        W40240  13.987  44.044   1.317
68625W        W40241  15.703   6.519   1.683
68626W        W40242   4.873  35.523   4.315
68627W        W40243  28.631  26.532  13.875
68628W        W40244  33.392   4.254   1.438
68629W        W40245   6.020   4.423   3.441
68630W        W40246  43.867  33.757   0.542
68631W        W40247   6.738   3.634  13.327
68632W        W40248  26.768  12.706   3.133
68633W        W40249   7.094  38.815   2.832
68634W        W40250  27.778  30.251  10.707
68635W        W40251  37.909  38.417  11.100
68636W        W40252  10.916   5.200  13.499
68637W        W40253  33.918  13.545   0.305
68638W        W40254  38.836  36.146   1.449
68639W        W40255   1.225  39.979  10.904
68640W        W40256  40.120  19.258  11.042
68641W        W40257  17.706  44.222   1.630
68642W        W40258  11.076  31.169  11.471
68643W        W40259   9.217   5.901   1.302
68644W        W40260  30.601  24.083   3.996
68645W        W40261  26.862  12.623  10.640
68646W        W40262  16.668  30.658   1.929
68647W        W40263  10.160  32.412   4.184
68648W        W40264  26.235  39.471   4.210
68649W        W40265  18.096  26.116   1.537
68650W        W40266  20.114  18.600   5.001
68651W        W40267  21.651  37.595  12.632
68652W        W40268  41.352   3.828   2.279
68653W        W40269  11.139   7.867   4.002
68654W        W40270  30.618  38.388  12.912
68655W        W40271  16.664  33.851   0.427
68656W        W40272   4.557  20.732   2.199
68657W        W40273  22.343  26.569   0.360
68658W        W40274   7.375  21.203   0.040
68659W        W40275  39.965  20.058  11.208
68660W        W40276  13.220  25.682   0.210
68661W        W40277  29.717  33.767   2.815
68662W        W40278   0.763   4.622  10.685
68663W        W40279  27.084   1.818  14.307
68664W        W40280  37.630  39.710   1.360
68665W        W40281  18.817  16.749   4.800
68666W        W40282  20.851  35.961  11.076
68667W        W40283  31.614  13.240  14.700
68668W        W40284  30.109  13.755   2.213
68669W        W40285  37.425  44.459  13.785
68670W        W40286   2.615  34.778   0.935
68671W        W40287  35.192  18.377   3.559
68672W        W40288   6.577   4.908  13.889
68673W        W40289   2.801  19.745   1.950
68674W        W40290  19.093  28.668   0.048
68675W        W40291  26.230  25.010   4.111
68676W        W40292  10.380   8.090   0.514
68677W        W40293   8.616  38.488   3.376
68678W        W40294  18.530   6.964   2.928
68679W        W40295  25.085   7.683   1.411
68680W        W40296  16.732  43.461  14.736
68681W        W40297  14.091  16.892  12.328
68682W        W40298  31.966  22.785  12.289
68683W        W40299   4.178  33.889   4.827
68684W        W40300  39.598   1.295   4.308
68685W        W40301  38.178  29.092   5.187
68686W        W40302  12.301  38.841   2.146
68687W        W40303  28.424  11.326   3.177
68688W        W40304  20.641  33.507   4.328
68689W        W40305  37.517  18.190   4.284
68690W        W40306  16.810  34.278   4.098
68691W        W40307   5.330   8.949   0.865
68692W        W40308  23.601  36.287  12.937
68693W        W40309  33.191  13.303   0.804
68694W        W40310  33.930   2.082   0.497
68695W        W40311  35.089  25.972  11.564
68696W        W40312  39.480  35.787   4.798
68697W        W40313   3.944  44.454  10.959
68698W        W40314  26.586   4.261   2.170
68699W        W40315  12.614  10.670   4.549
68700W        W40316   8.240  17.789  12.180
68701W        W40317  33.935  19.197  10.732
68702W        W40318  18.315  14.369  14.253
68703W        W40319  32.695  39.109   4.559
68704W        W40320  14.611   2.854  13.406
68705W        W40321  24.013  11.893  12.080
68706W        W40322  32.399   5.905   0.489
68707W        W40323  21.807  21.162   1.881
68708W        W40324  37.991  43.180   3.800
68709W        W40325  41.268  33.131   4.667
68710W        W40326  39.178   2.193   4.081
68711W        W40327  41.514  10.441   0.224
68712W        W40328  31.290   8.627   0.290
68713W        W40329  15.786   1.408  11.518
68714W        W40330  23.258  28.164  13.434
68715W        W40331  13.118  16.655   0.637
68716W        W40332  38.441   9.861   2.221
68717W        W40333  15.258  42.489  12.060
68718W        W40334  23.474  18.257  13.976
68719W        W40335  20.825  39.471   3.228
68720W        W40336  29.489   9.982  14.384
68721W        W40337  31.123  44.795  11.307
68722W        W40338  21.983  20.774   1.300
68723W        W40339  13.760  39.450  12.346
68724W        W40340  27.384  12.094  12.548
68725W        W40341  19.765  12.474   4.237
68726W        W40342  16.753  40.613  14.851
68727W        W40343  15.826  17.212  14.837
68728W        W40344  17.540  17.705  14.730
68729W        W40345  19.693   0.222  10.765
68730W        W40346  16.098  42.561   2.145
68731W        W40347   8.407  26.972  12.945
68732W        W40348  40.109  19.550  13.831
68733W        W40349  40.927   3.421   2.669
68734W        W40350  28.995   8.639   0.436
68735W        W40351  10.143  15.919  11.560
68736W        W40352  14.045  34.073   4.700
68737W        W40353  10.306   8.155   2.240
68738W        W40354  33.305  38.012  13.854
68739W        W40355  36.596  33.821  14.003
68740W        W40356  29.234  23.778  14.245
68741W        W40357  17.001   4.136  11.126
68742W        W40358   4.843   6.471  11.175
68743W        W40359   4.651   5.255  12.364
68744W        W40360  10.038  21.763   4.315
68745W        W40361  28.854  12.190  14.690
68746W        W40362  11.674   7.798  14.782
68747W        W40363  32.883  10.744   0.009
68748W        W40364  24.582  29.068   1.883
68749W        W40365  16.986  38.551   4.827
68750W        W40366  12.334  25.616   1.403
68751W        W40367  17.576  21.426   3.279
68752W        W40368  14.454   7.766   3.656
68753W        W40369  17.235  14.637   3.445
68754W        W40370  41.464  14.846  10.839
68755W        W40371  16.649  43.904  13.944
68756W        W40372  16.679  23.469   0.380
68757W        W40373  20.238  39.198  10.709
68758W        W40374  28.961  38.831   4.145
68759W        W40375  19.960  34.942   4.573
68760W        W40376  33.356  14.113  12.518
68761W        W40377   3.653  21.041   0.367
68762W        W40378  10.053  22.012  11.438
68763W        W40379   6.960  15.726   0.469
68764W        W40380  24.482  44.405   4.166
68765W        W40381  17.974  18.324   1.440
68766W        W40382  32.970  12.605   1.608
68767W        W40383   0.757   0.442  14.186
68768W        W40384   8.151   1.473   1.379
68769W        W40385  40.074  24.568   0.703
68770W        W40386  20.103  16.983   2.211
68771W        W40387  31.963   0.791   2.811
68772W        W40388  11.377  18.722  14.914
68773W        W40389  32.958   5.628  11.057
68774W        W40390   9.496   5.940   2.300
68775W        W40391   4.061  22.704   1.284
68776W        W40392   0.801   8.171  13.965
68777W        W40393  26.696  44.917   4.146
68778W        W40394   6.088  20.095   2.876
68779W        W40395   7.084   7.374  11.974
68780W        W40396  41.302  11.753  14.201
68781W        W40397  44.685   7.170  10.918
68782W        W40398  39.559  14.683   3.160
68783W        W40399  40.908  11.558   0.799
68784W        W40400  16.622  39.146   0.774
68785W        W40401  41.820   9.185   3.217
68786W        W40402   0.760   8.392  14.452
68787W        W40403  19.606  42.380  12.470
68788W        W40404  12.911  27.414   1.394
68789W        W40405  43.469  11.070  12.155
68790W        W40406  24.588  27.848   1.326
68791W        W40407  28.735  23.433  14.401
68792W        W40408  17.568  23.994   0.899
68793W        W40409  40.453   4.185   4.708
68794W        W40410  42.029  12.701  13.945
68795W        W40411  11.103  24.561  11.561
68796W        W40412  18.241  17.063   0.831
68797W        W40413  37.837  41.851  13.892
68798W        W40414   5.324  25.562   2.397
68799W        W40415  29.835  27.908   3.151
68800W        W40416  12.837  29.866   0.927
68801W        W40417  35.312   8.134   4.807
68802W        W40418  31.742  29.382   2.156
68803W        W40419   2.411   7.176   5.058
68804W        W40420  14.333  15.322   2.938
68805W        W40421   3.444   9.503  14.760
68806W        W40422  40.637   6.179   5.023
68807W        W40423  36.616  14.216   3.737
68808W        W40424  23.840   1.713   3.335
68809W        W40425  16.581  24.052   1.779
68810W        W40426  10.378  23.005  11.595
68811W        W40427  29.557  43.955  11.353
68812W        W40428  18.226  15.393  11.880
68813W        W40429   3.690  33.124   0.319
68814W        W40430  30.043  43.335  13.086
68815W        W40431  38.840  43.214   2.655
68816W        W40432  30.566  21.320  11.221
68817W        W40433   1.281  40.795   4.538
68818W        W40434  26.590  26.964  10.645
68819W        W40435  21.831  19.354  14.933
68820W        W40436  10.286  41.818   1.778
68821W        W40437  19.249  13.574   3.424
68822W        W40438   6.122  39.425  13.622
68823W        W40439   4.066  28.096  14.872
68824W        W40440  34.535  10.932  10.516
68825W        W40441  11.003  20.608   3.659
68826W        W40442  33.539  18.020   0.938
68827W        W40443  21.583  39.116   0.911
68828W        W40444   9.144  34.732   2.737
68829W        W40445   1.782  42.353  11.652
68830W        W40446  38.588  30.727  13.971
68831W        W40447   3.795  15.526  12.235
68832W        W40448  13.213  20.830   3.189
68833W        W40449  21.154   9.999   3.745
68834W        W40450   7.119  33.387  13.932
68835W        W40451  33.945  44.913   4.770
68836W        W40452  29.867  41.326  13.581
68837W        W40453  42.191  17.710  12.797
68838W        W40454  43.351  38.753   0.195
68839W        W40455  20.599  27.506  14.369
68840W        W40456  20.915  39.227   2.746
68841W        W40457  28.536  28.867   4.233
68842W        W40458  26.070  35.269  13.345
68843W        W40459   0.322  12.831  14.410
68844W        W40460   2.912  33.939   0.214
68845W        W40461  13.345   0.517   3.732
68846W        W40462  24.462  25.930   2.905
68847W        W40463  18.166   8.786  14.833
68848W        W40464  35.063  38.407  13.744
68849W        W40465  35.466   0.069  11.514
68850W        W40466  17.178   8.398   3.460
68851W        W40467   1.383  43.372   0.937
68852W        W40468   1.952  30.098   4.812
68853W        W40469   0.994  39.773  12.693
68854W        W40470  15.571  30.591   1.238
68855W        W40471  27.385  10.420   1.929
68856W        W40472   2.344  13.233   3.255
68857W        W40473   9.641   6.741  13.418
68858W        W40474   0.734  23.090  13.540
68859W        W40475  38.047   2.663  13.962
68860W        W40476  25.931  15.321   4.123
68861W        W40477  28.669  35.834   3.235
68862W        W40478   2.368  21.668   0.596
68863W        W40479  19.354  22.700  13.008
68864W        W40480  38.472  13.009   4.013
68865W        W40481  14.055  18.766  11.124
68866W        W40482  29.132  42.009   2.791
68867W        W40483  24.803  41.923   2.106
68868W        W40484  11.140   8.863  11.370
68869W        W40485  42.924  43.488   0.689
68870W        W40486  36.466   0.914   3.724
68871W        W40487  17.462  25.138   3.256
68872W        W40488  30.105  29.118  10.681
68873W        W40489   8.318  33.082  11.377
68874W        W40490  31.173  20.510  14.974
68875W        W40491  20.466  24.442   3.845
68876W        W40492  20.782  17.086  12.893
68877W        W40493   7.172   6.242   3.243
68878W        W40494   6.153  30.420   0.196
68879W        W40495  10.655   8.840   1.691
68880W        W40496   4.245  26.540  13.311
68881W        W40497  15.090  20.658  13.318
68882W        W40498  25.644   9.366  13.994
68883W        W40499  41.850  25.930   3.848
68884W        W40500   6.361   5.442  10.574
68885W        W40501   0.757  14.117  12.357
68886W        W40502  42.434  30.817   0.782
68887W        W40503  29.499   1.929   0.282
68888W        W40504  42.818  43.092   4.715
68889W        W40505  22.856  21.792   2.208
68890W        W40506   2.734   4.112   1.029
68891W        W40507  29.544   4.178  12.450
68892W        W40508   1.762  12.727   0.730
68893W        W40509   6.632   9.354   3.582
68894W        W40510  21.428  41.423  12.772
68895W        W40511  44.933  32.396  13.011
68896W        W40512  36.612  39.719   9.888
68897W        W40513  43.798  24.221  12.988
68898W        W40514  22.929  32.087  11.670
68899W        W40515   2.969   6.594  11.493
68900W        W40516  17.754  20.623  11.362
68901W        W40517  15.143   0.525   3.275
68902W        W40518  23.713  31.453   3.207
68903W        W40519   2.828   8.789   3.198
68904W        W40520  35.551   7.243   2.287
68905W        W40521  19.975   3.386   2.818
68906W        W40522  28.126  39.465  12.542
68907W        W40523   1.376  41.265   0.229
68908W        W40524   0.995   8.810  12.791
68909W        W40525  37.996  14.281   2.697
68910W        W40526   2.684   7.650   1.409
68911W        W40527  16.895  16.587   0.475
68912W        W40528  33.302  16.172   2.728
68913W        W40529  21.531  44.526  11.134
68914W        W40530  19.640   0.990   2.397
68915W        W40531  37.521  42.939   2.708
68916W        W40532  21.622  13.590  12.107
68917W        W40533   8.654   0.084  14.049
68918W        W40534  30.508  28.035  14.792
68919W        W40535  20.186  33.609  10.846
68920W        W40536  14.679  44.164   4.725
68921W        W40537  31.880  19.181  12.777
68922W        W40538  15.179   3.188   0.918
68923W        W40539  22.640  23.635   4.655
68924W        W40540  10.917  30.877   3.648
68925W        W40541  35.549  42.848   1.447
68926W        W40542  34.872  34.152   4.621
68927W        W40543  25.058  13.849  14.285
68928W        W40544  41.851  30.467  11.176
68929W        W40545  21.752   3.849   4.302
68930W        W40546   7.881  38.179  14.452
68931W        W40547  38.085   5.719   3.682
68932W        W40548  13.113  23.595   4.892
68933W        W40549  44.765  12.206   3.355
68934W        W40550  27.057   7.824   1.299
68935W        W40551   3.184  38.881  14.092
68936W        W40552  27.567   3.345   1.875
68937W        W40553   9.915   9.167   3.708
68938W        W40554  39.110  21.297   2.056
68939W        W40555  40.202  37.565  10.897
68940W        W40556  18.209  39.162  12.155
68941W        W40557  34.985  29.070  11.911
68942W        W40558   6.438   3.870   4.258
68943W        W40559  41.377   6.495  12.069
68944W        W40560   8.330  40.650   4.087
68945W        W40561  38.824   6.661  11.053
68946W        W40562  44.183  39.058   4.198
68947W        W40563  26.730  17.537   3.710
68948W        W40564  44.356  42.239  13.830
68949W        W40565  16.614  24.911  10.661
68950W        W40566  10.380  40.599  13.293
68951W        W40567  40.055  32.543   1.498
68952W        W40568  41.743  31.375   3.801
68953W        W40569  26.136  23.035  11.888
68954W        W40570  25.808  31.291  12.065
68955W        W40571  24.514   6.286   4.719
68956W        W40572  11.731   2.729  12.531
68957W        W40573  14.047   5.909   0.796
68958W        W40574   0.434  12.075   2.869
68959W        W40575  12.054  26.532  11.638
68960W        W40576   5.928  31.331   1.765
68961W        W40577  19.556  11.477  11.473
68962W        W40578  24.921  16.548  12.019
68963W        W40579  31.576  24.934  11.455
68964W        W40580  37.312  35.047   2.361
68965W        W40581  39.893   5.582   1.919
68966W        W40582  42.423   7.890  10.786
68967W        W40583  15.147  18.082   2.799
68968W        W40584  43.126  20.948   0.616
68969W        W40585  12.789  25.636  13.482
68970W        W40586  36.873  26.898  10.749
68971W        W40587  37.866  33.386   4.221
68972W        W40588  35.731  16.332  14.978
68973W        W40589  17.459  11.927  11.257
68974W        W40590  28.949  11.811  12.919
68975W        W40591  38.261  28.415  12.571
68976W        W40592   1.158   6.207  11.524
68977W        W40593  33.034  14.206   0.795
68978W        W40594  42.944  16.821  14.438
68979W        W40595  38.863  35.062   3.269
68980W        W40596   1.899   6.214  10.741
68981W        W40597  18.795   5.704  11.140
68982W        W40598  21.531  17.389  11.675
68983W        W40599   4.676  13.055   1.813
68984W        W40600   7.414  44.999  12.056
68985W        W40601  33.513  36.850   0.895
68986W        W40602  27.362  16.187   0.964
68987W        W40603  18.538  10.768  13.503
68988W        W40604  29.018  17.318   4.470
68989W        W40605   3.887  14.675   0.004
68990W        W40606  28.743  21.817   2.745
68991W        W40607  15.673  29.377   0.499
68992W        W40608  12.195  44.240  11.957
68993W        W40609  11.187  19.055   4.569
68994W        W40610  22.969   2.991  14.027
68995W        W40611   1.999  35.796  11.080
68996W        W40612  14.131  42.921  10.565
68997W        W40613  29.501  28.650   4.731
68998W        W40614  11.842  40.642   3.158
68999W        W40615  21.549  13.297  14.316
69000W        W40616  18.558  35.212   1.342
69001W        W40617  25.114  19.121  12.834
69002W        W40618  21.348  33.011   1.276
69003W        W40619  37.432  11.658  11.087
69004W        W40620  20.022  21.717   2.778
69005W        W40621  18.663  10.657  14.016
69006W        W40622  37.827  16.582   0.457
69007W        W40623  12.336  28.086  13.898
69008W        W40624   2.326  10.605  11.461
69009W        W40625  21.329  24.425  13.877
69010W        W40626   2.914  11.723   2.739
69011W        W40627  22.647   5.386  10.724
69012W        W40628   8.171  19.591   2.278
69013W        W40629  11.899  30.815   5.060
69014W        W40630  29.377   0.001   1.919
69015W        W40631  13.858   5.523  12.024
69016W        W40632  17.544   6.893   0.928
69017W        W40633  27.105  44.847   3.825
69018W        W40634  19.287  43.442   1.088
69019W        W40635  21.312   2.318  13.024
69020W        W40636  37.117  33.403   3.573
69021W        W40637  12.812   3.934  11.826
69022W        W40638  22.379  36.800  10.371
69023W        W40639  10.651  11.941  10.729
69024W        W40640   3.910  31.650   4.619
69025W        W40641  38.354   9.665   0.814
69026W        W40642  42.492  19.364  10.492
69027W        W40643   5.308  29.708   4.131
69028W        W40644  22.071  17.194  12.504
69029W        W40645  24.997  35.498  12.529
69030W        W40646  27.211  41.344  13.802
69031W        W40647   8.175  22.634   0.834
69032W        W40648  38.481   2.771  11.513
69033W        W40649  21.296  30.508  14.846
69034W        W40650  22.334  23.540  10.718
69035W        W40651   7.821  31.878  12.100
69036W        W40652  26.508  20.383   1.639
69037W        W40653   7.863  33.692  13.605
69038W        W40654  22.212  27.288  13.811
69039W        W40655  33.948  43.990  13.021
69040W        W40656  14.787   9.209  11.002
69041W        W40657  22.020   2.906   1.338
69042W        W40658   8.843  34.917   2.241
69043W        W40659  39.264  10.646   4.590
69044W        W40660   6.645  38.809   0.896
69045W        W40661  42.248  14.226  14.954
69046W        W40662  12.069  44.524  11.505
69047W        W40663  12.332   6.649  14.411
69048W        W40664  22.476  13.195  10.704
69049W        W40665  23.213   4.831  14.714
69050W        W40666  20.592  25.628  12.314
69051W        W40667   3.938  29.768   0.451
69052W        W40668  41.388  30.749  12.576
69053W        W40669  32.604  34.551  14.028
69054W        W40670   4.253  31.038  14.140
69055W        W40671   4.831  24.435  14.329
69056W        W40672  12.260  14.557   2.779
69057W        W40673  43.133  30.562  13.890
69058W        W40674  41.589  35.624  10.649
69059W        W40675  29.885  42.018  11.925
69060W        W40676  27.592  39.452   4.730
69061W        W40677   7.457   4.742   4.603
69062W        W40678  11.825  42.272   4.189
69063W        W40679  41.612   1.587  11.139
69064W        W40680  33.095  14.271  12.074
69065W        W40681  19.602  15.872   3.303
69066W        W40682  35.901  19.608   0.475
69067W        W40683  31.507   7.051  12.553
69068W        W40684   5.140  41.059  10.863
69069W        W40685  14.959   4.933  12.452
69070W        W40686  18.108   2.247  11.239
69071W        W40687  11.332   3.865   4.611
69072W        W40688  22.590   0.206  12.850
69073W        W40689  39.772  28.926  14.163
69074W        W40690  34.614  30.425   2.319
69075W        W40691  44.709  39.803  14.120
69076W        W40692  29.279  16.288   3.785
69077W        W40693  43.314  14.730  12.974
69078W        W40694   9.197  40.780  14.902
69079W        W40695  39.528  27.340  11.065
69080W        W40696  39.291   1.700  12.314
69081W        W40697   4.426   0.737  12.220
69082W        W40698  18.187  21.057   1.774
69083W        W40699   1.204   3.536   2.046
69084W        W40700  37.109  25.048  10.671
69085W        W40701  41.578   9.279  12.050
69086W        W40702  16.007  33.524  10.202
69087W        W40703  10.241  19.642   0.007
69088W        W40704   3.493   8.768  13.492
69089W        W40705   3.030   0.459  11.162
69090W        W40706  13.967  15.299  11.150
69091W        W40707  28.089  29.136  12.615
69092W        W40708  16.921  17.996  10.495
69093W        W40709  12.342  25.100   4.564
69094W        W40710  32.150  23.514   1.849
69095W        W40711   5.650  34.764  11.375
69096W        W40712  19.253  21.048   3.710
69097W        W40713  12.318  41.181   3.725
69098W        W40714  22.955  34.702  14.989
69099W        W40715   2.368  13.622  13.942
69100W        W40716  17.842  38.520   0.835
69101W        W40717  44.804   4.270   1.345
69102W        W40718  39.702   4.008   2.666
69103W        W40719  24.301  15.828   5.060
69104W        W40720  43.084  43.383   3.584
69105W        W40721  43.207  20.998   3.637
69106W        W40722   4.570  39.647   1.296
69107W        W40723  29.208  35.093   3.059
69108W        W40724  37.468  25.841  11.496
69109W        W40725  38.556   5.874  11.953
69110W        W40726  44.808  43.881   4.936
69111W        W40727  16.537  18.247   4.719
69112W        W40728  37.535   6.212   5.241
69113W        W40729  33.978  39.190   0.974
69114W        W40730  31.947  11.583   3.397
69115W        W40731  22.084  17.174  11.583
69116W        W40732   7.017  24.696   1.220
69117W        W40733   3.529  35.991  14.279
69118W        W40734  24.752   3.662   2.457
69119W        W40735   6.690   8.296   1.342
69120W        W40736  20.806   0.768  13.927
69121W        W40737  10.936  27.022   1.817
69122W        W40738   8.597  25.603  13.152
69123W        W40739  39.751  37.322  11.617
69124W        W40740   0.753  38.034   1.372
69125W        W40741  25.194  10.392   3.067
69126W        W40742  39.642  37.950  11.521
69127W        W40743  43.220   2.473  13.521
69128W        W40744  14.406  12.580  12.917
69129W        W40745  14.771   1.757  10.726
69130W        W40746  39.725   4.005   3.199
69131W        W40747   1.801  14.263  10.968
69132W        W40748   2.025  13.139   0.893
69133W        W40749   8.167  42.086   0.084
69134W        W40750  38.829   3.308  14.145
69135W        W40751  10.411  29.202   1.219
69136W        W40752  31.648  18.768  12.045
69137W        W40753  40.124   8.253   0.847
69138W        W40754  30.906  43.525   1.294
69139W        W40755  36.912  24.122   0.510
69140W        W40756  43.022  36.277  13.878
69141W        W40757   0.395  40.011  11.607
69142W        W40758   3.195  32.284   4.402
69143W        W40759  13.682   6.419  12.474
69144W        W40760  39.459  36.377  14.774
69145W        W40761  40.334  34.523   1.426
69146W        W40762  23.152  37.025  11.102
69147W        W40763  21.932  35.312   3.475
69148W        W40764  20.551  29.191   1.012
69149W        W40765  17.825  17.185   3.241
69150W        W40766   1.445  27.130   3.327
69151W        W40767  14.786  24.049   3.385
69152W        W40768  13.115  34.572   4.176
69153W        W40769  32.101  35.374   0.560
69154W        W40770  19.203  38.303  14.198
69155W        W40771  15.347  43.415  14.480
69156W        W40772  14.150  11.239  13.160
69157W        W40773   8.274   4.783  11.148
69158W        W40774  28.449  23.250   4.804
69159W        W40775  41.719  35.750  11.122
69160W        W40776  18.859  39.373  14.531
69161W        W40777  10.523  17.403  12.946
69162W        W40778  27.165  32.008   1.499
69163W        W40779   8.731   2.243  12.892
69164W        W40780  23.145  20.263   1.883
69165W        W40781  35.382   5.645   0.858
69166W        W40782  32.510  22.495   4.236
69167W        W40783  11.910  11.343  13.389
69168W        W40784  18.998  30.043  12.981
69169W        W40785  30.047  28.875  14.906
69170W        W40786  42.670  39.544  13.247
69171W        W40787  41.326  24.448  12.106
69172W        W40788  37.184  13.952   2.177
69173W        W40789  11.872   3.254  12.538
69174W        W40790  39.115  39.115   3.717
69175W        W40791  41.483  43.478   4.468
69176W        W40792  24.714   8.127  12.328
69177W        W40793  31.456  42.228   0.401
69178W        W40794   9.795   5.455   0.142
69179W        W40795  15.338  37.980   3.672
69180W        W40796  15.765  13.194   3.253
69181W        W40797  13.716  39.944   4.095
69182W        W40798  34.097  18.141   2.719
69183W        W40799   9.279  20.701  10.854
69184W        W40800  36.428  30.882   2.294
69185W        W40801  23.429   0.396  11.028
69186W        W40802  38.125   7.479   4.170
69187W        W40803  21.439  18.688  13.990
69188W        W40804  36.549   7.082  10.423
69189W        W40805   7.936  35.359   2.102
69190W        W40806  39.667  16.403   1.461
69191W        W40807  20.629  29.623  12.946
69192W        W40808  42.590   8.407  14.476
69193W        W40809  40.056  17.111  13.957
69194W        W40810   6.632   6.757   1.637
69195W        W40811   8.005  39.621  13.977
69196W        W40812  30.636  41.235   2.280
69197W        W40813   6.779   7.369  12.439
69198W        W40814  41.903  23.442  13.513
69199W        W40815  11.434  24.228   3.903
69200W        W40816   8.408  37.816   1.740
69201W        W40817   9.973  42.380   2.885
69202W        W40818   0.978  31.855  12.604
69203W        W40819  33.191  15.783  14.601
69204W        W40820  35.944  16.576  14.581
69205W        W40821   9.312  11.384  10.678
69206W        W40822  38.785  11.734   1.005
69207W        W40823  39.275  36.816  14.982
69208W        W40824  27.323  21.583   2.878
69209W        W40825  14.775   5.469   0.736
69210W        W40826  21.936  16.313  10.714
69211W        W40827  21.579  39.749  11.989
69212W        W40828  36.362  32.610  12.801
69213W        W40829   5.306  20.005   4.165
69214W        W40830   2.531  14.064   4.305
69215W        W40831  28.567  25.048   2.317
69216W        W40832   6.794  38.012   3.989
69217W        W40833   7.884  19.159  14.041
69218W        W40834  11.845   2.034   3.678
69219W        W40835  26.796  12.208   4.194
69220W        W40836  43.116  43.511   4.510
69221W        W40837  25.441  33.597   1.418
69222W        W40838  12.166  40.570  12.503
69223W        W40839  35.138  24.992  12.928
69224W        W40840  31.579   0.875   0.667
69225W        W40841  12.853  19.584   3.716
69226W        W40842  35.968  10.122  12.132
69227W        W40843   6.894  14.795   4.475
69228W        W40844  36.654  12.825  14.287
69229W        W40845  40.822  27.563  13.844
69230W        W40846  43.492  30.518   3.610
69231W        W40847  34.001  19.978  14.362
69232W        W40848  28.080  39.947  12.651
69233W        W40849   4.787  15.039   2.328
69234W        W40850   1.868   1.165   0.969
69235W        W40851  13.605  22.308   0.448
69236W        W40852  35.106  40.801   1.872
69237W        W40853  27.978  20.351  11.508
69238W        W40854  27.514   4.820  12.005
69239W        W40855   0.052  36.866   1.853
69240W        W40856  44.003  21.046   2.168
69241W        W40857  41.496  34.868  11.316
69242W        W40858  24.449   6.795   3.871
69243W        W40859  44.872  17.235   0.448
69244W        W40860  15.182  41.968   0.407
69245W        W40861  32.687   9.261   2.124
69246W        W40862  35.041   3.455  13.445
69247W        W40863  20.732  37.010   0.920
69248W        W40864  31.986   8.206   3.157
69249W        W40865  44.891  37.705  12.844
69250W        W40866  34.499  19.312  10.889
69251W        W40867  44.506  21.697  14.228
69252W        W40868  23.252  17.855   3.299
69253W        W40869  20.808  10.246  13.599
69254W        W40870  42.288  41.848   0.009
69255W        W40871  30.475  41.033   4.589
69256W        W40872  14.048  17.085   2.733
69257W        W40873   8.307  37.854  14.537
69258W        W40874  18.087  33.983   3.633
69259W        W40875  21.599  19.663   1.216
69260W        W40876   9.770  17.378  13.524
69261W        W40877  23.753  11.667   2.281
69262W        W40878  40.743  34.020   4.489
69263W        W40879   8.276  30.926  10.607
69264W        W40880  34.929  42.041  10.681
69265W        W40881   7.407  44.453   3.770
69266W        W40882   4.837  34.536   3.775
69267W        W40883  17.682  37.114  13.846
69268W        W40884  42.091  35.876  11.660
69269W        W40885  15.200   7.822  14.748
69270W        W40886  10.093   0.665   3.220
69271W        W40887  39.844  43.526   0.209
69272W        W40888  19.629  34.440   3.252
69273W        W40889  33.146  18.515   4.380
69274W        W40890  38.668  12.012   1.418
69275W        W40891   6.898  21.752   2.225
69276W        W40892  18.370  34.356  13.056
69277W        W40893  21.528  12.549   0.852
69278W        W40894  12.772  10.975   3.631
69279W        W40895  34.044  14.647   1.762
69280W        W40896   1.938  27.667  11.569
69281W        W40897  14.280  42.746   0.893
69282W        W40898  36.936  26.015   2.680
69283W        W40899  41.306  12.164   0.435
69284W        W40900   2.408  34.946   1.801
69285W        W40901  23.978  34.348  13.074
69286W        W40902  34.342  34.526  14.459
69287W        W40903  27.547  43.815  11.818
69288W        W40904  25.709  42.502  11.161
69289W        W40905  30.192   8.430   2.152
69290W        W40906  14.205  36.354   1.697
69291W        W40907   5.717  15.148   0.467
69292W        W40908  20.666  20.292   2.754
69293W        W40909  22.151   8.820  13.914
69294W        W40910  38.153  21.941  12.007
69295W        W40911  21.515  37.427   4.649
69296W        W40912  26.997   9.828   1.225
69297W        W40913  37.026  10.127  13.722
69298W        W40914  31.399  31.560   4.700
69299W        W40915  28.706   3.850  14.023
69300W        W40916  31.420  44.362   5.530
69301W        W40917  19.618   0.422   3.640
69302W        W40918  21.198  32.405  11.705
69303W        W40919  35.454  39.121  13.737
69304W        W40920  39.002  20.006  11.431
69305W        W40921  42.523  43.031  12.338
69306W        W40922  33.597  26.425  13.499
69307W        W40923  43.767   3.492  14.947
69308W        W40924   1.085  19.705   0.288
69309W        W40925  19.110  42.106  12.993
69310W        W40926   8.094  29.508  11.596
69311W        W40927  44.001  31.495  11.640
69312W        W40928  18.685  24.798   4.107
69313W        W40929  41.416  31.510   0.894
69314W        W40930  44.637  27.517  13.343
69315W        W40931  27.155  43.494  11.928
69316W        W40932  40.933  14.724  14.448
69317W        W40933  34.681  38.088  11.147
69318W        W40934   3.568  34.182   1.904
69319W        W40935  11.326  19.156   0.860
69320W        W40936   7.983  32.453   1.825
69321W        W40937  15.304  34.002   3.245
69322W        W40938   6.070  26.036  11.953
69323W        W40939  23.464  20.991   2.248
69324W        W40940  13.513  23.800  14.569
69325W        W40941  16.557  44.313   2.922
69326W        W40942  32.564  19.169  11.743
69327W        W40943  29.975  21.954   0.697
69328W        W40944  24.681   7.912  11.478
69329W        W40945  33.855  33.160   0.709
69330W        W40946  32.926  44.853   4.618
69331W        W40947  37.935  43.516  12.134
69332W        W40948  18.314  35.950  12.033
69333W        W40949  22.584  20.740   0.698
69334W        W40950  39.694  24.164  12.684
69335W        W40951  16.063  26.095   4.244
69336W        W40952  17.344   3.871   4.180
69337W        W40953  13.689  32.087   4.917
69338W        W40954  36.349   0.023  10.369
69339W        W40955   2.881   5.122   1.292
69340W        W40956  20.648  14.070   0.119
69341W        W40957   6.506  21.209  13.502
69342W        W40958   8.065  18.305  13.897
69343W        W40959  26.563  39.577  14.314
69344W        W40960  34.851  15.270   2.448
69345W        W40961  42.967  31.804  13.532
69346W        W40962   9.620  15.256   2.393
69347W        W40963  14.156  19.523   1.977
69348W        W40964  43.536  27.549   3.189
69349W        W40965  32.295  20.260  13.518
69350W        W40966  41.046   6.358  14.630
69351W        W40967   1.899  41.245  12.972
69352W        W40968  18.272  39.856   1.215
69353W        W40969  33.435  40.865   1.531
69354W        W40970   5.889  34.912   2.414
69355W        W40971   3.554  44.012   0.689
69356W        W40972  44.037  13.273   4.611
69357W        W40973  42.685   9.684   4.218
69358W        W40974  10.116  12.146  13.033
69359W        W40975  10.579   3.769  11.654
69360W        W40976   1.372  18.318   2.225
69361W        W40977  17.451   9.308   1.372
69362W        W40978  39.628  36.474  10.694
69363W        W40979  36.494   0.883  10.643
69364W        W40980   0.748   0.768   3.740
69365W        W40981  26.122  31.313   4.004
69366W        W40982  26.693   8.901   3.667
69367W        W40983  22.956  17.305   2.228
69368W        W40984  30.979   8.495  14.890
69369W        W40985  39.058  26.582  10.674
69370W        W40986  35.877  18.567  11.065
69371W        W40987  29.010   7.961   2.045
69372W        W40988  13.922  39.203   1.031
69373W        W40989  10.303  39.947  14.014
69374W        W40990  42.582  17.759  12.433
69375W        W40991  30.624  24.016  10.480
69376W        W40992  13.665  23.629   4.622
69377W        W40993  23.275   9.702   4.597
69378W        W40994  18.685  39.159  12.853
69379W        W40995  34.082  32.736   0.371
69380W        W40996  38.100  32.363  12.151
69381W        W40997  32.054  37.323   2.464
69382W        W40998  14.602  43.253   3.587
69383W        W40999  33.726  25.726  11.637
69384W        W41000  13.675  17.979   4.602
69385W        W41001  30.170  13.608  11.988
69386W        W41002  27.581   6.409  10.480
69387W        W41003   8.661  34.011  13.581
69388W        W41004  34.875  29.260   4.117
69389W        W41005  36.377  24.506  13.794
69390W        W41006  20.817  29.075   2.430
69391W        W41007  34.091  35.942   4.062
69392W        W41008  40.523   9.326   2.791
69393W        W41009  33.928  42.099  12.850
69394W        W41010   3.052  17.235  14.330
69395W        W41011  10.141  18.057   2.395
69396W        W41012  30.674  42.456  11.833
69397W        W41013  37.855  38.446   3.813
69398W        W41014  22.190  28.025   3.241
69399W        W41015  22.412  35.602   2.524
69400W        W41016  30.401  34.538   3.975
69401W        W41017   6.420  28.132   4.990
69402W        W41018  44.148  14.241  11.923
69403W        W41019  43.807  11.770   2.253
69404W        W41020   4.740   8.210  10.756
69405W        W41021  28.544  34.072   3.698
69406W        W41022   3.980  41.850   2.831
69407W        W41023  11.827  22.452   4.220
69408W        W41024  20.509  16.375   2.894
69409W        W41025  10.610  26.191  13.912
69410W        W41026  15.704  28.518   4.569
69411W        W41027  11.806  17.233  14.464
69412W        W41028   5.881  38.311  13.502
69413W        W41029  20.828  21.533   3.172
69414W        W41030  18.080   3.961   1.460
69415W        W41031   0.048   9.720   1.884
69416W        W41032  17.277  29.452   3.228
69417W        W41033  31.651  29.712   0.425
69418W        W41034  17.857  24.270  11.174
69419W        W41035   5.262  33.788  13.013
69420W        W41036  18.861  18.029  13.423
69421W        W41037   0.964  16.300  13.997
69422W        W41038   1.695  32.016   3.197
69423W        W41039  33.849  15.464   4.124
69424W        W41040  13.605  12.373  11.239
69425W        W41041  42.368  38.312  12.478
69426W        W41042  34.897  22.730   1.839
69427W        W41043  34.679  30.472  11.170
69428W        W41044  30.918  37.456  10.263
69429W        W41045  15.175   9.612  11.179
69430W        W41046  27.044  10.442   4.104
69431W        W41047  28.477  10.293  12.574
69432W        W41048   3.939  14.263  12.466
69433W        W41049  16.761  26.667  11.169
69434W        W41050  44.502  15.782  12.597
69435W        W41051  29.366  30.178  14.996
69436W        W41052  43.834   3.684   2.199
69437W        W41053  44.764  14.345  12.070
69438W        W41054  10.169  27.174   1.110
69439W        W41055  34.043   5.222   0.690
69440W        W41056  26.265  23.114   1.753
69441W        W41057  19.671   1.664   0.944
69442W        W41058  14.225  38.758  13.851
69443W        W41059  31.210  30.575  11.074
69444W        W41060  13.868   1.885   3.905
69445W        W41061  25.767  36.767  12.028
69446W        W41062  24.603  36.328   2.783
69447W        W41063  44.618  35.662  13.534
69448W        W41064  40.902  27.997   1.861
69449W        W41065  42.512  12.657  13.669
69450W        W41066  15.905  40.928  13.770
69451W        W41067  26.629  17.122  14.326
69452W        W41068  37.861  12.124   4.375
69453W        W41069   9.598   3.371  12.795
69454W        W41070  15.678  23.606   3.123
69455W        W41071  19.268  19.992   2.719
69456W        W41072   7.018   4.274   0.287
69457W        W41073  44.181  16.828   3.768
69458W        W41074  33.622   9.881   4.611
69459W        W41075  11.185  16.305   3.965
69460W        W41076  41.363  23.180  10.605
69461W        W41077  22.830   4.600  11.248
69462W        W41078   4.896  16.053   2.325
69463W        W41079  35.909  17.337  13.857
69464W        W41080  14.585  44.596  10.670
69465W        W41081  40.980   2.405  11.119
69466W        W41082   3.356  30.442  13.096
69467W        W41083  10.785  18.226  13.447
69468W        W41084  44.009  34.335   0.378
69469W        W41085  26.112  10.569  11.595
69470W        W41086   7.401  36.045   3.718
69471W        W41087  29.366  28.014   5.069
69472W        W41088   1.135  26.572   2.346
69473W        W41089  34.038  29.739   0.637
69474W        W41090  25.708  14.523   3.771
69475W        W41091   8.634  24.272   3.629
69476W        W41092  43.808  17.155   3.911
69477W        W41093  10.240  19.502   2.221
69478W        W41094  43.277   8.252   3.190
69479W        W41095   7.694  32.514   1.410
69480W        W41096  23.752  14.285  14.511
69481W        W41097   8.214  32.000   1.691
69482W        W41098  41.850  20.571  11.648
69483W        W41099  36.003  13.038   0.248
69484W        W41100   7.004  25.150   2.625
69485W        W41101  22.482  18.260  13.931
69486W        W41102   8.869  33.394  13.565
69487W        W41103  39.991  13.076  10.625
69488W        W41104  27.097   9.330   2.872
69489W        W41105  34.447   9.156  11.194
69490W        W41106  16.253   6.524  11.587
69491W        W41107  18.651  36.462   0.641
69492W        W41108  25.411  13.724   2.205
69493W        W41109  35.529  34.255   1.889
69494W        W41110   7.867  41.948   0.483
69495W        W41111   4.504  26.654   4.622
69496W        W41112  33.405  21.252   0.495
69497W        W41113   0.834  27.658  11.412
69498W        W41114  39.856  42.267  14.389
69499W        W41115  35.380  16.132  12.444
69500W        W41116  29.023  26.583  11.460
69501W        W41117   5.871  40.604   0.639
69502W        W41118  35.169  17.331   0.808
69503W        W41119  35.488  18.034   3.803
69504W        W41120  34.880   5.378  13.432
69505W        W41121   7.860  26.675  10.782
69506W        W41122  31.685  15.826  13.967
69507W        W41123  40.550   1.236  12.949
69508W        W41124   1.372  16.636   2.917
69509W        W41125  33.897  17.822  12.894
69510W        W41126  24.161   3.099  11.391
69511W        W41127  40.442   2.059   4.655
69512W        W41128   7.770  40.959   1.449
69513W        W41129  23.512  19.372  10.611
69514W        W41130  43.770  37.163  11.618
69515W        W41131  17.500  40.895  12.845
69516W        W41132  13.839   6.779  11.044
69517W        W41133  14.330  26.599  10.628
69518W        W41134  13.243  43.419   1.412
69519W        W41135   2.980  28.414   2.283
69520W        W41136  24.105   5.015  10.679
69521W        W41137  39.670   3.086   4.216
69522W        W41138  13.098  34.766  13.130
69523W        W41139  32.835  33.334   0.886
69524W        W41140  36.338  22.616  11.459
69525W        W41141  11.179  39.856   1.635
69526W        W41142   2.206  29.558   3.291
69527W        W41143  40.542  36.011  10.593
69528W        W41144  22.607  24.475  14.252
69529W        W41145  11.910  26.092  13.473
69530W        W41146  29.986   4.652   1.167
69531W        W41147  19.470  35.507   4.184
69532W        W41148  22.233  20.247   2.834
69533W        W41149  20.301   3.974  14.549
69534W        W41150  36.166  37.997   1.229
69535W        W41151  31.122  28.138   1.914
69536W        W41152   1.890  19.260  14.271
69537W        W41153  14.098  21.427  12.210
69538W        W41154  21.200   6.820  11.825
69539W        W41155  41.808  43.024   4.596
69540W        W41156   7.335   7.220   0.456
69541W        W41157   9.598   4.956   2.177
69542W        W41158   0.203  39.345  11.144
69543W        W41159   7.145   4.597  12.053
69544W        W41160  11.279  37.537   2.749
69545W        W41161  25.503  12.099   3.205
69546W        W41162   9.772  15.897   3.916
69547W        W41163   8.625   1.040   3.224
69548W        W41164   2.016  38.043  10.586
69549W        W41165  23.159   6.317   2.408
69550W        W41166   7.400  37.595  11.535
69551W        W41167  25.990  28.955  14.390
69552W        W41168   5.245  21.220   0.030
69553W        W41169  25.397  16.334   3.297
69554W        W41170  39.883  22.629   1.007
69555W        W41171  25.629   5.778  13.506
69556W        W41172  11.842   9.798  12.104
69557W        W41173  34.539  35.446  10.876
69558W        W41174  23.264   6.252  13.724
69559W        W41175  11.819  20.131   1.358
69560W        W41176  28.060  13.500  13.856
69561W        W41177  37.764  32.853   4.158
69562W        W41178  20.237  21.776  10.681
69563W        W41179   7.808  39.523  10.690
69564W        W41180  13.142  21.104  13.152
69565W        W41181  39.589  11.861  11.084
69566W        W41182  37.346  44.889  11.359
69567W        W41183   5.239  38.866   3.604
69568W        W41184  43.965  38.449   4.681
69569W        W41185  34.410  17.089   3.870
69570W        W41186  44.923  13.190  12.701
69571W        W41187  23.542  24.305  14.309
69572W        W41188  15.861  10.630  11.967
69573W        W41189   5.935  23.391  12.440
69574W        W41190  12.738  23.513   1.946
69575W        W41191  32.047  32.079   1.227
69576W        W41192  14.060  31.073   3.956
69577W        W41193   0.389  14.392  12.728
69578W        W41194  18.746   2.371   2.416
69579W        W41195  37.778  17.534  11.207
69580W        W41196  16.578   4.441  12.955
69581W        W41197  25.491   1.009   0.939
69582W        W41198   5.787  13.741  11.925
69583W        W41199  16.573  25.962  10.668
69584W        W41200  42.460  22.062  10.902
69585W        W41201  38.469  21.704  14.554
69586W        W41202   3.925  28.482  14.456
69587W        W41203   9.742  17.995   3.830
69588W        W41204  26.243  26.995  13.622
69589W        W41205  21.895  27.403  14.996
69590W        W41206   4.825  21.881  12.845
69591W        W41207  18.209  31.962  13.522
69592W        W41208  20.954  14.146   0.528
69593W        W41209  19.139  37.146   0.263
69594W        W41210  33.465  36.434  12.361
69595W        W41211  44.395  13.069   1.277
69596W        W41212  35.606  21.050  13.445
69597W        W41213  29.661   0.794   1.313
69598W        W41214  33.141  43.988   2.695
69599W        W41215  21.179  16.664   3.257
69600W        W41216  24.517  38.384   3.075
69601W        W41217  42.796  43.885   1.763
69602W        W41218  33.750   3.125   0.453
69603W        W41219  44.072  23.730  12.145
69604W        W41220  22.629  32.696  10.588
69605W        W41221  11.321  19.269  14.286
69606W        W41222  43.305  12.307   1.462
69607W        W41223  21.761  22.031   3.279
69608W        W41224  36.382  20.128   1.645
69609W        W41225  41.356   7.902  11.662
69610W        W41226   6.775  23.225  12.116
69611W        W41227   8.236  38.891  12.429
69612W        W41228  39.308   2.149   1.316
69613W        W41229  43.991  22.759  12.887
69614W        W41230  25.865  25.723   0.394
69615W        W41231  19.736  44.328  10.625
69616W        W41232   3.300  22.006   3.873
69617W        W41233  16.401   9.860  14.522
69618W        W41234  16.346  21.039   2.944
69619W        W41235  29.166  38.822   1.739
69620W        W41236  13.694   3.533  13.072
69621W        W41237  41.483  26.891  13.873
69622W        W41238  28.493  22.966   3.815
69623W        W41239  38.735  25.780   0.361
69624W        W41240  21.211   0.037   1.648
69625W        W41241  26.157  11.028   0.825
69626W        W41242  27.069  30.099  13.357
69627W        W41243  44.727  40.693   0.817
69628W        W41244  20.000   7.452  11.912
69629W        W41245  25.673   7.793   2.938
69630W        W41246   7.141  36.939  11.402
69631W        W41247  30.102  35.963  13.934
69632W        W41248   0.489   0.226   4.222
69633W        W41249   8.212  43.547  10.699
69634W        W41250  40.446   1.002  14.958
69635W        W41251   6.800  43.341  12.031
69636W        W41252  13.564  33.990   4.898
69637W        W41253  44.306  38.139   2.366
69638W        W41254  16.011   2.654  13.525
69639W        W41255  12.635  30.104  10.683
69640W        W41256  27.412  15.617   3.740
69641W        W41257  42.890  12.007   1.985
69642W        W41258  31.448   6.863   2.290
69643W        W41259   0.897   7.287   3.467
69644W        W41260  11.712  13.121   0.953
69645W        W41261   4.382  37.755   4.918
69646W        W41262  41.507  37.837   3.239
69647W        W41263  25.745  32.078   3.339
69648W        W41264   5.462   5.783  14.976
69649W        W41265  14.107  42.915  11.629
69650W        W41266  11.082  18.106  12.541
69651W        W41267  34.671   3.430  12.371
69652W        W41268  10.188  39.298  10.211
69653W        W41269  10.066  41.618   0.663
69654W        W41270  37.458  17.056   1.017
69655W        W41271  32.182  29.621  10.587
69656W        W41272  10.808  23.687   2.773
69657W        W41273  36.803  13.281  11.595
69658W        W41274  20.627  40.752   3.737
69659W        W41275  10.227  38.848   1.880
69660W        W41276   2.957  34.196   1.201
69661W        W41277   3.886  38.267   1.939
69662W        W41278   4.030   9.125   0.307
69663W        W41279  41.472  16.389   1.229
69664W        W41280  25.005  41.809   5.088
69665W        W41281   1.420   6.983   2.148
69666W        W41282  30.377   4.742  12.917
69667W        W41283  28.649   1.036  14.711
69668W        W41284  37.010  10.410  10.937
69669W        W41285  17.556  35.044   4.289
69670W        W41286  15.894   7.831   3.808
69671W        W41287  10.372  42.293  13.341
69672W        W41288   7.967   9.587   3.744
69673W        W41289  26.206  36.811  14.375
69674W        W41290   5.795  24.510   0.527
69675W        W41291  43.219  26.640   5.133
69676W        W41292  13.727   5.615  14.876
69677W        W41293   9.173   6.269   5.056
69678W        W41294  12.158  26.563   2.900
69679W        W41295  12.084   2.847   1.711
69680W        W41296   6.892   6.242  11.478
69681W        W41297  15.061  22.756   1.355
69682W        W41298  18.667   1.979   4.988
69683W        W41299  42.540  30.537  10.632
69684W        W41300  25.422   1.700  11.897
69685W        W41301  41.748   3.396  11.492
69686W        W41302  38.109  21.422   2.339
69687W        W41303   3.500  16.001   2.968
69688W        W41304  43.521  11.889   0.910
69689W        W41305  44.388  12.503  11.602
69690W        W41306  24.453   7.762   0.487
69691W        W41307  43.916  17.933   3.745
69692W        W41308  27.921  36.518  13.302
69693W        W41309  29.333  29.502   0.906
69694W        W41310  31.038  19.152   0.689
69695W        W41311  31.386  36.130  11.236
69696W        W41312  40.479   0.865  14.388
69697W        W41313   3.614  35.053   5.099
69698W        W41314  27.950  34.815   4.030
69699W        W41315  44.891   7.107   0.718
69700W        W41316  25.537  35.774   0.835
69701W        W41317  13.190  16.751   4.563
69702W        W41318  11.262  44.895  14.542
69703W        W41319  20.541  44.800  12.176
69704W        W41320   2.261  31.008  14.765
69705W        W41321  36.035  29.355  13.366
69706W        W41322  37.014  41.248  13.013
69707W        W41323  13.297  33.300   1.952
69708W        W41324   1.524  24.658   2.986
69709W        W41325  33.474  27.941   4.065
69710W        W41326  11.126  41.987   1.239
69711W        W41327  16.122  25.019  10.564
69712W        W41328  31.696  23.672   1.515
69713W        W41329  22.536  19.559   0.013
69714W        W41330  35.175  31.913  13.353
69715W        W41331  29.970  33.856  12.933
69716W        W41332  11.409   5.623  13.443
69717W        W41333  44.780   2.497  11.178
69718W        W41334  42.001   7.925   3.555
69719W        W41335  15.550  30.560  12.707
69720W        W41336  31.111   7.760   4.126
69721W        W41337  41.979  26.970  12.065
69722W        W41338   4.274  42.234   2.085
69723W        W41339   5.758  32.920  10.767
69724W        W41340  31.957  19.481  13.783
69725W        W41341  14.847  10.694   4.222
69726W        W41342  29.403  29.419   5.030
69727W        W41343  25.072  28.558   0.366
69728W        W41344  27.129  25.582   1.835
69729W        W41345  19.819  21.320  14.294
69730W        W41346  16.257  18.876   5.066
69731W        W41347  33.489  18.071  13.108
69732W        W41348  16.092  43.490  11.275
69733W        W41349   9.090  37.445  14.643
69734W        W41350  36.363  26.736   3.240
69735W        W41351  30.593  40.394   5.060
69736W        W41352   8.204   6.758   4.560
69737W        W41353  42.363  16.128  12.983
69738W        W41354  26.472  37.026  10.715
69739W        W41355   7.298  22.540  12.092
69740W        W41356  34.014  43.463   4.557
69741W        W41357   7.905   6.682  14.268
69742W        W41358  24.959  11.301  10.675
69743W        W41359  11.231   6.633   2.296
69744W        W41360  31.737  34.609   3.462
69745W        W41361  18.742  28.460  10.549
69746W        W41362  43.177  37.226  10.233
69747W        W41363  15.088  20.740   1.408
69748W        W41364  24.515   2.052  11.938
69749W        W41365  34.031  13.032   0.406
69750W        W41366  13.599   0.707   0.673
69751W        W41367   4.341  23.802  12.976
69752W        W41368  35.076  34.944   1.313
69753W        W41369  32.579  44.495   1.210
69754W        W41370  26.663  10.305  10.770
69755W        W41371  10.915  30.826  13.688
69756W        W41372  21.272  39.592  11.116
69757W        W41373  40.399  43.359  11.239
69758W        W41374  38.927  32.744   2.365
69759W        W41375  14.279   6.302  13.081
69760W        W41376  27.409   1.934  11.089
69761W        W41377  27.292  26.690  11.187
69762W        W41378  44.954  42.297   3.202
69763W        W41379  22.316  39.496   1.961
69764W        W41380  33.831  27.211   0.941
69765W        W41381   0.752   6.139   1.345
69766W        W41382   6.103  26.072  11.119
69767W        W41383   9.980  36.553   5.092
69768W        W41384  44.461  18.610   1.693
69769W        W41385  36.338  32.003  11.644
69770W        W41386  42.008   6.744  11.005
69771W        W41387  23.234   7.435  12.447
69772W        W41388  30.160  25.023   3.153
69773W        W41389  42.182  40.510   3.148
69774W        W41390  25.892  17.393   1.130
69775W        W41391   7.274  15.037   0.632
69776W        W41392  27.484   4.235   0.868
69777W        W41393  44.643   1.451  10.586
69778W        W41394  21.934   3.843   1.383
69779W        W41395  26.766   2.805  13.301
69780W        W41396   6.181  36.342  14.134
69781W        W41397  35.052  29.726   4.226
69782W        W41398   7.893  29.034  10.166
69783W        W41399   5.248  17.751  11.145
69784W        W41400  11.606  31.151   1.417
69785W        W41401  16.379  40.408   3.165
69786W        W41402  34.893  23.455   2.410
69787W        W41403  36.529   2.306  13.027
69788W        W41404   8.371   9.577  14.450
69789W        W41405  13.623  27.204  14.829
69790W        W41406   3.947  38.597  12.930
69791W        W41407  31.911  42.500   4.891
69792W        W41408   1.015  36.487  14.937
69793W        W41409  42.083  23.066  13.859
69794W        W41410  20.521   3.100  11.116
69795W        W41411   6.541  33.901  12.454
69796W        W41412  17.526   4.901  12.175
69797W        W41413  37.377  41.900  11.413
69798W        W41414  17.791  34.469  13.741
69799W        W41415   4.811   3.892  14.948
69800W        W41416  38.535  24.010  13.868
69801W        W41417  25.652  37.856  11.563
69802W        W41418  37.918  22.197   2.183
69803W        W41419  38.555   2.464  11.937
69804W        W41420  13.146  42.949  10.704
69805W        W41421  17.833   9.808   2.160
69806W        W41422  10.290  41.076  13.120
69807W        W41423  22.273  42.338   0.169
69808W        W41424  18.377  20.006  12.389
69809W        W41425  11.421  38.596   4.746
69810W        W41426  15.604  17.250  13.807
69811W        W41427   5.939  44.993  11.988
69812W        W41428  11.013  32.138   3.174
69813W        W41429  33.134  11.963  13.533
69814W        W41430  15.615  41.422  10.868
69815W        W41431  33.580  17.057  12.862
69816W        W41432  29.038  13.263  11.983
69817W        W41433  28.500  27.734   4.958
69818W        W41434  42.482  13.527   4.237
69819W        W41435  35.160  32.603   4.614
69820W        W41436   1.328  23.069   4.745
69821W        W41437  19.253  36.815   3.521
69822W        W41438   5.607  42.994  10.637
69823W        W41439  42.404  30.294  11.055
69824W        W41440   4.198  13.571  12.015
69825W        W41441  41.357  36.327   4.983
69826W        W41442  25.622  39.197   4.181
69827W        W41443  20.304  42.493   3.212
69828W        W41444  39.043  25.909  11.906
69829W        W41445   7.586  41.525  13.943
69830W        W41446  19.293  23.641  13.265
69831W        W41447  23.604   7.224   3.934
69832W        W41448  44.090  36.506   3.473
69833W        W41449  25.553  26.309   3.767
69834W        W41450  12.279  36.581   3.222
69835W        W41451   1.474  39.356   3.670
69836W        W41452  19.013  11.229  13.542
69837W        W41453  44.054  28.627  12.797
69838W        W41454   5.593  25.074  11.928
69839W        W41455  37.372  35.931  10.889
69840W        W41456  12.485  11.408  11.579
69841W        W41457   1.801  18.868   0.946
69842W        W41458  14.059  15.879   4.991
69843W        W41459  20.696  20.636   2.263
69844W        W41460  11.231  20.285  14.896
69845W        W41461   3.541  19.693  11.603
69846W        W41462  21.307  14.398   3.650
69847W        W41463  13.788  23.084   0.687
69848W        W41464   3.651  25.594  13.520
69849W        W41465  34.389  20.011   0.725
69850W        W41466  21.471   6.192  14.990
69851W        W41467  15.357  15.138  10.272
69852W        W41468   8.387   6.198   1.206
69853W        W41469  29.459  10.847  11.637
69854W        W41470  36.392   2.209  11.777
69855W        W41471  28.085  28.864  10.642
69856W        W41472  24.235  42.541  12.522
69857W        W41473  44.839   6.666   1.311
69858W        W41474   3.369   4.341   3.896
69859W        W41475   2.704   1.455  14.130
69860W        W41476  19.709  18.023  14.706
69861W        W41477  28.448  37.844   0.492
69862W        W41478  15.244  24.025  10.724
69863W        W41479  28.147  10.343   4.027
69864W        W41480   3.210  17.890   4.259
69865W        W41481  14.251  44.309  14.433
69866W        W41482  19.323  19.431  11.603
69867W        W41483   1.423   0.381   1.442
69868W        W41484  34.728   2.248  13.511
69869W        W41485  13.193   8.667   4.106
69870W        W41486  42.474   7.449   0.466
69871W        W41487   9.578  14.869  13.103
69872W        W41488   5.708   9.649  12.088
69873W        W41489  33.879  27.916   0.230
69874W        W41490  19.434  44.070   2.819
69875W        W41491  29.447   0.793   4.555
69876W        W41492  37.926   1.461  13.091
69877W        W41493  14.139   7.115   3.165
69878W        W41494   3.807   3.325   4.365
69879W        W41495  24.627   9.362   1.248
69880W        W41496   6.084  35.248   5.111
69881W        W41497  20.488  32.035   0.201
69882W        W41498  41.512  22.613   4.581
69883W        W41499  39.875  27.727   1.165
69884W        W41500  29.634  12.458   2.868
69885W        W41501  18.085  38.778  14.424
69886W        W41502  34.141  22.097   2.302
69887W        W41503  18.208  21.240  11.629
69888W        W41504  15.173  16.620  12.867
69889W        W41505  39.054  31.218  11.914
69890W        W41506  36.497  34.838   2.864
69891W        W41507  38.696  15.498   3.195
69892W        W41508  43.306  40.463  14.456
69893W        W41509   5.801  28.262  11.840
69894W        W41510  30.664  38.735   2.254
69895W        W41511  22.206  27.009  12.912
69896W        W41512  37.413  24.144  14.694
69897W        W41513  11.663  17.340  13.561
69898W        W41514  24.922  13.800   1.447
69899W        W41515  43.041   5.518  12.829
69900W        W41516  34.411  17.834   3.603
69901W        W41517  33.122   9.765   4.426
69902W        W41518  22.161  22.035   0.467
69903W        W41519  15.579   4.946   0.835
69904W        W41520  44.395  31.585   0.324
69905W        W41521  15.344   9.408  11.632
69906W        W41522  12.546   6.820   3.710
69907W        W41523  11.871  43.987  10.636
69908W        W41524   2.978   8.807  14.654
69909W        W41525   6.462  13.081   0.680
69910W        W41526  22.257  41.886  14.076
69911W        W41527  10.479  43.005   5.084
69912W        W41528  33.897  23.495   2.149
69913W        W41529  27.052  42.912   1.171
69914W        W41530  10.740  26.147   4.570
69915W        W41531  13.627  36.176   3.327
69916W        W41532  14.127  13.869   2.208
69917W        W41533  18.221   0.900   1.326
69918W        W41534  35.356  14.080  11.540
69919W        W41535  41.455  27.157  11.624
69920W        W41536  39.360  25.632   1.772
69921W        W41537  24.144  30.384  10.287
69922W        W41538  42.437  19.261   1.228
69923W        W41539  38.127  41.379  11.988
69924W        W41540  38.907  26.218   3.381
69925W        W41541  11.791  27.167  10.985
69926W        W41542   7.962  15.043  11.201
69927W        W41543  24.213  35.528  11.817
69928W        W41544  25.551   5.358   3.292
69929W        W41545   0.220  33.114   2.409
69930W        W41546   8.897   7.627   1.217
69931W        W41547  38.570  27.552  13.515
69932W        W41548  18.260  44.459   2.365
69933W        W41549  15.218  29.455   4.593
69934W        W41550  20.714  28.338  14.317
69935W        W41551  34.951  15.279  11.638
69936W        W41552  36.143  20.180   2.292
69937W        W41553   1.460   0.337  13.531
69938W        W41554  33.534  27.285  11.855
69939W        W41555  39.539  25.987  12.804
69940W        W41556   7.020   6.939   2.328
69941W        W41557  34.882  10.916   1.172
69942W        W41558  13.251  14.921  12.433
69943W        W41559   0.220  32.496  12.133
69944W        W41560  36.435  11.719  12.655
69945W        W41561   5.883  41.400  11.494
69946W        W41562  32.170   2.150   5.241
69947W        W41563  44.486  43.715  14.054
69948W        W41564  25.202  26.653   3.649
69949W        W41565  42.493  22.346  14.939
69950W        W41566  37.214  35.460  14.786
69951W        W41567  26.667  41.917   5.205
69952W        W41568  24.317  34.597   0.713
69953W        W41569   5.642  30.993   3.571
69954W        W41570  42.998  15.422  13.086
69955W        W41571  29.209  29.543   0.401
69956W        W41572  31.661  23.233   4.191
69957W        W41573  36.567   8.682   1.525
69958W        W41574  38.577   5.827  11.444
69959W        W41575  28.951  32.638   3.753
69960W        W41576  44.666  20.528   4.601
69961W        W41577  11.258  43.459   1.359
69962W        W41578   4.245  29.499  10.413
69963W        W41579  38.516  15.392  11.632
69964W        W41580   5.914   0.371  11.198
69965W        W41581  21.835  11.633   3.685
69966W        W41582  26.466  29.141   3.628
69967W        W41583  16.615  30.207  12.486
69968W        W41584  22.237  34.812  10.167
69969W        W41585  42.259  39.626   2.618
69970W        W41586   5.286  27.580   0.781
69971W        W41587  34.859  22.994   0.632
69972W        W41588  12.899  17.675   4.122
69973W        W41589  19.221  19.205   4.524
69974W        W41590   9.132  22.271  12.618
69975W        W41591  14.863  18.275  10.593
69976W        W41592  14.706  17.251   2.356
69977W        W41593  35.334  10.608   2.525
69978W        W41594  12.047  13.258  14.664
69979W        W41595  33.238  11.864   3.585
69980W        W41596   4.031  30.859   0.977
69981W        W41597  15.277  24.685   2.342
69982W        W41598  22.547  29.338   4.093
69983W        W41599   6.355  14.641  12.536
69984W        W41600   5.141  33.976   4.534
69985W        W41601  41.335  16.702  10.869
69986W        W41602  25.640  15.540   2.876
69987W        W41603  15.861   8.996   0.884
69988W        W41604  24.666  43.975   2.335
69989W        W41605  16.369  18.600   5.481
69990W        W41606  27.647   8.176  11.412
69991W        W41607  33.077  43.777  12.433
69992W        W41608   5.343  26.031   4.855
69993W        W41609  16.049  19.090   4.101
69994W        W41610  14.506   0.396   1.037
69995W        W41611   4.746  42.570  13.953
69996W        W41612   4.346  41.072  12.528
69997W        W41613  16.547   7.466   0.390
69998W        W41614  14.336   2.887   5.590
69999W        W41615  16.610  28.678   4.083
70000W        W41616  14.547  25.570  12.915
70001W        W41617   0.071   4.679   1.508
70002W        W41618  16.918  11.123   3.166
70003W        W41619  40.919  24.683  11.455
70004W        W41620  10.675  38.979   2.072
70005W        W41621  25.973  16.766   1.881
70006W        W41622  24.979  29.751  12.140
70007W        W41623  29.964  30.442   1.288
70008W        W41624  10.864  15.722   0.580
70009W        W41625  36.616   8.075   4.570
70010W        W41626  25.549   7.965   3.859
70011W        W41627  20.298  10.197   3.234
70012W        W41628   9.549  30.091   2.364
70013W        W41629  24.179  26.194   1.345
70014W        W41630   6.900  10.403  12.057
70015W        W41631  31.093   9.385  12.869
70016W        W41632  13.546  39.075  11.646
70017W        W41633  29.230  44.922  14.791
70018W        W41634  21.138  36.645  14.368
70019W        W41635  29.577  18.612  10.619
70020W        W41636  30.437   2.840   4.555
70021W        W41637  15.628  16.305  11.969
70022W        W41638  35.986   6.288  13.444
70023W        W41639  37.620  41.374  11.282
70024W        W41640  13.542  11.195  11.646
70025W        W41641  30.636  43.508   4.868
70026W        W41642  37.326  11.734   4.746
70027W        W41643  30.944  35.285   1.283
70028W        W41644  21.554  43.884  11.688
70029W        W41645  21.071   6.776   1.354
70030W        W41646  37.487  36.583  13.877
70031W        W41647  22.933  32.622  10.997
70032W        W41648   2.866  37.184  12.079
70033W        W41649  24.712   0.214  11.583
70034W        W41650  12.223  42.803   3.804
70035W        W41651   3.830  39.433  11.614
70036W        W41652  20.839  22.069   3.790
70037W        W41653  23.541  27.659   2.228
70038W        W41654   6.729  13.077   0.250
70039W        W41655  35.558   6.336  11.135
70040W        W41656  44.692   7.309  10.412
70041W        W41657  43.875  37.381   0.732
70042W        W41658   6.214  19.812  13.428
70043W        W41659  21.564  42.195   4.548
70044W        W41660  30.416  42.165   2.288
70045W        W41661  33.403  19.270  10.670
70046W        W41662   0.876  35.950  11.179
70047W        W41663  14.519  24.910  11.190
70048W        W41664   8.287  12.637   4.645
70049W        W41665  18.188   3.237   2.713
70050W        W41666  37.982  38.016   2.294
70051W        W41667   6.755  16.864   1.803
70052W        W41668  17.531   3.494   1.817
70053W        W41669  33.114  44.429   2.321
70054W        W41670  24.492  26.524  10.143
70055W        W41671  32.823  22.474  11.470
70056W        W41672  29.516  27.658  14.515
70057W        W41673   1.616  37.408   0.362
70058W        W41674  27.020  22.208  12.519
70059W        W41675  25.440  26.125  11.167
70060W        W41676  39.238  11.832  11.452
70061W        W41677  23.514  30.741  13.502
70062W        W41678  41.992  13.236   3.562
70063W        W41679  13.055   6.323  11.186
70064W        W41680  40.422  25.598   1.995
70065W        W41681  22.393   3.912  12.056
70066W        W41682  32.136  44.948   3.286
70067W        W41683   3.170  15.217  11.511
70068W        W41684  12.169  41.746  12.073
70069W        W41685  14.635  27.848   2.733
70070W        W41686  23.629  29.200  12.451
70071W        W41687  11.864   3.635  12.922
70072W        W41688  27.477   9.239   4.167
70073W        W41689  11.967   2.362  12.940
70074W        W41690  41.370  13.374  12.112
70075W        W41691   8.680  11.685   0.031
70076W        W41692   6.346  24.761  14.296
70077W        W41693  11.732   5.546  12.011
70078W        W41694  15.529  21.057   1.903
70079W        W41695  36.454  19.292   3.444
70080W        W41696  18.672  17.184  13.659
70081W        W41697  43.012   5.106   4.721
70082W        W41698  34.820  38.450   2.360
70083W        W41699   9.862   1.205   3.148
70084W        W41700  24.475   3.424  12.073
70085W        W41701  43.763   1.544   1.270
70086W        W41702  30.077  28.045  12.810
70087W        W41703   2.736  41.813   1.804
70088W        W41704  11.577  14.124   3.147
70089W        W41705  34.017  13.813  10.529
70090W        W41706  16.588  23.940   4.235
70091W        W41707  27.641  44.667  11.623
70092W        W41708   1.775  41.770   0.676
70093W        W41709  39.321   9.521   0.331
70094W        W41710  11.792  14.534   1.339
70095W        W41711  26.707  28.648  11.047
70096W        W41712  35.856  39.002  13.426
70097W        W41713  19.685  38.891   1.174
70098W        W41714  17.313  34.665  12.378
70099W        W41715  30.870  24.826   4.602
70100W        W41716   1.354  25.128  13.476
70101W        W41717   5.906  41.964   3.181
70102W        W41718  30.381  28.164  14.282
70103W        W41719  42.404  32.714  12.126
70104W        W41720  37.020  40.527   2.042
70105W        W41721   3.460  44.333   0.258
70106W        W41722  12.561  15.353  13.025
70107W        W41723   2.349  37.946   2.262
70108W        W41724  21.206   1.975  12.537
70109W        W41725  18.759  39.988  13.286
70110W        W41726  25.802  12.841  14.423
70111W        W41727  12.096  27.018  11.850
70112W        W41728   3.093  32.014  10.579
70113W        W41729  41.629  18.598  13.514
70114W        W41730  30.587   2.373  12.838
70115W        W41731  25.988  11.354   3.146
70116W        W41732  36.357  13.767  13.068
70117W        W41733  39.443  39.820  11.565
70118W        W41734  39.461  25.053   2.804
70119W        W41735  12.618   7.304  12.988
70120W        W41736  18.997  35.947   3.237
70121W        W41737  27.737  14.209   3.728
70122W        W41738  36.072  27.113   4.490
70123W        W41739  44.310   5.673   2.694
70124W        W41740  26.123  35.542  12.910
70125W        W41741  44.912  25.624   0.681
70126W        W41742  12.274  26.619   1.326
70127W        W41743   8.823  30.112  12.910
70128W        W41744  10.268   3.843   1.969
70129W        W41745  31.958  16.749   0.475
70130W        W41746  19.049  22.492  12.627
70131W        W41747  26.762  38.401   3.993
70132W        W41748  30.930  28.980  13.364
70133W        W41749  14.592  38.282  14.350
70134W        W41750  38.062  41.808   1.775
70135W        W41751  22.193  30.267  14.340
70136W        W41752  30.247   6.421   2.736
70137W        W41753   2.265  16.359  12.829
70138W        W41754  30.551   0.877  10.721
70139W        W41755  16.736  29.030  13.280
70140W        W41756  25.762   8.358  13.911
70141W        W41757  24.762  31.115   0.329
70142W        W41758   8.105  36.463  12.549
70143W        W41759   3.750  12.814   3.649
70144W        W41760  19.079   6.645  14.445
70145W        W41761  14.375  25.375   2.125
70146W        W41762  37.876   2.443   4.306
70147W        W41763  23.114  10.168  10.447
70148W        W41764   6.993   4.002  13.068
70149W        W41765  12.345  41.138  13.356
70150W        W41766   3.141   4.838   2.156
70151W        W41767   4.787  27.206  10.597
70152W        W41768  35.140  19.349  14.887
70153W        W41769  21.009  23.982  11.234
70154W        W41770  27.165  13.734   9.871
70155W        W41771   3.342  28.139  10.962
70156W        W41772  38.444   2.988   0.331
70157W        W41773   2.446   9.281  10.820
70158W        W41774  12.053  27.978   2.814
70159W        W41775  25.350  44.878   3.035
70160W        W41776  28.385  39.815   3.914
70161W        W41777  14.398  29.471  12.500
70162W        W41778  12.049  15.610  13.522
70163W        W41779  15.559  24.082  12.448
70164W        W41780  18.692  22.716   5.039
70165W        W41781  11.932  30.595   2.569
70166W        W41782  13.095   5.886  11.466
70167W        W41783  42.114  22.727  13.005
70168W        W41784  37.772  26.660   0.169
70169W        W41785  43.844   0.753  14.511
70170W        W41786   4.369   9.772  14.061
70171W        W41787   4.604   6.910   3.169
70172W        W41788  20.492  44.859   3.666
70173W        W41789  43.104   6.781   0.412
70174W        W41790  42.968   8.750   3.861
70175W        W41791  11.603   8.139   1.757
70176W        W41792  29.917  17.643  13.100
70177W        W41793   5.744  32.292   2.045
70178W        W41794   6.106   3.869  11.598
70179W        W41795  29.001  37.145  13.460
70180W        W41796  23.671  38.386   4.222
70181W        W41797  29.961  30.366  13.278
70182W        W41798  44.336  22.541   3.714
70183W        W41799   5.257  12.681  13.947
70184W        W41800  39.198  28.202   3.200
70185W        W41801  17.204  32.180   2.738
70186W        W41802  15.528  28.910  12.140
70187W        W41803  19.206  23.742  14.051
70188W        W41804  37.826  36.494  12.563
70189W        W41805  42.074  29.153  12.396
70190W        W41806   1.850  11.315  14.905
70191W        W41807  29.142   5.989   0.337
70192W        W41808  11.548  40.374   4.543
70193W        W41809  41.576  33.949  10.380
70194W        W41810   3.015   1.418  13.730
70195W        W41811  11.499  15.999   0.251
70196W        W41812  22.334  16.713   0.834
70197W        W41813  30.584  27.225  12.969
70198W        W41814  43.998  28.419   1.599
70199W        W41815  42.716   0.833   0.189
70200W        W41816  16.321  21.147   1.445
70201W        W41817   4.633  36.695  11.751
70202W        W41818  31.420  30.913   3.998
70203W        W41819  22.577   4.174   3.270
70204W        W41820  31.273  42.540  13.045
70205W        W41821  28.222  24.111  10.541
70206W        W41822  15.615  35.527   1.460
70207W        W41823  43.261  34.417   4.602
70208W        W41824   4.729   1.468  12.466
70209W        W41825   9.713  15.221  11.382
70210W        W41826  34.944  43.742  14.723
70211W        W41827  27.467  22.549  13.550
70212W        W41828  28.603   3.663   3.727
70213W        W41829  18.812  19.756   5.301
70214W        W41830  36.903  25.424   0.834
70215W        W41831  43.096  19.779  14.041
70216W        W41832  23.375  35.101   3.697
70217W        W41833  28.936   2.345  14.114
70218W        W41834  39.720   3.443   3.828
70219W        W41835  30.549  38.892  12.888
70220W        W41836   3.311  34.689   2.809
70221W        W41837  43.981  43.853  10.879
70222W        W41838  15.193  28.600  11.891
70223W        W41839  35.970  32.799   1.203
70224W        W41840  41.559  41.419  14.835
70225W        W41841  41.994  19.506  11.626
70226W        W41842  23.046  33.598  10.101
70227W        W41843  11.108  14.222  10.567
70228W        W41844  39.965  24.963   1.521
70229W        W41845  17.320  20.496  14.286
70230W        W41846  22.222  24.948  14.834
70231W        W41847   8.513  22.730  13.806
70232W        W41848   5.150  13.410   2.013
70233W        W41849   1.801  21.486  13.749
70234W        W41850   3.645   4.012   1.254
70235W        W41851  21.806  24.524  13.342
70236W        W41852  12.012   1.472   3.405
70237W        W41853  44.929  43.969  14.168
70238W        W41854   4.160   3.459   2.285
70239W        W41855  20.244   7.826  14.468
70240W        W41856  22.691  43.388   3.748
70241W        W41857  17.605  14.240  14.523
70242W        W41858  38.186  43.004  14.633
70243W        W41859  12.368  22.727   2.259
70244W        W41860   1.819  13.613  12.434
70245W        W41861   6.179  28.571   0.503
70246W        W41862  25.661  35.161   3.680
70247W        W41863  37.135  29.043   3.351
70248W        W41864  23.323  30.589   0.990
70249W        W41865   6.450  27.192   3.019
70250W        W41866   7.310  35.663   4.053
70251W        W41867  31.200   3.705  11.915
70252W        W41868  40.045  41.408  14.826
70253W        W41869  22.167   8.569   4.892
70254W        W41870  13.399  40.821  13.496
70255W        W41871   9.460  41.822  11.636
70256W        W41872  44.484  14.153  11.127
70257W        W41873  33.854  37.469   1.476
70258W        W41874   9.301   1.506   1.749
70259W        W41875  14.244  35.527  11.177
70260W        W41876  23.957  30.607   4.075
70261W        W41877  26.385  14.622  11.431
70262W        W41878  35.055  34.499   4.115
70263W        W41879  37.508  19.004   0.905
70264W        W41880  17.391   8.272  12.573
70265W        W41881  33.848  15.751  12.896
70266W        W41882  35.879  34.418  14.510
70267W        W41883  36.449  13.775   2.822
70268W        W41884  25.488  22.664  14.356
70269W        W41885   4.845   2.512  12.569
70270W        W41886  24.572  10.185   2.802
70271W        W41887  21.472  20.171   2.346
70272W        W41888  20.144  35.342  14.672
70273W        W41889   8.900  38.918  13.361
70274W        W41890  25.010  29.577  11.186
70275W        W41891   2.428  29.719   2.818
70276W        W41892   7.720  32.024   5.059
70277W        W41893  17.660  32.176  10.789
70278W        W41894  17.780  16.701   5.504
70279W        W41895  24.634  11.300   1.388
70280W        W41896  33.544  36.320   3.379
70281W        W41897  23.617  43.806   2.555
70282W        W41898  13.174  29.901   1.356
70283W        W41899   2.658  30.767   0.929
70284W        W41900  25.043   6.886  11.166
70285W        W41901  34.139  21.870  11.503
70286W        W41902   9.297  15.665   3.974
70287W        W41903  34.708  41.881  12.409
70288W        W41904  22.546  21.237   2.403
70289W        W41905  17.063   0.364  11.914
70290W        W41906  24.557  33.813  14.678
70291W        W41907  43.964   1.702  11.109
70292W        W41908  23.538  36.925   0.003
70293W        W41909   8.092  32.592  13.794
70294W        W41910  41.993  11.893  13.446
70295W        W41911  16.165  25.007   0.070
70296W        W41912   8.717  41.883   3.648
70297W        W41913  33.435  34.417  14.781
70298W        W41914  31.571  32.226   3.810
70299W        W41915   9.163  31.082  11.128
70300W        W41916   3.712   1.358   3.680
70301W        W41917  16.274   3.222   0.339
70302W        W41918  28.979   6.123  13.435
70303W        W41919   8.354  34.547   2.572
70304W        W41920  32.912   0.655  12.395
70305W        W41921   9.470  15.268  11.954
70306W        W41922  26.330  38.150  13.614
70307W        W41923  21.963   6.624   0.332
70308W        W41924   1.953  11.995  12.789
70309W        W41925  31.667  19.987  14.321
70310W        W41926  27.489  22.287  14.012
70311W        W41927  39.149   8.967   3.788
70312W        W41928  40.941  41.320  12.046
70313W        W41929  14.685  28.524   4.913
70314W        W41930  29.403  23.552   3.161
70315W        W41931   8.617  27.957   1.887
70316W        W41932   2.114  20.753   2.419
70317W        W41933  39.983  21.077  10.672
70318W        W41934  35.694  22.145  12.974
70319W        W41935  14.599  26.258   3.801
70320W        W41936  18.944  34.609  11.102
70321W        W41937  21.544  24.642  12.916
70322W        W41938  33.093  32.939  12.425
70323W        W41939  38.760  44.426   3.758
70324W        W41940  19.796  42.339  14.786
70325W        W41941  42.536  12.452  11.202
70326W        W41942  40.492  11.548  13.684
70327W        W41943  44.006  37.572   4.169
70328W        W41944  34.268  40.273  11.595
70329W        W41945  34.907  18.289  13.509
70330W        W41946  40.942  40.255   3.319
70331W        W41947   5.605  22.211  12.529
70332W        W41948  14.688   6.671  14.405
70333W        W41949  41.615  32.205   3.761
70334W        W41950  38.438  25.694  14.396
70335W        W41951  24.018  35.600  10.432
70336W        W41952  30.660  36.878   1.422
70337W        W41953  14.670  39.963   4.336
70338W        W41954  12.310  28.937   2.907
70339W        W41955  39.332  31.796  14.450
70340W        W41956  30.853  12.327   1.097
70341W        W41957  13.210  42.454   0.468
70342W        W41958  13.425   8.033   1.501
70343W        W41959  44.624  34.423  13.779
70344W        W41960  32.998  29.272  10.962
70345W        W41961   2.338   3.767  11.968
70346W        W41962  33.040  20.464   0.929
70347W        W41963  11.672  44.777  13.342
70348W        W41964  18.015  25.779   4.499
70349W        W41965  23.505   7.454   4.935
70350W        W41966   2.797  40.442   4.444
70351W        W41967  11.523  38.139   3.272
70352W        W41968  34.892  14.407  11.438
70353W        W41969   8.602  30.926   3.167
70354W        W41970  10.865  27.041  14.925
70355W        W41971   8.956  36.935  14.649
70356W        W41972  23.407   3.412   4.160
70357W        W41973   8.931   5.414  11.589
70358W        W41974   2.947  23.157  13.504
70359W        W41975  27.493   4.775   0.192
70360W        W41976  24.946  30.970  13.492
70361W        W41977  21.192  24.606  14.357
70362W        W41978  27.420   3.525   3.228
70363W        W41979  43.520  25.724  11.933
70364W        W41980  33.628  12.418  11.970
70365W        W41981  17.574   0.835   1.818
70366W        W41982  17.712   0.246  13.561
70367W        W41983  17.787  21.649   4.129
70368W        W41984  40.383   3.434  11.427
70369W        W41985  32.016   4.645   3.672
70370W        W41986  39.889  38.519  10.641
70371W        W41987  25.237  22.712  11.506
70372W        W41988   5.654  10.116  14.979
70373W        W41989   3.036  37.863  10.709
70374W        W41990  43.345  28.516  14.296
70375W        W41991  28.149   4.975   3.698
70376W        W41992  20.062   9.361  11.547
70377W        W41993  22.925  41.019  14.934
70378W        W41994  26.205  12.303  13.616
70379W        W41995  13.148  18.976  11.042
70380W        W41996  19.268   1.967   0.823
70381W        W41997  41.058  41.085  13.316
70382W        W41998  35.903  39.275  13.944
70383W        W41999  19.269  22.127  11.495
70384W        W42000  13.456  30.623  11.579
70385W        W42001  10.758  42.460  11.586
70386W        W42002   2.161  43.342  12.045
70387W        W42003  34.946  11.945  12.905
70388W        W42004  34.093   8.865  11.439
70389W        W42005   7.388   3.417   1.440
70390W        W42006  42.716  35.262  14.314
70391W        W42007   7.367  34.381  11.666
70392W        W42008  43.810  19.694  13.585
70393W        W42009  30.897  23.171  13.998
70394W        W42010  18.678  42.372   0.989
70395W        W42011  21.268  40.376   0.252
70396W        W42012  21.113  22.412   4.042
70397W        W42013  31.643   9.320   2.242
70398W        W42014  28.404  20.743   2.145
70399W        W42015  34.478   1.373   0.265
70400W        W42016   5.421  32.021   0.238
70401W        W42017  25.990  39.003   4.980
70402W        W42018   1.298  44.030   5.065
70403W        W42019  13.860  15.814  12.048
70404W        W42020  29.549  37.275  11.604
70405W        W42021   3.713  38.872   4.740
70406W        W42022  36.166  36.600   1.446
70407W        W42023  11.822  16.983   4.147
70408W        W42024  20.173   0.789   2.587
70409W        W42025  28.029   9.173   1.734
70410W        W42026  16.047  43.983  11.088
70411W        W42027  33.452  38.968   2.768
70412W        W42028  12.268  33.463  13.426
70413W        W42029   8.540  37.028  13.070
70414W        W42030  20.754   6.464   4.595
70415W        W42031  44.600  44.732  13.111
70416W        W42032   1.342  23.732   1.723
70417W        W42033  30.651  37.635  10.750
70418W        W42034   7.098  40.754  11.927
70419W        W42035  39.851  27.664  12.112
70420W        W42036  24.506  44.215  12.853
70421W        W42037  33.277  40.970   1.038
70422W        W42038   5.314  26.576  14.796
70423W        W42039  17.734  33.181  14.317
70424W        W42040  24.738  11.274   1.925
70425W        W42041   6.790  39.600   0.765
70426W        W42042  40.838  20.711  11.670
70427W        W42043  17.197  38.904  13.721
70428W        W42044  26.472  30.606   1.834
70429W        W42045  19.212   8.412   4.480
70430W        W42046   3.501  25.404   0.303
70431W        W42047   4.983   8.140  13.005
70432W        W42048  10.356  13.263   4.654
70433W        W42049  14.842  42.461  13.419
70434W        W42050  22.554   6.338  10.510
70435W        W42051  44.318   1.987  12.106
70436W        W42052  33.968  38.115   0.895
70437W        W42053   6.120  19.705  11.562
70438W        W42054  20.309  38.316  11.931
70439W        W42055  30.394  16.596   2.281
70440W        W42056  35.398  41.942  13.782
70441W        W42057  24.053  10.421   3.249
70442W        W42058   6.340  42.586  11.156
70443W        W42059  18.713  40.857  11.798
70444W        W42060   9.706  12.677   2.770
70445W        W42061  32.005  37.305  11.436
70446W        W42062  11.595  40.979  10.192
70447W        W42063  42.454  26.078   0.249
70448W        W42064   1.402  11.112   4.693
70449W        W42065  10.670  15.719  13.362
70450W        W42066   2.911  28.685   4.496
70451W        W42067  44.819  25.665   1.224
70452W        W42068  27.491  26.248   1.681
70453W        W42069   0.321   1.944  11.608
70454W        W42070  12.134  28.962   4.268
70455W        W42071   3.384  44.459   1.064
70456W        W42072   4.274  21.347  10.997
70457W        W42073  21.005   2.952  14.878
70458W        W42074  11.688  12.278  14.962
70459W        W42075  33.640   1.842   0.994
70460W        W42076  13.145  30.602   4.859
70461W        W42077  36.246   2.580   0.734
70462W        W42078  16.264  41.795   4.832
70463W        W42079  24.224  11.623  12.538
70464W        W42080  32.608  37.047   2.111
70465W        W42081   2.024  26.033  10.409
70466W        W42082  14.148  22.069   2.712
70467W        W42083   8.788  19.426   2.880
70468W        W42084  27.699  11.461   2.270
70469W        W42085  30.631  13.659   2.147
70470W        W42086  10.736  37.959  10.347
70471W        W42087  31.626  17.151  11.623
70472W        W42088  30.371  39.980   2.910
70473W        W42089  33.851  14.872  12.829
70474W        W42090  17.219  11.349   1.898
70475W        W42091  35.635  37.625   1.332
70476W        W42092  15.303  22.692  13.030
70477W        W42093   2.279  41.302   1.290
70478W        W42094  31.903  23.356  11.604
70479W        W42095  16.122   8.197  10.714
70480W        W42096  21.981  41.985   3.875
70481W        W42097  19.767  19.154  13.406
70482W        W42098  18.181  39.000   1.531
70483W        W42099  40.569  20.621   3.578
70484W        W42100  37.981  19.244  12.081
70485W        W42101  13.417  29.434  14.530
70486W        W42102   4.606  43.794   4.613
70487W        W42103  13.838  13.887  14.082
70488W        W42104  42.119  39.943  14.994
70489W        W42105  16.626  20.093  10.450
70490W        W42106   3.345   2.411  13.109
70491W        W42107  35.937  21.039   1.433
70492W        W42108  38.042  36.834   0.887
70493W        W42109  40.272  26.108   2.892
70494W        W42110  40.895  25.627   1.276
70495W        W42111  34.970  44.576  13.669
70496W        W42112  38.812  29.421  14.932
70497W        W42113  21.593  23.955  10.733
70498W        W42114  34.568  34.990  14.378
70499W        W42115  12.791  24.581   0.839
70500W        W42116  28.119  27.086  12.339
70501W        W42117   0.428  15.376  12.480
70502W        W42118  38.833   0.486  14.792
70503W        W42119  38.347  11.344  10.738
70504W        W42120  25.620  10.225  14.426
70505W        W42121  16.636  38.530   4.062
70506W        W42122  34.125   3.823   0.908
70507W        W42123  30.174   4.796   3.269
70508W        W42124  36.171  37.897   4.996
70509W        W42125  20.057  36.379  10.851
70510W        W42126   6.917   4.729  12.554
70511W        W42127   4.277  21.576   2.218
70512W        W42128   4.055  36.551  14.163
70513W        W42129  36.441  39.532   1.296
70514W        W42130  36.798  30.414   3.596
70515W        W42131   9.176   8.761   2.668
70516W        W42132  43.311  28.496   3.785
70517W        W42133  13.263  38.146   1.962
70518W        W42134   1.515  16.513   0.008
70519W        W42135  36.532   0.754  13.269
70520W        W42136   8.292   2.301   3.892
70521W        W42137   9.101  31.401   3.615
70522W        W42138  27.217   8.820  14.931
70523W        W42139  31.603  32.632  12.414
70524W        W42140   5.859  27.986   3.214
70525W        W42141  11.905  11.957   0.335
70526W        W42142  15.728   9.596   4.224
70527W        W42143  14.042  36.021  13.790
70528W        W42144  29.362  24.619   1.145
70529W        W42145  12.134  37.601   0.419
70530W        W42146  43.529  44.662   3.794
70531W        W42147   7.748  21.462   1.393
70532W        W42148   9.747  37.942   2.883
70533W        W42149   8.903  20.399  13.019
70534W        W42150  19.786   8.364  11.478
70535W        W42151   7.409  35.291  11.680
70536W        W42152  35.132  24.086   0.517
70537W        W42153   3.418  27.155  10.729
70538W        W42154  21.500  16.216   2.743
70539W        W42155  16.344  43.489  10.818
70540W        W42156  21.057  26.048   0.348
70541W        W42157  40.982  17.821   3.249
70542W        W42158  35.166  20.146  11.712
70543W        W42159  39.885  42.425  13.373
70544W        W42160  32.176   6.356   0.344
70545W        W42161  17.435  19.629   3.755
70546W        W42162   1.183   4.029  11.999
70547W        W42163  25.680  42.124   4.458
70548W        W42164  15.169  42.371  11.126
70549W        W42165  14.114  31.917  13.842
70550W        W42166   4.722  42.536   1.857
70551W        W42167  18.967  13.026  12.371
70552W        W42168  14.924  25.575   0.673
70553W        W42169  20.769  38.335  13.569
70554W        W42170  23.649  25.486  11.612
70555W        W42171   8.783  28.567  10.354
70556W        W42172  25.582  23.254   4.463
70557W        W42173  37.068  14.416   2.416
70558W        W42174  27.983  41.170   4.989
70559W        W42175  39.591  23.614  13.543
70560W        W42176  22.374  33.372   4.661
70561W        W42177   2.487  27.544   5.240
70562W        W42178   9.298  31.907   4.187
70563W        W42179  33.541  24.529  14.524
70564W        W42180  35.872  13.254  14.294
70565W        W42181  36.038  13.527   0.439
70566W        W42182  32.435  24.045  10.484
70567W        W42183  23.052  43.071  11.472
70568W        W42184  18.681  44.865   4.338
70569W        W42185  19.245  43.323   2.798
70570W        W42186  21.027   5.839   1.505
70571W        W42187  38.347  33.890   2.754
70572W        W42188  34.500   0.745   5.348
70573W        W42189  32.514   9.432  14.955
70574W        W42190   1.716   4.892   4.634
70575W        W42191  44.430  24.788  14.862
70576W        W42192   6.279  35.514   0.777
70577W        W42193  40.443  11.267   0.876
70578W        W42194  20.967  15.449  10.848
70579W        W42195  36.155  24.949   0.760
70580W        W42196  34.501   7.805   3.546
70581W        W42197  16.121  44.010   1.722
70582W        W42198  17.738  29.167  14.322
70583W        W42199  21.737  10.315   1.875
70584W        W42200  19.521  26.520   3.572
70585W        W42201  13.837  19.012  10.562
70586W        W42202  39.032  32.937   0.295
70587W        W42203  35.965  19.835   4.602
70588W        W42204  41.901   5.401   1.503
70589W        W42205  44.890  39.544   3.291
70590W        W42206   6.350  13.798   3.760
70591W        W42207   8.647  12.765  11.521
70592W        W42208   3.334  18.851  12.524
70593W        W42209  13.418  28.060   2.920
70594W        W42210  33.832  41.070   2.378
70595W        W42211  28.566  15.098   4.058
70596W        W42212  43.521  21.257  12.015
70597W        W42213  38.893   1.182   2.680
70598W        W42214  36.073  22.239  12.008
70599W        W42215  24.568  41.025   0.281
70600W        W42216   8.316   0.776   4.258
70601W        W42217  43.647  38.871  14.708
70602W        W42218  17.333  26.510   0.716
70603W        W42219  34.997  13.631   4.148
70604W        W42220  22.969  27.701   4.093
70605W        W42221   9.597  22.230  13.467
70606W        W42222   1.914  24.668  10.594
70607W        W42223  39.855  14.206   2.364
70608W        W42224  39.394  27.270  14.347
70609W        W42225  38.585   0.041   2.912
70610W        W42226  29.717  31.955   4.769
70611W        W42227  31.622  41.527   1.491
70612W        W42228   6.743  39.138  11.212
70613W        W42229  16.546  12.804   2.300
70614W        W42230  26.480  23.362   2.385
70615W        W42231   0.789   2.383  14.822
70616W        W42232   8.796  19.324   0.045
70617W        W42233   3.731  17.334  12.900
70618W        W42234  24.085  36.020   4.546
70619W        W42235  26.090  43.039   3.750
70620W        W42236  20.655  22.741   4.694
70621W        W42237  13.349  19.185   0.138
70622W        W42238   4.841  11.718   1.619
70623W        W42239  35.287  21.331   2.199
70624W        W42240  38.313   5.376  11.383
70625W        W42241  28.411   6.143  11.430
70626W        W42242   6.732   5.521  12.535
70627W        W42243  37.313  17.268  11.411
70628W        W42244  14.752  38.358   2.453
70629W        W42245  37.045  13.339  10.682
70630W        W42246  12.232  34.077   4.111
70631W        W42247  28.994  15.797  14.246
70632W        W42248  41.808  35.038   1.851
70633W        W42249   0.219  41.296  14.252
70634W        W42250  11.733  19.146  13.388
70635W        W42251  28.017  29.848  13.719
70636W        W42252  17.395   5.635  13.767
70637W        W42253  10.912  36.094  10.621
70638W        W42254   6.292  16.936   3.769
70639W        W42255  10.381  44.909   3.557
70640W        W42256  27.067  20.566   4.181
70641W        W42257   5.176  30.985   3.803
70642W        W42258  14.745  30.960  14.699
70643W        W42259   5.345  21.515   4.878
70644W        W42260   8.191  39.830   1.223
70645W        W42261  11.425  11.641  11.081
70646W        W42262  37.685  23.097  12.417
70647W        W42263  40.971  11.709   1.308
70648W        W42264  28.526   2.365   2.280
70649W        W42265  39.052   5.430   3.436
70650W        W42266  42.514   5.722   0.820
70651W        W42267   7.450  32.843  11.493
70652W        W42268   7.684  42.575   2.834
70653W        W42269  24.263  17.549   0.997
70654W        W42270  21.973  33.287  13.994
70655W        W42271  28.192  36.960  13.354
70656W        W42272  41.929  39.487   3.224
70657W        W42273  19.088  40.424   2.324
70658W        W42274   4.475   3.314   4.843
70659W        W42275  24.717   7.699  13.408
70660W        W42276   3.996  23.770   1.482
70661W        W42277  25.967  39.561  13.758
70662W        W42278  33.879  41.603  12.687
70663W        W42279  43.607  41.429   1.930
70664W        W42280  27.584   3.825   2.055
70665W        W42281  39.505  11.753  14.245
70666W        W42282   8.314  43.928   2.381
70667W        W42283  17.252  10.853   2.833
70668W        W42284  43.285  11.133   4.181
70669W        W42285  28.426   9.633  14.950
70670W        W42286  31.063  11.229  14.479
70671W        W42287  36.709  12.933   1.596
70672W        W42288  29.704   1.170  13.972
70673W        W42289   7.231   4.410  11.109
70674W        W42290  29.193   3.900   2.900
70675W        W42291  27.540  19.574  12.453
70676W        W42292  30.649  35.160   2.268
70677W        W42293  16.039  16.730   0.235
70678W        W42294  30.948  13.168   1.439
70679W        W42295   9.591  38.557  10.746
70680W        W42296   8.998   3.531  13.766
70681W        W42297   9.684   0.376   0.015
70682W        W42298  24.086  20.190  11.220
70683W        W42299  32.692  38.351   0.755
70684W        W42300   4.868  32.037   4.571
70685W        W42301  24.993  36.472  12.628
70686W        W42302   8.207  43.728   3.344
70687W        W42303   7.570  31.960  14.266
70688W        W42304  21.808  20.594  14.423
70689W        W42305  33.543   9.301   0.369
70690W        W42306  27.243  12.835   4.600
70691W        W42307  15.340  10.291   4.786
70692W        W42308  19.231   4.687  11.478
70693W        W42309   1.967  37.558   0.733
70694W        W42310  20.151  18.772  12.576
70695W        W42311  29.063  36.885   3.874
70696W        W42312  30.631  12.786   1.297
70697W        W42313  22.236  23.123   0.007
70698W        W42314  12.138  37.658  11.374
70699W        W42315  38.883  20.211  13.855
70700W        W42316  44.503  24.496   2.755
70701W        W42317  27.857  38.991  11.213
70702W        W42318  34.340  26.104  12.288
70703W        W42319  30.819   9.867  14.912
70704W        W42320  31.627   4.918  11.166
70705W        W42321  20.838  19.204   0.347
70706W        W42322  32.682  12.858  13.592
70707W        W42323  33.550  28.542   1.913
70708W        W42324  30.818  29.993   2.715
70709W        W42325  14.683  39.719   3.874
70710W        W42326  20.761  28.137  11.324
70711W        W42327  28.138   7.160   1.827
70712W        W42328   2.800  12.727   3.186
70713W        W42329  35.821   3.239   2.654
70714W        W42330  38.377  11.224  13.752
70715W        W42331  36.766  26.257   4.308
70716W        W42332  10.326   4.165  10.800
70717W        W42333  21.356  11.821  13.318
70718W        W42334  44.426   1.482   3.371
70719W        W42335  38.469  25.539   2.311
70720W        W42336  24.983  37.280   0.452
70721W        W42337   5.447  10.964  12.871
70722W        W42338  11.774   9.904   2.533
70723W        W42339  31.681   3.235  11.243
70724W        W42340  35.332  38.626  11.205
70725W        W42341   7.522  27.014   3.864
70726W        W42342   9.841  30.972   3.659
70727W        W42343  17.329  40.094  11.712
70728W        W42344  40.932  13.828   1.446
70729W        W42345  23.246  32.059   1.826
70730W        W42346  25.541  30.181   1.669
70731W        W42347  29.695  29.663  12.094
70732W        W42348  31.133   4.057   4.355
70733W        W42349  16.840  39.883   1.311
70734W        W42350  27.215  37.546  10.971
70735W        W42351  38.558  32.974  14.365
70736W        W42352   3.670   1.534   4.475
70737W        W42353  33.779   9.001   5.088
70738W        W42354  18.846  10.164   3.084
70739W        W42355  32.528  37.898   1.474
70740W        W42356  20.376  24.959  14.894
70741W        W42357  29.282  10.972   0.994
70742W        W42358   3.073  23.058   5.069
70743W        W42359  13.197  30.215  12.895
70744W        W42360  28.424  14.975   2.651
70745W        W42361  11.388   0.556   4.866
70746W        W42362  21.529  41.486   0.025
70747W        W42363  33.643  16.723  13.984
70748W        W42364  27.523   0.438   2.169
70749W        W42365  18.479  43.454   3.843
70750W        W42366   8.624  18.716  11.031
70751W        W42367  26.091  27.485   3.997
70752W        W42368  29.231   2.872  12.883
70753W        W42369   6.835  29.173   3.295
70754W        W42370  16.133   0.466  11.690
70755W        W42371   2.558  41.407  14.759
70756W        W42372  11.114  30.584  14.477
70757W        W42373  16.342  40.826  10.891
70758W        W42374   5.827   2.196   2.651
70759W        W42375  32.531  25.898   2.268
70760W        W42376  17.872   2.929  12.986
70761W        W42377  24.517  22.717  12.025
70762W        W42378  11.657  26.860  11.561
70763W        W42379  23.002   5.032  11.483
70764W        W42380  29.889  22.590  14.436
70765W        W42381   7.668  20.200   3.754
70766W        W42382   2.961  37.835   2.267
70767W        W42383  32.463  40.535  10.636
70768W        W42384   4.364  34.204  12.416
70769W        W42385  39.942  39.966   0.958
70770W        W42386   4.634  42.839  10.393
70771W        W42387  25.280  26.986  13.574
70772W        W42388  21.110  41.925   4.514
70773W        W42389  40.562  26.063   3.311
70774W        W42390  29.966  40.909   2.878
70775W        W42391  12.607  11.939  10.668
70776W        W42392   1.884  40.445   1.122
70777W        W42393  18.702  18.212   2.727
70778W        W42394  39.425  13.134   4.682
70779W        W42395   1.800  40.535  13.394
70780W        W42396  15.629   8.438  12.906
70781W        W42397   0.422  27.475  12.536
70782W        W42398   3.783  36.050  13.829
70783W        W42399  30.980  22.933   1.740
70784W        W42400   1.779  41.534   1.141
70785W        W42401  33.929  40.299  11.997
70786W        W42402  15.883  28.624  14.299
70787W        W42403  34.429  25.985  12.774
70788W        W42404  23.301   0.666   2.295
70789W        W42405  22.085  26.217  10.840
70790W        W42406  14.003  18.167  11.959
70791W        W42407   0.777   1.964  14.482
70792W        W42408  12.232  15.082  14.804
70793W        W42409  34.717  43.814   3.640
70794W        W42410  41.125   1.493  10.966
70795W        W42411  37.565  44.360   4.289
70796W        W42412  34.241  29.545  14.784
70797W        W42413  15.296  24.190   2.633
70798W        W42414  16.905  41.864  12.578
70799W        W42415  21.193  19.221   1.728
70800W        W42416  19.145  26.316  12.923
70801W        W42417   4.254  33.572  11.004
70802W        W42418   5.315  35.826   4.791
70803W        W42419  11.190  16.243  12.779
70804W        W42420  10.197  38.678  11.480
70805W        W42421   6.208  42.546   2.895
70806W        W42422   5.778   9.069  12.353
70807W        W42423   1.890  26.645   4.525
70808W        W42424  23.816  31.562  12.472
70809W        W42425  21.190   8.314   1.307
70810W        W42426  35.177  24.167  12.581
70811W        W42427  25.695  29.276   1.475
70812W        W42428  43.316  16.220  13.937
70813W        W42429  16.021  17.648  13.040
70814W        W42430   0.731  40.792   2.276
70815W        W42431  29.921   2.143   4.892
70816W        W42432  37.888  26.992   1.400
70817W        W42433  40.470  12.779   0.712
70818W        W42434  28.051  29.194   1.404
70819W        W42435  22.776  38.515  12.557
70820W        W42436  16.538  30.196  10.459
70821W        W42437  11.575  17.597  13.090
70822W        W42438  11.254  42.800   4.557
70823W        W42439   2.994  26.102   0.861
70824W        W42440  31.142  26.796   4.615
70825W        W42441  28.542   3.718  10.553
70826W        W42442   2.987  37.457  13.827
70827W        W42443  26.464   6.286  11.945
70828W        W42444   2.857  26.678  13.832
70829W        W42445  37.887   1.460   1.391
70830W        W42446  34.771   8.387   0.216
70831W        W42447  33.451  20.701   0.698
70832W        W42448  31.022  31.995  10.730
70833W        W42449   6.861   6.593  14.947
70834W        W42450  18.079  33.456   3.631
70835W        W42451  16.138  21.379  13.879
70836W        W42452  42.999  40.048  13.952
70837W        W42453  22.352  12.354  13.890
70838W        W42454   5.198  36.104  11.852
70839W        W42455  24.994  32.384  14.800
70840W        W42456   9.878  35.018  14.976
70841W        W42457  20.181  17.390  10.560
70842W        W42458  25.024   7.203   2.282
70843W        W42459  27.020  26.032  12.577
70844W        W42460  22.733  10.453   2.712
70845W        W42461   6.010  14.441  12.902
70846W        W42462  12.279  12.510  11.516
70847W        W42463  27.810  36.144   5.033
70848W        W42464  44.893  40.782   1.291
70849W        W42465  20.557  33.398   0.904
70850W        W42466  14.581  22.756  14.814
70851W        W42467  31.022  27.101   4.153
70852W        W42468  11.984   7.184  11.599
70853W        W42469  31.655   1.512  11.153
70854W        W42470  31.496  44.632   4.140
70855W        W42471  13.686  18.785   0.828
70856W        W42472  12.921  10.683  13.803
70857W        W42473   1.378  27.916  12.810
70858W        W42474   4.851  12.588  14.733
70859W        W42475  35.021  41.051   2.307
70860W        W42476   4.321  34.427  13.386
70861W        W42477  29.478  31.124   4.600
70862W        W42478  13.670  34.515   4.858
70863W        W42479  41.725   3.759   4.296
70864W        W42480  44.870  26.914   0.789
70865W        W42481  36.586  15.887  14.231
70866W        W42482  28.178  35.613   2.307
70867W        W42483   6.173  18.099   0.418
70868W        W42484  13.392  22.554   3.179
70869W        W42485  12.735  36.138  12.259
70870W        W42486  28.452   9.670   3.207
70871W        W42487  17.548  44.288   4.942
70872W        W42488  19.785   8.092  14.045
70873W        W42489  41.454  12.266   4.696
70874W        W42490  44.209  17.481  14.390
70875W        W42491   8.696  26.542   0.350
70876W        W42492  40.477  43.554   1.447
70877W        W42493   2.820  20.737  12.848
70878W        W42494   5.875  36.470   4.354
70879W        W42495   8.630  12.850  13.377
70880W        W42496  30.174  44.659  11.642
70881W        W42497   6.110  35.593  14.839
70882W        W42498  37.757  31.016  12.431
70883W        W42499   8.679  35.371  14.906
70884W        W42500  43.796  36.550  12.366
70885W        W42501  36.381  27.713  13.647
70886W        W42502  28.302  38.365   3.775
70887W        W42503  34.159   4.843  12.567
70888W        W42504   9.383  12.550  13.880
70889W        W42505  10.214   8.559   0.353
70890W        W42506  44.862  29.976   1.776
70891W        W42507  20.710  35.707  14.911
70892W        W42508  14.397   3.271   1.207
70893W        W42509   5.288  31.658   4.167
70894W        W42510  33.168   4.399   3.291
70895W        W42511  25.468  30.646   3.377
70896W        W42512  42.914  10.190  12.017
70897W        W42513   1.427  20.692   0.820
70898W        W42514  27.874  42.887  14.377
70899W        W42515  19.372  44.012   0.461
70900W        W42516  20.331  30.644  14.556
70901W        W42517   4.318   1.009   3.828
70902W        W42518  36.071   5.624   1.677
70903W        W42519  25.307  15.248  14.242
70904W        W42520   8.788   8.937  13.599
70905W        W42521  16.119  26.502   1.434
70906W        W42522  37.402  41.423   4.031
70907W        W42523   2.572  28.517   0.971
70908W        W42524   4.287  24.299   3.715
70909W        W42525   2.276  18.576  11.079
70910W        W42526  27.433  17.451  11.098
70911W        W42527  34.218  10.785   4.482
70912W        W42528  25.340  17.772   3.279
70913W        W42529   2.419  17.150  13.785
70914W        W42530  35.273  31.618  11.992
70915W        W42531  29.976  19.307   2.730
70916W        W42532  16.281   6.489   3.757
70917W        W42533  18.310  28.109   0.165
70918W        W42534  40.040  18.400  10.733
70919W        W42535  39.827  39.098  13.934
70920W        W42536  37.477  23.479  10.916
70921W        W42537  11.197  36.806   3.632
70922W        W42538   5.336  19.694   0.216
70923W        W42539  44.177  40.963   3.427
70924W        W42540  21.293  11.062   1.753
70925W        W42541  30.146  24.709  12.066
70926W        W42542   7.176  10.216  14.672
70927W        W42543  26.702  10.222  12.059
70928W        W42544  26.293  40.456   2.886
70929W        W42545  16.773  44.807   4.066
70930W        W42546  10.731   3.356   4.501
70931W        W42547   1.887   2.216  13.390
70932W        W42548   1.589  28.894   0.992
70933W        W42549   7.076  25.150   4.171
70934W        W42550  42.507  43.421  10.707
70935W        W42551   4.442  16.717  14.942
70936W        W42552  26.913  24.062   4.202
70937W        W42553  23.497  32.890   2.296
70938W        W42554  30.660   4.961  13.285
70939W        W42555  44.198  22.154   4.736
70940W        W42556  14.017  36.475   3.164
70941W        W42557   8.396  42.353   4.939
70942W        W42558  16.510   9.362   0.452
70943W        W42559  22.500  18.648  12.516
70944W        W42560  24.776   4.748  12.471
70945W        W42561  41.749  26.433  12.486
70946W        W42562  13.007  28.215  11.079
70947W        W42563  34.467  10.215   4.578
70948W        W42564   5.657  15.696  13.531
70949W        W42565  34.737  41.331  13.035
70950W        W42566  25.569  33.515  10.151
70951W        W42567   6.425   8.472  13.221
70952W        W42568   0.646   7.635  12.490
70953W        W42569   4.955  10.635  11.149
70954W        W42570  12.326  22.085  11.863
70955W        W42571  39.099   1.889  14.441
70956W        W42572  12.844  12.285  12.396
70957W        W42573   3.821   9.507  13.320
70958W        W42574  21.504  24.171  11.202
70959W        W42575  14.338  41.860  12.837
70960W        W42576  24.170  18.290   1.724
70961W        W42577  30.499  39.600   1.897
70962W        W42578  14.647   9.676  11.088
70963W        W42579   0.465  40.411  10.403
70964W        W42580  24.208  26.463   3.598
70965W        W42581  11.586  18.250  14.903
70966W        W42582   5.811   2.761   0.918
70967W        W42583  43.910  33.310   1.332
70968W        W42584  36.464  19.897  14.813
70969W        W42585  22.879  40.372   1.871
70970W        W42586  36.628  36.709  14.420
70971W        W42587  10.324  29.130   3.229
70972W        W42588  18.522   0.906   3.073
70973W        W42589  36.087  20.262  14.134
70974W        W42590   3.644   2.195  13.541
70975W        W42591  17.700  38.511  13.121
70976W        W42592  15.792  25.120   5.000
70977W        W42593   4.379  34.000   0.917
70978W        W42594  30.802  12.878  14.858
70979W        W42595  30.555  17.572   0.817
70980W        W42596   4.136  16.324   0.349
70981W        W42597   5.568   4.094   0.161
70982W        W42598  11.669  17.846  13.544
70983W        W42599  30.602   0.777  11.221
70984W        W42600  41.179  44.945   4.146
70985W        W42601  34.244  19.226  13.272
70986W        W42602  39.931  10.360   2.432
70987W        W42603  39.420  39.552   3.664
70988W        W42604  40.466  21.064   2.500
70989W        W42605  41.516  13.323  13.432
70990W        W42606  13.869   3.671   3.708
70991W        W42607  33.476  19.628   0.766
70992W        W42608   4.351   8.868  10.391
70993W        W42609   6.958  36.532  13.754
70994W        W42610  30.984  30.469   1.317
70995W        W42611  41.105  17.823  12.498
70996W        W42612  11.418  11.699  13.806
70997W        W42613  23.676   3.847   4.144
70998W        W42614  42.413  10.711   2.847
70999W        W42615  42.937  30.127  14.330
71000W        W42616   3.338  35.076  14.245
71001W        W42617  11.192   5.232   0.443
71002W        W42618  19.791  13.351   3.437
71003W        W42619  15.552  39.097  11.643
71004W        W42620  30.897  32.083   0.270
71005W        W42621  31.085  41.808  12.325
71006W        W42622   6.563  41.792  13.160
71007W        W42623  10.472  15.720   0.227
71008W        W42624  44.574  10.234   2.162
71009W        W42625   4.362  29.512   2.637
71010W        W42626  23.431  26.483  13.357
71011W        W42627  14.751  32.512  10.845
71012W        W42628  14.791   9.442  13.371
71013W        W42629  12.744   0.222  11.932
71014W        W42630  11.225  36.159   1.700
71015W        W42631  42.830  35.242   3.745
71016W        W42632   4.447  13.431   0.778
71017W        W42633  22.311  17.581  14.735
71018W        W42634  33.878  33.410  13.466
71019W        W42635   5.906  31.969   4.673
71020W        W42636  32.461  36.088   4.500
71021W        W42637  40.101  11.381  11.173
71022W        W42638  16.164  12.220   4.827
71023W        W42639  24.753  14.330   4.592
71024W        W42640  17.028  16.071  13.191
71025W        W42641  10.176  44.789   4.514
71026W        W42642  44.707  26.439   0.854
71027W        W42643  16.829  36.345  10.640
71028W        W42644  43.737  33.516  14.913
71029W        W42645   7.678   4.439   1.855
71030W        W42646  44.779  31.608   4.066
71031W        W42647  28.408   3.471  14.230
71032W        W42648  34.213  14.848  10.481
71033W        W42649  31.591  25.511  11.458
71034W        W42650  31.968  30.183   4.157
71035W        W42651   0.942  36.968  12.833
71036W        W42652   0.955  23.501  11.408
71037W        W42653  25.793  12.838  11.295
71038W        W42654   6.525  14.281  12.917
71039W        W42655  33.917   3.754  12.844
71040W        W42656  20.070  21.749  11.212
71041W        W42657  37.838  17.772  12.947
71042W        W42658  18.383  43.606   4.320
71043W        W42659  36.858  43.853   2.714
71044W        W42660  22.944  12.475  12.666
71045W        W42661  30.437  32.108   0.547
71046W        W42662   5.934  35.585  12.005
71047W        W42663  14.155   1.037  14.823
71048W        W42664  31.176  32.496  10.731
71049W        W42665  36.573  44.934   4.084
71050W        W42666  44.538  35.692  11.582
71051W        W42667   4.535  39.533   4.713
71052W        W42668  27.604  43.546  13.372
71053W        W42669  41.205  25.346  14.422
71054W        W42670  24.090   7.836   3.240
71055W        W42671   2.223  23.742  10.962
71056W        W42672  39.212  10.921  11.229
71057W        W42673   9.731  42.827   2.773
71058W        W42674  33.442  33.563  12.132
71059W        W42675  27.417  18.704   0.027
71060W        W42676  31.220   9.290   3.202
71061W        W42677  17.722  43.742  10.500
71062W        W42678  23.227   3.363  14.473
71063W        W42679  31.068   7.641  11.012
71064W        W42680  31.509  15.763  12.080
71065W        W42681   7.179  24.463   1.664
71066W        W42682  14.148  25.968   1.692
71067W        W42683  25.639  31.928   4.321
71068W        W42684  14.311  28.572  10.786
71069W        W42685  20.560   8.918   3.449
71070W        W42686  15.890  12.820  12.850
71071W        W42687  30.927  29.622  12.617
71072W        W42688  19.131  33.283   1.102
71073W        W42689   4.780   4.711  13.903
71074W        W42690  24.507   1.378   1.296
71075W        W42691  30.420  16.676   4.763
71076W        W42692  26.079  18.206  13.400
71077W        W42693   2.887  21.718   0.460
71078W        W42694   1.476  14.543  12.979
71079W        W42695  14.816  23.040  13.467
71080W        W42696  28.828  26.138   1.245
71081W        W42697  12.446  34.840  14.873
71082W        W42698  17.186   8.831  13.819
71083W        W42699  24.649  39.913   2.110
71084W        W42700  10.930  15.058   3.281
71085W        W42701   0.252  40.394  10.871
71086W        W42702  15.787  23.899  14.300
71087W        W42703  34.609   2.268  11.148
71088W        W42704  33.530  44.552  12.474
71089W        W42705  22.183  35.265  14.005
71090W        W42706  37.309  13.075  12.972
71091W        W42707  34.580  10.827   0.756
71092W        W42708  38.522  28.599  11.559
71093W        W42709  23.891  32.809  14.241
71094W        W42710   1.067  41.946   3.615
71095W        W42711  25.666   6.676  13.334
71096W        W42712  17.099  30.679  13.859
71097W        W42713  28.082  19.745  12.305
71098W        W42714   0.065  36.729  12.872
71099W        W42715  18.621  40.471   4.544
71100W        W42716  22.458  10.699   2.351
71101W        W42717  19.252   1.396  13.530
71102W        W42718  23.504  22.157  11.114
71103W        W42719  22.263   1.871   1.338
71104W        W42720  21.775   3.736  13.314
71105W        W42721  27.462   0.586   4.880
71106W        W42722  11.383  13.269  10.844
71107W        W42723   7.447  43.294  13.007
71108W        W42724  13.525  20.407  10.931
71109W        W42725  25.070  12.200   4.653
71110W        W42726  36.110  22.128  13.951
71111W        W42727  22.254  13.599  13.560
71112W        W42728  21.206  14.643   3.220
71113W        W42729   0.727  11.879   1.748
71114W        W42730   8.666  29.106  11.111
71115W        W42731  15.430  18.274   9.846
71116W        W42732  15.095  37.339  13.535
71117W        W42733  17.226  38.001  11.196
71118W        W42734   6.458  19.192   4.119
71119W        W42735   5.816  15.571  13.014
71120W        W42736  29.330  10.056   4.578
71121W        W42737  40.051   0.691  11.662
71122W        W42738  25.149   7.707  14.944
71123W        W42739  25.941   7.175  10.654
71124W        W42740  35.072  20.258  12.183
71125W        W42741  30.207  26.491  12.548
71126W        W42742   8.272  31.640  13.364
71127W        W42743  33.419  23.966   0.774
71128W        W42744  34.624  14.699  10.728
71129W        W42745  27.052  14.141  13.305
71130W        W42746  18.622  43.806   5.339
71131W        W42747  31.146  44.950   0.015
71132W        W42748  40.979  32.488   3.772
71133W        W42749  36.769  17.818   3.201
71134W        W42750  29.902  34.637  14.488
71135W        W42751  24.609  18.571   1.745
71136W        W42752  42.340  34.001  12.458
71137W        W42753  27.939  43.895  12.124
71138W        W42754  35.919   3.482  13.914
71139W        W42755  23.213  41.412  14.034
71140W        W42756  32.637  15.362   2.654
71141W        W42757  41.453  16.606   0.709
71142W        W42758  26.646   7.892  10.718
71143W        W42759  24.604  43.432   3.246
71144W        W42760   3.506  42.272  13.531
71145W        W42761  38.294  20.476   3.597
71146W        W42762  24.150  14.609   4.348
71147W        W42763   5.798  24.264  10.764
71148W        W42764  19.726   8.862  13.464
71149W        W42765  41.219  44.173  10.721
71150W        W42766  17.061   9.277  12.984
71151W        W42767  17.632  29.994  14.786
71152W        W42768  44.617   8.512  11.146
71153W        W42769  26.570   4.357  13.833
71154W        W42770   6.479   3.238  12.072
71155W        W42771  21.020  36.244  14.783
71156W        W42772  40.499  22.570   4.379
71157W        W42773   8.470   9.244  13.189
71158W        W42774  33.023  30.178  13.199
71159W        W42775  42.351  16.706  11.478
71160W        W42776  23.205  29.542  13.865
71161W        W42777  26.513   1.642   0.382
71162W        W42778   9.672  21.919  13.059
71163W        W42779  42.243   0.830   0.804
71164W        W42780  16.187  34.594  14.421
71165W        W42781  30.992   9.211  14.353
71166W        W42782   3.912  35.445   3.187
71167W        W42783  24.412   9.681  12.934
71168W        W42784  16.525  39.074  11.121
71169W        W42785  11.563   6.438  11.024
71170W        W42786  13.444   5.689   1.859
71171W        W42787   6.595   3.361   3.761
71172W        W42788   6.025   3.834   2.265
71173W        W42789  38.345  11.501   4.256
71174W        W42790  35.185  32.356   1.709
71175W        W42791  21.714  28.430   3.295
71176W        W42792  38.069  43.749  11.639
71177W        W42793  29.752  29.516  11.598
71178W        W42794  24.653  27.767  12.894
71179W        W42795  27.072   0.305   2.467
71180W        W42796   9.319  17.510   1.577
71181W        W42797  23.109   7.468   4.131
71182W        W42798  37.853  29.653   1.179
71183W        W42799  35.085  25.962  14.570
71184W        W42800   7.707  30.676  14.847
71185W        W42801  10.399  12.783   2.391
71186W        W42802  44.828   5.644   1.450
71187W        W42803  14.256  39.254  13.677
71188W        W42804  26.947  37.544   4.519
71189W        W42805  17.394   6.984  13.363
71190W        W42806   6.312  35.951  11.931
71191W        W42807  15.414  17.849   2.444
71192W        W42808  35.226  35.044   4.755
71193W        W42809  10.174  19.269   1.212
71194W        W42810  17.134  27.673   0.130
71195W        W42811   2.485   0.092  14.884
71196W        W42812  16.572  40.836  12.551
71197W        W42813  14.338  41.436   3.377
71198W        W42814  28.597  28.929   1.729
71199W        W42815  30.503  39.289  14.741
71200W        W42816  40.898  31.953   3.593
71201W        W42817  35.110  17.375   3.297
71202W        W42818  36.384  22.208   4.592
71203W        W42819  23.672   3.189  10.793
71204W        W42820   5.833   5.666  11.205
71205W        W42821   8.724  18.508  10.555
71206W        W42822  41.148  33.532   4.967
71207W        W42823  40.895  39.764  12.106
71208W        W42824  21.095  38.167   3.259
71209W        W42825  24.405  30.982   2.775
71210W        W42826  30.574   0.950   0.346
71211W        W42827   6.095  20.513  11.140
71212W        W42828  41.269  34.834  13.847
71213W        W42829  32.046  27.263  12.559
71214W        W42830  24.498  15.322   3.278
71215W        W42831  33.799  16.304   1.193
71216W        W42832  42.844   2.012   4.487
71217W        W42833   7.683  11.690   4.613
71218W        W42834  21.725  29.706   0.891
71219W        W42835  13.789  23.248   3.642
71220W        W42836  21.968  33.544   1.725
71221W        W42837  44.128  20.498  11.175
71222W        W42838   2.513   4.714   4.046
71223W        W42839  29.639  20.039   2.226
71224W        W42840  37.537  42.069  10.571
71225W        W42841  43.485  32.290   2.746
71226W        W42842  30.062  17.525   2.398
71227W        W42843  35.148  41.551  14.040
71228W        W42844  20.719  42.745  12.073
71229W        W42845  10.562  28.334   1.207
71230W        W42846  35.779  41.318   0.739
71231W        W42847  24.041  33.049  13.388
71232W        W42848  39.311   3.682  11.067
71233W        W42849  25.666  12.295  13.553
71234W        W42850  32.374  15.885   4.944
71235W        W42851   0.571  43.732   2.135
71236W        W42852  20.456  33.323   2.935
71237W        W42853  34.010  31.974   3.660
71238W        W42854   5.398  16.179   0.888
71239W        W42855  32.141   0.887   0.848
71240W        W42856  17.215  39.059  12.491
71241W        W42857  22.009  17.771   3.441
71242W        W42858  15.737   6.850   4.550
71243W        W42859  23.562  10.366  14.366
71244W        W42860  43.201   7.424  13.321
71245W        W42861  18.877  14.848   4.850
71246W        W42862  16.812  34.054  11.673
71247W        W42863  24.194  21.292   3.717
71248W        W42864  18.099  16.873   1.292
71249W        W42865   5.819  12.145  14.960
71250W        W42866  22.776  37.142  10.431
71251W        W42867  15.819  11.507   0.227
71252W        W42868  15.662  44.236   2.415
71253W        W42869  27.625  16.956  11.000
71254W        W42870  40.305  28.092   1.145
71255W        W42871  30.976  41.249  12.173
71256W        W42872  38.942  44.275   1.888
71257W        W42873  23.010  25.515   1.928
71258W        W42874  28.434  43.411  10.956
71259W        W42875  30.412   7.994  13.945
71260W        W42876   8.436   3.960   3.765
71261W        W42877  32.908   8.711  13.945
71262W        W42878  23.233  32.679  12.373
71263W        W42879   4.105  14.802   2.216
71264W        W42880  44.675  18.936   5.148
71265W        W42881  18.822  29.866   0.077
71266W        W42882   6.436  27.367  12.940
71267W        W42883   7.805   0.250  13.789
71268W        W42884  27.193  25.477  13.510
71269W        W42885  44.849  39.888  10.889
71270W        W42886   0.915  44.581  11.086
71271W        W42887  31.892  23.065   1.926
71272W        W42888  20.509  13.282  11.559
71273W        W42889  41.164  31.763   2.670
71274W        W42890  37.034  22.077  12.031
71275W        W42891  32.478   0.024  10.426
71276W        W42892  17.584  34.029   1.639
71277W        W42893  15.316  15.121  11.118
71278W        W42894  44.671  42.757  10.188
71279W        W42895  31.582  41.613   2.524
71280W        W42896   7.809  28.098  13.951
71281W        W42897   2.188  39.628  14.470
71282W        W42898  10.250  33.427   4.161
71283W        W42899  23.084  44.978   0.938
71284W        W42900  14.268  38.937  12.102
71285W        W42901  15.659   6.538  12.779
71286W        W42902  20.732  26.060   3.091
71287W        W42903  22.636  33.381  12.868
71288W        W42904  17.308  28.124   0.349
71289W        W42905  24.054   2.314  14.428
71290W        W42906   1.799  14.164   4.696
71291W        W42907  13.625  30.627  13.597
71292W        W42908  37.679  25.822   0.288
71293W        W42909  29.536  41.061   4.351
71294W        W42910  32.922  41.845   3.674
71295W        W42911  24.813  27.634   1.773
71296W        W42912  44.541  35.763   2.955
71297W        W42913  36.779  30.813  12.298
71298W        W42914  43.386  34.624  14.788
71299W        W42915  33.514   1.759  14.581
71300W        W42916   7.489  10.068  12.412
71301W        W42917   5.669  30.002  12.573
71302W        W42918  39.254  33.483  11.883
71303W        W42919   9.573  22.298   2.444
71304W        W42920  28.971   6.982  11.988
71305W        W42921  37.906  10.438   0.934
71306W        W42922  12.099  12.979   1.691
71307W        W42923  30.382  43.027  12.456
71308W        W42924  13.541  27.018  14.350
71309W        W42925   7.831  15.758   2.186
71310W        W42926  28.048   8.713   1.966
71311W        W42927  20.171  32.051   1.836
71312W        W42928  23.770   0.403  14.513
71313W        W42929  35.140  36.010   1.366
71314W        W42930  28.378  16.787  14.279
71315W        W42931  20.341   3.515  10.444
71316W        W42932  37.877   1.064   4.300
71317W        W42933  12.284  22.030   4.571
71318W        W42934  29.115  37.742   0.832
71319W        W42935  31.921  26.680  11.516
71320W        W42936  37.302   5.337   0.811
71321W        W42937  23.634  24.693  14.673
71322W        W42938   3.339  25.598  10.426
71323W        W42939  14.321  43.373  10.733
71324W        W42940  23.381   6.623  11.410
71325W        W42941  17.930  33.777  13.543
71326W        W42942   7.732  23.807   1.646
71327W        W42943  35.085   6.782  11.759
71328W        W42944  26.219   2.915   3.070
71329W        W42945  23.261  26.673  11.492
71330W        W42946  43.436  10.674  10.529
71331W        W42947  32.187   5.931  11.512
71332W        W42948  32.172  10.750   2.781
71333W        W42949  22.155  10.267  13.910
71334W        W42950  32.204  28.247   1.880
71335W        W42951  13.486  41.043   0.738
71336W        W42952  41.663  43.914   2.177
71337W        W42953  31.925  25.022   3.875
71338W        W42954  12.195   1.796  10.734
71339W        W42955  36.354  23.789   0.675
71340W        W42956  18.296  28.397   2.409
71341W        W42957  27.193  44.974   4.344
71342W        W42958   3.573  27.142  14.854
71343W        W42959  17.401  14.666  14.283
71344W        W42960  40.116  13.822  10.963
71345W        W42961   7.449  23.399   0.014
71346W        W42962   3.024  36.818   2.402
71347W        W42963   3.342   8.732  12.138
71348W        W42964  23.213   1.362   0.708
71349W        W42965   1.223  32.485   3.815
71350W        W42966  33.098  13.533   2.606
71351W        W42967  11.179  37.836  11.100
71352W        W42968  11.820  12.338   2.351
71353W        W42969  42.506  34.371   2.263
71354W        W42970  11.813  39.857   2.746
71355W        W42971  36.425  13.727   3.879
71356W        W42972  41.992  35.938  10.695
71357W        W42973  20.200   6.686  10.725
71358W        W42974  32.725  16.674  12.915
71359W        W42975  27.958  10.289  14.514
71360W        W42976  43.047  18.202   3.759
71361W        W42977  25.069  35.826   4.893
71362W        W42978  27.069  39.198   0.234
71363W        W42979  28.947   9.813   1.200
71364W        W42980  21.169   3.783   0.343
71365W        W42981  26.020  26.006  12.462
71366W        W42982   7.916  10.807   4.560
71367W        W42983   0.851  23.645   0.753
71368W        W42984  27.953  44.849  14.508
71369W        W42985  10.241  22.639   0.201
71370W        W42986  25.665  43.921  14.070
71371W        W42987  36.386  27.880   0.025
71372W        W42988  24.852  21.198  11.579
71373W        W42989  33.038  28.629   2.001
71374W        W42990  29.975  44.623   0.374
71375W        W42991  44.493  39.487   0.796
71376W        W42992  27.989  44.294  12.960
71377W        W42993  13.300  19.074  13.826
71378W        W42994  18.980   8.770  11.246
71379W        W42995  37.301   4.814  14.847
71380W        W42996  36.838  33.674   1.698
71381W        W42997  34.384   9.379  13.004
71382W        W42998  14.282  44.864   1.747
71383W        W42999  15.059  16.183  10.931
71384W        W43000  23.579  26.094   2.461
71385W        W43001  12.977  28.590   3.955
71386W        W43002  13.031   5.886   2.812
71387W        W43003  27.236  20.799  11.182
71388W        W43004  23.060  20.926  11.251
71389W        W43005  22.349  32.696  14.248
71390W        W43006  33.103  22.234   1.222
71391W        W43007  42.235   5.239  14.955
71392W        W43008  32.896  42.415  13.950
71393W        W43009  26.669  43.135  10.704
71394W        W43010  25.961  42.272   1.306
71395W        W43011  32.739  13.168   2.660
71396W        W43012  12.871  19.162  10.419
71397W        W43013   7.298  41.416   3.776
71398W        W43014  25.466   4.187   3.660
71399W        W43015   3.573  43.319  12.188
71400W        W43016  20.201  38.423   2.874
71401W        W43017  34.055  21.615   4.205
71402W        W43018  41.330  44.818  13.978
71403W        W43019  31.889  12.188   1.983
71404W        W43020  38.092  23.985   0.477
71405W        W43021  42.041  44.853   0.311
71406W        W43022  21.227  29.198   5.019
71407W        W43023  44.695   0.230  14.800
71408W        W43024  33.923  42.946  14.872
71409W        W43025  21.460  40.950   0.023
71410W        W43026  17.278  31.445   1.211
71411W        W43027  44.749  26.029  13.009
71412W        W43028  41.325  33.107   3.346
71413W        W43029   4.840  19.753   4.968
71414W        W43030  17.072  25.969   3.358
71415W        W43031   2.417   0.142  11.975
71416W        W43032  11.363  36.046  10.966
71417W        W43033  25.698  15.635  14.056
71418W        W43034  29.990  18.092  12.841
71419W        W43035   5.198   9.902  13.360
71420W        W43036  36.359  39.086  13.494
71421W        W43037   7.273  14.270   4.940
71422W        W43038  40.021  21.590  12.959
71423W        W43039  21.489  30.214  13.015
71424W        W43040  44.279   5.915  12.953
71425W        W43041  39.841  37.086   1.411
71426W        W43042  23.066  44.765   4.369
71427W        W43043   0.553  34.020   1.710
71428W        W43044  37.355  38.578   3.893
71429W        W43045   9.519  43.601  14.728
71430W        W43046  10.179  17.816   0.763
71431W        W43047   0.594  39.094   2.918
71432W        W43048  39.896   3.636   2.359
71433W        W43049  44.723  17.054  10.912
71434W        W43050  33.362  15.303   4.001
71435W        W43051  32.511  12.292   0.824
71436W        W43052   9.018  44.402   3.852
71437W        W43053  13.213  26.987   4.133
71438W        W43054   7.376   8.769   4.979
71439W        W43055  37.060  33.051   0.716
71440W        W43056  10.860  31.311  13.436
71441W        W43057  42.469   6.893  14.379
71442W        W43058   2.105  42.721   3.774
71443W        W43059  41.751   5.104  14.769
71444W        W43060  38.267  30.077   0.021
71445W        W43061  16.305   6.072  14.561
71446W        W43062   0.626  31.789  10.347
71447W        W43063   2.423  22.591   5.470
71448W        W43064  10.430  16.899  13.038
71449W        W43065  37.492  12.343   3.083
71450W        W43066  33.051   0.382  14.046
71451W        W43067  31.061  18.346  11.013
71452W        W43068  21.579  33.102   0.808
71453W        W43069  35.484  33.236   0.405
71454W        W43070  20.198  18.734  11.695
71455W        W43071  34.173  37.402   2.664
71456W        W43072   1.779  22.582  14.275
71457W        W43073  13.596   0.445   4.166
71458W        W43074  18.039  28.504  12.054
71459W        W43075  24.123   0.288  14.140
71460W        W43076   4.261  43.311   9.727
71461W        W43077  11.846  31.523   3.104
71462W        W43078   8.807  17.015  13.655
71463W        W43079   3.866  16.031  12.286
71464W        W43080  24.824   1.444  12.763
71465W        W43081  42.015   9.276  10.451
71466W        W43082  14.555  43.917   0.284
71467W        W43083  25.144  15.670  12.363
71468W        W43084   4.458   5.462  11.521
71469W        W43085  12.704   8.971   0.253
71470W        W43086  44.992  38.669   3.202
71471W        W43087  24.668  36.703   3.145
71472W        W43088  18.629  12.185   1.008
71473W        W43089  41.307  23.009   4.312
71474W        W43090  28.512  11.083   1.426
71475W        W43091   4.316   7.949  10.947
71476W        W43092   1.037  23.453   3.681
71477W        W43093  11.763  16.305   2.925
71478W        W43094  27.159  36.104   3.190
71479W        W43095  35.367  26.109   4.048
71480W        W43096   5.668  17.736  10.852
71481W        W43097  25.207   4.883   0.895
71482W        W43098  33.058  34.884  13.547
71483W        W43099  26.280  21.525  10.640
71484W        W43100  44.684  29.856   3.359
71485W        W43101  11.759  37.530   5.167
71486W        W43102   0.242  10.555  13.018
71487W        W43103   1.515   8.810   1.535
71488W        W43104   5.916   9.825   4.788
71489W        W43105  37.097  40.443   1.545
71490W        W43106  13.039  35.933  13.519
71491W        W43107  31.991   1.756  13.581
71492W        W43108   1.346  19.357   4.418
71493W        W43109  36.349   7.604   3.685
71494W        W43110  30.984   7.150   0.291
71495W        W43111  20.694  43.552  13.834
71496W        W43112  20.780  22.563   3.631
71497W        W43113  30.532  35.462   1.508
71498W        W43114  15.030   7.205   3.269
71499W        W43115  34.592  10.171  12.517
71500W        W43116  11.521  33.102  14.976
71501W        W43117  14.063  35.950   2.746
71502W        W43118  29.705   0.943   4.966
71503W        W43119  12.560  19.359  13.416
71504W        W43120   8.915  42.928  12.057
71505W        W43121   7.825   2.743   4.825
71506W        W43122  34.784   7.675  12.830
71507W        W43123  44.411  17.749   1.926
71508W        W43124  41.896   0.680  11.103
71509W        W43125  25.165  35.315  14.826
71510W        W43126  39.484   0.241   3.298
71511W        W43127   8.105  25.713  13.346
71512W        W43128  25.356   2.410  10.697
71513W        W43129  23.416  42.910  13.483
71514W        W43130  32.695  12.609  11.089
71515W        W43131  31.223  17.637   0.045
71516W        W43132  15.250  37.307  11.041
71517W        W43133  25.010  24.967   0.332
71518W        W43134   3.631  13.336   0.246
71519W        W43135  19.665  44.997  14.908
71520W        W43136  18.220   6.358  10.633
71521W        W43137  39.121   2.075   0.446
71522W        W43138  31.484  13.517  12.899
71523W        W43139  10.667  35.442  14.788
71524W        W43140  19.499   3.748  14.892
71525W        W43141  27.452  35.894   1.092
71526W        W43142  22.994   4.348  14.449
71527W        W43143  16.065  35.403   1.749
71528W        W43144  23.807  24.640  13.366
71529W        W43145  36.950  38.496   2.432
71530W        W43146  19.385  24.796  13.546
71531W        W43147  33.911  29.094   3.843
71532W        W43148  42.832  18.659  11.911
71533W        W43149  21.993  20.863  13.090
71534W        W43150  13.862  14.095   3.326
71535W        W43151  13.358   6.400  14.370
71536W        W43152  25.003   1.934  12.663
71537W        W43153  35.245   2.376  13.379
71538W        W43154  12.901  38.415  11.167
71539W        W43155  25.668   6.615   0.306
71540W        W43156   6.476  18.753  12.766
71541W        W43157  13.774  17.431  14.100
71542W        W43158  18.220  44.443  10.689
71543W        W43159  40.506   4.924  13.489
71544W        W43160  26.282  42.754   2.854
71545W        W43161  42.207   0.860   0.288
71546W        W43162  14.025   5.142  12.350
71547W        W43163  24.032  18.150   0.235
71548W        W43164  28.723  14.340   4.680
71549W        W43165  29.484  37.687   2.455
71550W        W43166   4.266  32.426  10.593
71551W        W43167  36.040  25.081  14.054
71552W        W43168  24.607  38.509  12.524
71553W        W43169  41.323  21.605  11.611
71554W        W43170  37.859  11.938  11.695
71555W        W43171  13.735   5.917  10.831
71556W        W43172  13.294  34.885   3.188
71557W        W43173  13.654  22.127   2.516
71558W        W43174  32.923  12.403  13.328
71559W        W43175  29.867  11.146   3.750
71560W        W43176  42.696  20.170   2.059
71561W        W43177  21.989  28.504  13.302
71562W        W43178   3.933  20.521   4.528
71563W        W43179  34.527   1.815   4.498
71564W        W43180   6.128  42.755   4.598
71565W        W43181  24.441  44.729   0.070
71566W        W43182  38.319  22.694   1.864
71567W        W43183  30.009  17.710   3.846
71568W        W43184  15.639  41.405  14.325
71569W        W43185  16.187   9.580   3.163
71570W        W43186  39.651  42.910   2.178
71571W        W43187  18.664   4.919  10.506
71572W        W43188  38.797   9.239  11.675
71573W        W43189   7.976  40.581   5.039
71574W        W43190  40.287  44.718  11.499
71575W        W43191  23.671  41.398  11.449
71576W        W43192   2.339   5.912  10.619
71577W        W43193  41.521  10.925  11.324
71578W        W43194  10.577  27.994  13.859
71579W        W43195  34.667  16.744   0.738
71580W        W43196   5.646   5.394  12.545
71581W        W43197  31.540  39.564   3.185
71582W        W43198  20.364  30.796  14.063
71583W        W43199  36.007   2.302   4.802
71584W        W43200   3.404  21.248   4.347
71585W        W43201  31.688  44.501   3.307
71586W        W43202  33.353  32.151   2.719
71587W        W43203  30.537  34.466   4.480
71588W        W43204  12.299  11.665   3.675
71589W        W43205  20.603  27.979   3.217
71590W        W43206  43.179  34.358   1.713
71591W        W43207  44.071   3.593  11.522
71592W        W43208  33.568  22.791  13.729
71593W        W43209  29.867  12.788  10.529
71594W        W43210  30.125  20.775   1.877
71595W        W43211  37.470  27.239   3.938
71596W        W43212  14.426   0.362   4.676
71597W        W43213   7.998  28.917   3.616
71598W        W43214  37.406  35.947  13.057
71599W        W43215  18.807  12.362   0.007
71600W        W43216  13.735   5.865  10.324
71601W        W43217  27.577  35.876   3.452
71602W        W43218  29.053  17.138  14.313
71603W        W43219  38.996   7.902   2.033
71604W        W43220  30.152  21.479   0.751
71605W        W43221   6.792   0.616   1.289
71606W        W43222  14.809  31.579  11.656
71607W        W43223  35.814  32.612  12.787
71608W        W43224  18.299  11.784   2.305
71609W        W43225  30.878  25.032  10.820
71610W        W43226  26.124  16.663  13.443
71611W        W43227  39.187   0.122  11.622
71612W        W43228  16.485  42.808   5.541
71613W        W43229  22.863  26.166  14.515
71614W        W43230  44.626   0.741   1.776
71615W        W43231  39.282  14.885   3.550
71616W        W43232  32.160  27.486  12.103
71617W        W43233  25.160  18.883   4.588
71618W        W43234  33.907   4.357  13.363
71619W        W43235   3.291  13.046  13.002
71620W        W43236   5.688  31.866  12.077
71621W        W43237  19.778  11.244   2.244
71622W        W43238  21.202  33.707  11.179
71623W        W43239  25.693  22.513  14.812
71624W        W43240  15.294  26.015   2.659
71625W        W43241   6.252  36.583  13.127
71626W        W43242  30.842  41.366  13.539
71627W        W43243  34.020  41.433   3.318
71628W        W43244  18.119  35.510  14.339
71629W        W43245   3.435  22.637  12.189
71630W        W43246  34.863  11.781   4.445
71631W        W43247   2.348   3.712  12.910
71632W        W43248   7.108  38.478   0.006
71633W        W43249   9.701  10.902   0.350
71634W        W43250   3.455   1.328   2.268
71635W        W43251  25.050  17.193  14.695
71636W        W43252  25.569  42.393   1.627
71637W        W43253  31.119  42.074   3.544
71638W        W43254  11.795  24.980   4.532
71639W        W43255  31.180  38.319   2.664
71640W        W43256  29.750  10.804   1.223
71641W        W43257  36.880  16.584  11.108
71642W        W43258  36.509  13.710  11.539
71643W        W43259  11.377  36.846  13.382
71644W        W43260  23.723   8.282  14.884
71645W        W43261  30.057  12.650   3.932
71646W        W43262  38.449  15.372  14.406
71647W        W43263  29.095  35.332   3.584
71648W        W43264  32.992  42.118  12.854
71649W        W43265  39.662  44.543  11.103
71650W        W43266  30.116   2.451  14.856
71651W        W43267  32.651  25.057   3.211
71652W        W43268  21.580   4.009   0.596
71653W        W43269  21.255  39.608   2.859
71654W        W43270  19.015  15.277  12.167
71655W        W43271  37.547  43.425   2.954
71656W        W43272  42.288   6.412  12.483
71657W        W43273   9.239  39.836  11.890
71658W        W43274   8.183  37.533  13.840
71659W        W43275  43.426  35.805  13.969
71660W        W43276  34.944  42.027  14.193
71661W        W43277  40.518  21.022  10.556
71662W        W43278   4.778  21.751  12.076
71663W        W43279  44.210  41.356   0.390
71664W        W43280  19.051  16.395  12.125
71665W        W43281  28.211   6.342  12.184
71666W        W43282  10.605  32.766   1.439
71667W        W43283  34.031  20.878   2.109
71668W        W43284  17.211  20.613   1.002
71669W        W43285  44.726  22.599   4.284
71670W        W43286   8.927  21.718   3.662
71671W        W43287  26.734   3.124  11.587
71672W        W43288  19.577  36.660  13.499
71673W        W43289  15.782  34.690  13.291
71674W        W43290   1.387  21.440  14.474
71675W        W43291  27.416   9.238  12.502
71676W        W43292  10.220   9.145  10.353
71677W        W43293  35.994  23.791  11.944
71678W        W43294  12.166   9.856   4.147
71679W        W43295  21.973   9.174  12.520
71680W        W43296  25.429   6.851  13.750
71681W        W43297   4.582  34.588   3.298
71682W        W43298  18.108   7.357   3.519
71683W        W43299  20.738  37.866   3.703
71684W        W43300  29.530  26.886   3.057
71685W        W43301   3.203  32.089   2.848
71686W        W43302  39.911   7.174   2.597
71687W        W43303  22.258  17.223  11.067
71688W        W43304   2.076  35.752   3.800
71689W        W43305  25.094   3.438  10.310
71690W        W43306   5.706  27.895  11.455
71691W        W43307  11.439  30.866   3.469
71692W        W43308  44.817   7.896   2.295
71693W        W43309   5.226  28.609  12.971
71694W        W43310  36.619  32.475   1.414
71695W        W43311  35.169  21.855   2.321
71696W        W43312  15.380  13.120  13.306
71697W        W43313  43.731  41.048   3.118
71698W        W43314   1.778  41.898   4.591
71699W        W43315  10.837  23.196  10.674
71700W        W43316  42.553   1.931   2.396
71701W        W43317  37.490  13.156   3.056
71702W        W43318  21.243  20.732   0.834
71703W        W43319  29.101  23.129   3.138
71704W        W43320   4.197   8.783  11.949
71705W        W43321   4.731  13.273   3.789
71706W        W43322  39.399  24.015   4.692
71707W        W43323  41.890  19.802   1.571
71708W        W43324  38.092  34.386  14.501
71709W        W43325  38.134  31.566   3.724
71710W        W43326  31.982  35.374   2.739
71711W        W43327  44.427  14.338   3.638
71712W        W43328   4.713  37.872  14.423
71713W        W43329   6.231   6.424  10.694
71714W        W43330  32.498  31.880   1.399
71715W        W43331   4.942  28.439  13.884
71716W        W43332  26.011  26.950  12.167
71717W        W43333  42.435   7.335  12.114
71718W        W43334  19.395  25.185   0.322
71719W        W43335  13.256   2.194   3.170
71720W        W43336  15.015  20.066  13.928
71721W        W43337  30.446   0.808  13.060
71722W        W43338  13.769   2.879  13.872
71723W        W43339  28.508  28.858   1.226
71724W        W43340  18.453  32.913  14.873
71725W        W43341   9.785  19.433  10.569
71726W        W43342  31.974  43.748   4.135
71727W        W43343  40.408  12.617   0.220
71728W        W43344  14.560  39.535  12.844
71729W        W43345  44.858  27.859  14.769
71730W        W43346  34.780   2.923  12.361
71731W        W43347  24.225  21.510   5.323
71732W        W43348   1.740  21.812   4.776
71733W        W43349   9.007   2.880   0.027
71734W        W43350  25.177  35.593  11.121
71735W        W43351  21.430  39.094   2.779
71736W        W43352   9.422  14.359   2.279
71737W        W43353   4.083  11.589   3.253
71738W        W43354  40.548  21.622  12.870
71739W        W43355  16.603  42.470   5.149
71740W        W43356   5.356  36.823   1.072
71741W        W43357   5.417  42.467   0.355
71742W        W43358  40.096  12.167  14.995
71743W        W43359  30.410  18.316  12.618
71744W        W43360  10.812  20.600   1.858
71745W        W43361  15.927   4.285  11.547
71746W        W43362  32.912  38.592  11.096
71747W        W43363  30.599  25.767   1.919
71748W        W43364  43.420   1.950  11.731
71749W        W43365  34.386  35.582  11.802
71750W        W43366   0.232   5.190   4.073
71751W        W43367  12.330  19.813   4.845
71752W        W43368  42.406  26.756  13.578
71753W        W43369  16.213  20.136   4.685
71754W        W43370   1.578  40.008  12.377
71755W        W43371  34.319   9.761   0.246
71756W        W43372  17.627  12.200   4.005
71757W        W43373  25.550  22.026  12.536
71758W        W43374  32.368  21.245  11.937
71759W        W43375  11.137  16.823   2.832
71760W        W43376  34.055  34.798  11.977
71761W        W43377   8.595   2.714   1.795
71762W        W43378  17.421   8.928  12.994
71763W        W43379  10.722  21.777   2.132
71764W        W43380  28.151  33.779   1.015
71765W        W43381  14.263  39.936  11.191
71766W        W43382  32.354  44.767   2.012
71767W        W43383  23.898  28.945   0.801
71768W        W43384  19.565  17.119  11.183
71769W        W43385   7.400   7.579  10.749
71770W        W43386   7.323  12.629  10.928
71771W        W43387  35.042  16.537   1.874
71772W        W43388  20.711  43.695  13.292
71773W        W43389   9.724   9.623   4.327
71774W        W43390  39.438  31.868   3.281
71775W        W43391   0.273  32.992  11.415
71776W        W43392  40.932   8.140  12.535
71777W        W43393  34.049   7.758   4.696
71778W        W43394  11.147  17.355  14.697
71779W        W43395  18.757  39.356  11.118
71780W        W43396   5.154  24.540   2.885
71781W        W43397  10.881  32.375  12.982
71782W        W43398   6.325   7.393  11.266
71783W        W43399  44.491  22.192   2.308
71784W        W43400  21.639  35.280  12.376
71785W        W43401  32.530   7.773   1.408
71786W        W43402  33.861   6.148   1.774
71787W        W43403  27.425  27.979   1.612
71788W        W43404  37.937  12.157  10.816
71789W        W43405  44.966  39.733   0.441
71790W        W43406  39.563   4.636  10.209
71791W        W43407  26.643   9.600   2.883
71792W        W43408   8.651  12.925   4.290
71793W        W43409   8.379   7.662   3.320
71794W        W43410  13.567  37.550  10.994
71795W        W43411  43.778  38.447   2.738
71796W        W43412  14.068  14.952  11.518
71797W        W43413  39.012  44.483   4.222
71798W        W43414   3.999  18.585  10.641
71799W        W43415   6.851   7.986   0.700
71800W        W43416  31.879  28.199  11.117
71801W        W43417  32.318  44.574  13.305
71802W        W43418  21.059  32.959   2.109
71803W        W43419  36.512  12.222  14.029
71804W        W43420   6.727   4.745  11.440
71805W        W43421  10.102  17.294   0.003
71806W        W43422  44.936   8.167  11.399
71807W        W43423  44.863  23.619  14.223
71808W        W43424  44.755  34.112  13.368
71809W        W43425  23.669  19.099   4.752
71810W        W43426  41.908  33.044   0.663
71811W        W43427  38.240  16.844   3.209
71812W        W43428  28.204  16.814   0.602
71813W        W43429  13.664  27.205  12.430
71814W        W43430   6.457   1.942   0.813
71815W        W43431   1.068  18.003  13.334
71816W        W43432  37.047   5.973  11.547
71817W        W43433  33.008  15.754  10.633
71818W        W43434  28.179  41.934  14.045
71819W        W43435  41.789  40.328  12.000
71820W        W43436  14.343  41.511  11.896
71821W        W43437  38.984   3.417  13.643
71822W        W43438   9.270   0.457   2.967
71823W        W43439  14.794  35.673   4.679
71824W        W43440  37.308  24.974  14.938
71825W        W43441  34.924   8.442   4.719
71826W        W43442  21.557  25.529  10.647
71827W        W43443  28.692  25.499   1.936
71828W        W43444  29.666  15.182   5.095
71829W        W43445   7.321  39.469   4.779
71830W        W43446  27.696   6.153  12.926
71831W        W43447  26.187  24.575   4.434
71832W        W43448  14.508  33.833   1.175
71833W        W43449  15.129  30.024  13.085
71834W        W43450  29.001   8.267  11.587
71835W        W43451  39.871  28.302   0.933
71836W        W43452  21.006  33.351   2.903
71837W        W43453  28.513   4.913   0.981
71838W        W43454  31.129  40.194   0.028
71839W        W43455  42.905   5.742  13.297
71840W        W43456   4.379   7.697   4.063
71841W        W43457   3.210  43.822  10.320
71842W        W43458  29.193  11.682   4.049
71843W        W43459  41.049  32.924  11.622
71844W        W43460   8.756   6.700   0.008
71845W        W43461  31.914  24.244  12.141
71846W        W43462  37.508  13.194   3.574
71847W        W43463   7.615  44.716   1.498
71848W        W43464  12.152  23.024   0.190
71849W        W43465  22.942  15.148  13.010
71850W        W43466  14.205  27.207   2.566
71851W        W43467  24.977  43.694   1.976
71852W        W43468   0.840  30.155  11.980
71853W        W43469  18.821  22.125  14.814
71854W        W43470  30.175  17.589   0.053
71855W        W43471  42.572  36.050   4.317
71856W        W43472  44.313   4.418   2.392
71857W        W43473   7.332  19.171   2.150
71858W        W43474  28.690  25.453  10.730
71859W        W43475  31.506  18.029   2.260
71860W        W43476   5.374  29.984  11.167
71861W        W43477  12.771   6.580  10.618
71862W        W43478  38.664  26.563  11.967
71863W        W43479  31.076   1.408  14.784
71864W        W43480  39.471   3.910   2.181
71865W        W43481   7.018  41.779  13.392
71866W        W43482  33.688  40.271  14.869
71867W        W43483  40.333  35.630  14.311
71868W        W43484   8.878  37.976  12.752
71869W        W43485   1.366  21.681  14.974
71870W        W43486   3.056  13.147   0.794
71871W        W43487  42.070  39.562  13.809
71872W        W43488  30.556   2.868  13.038
71873W        W43489   2.361  14.158  11.748
71874W        W43490   1.385  19.083  14.997
71875W        W43491  18.073   2.778  11.265
71876W        W43492  15.110   5.989  14.913
71877W        W43493   8.910  10.876  11.117
71878W        W43494  11.629  31.345   0.866
71879W        W43495  13.149  25.860   1.710
71880W        W43496   3.885  21.010   4.267
71881W        W43497  13.467  17.253  13.030
71882W        W43498  19.353  19.147  12.015
71883W        W43499  21.783  41.872  12.145
71884W        W43500  29.018  31.008   4.409
71885W        W43501   6.719  40.845  13.150
71886W        W43502  26.678  44.763  11.057
71887W        W43503   3.465  29.510   4.746
71888W        W43504   5.922  18.304   3.680
71889W        W43505   7.671   4.664   4.119
71890W        W43506  28.463  22.718   2.916
71891W        W43507  32.028   7.228   0.227
71892W        W43508  40.792  34.551  14.037
71893W        W43509  33.373   6.486  11.035
71894W        W43510   7.722   0.960   2.299
71895W        W43511   2.395  43.587  14.733
71896W        W43512   7.059   0.433   1.705
71897W        W43513  28.141  21.035  12.006
71898W        W43514  37.134  44.934   1.099
71899W        W43515  43.240  40.964   0.729
71900W        W43516   7.762  42.545   0.086
71901W        W43517  38.533   3.958  12.913
71902W        W43518  38.080  18.526   3.717
71903W        W43519  21.617  42.858  14.820
71904W        W43520  15.151  34.620   1.232
71905W        W43521  21.949  18.333   1.841
71906W        W43522  23.578  31.880   0.483
71907W        W43523  36.109  16.075  11.276
71908W        W43524  39.106  11.343   0.954
71909W        W43525  11.270   3.246   2.443
71910W        W43526  12.762  33.944   2.466
71911W        W43527  19.533  12.322   3.766
71912W        W43528  33.454   4.925   3.681
71913W        W43529  37.619  17.605  13.830
71914W        W43530  38.409  27.025  11.846
71915W        W43531  33.991   2.551  14.153
71916W        W43532  31.408   5.294   2.354
71917W        W43533  25.062  21.609   4.156
71918W        W43534  16.811   5.348   1.152
71919W        W43535   0.235  14.221   1.212
71920W        W43536  30.745  13.580  11.259
71921W        W43537   8.773  18.608   2.401
71922W        W43538  20.585  30.138  12.879
71923W        W43539   4.432  13.275  14.954
71924W        W43540  30.890  10.827   3.144
71925W        W43541   2.918  28.999  12.585
71926W        W43542  43.530  32.391   0.750
71927W        W43543  36.113  20.802  12.457
71928W        W43544  15.371  28.466  12.373
71929W        W43545   5.189  18.044   3.219
71930W        W43546  32.003   6.784   1.461
71931W        W43547  15.706  10.464  11.074
71932W        W43548   4.081   0.414  11.057
71933W        W43549  28.931  16.851  10.591
71934W        W43550   4.573  10.869   1.109
71935W        W43551  17.002  11.762  13.899
71936W        W43552  29.044  17.418   0.746
71937W        W43553  28.748  31.534   5.018
71938W        W43554  30.241  18.661   2.207
71939W        W43555   4.130  38.780  13.866
71940W        W43556  23.559  16.748  10.717
71941W        W43557  15.039   4.207   3.452
71942W        W43558   8.270  16.511  13.329
71943W        W43559  14.871   0.770  13.120
71944W        W43560   1.280  17.121  14.394
71945W        W43561  23.462   5.825  13.924
71946W        W43562   5.242  28.852   3.210
71947W        W43563  28.875  37.504   1.229
71948W        W43564   7.728   5.793  14.563
71949W        W43565   5.547  34.767   4.326
71950W        W43566  14.668   3.839  10.456
71951W        W43567  24.674  15.826   4.598
71952W        W43568  38.041  15.004   0.339
71953W        W43569   9.720  27.239  14.412
71954W        W43570  15.506   5.729   1.926
71955W        W43571  41.508  17.812  14.753
71956W        W43572  33.141   8.987   3.267
71957W        W43573  44.394  38.422   1.436
71958W        W43574  36.921  36.298  14.702
71959W        W43575   5.093  36.539  11.562
71960W        W43576  23.930  34.897   2.479
71961W        W43577  40.839  26.093  14.985
71962W        W43578  10.715  26.453  12.601
71963W        W43579  32.063  32.795  12.235
71964W        W43580  13.277  18.083  14.494
71965W        W43581  21.761  25.023   0.636
71966W        W43582  11.594  14.541   3.926
71967W        W43583   5.223  36.415   0.787
71968W        W43584  28.356  26.988  14.837
71969W        W43585   5.263  27.703  11.635
71970W        W43586   0.239  37.696   3.035
71971W        W43587  30.505   7.546  11.802
71972W        W43588  34.640  44.387   3.401
71973W        W43589  39.745  21.779  12.549
71974W        W43590   7.843  41.464   2.372
71975W        W43591  29.442  40.863  11.858
71976W        W43592  37.693  16.575   3.769
71977W        W43593   7.613  39.438   0.292
71978W        W43594  32.920  32.067  11.117
71979W        W43595  26.122  41.802   2.640
71980W        W43596   0.269   3.113  12.869
71981W        W43597  15.225  14.251  12.436
71982W        W43598  21.478  42.108  14.522
71983W        W43599  12.398  16.039  12.403
71984W        W43600  40.471   7.744   0.260
71985W        W43601  42.807  44.987   3.169
71986W        W43602  37.505  16.575  10.697
71987W        W43603  18.127  37.971  10.657
71988W        W43604  24.473  39.674   4.291
71989W        W43605  22.664  10.317  11.742
71990W        W43606  22.591   7.752   0.530
71991W        W43607  16.643   1.859   4.452
71992W        W43608  16.386  27.781   0.421
71993W        W43609  25.010  35.930  13.407
71994W        W43610   3.339   6.264  10.738
71995W        W43611   2.772  16.498  12.488
71996W        W43612  43.880  23.908   3.699
71997W        W43613  25.421  16.569   5.131
71998W        W43614  30.721  12.267   4.568
71999W        W43615  10.900   8.906   4.187
72000W        W43616  22.197  26.888  14.663
72001W        W43617  38.572  30.626   3.105
72002W        W43618   2.260   8.300   4.627
72003W        W43619   7.610  31.703  10.316
72004W        W43620  23.031   7.871   1.023
72005W        W43621  17.078  26.198  10.563
72006W        W43622  20.159  26.760  12.163
72007W        W43623   6.793  32.508   4.711
72008W        W43624  37.422   9.734   0.880
72009W        W43625  38.452  10.568   2.769
72010W        W43626   5.709  43.360  13.390
72011W        W43627   6.942   1.320  12.560
72012W        W43628  19.730   2.294  13.714
72013W        W43629  44.301  26.261  11.035
72014W        W43630  20.750  28.635  13.030
72015W        W43631   9.750   2.242  10.982
72016W        W43632   2.514  11.629  13.866
72017W        W43633  24.762  19.251  13.815
72018W        W43634   5.211  24.475   3.884
72019W        W43635  37.328  14.843  14.417
72020W        W43636  21.194  44.071   2.758
72021W        W43637  26.983  21.162  12.516
72022W        W43638  35.049  10.170   3.843
72023W        W43639  32.644  24.129  11.447
72024W        W43640  43.890  41.627  11.095
72025W        W43641  26.476   4.879  13.911
72026W        W43642  23.040   6.004  14.232
72027W        W43643   1.771  38.064  14.774
72028W        W43644  26.005  16.266   0.232
72029W        W43645   0.301   9.305   1.786
72030W        W43646  40.077  36.071   3.739
72031W        W43647  44.838   5.190   2.378
72032W        W43648  28.239   9.151   2.251
72033W        W43649  13.249   6.290   3.585
72034W        W43650  15.213  41.577   3.728
72035W        W43651   9.255   2.101  12.545
72036W        W43652  31.994  23.735  12.395
72037W        W43653  33.948   9.736   3.883
72038W        W43654   8.022  18.058   4.079
72039W        W43655  18.703  36.743   1.492
72040W        W43656   5.292  36.866   0.554
72041W        W43657   2.290  24.050  11.618
72042W        W43658  23.837  38.569  12.524
72043W        W43659   0.273   4.372  13.369
72044W        W43660  32.426  44.600  10.132
72045W        W43661  21.497  40.537  10.321
72046W        W43662   3.738  44.608  14.417
72047W        W43663  37.562  30.790   2.445
72048W        W43664   5.473  18.219   1.834
72049W        W43665  41.073   0.477  12.746
72050W        W43666  26.610  17.665  14.117
72051W        W43667  23.996  16.002  14.866
72052W        W43668  28.672  18.601  13.930
72053W        W43669  40.456  23.650  13.492
72054W        W43670  12.903  36.711   2.986
72055W        W43671  28.885  27.921  14.839
72056W        W43672   6.779  18.504  10.701
72057W        W43673  28.684  35.547   1.431
72058W        W43674  19.517  13.509  10.742
72059W        W43675  13.195  35.627   1.354
72060W        W43676  35.262   1.028  13.887
72061W        W43677   9.701  37.848  11.527
72062W        W43678  34.177  25.488  13.970
72063W        W43679  31.421  30.119  10.550
72064W        W43680   5.842  36.305  13.310
72065W        W43681  15.545  25.693  13.711
72066W        W43682  32.763  31.138   3.686
72067W        W43683   3.196  35.661  14.491
72068W        W43684   7.362  32.564   1.986
72069W        W43685  36.351   6.249   3.816
72070W        W43686  24.705  10.487   2.366
72071W        W43687   2.341  11.947  11.141
72072W        W43688  33.649  24.075  13.981
72073W        W43689  27.109   6.952   4.735
72074W        W43690   8.090  20.230   2.655
72075W        W43691  14.126  35.685   2.283
72076W        W43692  22.993  23.494  12.478
72077W        W43693  30.032  14.795  12.013
72078W        W43694   5.120  17.029   0.248
72079W        W43695  31.979  19.683  11.620
72080W        W43696  13.790  34.344   1.277
72081W        W43697   4.913  17.561  14.887
72082W        W43698  15.247  42.852  11.667
72083W        W43699  30.520  30.145  11.975
72084W        W43700  42.303   9.305  10.934
72085W        W43701  41.969  34.992  11.178
72086W        W43702  24.774  38.858  14.040
72087W        W43703  28.474  14.247   4.226
72088W        W43704  40.971   2.546   1.013
72089W        W43705  42.851   7.830  14.010
72090W        W43706  41.518  20.578  14.055
72091W        W43707   0.411  37.410   2.570
72092W        W43708   0.463  14.167   4.128
72093W        W43709  24.540  32.044   3.224
72094W        W43710  10.128  12.199  12.066
72095W        W43711  39.093  34.616  14.526
72096W        W43712  17.481  19.056   1.408
72097W        W43713   3.336  29.220  12.824
72098W        W43714  13.028  44.508  13.816
72099W        W43715   9.953  35.288   1.777
72100W        W43716  18.237  20.726  11.521
72101W        W43717  26.775  22.833   9.776
72102W        W43718   0.531  25.907  10.547
72103W        W43719   0.471  28.560   1.358
72104W        W43720  43.347   0.742  11.626
72105W        W43721  38.519  35.092  12.097
72106W        W43722  37.011  43.130   1.438
72107W        W43723  16.772  26.178   1.899
72108W        W43724  10.390  33.977  13.056
72109W        W43725  27.243  43.424  13.018
72110W        W43726  14.870  25.527   2.129
72111W        W43727   8.803   8.244  14.945
72112W        W43728  38.966  10.054  13.035
72113W        W43729  42.076  32.498  14.438
72114W        W43730   6.733  38.631  11.241
72115W        W43731  41.708   1.882   1.199
72116W        W43732   3.672  31.838   1.838
72117W        W43733  38.324  16.015   0.052
72118W        W43734  11.157   3.356   3.702
72119W        W43735   2.268  29.594  13.891
72120W        W43736   3.542  44.469   2.071
72121W        W43737  42.489  24.777  14.386
72122W        W43738  24.553   1.375  14.304
72123W        W43739   3.264  13.670  13.971
72124W        W43740  36.762  31.500  14.863
72125W        W43741  14.355  32.952   4.486
72126W        W43742  34.346  23.696  13.346
72127W        W43743  32.578  21.262   4.813
72128W        W43744  30.881  28.524   2.236
72129W        W43745  23.256   8.695   1.621
72130W        W43746  21.699   4.221   1.653
72131W        W43747  28.180  19.325   4.951
72132W        W43748  25.648  43.305  10.619
72133W        W43749  14.322  16.314  14.567
72134W        W43750  34.531  20.273  12.305
72135W        W43751  35.086  26.784  11.961
72136W        W43752   6.658  41.352   0.608
72137W        W43753  24.619  14.225   1.349
72138W        W43754  15.093   5.389   4.585
72139W        W43755  25.454  21.477  14.034
72140W        W43756   6.972  38.455  14.479
72141W        W43757  34.216  36.437   1.758
72142W        W43758  29.620  35.306   0.123
72143W        W43759  39.511  38.014  13.136
72144W        W43760  34.923  16.667  12.076
72145W        W43761  44.012  24.141   1.235
72146W        W43762  33.146  39.079   4.855
72147W        W43763   1.239   6.786  12.542
72148W        W43764  37.274  22.679  13.436
72149W        W43765  41.506  23.318   2.784
72150W        W43766  27.721  16.306   3.610
72151W        W43767  12.465  28.600   3.795
72152W        W43768  38.538  10.377  13.166
72153W        W43769  25.994  26.960   4.834
72154W        W43770  10.337  29.953   1.823
72155W        W43771  36.749  12.565   1.206
72156W        W43772  41.302  21.688  13.418
72157W        W43773  40.979   9.332  11.541
72158W        W43774  19.246  17.679  11.673
72159W        W43775   8.418  11.424  12.006
72160W        W43776  17.986  39.943  11.189
72161W        W43777   1.298   2.459  13.294
72162W        W43778  27.188  11.081   4.617
72163W        W43779  13.411   1.965   3.636
72164W        W43780  12.306   1.397  14.501
72165W        W43781  38.442   9.911  13.927
72166W        W43782  10.913  24.762  14.086
72167W        W43783  33.388   2.330   0.846
72168W        W43784  42.219   7.005  13.822
72169W        W43785  43.408  13.886  12.543
72170W        W43786   5.689  17.268  14.489
72171W        W43787  36.931  22.215   3.925
72172W        W43788   8.719  16.939   1.703
72173W        W43789  21.048  18.727   0.374
72174W        W43790  44.733  11.267  10.638
72175W        W43791  29.676   3.253  14.932
72176W        W43792  43.587  11.648   2.855
72177W        W43793   2.486   0.087   3.680
72178W        W43794   7.749  34.452   1.839
72179W        W43795   5.793  10.833  14.529
72180W        W43796   1.723  17.095  12.939
72181W        W43797  38.820  11.080   5.322
72182W        W43798   9.392  38.620  12.503
72183W        W43799  26.412   4.869  10.958
72184W        W43800  33.653  18.542  13.887
72185W        W43801  22.343  35.138   0.475
72186W        W43802  38.052  21.049   3.594
72187W        W43803   2.924  30.688  13.340
72188W        W43804  44.719  15.470   4.351
72189W        W43805   0.722  32.148  12.939
72190W        W43806   8.223   7.218   4.811
72191W        W43807  24.055  23.660  12.617
72192W        W43808   7.493  11.135   4.599
72193W        W43809  36.816  39.511  11.570
72194W        W43810   6.624  28.574  11.031
72195W        W43811   9.980  27.381   3.127
72196W        W43812  14.118  41.925  13.295
72197W        W43813   4.914   7.461   3.841
72198W        W43814  20.581  39.803  13.350
72199W        W43815   5.487  40.965   1.424
72200W        W43816  19.151   6.255   3.790
72201W        W43817  20.242  35.071   2.931
72202W        W43818  32.377  24.270   3.475
72203W        W43819  10.807  19.685   4.684
72204W        W43820  10.685  24.830   3.649
72205W        W43821  33.791  34.780  11.544
72206W        W43822  30.904  39.541   0.899
72207W        W43823   2.276   2.207   3.648
72208W        W43824  12.566   6.664   2.710
72209W        W43825  40.497  35.260   1.320
72210W        W43826  36.054  31.016  11.164
72211W        W43827   6.188   1.374   3.618
72212W        W43828   6.544   6.315  12.969
72213W        W43829  38.339   2.272  11.496
72214W        W43830   1.758  18.554   3.307
72215W        W43831  36.050  20.400  11.572
72216W        W43832   2.512   5.997  12.537
72217W        W43833  30.657  20.020  11.594
72218W        W43834  36.763   0.006   4.556
72219W        W43835  29.567  19.332   4.885
72220W        W43836  33.342  25.599  10.895
72221W        W43837  15.641  42.294   2.207
72222W        W43838  39.089   0.751  14.342
72223W        W43839  13.599  25.695   1.478
72224W        W43840  22.723   5.287  14.847
72225W        W43841  11.609  37.584  10.015
72226W        W43842   3.303  41.765   2.207
72227W        W43843  38.318  32.421  13.149
72228W        W43844  24.645  16.841  12.344
72229W        W43845  14.226  44.036  12.229
72230W        W43846  38.082  11.750  10.495
72231W        W43847  18.688  17.039   4.087
72232W        W43848  18.300  10.217   2.667
72233W        W43849  35.605  32.455   3.843
72234W        W43850  34.407  22.772  14.803
72235W        W43851  35.091  12.531   0.219
72236W        W43852  11.084   2.367   4.034
72237W        W43853  28.625  16.731   1.941
72238W        W43854  22.989  27.103   1.889
72239W        W43855  11.648  28.426  11.565
72240W        W43856  32.624   3.500   4.273
72241W        W43857  28.030  16.867   1.136
72242W        W43858  13.987  11.305   0.536
72243W        W43859  12.787   6.223  13.575
72244W        W43860  11.830  31.437  10.665
72245W        W43861   4.978   4.765   3.217
72246W        W43862  16.136   9.678   3.664
72247W        W43863  36.594  20.426  12.392
72248W        W43864  23.613  21.619   0.275
72249W        W43865  10.490   1.272   2.219
72250W        W43866  21.073  15.231   2.310
72251W        W43867  24.230   0.445  11.578
72252W        W43868  23.480   2.729   4.593
72253W        W43869  14.067  30.562   1.570
72254W        W43870   9.757  31.478   5.041
72255W        W43871  30.725   0.053  10.044
72256W        W43872  29.191  12.158   2.847
72257W        W43873  37.438  38.573  13.863
72258W        W43874   7.328  31.832   4.819
72259W        W43875  14.723   6.196   2.436
72260W        W43876  36.507   9.885   0.901
72261W        W43877   8.428  32.317   2.056
72262W        W43878  30.629  22.855  14.655
72263W        W43879  37.082  21.882   1.894
72264W        W43880  11.072  37.126   4.471
72265W        W43881  24.078  42.265   2.176
72266W        W43882  12.003  25.611  10.464
72267W        W43883  32.648  31.145   2.211
72268W        W43884  32.002  28.667   0.496
72269W        W43885  31.178  23.609  12.047
72270W        W43886  36.121  10.181  13.436
72271W        W43887  32.402  13.643  14.778
72272W        W43888   6.669   3.978  10.753
72273W        W43889  35.620  42.263  12.720
72274W        W43890  32.112   6.705  12.490
72275W        W43891   4.896  19.291   2.724
72276W        W43892  34.873  37.476  11.996
72277W        W43893  21.727  20.677   1.746
72278W        W43894  33.927  26.714   2.337
72279W        W43895  19.058  21.592  14.810
72280W        W43896  12.276  29.648   0.979
72281W        W43897  33.818   1.147   3.528
72282W        W43898  33.990  27.413   0.283
72283W        W43899  42.521  22.702   1.944
72284W        W43900   7.401  15.532   0.686
72285W        W43901  36.608   1.434   3.646
72286W        W43902  12.136  43.031  10.659
72287W        W43903   7.842  10.120   4.576
72288W        W43904  38.625  43.727   3.196
72289W        W43905  30.530  17.308   1.278
72290W        W43906  10.798  25.079  10.680
72291W        W43907  30.541  19.251  14.564
72292W        W43908  14.680   8.846  12.477
72293W        W43909  16.171  39.079   0.442
72294W        W43910  35.364  28.597  14.398
72295W        W43911   5.999   3.551   5.028
72296W        W43912  13.395  33.701  12.186
72297W        W43913   7.102  21.637   2.710
72298W        W43914  33.924  10.820   3.184
72299W        W43915  38.763   4.766  13.009
72300W        W43916  20.749  44.470   1.401
72301W        W43917  11.204   7.130   2.228
72302W        W43918  10.417  37.356  14.682
72303W        W43919  28.352  41.905   0.010
72304W        W43920  44.684  16.852   2.374
72305W        W43921  25.747   4.837  14.758
72306W        W43922  17.590   2.357   2.017
72307W        W43923  13.064   0.337  13.144
72308W        W43924  41.255  29.102  14.937
72309W        W43925  26.160  25.223   3.173
72310W        W43926  21.801  27.990  14.161
72311W        W43927  16.308  26.188   1.061
72312W        W43928  12.838  16.789  14.879
72313W        W43929  35.188   7.221  11.061
72314W        W43930   7.710  30.676  13.939
72315W        W43931  32.190  38.045   0.262
72316W        W43932   3.740   2.683  13.391
72317W        W43933   2.432  17.993  14.349
72318W        W43934  31.420  15.870   4.198
72319W        W43935  29.673   0.854  12.415
72320W        W43936   7.982  42.466  12.056
72321W        W43937   6.979  12.798  10.541
72322W        W43938   3.505  24.035   4.231
72323W        W43939   8.810  40.856   3.186
72324W        W43940  28.454  17.377   3.762
72325W        W43941  35.507  44.542   0.026
72326W        W43942  23.762  39.527  14.415
72327W        W43943  29.846  35.915   1.951
72328W        W43944  44.966  27.158   0.345
72329W        W43945  14.917  44.940  14.416
72330W        W43946  34.393  18.770   3.714
72331W        W43947  19.335  33.982   3.152
72332W        W43948  22.003  38.599   1.901
72333W        W43949  30.196  14.782  14.896
72334W        W43950  23.671  41.706  11.849
72335W        W43951  40.996  20.503   2.834
72336W        W43952  40.091  37.072  11.926
72337W        W43953  39.356  36.396  13.838
72338W        W43954  19.567   0.993   3.689
72339W        W43955  22.665   8.348   1.402
72340W        W43956  21.027   0.017  12.123
72341W        W43957  20.004  36.091   3.368
72342W        W43958   0.878   7.168  13.340
72343W        W43959  13.366  10.832   1.861
72344W        W43960  11.370  40.861  11.170
72345W        W43961  42.078  35.244   1.415
72346W        W43962   9.336  11.623   2.362
72347W        W43963  32.579  43.585  13.473
72348W        W43964  33.545  22.510  12.872
72349W        W43965   8.415  34.031   1.361
72350W        W43966  34.803  32.881  11.072
72351W        W43967   3.223   9.136   3.190
72352W        W43968  33.813  44.269  11.148
72353W        W43969  34.638  22.635   5.143
72354W        W43970   3.937  30.037  11.570
72355W        W43971   3.560  42.752   4.240
72356W        W43972  18.238  14.827   1.409
72357W        W43973  40.761  12.868  14.855
72358W        W43974  44.043  42.331   1.555
72359W        W43975  24.438   0.415  13.429
72360W        W43976   0.818  38.752  10.658
72361W        W43977  26.275  34.213  11.657
72362W        W43978  18.592   3.392   1.013
72363W        W43979   1.954  12.792  12.002
72364W        W43980  27.484  20.584   4.641
72365W        W43981  21.279   1.031  11.017
72366W        W43982  17.518  38.612   0.422
72367W        W43983   7.444   2.461   1.306
72368W        W43984  17.576  39.922   1.702
72369W        W43985  19.819  39.350  10.376
72370W        W43986  41.376  20.035   3.387
72371W        W43987  31.920  10.691   3.213
72372W        W43988  42.953   3.844   0.322
72373W        W43989  12.708  22.057   1.589
72374W        W43990  44.487  27.717   4.203
72375W        W43991   5.391   2.727  12.622
72376W        W43992  24.254  30.624  11.264
72377W        W43993  24.912  40.490  12.406
72378W        W43994  27.882  14.286   2.255
72379W        W43995   0.933  28.908  12.879
72380W        W43996   2.626  21.209  14.096
72381W        W43997   2.737   1.823  10.997
72382W        W43998  11.299   8.264   3.703
72383W        W43999  24.021  35.038  10.603
72384W        W44000  44.566   3.861   0.680
72385W        W44001   9.392  13.915   1.593
72386W        W44002  14.577  37.390  12.592
72387W        W44003  32.474   8.333   4.479
72388W        W44004  33.742  37.030   2.197
72389W        W44005   7.671  40.033  14.014
72390W        W44006  36.632   4.172  12.888
72391W        W44007   3.816   3.808   4.539
72392W        W44008  14.138  33.559   4.581
72393W        W44009  42.795  14.961   1.844
72394W        W44010   2.288  30.836   2.345
72395W        W44011  28.163  38.489  10.913
72396W        W44012  26.597   6.191   4.827
72397W        W44013  26.583  29.168  11.080
72398W        W44014  28.969  42.973   0.349
72399W        W44015  17.367   0.900   2.793
72400W        W44016  33.638  15.755   2.284
72401W        W44017  20.269  33.200   2.487
72402W        W44018  41.728  34.877   4.545
72403W        W44019  23.307   6.425  10.656
72404W        W44020  13.220  18.595  12.774
72405W        W44021  41.002  40.349   3.826
72406W        W44022  43.549  35.018  14.454
72407W        W44023  29.471  24.733  11.548
72408W        W44024  16.008  32.379   4.821
72409W        W44025  29.033  27.978  11.604
72410W        W44026  12.940  21.224  11.894
72411W        W44027  34.843  40.086  13.420
72412W        W44028  33.106  22.784   3.783
72413W        W44029  24.917   0.185  14.846
72414W        W44030  35.117   3.842   1.374
72415W        W44031  35.806  35.182  12.630
72416W        W44032  33.357  41.350   3.788
72417W        W44033  35.322  10.337  12.979
72418W        W44034  42.979   9.383  10.801
72419W        W44035   6.933  20.753  11.972
72420W        W44036  17.544  41.448  14.400
72421W        W44037  20.918  31.009   3.113
72422W        W44038  18.129  13.373   1.499
72423W        W44039   3.994  19.264   3.095
72424W        W44040  19.345  13.191   2.178
72425W        W44041  10.291  24.274  13.408
72426W        W44042   4.819  36.604   3.536
72427W        W44043  33.323  23.139   0.395
72428W        W44044   2.984   5.710  13.812
72429W        W44045   6.690  28.823  12.764
72430W        W44046  29.787  25.738   2.871
72431W        W44047   4.045   4.700   1.840
72432W        W44048  42.447  40.795   2.760
72433W        W44049  26.343   3.342   0.435
72434W        W44050   8.471  30.493  13.573
72435W        W44051  42.830  15.231  14.034
72436W        W44052  36.663   7.638  12.015
72437W        W44053  18.301  22.295  14.766
72438W        W44054  34.456  16.638   0.246
72439W        W44055  29.650  20.575   1.835
72440W        W44056   7.934  29.612   0.988
72441W        W44057   8.237  30.990  11.178
72442W        W44058  32.314  21.686  10.550
72443W        W44059  43.699  42.267   1.925
72444W        W44060  27.872  38.452  11.872
72445W        W44061  42.491  27.874  12.010
72446W        W44062   1.258  23.499  14.092
72447W        W44063  35.477  18.550  14.064
72448W        W44064  25.932  28.068   3.309
72449W        W44065  16.793   1.487  12.233
72450W        W44066   7.112  28.383   0.136
72451W        W44067  30.384  20.342   1.060
72452W        W44068  13.070  37.661   5.035
72453W        W44069  16.728  26.980  14.516
72454W        W44070  17.773   1.234  14.325
72455W        W44071  40.379  43.869   4.312
72456W        W44072  13.644  20.188   3.772
72457W        W44073  18.560  27.534   2.416
72458W        W44074  44.446  25.799   2.827
72459W        W44075  21.955  27.057  11.869
72460W        W44076  43.060  22.445   4.981
72461W        W44077  29.707  43.324  11.975
72462W        W44078  35.674  35.974   1.476
72463W        W44079  14.278  31.499  10.812
72464W        W44080  35.294   0.258  12.788
72465W        W44081  34.323  21.240   1.800
72466W        W44082  28.192   7.859  14.902
72467W        W44083  18.134   7.858   3.364
72468W        W44084   0.756  29.159   4.143
72469W        W44085  33.569  34.779  12.955
72470W        W44086  24.069  42.398   2.697
72471W        W44087   7.675   0.457  11.955
72472W        W44088  28.585  41.281   1.465
72473W        W44089  13.063  26.900   0.899
72474W        W44090   8.922  32.022  11.472
72475W        W44091   9.106  44.385   0.301
72476W        W44092  27.142  36.320   0.885
72477W        W44093  36.001   1.566   4.067
72478W        W44094  42.008  15.117  13.214
72479W        W44095  14.173  24.345  14.527
72480W        W44096   0.198  22.149   2.894
72481W        W44097  17.764   8.859  14.517
72482W        W44098  16.257  21.187   0.403
72483W        W44099  15.158  19.786   9.999
72484W        W44100  26.756  22.355  12.952
72485W        W44101  31.493  37.623  14.744
72486W        W44102   7.621  18.016   2.126
72487W        W44103  25.394  11.742   0.779
72488W        W44104  25.169  32.931   0.248
72489W        W44105  19.298  41.632   0.926
72490W        W44106  23.296   3.057  10.427
72491W        W44107  12.068   8.386  13.857
72492W        W44108  41.810  13.737   3.414
72493W        W44109  41.902  15.179   1.684
72494W        W44110   2.733  21.140  13.583
72495W        W44111   1.456  25.610  10.890
72496W        W44112  23.114  28.532   2.639
72497W        W44113  44.740  37.665   2.939
72498W        W44114  12.601  44.310   0.082
72499W        W44115  14.146  21.937  12.050
72500W        W44116  31.693  30.546  10.507
72501W        W44117   6.614  33.510  13.057
72502W        W44118   7.858  18.501   3.305
72503W        W44119  14.740   8.621   2.264
72504W        W44120  18.143  15.133  11.014
72505W        W44121  36.409  13.275  14.329
72506W        W44122  44.487  36.416   1.812
72507W        W44123  34.492  10.626  10.934
72508W        W44124  24.658  30.190  14.108
72509W        W44125  26.691  36.557   0.353
72510W        W44126  38.138   7.791   2.261
72511W        W44127  43.503  32.417   4.150
72512W        W44128   8.323  22.889   2.446
72513W        W44129   9.107   0.010   2.235
72514W        W44130  29.174  16.831   3.340
72515W        W44131  22.016  25.095   2.602
72516W        W44132   4.132  34.010   2.263
72517W        W44133  43.725  20.252  11.346
72518W        W44134   7.147  30.559   2.630
72519W        W44135  35.006  30.061   2.344
72520W        W44136  37.451   8.892   1.990
72521W        W44137  21.959  11.864   0.392
72522W        W44138  33.036   7.477   0.003
72523W        W44139  36.976   3.373  14.182
72524W        W44140  20.363  11.197   3.615
72525W        W44141  25.183  13.231   2.333
72526W        W44142  10.196  25.555  11.242
72527W        W44143   1.486   4.442  14.201
72528W        W44144   5.391   8.786  12.569
72529W        W44145  31.179  34.590  10.703
72530W        W44146  13.206  37.595  10.617
72531W        W44147  36.394   7.625   2.861
72532W        W44148   7.729   7.808   1.542
72533W        W44149  19.734  13.280  12.864
72534W        W44150  29.032  39.531  14.677
72535W        W44151  40.043  23.441  13.772
72536W        W44152  20.093  29.160   2.263
72537W        W44153  36.154  36.586  13.005
72538W        W44154  25.270  19.196  13.889
72539W        W44155  32.191  31.488   0.034
72540W        W44156  43.823  19.783  12.663
72541W        W44157  15.598  15.569  13.062
72542W        W44158  10.562  10.433   3.548
72543W        W44159  11.657  26.419   4.233
72544W        W44160  40.846  38.643   3.753
72545W        W44161  14.079  36.826  11.628
72546W        W44162  23.047  18.714  12.572
72547W        W44163  19.163  15.779  10.669
72548W        W44164  34.612  33.903  11.026
72549W        W44165   9.386   5.124  12.865
72550W        W44166  37.050  18.213  11.867
72551W        W44167   8.385  10.169   2.743
72552W        W44168  41.978  30.678   1.760
72553W        W44169   1.902   4.692   3.857
72554W        W44170   1.430  17.695   3.768
72555W        W44171  20.533  30.736  11.654
72556W        W44172  24.243   5.922  14.479
72557W        W44173  19.574  31.539   0.325
72558W        W44174   9.685   6.612   4.394
72559W        W44175  29.685   9.247   1.161
72560W        W44176  27.696  11.222  11.026
72561W        W44177  13.198  36.948  14.018
72562W        W44178  29.028  11.211   3.876
72563W        W44179  19.726  20.218   2.788
72564W        W44180  42.263  44.464   2.426
72565W        W44181   8.912  14.584   2.239
72566W        W44182  41.726   4.460   4.065
72567W        W44183   7.414  22.257   0.719
72568W        W44184  43.409   5.876  13.324
72569W        W44185  38.933  23.048   1.184
72570W        W44186   7.453  43.371  13.876
72571W        W44187  35.917  41.707  10.757
72572W        W44188  15.652  34.130   2.263
72573W        W44189  29.894   8.623  13.047
72574W        W44190  28.509  34.397  14.767
72575W        W44191  14.933  20.025   4.154
72576W        W44192  32.859  12.548   4.121
72577W        W44193  21.744  33.669   0.378
72578W        W44194  37.831  43.077  14.197
72579W        W44195  41.903   9.181  11.265
72580W        W44196  13.707  27.725   1.335
72581W        W44197  43.016  26.691  10.514
72582W        W44198   1.333  30.721   1.880
72583W        W44199  13.348  26.607  10.691
72584W        W44200  10.195  15.164  14.005
72585W        W44201  26.095   8.226   0.308
72586W        W44202  44.053  19.708   4.640
72587W        W44203   9.098  11.813   2.792
72588W        W44204   9.629   6.205  10.370
72589W        W44205  38.959  15.972   9.689
72590W        W44206  13.065  32.186   1.100
72591W        W44207  41.482   3.940  13.443
72592W        W44208  31.007  20.680  12.994
72593W        W44209  31.232  20.235  14.210
72594W        W44210  25.559  40.709  13.351
72595W        W44211   2.190   2.360  13.005
72596W        W44212  14.380   8.412  13.434
72597W        W44213  31.897   3.711  11.143
72598W        W44214  10.595  36.033  11.967
72599W        W44215  29.783   1.175   4.510
72600W        W44216  36.191   5.901  12.132
72601W        W44217   5.339  41.816   2.388
72602W        W44218  26.936  30.945   5.079
72603W        W44219  41.071   3.424  12.405
72604W        W44220   3.486  11.642  11.024
72605W        W44221  29.496  16.852  13.617
72606W        W44222  37.036  41.490   2.570
72607W        W44223  41.784  34.130  12.875
72608W        W44224  35.033  43.926  11.906
72609W        W44225  10.787   5.195   0.859
72610W        W44226  39.049  20.939   1.367
72611W        W44227  18.788  36.202  11.965
72612W        W44228  34.890  29.406   1.921
72613W        W44229   9.388  29.114   1.716
72614W        W44230  23.539  37.449   0.757
72615W        W44231   3.303  31.020  10.704
72616W        W44232   6.786  19.823  11.004
72617W        W44233  17.176  32.960  10.664
72618W        W44234  19.574  36.414  14.916
72619W        W44235  43.326  21.230   4.099
72620W        W44236  27.104  33.038  13.234
72621W        W44237  42.364  38.755   3.180
72622W        W44238  24.211  38.622   1.409
72623W        W44239  43.955   1.385   5.064
72624W        W44240  17.814  24.997  11.907
72625W        W44241   5.809   6.002   0.301
72626W        W44242  33.353  35.027   2.699
72627W        W44243  44.163  40.096  13.329
72628W        W44244   9.574  16.591  12.056
72629W        W44245  16.545   0.785  11.013
72630W        W44246  25.262  25.985   2.715
72631W        W44247  24.089  10.656  12.792
72632W        W44248  25.661  15.586  10.167
72633W        W44249  16.303   1.401  11.660
72634W        W44250   4.144  30.027  11.105
72635W        W44251  33.549   5.635  12.213
72636W        W44252   5.826  17.741   2.587
72637W        W44253   6.058  35.183   2.814
72638W        W44254  23.233   0.399  11.510
72639W        W44255  23.006  43.371  11.919
72640W        W44256  12.684  31.910  11.646
72641W        W44257  38.075  30.571  14.986
72642W        W44258  24.756  40.874  10.789
72643W        W44259  41.866   1.178  13.439
72644W        W44260  25.687   2.952   3.335
72645W        W44261  36.419  32.371   2.751
72646W        W44262  38.452  29.019  12.339
72647W        W44263  10.371  14.379   0.382
72648W        W44264  37.855  37.418  13.092
72649W        W44265  30.691  13.193   3.472
72650W        W44266  30.248  38.810  14.528
72651W        W44267  27.574   1.959   4.904
72652W        W44268  28.940  42.879   4.072
72653W        W44269  24.043  37.774   3.667
72654W        W44270  20.271  20.992   1.849
72655W        W44271  10.507  34.909   2.917
72656W        W44272  18.721   8.330  11.470
72657W        W44273  44.908  29.262  11.408
72658W        W44274  23.720  34.065   3.656
72659W        W44275  23.618  24.204   4.766
72660W        W44276  12.236   6.798  11.864
72661W        W44277  13.670  10.457  11.189
72662W        W44278   6.403   8.619  11.375
72663W        W44279  42.787  32.822  11.515
72664W        W44280   7.884  37.065  11.995
72665W        W44281   7.470  13.550  11.028
72666W        W44282  22.175   5.738   0.342
72667W        W44283  27.079  20.538  11.657
72668W        W44284   3.245  21.997  13.368
72669W        W44285   6.336   9.269  14.438
72670W        W44286  13.371  32.789   2.818
72671W        W44287  24.222   8.131  12.143
72672W        W44288  27.968  35.170  11.333
72673W        W44289  22.089  26.078  12.531
72674W        W44290  15.259  39.337   1.941
72675W        W44291  14.172  25.193   4.975
72676W        W44292   8.847  21.219   2.378
72677W        W44293   6.239  13.614   4.616
72678W        W44294  31.147   0.195  14.413
72679W        W44295  34.392  11.667  12.663
72680W        W44296   9.909   2.990   1.495
72681W        W44297  37.073  33.696  11.008
72682W        W44298   3.356   0.113  14.879
72683W        W44299  32.017  35.015  14.728
72684W        W44300  14.545   3.265   1.712
72685W        W44301  32.636   3.871  10.639
72686W        W44302  20.597  40.146   1.337
72687W        W44303   6.206  11.745  12.868
72688W        W44304  36.215   3.684   4.304
72689W        W44305   8.200   8.711   2.855
72690W        W44306   3.928  28.466  13.851
72691W        W44307   2.728  28.104   0.254
72692W        W44308  41.271   9.817   4.287
72693W        W44309  24.599  33.083   0.383
72694W        W44310  31.754  18.010   3.135
72695W        W44311  26.175  31.449   1.984
72696W        W44312  35.933  19.392  14.498
72697W        W44313  15.597  10.309  14.350
72698W        W44314   0.873  16.236   1.064
72699W        W44315  44.840  35.959   5.209
72700W        W44316  29.504  30.398  11.546
72701W        W44317  22.692   2.511  15.000
72702W        W44318  44.830  19.593   4.108
72703W        W44319  19.815  10.274  13.307
72704W        W44320  27.118  38.593  13.891
72705W        W44321  31.769  21.492   4.978
72706W        W44322  36.444   4.689  14.998
72707W        W44323  15.366  19.907  14.815
72708W        W44324  29.657  15.871   4.619
72709W        W44325  32.570  22.098   1.102
72710W        W44326  23.675   0.504   4.015
72711W        W44327  17.755  26.895  14.807
72712W        W44328   1.323  42.562  14.759
72713W        W44329  12.640  44.777   0.349
72714ION    NA+44330  11.239  20.803  14.444
72715ION    NA+44331  21.255  27.849   4.483
72716ION    NA+44332   6.311  18.148  13.341
72717ION    NA+44333  18.639  34.470  13.495
72718ION    NA+44334  14.342  44.944  13.360
72719ION    NA+44335  43.392  19.281   2.463
72720ION    NA+44336  16.244  41.492  13.115
72721ION    NA+44337  39.673  20.642  10.753
72722ION    NA+44338   7.518  12.220  11.192
72723ION    NA+44339  15.565  31.134  14.352
72724ION    NA+44340  19.771  34.810  11.580
72725ION    NA+44341   2.909  17.677  11.075
72726ION    NA+44342  14.674  20.024   0.302
72727ION    NA+44343   5.433  41.125   3.260
72728ION    NA+44344  39.627  12.759  11.975
72729ION    NA+44345  14.857  35.944   1.599
72730ION    NA+44346   9.617  29.679   0.379
72731ION    NA+44347  39.614  33.640  12.818
72732ION    NA+44348   2.437  35.278   0.880
72733ION    NA+44349  11.915  11.793   1.199
72734ION    NA+44350   6.243   4.741   4.980
72735ION    NA+44351  24.787  36.182  13.849
72736ION    NA+44352  42.518  40.052  14.171
72737ION    NA+44353  33.916  34.980  13.365
72738ION    NA+44354  22.585   3.191  12.666
72739ION    NA+44355   4.368  17.710  13.881
72740ION    NA+44356  35.592  15.772  12.969
72741ION    NA+44357  27.118   7.243   2.670
72742ION    NA+44358  26.378  36.393  14.947
72743ION    NA+44359  26.485  22.526   0.327
72744ION    NA+44360  33.815   6.323  11.761
72745ION    NA+44361  26.563  33.003  14.582
72746ION    NA+44362   6.361  11.456  10.686
72747ION    NA+44363  27.129  31.413  14.784
72748ION    NA+44364  30.940   8.656  13.336
72749ION    NA+44365  22.544  21.444  10.597
72750ION    NA+44366  34.693  44.120  12.567
72751ION    NA+44367  25.538  13.212   4.141
72752ION    NA+44368  36.311  18.824  11.150
72753ION    NA+44369  15.977   8.107  11.540
72754ION    NA+44370  13.840  37.774  12.981
72755ION    NA+44371   1.876   9.733   4.120
72756ION    NA+44372   6.254  26.669  13.705
72757ION    NA+44373  26.417  27.776  10.861
72758ION    NA+44374  13.825  26.421  11.519
72759ION    NA+44375  21.928  36.111  10.681
72760ION    NA+44376  39.403   8.587  14.992
72761ION    NA+44377  36.481  28.201  13.563
72762ION    NA+44378  23.634  34.829   4.104
72763ION    NA+44379  18.295   3.166   4.217
72764ION    NA+44380   7.338  31.944  10.710
72765ION    NA+44381  10.973  38.917  13.851
72766ION    NA+44382  18.990  20.015  14.490
72767ION    NA+44383  35.074   7.700  13.294
72768ION    NA+44384   9.816   5.847   3.024
72769ION    NA+44385  38.415   8.398  12.454
72770ION    NA+44386  43.758   1.720   1.995
72771ION    NA+44387  20.489  14.388   0.517
72772ION    NA+44388   9.953   2.289  11.441
72773ION    NA+44389  40.141  30.925  14.226
72774ION    NA+44390  23.286  40.221  13.004
72775ION    NA+44391  40.475  38.044  11.592
72776ION    NA+44392  37.829  38.543  13.042
72777ION    NA+44393  18.263  32.677   1.758
72778ION    NA+44394  27.382  42.551   0.954
72779ION    NA+44395  28.467  25.632  10.314
72780ION    NA+44396  10.365  29.599  13.195
72781ION    NA+44397  21.518  35.034  11.247
72782ION    NA+44398  41.236  36.391   3.328
72783ION    NA+44399  21.359  25.745   2.331
72784ION    NA+44400  20.915  39.587   0.699
72785ION    NA+44401   7.241  13.672  13.188
72786ION    NA+44402   5.792  13.845  10.539
72787ION    NA+44403  30.296  40.497   3.378
72788ION    NA+44404  30.905  44.510   2.620
72789ION    NA+44405  26.190  12.567   1.862
72790ION    NA+44406  15.444  26.633   4.600
72791ION    NA+44407   1.726  16.867  14.373
72792ION    NA+44408  17.270  12.566   4.159
72793ION    NA+44409  33.082   4.664  12.171
72794ION    NA+44410  28.582  13.909  12.097
72795ION    NA+44411  42.082  38.324   2.825
72796ION    NA+44412  44.300  18.736   3.176
72797ION    NA+44413  26.052  25.707  14.919
72798ION    NA+44414   2.752   7.446   1.868
72799ION    NA+44415  28.012  31.679  12.599
72800ION    NA+44416  23.925  18.986  11.769
72801ION    NA+44417  38.615  35.487   3.145
72802ION    NA+44418  43.879  29.532  14.228
72803ION    NA+44419  35.854   4.962  10.909
72804ION    NA+44420  43.759  35.132   5.465
72805ION    NA+44421   0.188   5.393  13.307
72806ION    NA+44422  28.289   4.322  10.765
72807ION    NA+44423  32.749  43.710   2.513
72808ION    NA+44424  40.065  15.091   2.189
72809ION    NA+44425  15.153  33.339  14.954
72810ION    NA+44426  11.227  16.395  14.761
72811ION    NA+44427  29.443  29.957  10.917
72812ION    NA+44428  39.073   5.301   1.226
72813ION    NA+44429  10.580   7.717   3.876
72814ION    NA+44430  34.045  16.453   3.865
72815ION    NA+44431  30.053  31.934   3.338
72816ION    NA+44432   2.988  25.482   0.323
72817ION    NA+44433  28.395  10.239  11.675
72818ION    NA+44434  35.835  21.862  14.650
72819ION    NA+44435  43.422   0.427   0.655
72820ION    NA+44436  38.427  22.578  12.754
72821ION    NA+44437  19.645  42.728  10.195
72822ION    NA+44438  40.278  19.383   2.318
72823ION    NA+44439  42.252  25.644   2.193
72824ION    NA+44440  42.155  24.419  13.616
72825ION    NA+44441  36.755  38.759   0.080
72826ION    NA+44442   4.658  23.077  11.439
72827ION    NA+44443  32.025  23.341   3.263
72828ION    NA+44444  28.093   1.320  13.786
72829ION    NA+44445   1.045  22.304   5.324
72830ION    NA+44446  18.658   2.964   2.788
72831ION    NA+44447  43.161   2.214   1.442
72832ION    NA+44448  22.407  44.684   0.129
72833ION    NA+44449  43.850   2.702   1.978
72834ION    NA+44450  14.426  41.651   2.569
72835ION    NA+44451   0.254   1.157   4.765
72836ION    NA+44452  44.772  40.406  12.140
72837ION    NA+44453   0.837   4.295  12.563
72838ION    NA+44454  27.880  23.427   0.677
72839ION    NA+44455  18.589   2.004  11.137
72840ION    NA+44456  39.145  24.561   0.973
72841ION    NA+44457  32.768  10.066  10.879
72842ION    NA+44458  19.506  32.639  12.980
72843ION    NA+44459  32.510   1.647   2.053
72844ION    NA+44460  17.562   4.447  12.932
72845ION    NA+44461   2.033  34.376   1.031
72846ION    NA+44462  39.635  40.572   2.838
72847ION    NA+44463  18.267  39.488  11.243
72848ION    NA+44464   3.319  14.083  13.010
72849ION    NA+44465  22.871  28.261   4.106
72850ION    NA+44466  28.923  14.887  12.880
72851ION    NA+44467  26.607  15.757  11.048
72852ION    NA+44468  23.792  40.445   2.257
72853ION    NA+44469  39.371  28.136  14.481
72854ION    NA+44470  16.957   3.122   1.177
72855ION    NA+44471  39.109   0.561   0.580
72856ION    NA+44472  19.271  11.083  14.433
72857ION    NA+44473  13.365  20.285   4.183
72858ION    NA+44474   1.428  14.378  13.486
72859ION    NA+44475  36.452  40.823  12.091
72860ION    NA+44476  33.085  36.582   3.415
72861ION    NA+44477   1.523  33.702   0.692
72862ION    NA+44478  27.708  19.354   3.702
72863ION    NA+44479  16.643  28.137   3.721
72864ION    NA+44480  36.792  23.258  11.961
72865ION    NA+44481  13.917  27.663  12.311
72866ION    NA+44482  12.479  20.520  11.171
72867ION    NA+44483   6.008  41.109   2.113
72868ION    NA+44484   6.816  39.332  14.307
72869ION    NA+44485   5.901  36.992   1.216
72870ION    NA+44486   2.116  44.558   1.087
72871ION    NA+44487  30.535  26.633   1.243
72872ION    NA+44488  14.551   5.739  14.438
72873ION    NA+44489  24.347   6.717  14.373
72874ION    NA+44490  26.999  28.263   1.413
72875ION    NA+44491  23.962   2.661   0.247
72876ION    NA+44492  44.935  13.677   2.556
72877ION    NA+44493   9.512  32.671  11.512
72878ION    NA+44494  22.507  41.302  11.959
72879ION    NA+44495  13.766   3.641  11.280
72880ION    NA+44496  28.754  28.557   0.854
72881ION    NA+44497  21.526   2.886   3.037
72882ION    NA+44498  39.826  35.091  12.091
72883ION    NA+44499  31.695  39.386   1.880
72884ION    NA+44500  42.091  28.586  11.779
72885ION    NA+44501  21.991  22.175   4.574
72886ION    NA+44502  29.888  15.846   9.720
72887ION    NA+44503  44.072   7.428  11.335
72888ION    NA+44504  26.882  26.271  13.444
72889ION    NA+44505  10.933  11.600   1.373
72890ION    NA+44506  24.083  29.026  10.767
72891ION    NA+44507  19.814  28.674  13.186
72892ION    NA+44508  37.734  35.597   3.606
72893ION    NA+44509  13.249  33.808   3.036
72894ION    NA+44510   2.213   4.621   9.649
72895ION    NA+44511  21.602   5.382  14.293
72896ION    NA+44512  38.406  26.614  12.821
72897ION    NA+44513  41.495  34.311   2.408
72898ION    NA+44514   0.747  18.789  13.019
72899ION    NA+44515  44.619  44.129  10.961
72900ION    NA+44516  43.949  25.482  12.715
72901ION    NA+44517   3.201  21.097  12.646
72902ION    NA+44518   4.646   2.837   1.708
72903ION    NA+44519  42.221   8.436   0.026
72904ION    NA+44520  39.289  44.546   3.801
72905ION    NA+44521  37.588  22.234   0.409
72906ION    NA+44522  24.753  42.753   4.076
72907ION    NA+44523  34.174  11.459  13.627
72908ION    NA+44524  11.415  31.996   0.304
72909ION    NA+44525  16.430   5.866   4.717
72910ION    NA+44526   8.892  24.265  14.532
72911ION    NA+44527   1.867  16.579  12.547
72912ION    NA+44528  11.349  13.134  13.863
72913ION    NA+44529  19.077  36.077  10.737
72914ION    NA+44530  17.516   6.048   4.019
72915ION    NA+44531  34.884  13.892  11.520
72916ION    NA+44532  22.769   8.960  11.692
72917ION    NA+44533  41.788  12.774   1.290
72918ION    NA+44534  34.263   1.390  13.687
72919ION    NA+44535  25.554   7.388  10.916
72920ION    NA+44536  41.012   1.470   1.701
72921ION    NA+44537  29.491  37.871   3.054
72922ION    NA+44538  13.318  27.757  13.106
72923ION    NA+44539  37.184  40.570   2.549
72924ION    NA+44540  18.285  35.482   3.200
72925ION    NA+44541  35.164  38.203   0.607
72926ION    NA+44542  12.111  44.692  13.090
72927ION    NA+44543  17.923  37.305  11.159
72928ION    NA+44544  28.556   7.199  14.316
72929ION    NA+44545  20.763   5.312  10.640
72930ION    NA+44546  36.228  14.585  13.704
72931ION    NA+44547  11.110  39.356   0.976
72932ION    NA+44548   5.115   0.930   0.209
72933ION    NA+44549  10.045  42.818  14.896
72934ION    NA+44550  37.490  28.153  14.362
72935ION    NA+44551  24.085  24.995  14.467
72936ION    NA+44552   3.364  24.438  11.062
72937ION    NA+44553  21.691  17.292   2.819
72938ION    NA+44554  41.387  41.054   3.971
72939ION    NA+44555  26.525  42.940  13.036
72940ION    NA+44556  16.675  36.184   1.762
72941ION    NA+44557  35.519   4.693   4.306
72942ION    NA+44558  32.559  33.891   0.104
72943ION    NA+44559  18.823  12.768  13.352
72944ION    NA+44560   0.376  38.819   0.352
72945ION    NA+44561  35.907  10.594   9.936
72946ION    NA+44562  12.323  14.031   1.928
72947ION    NA+44563   7.036  23.177   4.145
72948ION    NA+44564   4.610   0.225   0.305
72949ION    NA+44565  27.739   0.389  11.847
72950ION    NA+44566  37.462   8.668  11.712
72951ION    NA+44567  13.697   3.973  13.372
72952ION    NA+44568  22.410  39.333  14.599
72953ION    NA+44569   9.600  20.252  13.479
72954ION    NA+44570  12.141  10.292  13.965
72955ION    NA+44571  15.590   3.322   4.939
72956ION    NA+44572   5.095   8.383   3.711
72957ION    NA+44573  31.549   5.901   4.850
72958ION    NA+44574  22.448  21.194  12.402
72959ION    NA+44575  25.482  18.662   3.020
72960ION    NA+44576  28.033   3.177  13.316
72961ION    NA+44577  28.548  25.893   1.585
72962ION    NA+44578   6.610  21.447  12.396
72963ION    NA+44579  21.565  12.623   3.675
72964ION    NA+44580  33.508  43.148  11.399
72965ION    NA+44581  43.837  24.222  13.864
72966ION    NA+44582  18.888  28.243  14.840
72967ION    NA+44583   4.273  21.093  12.585
72968ION    NA+44584  38.505   8.463   4.032
72969ION    NA+44585  32.575  34.916   0.382
72970ION    NA+44586  25.640  25.403   0.791
72971ION    NA+44587  18.654  39.118   3.042
72972ION    NA+44588  40.933  23.657   1.594
72973ION    NA+44589  18.745  23.358   4.818
72974ION    NA+44590   6.787  34.266  14.485
72975ION    NA+44591  37.553  16.556   1.749
72976ION    NA+44592  39.798   6.437  10.938
72977ION    NA+44593   2.256  40.554   1.859
72978ION    NA+44594  19.591  19.801   2.318
72979ION    NA+44595  39.953  37.283  14.634
72980ION    NA+44596  41.536  23.596   3.620
72981ION    NA+44597  11.060  39.033  11.735
72982ION    NA+44598  37.204  19.617  10.845
72983ION    NA+44599   8.884  15.816  14.252
72984ION    NA+44600  31.398  14.391   3.197
72985ION    NA+44601  12.245   1.455   0.943
72986ION    NA+44602  26.221  35.859  12.485
72987ION    NA+44603   3.873  34.513   1.622
72988ION    NA+44604  19.634  10.423  13.775
72989ION    NA+44605  12.167  33.918  10.672
72990ION    NA+44606  30.075  18.799   2.682
72991ION    NA+44607  24.122  38.287   3.820
72992ION    NA+44608   6.736   6.661  13.519
72993ION    NA+44609  40.990  12.635  11.139
72994ION    NA+44610  33.141  24.772  10.593
72995ION    NA+44611  22.570  11.050  10.653
72996ION    NA+44612   1.675   3.081  12.420
72997ION    NA+44613   6.593  17.456   4.084
72998ION    NA+44614  42.224   0.275   0.026
72999ION    NA+44615  24.251  41.899  12.973
73000ION    NA+44616   2.723  43.121  10.671
73001ION    NA+44617  26.441   9.266  11.664
73002ION    NA+44618  19.782   7.347   0.251
73003ION    NA+44619  33.276   1.267  13.794
73004ION    NA+44620  14.305  24.662   3.284
73005ION    NA+44621  43.361  19.170   3.508
73006ION    NA+44622  20.028   0.632   3.915
73007ION    NA+44623  26.016  38.731  10.439
73008ION    NA+44624  22.886   3.938   1.638
73009ION    NA+44625  33.656  35.906   1.236
73010ION    NA+44626  16.431   5.216   0.829
73011ION    NA+44627  36.037  16.967  14.265
73012ION    NA+44628  30.838   6.881  13.339
73013ION    NA+44629  33.311  26.934  12.563
73014ION    NA+44630  32.396   7.961  11.894
73015ION    NA+44631  15.806  36.495  12.484
73016ION    NA+44632  34.941   1.898  14.301
73017ION    NA+44633  19.291  19.189   3.540
73018ION    NA+44634  18.477  31.700  12.164
73019ION    NA+44635  19.532  30.177   1.849
73020ION    NA+44636   1.699  28.688  13.964
73021ION    NA+44637  30.961  34.616  13.061
73022ION    NA+44638  39.446  15.616   0.933
73023ION    NA+44639   1.032  32.832   4.587
73024ION    NA+44640  24.494  36.435   4.814
73025ION    NA+44641   3.886  30.685   0.090
73026ION    NA+44642   1.991  34.843   3.542
73027ION    NA+44643   4.233  12.565  12.853
73028ION    NA+44644   1.687   0.497  14.562
73029ION    NA+44645  38.407  43.247   0.041
73030ION    NA+44646   9.309   0.766  13.780
73031ION    NA+44647  26.422  17.299  10.423
73032ION    NA+44648  40.002  35.192   5.101
73033ION    NA+44649  19.266  43.237   4.805
73034ION    NA+44650  37.189  10.407  12.690
73035ION    NA+44651  30.129  20.664   1.368
73036ION    NA+44652  16.963  43.141  12.418
73037ION    NA+44653  11.706  34.892  13.772
73038ION    NA+44654   2.107   7.884  12.361
73039ION    NA+44655  22.136  17.504   1.337
73040ION    NA+44656  13.572  11.165  14.981
73041ION    NA+44657   9.377  18.583  14.751
73042ION    NA+44658  18.766  29.168  14.481
73043ION    NA+44659  33.403  21.681  11.536
73044ION    NA+44660  18.167   4.193   4.158
73045ION    NA+44661  33.542  21.279  14.962
73046ION    NA+44662  26.958  28.921   0.199
73047ION    NA+44663  17.595  28.998   4.057
73048ION    NA+44664  39.921   3.137   0.077
73049ION    NA+44665  33.212  11.251  10.341
73050ION    NA+44666  31.787  41.212  11.770
73051ION    NA+44667  12.369  31.052   4.990
73052ION    NA+44668   0.894  34.628   2.689
73053ION    NA+44669   4.776   6.374   4.397
73054ION    NA+44670  26.120  33.921   0.331
73055ION    NA+44671  41.616  35.956  13.877
73056ION    NA+44672  25.517  16.696  12.192
73057ION    NA+44673  37.945   9.767  14.781
73058ION    NA+44674  29.078  28.834   1.930
73059ION    NA+44675  37.910  29.398  11.726
73060ION    NA+44676  12.039  43.652  14.944
73061ION    NA+44677  28.120  38.565  14.840
73062ION    NA+44678  25.956   4.428   0.873
73063ION    NA+44679  37.146   7.495  12.616
73064ION    NA+44680  16.591  41.790  14.432
73065ION    NA+44681   0.027   8.831   0.480
73066ION    NA+44682  35.640  44.727  13.887
73067ION    NA+44683  14.146   3.587   0.464
73068ION    NA+44684  30.551   2.209  10.941
73069ION    NA+44685  42.695  22.488  11.188
73070ION    NA+44686   4.517  20.253  11.989
73071ION    NA+44687  36.960   0.558  11.948
73072ION    NA+44688  28.387  27.195   2.135
73073ION    NA+44689  16.278  26.075  14.321
73074ION    NA+44690  33.401  33.236  11.342
73075ION    NA+44691   1.224  21.515  11.123
73076ION    NA+44692  22.569   4.809  11.667
73077ION    NA+44693  22.018  36.153   3.263
73078ION    NA+44694   3.851   1.966  12.666
73079ION    NA+44695  40.811  44.523  11.547
73080ION    NA+44696  38.801  29.197  11.021
73081ION    NA+44697  14.156   0.128   0.381
73082ION    NA+44698  18.631  36.312   3.408
73083ION    NA+44699  40.760  31.945  11.566
73084ION    NA+44700  14.475  10.317   2.426
73085ION    NA+44701  20.352  30.035  13.853
73086ION    NA+44702  26.026  21.330  12.362
73087ION    NA+44703  12.736  24.713   3.623
73088ION    NA+44704   9.846  21.057   1.680
73089ION    NA+44705  34.281   6.660  14.617
73090ION    NA+44706   6.660   9.113  11.197
73091ION    NA+44707  28.793   5.441   3.398
73092ION    NA+44708  16.554  19.600  11.177
73093ION    NA+44709   1.573   1.104   2.343
73094ION    NA+44710  14.763   4.040  12.323
73095ION    NA+44711   8.773   7.749   4.120
73096ION    NA+44712   9.934  31.434   3.032
73097ION    NA+44713  14.340  28.952  12.410
73098ION    NA+44714  10.405  16.538   0.628
73099ION    NA+44715  30.667  11.007   1.713
73100ION    NA+44716  14.111  30.708   0.055
73101ION    NA+44717  33.951  25.665   2.420
73102ION    NA+44718  15.977  39.496  13.719
73103ION    NA+44719  39.834  36.088  12.939
73104ION    NA+44720  25.634  31.047   3.105
73105ION    NA+44721  17.660  41.858  12.693
73106ION    NA+44722  36.942  12.953   4.635
73107ION    NA+44723   8.661  11.686   3.717
73108ION    NA+44724  36.034   9.933  12.590
73109ION    NA+44725  17.210   2.080   1.304
73110ION    NA+44726  39.248  27.675   2.339
73111ION    NA+44727  14.240  20.017  12.857
73112ION    NA+44728  33.757  23.253   1.694
73113ION    NA+44729  32.759  40.692   4.042
73114ION    NA+44730  18.053  30.849  12.474
73115ION    NA+44731  34.905  19.571   1.392
73116ION    NA+44732  43.777  15.850   1.956
73117ION    NA+44733  36.847  22.434  12.345
73118ION    NA+44734   0.409  15.451  14.656
73119ION    NA+44735   2.552  38.436   3.077
73120ION    NA+44736  26.847   3.050  12.551
73121ION    NA+44737  27.429  22.844   4.155
73122ION    NA+44738   2.982  31.600  12.648
73123ION    NA+44739  25.292   3.542  10.772
73124ION    NA+44740  10.440   5.962   1.095
73125ION    NA+44741  33.625  25.038   3.127
73126ION    NA+44742   2.996  32.674   3.559
73127ION    NA+44743  19.461  10.383   3.572
73128ION    NA+44744   1.299  23.418   3.224
73129ION    NA+44745  34.556   8.374   2.819
73130ION    NA+44746   6.854   5.061  12.105
73131ION    NA+44747  37.469   9.508  12.255
73132ION    NA+44748   8.350  29.940  11.598
73133ION    NA+44749  22.109  40.754  12.694
73134ION    NA+44750  19.596  35.182   0.626
73135ION    NA+44751  23.926  27.577  11.716
73136ION    NA+44752  35.128  19.819   0.093
73137ION    NA+44753  11.024  37.707  13.390
73138ION    NA+44754  17.111  41.509   4.581
73139ION    NA+44755  35.815  14.845   1.556
73140ION    NA+44756  12.094  23.801  13.322
73141ION    NA+44757  25.630  19.082   4.758
73142ION    NA+44758   5.189  23.709  14.036
73143ION    NA+44759  10.369  26.095   0.461
73144ION    NA+44760   0.288  27.806  12.920
73145ION    NA+44761  24.502  37.139  13.920
73146ION    NA+44762  30.570   6.768   2.239
73147ION    NA+44763  20.164  16.041   0.655
73148ION    NA+44764  34.980   5.951   4.234
73149ION    NA+44765   3.501   9.855   4.590
73150ION    NA+44766  40.166  41.990  11.725
73151ION    NA+44767  28.856  38.165   0.385
73152ION    NA+44768   2.201   2.187  10.679
73153ION    NA+44769  23.179  11.741  13.939
73154ION    NA+44770  38.075  12.580  12.964
73155ION    NA+44771  17.382  24.618  11.252
73156ION    NA+44772   5.808  39.095  11.525
73157ION    NA+44773   7.994  18.504  14.376
73158ION    NA+44774  14.921   6.027   4.150
73159ION    NA+44775  12.429  12.215  13.345
73160ION    NA+44776   2.068  34.319   4.169
73161ION    NA+44777   1.041  41.747   4.787
73162ION    NA+44778   4.501  37.058   1.072
73163ION    NA+44779  38.765   4.407  10.675
73164ION    NA+44780  34.750   0.710  11.604
73165ION    NA+44781   2.815  24.501   2.560
73166ION    NA+44782  31.073  19.274   2.136
73167ION    NA+44783   1.823   1.711   2.944
73168ION    NA+44784  39.009  33.484   0.959
73169ION    NA+44785  35.096  41.572  10.839
73170ION    NA+44786  13.924  40.910   2.425
73171ION    NA+44787   4.879  29.488  12.118
73172ION    NA+44788  10.026  34.444   3.451
73173ION    NA+44789  39.265  30.805  14.698
73174ION    NA+44790  23.428   4.342   0.866
73175ION    NA+44791   5.751  17.407  11.234
73176ION    NA+44792  32.887   8.465  14.827
73177ION    NA+44793  30.067  38.653   3.295
73178ION    NA+44794   7.606  19.158  12.927
73179ION    NA+44795   6.739  21.760  11.088
73180ION    NA+44796  32.551  14.183  12.030
73181ION    NA+44797   1.904  35.103   4.305
73182ION    NA+44798   3.495   8.739  11.063
73183ION    NA+44799  24.129  16.486   0.688
73184ION    NA+44800   6.406  21.730   1.479
73185ION    NA+44801  19.861  21.333   4.591
73186ION    NA+44802  16.578   6.150   0.502
73187ION    NA+44803  36.545  34.383  11.568
73188ION    NA+44804  17.605  44.936   0.492
73189ION    NA+44805   4.850  35.047   1.409
73190ION    NA+44806  40.368   6.710  12.441
73191ION    NA+44807  28.715   0.838   2.974
73192ION    NA+44808  40.646  41.213   3.319
73193ION    NA+44809  34.097  42.335   1.513
73194ION    NA+44810   2.825  14.620   3.359
73195ION    NA+44811  38.628  10.149   4.052
73196ION    NA+44812  13.126  13.620  10.571
73197ION    NA+44813  29.312  20.929  13.384
73198ION    NA+44814  12.003  37.789   2.330
73199ION    NA+44815  39.177   1.559   9.575
73200ION    NA+44816  33.900   1.639  11.118
73201ION    NA+44817   2.528  16.163   1.752
73202ION    NA+44818  21.692  12.207   1.188
73203ION    NA+44819  25.860   1.772  14.798
73204ION    NA+44820  42.387  20.756  11.921
73205ION    NA+44821  42.971  42.722  12.402
73206ION    NA+44822  10.651  25.237   0.890
73207ION    NA+44823   6.180  25.589   4.414
73208ION    NA+44824  20.194  26.238  14.871
73209ION    NA+44825  40.962  39.350   4.855
73210ION    NA+44826  14.746  42.950   2.446
73211ION    NA+44827  11.044  29.296  11.265
73212ION    NA+44828  15.676  32.495   0.627
73213ION    NA+44829   8.698   3.569   3.058
73214ION    NA+44830   4.469  21.800  10.856
73215ION    NA+44831   6.981   4.995   3.044
73216ION    NA+44832  27.411  44.143  13.304
73217ION    NA+44833   0.572  12.965  13.806
73218ION    NA+44834  34.450  44.740  14.502
73219ION    NA+44835  30.908   9.881   4.184
73220ION    NA+44836  13.372  19.450   1.890
73221ION    NA+44837  28.905  12.421   2.188
73222ION    NA+44838  37.723  20.670  13.922
73223ION    NA+44839  31.135  32.904  12.361
73224ION    NA+44840   9.371  11.114  14.962
73225ION    NA+44841  20.516  13.915   1.294
73226ION    NA+44842  34.094  25.659  12.480
73227ION    NA+44843  33.266  39.237  13.241
73228ION    NA+44844  24.281  11.097  12.465
73229ION    NA+44845  31.821  24.266  14.562
73230ION    NA+44846  41.840   3.029  13.824
73231ION    NA+44847  34.540  40.767   0.220
73232ION    NA+44848  19.817  33.622  13.864
73233ION    NA+44849  11.556  23.356  14.058
73234ION    NA+44850  35.884  32.721  14.463
73235ION    NA+44851  44.538  29.516  12.808
73236ION    NA+44852  19.070  12.331   3.035
73237ION    NA+44853  38.836  19.372  12.809
73238ION    NA+44854  35.886  15.053  14.520
73239ION    NA+44855  32.070  18.507   0.706
73240ION    NA+44856  12.957  26.037   4.059
73241ION    NA+44857  24.709  30.869  11.262
73242ION    NA+44858  36.592  24.726  13.374
73243ION    NA+44859  16.755  33.396  12.812
73244ION    NA+44860   1.502   3.825   2.351
73245ION    NA+44861   8.269  27.004  10.736
73246ION    NA+44862  24.658  10.813   4.838
73247ION    NA+44863  30.803  24.870  14.548
73248ION    NA+44864   9.033   1.964  11.223
73249ION    NA+44865  34.088  16.359  12.888
73250ION    NA+44866  14.309  40.727  13.597
73251ION    NA+44867  22.869  29.566  13.084
73252ION    NA+44868  44.955  37.326  11.895
73253ION    NA+44869  40.188  44.080   3.826
73254ION    NA+44870  20.047   7.416  12.459
73255ION    NA+44871  37.367  32.043  13.020
73256ION    NA+44872  17.827   5.242   1.496
73257ION    NA+44873  23.706  12.809  12.811
73258ION    NA+44874   0.683  22.623   0.804
73259ION    NA+44875  21.157  35.197   2.790
73260ION    NA+44876  29.372  21.780  13.065
73261ION    NA+44877  10.755  21.269  11.656
73262ION    NA+44878  27.264  18.465   3.589
73263ION    NA+44879  14.824   3.393  14.547
73264ION    NA+44880   4.897  42.991   4.131
73265ION    NA+44881  32.099   2.905   4.229
73266ION    NA+44882   1.510  37.019  11.108
73267ION    NA+44883  18.552  40.508   2.734
73268ION    NA+44884  31.140  38.881  14.975
73269ION    NA+44885  25.543  20.096  12.602
73270ION    NA+44886  18.686  31.238   1.624
73271ION    NA+44887  33.419  22.377  13.975
73272ION    NA+44888   3.202  12.785   2.849
73273ION    NA+44889  21.128  14.696   2.326
73274ION    NA+44890  44.418  28.569   5.155
73275ION    NA+44891  30.858  15.173  10.537
73276ION    NA+44892  20.079  43.521   0.955
73277ION    NA+44893  39.886   1.901   3.767
73278ION    NA+44894  40.651  37.751   1.822
73279ION    NA+44895  39.067  39.932  12.460
73280ION    NA+44896  28.084   0.096  12.500
73281ION    NA+44897  34.353  10.383  14.869
73282ION    NA+44898  28.705  17.771  13.380
73283ION    NA+44899  44.571  43.337   5.162
73284ION    NA+44900  23.063  40.015   2.789
73285ION    NA+44901  14.809   9.939   3.734
73286ION    NA+44902  14.173  26.120  10.777
73287ION    NA+44903  33.503  42.492   4.228
73288ION    NA+44904  42.268  38.226   1.514
73289ION    NA+44905   1.857   3.881  11.736
73290ION    NA+44906  27.718  30.085   1.509
73291ION    NA+44907   2.843  43.120   0.447
73292ION    NA+44908  24.148  33.946  13.393
73293ION    NA+44909  10.319  39.344   2.108
73294ION    NA+44910  32.964  40.115  14.874
73295ION    NA+44911  21.574   6.812   1.164
73296ION    NA+44912  32.836  32.134   2.730
73297ION    NA+44913   8.872  23.724  13.803
73298ION    NA+44914  19.704  41.552  13.101
73299ION    NA+44915  26.602  41.242  11.106
73300ION    NA+44916  44.933  16.385  14.541
73301ION    NA+44917  28.951  33.767  12.069
73302ION    NA+44918   4.900  14.566  14.996
73303ION    NA+44919  23.083  32.953   3.580
73304ION    NA+44920  25.489  19.306   3.786
73305ION    NA+44921  41.850  16.163  12.890
73306ION    NA+44922  36.383  27.255  11.582
73307ION    NA+44923  40.156  18.164   1.953
73308ION    NA+44924  26.185   5.764  13.490
73309ION    NA+44925  20.544  43.320  12.046
73310ION    NA+44926   5.163  14.856  13.231
73311ION    NA+44927  11.369  10.655   2.233
73312ION    NA+44928  37.647  11.760  13.959
73313ION    NA+44929  27.685  26.229   0.256
73314ION    NA+44930   1.494  27.936   3.248
73315ION    NA+44931  40.456  15.889   1.732
73316ION    NA+44932  31.523  14.464   4.187
73317ION    NA+44933  21.824  16.680   0.844
73318ION    NA+44934  17.122  11.548   4.056
73319ION    NA+44935  16.484   5.762   2.827
73320ION    NA+44936  29.959  37.949  11.888
73321ION    NA+44937  12.436  27.827  12.640
73322ION    NA+44938  41.727  31.073   2.960
73323ION    NA+44939  21.228  25.625  13.544
73324ION    NA+44940  17.780  44.590   3.184
73325ION    NA+44941  23.175   1.225   3.850
73326ION    NA+44942  20.870  42.614   0.334
73327ION    NA+44943  17.091  16.706   1.817
73328ION    NA+44944   6.009   3.307  10.784
73329ION    NA+44945  31.683  29.146  10.509
73330ION    NA+44946   3.521  31.705  11.177
73331ION    NA+44947  10.432  41.250   0.932
73332ION    NA+44948   3.334  17.185   1.801
73333ION    NA+44949  33.778  36.172   2.219
73334ION    NA+44950  14.583   7.797   2.340
73335ION    NA+44951  20.562  36.730  12.907
73336ION    NA+44952   1.632   4.499  10.982
73337ION    NA+44953  42.167  24.871   1.547
73338ION    NA+44954  27.819   9.985  13.210
73339ION    NA+44955  10.133  29.881   2.732
73340ION    NA+44956  32.673   1.673   2.904
73341ION    NA+44957  31.788  40.242  13.015
73342ION    NA+44958   9.525   4.139   0.400
73343ION    NA+44959  37.861   2.377   3.805
73344ION    NA+44960  43.286  20.817   1.960
73345ION    NA+44961  16.836  20.332  14.360
73346ION    NA+44962  13.211  34.068   4.087
73347ION    NA+44963  33.233   0.230   3.369
73348ION    NA+44964   6.806   7.811   1.182
73349ION    NA+44965  17.362  35.517  13.012
73350ION    NA+44966  20.775  16.650  13.543
73351ION    NA+44967  31.840  36.319   0.903
73352ION    NA+44968  41.456  13.301   0.344
73353ION    NA+44969   7.672  33.250  13.375
73354ION    NA+44970   1.934  33.471   2.908
73355ION    NA+44971   1.447  24.306  11.424
73356ION    NA+44972   0.693  39.742   4.878
73357ION    NA+44973  33.127  39.559   3.658
73358ION    NA+44974  44.806   6.108   4.410
73359ION    NA+44975   1.107  27.983  13.248
73360ION    NA+44976  39.059  19.648   0.861
73361ION    NA+44977  38.447  20.960   0.759
73362ION    NA+44978  22.955  35.777  10.690
73363ION    NA+44979   9.651  43.752   2.933
73364ION    NA+44980  31.989   8.862   1.769
73365ION    NA+44981  15.014  12.157   1.317
73366ION    NA+44982  19.182  29.964  11.595
73367ION    NA+44983  37.044  30.212   4.543
73368ION    NA+44984   3.891   2.951   0.065
73369ION    NA+44985  25.275  31.189  12.052
73370ION    NA+44986  20.748  23.445   4.062
73371ION    NA+44987  36.732  44.482   4.268
73372ION    NA+44988   8.902  36.058  12.612
73373ION    NA+44989  27.023   8.871   2.599
73374ION    NA+44990  14.594  11.400   1.048
73375ION    NA+44991  41.053  30.709   4.155
73376ION    NA+44992   0.025   1.358   1.909
73377ION    NA+44993  41.345  30.117   1.405
73378ION    NA+44994  38.537  42.184   3.653
73379ION    NA+44995  33.846   0.647  11.003
73380ION    NA+44996  18.960  21.305  12.038
73381ION    NA+44997  41.856  42.402  12.383
73382ION    NA+44998   8.247  12.236   0.940
73383ION    NA+44999  39.973  15.531  12.939
73384ION    NA+45000  44.360   1.866  10.703
73385ION    NA+45001  10.653  13.643   2.394
73386ION    NA+45002  10.353  37.592   2.296
73387ION    NA+45003  41.600  17.368   9.776
73388ION    NA+45004   6.887  24.661   4.384
73389ION    NA+45005  35.681   1.167   3.477
73390ION    NA+45006   8.251  15.574   2.458
73391ION    NA+45007  28.439  35.808  13.245
73392ION    NA+45008   7.942  28.696  11.395
73393ION    NA+45009  36.655  18.704   5.364
73394ION    NA+45010  31.569  20.435   1.974
73395ION    NA+45011  25.986  24.926  10.780
73396ION    NA+45012  27.859  28.009   4.312
73397ION    NA+45013  41.256  34.904   0.502
73398ION    NA+45014  31.417  42.336   4.117
73399ION    NA+45015   4.415  25.111   3.319
73400ION    NA+45016  21.370  36.870  13.568
73401ION    NA+45017   1.301   1.751  11.623
73402ION    NA+45018  42.394  42.373   2.631
73403ION    NA+45019  15.466   1.370  11.075
73404ION    NA+45020  31.838  29.525  12.983
73405ION    NA+45021   9.734   9.035   0.268
73406ION    NA+45022  16.784  16.628  13.936
73407ION    NA+45023  32.341  15.599   4.050
73408ION    NA+45024  37.666  44.321   2.886
73409ION    NA+45025  31.141  40.429   2.157
73410ION    NA+45026  30.480  17.234  13.350
73411ION    NA+45027  25.071  41.482   2.033
73412ION    NA+45028  17.330  13.076   3.291
73413ION    NA+45029   8.349  33.723   1.873
73414ION    NA+45030   9.773  27.994   0.813
73415ION    NA+45031  43.658  24.954  11.493
73416ION    NA+45032  22.988  21.492  13.449
73417ION    NA+45033  28.121  23.386  13.597
73418ION    NA+45034  22.432  26.329   4.902
73419ION    NA+45035  35.346  29.491   3.209
73420ION    NA+45036  34.402  44.041   2.729
73421ION    NA+45037   8.757  16.498  13.531
73422ION    NA+45038  40.923  25.927  13.125
73423ION    NA+45039  30.317  42.454   0.459
73424ION    NA+45040  15.675  17.721  13.509
73425ION    NA+45041  25.380   4.469  14.955
73426ION    NA+45042   3.448  37.786   0.440
73427ION    NA+45043  33.130   8.848  11.126
73428ION    NA+45044  32.859  19.508   4.252
73429ION    NA+45045   5.338   9.550  13.736
73430ION    NA+45046  19.051  32.424   2.824
73431ION    NA+45047  22.461   5.468   1.896
73432ION    NA+45048   5.789  10.895   4.636
73433ION    NA+45049   0.203  38.682  11.862
73434ION    NA+45050  44.238  35.271  10.850
73435ION    NA+45051  37.418  18.296  11.128
73436ION    NA+45052   6.872  15.489  12.810
73437ION    NA+45053  14.055   4.485   0.669
73438ION    NA+45054  28.403  36.133   1.703
73439ION    NA+45055  27.309   0.422  12.555
73440ION    NA+45056  19.506  44.069  13.745
73441ION    NA+45057  30.063  16.767   3.819
73442ION    NA+45058  35.054   4.676  12.973
73443ION    NA+45059  42.226  10.634   5.053
73444ION    NA+45060  43.731  43.818  13.306
73445ION    NA+45061  11.797  18.349  13.611
73446ION    NA+45062  18.342  41.900   3.554
73447ION    NA+45063  43.854  21.906  12.324
73448ION    NA+45064   7.005  36.037  13.938
73449ION    NA+45065  14.716  38.590   0.954
73450ION    NA+45066  38.956  17.261   1.956
73451ION    NA+45067  34.966  20.079   2.272
73452ION    NA+45068  31.052   3.673   2.895
73453ION    NA+45069  34.440  26.430   5.274
73454ION    NA+45070  41.943   3.229  12.444
73455ION    NA+45071  14.122  26.604  14.992
73456ION    NA+45072  36.757  18.749   2.206
73457ION    NA+45073   1.061  39.971  12.222
73458ION    NA+45074   9.850  40.063   1.594
73459ION    NA+45075  26.557   7.161   1.807
73460ION    NA+45076  36.899  23.535  14.791
73461ION    NA+45077  17.116  28.172   2.828
73462ION    NA+45078  19.139  11.213  10.650
73463ION    NA+45079  37.715   3.465  11.822
73464ION    NA+45080  12.726   9.560   1.453
73465ION    NA+45081  10.316  23.250   2.013
73466ION    NA+45082  17.649  26.627  10.662
73467ION    NA+45083  22.274   9.141   0.154
73468ION    NA+45084  16.061  20.328  11.216
73469ION    NA+45085  11.936  29.724  11.108
73470ION    NA+45086  23.631  36.575  10.690
73471ION    NA+45087  33.900  43.917  11.993
73472ION    NA+45088  39.239  38.465  11.868
73473ION    NA+45089  43.778  40.033   0.103
73474ION    NA+45090  30.438   2.724   1.295
73475ION    NA+45091  12.764  31.807   4.000
73476ION    NA+45092  31.128  31.578  13.588
73477ION    NA+45093  25.074  22.647   4.944
73478ION    NA+45094   9.145  41.632  12.017
73479ION    NA+45095  29.078  37.121  11.864
73480ION    NA+45096  35.971  44.450  14.789
73481ION    NA+45097  39.264  40.919   4.154
73482ION    NA+45098  39.869   0.810   4.201
73483ION    NA+45099  44.796  35.458   1.310
73484ION    NA+45100  11.615  15.126   2.493
73485ION    NA+45101   6.489  18.169   1.804
73486ION    NA+45102   9.884  44.960  13.918
73487ION    NA+45103  18.662   7.535  12.519
73488ION    NA+45104  43.134  29.426  11.562
73489ION    NA+45105  17.213   0.181  13.782
73490ION    NA+45106  35.460  43.631  12.983
73491ION    NA+45107  10.266  40.824  14.111
73492ION    NA+45108  13.187   2.640   2.267
73493ION    NA+45109  38.104  13.983  10.977
73494ION    NA+45110  29.244  26.835   4.635
73495ION    NA+45111  22.679  44.915   5.013
73496ION    NA+45112  13.819  23.586   0.484
73497ION    NA+45113   8.886   4.197   3.684
73498ION    NA+45114  13.975  26.045   2.528
73499ION    NA+45115  15.925  22.888   1.625
73500ION    NA+45116  12.001   3.939  11.124
73501ION    NA+45117  25.435   0.321  13.521
73502ION    NA+45118  41.303  16.477  14.416
73503ION    NA+45119  24.160  24.250   1.658
73504ION    NA+45120  26.669  11.839   3.184
73505ION    NA+45121  32.767  36.679   0.786
73506ION    NA+45122  38.890  24.425  10.708
73507ION    NA+45123   6.163  25.522  10.682
73508ION    NA+45124  43.297  31.993   4.457
73509ION    NA+45125   3.712  31.618  14.777
73510ION    NA+45126  21.220  36.186   2.661
73511ION    NA+45127  39.568   0.487  13.728
73512ION    NA+45128   1.718  16.160  11.158
73513ION    NA+45129  32.213  15.961  11.522
73514ION    NA+45130  37.077  25.223   2.907
73515ION    NA+45131  35.199  28.060  11.003
73516ION    NA+45132  29.115   9.058  14.457
73517ION    NA+45133  26.496  31.849   4.695
73518ION    NA+45134  37.669  42.284  14.622
73519ION    NA+45135  22.521  14.895  14.802
73520ION    NA+45136  23.789   1.872   1.425
73521ION    NA+45137  29.941   8.418  11.045
73522ION    NA+45138  30.422  35.884  12.114
73523ION    NA+45139  19.696  26.310   2.641
73524ION    NA+45140  37.392  18.982  11.887
73525ION    NA+45141  27.853  42.417  13.804
73526ION    NA+45142  38.365  35.098  11.605
73527ION    NA+45143   7.723  41.281   3.405
73528ION    NA+45144  13.363  35.434   3.585
73529ION    NA+45145   2.965  33.718  12.253
73530ION    NA+45146  10.694   3.319  11.379
73531ION    NA+45147  33.339   4.076   0.271
73532ION    NA+45148   3.483  25.968  14.765
73533ION    NA+45149   4.375   9.092  13.498
73534ION    NA+45150  30.116  28.191  10.665
73535ION    NA+45151  19.189  41.122  10.675
73536ION    NA+45152   8.567  32.951   5.085
73537ION    NA+45153  27.206  30.933  10.778
73538ION    NA+45154  31.689  13.076  12.815
73539ION    NA+45155  35.870  44.392   4.088
73540ION    NA+45156   1.553   0.857   1.273
73541ION    NA+45157  39.464  20.478  14.144
73542ION    NA+45158  36.173  41.761   3.055
73543ION    NA+45159  32.262  23.973   0.871
73544ION    NA+45160  10.455  21.959   2.835
73545ION    NA+45161  38.592  11.674   3.324
73546ION    NA+45162   9.811   0.545  13.110
73547ION    NA+45163   5.520  24.290   4.665
73548ION    NA+45164  15.087  15.948  10.424
73549ION    NA+45165  22.993  20.722   0.057
73550ION    NA+45166  38.629   8.921  14.105
73551ION    NA+45167  31.055   5.934  12.544
73552ION    NA+45168  25.269  41.775  12.867
73553ION    NA+45169   5.764  32.707   0.830
73554ION    NA+45170   3.514   6.637  12.609
73555ION    NA+45171   9.823  19.940   0.320
73556ION    NA+45172  39.107  13.402  12.537
73557ION    NA+45173  43.339  25.968   3.250
73558ION    NA+45174  39.777  32.095   1.654
73559ION    NA+45175  24.619  25.436   2.922
73560ION    NA+45176  12.935   5.730  12.430
73561ION    NA+45177  37.453  35.220   4.542
73562ION    NA+45178   2.372   4.438   1.389
73563ION    NA+45179   7.439  36.438   2.504
73564ION    NA+45180  42.102   4.959   4.870
73565ION    NA+45181   9.209  27.305  12.562
73566ION    NA+45182  11.358   9.593  13.760
73567ION    NA+45183  13.167  13.107   3.488
73568ION    NA+45184  42.865  20.995  10.730
73569ION    NA+45185  21.816   3.864   3.784
73570ION    NA+45186  44.089   7.918  14.875
73571ION    NA+45187  16.333  16.405   0.575
73572ION    NA+45188   7.161  37.344   0.944
73573ION    NA+45189  25.868  42.519  12.574
73574ION    NA+45190  36.602   3.191  14.534
73575ION    NA+45191  30.425  26.726  12.983
73576ION    NA+45192  40.387  23.569  11.543
73577ION    NA+45193  17.738  22.667  12.899
73578ION    NA+45194  16.450   1.815  11.957
73579ION    NA+45195   0.124  30.944   1.221
73580ION    NA+45196   5.260   5.142   9.790
73581ION    NA+45197  10.780  35.832   2.513
73582ION    NA+45198  27.680  28.387   0.171
73583ION    NA+45199  16.925  15.063   4.842
73584ION    NA+45200  39.371  26.704   3.275
73585ION    NA+45201  17.048  16.420   5.452
73586ION    NA+45202  30.901  22.115  12.772
73587ION    NA+45203  23.649  13.590   1.638
73588ION    NA+45204  35.440   7.929  11.104
73589ION    NA+45205  23.298  11.261  12.383
73590ION    NA+45206  29.871  23.759   3.210
73591ION    NA+45207  36.413   3.407   3.908
73592ION    NA+45208  39.612  13.340   3.323
73593ION    NA+45209   7.230  25.903  13.808
73594ION    NA+45210  44.378  17.389   4.591
73595ION    NA+45211  29.701  40.832   0.527
73596ION    NA+45212   8.691  19.695  12.085
73597ION    NA+45213  34.934   2.490  11.595
73598ION    NA+45214   2.896  44.022   0.493
73599ION    NA+45215  33.211  16.613  14.876
73600ION    NA+45216  40.564  26.543  13.885
73601ION    NA+45217  22.883   4.835  14.284
73602ION    NA+45218   2.305   0.279  12.579
73603ION    NA+45219   7.026  12.743  12.855
73604ION    NA+45220  32.148  11.941  12.737
73605ION    NA+45221  13.504   0.597   1.940
73606ION    NA+45222   9.702   5.785  13.474
73607ION    NA+45223  24.432  34.552  12.148
73608ION    NA+45224  14.358  39.323  14.167
73609ION    NA+45225  33.120  11.109   0.793
73610ION    NA+45226  14.531  13.363   1.476
73611ION    NA+45227  40.478  37.885   4.180
73612ION    NA+45228  31.418  25.932  13.287
73613ION    NA+45229  14.359  16.724  14.017
73614ION    NA+45230  19.435  39.193   2.607
73615ION    NA+45231  40.917  25.252   2.979
73616ION    NA+45232  11.149  31.533   4.139
73617ION    NA+45233  44.640  39.850  14.631
73618ION    NA+45234   9.577  10.350  11.532
73619ION    NA+45235  40.834   1.270  11.826
73620ION    NA+45236  44.911   2.854   4.313
73621ION    NA+45237  21.064  18.098   4.223
73622ION    NA+45238  15.284  15.719   2.316
73623ION    NA+45239  33.126  30.158  14.150
73624ION    NA+45240  22.186  18.252   0.607
73625ION    NA+45241  31.961  35.956   4.581
73626ION    NA+45242   8.043   8.849  11.058
73627ION    NA+45243  29.702  35.606   0.543
73628ION    NA+45244  10.123   4.535  14.343
73629ION    NA+45245  34.145   9.104   4.182
73630ION    NA+45246  15.902  35.071   1.386
73631ION    NA+45247  29.149  12.045  12.119
73632ION    NA+45248   9.153  39.460   2.145
73633ION    NA+45249  30.183  30.868  12.278
73634ION    NA+45250  22.407   0.439   0.629
73635ION    NA+45251  34.588  17.860  12.286
73636ION    NA+45252  12.862  34.609  10.872
73637ION    NA+45253  12.118  18.837   4.952
73638ION    NA+45254  16.681  28.043  13.301
73639ION    NA+45255  26.966   2.180   3.284
73640ION    NA+45256  21.847  33.492   9.671
73641ION    NA+45257  10.564  30.474   3.282
73642ION    NA+45258  26.945  22.201   1.275
73643ION    NA+45259  40.505  11.551   2.147
73644ION    NA+45260  34.712  29.008  13.356
73645ION    NA+45261  24.414   1.981   0.623
73646ION    NA+45262  15.338  10.276   0.379
73647ION    NA+45263  18.717  14.432   4.525
73648ION    NA+45264   3.407   6.226   4.133
73649ION    NA+45265  29.008   6.100   2.443
73650ION    NA+45266  27.312   2.610  13.320
73651ION    NA+45267   7.165   2.711  13.204
73652ION    NA+45268  42.885   9.425  12.428
73653ION    NA+45269  35.633   1.701   4.415
73654ION    NA+45270  29.808  11.475  10.662
73655ION    NA+45271  41.675  31.144  14.624
73656ION    NA+45272   2.452  25.690   2.420
73657ION    NA+45273  33.020  27.564  14.536
73658ION    NA+45274  23.572  11.610   0.437
73659ION    NA+45275  27.464  33.358  10.262
73660ION    NA+45276  39.083  17.979   4.213
73661ION    NA+45277  41.299  24.912   2.060
73662ION    NA+45278  12.061  36.545  13.060
73663ION    NA+45279  13.589  29.360  11.590
73664ION    NA+45280  27.170  36.987  14.804
73665ION    NA+45281  30.919   4.682  12.923
73666ION    NA+45282  19.960  21.235  11.228
73667ION    NA+45283  21.796  14.713   4.844
73668ION    NA+45284  38.917  14.628  13.157
73669ION    NA+45285  14.047   1.541  14.904
73670ION    NA+45286  33.988  28.413   1.648
73671ION    NA+45287  29.453  12.962   1.549
73672ION    NA+45288  13.733   9.518  10.912
73673ION    NA+45289   1.718  27.495  11.116
73674ION    NA+45290  43.722  35.959  12.027
73675ION    NA+45291  13.570   3.619  10.397
73676ION    NA+45292  14.795  12.751  13.600
73677ION    NA+45293   6.365  28.055   4.282
73678ION    NA+45294   6.212  43.055  10.984
73679ION    NA+45295   7.581  31.165  14.998
73680ION    NA+45296  12.950   3.883   2.803
73681ION    NA+45297   3.826  30.502  13.745
73682ION    NA+45298   0.715  25.500   2.965
73683ION    NA+45299  28.513  44.799   4.652
73684ION    NA+45300   5.988   1.016  14.729
73685ION    NA+45301  37.895  42.662   3.770
73686ION    NA+45302  26.440  42.632  14.915
73687ION    NA+45303  22.101   9.535  12.878
73688ION    NA+45304  43.713  11.960  14.309
73689ION    NA+45305  41.489  26.383  11.436
73690ION    NA+45306  42.264  43.701  12.098
73691ION    NA+45307  18.829  17.964  11.699
73692ION    NA+45308  10.365  10.172   1.273
73693ION    NA+45309  37.486  32.298  14.791
73694ION    NA+45310  20.770  26.272   1.228
73695ION    NA+45311  17.316  23.807  11.663
73696ION    NA+45312  16.307  30.810   1.614
73697ION    NA+45313  10.134   4.426   3.787
73698ION    NA+45314  33.354  31.980  12.952
73699ION    NA+45315  42.255  31.873  10.696
73700ION    NA+45316   2.947   3.833   2.386
73701ION    NA+45317  22.084  12.218   2.526
73702ION    NA+45318  16.856  23.956   1.147
73703ION    NA+45319  33.892   0.747   0.935
73704ION    NA+45320  15.652  36.887   1.595
73705ION    NA+45321  31.944  26.984  12.985
73706ION    NA+45322  40.765  14.276   1.221
73707ION    NA+45323  20.651  23.107  12.126
73708ION    NA+45324  41.447  42.862  10.901
73709ION    NA+45325  26.813  16.190  13.969
73710ION    NA+45326   3.831  32.820   3.801
73711ION    NA+45327  33.307  14.511  10.837
73712ION    NA+45328   3.572  42.987   5.188
73713ION    NA+45329  24.298  31.372  12.165
73714ION    NA+45330  29.101   2.440  13.155
73715ION    NA+45331  27.959   2.873   0.678
73716ION    NA+45332   8.401  44.457   2.431
73717ION    NA+45333  22.447   6.787   0.360
73718ION    NA+45334  43.037   2.023   2.223
73719ION    NA+45335  10.183  27.443  14.934
73720ION    NA+45336  32.660  29.652  10.789
73721ION    NA+45337   2.210  19.200   0.819
73722ION    NA+45338  36.925  40.312  10.682
73723ION    NA+45339   8.095  38.816  11.282
73724ION    NA+45340  23.693   9.747  11.407
73725ION    NA+45341  40.990  28.533  12.109
73726ION    NA+45342  17.498  43.215   4.776
73727ION    NA+45343   5.271   0.863   2.366
73728ION    NA+45344  30.155  41.293   1.723
73729ION    NA+45345  10.948  26.600  11.081
73730ION    NA+45346  25.649   0.293  10.642
73731ION    NA+45347   7.625  42.442   0.595
73732ION    NA+45348  29.416  12.963   0.162
73733ION    NA+45349  40.395   3.464   5.423
73734ION    NA+45350  27.173  12.848   3.727
73735ION    NA+45351  11.954  19.354  12.531
73736ION    NA+45352  21.816  11.093   1.912
73737ION    NA+45353  41.812   3.036  10.506
73738ION    NA+45354  17.018  39.504   4.327
73739ION    NA+45355  41.995  34.454   4.811
73740ION    NA+45356  39.474   9.383   5.017
73741ION    NA+45357  38.569  12.854  11.742
73742ION    NA+45358  27.085  24.053   3.208
73743ION    NA+45359  34.232   7.000   1.022
73744ION    NA+45360  18.278   7.918   2.872
73745ION    NA+45361  36.903   3.123   2.425
73746ION    NA+45362  33.475  20.966   1.500
73747ION    NA+45363  10.216  28.775   9.409
73748ION    NA+45364  14.304  26.011  14.345
73749ION    NA+45365  33.537  11.948  14.904
73750ION    NA+45366  34.416  39.681   0.856
73751ION    NA+45367  40.793   7.171   3.868
73752ION    NA+45368   3.706  10.297  13.775
73753ION    NA+45369  28.554  26.013  13.030
73754ION    NA+45370   8.217  11.245  11.555
73755ION    NA+45371  33.216  29.525   5.447
73756ION    NA+45372  12.249   0.834   3.251
73757ION    NA+45373   1.034  16.302   0.032
73758ION    NA+45374  22.992  21.406   3.315
73759ION    NA+45375   5.437  42.175   1.103
73760ION    NA+45376  37.100  19.030  13.715
73761ION    NA+45377  38.750  37.960   1.757
73762ION    NA+45378  13.860  22.428   3.369
73763ION    NA+45379  35.462  24.460   4.626
73764ION    NA+45380  25.102   8.477  12.302
73765ION    NA+45381  40.355  20.459  11.829
73766ION    NA+45382  34.519  43.159   5.157
73767ION    NA+45383  38.697   7.204   1.895
73768ION    NA+45384  31.720  30.642  14.473
73769ION    NA+45385  41.835  26.899   1.791
73770ION    NA+45386  36.143  33.569  12.976
73771ION    NA+45387  13.685   1.268   3.279
73772ION    NA+45388  26.125  16.318   2.689
73773ION    NA+45389  16.695   7.099   2.806
73774ION    NA+45390  27.474  18.581  12.475
73775ION    NA+45391  20.595  37.307   3.223
73776ION    NA+45392   0.886  20.462  11.531
73777ION    NA+45393  31.532  21.839   4.637
73778ION    NA+45394  34.221  39.396  13.494
73779ION    NA+45395   6.684  42.063  14.855
73780ION    NA+45396  19.115   0.203  11.960
73781ION    NA+45397  35.095  43.044   2.143
73782ION    NA+45398  12.619   9.434   3.600
73783ION    NA+45399  40.579  28.917   2.544
73784ION    NA+45400  28.271  19.986  14.028
73785ION    NA+45401  44.778  33.517  10.681
73786ION    NA+45402   5.839  39.248   1.728
73787ION    NA+45403  27.993  32.308  14.803
73788ION    NA+45404  39.696  32.836  11.285
73789ION    NA+45405   3.027  14.487  14.584
73790ION    NA+45406  12.757  26.880  12.636
73791ION    NA+45407  28.179  14.155   2.754
73792ION    NA+45408  21.709  13.558   2.163
73793ION    NA+45409  26.536  41.532   4.590
73794ION    NA+45410  28.255  42.521   2.847
73795ION    NA+45411  40.539  11.265  14.916
73796ION    NA+45412  18.783  18.823  12.629
73797ION    NA+45413  25.534   1.545  11.026
73798ION    NA+45414  15.857   0.405   4.431
73799ION    NA+45415  20.072  42.859   2.430
73800ION    NA+45416  11.730  40.281  11.825
73801ION    NA+45417  23.223  24.290   4.076
73802ION    NA+45418  10.022  41.339   4.245
73803ION    NA+45419  27.480  42.112   3.329
73804ION    NA+45420  10.646  15.035  12.919
73805ION    NA+45421   1.230   6.639   2.867
73806ION    NA+45422  32.709  17.292   0.060
73807ION    NA+45423   1.954   3.647   0.882
73808ION    NA+45424  19.033  33.556  14.571
73809ION    NA+45425  20.384   3.595  10.986
73810ION    NA+45426  31.917  23.160  13.491
73811ION    NA+45427   0.280  23.050   3.216
73812ION    NA+45428  23.523  38.645   1.799
73813ION    NA+45429  12.210   2.321  13.490
73814ION    NA+45430  39.094  11.923  12.106
73815ION    NA+45431  18.752  31.359  11.265
73816ION    NA+45432  15.408  42.958   3.062
73817ION    NA+45433  18.011  28.488  14.426
73818ION    NA+45434  26.715  14.733   4.055
73819ION    NA+45435  40.510  10.994  13.351
73820ION    NA+45436  20.270  40.448   0.461
73821ION    NA+45437  27.673  29.467  12.005
73822ION    NA+45438  15.121   2.377   4.341
73823ION    NA+45439   9.636  29.239  11.143
73824ION    NA+45440  20.786  30.935  13.126
73825ION    NA+45441  28.402  33.000   0.220
73826ION    NA+45442  15.872   6.821   3.741
73827ION    NA+45443  17.360   5.549   0.667
73828ION    NA+45444  25.078  31.510   0.986
73829ION    NA+45445  30.559  26.737  11.504
73830ION    NA+45446  24.753  44.848   4.114
73831ION    NA+45447   7.259  42.890   2.086
73832ION    NA+45448  38.379  37.916   4.085
73833ION    NA+45449  25.938  35.792   4.267
73834ION    NA+45450  32.015  44.055   0.244
73835ION    NA+45451  32.407   2.978   2.673
73836ION    NA+45452  19.640  12.653  14.840
73837ION    NA+45453  29.806  13.776   1.748
73838ION    NA+45454  10.196  39.200  11.578
73839ION    NA+45455  33.445  13.025  13.231
73840ION    NA+45456   2.565  14.078   1.312
73841ION    NA+45457   9.919   1.333   0.961
73842ION    NA+45458  14.048  20.861   0.330
73843ION    NA+45459  43.758  30.115  12.989
73844ION    NA+45460  11.074   5.648   3.459
73845ION    NA+45461  27.718  35.555   2.607
73846ION    NA+45462  28.507  22.761  11.144
73847ION    NA+45463  28.143   0.526   3.052
73848ION    NA+45464  35.008  35.000   3.900
73849ION    NA+45465  14.248  23.605  10.316
73850ION    NA+45466  19.169  28.590  13.946
73851ION    NA+45467   7.828   0.526  11.076
73852ION    NA+45468   5.289  10.687  12.443
73853ION    NA+45469  38.970  36.080  12.756
73854ION    NA+45470  39.364  12.774   5.058
73855ION    NA+45471  12.385  27.421   4.951
73856ION    NA+45472  12.844  22.677  12.362
73857ION    NA+45473  44.749  28.154   4.078
73858ION    NA+45474  41.899   5.742  13.597
73859ION    NA+45475  21.420  40.356  11.317
73860ION    NA+45476  39.269   5.351   2.561
73861ION    NA+45477  39.157  33.320  11.409
73862ION    NA+45478  28.715   5.064   2.475
73863ION    NA+45479  27.068  20.128   2.350
73864ION    NA+45480  35.020  42.277   4.355
73865ION    NA+45481  40.813  10.223   3.062
73866ION    NA+45482   0.086   9.883   0.977
73867ION    NA+45483  44.471  41.523   2.515
73868ION    NA+45484  24.086  12.976  11.317
73869ION    NA+45485  33.838  32.350  11.946
73870ION    NA+45486  27.330  13.275   0.092
73871ION    NA+45487  16.488  18.861  10.748
73872ION    NA+45488  11.282  39.826  13.572
73873ION    NA+45489  20.302  40.553  14.398
73874ION    NA+45490   6.770  21.116   4.201
73875ION    NA+45491  23.237  38.519   4.476
73876ION    NA+45492  10.476   7.800  10.847
73877ION    NA+45493   6.740  44.474   4.558
73878ION    NA+45494  37.842  19.306  12.719
73879ION    NA+45495   6.178  40.514   4.471
73880ION    NA+45496   3.173  14.555   1.708
73881ION    NA+45497  44.357  27.900   3.193
73882ION    NA+45498  20.733  24.971   2.241
73883ION    NA+45499  13.649  24.514  11.149
73884ION    NA+45500   3.848   0.728   1.048
73885ION    NA+45501  39.896   1.763  11.049
73886ION    NA+45502  17.793  14.266  11.532
73887ION    NA+45503  39.865  33.681  11.106
73888ION    NA+45504  34.605  15.444  14.339
73889ION    NA+45505  31.382  37.204   0.987
73890ION    NA+45506  19.726  35.623   1.839
73891ION    NA+45507   8.657   8.778   2.654
73892ION    NA+45508   5.388   4.632  13.237
73893ION    NA+45509  24.410   6.671   3.028
73894ION    NA+45510  25.230  41.999   4.140
73895ION    NA+45511  33.307  33.545  14.537
73896ION    NA+45512  13.471  40.161  14.461
73897ION    NA+45513  38.637  30.189   2.286
73898ION    NA+45514  26.927  36.831   1.757
73899ION    NA+45515   1.872  17.830   0.003
73900ION    NA+45516  16.739  25.927  11.476
73901ION    NA+45517  41.258  14.007  14.603
73902ION    NA+45518  42.878   3.938   2.945
73903ION    NA+45519  29.824  39.794   3.550
73904ION    NA+45520  17.131   7.892  13.818
73905ION    NA+45521  27.868  36.846  12.778
73906ION    NA+45522  14.703   6.431   2.909
73907ION    NA+45523   1.731  43.243   2.701
73908ION    NA+45524  44.239   6.557  10.997
73909ION    NA+45525  21.768  39.640  13.895
73910ION    NA+45526  39.180   3.898   3.136
73911ION    NA+45527  14.830  32.125   1.449
73912ION    NA+45528  28.672  27.242   0.418
73913ION    NA+45529  34.424  20.750   2.505
73914ION    NA+45530  20.072  10.992   1.034
73915ION    NA+45531  25.212  29.227  13.067
73916ION    NA+45532   5.832   0.841   0.912
73917ION    NA+45533  24.807  38.818   0.460
73918ION    NA+45534  29.704   8.743   0.846
73919ION    NA+45535  37.408   9.403   3.347
73920ION    NA+45536   2.881  10.782  11.450
73921ION    NA+45537  35.499  32.062   2.147
73922ION    NA+45538  41.875  40.660  14.125
73923ION    NA+45539   8.077  30.441  12.419
73924ION    NA+45540  27.079  24.393  11.070
73925ION    NA+45541  23.288  17.699   0.742
73926ION    NA+45542   5.895  21.955  12.160
73927ION    NA+45543  36.126  38.553  12.382
73928ION    NA+45544  10.649  13.763  14.450
73929ION    NA+45545  23.639  36.268   1.361
73930ION    NA+45546  13.582  14.326   4.236
73931ION    NA+45547  39.467  35.984   5.351
73932ION    NA+45548   5.252   4.772  14.122
73933ION    NA+45549   8.740  25.615   3.165
73934ION    NA+45550  15.949   6.440  13.603
73935ION    NA+45551  44.376  19.259  13.826
73936ION    NA+45552  30.304  19.806   4.422
73937ION    NA+45553   8.319  22.602  12.114
73938ION    NA+45554  43.941  14.454  14.243
73939ION    NA+45555  39.875  27.974   4.292
73940ION    NA+45556   0.340  13.078   3.101
73941ION    NA+45557  31.688  21.314   2.209
73942ION    NA+45558   1.932   4.668  14.434
73943ION    NA+45559  12.114  26.584  12.180
73944ION    NA+45560  14.341  37.798   0.899
73945ION    NA+45561  20.434  25.803   2.707
73946ION    NA+45562  40.943   9.675   3.889
73947ION    NA+45563  18.989  12.899  10.167
73948ION    NA+45564  41.386   4.388  14.243
73949ION    NA+45565  33.076  32.787  10.639
73950ION    NA+45566  21.153   8.278   4.495
73951ION    NA+45567   1.676  34.181   2.254
73952ION    NA+45568  36.460  44.686  11.802
73953ION    NA+45569   9.355  31.460  12.345
73954ION    NA+45570  43.481  16.100  11.874
73955ION    NA+45571  38.418   1.192   0.931
73956ION    NA+45572  27.124  37.671   3.820
73957ION    NA+45573   3.831   0.020  13.702
73958ION    NA+45574  21.519   4.513  12.829
73959ION    NA+45575   7.419  28.881  10.689
73960ION    NA+45576  42.334  29.901   3.286
73961ION    NA+45577  11.786  14.386  11.583
73962ION    NA+45578  17.439  28.389  11.254
73963ION    NA+45579  22.820  26.595  10.643
73964ION    NA+45580  30.582   4.122  13.681
73965ION    NA+45581  36.089   1.794  14.476
73966ION    NA+45582  31.737   6.108   1.823
73967ION    NA+45583  43.366  38.065   2.802
73968ION    NA+45584  38.871  39.975  10.738
73969ION    NA+45585  23.645  42.524   4.178
73970ION    NA+45586  43.487   1.226  13.027
73971ION    NA+45587   0.853  42.401  14.631
73972ION    NA+45588  23.608   0.389   3.513
73973ION    NA+45589  15.320  35.791   3.949
73974ION    NA+45590  32.416  33.678   4.102
73975ION    NA+45591  42.523   2.918   2.307
73976ION    NA+45592  16.587  12.410  11.227
73977ION    NA+45593  31.010  14.984   2.034
73978ION    NA+45594   8.472   5.765   4.331
73979ION    NA+45595  27.384  14.642   0.278
73980ION    NA+45596  21.100  30.696  10.965
73981ION    NA+45597   5.905  27.095   4.221
73982ION    NA+45598  27.422  30.650   3.839
73983ION    NA+45599  38.256  19.031   2.462
73984ION    NA+45600   9.536  18.690  11.126
73985ION    NA+45601  38.177   7.031  12.465
73986ION    NA+45602  30.124  37.522  14.593
73987ION    NA+45603  44.968  22.608   1.504
73988ION    NA+45604  40.911  40.323  11.158
73989ION    NA+45605  15.614   0.374   3.115
73990ION    NA+45606  38.042  44.794   0.891
73991ION    NA+45607  44.233  11.450  10.617
73992ION    NA+45608   7.548  35.810   3.320
73993ION    NA+45609  21.150  38.999   1.905
73994ION    NA+45610  44.213   3.290   4.992
73995ION    NA+45611  34.645  13.566  13.552
73996ION    NA+45612  37.339  19.979  14.706
73997ION    NA+45613   7.583  29.750   4.627
73998ION    NA+45614   7.262  11.578  12.500
73999ION    NA+45615  40.692  22.324   3.921
74000ION    NA+45616  14.087  44.383  11.901
74001ION    NA+45617   2.683  31.573  14.936
74002ION    NA+45618  40.551   9.218   4.687
74003ION    NA+45619  36.932  33.949   3.318
74004ION    NA+45620  20.132  41.330   4.002
74005ION    NA+45621  37.971  26.245   0.424
74006ION    NA+45622  31.027   1.895   0.234
74007ION    NA+45623  34.326  23.445  11.673
74008ION    NA+45624  11.965  34.896   1.254
74009ION    NA+45625  16.538   6.309  10.861
74010ION    NA+45626  32.182  30.565   0.956
74011ION    NA+45627  13.893  28.005   3.191
74012ION    NA+45628  40.036  33.932   3.832
74013ION    NA+45629  12.825  19.319  13.869
74014ION    NA+45630   8.767  32.104   4.186
74015ION    NA+45631  13.786  40.746  12.744
74016ION    NA+45632  20.688  34.758  14.641
74017ION    NA+45633  22.014  10.304  12.420
74018ION    NA+45634  35.101  40.482   2.287
74019ION    NA+45635   9.962  23.543   0.681
74020ION    NA+45636  29.028  24.241   0.530
74021ION    NA+45637  15.242  26.421   1.718
74022ION    NA+45638  39.979  10.605  11.598
74023ION    NA+45639   5.639   3.785  11.365
74024ION    NA+45640  21.511  12.729  12.107
74025ION    NA+45641   4.365  10.171  11.050
74026ION    NA+45642   9.383   5.841   3.925
74027ION    NA+45643   4.643   5.416  14.933
74028ION    NA+45644  11.074  27.506  12.620
74029ION    NA+45645  28.539  40.245   2.601
74030ION    NA+45646  41.322  35.332  14.600
74031ION    NA+45647  25.240  42.770   1.752
74032ION    NA+45648   5.409   9.203   4.191
74033ION    NA+45649  10.664  20.586  12.381
74034ION    NA+45650  36.148  36.497  14.120
74035ION    NA+45651  34.137  37.972  13.527
74036ION    NA+45652  44.236  31.898  10.647
74037ION    NA+45653   9.718  34.938  14.452
74038ION    NA+45654  33.909   2.856  11.261
74039ION    NA+45655  13.187  41.242   3.905
74040ION    NA+45656   1.477  10.687   0.998
74041ION    NA+45657  28.738  43.051   2.149
74042ION    NA+45658  24.192  10.938   3.037
74043ION    NA+45659   1.827  32.942  11.608
74044ION    NA+45660  36.242  14.487   4.519
74045ION    NA+45661  41.137  40.711   0.021
74046ION    NA+45662  40.494  17.170  12.543
74047ION    NA+45663  11.434  11.019   3.675
74048ION    NA+45664  34.653  37.150  11.639
74049ION    NA+45665   6.292  29.450   1.798
74050ION    NA+45666  43.088  27.881   1.377
74051ION    NA+45667  39.380  29.152   3.941
74052ION    NA+45668  42.654  16.893   5.049
74053ION    NA+45669  17.276  40.553   3.325
74054ION    NA+45670  12.715  24.364  14.578
74055ION    NA+45671  24.144  28.346  14.490
74056ION    NA+45672  39.403  30.404  11.670
74057ION    NA+45673  29.085   7.674   0.198
74058ION    NA+45674  34.203  31.502  13.209
74059ION    NA+45675  28.964   2.216   4.632
74060ION    NA+45676  14.424  21.088   2.884
74061ION    NA+45677  16.367   4.785  12.385
74062ION    NA+45678  19.678  16.148   3.749
74063ION    NA+45679  27.466  10.800  13.262
74064ION    NA+45680  14.276  33.186   9.746
74065ION    NA+45681   1.306  34.399  14.932
74066ION    NA+45682  28.514  10.553   3.659
74067ION    NA+45683  44.250  23.777   4.083
74068ION    NA+45684   5.613  19.557   4.100
74069ION    NA+45685   5.066  17.139  13.966
74070ION    NA+45686   2.700  11.276   1.973
74071ION    NA+45687  37.441  25.328  11.477
74072ION    NA+45688  13.687  22.800  10.507
74073ION    NA+45689  17.120  42.037   2.163
74074ION    NA+45690  23.972   2.623  11.454
74075ION    NA+45691  22.245  24.426  11.689
74076ION    NA+45692   5.038  33.098   2.365
74077ION    NA+45693  29.792   4.437   5.121
74078ION    NA+45694  41.226   1.711   2.584
74079ION    NA+45695  23.154  13.418  11.174
74080ION    NA+45696  23.545  33.636  14.401
74081ION    NA+45697  10.476  27.780   2.196
74082ION    NA+45698  23.411   8.887  10.672
74083ION    NA+45699  29.648  34.581  11.063
74084ION    NA+45700  37.439   0.232   0.210
74085ION    NA+45701  41.425  24.565  13.102
74086ION    NA+45702  19.553  10.128  14.727
74087ION    NA+45703  27.269  43.214  13.644
74088ION    NA+45704  14.218  13.934  11.659
74089ION    NA+45705  26.774  28.559  10.539
74090ION    NA+45706  11.727  42.046  14.369
74091ION    NA+45707  12.509  39.117  12.724
74092ION    NA+45708   2.414  41.370   5.393
74093ION    NA+45709  21.152  32.001  13.122
74094ION    NA+45710  34.976  40.389   3.685
74095ION    NA+45711   7.286  35.436   2.532
74096ION    NA+45712  15.772  17.733   0.946
74097ION    NA+45713   5.637  40.220   1.610
74098ION    NA+45714  35.705  26.447  13.907
74099ION    NA+45715   3.434  20.006  14.525
74100ION    NA+45716  38.049  27.657  13.570
74101ION    NA+45717  18.277  27.029   1.398
74102ION    NA+45718   7.216  37.597   4.479
74103ION    NA+45719  25.581  11.000  14.444
74104ION    NA+45720   7.866  40.849  11.252
74105ION    NA+45721  42.079  42.353  14.862
74106ION    NA+45722  34.692  32.621  12.486
74107ION    NA+45723   7.262  27.385   4.157
74108ION    NA+45724   6.166   8.800   2.390
74109ION    NA+45725  24.710  31.929  14.126
74110ION    NA+45726  18.490   1.728  14.252
74111ION    NA+45727   5.196   6.757  14.473
74112ION    NA+45728  10.259   4.642  12.034
74113ION    NA+45729   7.303  21.531   4.938
74114ION    NA+45730   6.940  32.127  13.247
74115ION    NA+45731   2.858  39.242  13.509
74116ION    NA+45732  37.128  43.002   0.060
74117ION    NA+45733  24.806  22.996  10.844
74118ION    NA+45734  13.585  29.923  14.727
74119ION    NA+45735  40.409  28.649  10.881
74120ION    NA+45736  18.731  44.022  10.642
74121ION    NA+45737  18.602  31.888   4.418
74122ION    NA+45738   6.927   5.642   0.572
74123ION    NA+45739  38.002  17.973  14.319
74124ION    NA+45740  24.805  44.615   0.938
74125ION    NA+45741  43.517  28.058  12.807
74126ION    NA+45742  38.723  42.922   4.267
74127ION    NA+45743  26.655  24.479  14.568
74128ION    NA+45744  44.787  12.339  14.046
74129ION    NA+45745  35.602  25.012   3.230
74130ION    NA+45746  40.027  12.178   0.923
74131ION    NA+45747  33.846   9.071   2.713
74132ION    NA+45748  21.852   2.506   3.902
74133ION    NA+45749   1.018  26.609  10.306
74134ION    NA+45750  30.220  36.139   3.306
74135ION    NA+45751  38.734  24.076   3.516
74136ION    NA+45752  10.847  33.214   3.618
74137ION    NA+45753  11.191  43.002  10.251
74138ION    NA+45754   2.801  15.293  11.129
74139ION    NA+45755   2.129  26.483  12.862
74140ION    NA+45756  31.902  44.599   3.789
74141ION    NA+45757   0.600   7.580   3.164
74142ION    NA+45758  18.682  21.285  10.778
74143ION    NA+45759  35.680  36.952  11.957
74144ION    NA+45760  27.261  27.764  13.750
74145ION    NA+45761   0.744  39.260  11.072
74146ION    NA+45762  41.642   0.714   1.430
74147ION    NA+45763   4.913  33.644   1.455
74148ION    NA+45764  44.246  35.917  14.304
74149ION    NA+45765   7.659  17.851   1.071
74150ION    NA+45766  16.074  16.074   5.460
74151ION    NA+45767  43.440  15.374   0.258
74152ION    NA+45768  39.603  21.111  11.734
74153ION    NA+45769  11.937   1.251   5.011
74154ION    NA+45770   8.852  23.848   2.604
74155ION    NA+45771   0.719  14.646   0.044
74156ION    NA+45772   7.862  37.384  11.599
74157ION    NA+45773  22.130  29.382  11.969
74158ION    NA+45774  34.308   2.425  13.197
74159ION    NA+45775   5.855  42.322  12.960
74160ION    NA+45776  41.605  41.036   3.097
74161ION    NA+45777  21.010  28.641  11.791
74162ION    NA+45778  12.757  11.972   3.571
74163ION    NA+45779  23.666   1.255   4.721
74164ION    NA+45780  14.047  22.322   5.230
74165ION    NA+45781  28.841  39.384  13.795
74166ION    NA+45782  13.807  35.611   0.075
74167ION    NA+45783  39.686  37.476   5.097
74168ION    NA+45784  23.534  26.839   2.633
74169ION    NA+45785   1.237  14.647   4.111
74170ION    NA+45786   0.791  22.034   3.720
74171ION    NA+45787  15.119  11.569   3.109
74172ION    NA+45788  42.657  30.905   2.633
74173ION    NA+45789  18.379   3.230  10.600
74174ION    NA+45790  37.994  12.810   4.190
74175ION    NA+45791   5.592   4.117   4.407
74176ION    NA+45792   4.142  37.619   2.795
74177ION    NA+45793   1.790  15.712   1.249
74178ION    NA+45794  38.924  12.619   3.237
74179ION    NA+45795  25.206  23.664   0.762
74180ION    NA+45796  32.530  41.373  11.245
74181ION    NA+45797   9.646  27.466   4.166
74182ION    NA+45798  29.978  22.449   0.871
74183ION    NA+45799  11.317  18.018  11.492
74184ION    NA+45800  38.927   3.024   0.144
74185ION    NA+45801  39.565  23.017  12.538
74186ION    NA+45802  30.712  17.762  11.318
74187ION    NA+45803   8.954  24.765   1.364
74188ION    NA+45804  40.547  31.829   9.825
74189ION    NA+45805  44.374   5.781  10.756
74190ION    NA+45806  22.377   1.580   4.603
74191ION    NA+45807  39.104  22.631   3.267
74192ION    NA+45808  37.734   8.941  11.012
74193ION    NA+45809   6.893  20.965  14.938
74194ION    NA+45810  10.881   0.278  12.755
74195ION    NA+45811  37.071  26.416   0.411
74196ION    NA+45812  34.886   4.166   3.739
74197ION    NA+45813  17.807  42.122   4.957
74198ION    NA+45814  32.904  13.064   4.183
74199ION    NA+45815  17.318  10.038   4.034
74200ION    NA+45816  37.315  16.856   3.078
74201ION    NA+45817   6.384  16.790  12.837
74202ION    NA+45818  43.172  23.459  12.322
74203ION    NA+45819  27.747  14.706   3.941
74204ION    NA+45820   0.737  28.432   4.888
74205ION    NA+45821   0.890  21.708   1.368
74206ION    NA+45822  44.509  31.911   2.554
74207ION    NA+45823  35.298   6.924   2.969
74208ION    NA+45824  14.922  19.051   4.212
74209ION    NA+45825  12.264   0.137   1.371
74210ION    NA+45826  31.813  21.749   3.003
74211ION    NA+45827  10.387  30.430  11.149
74212ION    NA+45828  22.737  11.674   3.543
74213ION    NA+45829  19.815  24.764   4.618
74214ION    NA+45830  19.005  37.848  11.360
74215ION    NA+45831  11.095  29.532   0.171
74216ION    NA+45832  23.163  17.353  14.439
74217ION    NA+45833  36.768  28.204   3.231
74218ION    NA+45834  25.927  29.433   4.126
74219ION    NA+45835  24.767  28.886   1.405
74220ION    NA+45836  33.517  14.264   3.160
74221ION    NA+45837  40.131  12.688  13.053
74222ION    NA+45838  36.825  19.463   0.392
74223ION    NA+45839  34.264  38.018   0.468
74224ION    NA+45840   0.381  31.478  12.995
74225ION    NA+45841   8.987  26.024  11.214
74226ION    NA+45842  39.731  43.694  11.938
74227ION    NA+45843  10.411   2.773  12.187
74228ION    NA+45844  15.134  27.432  13.591
74229ION    NA+45845  24.373  28.222   3.252
74230ION    NA+45846  13.065  10.443   0.239
74231ION    NA+45847   8.933  43.465   0.572
74232ION    NA+45848  23.518  19.252  13.274
74233ION    NA+45849  28.157  44.296   0.837
74234ION    NA+45850   1.564  39.659  11.135
74235ION    NA+45851  30.386  33.931   1.709
74236ION    NA+45852  41.245  28.282   4.502
74237ION    NA+45853  24.656  21.438  14.300
74238ION    NA+45854  20.856  27.372  12.364
74239ION    NA+45855   0.840  23.801  12.830
74240ION    NA+45856  34.433  20.458   0.479
74241ION    NA+45857  31.020   5.235  14.640
74242ION    NA+45858  38.095  26.766  10.585
74243ION    NA+45859  27.578  14.255  12.915
74244ION    NA+45860  29.900  10.069   3.755
74245ION    NA+45861  36.200  11.150   2.794
74246ION    NA+45862  38.876  14.277   1.371
74247ION    NA+45863   7.189  41.433  14.249
74248ION    NA+45864  27.437  39.228  11.923
74249ION    NA+45865  31.597  23.278   2.361
74250ION    NA+45866  37.570  38.313   4.280
74251ION    NA+45867  19.672   5.656   4.634
74252ION    NA+45868  27.192  17.334   4.220
74253ION    NA+45869  31.159  25.593  14.121
74254ION    NA+45870   0.927  12.096   0.354
74255ION    NA+45871  26.046   6.302   3.363
74256ION    NA+45872  16.045  25.035   1.883
74257ION    NA+45873  21.717  44.415  14.737
74258ION    NA+45874  23.821  31.611   1.311
74259ION    NA+45875  27.581  10.741   3.355
74260ION    NA+45876   9.167  21.691  14.612
74261ION    NA+45877  23.773  22.782   2.337
74262ION    NA+45878  42.750  32.151   1.786
74263ION    NA+45879  13.146  41.413   5.249
74264ION    NA+45880   8.250  11.537   5.160
74265ION    NA+45881   6.501  34.222  11.696
74266ION    NA+45882  23.570  29.319   4.893
74267ION    NA+45883  13.599  21.626   2.711
74268ION    NA+45884  31.267  22.047  11.521
74269ION    NA+45885  23.562  17.979   3.719
74270ION    NA+45886  35.337   7.889  14.914
74271ION    NA+45887  15.860  36.980  11.424
74272ION    NA+45888   6.313  26.934   2.597
74273ION    NA+45889  31.261  30.254   0.081
74274ION    NA+45890  14.330  15.893  13.664
74275ION    NA+45891   5.214   8.180  13.784
74276ION    NA+45892  40.293  19.661   0.509
74277ION    NA+45893   3.676  30.399   1.025
74278ION    NA+45894   7.370  28.338   5.005
74279ION    NA+45895  28.439  27.275   3.958
74280ION    NA+45896   7.619  39.513  13.583
74281ION    NA+45897   2.090  37.496  12.952
74282ION    NA+45898  29.057  44.371   0.409
74283ION    NA+45899  17.875   6.176  14.283
74284ION    NA+45900   6.166   6.388   5.007
74285ION    NA+45901  38.695  25.348   4.622
74286ION    NA+45902  41.691   3.443   2.126
74287ION    NA+45903  40.011  42.040   0.378
74288ION    NA+45904  28.972  18.777  11.923
74289ION    NA+45905  36.215   8.117   2.778
74290ION    NA+45906  20.280  10.165   0.413
74291ION    NA+45907  39.283  32.143   0.736
74292ION    NA+45908  20.302  12.543  13.563
74293ION    NA+45909  21.472   6.416  10.954
74294ION    NA+45910  40.242   9.693  13.426
74295ION    NA+45911  44.689  41.292   4.014
74296ION    NA+45912  10.733  24.322   3.592
74297ION    NA+45913  12.903  26.147  12.324
74298ION    NA+45914   9.580  16.917   0.817
74299ION    NA+45915  43.135  37.883  12.732
74300ION    NA+45916  33.969  43.997   4.654
74301ION    NA+45917  26.556   7.109   0.454
74302ION    NA+45918   9.642  36.350  10.974
74303ION    NA+45919  38.460  19.087  10.530
74304ION    NA+45920  38.476  24.506  11.539
74305ION    NA+45921   7.126   9.076   0.030
74306ION    NA+45922  43.235  37.834   4.555
74307ION    NA+45923  20.109  18.702   0.651
74308ION    NA+45924  23.205  37.711   3.140
74309ION    NA+45925   8.575  37.289  14.529
74310ION    NA+45926  19.240   6.788  13.105
74311ION    NA+45927  16.859  34.052   0.879
74312ION    NA+45928  44.772   4.167  13.495
74313ION    NA+45929  12.676   7.051   4.327
74314ION    NA+45930  38.228   8.250   1.466
74315ION    NA+45931  17.483   3.296   3.562
74316ION    NA+45932   5.313  24.551   3.373
74317ION    NA+45933   1.458  21.259   0.322
74318ION    NA+45934  22.794  14.764  11.577
74319ION    NA+45935   2.390   4.720  12.004
74320ION    NA+45936  20.015  17.123  12.454
74321ION    NA+45937  34.931  38.962  10.999
74322ION    NA+45938  24.163  39.114   1.165
74323ION    NA+45939   7.851  34.855   9.737
74324ION    NA+45940  21.887  29.386  13.020
74325ION    NA+45941   0.182  41.779  11.023
74326ION    NA+45942  12.921  15.394   3.396
74327ION    NA+45943   6.887  23.646  12.908
74328ION    NA+45944  12.551  27.060  13.598
74329ION    NA+45945   0.196  23.009  13.531
74330ION    NA+45946   2.597  40.926   4.940
74331ION    NA+45947   1.240  42.789   3.445
74332ION    NA+45948  35.775   6.136  14.104
74333ION    NA+45949  19.886  28.552   0.652
74334ION    NA+45950  14.418  22.939   9.839
74335ION    NA+45951  10.577  18.802  12.937
74336ION    NA+45952  41.601   5.206   3.951
74337ION    NA+45953  11.306  44.264   2.212
74338ION    NA+45954  11.007   0.998  13.241
74339ION    NA+45955  22.798  18.319   4.125
74340ION    NA+45956  13.872  10.584   1.325
74341ION    NA+45957  17.455  35.925   4.630
74342ION    NA+45958   5.784  37.576  13.011
74343ION    NA+45959  44.010  25.847  11.773
74344ION    NA+45960   8.692  13.783   0.991
74345ION    NA+45961  33.477  19.507  13.648
74346ION    NA+45962  12.775  36.291  10.632
74347ION    NA+45963  30.313  12.489   4.958
74348ION    NA+45964   6.454  35.147  14.891
74349ION    NA+45965  10.258  26.202  12.514
74350ION    NA+45966   3.617   5.447  14.764
74351ION    NA+45967  17.997  29.961   0.566
74352ION    NA+45968  18.067  33.435   2.831
74353ION    NA+45969  44.223  31.821   1.693
74354ION    NA+45970  10.752  26.880  14.334
74355ION    NA+45971  43.973   5.192   3.568
74356ION    NA+45972  37.147  11.002  13.381
74357ION    NA+45973   5.011  18.721   1.777
74358ION    NA+45974  41.492  12.860  12.067
74359ION    NA+45975  21.927  26.909  11.396
74360ION    NA+45976  40.621  20.388  12.790
74361ION    NA+45977   5.834   9.815  10.685
74362ION    NA+45978  16.987  11.609  11.185
74363ION    NA+45979  30.601  18.388  10.672
74364ION    NA+45980   5.629  27.779   2.714
74365ION    NA+45981  36.098  39.288   4.378
74366ION    NA+45982   1.941  44.194   3.056
74367ION    NA+45983  37.095   6.728   3.933
74368ION    NA+45984  27.447  27.125   1.803
74369ION    NA+45985  31.392  26.059   2.312
74370ION    NA+45986  26.046  29.951  10.753
74371ION    NA+45987  41.937  12.610   3.095
74372ION    NA+45988   2.731  28.926  13.465
74373ION    NA+45989  10.126  24.017   2.710
74374ION    NA+45990  12.844  38.035   2.811
74375ION    NA+45991  11.410  34.101   1.008
74376ION    NA+45992   8.265  32.100  13.615
74377ION    NA+45993   5.589   8.028  11.884
74378ION    NA+45994  28.061  33.094  11.063
74379ION    NA+45995   8.684  12.181  12.721
74380ION    NA+45996  15.595  28.589  10.959
74381ION    NA+45997  34.800  11.872  11.959
74382ION    NA+45998  16.204   0.463  13.973
74383ION    NA+45999  34.432  17.279   0.364
74384ION    NA+46000   3.119  35.736   1.257
74385ION    NA+46001  38.557   1.852  13.616
74386ION    NA+46002  16.220  40.219   2.693
74387ION    NA+46003  37.185   5.847  12.077
74388ION    NA+46004  38.916  26.066   3.901
74389ION    NA+46005  38.805  35.149  13.708
74390ION    NA+46006  28.841   8.539   3.971
74391ION    NA+46007  23.345  28.063   3.248
74392ION    NA+46008  13.700  24.923   4.037
74393ION    NA+46009   4.767   1.058   9.657
74394ION    NA+46010  10.317   1.240  14.893
74395ION    NA+46011  39.763  37.940   1.805
74396ION    NA+46012  35.752  23.119  10.880
74397ION    NA+46013  11.728  34.030  14.075
74398ION    NA+46014  29.725  24.806   0.825
74399ION    NA+46015  17.444   4.608   0.996
74400ION    NA+46016  39.328  30.827   4.185
74401ION    NA+46017  39.848  39.487  14.347
74402ION    NA+46018   0.751   5.599  14.143
74403ION    NA+46019  40.925  23.382   2.451
74404ION    NA+46020   6.926   7.696   2.168
74405ION    NA+46021  36.314  28.996  10.875
74406ION    NA+46022   5.034  14.918   4.518
74407ION    NA+46023  40.450  12.084  13.807
74408ION    NA+46024  17.960  35.012  14.040
74409ION    NA+46025   5.549   0.389   2.662
74410ION    NA+46026  14.220  12.679   0.488
74411ION    NA+46027  44.736  20.290  11.647
74412ION    NA+46028   1.446  26.117   0.874
74413ION    NA+46029  37.529  19.973  11.721
74414ION    NA+46030  42.876  16.553   4.030
74415ION    NA+46031  40.769   4.962   3.274
74416ION    NA+46032  13.206  41.481  12.394
74417ION    NA+46033  14.437   8.363   0.724
74418ION    NA+46034  23.958  18.891  10.831
74419ION    NA+46035  38.905  29.520  12.706
74420ION    NA+46036  44.887  43.552   0.005
74421ION    NA+46037  41.401  42.997   0.570
74422ION    NA+46038  42.976  35.626  12.401
74423ION    NA+46039  20.627  36.474  14.233
74424ION    NA+46040   6.927   1.759   0.992
74425ION    NA+46041  30.572  24.808   5.026
74426ION    NA+46042  24.747  13.285  10.630
74427ION    NA+46043   4.548  32.160   0.075
74428ION    NA+46044  30.470  33.955  13.627
74429ION    NA+46045  32.636   6.546   1.819
74430ION    NA+46046  30.571   5.987   0.134
74431ION    NA+46047  34.484   9.876   0.721
74432ION    NA+46048  24.860  36.385   1.122
74433ION    NA+46049  28.087  33.941  11.596
74434ION    NA+46050  20.256  38.306  12.802
74435ION    NA+46051   4.594  25.603  12.667
74436ION    NA+46052  13.180  21.248  14.579
74437ION    NA+46053  36.465   4.745  11.771
74438ION    NA+46054   0.327  15.322   0.507
74439ION    NA+46055   1.675  39.099   1.118
74440ION    NA+46056  33.396  28.661   5.625
74441ION    NA+46057   8.245  32.863   2.436
74442ION    NA+46058  42.794  28.773   1.720
74443ION    NA+46059  12.686   5.902   1.441
74444ION    NA+46060  40.043  28.468   3.369
74445ION    NA+46061  18.179  43.673   3.155
74446ION    NA+46062  38.187   6.438   4.247
74447ION    NA+46063  34.012  29.189   0.709
74448ION    NA+46064  17.551  27.085   4.314
74449ION    NA+46065  43.325  21.818  11.064
74450ION    NA+46066  25.750  21.196  13.388
74451ION    NA+46067   3.788  27.291  13.691
74452ION    NA+46068  10.262   9.135  12.470
74453ION    NA+46069  14.148   5.137   4.127
74454ION    NA+46070  20.914  32.607   3.968
74455ION    NA+46071  23.343   3.198  11.268
74456ION    NA+46072  43.608  26.145   0.959
74457ION    NA+46073  23.733   3.221  14.057
74458ION    NA+46074  20.313  18.718   3.998
74459ION    NA+46075  25.345   2.308   1.797
74460ION    NA+46076  20.702  29.118   3.870
74461ION    NA+46077   3.283   6.427   2.438
74462ION    NA+46078  26.644  32.531  10.304
74463ION    NA+46079  31.476   2.351  12.038
74464ION    NA+46080  22.281   6.428  11.542
74465ION    NA+46081  15.181  32.673  12.399
74466ION    NA+46082  10.704  40.835  12.345
74467ION    NA+46083  16.525   8.073   1.852
74468ION    NA+46084  18.481  33.079  13.576
74469ION    NA+46085  42.044  20.522   3.837
74470ION    NA+46086   7.679  24.969  12.013
74471ION    NA+46087  43.804  33.273   3.687
74472ION    NA+46088   1.220  12.175  12.684
74473ION    NA+46089  20.406  34.571   3.001
74474ION    NA+46090   6.634  30.526   0.036
74475ION    NA+46091  16.903  21.602  11.321
74476ION    NA+46092  26.294   2.611   2.010
74477ION    NA+46093  33.528   3.068  13.535
74478ION    NA+46094  11.755  16.121   9.883
74479ION    NA+46095  30.514   8.284   4.906
74480ION    NA+46096  42.145  42.011   3.858
74481ION    NA+46097  30.325  28.369  13.812
74482ION    NA+46098   5.602   2.778   3.508
74483ION    NA+46099  20.778  30.502  14.791
74484ION    NA+46100   1.283   0.254   4.070
74485ION    NA+46101  11.136  24.036  11.626
74486ION    NA+46102  23.912  10.499   3.892
74487ION    NA+46103  34.831  38.696   3.094
74488ION    NA+46104   1.419  32.393   2.421
74489ION    NA+46105  21.298   5.528  11.894
74490ION    NA+46106  19.088  38.718   4.421
74491ION    NA+46107  35.486   7.954   3.271
74492ION    NA+46108   9.600  41.480   0.834
74493ION    NA+46109  11.444  22.736   0.729
74494ION    NA+46110   0.461  27.141   0.167
74495ION    NA+46111   6.362  20.256   3.368
74496ION    NA+46112  13.061  37.402  11.075
74497ION    NA+46113   6.136  24.940   3.787
74498ION    NA+46114  11.359  10.137   1.377
74499ION    NA+46115  19.734   2.962  11.479
74500ION    NA+46116  29.376  36.771   2.692
74501ION    NA+46117  39.448  11.864   2.843
74502ION    NA+46118  16.586  28.692  11.042
74503ION    NA+46119  12.553  11.960   4.455
74504ION    NA+46120  13.646   7.180  10.789
74505ION    NA+46121  36.835   8.015  11.287
74506ION    NA+46122   8.764  40.022  14.855
74507ION    NA+46123  27.611  19.103   0.444
74508ION    NA+46124  10.908  10.637  14.877
74509ION    NA+46125  21.758  36.568  14.882
74510ION    NA+46126  25.042  28.574   4.639
74511ION    NA+46127  36.884  11.543   2.387
74512ION    NA+46128  38.101  10.851  11.617
74513ION    NA+46129  26.541  42.337  11.114
74514ION    NA+46130  30.094  21.174  11.395
74515ION    NA+46131  16.769  14.795   3.657
74516ION    NA+46132  15.644  31.292   2.918
74517ION    NA+46133  10.596  16.575   3.274
74518ION    NA+46134  29.459  13.922   5.492
74519ION    NA+46135  44.758   2.924   1.179
74520ION    NA+46136  23.444   2.046   3.346
74521ION    NA+46137  19.888  19.876   3.433
74522ION    NA+46138  28.322  30.524   2.005
74523ION    NA+46139  28.947  29.208  12.096
74524ION    NA+46140  23.818   7.361  11.740
74525ION    NA+46141  37.013  23.940   0.996
74526ION    NA+46142  15.165  20.131  12.216
74527ION    NA+46143  37.307  41.423  10.077
74528ION    NA+46144  29.205  31.956   4.638
74529ION    NA+46145  14.221  14.217  12.510
74530ION    NA+46146   7.700  15.574   5.082
74531ION    NA+46147  30.201  23.354  12.022
74532ION    NA+46148  12.269   2.951   1.202
74533ION    NA+46149  25.627  29.694   0.209
74534ION    NA+46150  12.603  31.388   2.696
74535ION    NA+46151   0.881  37.790  10.886
74536ION    NA+46152  14.603  11.412  11.097
74537ION    NA+46153  27.133  32.118   3.922
74538ION    NA+46154   0.155  23.117   5.487
74539ION    NA+46155  10.857   7.273  13.878
74540ION    NA+46156  11.364  41.729  13.492
74541ION    NA+46157  16.199  18.388   9.915
74542ION    NA+46158   4.917  18.857  14.539
74543ION    NA+46159  34.169  42.081  13.330
74544ION    NA+46160  35.746  13.692   4.924
74545ION    NA+46161  36.250  29.284   1.873
74546ION    NA+46162  21.127   7.633   2.302
74547ION    CL-46163  40.926  20.108  12.957
74548ION    CL-46164  42.888  32.621  12.943
74549ION    CL-46165  28.532  16.555  10.495
74550ION    CL-46166   4.699  17.402  13.831
74551ION    CL-46167  25.764  29.687  10.978
74552ION    CL-46168   6.606  29.348   1.493
74553ION    CL-46169   4.415  19.571  10.390
74554ION    CL-46170  34.199   7.415   1.207
74555ION    CL-46171  13.240  33.743   2.593
74556ION    CL-46172  24.116  30.528   5.222
74557ION    CL-46173  38.170  24.574  11.871
74558ION    CL-46174  34.856  29.428  13.398
74559ION    CL-46175  19.494  42.876   4.969
74560ION    CL-46176  44.364  35.628  11.097
74561ION    CL-46177  36.473  27.611   0.517
74562ION    CL-46178  13.301  30.233  14.576
74563ION    CL-46179  11.245  23.039   3.119
74564ION    CL-46180   1.322  13.772   3.105
74565ION    CL-46181  33.200  19.118  14.737
74566ION    CL-46182  19.331  10.686   3.887
74567ION    CL-46183  41.144   1.539   2.173
74568ION    CL-46184  40.665  34.934   2.632
74569ION    CL-46185  24.018  12.728  13.889
74570ION    CL-46186  21.356  32.588   3.903
74571ION    CL-46187  21.228  19.775  14.358
74572ION    CL-46188   4.257  32.802   3.960
74573ION    CL-46189  40.512  17.941   2.114
74574ION    CL-46190  12.837   9.689   1.874
74575ION    CL-46191   0.737   7.979   4.237
74576ION    CL-46192  16.159  12.436   2.305
74577ION    CL-46193  32.991  15.251   1.317
74578ION    CL-46194  39.517  29.097  14.903
74579ION    CL-46195  33.859  22.380  13.887
74580ION    CL-46196   1.686  37.395  13.105
74581ION    CL-46197  36.631   3.056   1.310
74582ION    CL-46198  36.806  22.838  12.134
74583ION    CL-46199  17.612   5.035   1.145
74584ION    CL-46200   3.949  31.882  12.129
74585ION    CL-46201  35.064  21.673   1.842
74586ION    CL-46202  26.415  14.181  14.984
74587ION    CL-46203  34.134  37.577  13.735
74588ION    CL-46204  21.983   2.005   2.281
74589ION    CL-46205  17.553   4.884  12.837
74590ION    CL-46206   7.427  11.691  12.099
74591ION    CL-46207  30.174  23.846   3.529
74592ION    CL-46208  21.897  27.309  11.200
74593ION    CL-46209   2.612   0.407  13.747
74594ION    CL-46210   7.182  41.980  10.674
74595ION    CL-46211  30.012   4.879   4.997
74596ION    CL-46212   7.302  26.724   2.140
74597ION    CL-46213  18.116  24.404  13.881
74598ION    CL-46214  30.722  39.279   2.754
74599ION    CL-46215  14.931   2.775   4.294
74600ION    CL-46216  24.830  43.194   4.161
74601ION    CL-46217  37.795  20.236  13.833
74602ION    CL-46218  32.062   6.125  11.034
74603ION    CL-46219  35.679  42.376   1.254
74604ION    CL-46220  43.729  21.118   3.724
74605ION    CL-46221  17.053  41.218   1.267
74606ION    CL-46222  28.439  43.222  13.704
74607ION    CL-46223  32.132   3.323   2.599
74608ION    CL-46224  11.947  19.715  12.255
74609ION    CL-46225  22.124  26.976   5.054
74610ION    CL-46226   3.991  27.131  13.315
74611ION    CL-46227  38.004  22.648  12.621
74612ION    CL-46228  16.699  18.204   0.297
74613ION    CL-46229  40.615  43.016   2.324
74614ION    CL-46230   9.515  16.121   5.112
74615ION    CL-46231  37.720  37.681  11.610
74616ION    CL-46232  18.097  32.945   0.404
74617ION    CL-46233  25.899   1.325  14.761
74618ION    CL-46234  43.780   9.186  13.031
74619ION    CL-46235  20.047  10.870  12.071
74620ION    CL-46236  44.775  42.599  14.105
74621ION    CL-46237  33.046  12.863  13.107
74622ION    CL-46238  12.115  29.209   3.800
74623ION    CL-46239  37.122  28.280  12.064
74624ION    CL-46240   1.374   7.050   4.766
74625ION    CL-46241  31.887  13.217  12.441
74626ION    CL-46242  28.124  22.990  11.123
74627ION    CL-46243  35.994  18.853   3.611
74628ION    CL-46244  31.783  13.230   2.740
74629ION    CL-46245  21.516  44.716  14.457
74630ION    CL-46246   0.987   5.731   2.326
74631ION    CL-46247   0.991  32.801   3.380
74632ION    CL-46248   4.784  44.690   2.748
74633ION    CL-46249  12.523  33.865  14.988
74634ION    CL-46250  20.612  30.377   1.942
74635ION    CL-46251  38.848  24.277  10.252
74636ION    CL-46252   4.651   8.437   3.690
74637ION    CL-46253  36.943   3.432  14.694
74638ION    CL-46254  37.354  40.874  12.591
74639ION    CL-46255  33.602   3.458  13.311
74640ION    CL-46256   9.442  28.861  11.281
74641ION    CL-46257  21.057  24.453  12.922
74642ION    CL-46258  13.170   6.821   9.579
74643ION    CL-46259  25.659  24.631  10.721
74644ION    CL-46260  10.716  32.890   0.459
74645ION    CL-46261  42.727  22.961   4.943
74646ION    CL-46262  38.598  42.580   3.972
74647ION    CL-46263   8.925  39.069   2.212
74648ION    CL-46264  37.148  10.711  13.030
74649ION    CL-46265   2.509   0.471  11.114
74650ION    CL-46266  32.488   1.569   2.502
74651ION    CL-46267  34.374  43.028   3.221
74652ION    CL-46268  14.173  38.923   1.411
74653ION    CL-46269   3.527  24.725  10.749
74654ION    CL-46270  25.717  38.687   3.767
74655ION    CL-46271  15.649  16.854   3.368
74656ION    CL-46272  10.357  36.535   4.748
74657ION    CL-46273  12.621  26.514  12.379
74658ION    CL-46274   8.164  43.169  11.619
74659ION    CL-46275  30.901  39.194   0.205
74660ION    CL-46276  28.245  32.621   0.016
74661ION    CL-46277  44.177   6.190  10.671
74662ION    CL-46278  42.854   0.552   3.203
74663ION    CL-46279  28.421   8.336  12.921
74664ION    CL-46280  17.086  13.904   5.106
74665ION    CL-46281  31.900  26.281  14.524
74666ION    CL-46282  11.836  21.188   1.129
74667ION    CL-46283  30.753  40.194   2.107
74668ION    CL-46284  37.727  24.886   5.087
74669ION    CL-46285  34.833   5.152   0.066
74670ION    CL-46286  40.355  33.619   3.872
74671ION    CL-46287   2.408  23.199  14.516
74672ION    CL-46288  34.243  42.554  14.224
74673ION    CL-46289  12.316   7.112   4.057
74674ION    CL-46290  36.594  19.110   1.997
74675ION    CL-46291  30.090  30.498  12.050
74676ION    CL-46292  14.106  25.183  12.204
74677ION    CL-46293  10.111  17.612  11.205
74678ION    CL-46294  12.712  31.407  11.012
74679ION    CL-46295  41.303  20.811   0.760
74680ION    CL-46296  23.309  29.545   3.339
74681ION    CL-46297  43.878  15.742  13.476
74682ION    CL-46298  35.169  12.115  11.011
74683ION    CL-46299  37.320  13.679   3.643
74684ION    CL-46300  18.583  43.767  10.304
74685ION    CL-46301  15.544   3.581   9.923
74686ION    CL-46302  32.506  22.559  10.017
74687ION    CL-46303   4.889  19.045   3.184
74688ION    CL-46304  38.832  43.144   0.140
74689ION    CL-46305  40.252   4.843  11.990
74690ION    CL-46306   4.846  23.414   3.739
74691ION    CL-46307  29.311  24.582   0.633
74692ION    CL-46308  43.503  31.107   1.257
74693ION    CL-46309  44.169  35.510  14.473
74694ION    CL-46310  20.596  37.152  11.651
74695ION    CL-46311  39.377  44.437   1.622
74696ION    CL-46312  20.741  40.510   1.695
74697ION    CL-46313  41.292   5.440  11.909
74698ION    CL-46314  42.984  22.140  11.064
74699ION    CL-46315  25.431  29.529  12.822
74700ION    CL-46316  16.668  30.658   1.402
74701ION    CL-46317  39.964  39.337  12.997
74702ION    CL-46318   9.095  22.760   3.194
74703ION    CL-46319  16.583  28.083  12.868
74704ION    CL-46320  27.881   4.414  10.924
74705ION    CL-46321  44.412  37.434   1.841
74706ION    CL-46322  44.131   1.485  10.674
74707ION    CL-46323  19.921   9.506   4.408
74708ION    CL-46324  27.290  28.620   0.111
74709ION    CL-46325   3.533  30.816   1.093
74710ION    CL-46326  39.419  36.144  12.766
74711ION    CL-46327  17.055  13.755   1.073
74712ION    CL-46328   0.963  15.812   3.733
74713ION    CL-46329  35.938  23.659  12.828
74714ION    CL-46330  16.625  12.910  14.592
74715ION    CL-46331   5.100  22.050   0.988
74716ION    CL-46332  30.743  24.433  14.674
74717ION    CL-46333   0.173  37.500   0.478
74718ION    CL-46334  27.162  15.876   0.585
74719ION    CL-46335  22.334  37.243   5.061
74720ION    CL-46336  21.719   3.349   0.001
74721ION    CL-46337  11.837   6.453  10.570
74722ION    CL-46338  16.016   3.905   1.334
74723ION    CL-46339   7.477  42.746  14.318
74724ION    CL-46340  16.172  30.086  14.974
74725ION    CL-46341  37.070   0.654   2.776
74726ION    CL-46342  38.527  43.220  11.128
74727ION    CL-46343  12.738  24.921   1.706
74728ION    CL-46344  13.566  26.898   1.612
74729ION    CL-46345  37.200   2.863   2.659
74730ION    CL-46346   8.128  36.103   3.277
74731ION    CL-46347   2.337  31.415   9.970
74732ION    CL-46348   0.731  27.869  13.015
74733ION    CL-46349  26.721  25.239   3.853
74734ION    CL-46350   0.158   2.994   0.987
74735ION    CL-46351  16.429  19.734   3.654
74736ION    CL-46352   3.483  27.456  13.987
74737ION    CL-46353   2.718   2.785   0.841
74738ION    CL-46354  32.146  33.697  11.077
74739ION    CL-46355   1.251   9.663  13.424
74740ION    CL-46356  35.338  10.464  11.804
74741ION    CL-46357  18.787  18.347  11.453
74742ION    CL-46358  13.656  11.535  14.729
74743ION    CL-46359  15.640   4.423   3.192
74744ION    CL-46360  38.558  17.276   3.130
74745ION    CL-46361  21.958   9.947  12.696
74746ION    CL-46362  39.012   4.080   3.509
74747ION    CL-46363  20.729  41.060  11.618
74748ION    CL-46364   0.451  18.508  14.848
74749ION    CL-46365   3.056  15.607  12.898
74750ION    CL-46366   6.196  21.632  12.306
74751ION    CL-46367  21.819  36.394  11.007
74752ION    CL-46368  13.883  25.331   4.011
74753ION    CL-46369  14.225  26.230  14.738
74754ION    CL-46370   8.165  40.104   9.966
74755ION    CL-46371  40.981  23.523   2.024
74756ION    CL-46372  25.084  23.690   2.215
74757ION    CL-46373  24.422  14.172  11.016
74758ION    CL-46374   9.143  17.050   0.859
74759ION    CL-46375  35.983  37.474   3.703
74760ION    CL-46376  28.217  27.261   2.544
74761ION    CL-46377  37.552  22.658   3.266
74762ION    CL-46378  26.805   9.074  14.448
74763ION    CL-46379   4.888  30.319   2.571
74764ION    CL-46380  16.394  10.330   5.111
74765ION    CL-46381  26.588  41.082   1.386
74766ION    CL-46382  44.099  36.004   3.650
74767ION    CL-46383  11.869  29.986   0.858
74768ION    CL-46384  10.174   4.516   3.352
74769ION    CL-46385  35.270  17.660  13.002
74770ION    CL-46386   3.916   9.771   3.143
74771ION    CL-46387   5.444   0.468   2.217
74772ION    CL-46388  36.431  20.627   3.737
74773ION    CL-46389  35.534   0.707  14.216
74774ION    CL-46390  32.983  30.109  14.579
74775ION    CL-46391  18.742  36.725   3.569
74776ION    CL-46392  31.667  38.156   5.155
74777ION    CL-46393  13.564  25.577  13.028
74778ION    CL-46394  37.708  16.776   3.295
74779ION    CL-46395  23.739   5.804   4.419
74780ION    CL-46396  10.008  16.747   0.719
74781ION    CL-46397  26.330  33.528   5.047
74782ION    CL-46398  28.898  15.638   3.704
74783ION    CL-46399   8.791   3.917   3.338
74784ION    CL-46400  25.587  37.790   2.833
74785ION    CL-46401   2.196  38.847   9.684
74786ION    CL-46402  16.610  43.920  14.504
74787ION    CL-46403   7.113  29.084  12.982
74788ION    CL-46404  13.664   7.063  10.355
74789ION    CL-46405  12.227  32.129  11.505
74790ION    CL-46406  43.465  17.294  11.721
74791ION    CL-46407  35.859  22.988   3.698
74792ION    CL-46408  37.569   9.998  14.845
74793ION    CL-46409  38.774   0.974   1.096
74794ION    CL-46410   7.328  36.054  14.245
74795ION    CL-46411  34.131   6.667   0.729
74796ION    CL-46412  41.961  32.402  11.957
74797ION    CL-46413   9.717  34.310   3.155
74798ION    CL-46414  35.741  29.812   4.106
74799ION    CL-46415  33.676  33.690  10.085
74800ION    CL-46416  18.797  17.549  11.896
74801ION    CL-46417   9.968  41.268   1.004
74802ION    CL-46418   1.137  39.492  11.112
74803ION    CL-46419   3.111  39.587  13.362
74804ION    CL-46420  16.167  37.294  11.522
74805ION    CL-46421  33.320  11.345  10.765
74806ION    CL-46422  11.184   9.482  14.160
74807ION    CL-46423  32.410  33.097   2.446
74808ION    CL-46424  21.135   4.431   1.325
74809ION    CL-46425  37.266   7.733   4.045
74810ION    CL-46426  28.169   2.563  11.114
74811ION    CL-46427   5.213  29.868  14.024
74812ION    CL-46428  11.760  23.165  14.406
74813ION    CL-46429  34.833  12.161   0.890
74814ION    CL-46430  26.514  30.505  13.818
74815ION    CL-46431   6.018  21.918   1.363
74816ION    CL-46432  22.083  13.331   2.258
74817ION    CL-46433  13.803  26.400   2.756
74818ION    CL-46434  12.234   8.120   2.302
74819ION    CL-46435  38.967  43.717   2.701
74820ION    CL-46436  33.880  36.344   2.620
74821ION    CL-46437   8.920  34.249  13.961
74822ION    CL-46438  19.996  33.922   1.853
74823ION    CL-46439  23.849  16.158   0.569
74824ION    CL-46440  11.529  23.956  11.827
74825ION    CL-46441   2.263  37.001  13.845
74826ION    CL-46442  38.244  14.879   3.910
74827ION    CL-46443  34.439  38.739   2.863
74828ION    CL-46444  34.407   5.708   0.790
74829ION    CL-46445  29.983  40.863  12.111
74830ION    CL-46446   9.645   2.831  13.506
74831ION    CL-46447  43.701  35.330   4.273
74832ION    CL-46448  17.984  19.155  11.539
74833ION    CL-46449  16.751  43.715   2.394
74834ION    CL-46450  23.762  43.567  13.567
74835ION    CL-46451  28.437   5.421   1.102
74836ION    CL-46452  18.752  20.909   3.735
74837ION    CL-46453  40.824  15.666   0.472
74838ION    CL-46454  23.067   6.341  12.413
74839ION    CL-46455  20.737  29.475   0.178
74840ION    CL-46456  31.596  40.645  13.038
74841ION    CL-46457  31.824  21.576   2.582
74842ION    CL-46458  14.117  22.392  14.791
74843ION    CL-46459  41.815  37.661  14.018
74844ION    CL-46460  28.205  25.877   1.290
74845ION    CL-46461  22.866  44.948  11.866
74846ION    CL-46462  18.198  33.694   3.173
74847ION    CL-46463   0.693  10.732   0.958
74848ION    CL-46464  31.793   4.771   5.019
74849ION    CL-46465   4.626  26.315  11.919
74850ION    CL-46466  10.616  27.617   1.800
74851ION    CL-46467  16.077  15.615  14.333
74852ION    CL-46468  22.983  29.768  11.456
74853ION    CL-46469  29.617  44.938  13.384
74854ION    CL-46470  34.588  20.346   2.367
74855ION    CL-46471  44.858  40.843  14.341
74856ION    CL-46472  39.713  39.585  13.933
74857ION    CL-46473   9.885  15.549   3.288
74858ION    CL-46474  40.811  39.872  12.940
74859ION    CL-46475  15.523   5.808  12.468
74860ION    CL-46476  23.192  18.195   3.889
74861ION    CL-46477  31.292  25.774  13.697
74862ION    CL-46478  33.244   5.083  12.226
74863ION    CL-46479  33.085  12.285   2.261
74864ION    CL-46480   0.905   5.840  12.319
74865ION    CL-46481  13.739  35.995  12.772
74866ION    CL-46482  27.100   4.030  14.707
74867ION    CL-46483  18.485  39.829  11.034
74868ION    CL-46484  16.309  20.673   2.134
74869ION    CL-46485  31.149  13.924  10.409
74870ION    CL-46486   1.649   1.478   2.592
74871ION    CL-46487  36.623   4.427  14.315
74872ION    CL-46488   9.875   3.624   4.919
74873ION    CL-46489  22.575  24.534   1.272
74874ION    CL-46490  31.430  22.579  14.558
74875ION    CL-46491  29.266   8.688   4.040
74876ION    CL-46492  38.075   9.244  11.056
74877ION    CL-46493  43.006  27.075   4.917
74878ION    CL-46494  14.123  26.296  11.193
74879ION    CL-46495   9.898   2.905   4.023
74880ION    CL-46496   7.986  28.598  14.015
74881ION    CL-46497  17.350  32.891   3.294
74882ION    CL-46498  26.339  26.076  11.508
74883ION    CL-46499  36.713  42.539   1.519
74884ION    CL-46500  19.191  38.432   4.098
74885ION    CL-46501   5.650  36.740   1.502
74886ION    CL-46502  41.791  17.198   2.705
74887ION    CL-46503  34.215  36.775  12.806
74888ION    CL-46504   7.138   8.654  14.862
74889ION    CL-46505  16.996  28.879  11.063
74890ION    CL-46506  36.077  28.390  13.585
74891ION    CL-46507  17.928  15.764   5.452
74892ION    CL-46508   7.969   0.088  12.833
74893ION    CL-46509  29.320  40.948   0.750
74894ION    CL-46510   4.781  30.708   3.488
74895ION    CL-46511  30.720  43.404  12.289
74896ION    CL-46512  23.225  14.581   2.385
74897ION    CL-46513  26.709  16.123   4.565
74898ION    CL-46514  38.734  24.507  11.143
74899ION    CL-46515  32.737  20.671   4.232
74900ION    CL-46516  36.319  18.128  13.618
74901ION    CL-46517   0.239   1.063   2.168
74902ION    CL-46518  14.616  20.745   3.101
74903ION    CL-46519  11.296  16.346  14.311
74904ION    CL-46520  33.945  22.006   0.902
74905ION    CL-46521  16.969  39.376   1.487
74906ION    CL-46522  38.593  13.668   2.417
74907ION    CL-46523  43.529   6.402  11.972
74908ION    CL-46524  18.723   0.842   0.088
74909ION    CL-46525  40.016  19.697   2.497
74910ION    CL-46526  17.776  18.776   3.630
74911ION    CL-46527  13.718  32.044   1.685
74912ION    CL-46528  43.405   0.451   4.188
74913ION    CL-46529  37.386  30.986   1.533
74914ION    CL-46530  40.579  11.109   2.159
74915ION    CL-46531   9.467  37.872  10.793
74916ION    CL-46532   5.156  36.017  14.573
74917ION    CL-46533  39.840  32.425  11.428
74918ION    CL-46534  30.359  40.920   3.219
74919ION    CL-46535   7.241  32.750   1.511
74920ION    CL-46536  38.371  38.094  14.942
74921ION    CL-46537  19.618  21.533  14.743
74922ION    CL-46538   5.592   8.395  11.615
74923ION    CL-46539  20.062  35.047  13.091
74924ION    CL-46540  26.889  36.387   3.558
74925ION    CL-46541  32.742  26.444   1.458
74926ION    CL-46542  18.015   6.538  14.503
74927ION    CL-46543  28.588  31.952   3.421
74928ION    CL-46544  10.512  36.195   2.439
74929ION    CL-46545   9.148  10.298   2.199
74930ION    CL-46546  36.522  17.561  10.669
74931ION    CL-46547  25.311   8.572  12.688
74932ION    CL-46548  12.248  16.581   0.736
74933ION    CL-46549  11.689  26.661  12.047
74934ION    CL-46550   4.412  24.411   0.903
74935ION    CL-46551  17.255  34.824  11.588
74936ION    CL-46552  27.549  24.056  14.342
74937ION    CL-46553  39.539   0.486   0.465
74938ION    CL-46554   1.183  40.257  12.545
74939ION    CL-46555  11.950  19.015  12.836
74940ION    CL-46556  25.123  19.039  14.783
74941ION    CL-46557  43.047   4.061  13.000
74942ION    CL-46558  33.261  30.208  13.719
74943ION    CL-46559  43.946  37.959  11.176
74944ION    CL-46560   7.123  44.497   4.330
74945ION    CL-46561  20.626  35.265   3.831
74946ION    CL-46562   1.170  37.568   0.520
74947ION    CL-46563  11.771  42.781   2.899
74948ION    CL-46564  14.768   1.615   3.394
74949ION    CL-46565  14.956  43.703  11.102
74950ION    CL-46566  33.689  28.136   1.468
74951ION    CL-46567  30.091  28.710  13.988
74952ION    CL-46568  37.515  26.296   0.432
74953ION    CL-46569  18.815   7.637   1.989
74954ION    CL-46570  20.738  30.893  11.135
74955ION    CL-46571  26.285  34.537  12.844
74956ION    CL-46572  44.349  44.238  11.313
74957ION    CL-46573  19.255  17.683   4.378
74958ION    CL-46574   7.889  27.619  13.771
74959ION    CL-46575  19.995  22.465   0.039
74960ION    CL-46576  43.567  10.594  12.974
74961ION    CL-46577  30.459  36.226   3.673
74962ION    CL-46578  24.462   3.179  12.954
74963ION    CL-46579  24.377  28.694   1.581
74964ION    CL-46580   7.268   7.843  12.815
74965ION    CL-46581  17.894  28.471  11.212
74966ION    CL-46582  23.445  11.580   0.894
74967ION    CL-46583  39.190  33.635  12.675
74968ION    CL-46584  17.128  28.053  11.186
74969ION    CL-46585   3.098   6.483  12.544
74970ION    CL-46586  24.202  26.249  12.988
74971ION    CL-46587  39.009  33.568   3.247
74972ION    CL-46588   5.650   7.596  12.015
74973ION    CL-46589  18.233  13.539   3.817
74974ION    CL-46590  43.330   0.662   5.163
74975ION    CL-46591  12.690  10.702   2.689
74976ION    CL-46592  29.078   8.112   2.585
74977ION    CL-46593  25.026   8.246  13.590
74978ION    CL-46594  42.851  10.860  10.847
74979ION    CL-46595  18.979  28.810  14.299
74980ION    CL-46596  17.114  26.134  13.572
74981ION    CL-46597  43.532  39.446   1.757
74982ION    CL-46598  32.936   4.446  11.536
74983ION    CL-46599  38.983  31.708  11.674
74984ION    CL-46600  35.755  11.181   2.709
74985ION    CL-46601  14.334  38.581   3.638
74986ION    CL-46602   2.063  37.055  11.508
74987ION    CL-46603  20.205   1.997  10.733
74988ION    CL-46604   9.008  35.492   3.723
74989ION    CL-46605  27.568   2.901  10.275
74990ION    CL-46606  19.038   9.004   1.539
74991ION    CL-46607   2.719  27.880   2.808
74992ION    CL-46608  18.989  22.748   3.233
74993ION    CL-46609  18.567  39.210   3.482
74994ION    CL-46610  42.497  25.538   4.375
74995ION    CL-46611  32.262  15.536  11.398
74996ION    CL-46612   5.243   6.368  10.722
74997ION    CL-46613  35.284  38.735   3.135
74998ION    CL-46614  37.017  36.905  12.258
74999ION    CL-46615  22.162  36.894  12.939
75000ION    CL-46616  18.260  41.492   3.369
75001ION    CL-46617  16.017  24.655  14.663
75002ION    CL-46618  14.565  42.781  14.265
75003ION    CL-46619  20.284  34.884  14.474
75004ION    CL-46620  24.152   6.822  14.758
75005ION    CL-46621  39.252  19.113  13.746
75006ION    CL-46622  20.948  27.522  14.754
75007ION    CL-46623  44.696  40.374   2.080
75008ION    CL-46624  38.707  24.691   1.025
75009ION    CL-46625  14.008  44.928  13.064
75010ION    CL-46626  39.359  28.541  13.290
75011ION    CL-46627   8.392  17.095  14.588
75012ION    CL-46628  28.499  23.751  11.653
75013ION    CL-46629  41.400  41.088   3.510
75014ION    CL-46630   8.703  15.159  13.186
75015ION    CL-46631   3.290   7.148   0.356
75016ION    CL-46632  36.097  16.778  13.867
75017ION    CL-46633   1.384  13.913   2.112
75018ION    CL-46634  22.254   6.904  14.973
75019ION    CL-46635  24.718  23.016  12.384
75020ION    CL-46636  33.415  19.267  12.117
75021ION    CL-46637   5.854  25.492  14.040
75022ION    CL-46638   6.036  28.700  11.623
75023ION    CL-46639  12.168  11.689  12.483
75024ION    CL-46640   8.988  27.639   3.256
75025ION    CL-46641   6.424   6.970  12.509
75026ION    CL-46642  41.068   0.734   3.658
75027ION    CL-46643  26.244  41.419   0.431
75028ION    CL-46644  27.112  24.646   1.448
75029ION    CL-46645  15.957  38.157   2.307
75030ION    CL-46646  26.013  42.586   0.048
75031ION    CL-46647  42.210   9.239   0.788
75032ION    CL-46648  27.147  24.833  11.088
75033ION    CL-46649   0.167  13.380   2.808
75034ION    CL-46650  34.847   8.810   1.480
75035ION    CL-46651  30.730   9.094   3.248
75036ION    CL-46652  34.236   0.459   0.907
75037ION    CL-46653  23.232  22.695   3.909
75038ION    CL-46654  23.995  28.862  12.575
75039ION    CL-46655  25.751   3.296  12.611
75040ION    CL-46656  31.963  10.616  14.809
75041ION    CL-46657  26.991   5.284   1.739
75042ION    CL-46658  26.699  15.769  13.832
75043ION    CL-46659  24.469  28.184  14.752
75044ION    CL-46660  26.635  22.526  13.805
75045ION    CL-46661  44.315  26.923   4.634
75046ION    CL-46662  38.001  34.155   3.702
75047ION    CL-46663   8.265   2.029  14.952
75048ION    CL-46664   5.653  11.075   4.238
75049ION    CL-46665  33.181  28.103   4.688
75050ION    CL-46666   0.705   4.713   2.346
75051ION    CL-46667   5.633  43.344   0.579
75052ION    CL-46668   8.153  26.436   1.700
75053ION    CL-46669  40.590  36.404  10.911
75054ION    CL-46670  15.303  44.258   1.177
75055ION    CL-46671  16.513  41.351  14.407
75056ION    CL-46672  40.124  10.871   5.116
75057ION    CL-46673   8.086   6.393  13.024
75058ION    CL-46674   4.657  21.219   1.328
75059ION    CL-46675  24.509  20.514   3.588
75060ION    CL-46676  42.842  44.209   9.929
75061ION    CL-46677  10.590  22.920   3.865
75062ION    CL-46678   3.195  19.202   0.491
75063ION    CL-46679  26.066   2.410  12.020
75064ION    CL-46680  21.009  38.030   4.169
75065ION    CL-46681  16.326  23.453  13.833
75066ION    CL-46682  31.690   6.858   4.190
75067ION    CL-46683  27.395  37.997  10.715
75068ION    CL-46684  24.728  26.447   3.664
75069ION    CL-46685  16.187   7.807   1.729
75070ION    CL-46686  11.261  12.024   4.678
75071ION    CL-46687  25.101   8.705   4.329
75072ION    CL-46688   1.386  38.412   4.055
75073ION    CL-46689  42.606  25.697  11.617
75074ION    CL-46690   2.009  34.759   4.009
75075ION    CL-46691   0.569  19.142   3.648
75076ION    CL-46692  16.260  18.082   2.937
75077ION    CL-46693   9.657  20.050   0.719
75078ION    CL-46694  42.406  17.438  12.074
75079ION    CL-46695  14.670  12.403  13.852
75080ION    CL-46696  38.480  14.347   0.316
75081ION    CL-46697  34.710  38.088   0.525
75082ION    CL-46698   6.921  38.094   2.233
75083ION    CL-46699  38.602  25.974   2.093
75084ION    CL-46700   9.842  39.248  11.298
75085ION    CL-46701   1.451  36.780  14.860
75086ION    CL-46702  32.828  41.327  10.903
75087ION    CL-46703  41.789  24.441  13.348
75088ION    CL-46704  13.013  31.572   3.694
75089ION    CL-46705  43.386   2.008   1.913
75090ION    CL-46706  41.439  28.470   4.145
75091ION    CL-46707   5.961  31.293   0.732
75092ION    CL-46708  22.381  15.327  14.826
75093ION    CL-46709   5.156  20.742   3.215
75094ION    CL-46710  17.724  33.476  10.325
75095ION    CL-46711  11.380   6.152   2.215
75096ION    CL-46712  35.648  11.325  12.207
75097ION    CL-46713  10.234  12.248  13.527
75098ION    CL-46714   4.359  30.653  11.919
75099ION    CL-46715   5.297  23.474   2.398
75100ION    CL-46716  28.014   4.608   1.504
75101ION    CL-46717   2.704  23.092   3.752
75102ION    CL-46718  39.479  31.123  12.858
75103ION    CL-46719  30.765  43.398  10.546
75104ION    CL-46720  42.069  18.929   1.351
75105ION    CL-46721  42.536  11.403  12.033
75106ION    CL-46722  14.648  23.437   1.591
75107ION    CL-46723  43.096  23.342  11.895
75108ION    CL-46724  22.404  18.256   4.356
75109ION    CL-46725  41.057   9.380   1.610
75110ION    CL-46726   0.352   0.704   4.764
75111ION    CL-46727  38.835  41.881   3.451
75112ION    CL-46728  32.505  15.384  13.814
75113ION    CL-46729  25.183  23.026  11.084
75114ION    CL-46730  22.459   0.121   0.288
75115ION    CL-46731  35.876   9.806   1.975
75116ION    CL-46732   2.515  36.536   0.399
75117ION    CL-46733  14.477  38.230   0.757
75118ION    CL-46734  12.389   6.216   3.242
75119ION    CL-46735   2.934  37.741  12.128
75120ION    CL-46736  38.299   3.495   1.845
75121ION    CL-46737  19.166  37.379   4.912
75122ION    CL-46738  28.766  44.433  13.532
75123ION    CL-46739  43.224  25.076  14.017
75124ION    CL-46740  40.985  26.680  13.818
75125ION    CL-46741   6.723  29.724   2.412
75126ION    CL-46742  30.065  16.961   1.999
75127ION    CL-46743   2.361  43.361  10.770
75128ION    CL-46744   7.164   3.559   3.140
75129ION    CL-46745  36.596  26.412   2.856
75130ION    CL-46746  34.377   8.774   3.990
75131ION    CL-46747  29.091   1.314   1.761
75132ION    CL-46748  27.058  19.103   4.922
75133ION    CL-46749  29.390  39.721  13.004
75134ION    CL-46750  12.838   7.147   4.768
75135ION    CL-46751  23.747   4.912  12.479
75136ION    CL-46752  12.342   4.094   1.974
75137ION    CL-46753   5.154   4.302   3.107
75138ION    CL-46754  23.394  35.870  12.041
75139ION    CL-46755   6.119  25.260   4.109
75140ION    CL-46756   4.423  40.258   4.402
75141ION    CL-46757  36.821  20.540  11.108
75142ION    CL-46758  24.517  15.947  14.855
75143ION    CL-46759  37.405   3.795  13.721
75144ION    CL-46760  18.123  31.862  12.384
75145ION    CL-46761  37.395  38.486   1.615
75146ION    CL-46762   5.766  13.422  10.683
75147ION    CL-46763  13.608   0.666  12.521
75148ION    CL-46764  36.456  34.928  14.770
75149ION    CL-46765  37.095  16.839  13.835
75150ION    CL-46766  19.312   5.489   9.842
75151ION    CL-46767   4.751  15.454  12.084
75152ION    CL-46768  14.560   3.749  14.448
75153ION    CL-46769  43.387  16.034  10.378
75154ION    CL-46770  39.906   9.435  13.568
75155ION    CL-46771  14.137  31.869   9.807
75156ION    CL-46772  35.608  27.131  13.117
75157ION    CL-46773  42.333  35.050   3.691
75158ION    CL-46774  22.719   6.388  11.477
75159ION    CL-46775  23.993  22.008  11.151
75160ION    CL-46776  28.376   3.457  13.201
75161ION    CL-46777  23.297  28.054  12.914
75162ION    CL-46778  29.692  25.149   1.150
75163ION    CL-46779  15.437  40.988  11.624
75164ION    CL-46780  37.914  31.612  11.240
75165ION    CL-46781   4.808  25.382  12.341
75166ION    CL-46782  23.648   7.281  12.148
75167ION    CL-46783   9.697   8.583   0.277
75168ION    CL-46784  38.273  17.083   4.915
75169ION    CL-46785   3.250  14.871   2.029
75170ION    CL-46786  35.622  10.213   0.256
75171ION    CL-46787   5.546  35.989  13.653
75172ION    CL-46788  17.694  44.988   4.526
75173ION    CL-46789   4.806  38.284  14.804
75174ION    CL-46790  37.973  42.260   3.578
75175ION    CL-46791  27.898  13.204  11.454
75176ION    CL-46792   1.224   8.878   3.227
75177ION    CL-46793   0.685  37.728  14.574
75178ION    CL-46794  24.158   7.398   9.885
75179ION    CL-46795  27.700  23.057   0.852
75180ION    CL-46796   2.004  12.288  13.690
75181ION    CL-46797  26.357  29.464   4.013
75182ION    CL-46798  29.973  14.785   4.930
75183ION    CL-46799  25.094  28.630   1.190
75184ION    CL-46800   3.497  19.767  12.866
75185ION    CL-46801  31.980  36.602  12.082
75186ION    CL-46802  22.539  35.597   1.932
75187ION    CL-46803  16.454  20.061  11.169
75188ION    CL-46804  36.351  11.220   4.020
75189ION    CL-46805  26.604   1.449   2.627
75190ION    CL-46806   6.891  37.571  14.202
75191ION    CL-46807  43.432  43.520  13.457
75192ION    CL-46808  33.028  19.729   3.892
75193ION    CL-46809  27.643  29.923   1.091
75194ION    CL-46810  19.432  32.192   2.845
75195ION    CL-46811  33.217  14.590   3.213
75196ION    CL-46812   1.840  38.345  14.300
75197ION    CL-46813  42.843   6.749  10.878
75198ION    CL-46814  35.636  25.108  10.793
75199ION    CL-46815  32.051  42.289  14.250
75200ION    CL-46816  34.273  28.123   2.841
75201ION    CL-46817  24.097  20.414  12.025
75202ION    CL-46818   2.900  43.568   0.479
75203ION    CL-46819  10.382   5.562   0.898
75204ION    CL-46820  38.757  24.016  12.587
75205ION    CL-46821   6.114   7.650   9.675
75206ION    CL-46822  40.868  36.210   3.501
75207ION    CL-46823  10.281  31.842   1.836
75208ION    CL-46824  26.813  37.337   3.863
75209ION    CL-46825   9.811  11.034   4.931
75210ION    CL-46826  14.925   9.690  12.932
75211ION    CL-46827  15.641  17.970  13.140
75212ION    CL-46828  24.783  27.037  13.443
75213ION    CL-46829  15.927   8.402  11.186
75214ION    CL-46830  24.135   2.291   0.442
75215ION    CL-46831  25.370  28.584  14.948
75216ION    CL-46832  16.205  38.039   1.320
75217ION    CL-46833   8.247  37.267   0.811
75218ION    CL-46834   1.617  10.746   0.577
75219ION    CL-46835  43.540  23.281  10.973
75220ION    CL-46836  41.607  25.950  11.514
75221ION    CL-46837  40.551  32.880   2.609
75222ION    CL-46838   2.508   6.660  13.833
75223ION    CL-46839   4.880  11.621  14.833
75224ION    CL-46840  10.469   3.642  11.166
75225ION    CL-46841   4.683   1.507   4.693
75226ION    CL-46842  29.883  10.107   1.695
75227ION    CL-46843  41.358  39.329   3.340
75228ION    CL-46844  39.133  12.904  10.134
75229ION    CL-46845  28.578  21.282   1.378
75230ION    CL-46846  44.333  34.148   1.165
75231ION    CL-46847  30.154  24.622   0.761
75232ION    CL-46848   6.809  33.882  14.718
75233ION    CL-46849  43.796  14.817   2.323
75234ION    CL-46850  30.881   6.214  11.386
75235ION    CL-46851  16.462  43.977  10.721
75236ION    CL-46852  13.036  25.731   2.211
75237ION    CL-46853   0.752  39.972   1.165
75238ION    CL-46854   4.195  22.053  13.151
75239ION    CL-46855   1.118   8.406  13.098
75240ION    CL-46856  22.679   8.139   2.354
75241ION    CL-46857   2.035  30.042  13.960
75242ION    CL-46858   3.878  12.422  12.620
75243ION    CL-46859  22.096  32.274   5.147
75244ION    CL-46860  19.786   4.876  11.248
75245ION    CL-46861  35.086  10.242  13.437
75246ION    CL-46862  38.241  29.953  14.530
75247ION    CL-46863  10.886   4.695  13.280
75248ION    CL-46864   5.325   2.525   3.753
75249ION    CL-46865  14.048  27.043   0.072
75250ION    CL-46866  20.078  43.915   4.303
75251ION    CL-46867  17.114  43.056  12.829
75252ION    CL-46868  15.557  38.644   9.940
75253ION    CL-46869  34.843  39.800   0.913
75254ION    CL-46870   7.161  38.789   0.923
75255ION    CL-46871   0.390  15.856  11.327
75256ION    CL-46872  14.131   4.036   0.562
75257ION    CL-46873  25.130  27.180  12.129
75258ION    CL-46874  30.639  18.512   4.958
75259ION    CL-46875  41.303   9.377  12.880
75260ION    CL-46876  27.242  21.364  14.997
75261ION    CL-46877   2.652  25.812   2.800
75262ION    CL-46878   9.848  23.441  12.919
75263ION    CL-46879  42.840  27.913   5.040
75264ION    CL-46880   4.935  28.109   1.928
75265ION    CL-46881  17.310  24.233  11.488
75266ION    CL-46882   5.863  22.271  11.836
75267ION    CL-46883  25.877  11.236  14.683
75268ION    CL-46884   3.577   1.068   4.696
75269ION    CL-46885   5.658   8.740  14.946
75270ION    CL-46886   6.005  30.349   3.242
75271ION    CL-46887  21.317  22.157  10.664
75272ION    CL-46888  28.849   6.041   2.031
75273ION    CL-46889   5.813  39.305  13.220
75274ION    CL-46890  12.714  13.098   0.360
75275ION    CL-46891  15.956   4.614  12.345
75276ION    CL-46892  38.482  29.307   0.338
75277ION    CL-46893  32.448  24.214  12.160
75278ION    CL-46894  30.734   3.053   1.188
75279ION    CL-46895   8.844  23.941  14.206
75280ION    CL-46896  41.964  32.879   2.234
75281ION    CL-46897  43.177  26.215   3.584
75282ION    CL-46898  28.190  31.492   4.215
75283ION    CL-46899  16.619  19.148  11.075
75284ION    CL-46900   7.619  18.261  14.368
75285ION    CL-46901   4.771  38.126   4.862
75286ION    CL-46902  14.830   2.449  10.412
75287ION    CL-46903   1.976   5.261   2.590
75288ION    CL-46904  27.312  21.320  11.163
75289ION    CL-46905  40.668   1.173   1.597
75290ION    CL-46906   4.427  21.017  12.997
75291ION    CL-46907  42.818  13.731  10.340
75292ION    CL-46908  10.125  39.281   0.271
75293ION    CL-46909  42.049  28.057   1.316
75294ION    CL-46910  18.592   8.162   1.167
75295ION    CL-46911  29.746  11.111  10.914
75296ION    CL-46912  27.262   7.848  13.460
75297ION    CL-46913  21.064  24.005   0.423
75298ION    CL-46914  44.512  43.429   2.394
75299ION    CL-46915  37.712  16.783   1.388
75300ION    CL-46916  19.669   1.786   0.430
75301ION    CL-46917   0.257  16.419  12.142
75302ION    CL-46918  11.826  26.115  11.161
75303ION    CL-46919   2.491  22.059  13.847
75304ION    CL-46920  20.233  15.331  12.618
75305ION    CL-46921   2.967  25.232   5.282
75306ION    CL-46922   7.739  11.823   5.123
75307ION    CL-46923  19.773  26.664   9.400
75308ION    CL-46924  43.350  40.365  10.875
75309ION    CL-46925  37.446   8.654  11.258
75310ION    CL-46926  13.784  11.902   4.544
75311ION    CL-46927  19.067  12.777   2.983
75312ION    CL-46928  43.384  31.034  13.722
75313ION    CL-46929  17.874  25.048  14.913
75314ION    CL-46930  26.423   2.738   0.762
75315ION    CL-46931   6.465  34.295  12.137
75316ION    CL-46932  24.909  42.315   4.100
75317ION    CL-46933  36.330  16.792   0.412
75318ION    CL-46934  39.602  33.311  11.220
75319ION    CL-46935  43.392  44.346   2.789
75320ION    CL-46936  26.319  24.500   2.244
75321ION    CL-46937   7.050  19.559  14.136
75322ION    CL-46938   6.071  28.819   9.751
75323ION    CL-46939   0.516  26.723   0.011
75324ION    CL-46940   8.159  32.628  11.201
75325ION    CL-46941  20.086  37.330   0.959
75326ION    CL-46942   6.833  12.184   4.258
75327ION    CL-46943  36.423  16.786  12.522
75328ION    CL-46944  38.904  43.152   4.630
75329ION    CL-46945  21.136  27.112   2.281
75330ION    CL-46946  37.401   1.425  13.402
75331ION    CL-46947  26.344  27.331  10.914
75332ION    CL-46948  11.840  34.397   4.916
75333ION    CL-46949  26.195  42.737  12.801
75334ION    CL-46950   0.592  26.674  13.627
75335ION    CL-46951  43.728   7.511  11.053
75336ION    CL-46952  42.439  22.854  11.320
75337ION    CL-46953  40.909   6.781   4.057
75338ION    CL-46954  31.477  41.021  13.957
75339ION    CL-46955  27.552  34.611  14.380
75340ION    CL-46956  39.060  39.455   0.433
75341ION    CL-46957  37.800  30.724   3.723
75342ION    CL-46958  24.444  25.199  14.636
75343ION    CL-46959  41.354  37.429   5.126
75344ION    CL-46960  44.157  38.512  14.046
75345ION    CL-46961  19.516  11.457  14.439
75346ION    CL-46962  17.609  22.707  14.848
75347ION    CL-46963  29.830  13.016   0.003
75348ION    CL-46964  25.209  38.750   0.275
75349ION    CL-46965  20.515  32.373   1.520
75350ION    CL-46966   8.417  38.948  10.988
75351ION    CL-46967  34.520  18.217  14.329
75352ION    CL-46968  43.376  25.997  13.529
75353ION    CL-46969  37.178  38.627   0.047
75354ION    CL-46970  28.450   4.473   4.158
75355ION    CL-46971  19.209   4.851  13.092
75356ION    CL-46972  39.549  21.338  12.997
75357ION    CL-46973  36.932  16.941   2.848
75358ION    CL-46974  10.462  15.027   9.984
75359ION    CL-46975  38.798  20.860   0.499
75360ION    CL-46976  11.026  13.702  14.682
75361ION    CL-46977   3.535   2.278  12.646
75362ION    CL-46978  27.912  17.941   1.631
75363ION    CL-46979  11.798  36.183  11.273
75364ION    CL-46980  20.787  18.266   2.178
75365ION    CL-46981  13.150  17.494   0.915
75366ION    CL-46982  25.589  25.841   0.856
75367ION    CL-46983   7.877   0.724  13.945
75368ION    CL-46984  39.141   7.243   1.854
75369ION    CL-46985  10.291  44.784  13.968
75370ION    CL-46986  31.588  43.021  11.973
75371ION    CL-46987   0.572  37.727  10.556
75372ION    CL-46988  34.949  15.420  14.053
75373ION    CL-46989  33.055  27.298  12.515
75374ION    CL-46990  33.851  28.970  10.484
75375ION    CL-46991  20.484  14.201   0.935
75376ION    CL-46992  35.293   6.708   3.358
75377ION    CL-46993   1.393   9.635  14.981
75378ION    CL-46994  20.014  15.635   0.539
75379ION    CL-46995  41.961  14.775  10.685
75380ION    CL-46996  26.638  18.167   5.025
75381ION    CL-46997   4.823   0.590   0.145
75382ION    CL-46998  23.377  43.715  11.660
75383ION    CL-46999  27.262  16.546   5.326
75384ION    CL-47000  14.788   9.284   4.538
75385ION    CL-47001  37.555   1.149   1.180
75386ION    CL-47002  20.410  41.030   4.181
75387ION    CL-47003   4.246  21.441   3.733
75388ION    CL-47004  19.672  25.935   5.243
75389ION    CL-47005  41.999  28.227  12.026
75390ION    CL-47006  31.196  42.121  10.290
75391ION    CL-47007  24.213  23.510  13.091
75392ION    CL-47008   6.948  10.371  13.907
75393ION    CL-47009  14.661  32.363   1.790
75394ION    CL-47010  14.791  11.765   1.242
75395ION    CL-47011  29.626  36.441  13.430
75396ION    CL-47012   0.481  12.124   4.322
75397ION    CL-47013   8.792  17.599  11.395
75398ION    CL-47014  33.409   4.403  14.961
75399ION    CL-47015   5.917  40.606   4.861
75400ION    CL-47016  16.786  31.055  14.837
75401ION    CL-47017  38.750  37.660   3.567
75402ION    CL-47018   2.963  17.627  14.879
75403ION    CL-47019   6.249  41.784  11.637
75404ION    CL-47020  23.697  29.673   1.229
75405ION    CL-47021   4.671  29.292   2.213
75406ION    CL-47022  22.921  21.006   0.397
75407ION    CL-47023   4.851  20.806  10.870
75408ION    CL-47024  17.576  10.578  12.520
75409ION    CL-47025  43.610  21.597  11.344
75410ION    CL-47026   4.542  21.654  14.757
75411ION    CL-47027  17.342  24.502  13.018
75412ION    CL-47028  20.127  24.861  12.410
75413ION    CL-47029  29.523  24.403  10.284
75414ION    CL-47030   1.833  44.364   4.773
75415ION    CL-47031  34.496  17.042   4.843
75416ION    CL-47032  21.452   5.276  14.701
75417ION    CL-47033  34.253   1.327  13.244
75418ION    CL-47034  24.410  44.763   1.095
75419ION    CL-47035  22.604  21.195  10.200
75420ION    CL-47036   8.839  36.455   4.150
75421ION    CL-47037  19.683  24.927   4.221
75422ION    CL-47038  10.378   2.354   0.497
75423ION    CL-47039  13.833  37.112   0.684
75424ION    CL-47040  36.831  31.161   2.867
75425ION    CL-47041  25.984  17.653   0.264
75426ION    CL-47042  43.137   0.367   0.996
75427ION    CL-47043  39.038  41.366   1.951
75428ION    CL-47044  42.981  11.835  10.539
75429ION    CL-47045   9.636  36.444   1.811
75430ION    CL-47046  23.309   2.241  13.049
75431ION    CL-47047  41.438  33.386  14.615
75432ION    CL-47048  44.946   0.363  11.435
75433ION    CL-47049  14.641  27.533   1.859
75434ION    CL-47050  30.236  38.805   1.825
75435ION    CL-47051  23.426  21.388   3.212
75436ION    CL-47052  15.253   3.248  14.526
75437ION    CL-47053   4.863  10.445  14.398
75438ION    CL-47054   3.801  32.054  11.155
75439ION    CL-47055  27.515  13.130   3.660
75440ION    CL-47056  15.608  20.323  11.281
75441ION    CL-47057  41.076  18.684  12.767
75442ION    CL-47058  15.604  27.578   4.283
75443ION    CL-47059   6.959  16.743  11.188
75444ION    CL-47060  16.414  16.839   0.627
75445ION    CL-47061   3.388  10.502   3.608
75446ION    CL-47062  11.027  25.323  12.140
75447ION    CL-47063  14.335  16.785  11.919
75448ION    CL-47064  15.799  39.409  14.120
75449ION    CL-47065  14.336  14.179   2.575
75450ION    CL-47066  22.995  28.455  14.765
75451ION    CL-47067   6.889   5.640   0.119
75452ION    CL-47068  33.336   3.829   0.655
75453ION    CL-47069   5.409  17.272  10.975
75454ION    CL-47070  42.553  42.720   2.395
75455ION    CL-47071  16.239  39.714  11.096
75456ION    CL-47072  11.817  41.757   4.145
75457ION    CL-47073  44.414  24.229  10.454
75458ION    CL-47074  25.285  24.907  14.066
75459ION    CL-47075  28.156   9.864  11.634
75460ION    CL-47076  34.998  17.322  14.041
75461ION    CL-47077  11.905  32.464  13.021
75462ION    CL-47078  17.108  10.397  10.753
75463ION    CL-47079  15.536   1.563   5.145
75464ION    CL-47080  29.709  10.142   3.358
75465ION    CL-47081  14.424  36.953  14.835
75466ION    CL-47082   7.710   4.886  14.814
75467ION    CL-47083  25.528  42.698   3.146
75468ION    CL-47084  37.832  13.539   1.723
75469ION    CL-47085  41.874  14.764   4.391
75470ION    CL-47086  40.282  27.571   2.890
75471ION    CL-47087  42.755  36.838   1.401
75472ION    CL-47088  19.565  24.265  12.983
75473ION    CL-47089  20.592  27.039  12.199
75474ION    CL-47090  26.339   2.970   1.747
75475ION    CL-47091   4.321  36.475  10.799
75476ION    CL-47092  28.426  28.626   3.720
75477ION    CL-47093   0.974  36.792   5.115
75478ION    CL-47094  12.996  12.140   0.324
75479ION    CL-47095  15.058  42.974   2.775
75480ION    CL-47096  24.114  20.548  13.398
75481ION    CL-47097  37.911  44.389   3.255
75482ION    CL-47098  38.022  28.507   3.541
75483ION    CL-47099   6.644  15.645   3.757
75484ION    CL-47100  10.780   3.618   0.221
75485ION    CL-47101   2.409  23.081   0.841
75486ION    CL-47102  39.820   6.246  11.341
75487ION    CL-47103   2.531  17.746  12.628
75488ION    CL-47104  17.706  10.916  14.175
75489ION    CL-47105  16.865   1.965  12.034
75490ION    CL-47106   2.097   8.301  12.183
75491ION    CL-47107  15.032  38.040   1.944
75492ION    CL-47108  39.316   7.792  12.911
75493ION    CL-47109   1.946  43.306  12.515
75494ION    CL-47110  44.847   4.162   4.991
75495ION    CL-47111  17.885  17.192   4.958
75496ION    CL-47112   3.010  34.158  12.324
75497ION    CL-47113   0.630  40.303   2.430
75498ION    CL-47114  35.916  31.133   2.297
75499ION    CL-47115  28.761  17.602   1.226
75500ION    CL-47116  43.443  22.081  12.311
75501ION    CL-47117  38.550   2.840  10.782
75502ION    CL-47118  42.072  28.005  12.999
75503ION    CL-47119  23.106   7.785   4.937
75504ION    CL-47120  25.146  21.309   3.703
75505ION    CL-47121  33.777  42.049   1.383
75506ION    CL-47122  15.366  39.573  11.563
75507ION    CL-47123  15.395   1.748  10.848
75508ION    CL-47124  32.579  36.135  14.762
75509ION    CL-47125  32.472  23.138  12.479
75510ION    CL-47126   1.803  34.023   0.856
75511ION    CL-47127  27.516  40.073   1.894
75512ION    CL-47128  38.412  18.536   0.757
75513ION    CL-47129  28.024  24.558  10.693
75514ION    CL-47130  13.632   9.602  11.341
75515ION    CL-47131   0.198  43.689   0.296
75516ION    CL-47132  31.504  40.657   2.306
75517ION    CL-47133   1.887  13.355  13.827
75518ION    CL-47134   9.878  29.690   2.410
75519ION    CL-47135  30.182  40.045   3.417
75520ION    CL-47136   9.349  39.873   2.106
75521ION    CL-47137  11.922   0.725   5.031
75522ION    CL-47138  16.195   9.342   4.353
75523ION    CL-47139  13.671   3.614  10.838
75524ION    CL-47140  24.479  25.156   4.183
75525ION    CL-47141  10.974  39.011   0.727
75526ION    CL-47142  28.148   7.268   4.241
75527ION    CL-47143   5.679  28.512  12.662
75528ION    CL-47144  13.796  23.251   0.190
75529ION    CL-47145  41.012  16.417  14.083
75530ION    CL-47146  26.679  27.137  12.330
75531ION    CL-47147   7.490  10.605   4.337
75532ION    CL-47148  14.340  14.617   0.876
75533ION    CL-47149  32.681  44.149   2.410
75534ION    CL-47150  14.082  39.523   0.615
75535ION    CL-47151  31.634  10.855  13.474
75536ION    CL-47152   4.213   3.040   0.361
75537ION    CL-47153  39.311  14.553  13.354
75538ION    CL-47154  31.352  30.502  14.707
75539ION    CL-47155  38.900   0.095  11.161
75540ION    CL-47156  33.579   8.237   4.515
75541ION    CL-47157  16.179  26.351  10.717
75542ION    CL-47158  30.644  18.063  10.986
75543ION    CL-47159  24.686  18.164  11.551
75544ION    CL-47160  42.223  20.327   4.195
75545ION    CL-47161  27.435  39.644  11.755
75546ION    CL-47162  15.580   3.979  10.846
75547ION    CL-47163  30.134   6.108  13.367
75548ION    CL-47164  30.112  43.044   3.632
75549ION    CL-47165  20.834  17.487   1.156
75550ION    CL-47166  37.558  42.031   2.696
75551ION    CL-47167   3.868  23.084  13.556
75552ION    CL-47168  15.341  16.061  10.067
75553ION    CL-47169  39.075  32.998  11.721
75554ION    CL-47170  16.517   3.050   1.199
75555ION    CL-47171  42.021   4.838  12.449
75556ION    CL-47172  30.102  21.542  11.147
75557ION    CL-47173  33.439  27.708  10.722
75558ION    CL-47174  38.352   1.362   3.701
75559ION    CL-47175  18.825   8.397  10.303
75560ION    CL-47176  20.322  34.547   2.563
75561ION    CL-47177   2.520  41.832  13.477
75562ION    CL-47178  32.740  36.878  11.118
75563ION    CL-47179  32.012  34.835   2.699
75564ION    CL-47180  21.312  23.112  13.960
75565ION    CL-47181  40.997  20.026   1.307
75566ION    CL-47182  34.046  31.449  14.966
75567ION    CL-47183  12.838  14.272  13.875
75568ION    CL-47184  37.102  18.912  14.146
75569ION    CL-47185   7.400  22.995   1.799
75570ION    CL-47186  12.845  15.793   2.297
75571ION    CL-47187  28.483  15.489   0.589
75572ION    CL-47188  24.634  32.195   1.920
75573ION    CL-47189   5.351  14.913  13.632
75574ION    CL-47190   3.324  24.712  12.930
75575ION    CL-47191  34.270  31.492  13.651
75576ION    CL-47192  13.261  33.171   1.370
75577ION    CL-47193  32.144   4.351   1.939
75578ION    CL-47194  31.576  20.877   2.079
75579ION    CL-47195  22.868  33.080  10.333
75580ION    CL-47196  43.879  19.377   0.939
75581ION    CL-47197  35.406  30.555   1.216
75582ION    CL-47198  34.385  34.881   1.718
75583ION    CL-47199   6.638  35.550  14.824
75584ION    CL-47200  30.794  22.245  13.188
75585ION    CL-47201  40.269  14.672  13.816
75586ION    CL-47202  29.177   8.608  14.445
75587ION    CL-47203   3.931  36.094   2.837
75588ION    CL-47204  14.445  43.504  14.949
75589ION    CL-47205  11.797   8.356  14.552
75590ION    CL-47206  15.240  19.918  12.603
75591ION    CL-47207  24.965  41.565   2.460
75592ION    CL-47208  18.517   0.257  10.093
75593ION    CL-47209   0.405  24.775  14.816
75594ION    CL-47210  39.547  10.920   1.399
75595ION    CL-47211  28.820  20.470   2.381
75596ION    CL-47212  29.202  34.538  11.059
75597ION    CL-47213  16.255   1.379   3.179
75598ION    CL-47214  25.474  12.764  14.813
75599ION    CL-47215  43.691  18.059  11.118
75600ION    CL-47216  23.072  23.901  14.719
75601ION    CL-47217  37.656  36.444  13.037
75602ION    CL-47218  23.920  19.103  10.383
75603ION    CL-47219  40.700  40.761  14.936
75604ION    CL-47220  36.147  36.894  14.329
75605ION    CL-47221  35.878  21.419  14.597
75606ION    CL-47222   7.959   9.257  10.898
75607ION    CL-47223  16.935  16.400  13.580
75608ION    CL-47224  36.319  14.972  11.752
75609ION    CL-47225  30.176  27.944  11.705
75610ION    CL-47226  25.136  42.451  14.471
75611ION    CL-47227   1.134  35.244   1.907
75612ION    CL-47228  32.337   8.969   3.679
75613ION    CL-47229  19.342  42.557  10.476
75614ION    CL-47230  31.544  32.539   4.241
75615ION    CL-47231  44.508  31.137   3.283
75616ION    CL-47232   5.397   0.803   2.800
75617ION    CL-47233  10.178  20.938   0.335
75618ION    CL-47234  30.106  40.753   0.333
75619ION    CL-47235  23.026  30.744  11.672
75620ION    CL-47236  20.166  40.432   3.337
75621ION    CL-47237  13.053   7.064  12.120
75622ION    CL-47238  41.181  32.063   4.004
75623ION    CL-47239  31.667  37.355   3.695
75624ION    CL-47240  14.076   4.900   0.856
75625ION    CL-47241  12.168  37.123  14.584
75626ION    CL-47242   3.133  12.587  13.842
75627ION    CL-47243  16.976  24.853  14.401
75628ION    CL-47244  43.031  11.604   4.246
75629ION    CL-47245  38.321   9.367   2.378
75630ION    CL-47246  36.655  37.185   4.477
75631ION    CL-47247  37.871  17.515  12.493
75632ION    CL-47248   5.155  32.861  14.208
75633ION    CL-47249  41.076  21.223  13.356
75634ION    CL-47250  35.609  38.222   0.720
75635ION    CL-47251  23.236  35.156  13.510
75636ION    CL-47252  41.982  25.865   0.208
75637ION    CL-47253  14.611  42.073   0.956
75638ION    CL-47254   6.138  37.293   3.213
75639ION    CL-47255   8.819  38.830   5.075
75640ION    CL-47256  15.163  41.131   4.509
75641ION    CL-47257  32.072  29.534   2.892
75642ION    CL-47258   1.780   7.794  14.244
75643ION    CL-47259  41.478  18.725   3.786
75644ION    CL-47260  43.844  38.970   4.831
75645ION    CL-47261  35.293  32.778   4.095
75646ION    CL-47262  19.112  18.097   1.149
75647ION    CL-47263  36.748  30.005   4.274
75648ION    CL-47264  30.934  17.183   0.029
75649ION    CL-47265  42.493  15.541   0.634
75650ION    CL-47266  42.484   7.343   2.332
75651ION    CL-47267  44.277  41.931   2.447
75652ION    CL-47268  44.344   6.905  11.296
75653ION    CL-47269   8.633  26.637   3.459
75654ION    CL-47270  29.466  27.192  11.108
75655ION    CL-47271   9.771   9.484   0.324
75656ION    CL-47272  23.650  12.031   0.233
75657ION    CL-47273   4.561   1.520   9.681
75658ION    CL-47274  23.377  42.545   4.537
75659ION    CL-47275  22.293  21.291   1.942
75660ION    CL-47276  28.592  13.463  12.126
75661ION    CL-47277   9.074  25.846   2.974
75662ION    CL-47278  39.987   1.622   3.422
75663ION    CL-47279   1.481  31.965  13.384
75664ION    CL-47280   7.948  44.433   3.768
75665ION    CL-47281   7.359  35.613   2.946
75666ION    CL-47282  18.041   1.691  14.318
75667ION    CL-47283   5.109  34.587   3.342
75668ION    CL-47284  27.637   2.927  13.306
75669ION    CL-47285  21.724  31.870  11.972
75670ION    CL-47286  19.605  19.515   3.471
75671ION    CL-47287  11.686  34.443  13.859
75672ION    CL-47288  18.550  42.180   3.845
75673ION    CL-47289  31.502  32.611   2.334
75674ION    CL-47290  23.701   2.920  11.224
75675ION    CL-47291  17.507  19.691   2.776
75676ION    CL-47292  39.184  32.435   0.410
75677ION    CL-47293   4.734   6.666   4.052
75678ION    CL-47294  36.140  26.426  14.004
75679ION    CL-47295  39.068  11.419  11.108
75680ION    CL-47296  14.212  41.258   2.479
75681ION    CL-47297   0.081  39.915  14.640
75682ION    CL-47298  24.190  14.168   5.083
75683ION    CL-47299  22.534   0.023  13.588
75684ION    CL-47300  11.647  44.185  11.987
75685ION    CL-47301   8.318   3.362  13.443
75686ION    CL-47302  12.550  32.183   4.156
75687ION    CL-47303  40.038  28.585  10.641
75688ION    CL-47304   1.627   6.703   3.066
75689ION    CL-47305  17.781  30.078   0.937
75690ION    CL-47306  12.662   9.447   1.019
75691ION    CL-47307   7.572   2.650   3.219
75692ION    CL-47308  33.073  17.019   0.064
75693ION    CL-47309  40.821  34.564  12.965
75694ION    CL-47310  41.378  26.785  11.256
75695ION    CL-47311   0.687  36.187   1.765
75696ION    CL-47312  38.902   2.124  13.707
75697ION    CL-47313  39.298   0.994  11.442
75698ION    CL-47314  11.831   7.821  11.981
75699ION    CL-47315  13.034   2.253  10.978
75700ION    CL-47316   7.727  38.676  11.512
75701ION    CL-47317   1.793  15.834  13.480
75702ION    CL-47318  31.155   4.090   2.778
75703ION    CL-47319  19.875   0.852   4.275
75704ION    CL-47320  32.870  19.840   0.494
75705ION    CL-47321  34.048  16.777  12.732
75706ION    CL-47322   3.025  17.299   3.186
75707ION    CL-47323  37.377  16.952   4.847
75708ION    CL-47324  35.549   1.885   4.828
75709ION    CL-47325  10.584  14.123   9.814
75710ION    CL-47326  28.252  40.696  11.575
75711ION    CL-47327   8.717  39.306   3.333
75712ION    CL-47328  14.344  16.335  13.783
75713ION    CL-47329   7.446  11.552  14.449
75714ION    CL-47330  11.253  34.754   2.933
75715ION    CL-47331  10.380  30.146   3.030
75716ION    CL-47332  36.032   5.934  13.795
75717ION    CL-47333  41.366  43.164   0.985
75718ION    CL-47334  28.376  20.552  12.071
75719ION    CL-47335  27.637  14.743  14.924
75720ION    CL-47336   4.789  31.209  10.866
75721ION    CL-47337  24.580  25.980   1.022
75722ION    CL-47338  19.623  43.847   3.261
75723ION    CL-47339  13.308  16.038   1.390
75724ION    CL-47340  36.089   0.896  12.939
75725ION    CL-47341  18.179  29.977   3.169
75726ION    CL-47342  35.066  20.741   4.057
75727ION    CL-47343  12.629  36.100  10.240
75728ION    CL-47344  27.183  23.534   1.747
75729ION    CL-47345  37.959  38.081   4.213
75730ION    CL-47346  24.204  24.247   1.213
75731ION    CL-47347   2.515  31.400  14.559
75732ION    CL-47348  33.001  16.260  14.677
75733ION    CL-47349   1.279  35.712   2.779
75734ION    CL-47350  31.336  19.018   2.388
75735ION    CL-47351  39.940   2.861   0.442
75736ION    CL-47352  23.318  20.394   3.205
75737ION    CL-47353  30.613   4.599   1.845
75738ION    CL-47354  38.188  43.376  12.587
75739ION    CL-47355  23.614  42.742  14.944
75740ION    CL-47356  29.151  33.410  13.776
75741ION    CL-47357  43.864   8.202  12.873
75742ION    CL-47358  10.234  14.178   4.252
75743ION    CL-47359   8.970  38.070   3.331
75744ION    CL-47360  34.099  19.975   3.195
75745ION    CL-47361  28.445  24.490   1.598
75746ION    CL-47362   6.680  44.234  14.324
75747ION    CL-47363  24.549  15.229  11.623
75748ION    CL-47364  35.438  41.607  11.123
75749ION    CL-47365   9.470  39.537   4.013
75750ION    CL-47366  43.136  36.500   3.803
75751ION    CL-47367  12.633  26.289   2.937
75752ION    CL-47368  24.605  12.676   4.935
75753ION    CL-47369  34.238  27.927  13.806
75754ION    CL-47370  34.540  34.309  10.633
75755ION    CL-47371  25.530  20.807  13.392
75756ION    CL-47372  18.551   1.759  11.508
75757ION    CL-47373   5.309   4.656  13.684
75758ION    CL-47374  33.119  35.183  12.045
75759ION    CL-47375   2.181  15.113  12.907
75760ION    CL-47376  19.735  28.784   2.390
75761ION    CL-47377  39.035  18.338   3.951
75762ION    CL-47378  32.859   2.997   0.369
75763ION    CL-47379  23.038   6.987   4.851
75764ION    CL-47380  23.659  42.402   1.466
75765ION    CL-47381   0.505  25.594   3.347
75766ION    CL-47382  20.445   2.498  12.534
75767ION    CL-47383   5.732  32.263   0.822
75768ION    CL-47384  35.903  18.615   1.471
75769ION    CL-47385  34.422  31.504   1.292
75770ION    CL-47386  11.443  12.781   2.635
75771ION    CL-47387   7.693  28.844  11.048
75772ION    CL-47388  43.264   1.275  11.668
75773ION    CL-47389  42.392  40.874   4.553
75774ION    CL-47390  39.215   0.746  13.603
75775ION    CL-47391  36.614  40.268   0.845
75776ION    CL-47392  44.574  41.131   2.721
75777ION    CL-47393  10.904  20.582  14.255
75778ION    CL-47394  11.093  41.903  13.805
75779ION    CL-47395  17.834  26.623   3.119
75780ION    CL-47396  35.823   5.230  14.944
75781ION    CL-47397  11.155  17.891  11.095
75782ION    CL-47398  32.165  41.357  11.558
75783ION    CL-47399  21.762  36.136   3.631
75784ION    CL-47400   9.653  34.394  11.230
75785ION    CL-47401   0.008  23.461  12.025
75786ION    CL-47402   6.200   8.621   9.899
75787ION    CL-47403  14.686  40.324  11.543
75788ION    CL-47404  28.671  39.148  13.459
75789ION    CL-47405  23.609  18.251  10.803
75790ION    CL-47406  33.600  42.737  11.248
75791ION    CL-47407  14.495  30.706   3.230
75792ION    CL-47408  19.004  39.115   2.733
75793ION    CL-47409  36.642  21.626   0.890
75794ION    CL-47410   2.346  18.928   1.145
75795ION    CL-47411  31.225  31.580   3.223
75796ION    CL-47412   7.977  29.587  12.947
75797ION    CL-47413  30.310   8.629  10.908
75798ION    CL-47414  28.700  40.393   4.157
75799ION    CL-47415  43.784  33.808   5.048
75800ION    CL-47416  44.550   6.004   4.054
75801ION    CL-47417  37.891  33.454   9.968
75802ION    CL-47418   7.702  35.584   0.716
75803ION    CL-47419  29.014   1.488  14.752
75804ION    CL-47420  41.492   2.403  14.789
75805ION    CL-47421   0.456  15.220   0.069
75806ION    CL-47422   9.329  27.154   4.116
75807ION    CL-47423  37.356  20.909   2.881
75808ION    CL-47424   8.006  31.153  14.859
75809ION    CL-47425  37.670   7.238   2.000
75810ION    CL-47426  13.522  35.335   3.177
75811ION    CL-47427   6.719  19.124  11.464
75812ION    CL-47428  23.616  42.844  12.891
75813ION    CL-47429  39.858   0.205  13.934
75814ION    CL-47430   0.813  11.101  10.746
75815ION    CL-47431  36.925  44.610   4.828
75816ION    CL-47432  16.921   1.931   1.613
75817ION    CL-47433  10.901  37.277  13.394
75818ION    CL-47434  28.923   7.505   0.579
75819ION    CL-47435  18.075   8.761   1.779
75820ION    CL-47436  34.145  28.263   4.477
75821ION    CL-47437  17.579  25.245  13.705
75822ION    CL-47438  15.674  26.415  11.578
75823ION    CL-47439   2.815  35.491   1.018
75824ION    CL-47440  15.337  21.133  14.701
75825ION    CL-47441  10.336  41.258  14.214
75826ION    CL-47442  27.747  29.861   2.783
75827ION    CL-47443  32.154  33.874   3.796
75828ION    CL-47444  37.147   6.124  12.428
75829ION    CL-47445   7.077  12.005  13.637
75830ION    CL-47446   6.877  23.015  14.119
75831ION    CL-47447  34.264  33.490   5.198
75832ION    CL-47448  36.658  33.328   0.966
75833ION    CL-47449  17.923  20.796  12.395
75834ION    CL-47450  36.173   8.971   4.792
75835ION    CL-47451  33.453   2.684  13.770
75836ION    CL-47452  23.949   2.383  11.844
75837ION    CL-47453  32.673  16.250  13.343
75838ION    CL-47454  16.596   7.761  10.436
75839ION    CL-47455   7.347   0.418   2.132
75840ION    CL-47456  16.908   8.661   4.183
75841ION    CL-47457  12.137   1.183   2.980
75842ION    CL-47458  17.085   9.070  14.302
75843ION    CL-47459  40.816  25.642   3.174
75844ION    CL-47460  31.591  23.489   1.971
75845ION    CL-47461  40.447  30.601  14.222
75846ION    CL-47462  32.007  40.834   0.548
75847ION    CL-47463  23.729  34.726   4.535
75848ION    CL-47464  22.023  17.547   2.976
75849ION    CL-47465  17.962  30.769  12.902
75850ION    CL-47466   1.877  32.711   1.444
75851ION    CL-47467  10.852  41.240   0.742
75852ION    CL-47468  14.154  31.355  11.284
75853ION    CL-47469  36.109  23.292  10.679
75854ION    CL-47470  32.417  11.771   4.735
75855ION    CL-47471  44.738   3.159   2.185
75856ION    CL-47472  31.075   1.424   2.261
75857ION    CL-47473  24.039  26.093   4.332
75858ION    CL-47474  43.310  35.854  12.190
75859ION    CL-47475  37.303  30.464   9.703
75860ION    CL-47476  42.228  33.653  12.077
75861ION    CL-47477  33.536  33.941  14.486
75862ION    CL-47478   1.500   0.105  14.674
75863ION    CL-47479  12.419   0.474   3.473
75864ION    CL-47480  22.295  21.539  12.162
75865ION    CL-47481  36.031  29.032   2.171
75866ION    CL-47482  18.277  33.434  13.760
75867ION    CL-47483  13.129  15.551   3.758
75868ION    CL-47484  14.554  35.653   1.445
75869ION    CL-47485   0.602  21.460   1.605
75870ION    CL-47486   1.943  31.985   5.116
75871ION    CL-47487  33.180  33.470   1.928
75872ION    CL-47488  22.849   4.126   2.043
75873ION    CL-47489  39.363   0.198   2.414
75874ION    CL-47490  36.971  34.930   1.293
75875ION    CL-47491  38.522  34.692  11.712
75876ION    CL-47492  32.078  39.084   3.875
75877ION    CL-47493  26.086  42.297   2.128
75878ION    CL-47494   6.699  13.946  12.362
75879ION    CL-47495  17.318  20.235  12.960
75880ION    CL-47496  35.702  21.641   4.857
75881ION    CL-47497  31.634  38.152  12.603
75882ION    CL-47498   6.285   1.159   0.032
75883ION    CL-47499  17.682  37.360  11.530
75884ION    CL-47500  41.456  39.293  12.441
75885ION    CL-47501  11.900  37.570  12.611
75886ION    CL-47502  18.583  13.572   1.379
75887ION    CL-47503   0.246   1.796  14.005
75888ION    CL-47504  37.721   6.202   1.125
75889ION    CL-47505  18.932   1.820  14.194
75890ION    CL-47506  38.933   2.930   0.581
75891ION    CL-47507  34.263  37.092  11.853
75892ION    CL-47508   7.389  24.852  12.334
75893ION    CL-47509  16.495  26.449  12.452
75894ION    CL-47510  23.602  33.479  12.434
75895ION    CL-47511  18.545  41.976  14.988
75896ION    CL-47512  39.523  36.913   3.865
75897ION    CL-47513  38.316  40.873  12.863
75898ION    CL-47514  10.196   2.060   2.550
75899ION    CL-47515  36.110  43.083  14.201
75900ION    CL-47516  30.719  38.849  11.607
75901ION    CL-47517  15.891  21.269   2.928
75902ION    CL-47518  21.099  36.273   5.008
75903ION    CL-47519  11.741  33.645  14.316
75904ION    CL-47520   1.287  35.219  10.392
75905ION    CL-47521  30.705  42.317  11.337
75906ION    CL-47522  17.821  16.534   4.142
75907ION    CL-47523  11.788  44.402  12.975
75908ION    CL-47524  25.062  35.951   2.473
75909ION    CL-47525   5.176   0.496  13.563
75910ION    CL-47526  25.917  10.306   4.652
75911ION    CL-47527  36.674   3.476   2.243
75912ION    CL-47528   5.193  43.738  10.020
75913ION    CL-47529   8.312  39.902   1.768
75914ION    CL-47530   3.210  24.157  11.382
75915ION    CL-47531  43.025  37.423  11.194
75916ION    CL-47532  40.206  37.842   1.787
75917ION    CL-47533  23.555  11.214   0.177
75918ION    CL-47534  37.439   3.537  12.167
75919ION    CL-47535  32.336  40.820   4.114
75920ION    CL-47536   9.332   3.226   2.272
75921ION    CL-47537  31.984  44.829   4.162
75922ION    CL-47538  13.130  35.409  13.307
75923ION    CL-47539  19.085  36.661   5.096
75924ION    CL-47540  38.373  13.766   5.472
75925ION    CL-47541  11.337  40.013   2.089
75926ION    CL-47542  10.363   2.931   3.014
75927ION    CL-47543   9.544   1.382   4.664
75928ION    CL-47544  38.527   7.688  14.512
75929ION    CL-47545   3.221  40.556  11.178
75930ION    CL-47546  44.418  24.204   0.520
75931ION    CL-47547  41.926   8.765  14.955
75932ION    CL-47548  41.078  30.068  11.579
75933ION    CL-47549   1.964  38.108   1.471
75934ION    CL-47550  11.540  31.061  13.032
75935ION    CL-47551   3.626  13.918  12.731
75936ION    CL-47552  23.749   2.142   3.659
75937ION    CL-47553  22.108  44.342   0.002
75938ION    CL-47554  35.612  30.157  13.407
75939ION    CL-47555  27.715   0.326  12.308
75940ION    CL-47556  33.873  39.904  12.370
75941ION    CL-47557  24.314   6.530   3.441
75942ION    CL-47558  25.304  15.341   1.949
75943ION    CL-47559  38.986   2.492   2.303
75944ION    CL-47560   5.892   9.117   2.549
75945ION    CL-47561  40.625  22.536   3.531
75946ION    CL-47562   9.805  22.295   3.724
75947ION    CL-47563  32.916  14.722  10.889
75948ION    CL-47564  10.920  29.147   0.340
75949ION    CL-47565   1.377   5.013   1.668
75950ION    CL-47566  25.502  43.487  11.915
75951ION    CL-47567  14.032  25.764   2.172
75952ION    CL-47568  26.614  10.432  14.960
75953ION    CL-47569  42.193  37.795   1.416
75954ION    CL-47570  33.731  16.585   3.563
75955ION    CL-47571   0.863  42.490  14.189
75956ION    CL-47572   3.298   7.940  12.559
75957ION    CL-47573   4.724  42.321   2.338
75958ION    CL-47574  25.185   7.267   3.647
75959ION    CL-47575  29.683  38.243  11.689
75960ION    CL-47576  31.847  31.930  12.888
75961ION    CL-47577  22.450  14.444  14.817
75962ION    CL-47578  25.058  40.867  14.031
75963ION    CL-47579  44.840   0.203   1.130
75964ION    CL-47580  14.093   7.135   4.120
75965ION    CL-47581  34.349  16.314   4.173
75966ION    CL-47582  17.915  39.772  12.885
75967ION    CL-47583  12.350   6.868  11.357
75968ION    CL-47584  26.720  16.600  14.152
75969ION    CL-47585  29.057   9.505  14.406
75970ION    CL-47586  27.123  17.591   4.585
75971ION    CL-47587  35.929  29.026  10.652
75972ION    CL-47588   0.714  29.491  13.663
75973ION    CL-47589  44.499  30.167   0.492
75974ION    CL-47590   8.598  13.307   3.130
75975ION    CL-47591  27.449  13.259  14.658
75976ION    CL-47592  27.951  30.353   1.810
75977ION    CL-47593  20.323   3.516  14.841
75978ION    CL-47594  15.095  13.545   4.066
75979ION    CL-47595  21.271  27.542  12.437
75980ION    CL-47596   1.203  33.623  13.430
75981ION    CL-47597  32.701   2.393  10.978
75982ION    CL-47598  39.632  22.090   1.655
75983ION    CL-47599  18.476  35.887   3.284
75984ION    CL-47600  29.643  13.369   1.625
75985ION    CL-47601  27.805  19.501   0.381
75986ION    CL-47602  20.658  15.269   4.322
75987ION    CL-47603  29.261  42.374   3.679
75988ION    CL-47604   1.752   3.119   4.569
75989ION    CL-47605  30.952  25.309  14.434
75990ION    CL-47606  13.546  44.124   5.325
75991ION    CL-47607   5.693   3.424  11.094
75992ION    CL-47608  38.514  16.149  13.048
75993ION    CL-47609  39.920  43.363  11.705
75994ION    CL-47610  13.094   8.296  14.885
75995ION    CL-47611  28.562   0.411   2.906
75996ION    CL-47612  36.964  30.501  13.557
75997ION    CL-47613  10.791  22.048   2.554
75998ION    CL-47614  11.662  28.000  10.604
75999ION    CL-47615  36.657  22.497   4.238
76000ION    CL-47616  43.369  42.442   0.315
76001ION    CL-47617  37.070  39.262   2.418
76002ION    CL-47618  34.157  30.436  14.689
76003ION    CL-47619  15.113  38.699   1.153
76004ION    CL-47620  32.570  33.764  14.673
76005ION    CL-47621  39.205  38.821  11.600
76006ION    CL-47622   4.997   6.167   4.734
76007ION    CL-47623  34.385  11.844  13.722
76008ION    CL-47624  43.269  38.237   4.366
76009ION    CL-47625  37.378   4.001   3.703
76010ION    CL-47626  20.875  14.507  11.592
76011ION    CL-47627   5.762  27.207   3.815
76012ION    CL-47628  42.256  40.420  14.106
76013ION    CL-47629  25.436  35.345   1.688
76014ION    CL-47630  23.683  32.802   1.648
76015ION    CL-47631  16.750  11.988  11.282
76016ION    CL-47632  24.634  14.071   2.704
76017ION    CL-47633  44.372  31.859   2.124
76018ION    CL-47634  11.313  29.905   0.030
76019ION    CL-47635  26.225  42.597  11.293
76020ION    CL-47636  10.633  33.114   4.007
76021ION    CL-47637  39.636  14.312  11.738
76022ION    CL-47638  31.978  44.063   0.690
76023ION    CL-47639  39.491  24.303   0.818
76024ION    CL-47640  43.782  26.905  14.354
76025ION    CL-47641   7.875  39.877  13.545
76026ION    CL-47642  40.558  23.857  14.481
76027ION    CL-47643  17.363  38.342  14.414
76028ION    CL-47644   6.633  22.998   4.068
76029ION    CL-47645  20.225  43.425   1.368
76030ION    CL-47646  33.767  19.453  13.984
76031ION    CL-47647  40.734  23.354  11.721
76032ION    CL-47648  10.634   8.371   1.905
76033ION    CL-47649  35.155  42.311  14.570
76034ION    CL-47650  14.788  22.449   1.668
76035ION    CL-47651   0.156   7.588   3.183
76036ION    CL-47652  22.575  31.166   0.956
76037ION    CL-47653  37.368  16.348   2.111
76038ION    CL-47654  33.184  33.043  10.997
76039ION    CL-47655  18.574  40.265   1.375
76040ION    CL-47656   8.412   6.932   1.789
76041ION    CL-47657  41.272  42.295  13.579
76042ION    CL-47658  35.872  43.271  10.623
76043ION    CL-47659  32.516  32.635   0.825
76044ION    CL-47660   2.054  44.593   2.892
76045ION    CL-47661  38.162  13.748  11.352
76046ION    CL-47662  30.263  11.107   1.880
76047ION    CL-47663   1.329   4.019   1.985
76048ION    CL-47664  41.163   6.885  13.872
76049ION    CL-47665  23.490  40.445  12.676
76050ION    CL-47666   8.913  21.217   0.802
76051ION    CL-47667  12.338  12.832  14.472
76052ION    CL-47668  44.009  26.252   0.791
76053ION    CL-47669  26.577  28.138  12.544
76054ION    CL-47670  41.700  38.367   5.157
76055ION    CL-47671  22.790  36.885   1.360
76056ION    CL-47672  32.748  19.348   4.684
76057ION    CL-47673   4.493   4.435  11.628
76058ION    CL-47674  19.786  26.291  14.695
76059ION    CL-47675   4.157  12.282   4.230
76060ION    CL-47676  41.328  30.868  14.729
76061ION    CL-47677  29.332  21.384  13.288
76062ION    CL-47678  11.078   0.608  13.013
76063ION    CL-47679   2.918   9.683   3.281
76064ION    CL-47680   8.847  10.082   0.334
76065ION    CL-47681  33.279  33.095  14.453
76066ION    CL-47682  27.689  10.419  13.146
76067ION    CL-47683  37.418  21.506   2.081
76068ION    CL-47684  33.402  24.022   4.234
76069ION    CL-47685  23.000  25.120  11.578
76070ION    CL-47686  29.382  20.491  13.285
76071ION    CL-47687  41.854   2.011  13.858
76072ION    CL-47688  23.658  42.222  14.007
76073ION    CL-47689   8.268   8.806   4.361
76074ION    CL-47690  22.649  28.353   9.957
76075ION    CL-47691  37.329  41.484  11.712
76076ION    CL-47692  22.373   9.232  13.082
76077ION    CL-47693  43.482  35.388  10.690
76078ION    CL-47694  16.140   5.476   2.838
76079ION    CL-47695  36.097  17.789   2.664
76080ION    CL-47696  42.764  17.830  10.700
76081ION    CL-47697  42.888  36.513   2.338
76082ION    CL-47698  34.739  29.551  14.791
76083ION    CL-47699  13.281  30.709  12.775
76084ION    CL-47700  18.054  39.102  11.366
76085ION    CL-47701  14.798   8.345   0.984
76086ION    CL-47702  28.459  20.774  14.796
76087ION    CL-47703  38.259  44.412   0.810
76088ION    CL-47704   4.150  39.331   1.320
76089ION    CL-47705   0.744  36.787   3.965
76090ION    CL-47706   8.668   5.353   2.325
76091ION    CL-47707  29.743  12.745  13.893
76092ION    CL-47708  42.110  31.276  14.636
76093ION    CL-47709  27.006  39.731  10.397
76094ION    CL-47710   7.769  15.833   0.898
76095ION    CL-47711   1.146  43.957   0.120
76096ION    CL-47712  30.818  44.639   3.042
76097ION    CL-47713  35.792   8.048   2.945
76098ION    CL-47714  22.642   2.343  13.786
76099ION    CL-47715  37.700  26.657  10.759
76100ION    CL-47716  12.637  24.583  14.196
76101ION    CL-47717   9.706   7.405  12.062
76102ION    CL-47718   5.424  12.216  13.748
76103ION    CL-47719  34.946  13.157   3.922
76104ION    CL-47720  25.306  20.882   5.161
76105ION    CL-47721  21.190   9.300  13.411
76106ION    CL-47722   4.154  36.876   0.856
76107ION    CL-47723  39.626  40.846  11.551
76108ION    CL-47724  15.803   7.899  11.906
76109ION    CL-47725  43.580  37.945  12.657
76110ION    CL-47726  39.266  39.957  12.060
76111ION    CL-47727  35.967   6.165   0.351
76112ION    CL-47728  44.698  36.946  13.186
76113ION    CL-47729  21.956  24.613  11.975
76114ION    CL-47730   6.583  23.953  13.933
76115ION    CL-47731  27.450  37.986   3.761
76116ION    CL-47732  17.850   2.873  13.947
76117ION    CL-47733  27.469   9.862  14.806
76118ION    CL-47734  18.708   7.840   2.963
76119ION    CL-47735   0.422  42.903   9.926
76120ION    CL-47736  32.464  16.028   4.027
76121ION    CL-47737  26.423  34.921   3.202
76122ION    CL-47738  19.980  38.137   1.916
76123ION    CL-47739  22.222  21.664  10.825
76124ION    CL-47740   3.448  32.728   3.542
76125ION    CL-47741  39.837   3.546  14.884
76126ION    CL-47742  40.024   0.903  14.653
76127ION    CL-47743   5.467  28.437  13.962
76128ION    CL-47744   4.308  23.333  11.534
76129ION    CL-47745  36.324  44.430   4.049
76130ION    CL-47746  43.275  39.352  12.434
76131ION    CL-47747  12.644  39.447  14.411
76132ION    CL-47748   9.974  10.533  11.611
76133ION    CL-47749  29.672   5.230  11.567
76134ION    CL-47750  38.646  13.973   3.772
76135ION    CL-47751  12.578   8.760  12.457
76136ION    CL-47752  35.730  24.610   3.086
76137ION    CL-47753  14.789  15.786  10.722
76138ION    CL-47754  14.464  37.558   1.267
76139ION    CL-47755   3.225  25.804   0.104
76140ION    CL-47756  25.651  23.051   2.907
76141ION    CL-47757  35.599  36.016  10.571
76142ION    CL-47758  19.581  14.673   1.752
76143ION    CL-47759  25.592  24.049  14.570
76144ION    CL-47760  15.295  30.838  11.939
76145ION    CL-47761  37.998   8.366   0.021
76146ION    CL-47762  11.093  16.397   0.201
76147ION    CL-47763  29.601   4.424   3.830
76148ION    CL-47764  14.761  22.995   0.263
76149ION    CL-47765  11.527   7.270   9.784
76150ION    CL-47766  21.135  40.278   4.217
76151ION    CL-47767   4.684  10.378   3.354
76152ION    CL-47768  28.702  15.891  14.700
76153ION    CL-47769  18.048   6.845   3.387
76154ION    CL-47770   0.076  39.170  10.008
76155ION    CL-47771  10.513   4.737  14.260
76156ION    CL-47772  33.872  14.681  14.358
76157ION    CL-47773   1.439  12.513  12.882
76158ION    CL-47774   6.585  30.508   9.662
76159ION    CL-47775  35.682   0.861   3.149
76160ION    CL-47776  44.366  44.028   0.734
76161ION    CL-47777  19.186  10.896  10.960
76162ION    CL-47778  42.168  42.083  14.517
76163ION    CL-47779   1.953   7.466  12.275
76164ION    CL-47780   0.022   6.184   4.810
76165ION    CL-47781  40.084  42.348  11.997
76166ION    CL-47782  24.004  18.942  11.318
76167ION    CL-47783  34.303  13.025  10.626
76168ION    CL-47784  13.596  21.387  14.503
76169ION    CL-47785  38.660  41.818  13.113
76170ION    CL-47786  31.025  15.432   2.008
76171ION    CL-47787  23.418  32.331   5.002
76172ION    CL-47788   7.982  30.581  12.835
76173ION    CL-47789  11.646  11.056   5.009
76174ION    CL-47790  32.410  37.123  14.929
76175ION    CL-47791  35.125  12.169  12.011
76176ION    CL-47792  37.280  39.627  12.482
76177ION    CL-47793   8.463  36.980  14.833
76178ION    CL-47794  41.784  33.932   3.772
76179ION    CL-47795   6.409  40.357   4.117
76180ION    CL-47796  25.219   4.191   2.861
76181ION    CL-47797  12.246  39.171  13.083
76182ION    CL-47798  26.640  35.904  12.633
76183ION    CL-47799  41.802   3.121  10.001
76184ION    CL-47800  26.496  26.698   4.069
76185ION    CL-47801   9.609   0.536  13.520
76186ION    CL-47802  41.706  13.100  13.980
76187ION    CL-47803  17.921  30.611   3.926
76188ION    CL-47804  26.040  35.381   4.123
76189ION    CL-47805   0.389  42.094  11.260
76190ION    CL-47806   2.798   1.451   4.773
76191ION    CL-47807   5.695  42.457  12.566
76192ION    CL-47808  24.546  17.568  13.684
76193ION    CL-47809  30.179  27.498   3.172
76194ION    CL-47810  37.255   7.413  13.042
76195ION    CL-47811  33.655   0.168   3.500
76196ION    CL-47812  39.263  31.266   4.128
76197ION    CL-47813   1.211  37.149  13.950
76198ION    CL-47814  11.207  35.677   2.551
76199ION    CL-47815   4.054  19.048   5.058
76200ION    CL-47816  31.602  36.096   4.830
76201ION    CL-47817  18.510   2.859   0.997
76202ION    CL-47818  22.975  16.013  14.136
76203ION    CL-47819  20.137  37.847  11.096
76204ION    CL-47820   7.423  36.508   3.859
76205ION    CL-47821   8.864   1.708  13.768
76206ION    CL-47822  24.819  29.511   1.433
76207ION    CL-47823   8.172  10.583  12.413
76208ION    CL-47824  39.733  40.812   2.471
76209ION    CL-47825   7.761  41.784  12.223
76210ION    CL-47826  36.625  11.313   2.680
76211ION    CL-47827  14.037   2.213  11.863
76212ION    CL-47828   3.454  14.994  14.773
76213ION    CL-47829  28.949  25.952   1.788
76214ION    CL-47830  19.221   6.924   4.494
76215ION    CL-47831  28.292   0.962   3.122
76216ION    CL-47832  17.099   4.404   4.919
76217ION    CL-47833  11.985  22.276  10.350
76218ION    CL-47834  35.387  11.663  14.847
76219ION    CL-47835  22.429  19.500  10.394
76220ION    CL-47836  33.429  44.024  13.341
76221ION    CL-47837  21.101  34.572  14.584
76222ION    CL-47838  18.121  24.931   4.082
76223ION    CL-47839  26.665  17.159  13.296
76224ION    CL-47840   0.619  32.813   4.390
76225ION    CL-47841  29.967  42.383   2.858
76226ION    CL-47842  42.760  37.632  12.665
76227ION    CL-47843  42.420  44.683   2.968
76228ION    CL-47844   8.272  16.877  12.341
76229ION    CL-47845  37.837  41.914  14.808
76230ION    CL-47846  41.254   1.671   1.348
76231ION    CL-47847  25.281  36.535   1.134
76232ION    CL-47848  37.090  21.550   3.601
76233ION    CL-47849   6.938  21.988   3.608
76234ION    CL-47850  22.319   0.577   1.056
76235ION    CL-47851  44.452  15.923  10.849
76236ION    CL-47852   5.860  42.237   1.234
76237ION    CL-47853  23.816  37.372  12.041
76238ION    CL-47854  35.835  26.471   2.210
76239ION    CL-47855   2.869   2.461   4.085
76240ION    CL-47856   6.964   9.342   0.361
76241ION    CL-47857   1.574  39.446   1.384
76242ION    CL-47858  23.955   0.288  11.100
76243ION    CL-47859   8.046  13.105  11.404
76244ION    CL-47860   1.739  13.338   4.705
76245ION    CL-47861   9.096  27.680  12.776
76246ION    CL-47862   3.354  26.984   2.779
76247ION    CL-47863  44.966  43.859  10.847
76248ION    CL-47864  30.402   2.273   1.323
76249ION    CL-47865  27.083  33.879   3.633
76250ION    CL-47866  24.994   4.621   0.121
76251ION    CL-47867   6.915   5.654   1.026
76252ION    CL-47868   3.427   5.817  14.594
76253ION    CL-47869  38.749  26.200   4.917
76254ION    CL-47870  43.206  35.352  14.122
76255ION    CL-47871   7.434   2.757  14.909
76256ION    CL-47872  10.021   1.682   1.225
76257ION    CL-47873  14.187  14.025  12.100
76258ION    CL-47874  34.309  24.584   0.781
76259ION    CL-47875  17.850   1.848  12.955
76260ION    CL-47876  12.800  13.798   1.079
76261ION    CL-47877  28.478   8.535   3.696
76262ION    CL-47878   9.222   4.497  10.397
76263ION    CL-47879   0.747  30.165  14.523
76264ION    CL-47880   7.702   1.158   1.435
76265ION    CL-47881  23.580  20.524   1.846
76266ION    CL-47882  11.020  33.513   3.320
76267ION    CL-47883  16.753  31.877  11.120
76268ION    CL-47884  35.828  14.533  13.513
76269ION    CL-47885   2.534  41.806   3.998
76270ION    CL-47886  21.534  41.259   3.880
76271ION    CL-47887  27.432  16.020  11.941
76272ION    CL-47888  17.344   4.165   0.939
76273ION    CL-47889  10.165  40.408  14.258
76274ION    CL-47890   4.004  34.406  10.628
76275ION    CL-47891   2.757  38.817  13.634
76276ION    CL-47892   1.161  26.805   4.757
76277ION    CL-47893  19.343  10.033   3.305
76278ION    CL-47894   4.257  16.013  14.360
76279ION    CL-47895  35.348  17.783   1.452
76280ION    CL-47896  44.934  23.117  13.877
76281ION    CL-47897  32.775  43.256   2.533
76282ION    CL-47898  25.914  26.499  12.416
76283ION    CL-47899  42.489  16.618   3.789
76284ION    CL-47900   0.547  22.182   4.754
76285ION    CL-47901  14.336   2.508   3.268
76286ION    CL-47902   5.441  16.957  14.154
76287ION    CL-47903   1.220  31.112  11.455
76288ION    CL-47904  18.849   9.719   2.212
76289ION    CL-47905  28.129   8.441  13.887
76290ION    CL-47906  27.638  38.793   2.795
76291ION    CL-47907  26.870  27.698  13.540
76292ION    CL-47908  26.592  28.190  10.731
76293ION    CL-47909   8.177  42.452   2.877
76294ION    CL-47910   0.384  24.238   1.455
76295ION    CL-47911   3.534   1.376  11.081
76296ION    CL-47912  21.040  20.554  13.759
76297ION    CL-47913  39.434  23.546   2.461
76298ION    CL-47914   1.254  22.269  14.888
76299ION    CL-47915  13.369  10.766   0.127
76300ION    CL-47916  10.622  39.140  11.745
76301ION    CL-47917   6.156   2.365  13.836
76302ION    CL-47918  32.540   8.526   0.101
76303ION    CL-47919  44.790  36.829  14.176
76304ION    CL-47920  21.648   3.729   1.819
76305ION    CL-47921   6.066  37.353   0.988
76306ION    CL-47922  11.918  21.308   9.790
76307ION    CL-47923   3.481  43.928  13.950
76308ION    CL-47924  33.880  23.419  11.655
76309ION    CL-47925  29.393  42.909  11.611
76310ION    CL-47926  38.064  36.744  11.759
76311ION    CL-47927  39.385  16.796   4.908
76312ION    CL-47928   6.805   6.324   2.388
76313ION    CL-47929  20.079  26.064   2.595
76314ION    CL-47930  18.322  43.303  13.944
76315ION    CL-47931   3.139  41.486  12.114
76316ION    CL-47932   2.934  25.628  12.847
76317ION    CL-47933  41.640  34.655   2.162
76318ION    CL-47934  14.226  22.304   3.592
76319ION    CL-47935  14.134  38.013  14.799
76320ION    CL-47936  40.153  37.403   0.017
76321ION    CL-47937   6.186  18.873   9.758
76322ION    CL-47938  42.370  41.635   3.752
76323ION    CL-47939  25.470  13.247  12.168
76324ION    CL-47940  21.294  13.269   0.444
76325ION    CL-47941  18.184  12.227  12.489
76326ION    CL-47942   4.523  44.288  11.377
76327ION    CL-47943  16.020  42.676  10.202
76328ION    CL-47944  21.257  40.381   3.230
76329ION    CL-47945  27.977  21.400  14.012
76330ION    CL-47946   7.918   0.777  14.943
76331ION    CL-47947   7.741  12.875  14.477
76332ION    CL-47948  33.796   6.219  12.195
76333ION    CL-47949  31.264  38.655  14.596
76334ION    CL-47950   7.195  25.014  14.559
76335ION    CL-47951   2.963  14.179   1.521
76336ION    CL-47952  44.732  34.108   4.942
76337ION    CL-47953  37.420  26.868  12.190
76338ION    CL-47954  31.653  28.032   3.692
76339ION    CL-47955  14.661   1.031   2.589
76340ION    CL-47956  29.285  38.077   0.482
76341ION    CL-47957  37.209  20.737   4.384
76342ION    CL-47958  43.758  15.420   4.651
76343ION    CL-47959  15.562  37.255   1.355
76344ION    CL-47960  22.081  10.733   1.881
76345ION    CL-47961  28.731   1.419  11.934
76346ION    CL-47962  26.308   9.251  12.091
76347ION    CL-47963  40.866  35.219   4.213
76348ION    CL-47964  40.957  22.487  14.034
76349ION    CL-47965  25.154   7.199   0.461
76350ION    CL-47966  29.468  23.475  10.684
76351ION    CL-47967   5.224  20.473   1.676
76352ION    CL-47968  20.193  39.251  12.068
76353ION    CL-47969   5.425  16.307   0.012
76354ION    CL-47970  41.588   6.362   1.834
76355ION    CL-47971   4.821   1.206   3.750
76356ION    CL-47972   2.486  44.975  12.853
76357ION    CL-47973  43.246  16.536   4.298
76358ION    CL-47974  15.723  14.039   2.919
76359ION    CL-47975  15.398  40.329  10.652
76360ION    CL-47976   5.920  44.518   3.812
76361ION    CL-47977   0.630  10.815   2.680
76362ION    CL-47978   7.649   0.309   0.907
76363ION    CL-47979  12.644  11.954   4.007
76364ION    CL-47980   3.783  35.954  10.022
76365ION    CL-47981  27.765  36.479   4.092
76366ION    CL-47982  38.554  37.167  10.997
76367ION    CL-47983  25.351  22.629   4.537
76368ION    CL-47984   0.392  35.573   3.370
76369ION    CL-47985  39.698   2.171   4.081
76370ION    CL-47986   9.919  42.460  14.663
76371ION    CL-47987  40.248  41.625  11.459
76372ION    CL-47988  18.687  21.115   2.758
76373ION    CL-47989  15.678  25.432   3.178
76374ION    CL-47990   7.214  19.776   0.327
76375ION    CL-47991  25.544  38.094   1.147
76376ION    CL-47992  28.093  43.012  14.836
76377ION    CL-47993  32.658  11.387   2.160
76378ION    CL-47994  20.259  12.975  13.463
76379ION    CL-47995   3.866  27.534  12.386
  45.00000  45.00000  15.00000
